<LesHouchesEvents version="3.0">
  <!--
  <scalesfunctionalform>
    muR  H_T/2 := sum_i mT(i)/2, i=final state
    muF1 H_T/2 := sum_i mT(i)/2, i=final state
    muF2 H_T/2 := sum_i mT(i)/2, i=final state
    QES  H_T/2 := sum_i mT(i)/2, i=final state
  </scalesfunctionalform>
HERWIG6   
  -->
  <header>
      964
  </header>
  <init>
   2212   2212 0.65000000D+04 0.65000000D+04 -1 -1   244800   244800 -4   1
 0.49088690D-03 0.22127742D-05 0.55102590D-06     66
  </init>
  <event>
  8     66 0.55102590E-06 0.46790537E+02 0.75467711E-02 0.10263145E+00
        2 -1    0    0  501    0 0.00000000E+00 0.00000000E+00 0.23004560E+04 0.23004560E+04 0.32000000E+00 0.0000E+00 0.9000E+01
       -2 -1    0    0    0  501 0.00000000E+00 0.00000000E+00 -.28341691E+02 0.28343498E+02 0.32000000E+00 0.0000E+00 0.9000E+01
       25  2    1    2    0    0 0.98444257E+02 0.28518426E+02 0.98897581E+03 0.10385312E+04 0.29994895E+03 0.0000E+00 0.0000E+00
       23  2    1    2    0    0 -.98444257E+02 -.28518426E+02 0.12831385E+04 0.12902683E+04 0.88562421E+02 0.0000E+00 0.0000E+00
       23  1    3    3    0    0 0.31492560E+02 -.27253296E+02 0.10339961E+03 0.14401824E+03 0.91188000E+02 0.0000E+00 0.9000E+01
      -13  1    4    4    0    0 -.51874595E+02 -.37154060E+02 0.33964136E+03 0.34558308E+03 0.10565837E+00 0.0000E+00 0.9000E+01
       13  1    4    4    0    0 -.46569662E+02 0.86356334E+01 0.94349713E+03 0.94468522E+03 0.10565837E+00 0.0000E+00 0.9000E+01
       23  1    3    3    0    0 0.66951697E+02 0.55771722E+02 0.88557620E+03 0.89451298E+03 0.91188000E+02 0.0000E+00 0.9000E+01
#aMCatNLO 1  0  0  1  2 0.16138590D+03 0.00000000D+00  -5  7  0 0.00000000D+00 0.00000000D+00 0.00000000D+00 0.00000000D+00 0.00000000D+00
  <mgrwgt>
 0.3356857976D-03    8    2    0
 0.255344753875441D+03 0.000000000000000D+00 0.000000000000000D+00 0.255344753875441D+03
 0.255344753875441D+03 0.000000000000000D+00 0.000000000000000D+00 -.255344753875441D+03
 0.196702454122397D+03 0.314925618904001D+02 -.272532950842297D+02 -.169239713325227D+03
 0.647941130331828D+02 -.518746019093530D+02 -.371541212524909D+02 0.112638374659001D+02
 0.110143590546817D+03 -.465696584869653D+02 0.863569392477560D+01 0.994399428669885D+02
 0.139049350048485D+03 0.669516985059183D+02 0.557717224119451D+02 0.585359329923386D+02
 0.000000000000000D+00 -.000000000000000D+00 0.000000000000000D+00 0.000000000000000D+00
 0.441522218734029D+03 0.000000000000000D+00 0.000000000000000D+00 0.441522218734029D+03
 0.305271087405161D+03 0.000000000000000D+00 0.000000000000000D+00 -.305271087405161D+03
 0.219086776077861D+03 0.884617077910267D+02 -.567116372227133D+02 -.169239713325227D+03
 0.587838900965431D+02 -.349426258526027D+02 -.459095262331171D+02 0.112638374659001D+02
 0.101186580978867D+03 -.176143645534197D+02 -.633688363330507D+01 0.994399428669885D+02
 0.156525783691176D+03 0.107449772278781D+03 0.348304550945177D+02 0.585359329923386D+02
 0.211210275294744D+03 -.143354489663786D+03 0.741275919946178D+02 0.136251131328869D+03
0.157739010438D-05 0.000000000000D+00 0.000000000000D+00 0.619406600617D-07 0.000000000000D+00  7 2 -2 23 -13 13 23 21 0 0.35391645D+00 0.43604009D-02 0.28484606D+05 0.28484606D+05 0.28484606D+05 0.11694303D+01  1  2  2  1  7  1        2 0.208378746818D-03 0.100000000000D+01
-.693659066256D-07 0.000000000000D+00 -.605759333719D-08 0.619406600617D-07 0.000000000000D+00  7 2 -2 23 -13 13 23 21 2 0.35391645D+00 0.43604009D-02 0.28484606D+05 0.28484606D+05 0.28484606D+05 0.11694303D+01  1  2  3  1  7  1        2 -.125316733127D-04 0.100000000000D+01
0.100790043116D-06 0.000000000000D+00 0.000000000000D+00 0.619406600617D-07 0.000000000000D+00  7 2 -2 23 -13 13 23 21 2 0.35391645D+00 0.43604009D-02 0.28484606D+05 0.28484606D+05 0.28484606D+05 0.11694303D+01  1  2 15  1  7  1        2 0.182087707773D-04 0.100000000000D+01
0.212501840188D-08 0.000000000000D+00 0.000000000000D+00 0.619406600617D-07 0.000000000000D+00  7 2 -2 23 -13 13 23 21 2 0.62542409D+00 0.43604009D-02 0.68146505D+05 0.68146505D+05 0.68146505D+05 0.11356517D+01  1  2 12  1  7  1        2 0.246985310106D-07 0.100000000000D+01
-.559674986204D-06 0.000000000000D+00 -.375062038648D-06 0.619406600617D-07 0.000000000000D+00  7 2 -2 23 -13 13 23 21 2 0.63258600D+00 0.43604009D-02 0.28484606D+05 0.28484606D+05 0.28484606D+05 0.11694303D+01  1  2  5  1  7  1        2 -.662797709555D-05 0.100000000000D+01
0.709822229345D-06 0.000000000000D+00 0.319628325204D-06 0.619406600617D-07 0.000000000000D+00  7 2 -2 23 -13 13 23 21 2 0.35391645D+00 0.43604009D-02 0.28484606D+05 0.28484606D+05 0.28484606D+05 0.11694303D+01  1  2  6  1  7  1        2 0.128236776840D-03 0.100000000000D+01
0.133290643895D-09 0.000000000000D+00 0.000000000000D+00 0.619406600617D-07 0.000000000000D+00  7 21 -2 23 -13 13 23 -2 2 0.62542409D+00 0.43604009D-02 0.68146505D+05 0.68146505D+05 0.68146505D+05 0.11356517D+01  1  2 12  3  7  1        2 0.294382129108D-10 0.100000000000D+01
-.159820811798D-07 0.000000000000D+00 -.239280464141D-07 0.619406600617D-07 0.000000000000D+00  7 21 -2 23 -13 13 23 -2 2 0.63258600D+00 0.43604009D-02 0.28484606D+05 0.28484606D+05 0.28484606D+05 0.11694303D+01  1  2  5  3  7  1        2 -.357435174840D-08 0.100000000000D+01
  </mgrwgt>
  </event>
  <event>
  9     66 -.55102590E-06 0.39539318E+03 0.75467711E-02 0.96620245E-01
        2 -1    0    0  502    0 0.00000000E+00 0.00000000E+00 0.64111300E+03 0.64111308E+03 0.32000000E+00 0.0000E+00 0.9000E+01
       -2 -1    0    0    0  501 0.00000000E+00 0.00000000E+00 -.50893239E+03 0.50893249E+03 0.32000000E+00 0.0000E+00 0.9000E+01
       25  2    1    2    0    0 -.30805367E+03 0.14782502E+03 -.28560357E+03 0.53713628E+03 0.30032763E+03 0.0000E+00 0.0000E+00
       23  2    1    2    0    0 0.34715781E+03 -.12191335E+03 0.41987963E+03 0.56594652E+03 0.92817802E+02 0.0000E+00 0.0000E+00
       23  1    3    3    0    0 -.26203211E+03 0.48815198E+02 -.90915290E+02 0.29601452E+03 0.91188000E+02 0.0000E+00 0.9000E+01
      -13  1    4    4    0    0 0.34433023E+02 0.21895654E+01 0.10530720E+02 0.36074014E+02 0.10565837E+00 0.0000E+00 0.9000E+01
       13  1    4    4    0    0 0.31272479E+03 -.12410291E+03 0.40934891E+03 0.52987250E+03 0.10565837E+00 0.0000E+00 0.9000E+01
       23  1    3    3    0    0 -.46021556E+02 0.99009820E+02 -.19468828E+03 0.24112176E+03 0.91188000E+02 0.0000E+00 0.9000E+01
       21  1    1    2  502  501 -.39104141E+02 -.25911671E+02 -.20954582E+01 0.46962773E+02 0.75000000E+00 0.0000E+00 0.9000E+01
#aMCatNLO 2  0  0  1  2 0.46910005D+02 0.00000000D+00  -5  7  0 0.00000000D+00 0.00000000D+00 0.00000000D+00 0.00000000D+00 0.00000000D+00
  <mgrwgt>
 -.1641770830D-03    3    2    0
 0.546937162772538D+03 0.000000000000000D+00 0.000000000000000D+00 0.546937162772538D+03
 0.546937162772538D+03 0.000000000000000D+00 0.000000000000000D+00 -.546937162772538D+03
 0.317877397170835D+03 -.273238693278723D+03 0.413893556432525D+02 -.127899671707466D+03
 0.338016570355382D+02 0.332025232056450D+02 0.137459908016415D+01 0.618505848764325D+01
 0.475845325923368D+03 0.295583036180359D+03 -.135461995248597D+03 0.347432714016377D+03
 0.266349945415335D+03 -.555468661072819D+02 0.926980405251802D+02 -.225718100796555D+03
 0.000000000000000D+00 -.000000000000000D+00 -.000000000000000D+00 -.000000000000000D+00
 0.567287388877740D+03 0.000000000000000D+00 0.000000000000000D+00 0.567287388877740D+03
 0.575158021075878D+03 0.000000000000000D+00 0.000000000000000D+00 -.575158021075878D+03
 0.309382173718758D+03 -.262032113391945D+03 0.488151984469757D+02 -.127899671707466D+03
 0.350522194585585D+02 0.344326622154828D+02 0.218972903114602D+01 0.618505848764325D+01
 0.483640447869272D+03 0.312725148430611D+03 -.124103076454439D+03 0.347432714016377D+03
 0.266804873189015D+03 -.460215557828230D+02 0.990098196621467D+02 -.225718100796555D+03
 0.475656957180145D+02 -.391041414713266D+02 -.259116706858291D+02 -.787063219813801D+01
-.377877794673D-04 0.000000000000D+00 0.000000000000D+00 0.100769001466D-05 0.000000000000D+00  7 2 -2 23 -13 13 23 21 2 0.10098062D+00 0.74455162D-01 0.17716667D+06 0.17716667D+06 0.17716667D+06 0.11018919D+01  1  2 13  1  7  1        2 -.421577547400D-03 0.100000000000D+01
-.103133782139D-05 0.000000000000D+00 0.000000000000D+00 0.100769001466D-05 0.000000000000D+00  7 2 -2 23 -13 13 23 21 2 0.95094049D-01 0.74455162D-01 0.15633577D+06 0.15633577D+06 0.15633577D+06 0.11061368D+01  1  2  8  1  7  1        2 -.124913721143D-04 0.100000000000D+01
0.262911992702D-04 0.000000000000D+00 0.000000000000D+00 0.100769001466D-05 0.296996842424D-08  7 2 -2 23 -13 13 23 21 2 0.98632271D-01 0.78296899D-01 0.17716667D+06 0.17716667D+06 0.17716667D+06 0.11018919D+01  1  2  1  1  7  1        2 0.269891836560D-03 0.100000000000D+01
  </mgrwgt>
  </event>
  <event>
  9     66 0.55102590E-06 0.24193294E+03 0.75467711E-02 0.10286028E+00
        2 -1    0    0  501    0 0.00000000E+00 0.00000000E+00 0.84097350E+03 0.84097356E+03 0.32000000E+00 0.0000E+00 0.9000E+01
       -2 -1    0    0    0  502 0.00000000E+00 0.00000000E+00 -.21461166E+03 0.21461190E+03 0.32000000E+00 0.0000E+00 0.9000E+01
       25  2    1    2    0    0 0.32018833E+02 0.14552221E+03 0.73707819E+03 0.81099732E+03 0.30369470E+03 0.0000E+00 0.0000E+00
       23  2    1    2    0    0 -.61336433E+02 -.15280385E+03 -.89553401E+02 0.20769672E+03 0.89481513E+02 0.0000E+00 0.0000E+00
       23  1    3    3    0    0 0.11102690E+03 0.81359524E+02 0.57879642E+03 0.60188611E+03 0.91188000E+02 0.0000E+00 0.9000E+01
      -11  1    4    4    0    0 -.28873892E+02 -.14507709E+03 -.92065357E+02 0.17423287E+03 0.51099893E-03 0.0000E+00 0.9000E+01
       11  1    4    4    0    0 -.32462541E+02 -.77267657E+01 0.25119562E+01 0.33463852E+02 0.51099893E-03 0.0000E+00 0.9000E+01
       23  1    3    3    0    0 -.79008069E+02 0.64162687E+02 0.15828177E+03 0.20911120E+03 0.91188000E+02 0.0000E+00 0.9000E+01
       21  1    1    2  501  502 0.29317600E+02 0.72816408E+01 -.21162955E+02 0.36891423E+02 0.75000000E+00 0.0000E+00 0.9000E+01
#aMCatNLO 2  0  0  2  1 0.30208342D+02 0.00000000D+00  -5  7  0 0.00000000D+00 0.00000000D+00 0.00000000D+00 0.00000000D+00 0.00000000D+00
  <mgrwgt>
 0.2190408831D-04    2    2    0
 0.392917499065855D+03 0.000000000000000D+00 0.000000000000000D+00 0.392917499065855D+03
 0.392917499065855D+03 0.000000000000000D+00 0.000000000000000D+00 -.392917499065855D+03
 0.308207495426723D+03 0.122425662100644D+03 0.841906451214421D+02 0.254166286958888D+03
 0.299301600831607D+03 -.176707947883814D+02 -.142294562179535D+03 -.262719334739649D+03
 0.400273412648659D+02 -.309464195680953D+02 -.735020507768999D+01 -.242998281879800D+02
 0.138298560608515D+03 -.738084477441674D+02 0.654541221357832D+02 0.328528759687410D+02
 0.000000000000000D+00 0.000000000000000D+00 0.000000000000000D+00 -.000000000000000D+00
 0.396917293688094D+03 0.000000000000000D+00 0.000000000000000D+00 0.396917293688094D+03
 0.454706653260555D+03 0.000000000000000D+00 0.000000000000000D+00 -.454706653260555D+03
 0.303087607601766D+03 0.111026902018451D+03 0.813595239629615D+02 0.254166286958888D+03
 0.301500433541642D+03 -.288738916441972D+02 -.145077086271656D+03 -.262719334739649D+03
 0.412795486816208D+02 -.324625412038449D+02 -.772676568698874D+01 -.242998281879800D+02
 0.140547814547126D+03 -.790080688673226D+02 0.641626871663918D+02 0.328528759687410D+02
 0.652085425764938D+02 0.293175996969134D+02 0.728164082929160D+01 -.577893595724605D+02
-.351580206690D-04 0.000000000000D+00 0.000000000000D+00 0.122294954547D-07 0.000000000000D+00  7 2 -2 23 -11 11 23 21 2 0.12807608D+00 0.33147786D-01 0.65860331D+05 0.65860331D+05 0.65860331D+05 0.11369171D+01  1  2 13  2  7  2       -2 -.156744515132D-02 0.100000000000D+01
0.358590170459D-04 0.000000000000D+00 0.000000000000D+00 0.122294954547D-07 0.932505269784D-10  7 2 -2 23 -11 11 23 21 2 0.12937986D+00 0.33017024D-01 0.65860331D+05 0.65860331D+05 0.65860331D+05 0.11369171D+01  1  2  1  2  7  2       -2 0.158934923963D-02 0.100000000000D+01
  </mgrwgt>
  </event>
  <event>
  9     66 0.55102590E-06 0.25978062E+03 0.75467711E-02 0.99330651E-01
        2 -1    0    0  501    0 0.00000000E+00 0.00000000E+00 0.70560801E+03 0.70560808E+03 0.32000000E+00 0.0000E+00 0.9000E+01
       21 -1    0    0  502  501 0.00000000E+00 0.00000000E+00 -.31369689E+03 0.31369779E+03 0.75000000E+00 0.0000E+00 0.9000E+01
       25  2    1    2    0    0 -.11172001E+03 0.32942967E+02 0.44652023E+03 0.55028670E+03 0.29978081E+03 0.0000E+00 0.0000E+00
       23  2    1    2    0    0 0.23831380E+03 0.15157941E+02 0.89125163E+02 0.27153669E+03 0.93625034E+02 0.0000E+00 0.0000E+00
       23  1    3    3    0    0 0.12550556E+02 -.66175089E+02 0.74715465E+02 0.13577301E+03 0.91188000E+02 0.0000E+00 0.9000E+01
      -13  1    4    4    0    0 0.40846963E+02 0.16990759E+02 0.55896348E+02 0.71285154E+02 0.10565837E+00 0.0000E+00 0.9000E+01
       13  1    4    4    0    0 0.19746684E+03 -.18328177E+01 0.33228815E+02 0.20025154E+03 0.10565837E+00 0.0000E+00 0.9000E+01
       23  1    3    3    0    0 -.12427057E+03 0.99118056E+02 0.37180476E+03 0.41451369E+03 0.91188000E+02 0.0000E+00 0.9000E+01
        2  1    1    2  502    0 -.12659379E+03 -.48100908E+02 -.14373427E+03 0.19748248E+03 0.32000000E+00 0.0000E+00 0.9000E+01
#aMCatNLO 2  0  0  2  1 0.13542410D+03 0.00000000D+00  -5  7  0 0.00000000D+00 0.00000000D+00 0.00000000D+00 0.00000000D+00 0.00000000D+00
  <mgrwgt>
 0.5571649997D-04    2    2    0
 0.304194842766183D+03 0.000000000000000D+00 0.000000000000000D+00 0.304194842766183D+03
 0.304194842766183D+03 0.000000000000000D+00 0.000000000000000D+00 -.304194842766183D+03
 0.120243165515156D+03 -.116090226517129D+02 -.753548248240365D+02 -.181672363863106D+02
 0.372373431961367D+02 0.322960301955128D+02 0.137418228215316D+02 0.124397937064498D+02
 0.200303764074798D+03 0.152675738266595D+03 -.188518610179694D+02 -.128282205248591D+03
 0.250605412746275D+03 -.173362745810395D+03 0.804648630204743D+02 0.134009647928452D+03
 0.000000000000000D+00 -.000000000000000D+00 -.000000000000000D+00 -.000000000000000D+00
 0.323979034878847D+03 0.000000000000000D+00 0.000000000000000D+00 0.323979034878847D+03
 0.683215332832707D+03 0.000000000000000D+00 0.000000000000000D+00 -.683215332832707D+03
 0.114812710908458D+03 0.125505556269328D+02 -.661750883466597D+02 -.181672363863106D+02
 0.459553395074099D+02 0.408467635809852D+02 0.169907818166612D+02 0.124397937064498D+02
 0.235484427932877D+03 0.197467041074718D+03 -.183284058993543D+01 -.128282205248591D+03
 0.227027310684001D+03 -.124270566768845D+03 0.991180556177951D+02 0.134009647928452D+03
 0.383914578678808D+03 -.126593793513792D+03 -.481009084978612D+02 -.359236297953860D+03
-.212261354494D-06 0.000000000000D+00 0.000000000000D+00 0.994368271789D-07 0.000000000000D+00  7 2 21 23 -13 13 23 2 2 0.10192607D+00 0.48067451D-01 0.11348870D+06 0.11348870D+06 0.11348870D+06 0.11172402D+01  1  2 13  4  7  2       -2 -.648526628690D-04 0.100000000000D+01
0.429154465918D-06 0.000000000000D+00 0.000000000000D+00 0.994368271789D-07 0.455748780971D-11  7 2 21 23 -13 13 23 2 2 0.10855513D+00 0.48261125D-01 0.11348870D+06 0.11348870D+06 0.11348870D+06 0.11172402D+01  1  2  1  4  7  2       -2 0.120569162840D-03 0.100000000000D+01
  </mgrwgt>
  </event>
  <event>
  8     66 0.55102590E-06 0.14288846E+03 0.75467711E-02 0.10040407E+00
        2 -1    0    0  501    0 0.00000000E+00 0.00000000E+00 0.33053647E+04 0.33053647E+04 0.32000000E+00 0.0000E+00 0.9000E+01
       -2 -1    0    0    0  501 0.00000000E+00 0.00000000E+00 -.69092025E+02 0.69092766E+02 0.32000000E+00 0.0000E+00 0.9000E+01
       25  2    1    2    0    0 -.15081939E+03 0.18617786E+03 0.52259080E+03 0.64863202E+03 0.30035590E+03 0.0000E+00 0.0000E+00
       23  2    1    2    0    0 0.15081939E+03 -.18617786E+03 0.27136818E+04 0.27258254E+04 0.92986257E+02 0.0000E+00 0.0000E+00
       23  1    3    3    0    0 -.42930140E+02 0.19123651E+03 0.19214380E+03 0.28922118E+03 0.91188000E+02 0.0000E+00 0.9000E+01
      -13  1    4    4    0    0 0.10132247E+03 -.17888665E+03 0.22863939E+04 0.22956184E+04 0.10565837E+00 0.0000E+00 0.9000E+01
       13  1    4    4    0    0 0.49496919E+02 -.72912074E+01 0.42728796E+03 0.43020707E+03 0.10565837E+00 0.0000E+00 0.9000E+01
       23  1    3    3    0    0 -.10788925E+03 -.50586504E+01 0.33044699E+03 0.35941083E+03 0.91188000E+02 0.0000E+00 0.9000E+01
#aMCatNLO 1  0  0  1  2 0.59871107D+01 0.00000000D+00  -5  7  0 0.00000000D+00 0.00000000D+00 0.00000000D+00 0.00000000D+00 0.00000000D+00
  <mgrwgt>
 0.5329804993D-03   11    2    0
 0.477886612265115D+03 0.000000000000000D+00 0.000000000000000D+00 0.477886612265115D+03
 0.477886612265115D+03 0.000000000000000D+00 0.000000000000000D+00 -.477886612265115D+03
 0.370521829341498D+03 -.429301401345656D+02 0.191236512282613D+03 -.300926526103264D+03
 0.363133081446931D+03 0.101322536851269D+03 -.178886875933889D+03 0.299330693357330D+03
 0.720827267709972D+02 0.494968516949031D+02 -.729098599296825D+01 0.518924146122084D+02
 0.150035586970805D+03 -.107889248411606D+03 -.505865035575550D+01 -.502965818662743D+02
 0.000000000000000D+00 0.000000000000000D+00 -.000000000000000D+00 0.000000000000000D+00
 0.487615091588375D+03 0.000000000000000D+00 0.000000000000000D+00 0.487615091588375D+03
 0.478818025277806D+03 0.000000000000000D+00 0.000000000000000D+00 -.478818025277806D+03
 0.371740538087399D+03 -.438010935347944D+02 0.193392001918608D+03 -.300926526103264D+03
 0.361863458877888D+03 0.100471842771038D+03 -.176781525322872D+03 0.299330693357330D+03
 0.719256372870766D+02 0.493278756295097D+02 -.687279351838690D+01 0.518924146122084D+02
 0.150262342185427D+03 -.108241611018088D+03 -.418660146521430D+01 -.502965818662743D+02
 0.106411404283893D+02 0.224298615233457D+01 -.555108161213485D+01 0.879706631056941D+01
0.117527189950D-04 0.000000000000D+00 0.000000000000D+00 0.380227829294D-06 0.000000000000D+00  7 2 -2 23 -13 13 23 21 0 0.50851770D+00 0.10629601D-01 0.93986435D+05 0.93986435D+05 0.93986435D+05 0.11239391D+01  1  2  2  1  7  1        2 0.988769674268D-04 0.100000000000D+01
-.496485166659D-06 0.000000000000D+00 -.451335355029D-07 0.380227829294D-06 0.000000000000D+00  7 2 -2 23 -13 13 23 21 2 0.50851770D+00 0.10629601D-01 0.93986435D+05 0.93986435D+05 0.93986435D+05 0.11239391D+01  1  2  3  1  7  1        2 -.527653239053D-05 0.100000000000D+01
0.719188442568D-06 0.000000000000D+00 0.000000000000D+00 0.380227829294D-06 0.000000000000D+00  7 2 -2 23 -13 13 23 21 2 0.50851770D+00 0.10629601D-01 0.93986435D+05 0.93986435D+05 0.93986435D+05 0.11239391D+01  1  2 15  1  7  1        2 0.764337258581D-05 0.100000000000D+01
0.130801121117D-04 0.000000000000D+00 0.000000000000D+00 0.380227829294D-06 0.000000000000D+00  7 2 -2 23 -13 13 23 21 2 0.51935964D+00 0.10629601D-01 0.95783032D+05 0.95783032D+05 0.95783032D+05 0.11232608D+01  1  2 12  1  7  1        2 0.124380370711D-03 0.100000000000D+01
-.658434112383D-04 0.000000000000D+00 0.000000000000D+00 0.380227829294D-06 0.000000000000D+00  7 2 -2 23 -13 13 23 21 2 0.50851770D+00 0.10629601D-01 0.93986435D+05 0.93986435D+05 0.93986435D+05 0.11239391D+01  1  2  4  1  7  1        2 -.699768926512D-03 0.100000000000D+01
-.463409568391D-03 0.000000000000D+00 -.390870285348D-04 0.380227829294D-06 0.000000000000D+00  7 2 -2 23 -13 13 23 21 2 0.51911903D+00 0.10629601D-01 0.93986435D+05 0.93986435D+05 0.93986435D+05 0.11239391D+01  1  2  5  1  7  1        2 -.442730960868D-02 0.100000000000D+01
0.464278967651D-03 0.000000000000D+00 0.391066097551D-04 0.380227829294D-06 0.000000000000D+00  7 2 -2 23 -13 13 23 21 2 0.50851770D+00 0.10629601D-01 0.93986435D+05 0.93986435D+05 0.93986435D+05 0.11239391D+01  1  2  6  1  7  1        2 0.493425217018D-02 0.100000000000D+01
0.525358661203D-04 0.000000000000D+00 0.000000000000D+00 0.380227829294D-06 0.713993584614D-07  7 2 -2 23 -13 13 23 21 2 0.51886974D+00 0.10650318D-01 0.95783032D+05 0.95783032D+05 0.95783032D+05 0.11232608D+01  1  2 11  1  7  1        2 0.500543494507D-03 0.100000000000D+01
0.690996324749D-06 0.000000000000D+00 0.000000000000D+00 0.380227829294D-06 0.000000000000D+00  7 21 -2 23 -13 13 23 -2 2 0.51935964D+00 0.10629601D-01 0.95783032D+05 0.95783032D+05 0.95783032D+05 0.11232608D+01  1  2 12  3  7  1        2 0.291111977547D-06 0.100000000000D+01
-.173250119802D-05 0.000000000000D+00 -.146643476240D-06 0.380227829294D-06 0.000000000000D+00  7 21 -2 23 -13 13 23 -2 2 0.51911903D+00 0.10629601D-01 0.93986435D+05 0.93986435D+05 0.93986435D+05 0.11239391D+01  1  2  5  3  7  1        2 -.735714155951D-06 0.100000000000D+01
0.197654401694D-06 0.000000000000D+00 0.000000000000D+00 0.380227829294D-06 0.260792670923D-09  7 21 -2 23 -13 13 23 -2 2 0.51886974D+00 0.10650318D-01 0.95783032D+05 0.95783032D+05 0.95783032D+05 0.11232608D+01  1  2 11  3  7  1        2 0.837936328410D-07 0.100000000000D+01
  </mgrwgt>
  </event>
  <event>
  8     66 0.55102590E-06 0.22644991E+03 0.75467711E-02 0.94870812E-01
        4 -1    0    0  501    0 0.00000000E+00 0.00000000E+00 0.62457440E+03 0.62457632E+03 0.15500000E+01 0.0000E+00 0.9000E+01
       -4 -1    0    0    0  501 0.00000000E+00 0.00000000E+00 -.13853239E+03 0.13854107E+03 0.15500000E+01 0.0000E+00 0.9000E+01
       25  2    1    2    0    0 0.10281974E+03 0.63976363E+02 0.51511746E+03 0.60795820E+03 0.29933644E+03 0.0000E+00 0.0000E+00
       23  2    1    2    0    0 -.10281974E+03 -.63976363E+02 -.29075455E+02 0.15515919E+03 0.92542517E+02 0.0000E+00 0.0000E+00
       23  1    3    3    0    0 0.15228508E+03 0.10030352E+03 0.26180606E+03 0.33182708E+03 0.91188000E+02 0.0000E+00 0.9000E+01
      -11  1    4    4    0    0 -.10538833E+03 -.36533950E+02 -.48305116E+02 0.12155169E+03 0.51099893E-03 0.0000E+00 0.9000E+01
       11  1    4    4    0    0 0.25685942E+01 -.27442413E+02 0.19229660E+02 0.33607493E+02 0.51099893E-03 0.0000E+00 0.9000E+01
       23  1    3    3    0    0 -.49465345E+02 -.36327157E+02 0.25331139E+03 0.27613112E+03 0.91188000E+02 0.0000E+00 0.9000E+01
#aMCatNLO 1  0  0  1  1 0.39324367D+03 0.00000000D+00  -5  7  0 0.00000000D+00 0.00000000D+00 0.00000000D+00 0.00000000D+00 0.00000000D+00
  <mgrwgt>
 0.9058215576D-05    5    2    0
 0.294156130995380D+03 0.000000000000000D+00 0.000000000000000D+00 0.294156130995380D+03
 0.294156130995380D+03 0.000000000000000D+00 0.000000000000000D+00 -.294156130995380D+03
 0.214128239124989D+03 0.152285083880230D+03 0.100303520174744D+03 0.654531016447230D+02
 0.197576243610206D+03 -.105388333017637D+03 -.365339495825364D+02 -.163079556753089D+03
 0.277064416587666D+02 0.256859419261823D+01 -.274424133567190D+02 -.282191112958049D+01
 0.148901337596798D+03 -.494653450552115D+02 -.363271572354882D+02 0.100448366237947D+03
 0.000000000000000D+00 -.000000000000000D+00 -.000000000000000D+00 0.000000000000000D+00
 0.194989375290506D+04 0.000000000000000D+00 0.000000000000000D+00 0.194989375290506D+04
 0.378041146571712D+03 0.000000000000000D+00 0.000000000000000D+00 -.378041146571712D+03
 0.329624867929519D+03 0.160558766163526D+03 0.265092580633040D+03 0.654531016447230D+02
 0.209728218617155D+03 -.991908370046165D+02 0.869031743255946D+02 -.163079556753089D+03
 0.150920004736859D+02 0.321981017249940D+01 -.144719770013483D+02 -.282191112958049D+01
 0.153193171788807D+03 -.448687111091105D+02 0.552251846737482D+02 0.100448366237947D+03
 0.162029664066761D+04 -.197190282222983D+02 -.392748962631034D+03 0.157185260633335D+04
0.226358648924D-05 0.000000000000D+00 0.000000000000D+00 0.131814887014D-06 0.000000000000D+00  7 4 -4 23 -11 11 23 21 0 0.96089184D-01 0.21313491D-01 0.51279563D+05 0.51279563D+05 0.51279563D+05 0.11463313D+01  1  2  2  1  7  1        4 0.893475162265D-05 0.100000000000D+01
-.115292242036D-06 0.000000000000D+00 -.869276813468D-08 0.131814887014D-06 0.000000000000D+00  7 4 -4 23 -11 11 23 21 2 0.96089184D-01 0.21313491D-01 0.51279563D+05 0.51279563D+05 0.51279563D+05 0.11463313D+01  1  2  3  1  7  1        4 -.598006369620D-06 0.100000000000D+01
0.140484266467D-06 0.000000000000D+00 0.000000000000D+00 0.131814887014D-06 0.000000000000D+00  7 4 -4 23 -11 11 23 21 2 0.96089184D-01 0.21313491D-01 0.51279563D+05 0.51279563D+05 0.51279563D+05 0.11463313D+01  1  2 15  1  7  1        4 0.728674234230D-06 0.100000000000D+01
-.387008904019D-05 0.000000000000D+00 -.115236097954D-05 0.131814887014D-06 0.000000000000D+00  7 4 -4 23 -11 11 23 21 2 0.65422407D+00 0.21313491D-01 0.51279563D+05 0.51279563D+05 0.51279563D+05 0.11463313D+01  1  2  5  1  7  1        4 -.163619189252D-09 0.100000000000D+01
-.101049024146D-05 0.000000000000D+00 -.270441821740D-06 0.131814887014D-06 0.000000000000D+00  7 21 -4 23 -11 11 23 -4 2 0.65422407D+00 0.21313491D-01 0.51279563D+05 0.51279563D+05 0.51279563D+05 0.11463313D+01  1  2  5  3  7  1        4 -.704029198457D-08 0.100000000000D+01
  </mgrwgt>
  </event>
  <event>
  8     66 0.55102590E-06 0.24467394E+03 0.75467711E-02 0.89586256E-01
        2 -1    0    0  501    0 0.00000000E+00 0.00000000E+00 0.53782613E+03 0.53782622E+03 0.32000000E+00 0.0000E+00 0.9000E+01
       -2 -1    0    0    0  501 0.00000000E+00 0.00000000E+00 -.23027969E+03 0.23027992E+03 0.32000000E+00 0.0000E+00 0.9000E+01
       25  2    1    2    0    0 0.94955011E+02 0.10162233E+03 0.44597367E+03 0.55232946E+03 0.29467229E+03 0.0000E+00 0.0000E+00
       23  2    1    2    0    0 -.94955011E+02 -.10162233E+03 -.13842724E+03 0.21577668E+03 0.89743659E+02 0.0000E+00 0.0000E+00
       23  1    3    3    0    0 -.70980348E+01 0.15296443E+03 0.21892369E+03 0.28229653E+03 0.91188000E+02 0.0000E+00 0.9000E+01
      -13  1    4    4    0    0 -.49228215E+02 0.44645765E+01 -.33475653E+02 0.59699080E+02 0.10565837E+00 0.0000E+00 0.9000E+01
       13  1    4    4    0    0 -.45726796E+02 -.10608691E+03 -.10495159E+03 0.15607760E+03 0.10565837E+00 0.0000E+00 0.9000E+01
       23  1    3    3    0    0 0.10205305E+03 -.51342098E+02 0.22704998E+03 0.27003292E+03 0.91188000E+02 0.0000E+00 0.9000E+01
#aMCatNLO 1  0  0  2  1 0.73006145D+03 0.00000000D+00  -5  7  0 0.00000000D+00 0.00000000D+00 0.00000000D+00 0.00000000D+00 0.00000000D+00
  <mgrwgt>
 0.2090730934D-03    3    2    0
 0.351924080551212D+03 0.000000000000000D+00 0.000000000000000D+00 0.351924080551212D+03
 0.351924080551212D+03 0.000000000000000D+00 0.000000000000000D+00 -.351924080551212D+03
 0.212410159685932D+03 -.709803472641470D+01 0.152964429165402D+03 0.115560918596767D+03
 0.797763171132665D+02 -.492282199760608D+02 0.446472934550111D+01 -.626171647554922D+02
 0.216185525271333D+03 -.457267912152088D+02 -.106087060883173D+03 -.182731435213465D+03
 0.195476159031892D+03 0.102053045917684D+03 -.513420976277301D+02 0.129787681372190D+03
 0.000000000000000D+00 -.000000000000000D+00 0.000000000000000D+00 0.000000000000000D+00
 0.132847676487567D+04 0.000000000000000D+00 0.000000000000000D+00 0.132847676487567D+04
 0.669262599704982D+03 0.000000000000000D+00 0.000000000000000D+00 -.669262599704982D+03
 0.149951888289296D+03 0.283946245472148D+02 0.312039219004615D+01 0.115560918596767D+03
 0.986654949251805D+02 -.317501908330017D+02 -.693245695903144D+02 -.626171647554922D+02
 0.407621102482679D+03 0.153738571976696D+02 -.364043720298658D+03 -.182731435213465D+03
 0.357858137455484D+03 0.156251066266058D+03 -.280157022496061D+03 0.129787681372190D+03
 0.983642741428010D+03 -.168269357177941D+03 0.710404920194988D+03 0.659214165170688D+03
0.399053358527D-05 0.000000000000D+00 0.000000000000D+00 0.245170352547D-08 0.000000000000D+00  7 2 -2 23 -13 13 23 21 0 0.82742506D-01 0.35427670D-01 0.59865338D+05 0.59865338D+05 0.59865338D+05 0.11404794D+01  1  2  2  2  7  2       -2 0.204963529483D-03 0.100000000000D+01
-.186082166207D-06 0.000000000000D+00 -.153246996991D-07 0.245170352547D-08 0.000000000000D+00  7 2 -2 23 -13 13 23 21 2 0.82742506D-01 0.35427670D-01 0.59865338D+05 0.59865338D+05 0.59865338D+05 0.11404794D+01  1  2  3  2  7  2       -2 -.124315485514D-04 0.100000000000D+01
0.247596349817D-06 0.000000000000D+00 0.000000000000D+00 0.245170352547D-08 0.000000000000D+00  7 2 -2 23 -13 13 23 21 2 0.82742506D-01 0.35427670D-01 0.59865338D+05 0.59865338D+05 0.59865338D+05 0.11404794D+01  1  2 15  2  7  2       -2 0.165411124916D-04 0.100000000000D+01
  </mgrwgt>
  </event>
  <event>
  8     66 0.55102590E-06 0.10449324E+04 0.75467711E-02 0.78174912E-01
        2 -1    0    0  501    0 0.00000000E+00 0.00000000E+00 0.15785545E+04 0.15785545E+04 0.32000000E+00 0.0000E+00 0.9000E+01
       -2 -1    0    0    0  501 0.00000000E+00 0.00000000E+00 -.83984091E+03 0.83984097E+03 0.32000000E+00 0.0000E+00 0.9000E+01
       25  2    1    2    0    0 0.74302241E+02 0.10222235E+04 0.87460830E+03 0.13803864E+04 0.30010863E+03 0.0000E+00 0.0000E+00
       23  2    1    2    0    0 -.74302241E+02 -.10222235E+04 -.13589472E+03 0.10380091E+04 0.92377663E+02 0.0000E+00 0.0000E+00
       23  1    3    3    0    0 0.12381237E+03 0.84150297E+03 0.74946183E+03 0.11373060E+04 0.91188000E+02 0.0000E+00 0.9000E+01
      -11  1    4    4    0    0 -.80985715E+02 -.97268041E+03 -.11153507E+03 0.98239806E+03 0.51099893E-03 0.0000E+00 0.9000E+01
       11  1    4    4    0    0 0.66834745E+01 -.49543134E+02 -.24359655E+02 0.55611004E+02 0.51099893E-03 0.0000E+00 0.9000E+01
       23  1    3    3    0    0 -.49510129E+02 0.18072058E+03 0.12514647E+03 0.24308038E+03 0.91188000E+02 0.0000E+00 0.9000E+01
#aMCatNLO 1  0  0  1  2 0.25571475D+04 0.00000000D+00  -5  7  0 0.00000000D+00 0.00000000D+00 0.00000000D+00 0.00000000D+00 0.00000000D+00
  <mgrwgt>
 0.6999870417D-03    5    2    0
 0.115140555097786D+04 0.000000000000000D+00 0.000000000000000D+00 0.115140555097786D+04
 0.115140555097786D+04 0.000000000000000D+00 0.000000000000000D+00 -.115140555097786D+04
 0.953972370427640D+03 0.123812369848738D+03 0.841502966179418D+03 0.422245529495589D+03
 0.106748638432948D+04 -.809857153105881D+02 -.972680413456037D+03 -.432274574690043D+03
 0.662165510848780D+02 0.668347447476769D+01 -.495431340696306D+02 -.434216613348682D+02
 0.215135796113724D+03 -.495101290129179D+02 0.180720581346250D+03 0.534507065293224D+02
 0.000000000000000D+00 -.000000000000000D+00 0.000000000000000D+00 0.000000000000000D+00
 0.445429698271976D+04 0.000000000000000D+00 0.000000000000000D+00 0.445429698271976D+04
 0.231860753292496D+04 0.000000000000000D+00 0.000000000000000D+00 -.231860753292496D+04
 0.818777843663528D+03 0.648354137820690D+03 0.251848229539291D+03 0.422245529495589D+03
 0.234243803973954D+04 0.927982029741349D+03 -.210689440043218D+04 -.432274574690043D+03
 0.144988394877279D+03 0.691772284615394D+02 -.119794428244346D+03 -.434216613348682D+02
 0.135008056523192D+03 0.540944702401348D+02 0.642552273603086D+02 0.534507065293224D+02
 0.333169218084118D+04 -.169960786626371D+04 0.191058537177693D+04 0.213568944979480D+04
0.116151132295D-02 0.000000000000D+00 0.000000000000D+00 0.689314519374D-05 0.000000000000D+00  7 2 -2 23 -11 11 23 21 0 0.24285454D+00 0.12920630D+00 0.10918837D+07 0.10918837D+07 0.10918837D+07 0.10453321D+01  1  2  2  1  7  1        2 0.693639707455D-03 0.100000000000D+01
-.637897282037D-04 0.000000000000D+00 -.446050931308D-05 0.689314519374D-05 0.000000000000D+00  7 2 -2 23 -11 11 23 21 2 0.24285454D+00 0.12920630D+00 0.10918837D+07 0.10918837D+07 0.10918837D+07 0.10453321D+01  1  2  3  1  7  1        2 -.416264929797D-04 0.100000000000D+01
0.735162038480D-04 0.000000000000D+00 0.000000000000D+00 0.689314519374D-05 0.000000000000D+00  7 2 -2 23 -11 11 23 21 2 0.24285454D+00 0.12920630D+00 0.10918837D+07 0.10918837D+07 0.10918837D+07 0.10453321D+01  1  2 15  1  7  1        2 0.479735817905D-04 0.100000000000D+01
0.172474067437D-03 0.000000000000D+00 -.341361463076D-03 0.689314519374D-05 0.000000000000D+00  7 2 -2 23 -11 11 23 21 2 0.95642560D+00 0.12920630D+00 0.10918837D+07 0.10918837D+07 0.10918837D+07 0.10453321D+01  1  2  5  1  7  1        2 0.245337058793D-09 0.100000000000D+01
0.330098082396D-04 0.000000000000D+00 -.557270676170D-04 0.689314519374D-05 0.000000000000D+00  7 21 -2 23 -11 11 23 -2 2 0.95642560D+00 0.12920630D+00 0.10918837D+07 0.10918837D+07 0.10918837D+07 0.10453321D+01  1  2  5  3  7  1        2 0.134950461716D-12 0.100000000000D+01
  </mgrwgt>
  </event>
  <event>
  8     66 0.55102590E-06 0.25963550E+03 0.75467711E-02 0.94047892E-01
        2 -1    0    0  501    0 0.00000000E+00 0.00000000E+00 0.44207935E+03 0.44207947E+03 0.32000000E+00 0.0000E+00 0.9000E+01
       -2 -1    0    0    0  501 0.00000000E+00 0.00000000E+00 -.18471138E+03 0.18471166E+03 0.32000000E+00 0.0000E+00 0.9000E+01
       25  2    1    2    0    0 -.37330288E+02 0.15652851E+03 0.43340553E+02 0.34397208E+03 0.30090474E+03 0.0000E+00 0.0000E+00
       23  2    1    2    0    0 0.37330288E+02 -.15652851E+03 0.21402742E+03 0.28281905E+03 0.91017324E+02 0.0000E+00 0.0000E+00
       23  1    3    3    0    0 -.13544763E+03 0.10584526E+03 0.86774611E+00 0.19459004E+03 0.91188000E+02 0.0000E+00 0.9000E+01
      -13  1    4    4    0    0 -.16961262E+02 -.12933059E+01 0.39547605E+02 0.43050915E+02 0.10565837E+00 0.0000E+00 0.9000E+01
       13  1    4    4    0    0 0.54291550E+02 -.15523521E+03 0.17447981E+03 0.23976813E+03 0.10565837E+00 0.0000E+00 0.9000E+01
       23  1    3    3    0    0 0.98117339E+02 0.50683257E+02 0.42472807E+02 0.14938204E+03 0.91188000E+02 0.0000E+00 0.9000E+01
#aMCatNLO 1  0  0  1  2 0.40917605D+03 0.00000000D+00  -5  7  0 0.00000000D+00 0.00000000D+00 0.00000000D+00 0.00000000D+00 0.00000000D+00
  <mgrwgt>
 0.3870992770D-03    3    2    0
 0.285757259559966D+03 0.000000000000000D+00 0.000000000000000D+00 0.285757259559966D+03
 0.285757259559966D+03 0.000000000000000D+00 0.000000000000000D+00 -.285757259559966D+03
 0.213019919388133D+03 -.135447623375163D+03 0.105845256244173D+03 -.866773197829293D+02
 0.294052468849408D+02 -.169613580073325D+02 -.129309910257246D+01 0.239855951275415D+02
 0.184385768826670D+03 0.542916464630908D+02 -.155235415617704D+03 0.833816203256312D+02
 0.144703584020188D+03 0.981173349194042D+02 0.506832584761034D+02 -.206898956702435D+02
 0.000000000000000D+00 -.000000000000000D+00 0.000000000000000D+00 -.000000000000000D+00
 0.419958970127774D+03 0.000000000000000D+00 0.000000000000000D+00 0.419958970127774D+03
 0.962359068956594D+03 0.000000000000000D+00 0.000000000000000D+00 -.962359068956594D+03
 0.146377061962112D+03 -.256735686334711D+02 0.702773294422192D+02 -.866773197829293D+02
 0.248978198775087D+02 -.375053356059983D+00 -.666723301007504D+01 0.239855951275415D+02
 0.298005876206915D+03 0.201633136783639D+03 -.202975579310698D+03 0.833816203256312D+02
 0.233608911548098D+03 0.213668935942752D+03 0.132433470442258D+02 -.206898956702435D+02
 0.679428369489735D+03 -.389253450736860D+03 0.126122135834328D+03 -.542400098828821D+03
0.407015330944D-05 0.000000000000D+00 0.000000000000D+00 0.139333016167D-06 0.000000000000D+00  7 2 -2 23 -13 13 23 21 0 0.68012238D-01 0.28417166D-01 0.67410595D+05 0.67410595D+05 0.67410595D+05 0.11360539D+01  1  2  2  1  7  1        2 0.382948543913D-03 0.100000000000D+01
-.223593062696D-06 0.000000000000D+00 -.156304604042D-07 0.139333016167D-06 0.000000000000D+00  7 2 -2 23 -13 13 23 21 2 0.68012238D-01 0.28417166D-01 0.67410595D+05 0.67410595D+05 0.67410595D+05 0.11360539D+01  1  2  3  1  7  1        2 -.271509993677D-04 0.100000000000D+01
0.257775050539D-06 0.000000000000D+00 0.000000000000D+00 0.139333016167D-06 0.000000000000D+00  7 2 -2 23 -13 13 23 21 2 0.68012238D-01 0.28417166D-01 0.67410595D+05 0.67410595D+05 0.67410595D+05 0.11360539D+01  1  2 15  1  7  1        2 0.313017324858D-04 0.100000000000D+01
  </mgrwgt>
  </event>
  <event>
  8     66 0.55102590E-06 0.40257079E+03 0.75467711E-02 0.90700358E-01
        2 -1    0    0  501    0 0.00000000E+00 0.00000000E+00 0.13667950E+04 0.13667950E+04 0.32000000E+00 0.0000E+00 0.9000E+01
       -2 -1    0    0    0  501 0.00000000E+00 0.00000000E+00 -.18377483E+03 0.18377511E+03 0.32000000E+00 0.0000E+00 0.9000E+01
       25  2    1    2    0    0 -.29020187E+03 -.18627623E+03 0.18944039E+03 0.49475964E+03 0.29997247E+03 0.0000E+00 0.0000E+00
       23  2    1    2    0    0 0.29020187E+03 0.18627623E+03 0.99357975E+03 0.10558105E+04 0.92838929E+02 0.0000E+00 0.0000E+00
       23  1    3    3    0    0 0.18715864E+02 -.45325948E+02 0.62617862E+02 0.12099989E+03 0.91188000E+02 0.0000E+00 0.9000E+01
      -13  1    4    4    0    0 0.99329744E+01 0.24437941E+02 0.33440000E+02 0.42592508E+02 0.10565837E+00 0.0000E+00 0.9000E+01
       13  1    4    4    0    0 0.28026890E+03 0.16183829E+03 0.96013975E+03 0.10132180E+04 0.10565837E+00 0.0000E+00 0.9000E+01
       23  1    3    3    0    0 -.30891774E+03 -.14095028E+03 0.12682253E+03 0.37375975E+03 0.91188000E+02 0.0000E+00 0.9000E+01
#aMCatNLO 1  0  0  2  2 0.50381519D+03 0.00000000D+00  -5  7  0 0.00000000D+00 0.00000000D+00 0.00000000D+00 0.00000000D+00 0.00000000D+00
  <mgrwgt>
 0.2558253386D-03    5    2    0
 0.501181361486269D+03 0.000000000000000D+00 0.000000000000000D+00 0.501181361486269D+03
 0.501181361486269D+03 0.000000000000000D+00 0.000000000000000D+00 -.501181361486269D+03
 0.113272987067186D+03 0.187158642791551D+02 -.453259476433375D+02 -.459433689409098D+02
 0.264195247238904D+02 0.993262430418912D+01 0.244377632262782D+02 0.145944837676926D+01
 0.434175522428771D+03 0.280269246736522D+03 0.161838467049427D+03 0.289423295871514D+03
 0.428494688752691D+03 -.308917735319866D+03 -.140950282632368D+03 -.244939375307374D+03
 0.000000000000000D+00 0.000000000000000D+00 0.000000000000000D+00 -.000000000000000D+00
 0.590960995666319D+03 0.000000000000000D+00 0.000000000000000D+00 0.590960995666319D+03
 0.267385009841802D+04 0.000000000000000D+00 0.000000000000000D+00 -.267385009841802D+04
 0.148724348354008D+03 0.136973143475022D+02 -.107262625733987D+03 -.459433689409098D+02
 0.169228678335905D+02 0.910240226831485D+01 0.141915375873967D+02 0.145944837676926D+01
 0.393478414747853D+03 0.264415564090580D+03 -.338205284703441D+02 0.289423295871514D+03
 0.562730317693912D+03 -.327904616161071D+03 -.375277796082030D+03 -.244939375307374D+03
 0.214295514545497D+04 0.406893354546734D+02 0.502169412698964D+03 -.208288910275170D+04
0.143079040328D-04 0.000000000000D+00 0.000000000000D+00 0.105035594750D-05 0.000000000000D+00  7 2 -2 23 -13 13 23 21 0 0.21027617D+00 0.28273075D-01 0.16206324D+06 0.16206324D+06 0.16206324D+06 0.11049106D+01  1  2  2  2  7  2       -2 0.308660270837D-03 0.100000000000D+01
-.748489943845D-06 0.000000000000D+00 -.549461188435D-07 0.105035594750D-05 0.000000000000D+00  7 2 -2 23 -13 13 23 21 2 0.21027617D+00 0.28273075D-01 0.16206324D+06 0.16206324D+06 0.16206324D+06 0.11049106D+01  1  2  3  2  7  2       -2 -.197126490446D-04 0.100000000000D+01
0.897912331522D-06 0.000000000000D+00 0.000000000000D+00 0.105035594750D-05 0.000000000000D+00  7 2 -2 23 -13 13 23 21 2 0.21027617D+00 0.28273075D-01 0.16206324D+06 0.16206324D+06 0.16206324D+06 0.11049106D+01  1  2 15  2  7  2       -2 0.236479204693D-04 0.100000000000D+01
-.336901246076D-04 0.000000000000D+00 -.658794806005D-05 0.105035594750D-05 0.000000000000D+00  7 2 -2 23 -13 13 23 21 2 0.21027617D+00 0.16255604D+00 0.16206324D+06 0.16206324D+06 0.16206324D+06 0.11049106D+01  1  2  5  2  7  2       -2 -.194219557940D-04 0.100000000000D+01
-.758489885613D-05 0.000000000000D+00 -.141165916040D-05 0.105035594750D-05 0.000000000000D+00  7 2 21 23 -13 13 23 2 2 0.21027617D+00 0.16255604D+00 0.16206324D+06 0.16206324D+06 0.16206324D+06 0.11049106D+01  1  2  5  4  7  2       -2 -.373482478823D-04 0.100000000000D+01
  </mgrwgt>
  </event>
  <event>
  8     66 0.55102590E-06 0.11104786E+03 0.75467711E-02 0.10807209E+00
        2 -1    0    0  501    0 0.00000000E+00 0.00000000E+00 0.12677211E+04 0.12677211E+04 0.32000000E+00 0.0000E+00 0.9000E+01
       -2 -1    0    0    0  501 0.00000000E+00 0.00000000E+00 -.37749168E+02 0.37750525E+02 0.32000000E+00 0.0000E+00 0.9000E+01
       25  2    1    2    0    0 0.63024842E+02 -.38964641E+02 0.82249191E+03 0.88172896E+03 0.30897028E+03 0.0000E+00 0.0000E+00
       23  2    1    2    0    0 -.63024842E+02 0.38964641E+02 0.40748001E+03 0.42374270E+03 0.89596546E+02 0.0000E+00 0.0000E+00
       23  1    3    3    0    0 0.75755840E+02 0.81409521E+01 0.73988113E+03 0.74936277E+03 0.91188000E+02 0.0000E+00 0.9000E+01
      -13  1    4    4    0    0 -.56542001E+02 0.44360703E+02 0.40891830E+03 0.41518557E+03 0.10565837E+00 0.0000E+00 0.9000E+01
       13  1    4    4    0    0 -.64828415E+01 -.53960624E+01 -.14382835E+01 0.85571343E+01 0.10565837E+00 0.0000E+00 0.9000E+01
       23  1    3    3    0    0 -.12730998E+02 -.47105593E+02 0.82610782E+02 0.13236619E+03 0.91188000E+02 0.0000E+00 0.9000E+01
#aMCatNLO 1  0  0  2  1 0.50495251D+02 0.00000000D+00  -5  7  0 0.00000000D+00 0.00000000D+00 0.00000000D+00 0.00000000D+00 0.00000000D+00
  <mgrwgt>
 0.1515782858D-03    9    2    0
 0.218760893859293D+03 0.000000000000000D+00 0.000000000000000D+00 0.218760893859293D+03
 0.218760893859293D+03 0.000000000000000D+00 0.000000000000000D+00 -.218760893859293D+03
 0.155963874760115D+03 0.757573088351573D+02 0.813806784080734D+01 0.101015250809280D+03
 0.892696591280785D+02 -.565467890002391D+02 0.443636893720401D+02 0.529471034137553D+02
 0.295754971348412D+02 -.648433594941363D+01 -.539516410908530D+01 -.283470566779724D+02
 0.162712756695552D+03 -.127261838855045D+02 -.471065931037622D+02 -.125615297545063D+03
 0.000000000000000D+00 0.000000000000000D+00 -.000000000000000D+00 -.000000000000000D+00
 0.226281518192874D+03 0.000000000000000D+00 0.000000000000000D+00 0.226281518192874D+03
 0.325254142359214D+03 0.000000000000000D+00 0.000000000000000D+00 -.325254142359214D+03
 0.154264796036407D+03 0.684295592293257D+02 0.244067711869581D+02 0.101015250809280D+03
 0.972108112628031D+02 -.609515469160487D+02 0.541429126941481D+02 0.529471034137553D+02
 0.295114264278711D+02 -.787999734890578D+01 -.229658644181048D+01 -.283470566779724D+02
 0.159438993094482D+03 -.203355623207112D+02 -.302126315098158D+02 -.125615297545063D+03
 0.111109633730526D+03 0.207375473563400D+02 -.460404659294800D+02 -.989726241663396D+02
0.542035962964D-06 0.000000000000D+00 0.000000000000D+00 0.183586130820D-09 0.000000000000D+00  7 2 -2 23 -13 13 23 21 0 0.19503412D+00 0.58076718D-02 0.22885775D+05 0.22885775D+05 0.22885775D+05 0.11784026D+01  1  2  2  2  7  2       -2 0.164430998218D-03 0.100000000000D+01
-.251320426217D-07 0.000000000000D+00 -.208156081913D-08 0.183586130820D-09 0.000000000000D+00  7 2 -2 23 -13 13 23 21 2 0.19503412D+00 0.58076718D-02 0.22885775D+05 0.22885775D+05 0.22885775D+05 0.11784026D+01  1  2  3  2  7  2       -2 -.105869479215D-04 0.100000000000D+01
0.351759515489D-07 0.000000000000D+00 0.000000000000D+00 0.183586130820D-09 0.000000000000D+00  7 2 -2 23 -13 13 23 21 2 0.19503412D+00 0.58076718D-02 0.22885775D+05 0.22885775D+05 0.22885775D+05 0.11784026D+01  1  2 15  2  7  2       -2 0.148179745174D-04 0.100000000000D+01
0.131498660914D-05 0.000000000000D+00 0.000000000000D+00 0.183586130820D-09 0.000000000000D+00  7 2 -2 23 -13 13 23 21 2 0.19503412D+00 0.86960585D-02 0.31508452D+05 0.31508452D+05 0.31508452D+05 0.11653643D+01  1  2 12  2  7  2       -2 0.297952227780D-03 0.100000000000D+01
-.140804630925D-05 0.000000000000D+00 0.000000000000D+00 0.183586130820D-09 0.000000000000D+00  7 2 -2 23 -13 13 23 21 2 0.19503412D+00 0.58076718D-02 0.22885775D+05 0.22885775D+05 0.22885775D+05 0.11784026D+01  1  2  4  2  7  2       -2 -.593143707877D-03 0.100000000000D+01
-.149148389339D-05 0.000000000000D+00 -.223218289137D-06 0.183586130820D-09 0.000000000000D+00  7 2 -2 23 -13 13 23 21 2 0.19503412D+00 0.89195554D-02 0.22885775D+05 0.22885775D+05 0.22885775D+05 0.11784026D+01  1  2  5  2  7  2       -2 -.332505789762D-03 0.100000000000D+01
0.146903006928D-05 0.000000000000D+00 0.204137584991D-06 0.183586130820D-09 0.000000000000D+00  7 2 -2 23 -13 13 23 21 2 0.19503412D+00 0.58076718D-02 0.22885775D+05 0.22885775D+05 0.22885775D+05 0.11784026D+01  1  2  6  2  7  2       -2 0.618833298698D-03 0.100000000000D+01
0.630167745074D-07 0.000000000000D+00 0.000000000000D+00 0.183586130820D-09 0.000000000000D+00  7 2 21 23 -13 13 23 2 2 0.19503412D+00 0.86960585D-02 0.31508452D+05 0.31508452D+05 0.31508452D+05 0.11653643D+01  1  2 12  4  7  2       -2 0.218114797521D-03 0.100000000000D+01
-.664155222803D-07 0.000000000000D+00 -.111912248493D-07 0.183586130820D-09 0.000000000000D+00  7 2 21 23 -13 13 23 2 2 0.19503412D+00 0.89195554D-02 0.22885775D+05 0.22885775D+05 0.22885775D+05 0.11784026D+01  1  2  5  4  7  2       -2 -.226334565400D-03 0.100000000000D+01
  </mgrwgt>
  </event>
  <event>
  9     66 0.55102590E-06 0.20678221E+03 0.75467711E-02 0.10119952E+00
        2 -1    0    0  501    0 0.00000000E+00 0.00000000E+00 0.19964323E+04 0.19964323E+04 0.32000000E+00 0.0000E+00 0.9000E+01
       -2 -1    0    0    0  502 0.00000000E+00 0.00000000E+00 -.51017119E+02 0.51018123E+02 0.32000000E+00 0.0000E+00 0.9000E+01
       25  2    1    2    0    0 -.19068464E+02 0.37671294E+02 0.12442563E+04 0.12803115E+04 0.29873226E+03 0.0000E+00 0.0000E+00
       23  2    1    2    0    0 -.10869805E+03 0.14671083E+02 0.19655033E+03 0.24398092E+03 0.94149627E+02 0.0000E+00 0.0000E+00
       23  1    3    3    0    0 0.90936693E+01 -.98870058E+02 0.58523931E+03 0.60056497E+03 0.91188000E+02 0.0000E+00 0.9000E+01
      -13  1    4    4    0    0 0.10125617E+02 -.16759570E+02 0.43369809E+02 0.47585321E+02 0.10565837E+00 0.0000E+00 0.9000E+01
       13  1    4    4    0    0 -.11882366E+03 0.31430653E+02 0.15318052E+03 0.19639560E+03 0.10565837E+00 0.0000E+00 0.9000E+01
       23  1    3    3    0    0 -.28162134E+02 0.13654135E+03 0.65901699E+03 0.67974649E+03 0.91188000E+02 0.0000E+00 0.9000E+01
       21  1    1    2  501  502 0.12776651E+03 -.52342377E+02 0.50460851E+03 0.52315802E+03 0.75000000E+00 0.0000E+00 0.9000E+01
#aMCatNLO 2  0  0  2  1 0.13807247D+03 0.00000000D+00  -5  7  0 0.00000000D+00 0.00000000D+00 0.00000000D+00 0.00000000D+00 0.00000000D+00
  <mgrwgt>
 0.3490199111D-04    1    2    0
 0.238997657850620D+03 0.000000000000000D+00 0.000000000000000D+00 0.238997657850620D+03
 0.238997657850620D+03 0.000000000000000D+00 0.000000000000000D+00 -.238997657850620D+03
 0.164346578951235D+03 0.496293778373139D+02 -.115476400867580D+03 0.538207429075970D+02
 0.255594916613488D+02 0.161179070619987D+02 -.192144364852449D+02 -.493012337389426D+01
 0.129361175740911D+03 -.811746898896151D+02 0.160069051264377D+02 -.994422571076747D+02
 0.158728069347746D+03 0.154274049903024D+02 0.118683932226387D+03 0.505516375739720D+02
 0.000000000000000D+00 0.000000000000000D+00 -.000000000000000D+00 0.000000000000000D+00
 0.334996225128242D+03 0.000000000000000D+00 0.000000000000000D+00 0.334996225128242D+03
 0.304041143838991D+03 0.000000000000000D+00 0.000000000000000D+00 -.304041143838991D+03
 0.145154766130081D+03 0.909367443280475D+01 -.988700536283009D+02 0.538207429075970D+02
 0.201921363920373D+02 0.101257701794976D+02 -.167596251111061D+02 -.493012337389426D+01
 0.158100456828425D+03 -.118823829911753D+03 0.314307078474316D+02 -.994422571076747D+02
 0.174090104490537D+03 -.281621269995972D+02 0.136541347872995D+03 0.505516375739720D+02
 0.141499905126152D+03 0.127766512299048D+03 -.523423769810198D+02 0.309550812892508D+02
0.347091969114D-06 0.000000000000D+00 0.000000000000D+00 0.633722556804D-08 0.252001308380D-11  7 2 -2 23 -13 13 23 21 2 0.30714254D+00 0.78488421D-02 0.84669689D+05 0.84669689D+05 0.84669689D+05 0.11277015D+01  1  2  1  2  7  2       -2 0.349019911082D-04 0.100000000000D+01
  </mgrwgt>
  </event>
  <event>
  9     66 0.55102590E-06 0.16279098E+03 0.75467711E-02 0.90911474E-01
        2 -1    0    0  501    0 0.00000000E+00 0.00000000E+00 0.18541905E+04 0.18541906E+04 0.32000000E+00 0.0000E+00 0.9000E+01
       21 -1    0    0  502  501 0.00000000E+00 0.00000000E+00 -.41995793E+03 0.41995860E+03 0.75000000E+00 0.0000E+00 0.9000E+01
       25  2    1    2    0    0 0.41637721E+03 -.92998251E+02 0.94073713E+00 0.52162047E+03 0.30011394E+03 0.0000E+00 0.0000E+00
       23  2    1    2    0    0 0.23207093E+03 -.25594049E+02 0.80024898E+03 0.83858530E+03 0.91186121E+02 0.0000E+00 0.0000E+00
       23  1    3    3    0    0 0.21740724E+03 -.14355323E+03 -.72324723E+02 0.28534112E+03 0.91188000E+02 0.0000E+00 0.9000E+01
      -11  1    4    4    0    0 -.18775647E+01 0.98939192E+01 0.75931365E+02 0.76596260E+02 0.51099893E-03 0.0000E+00 0.9000E+01
       11  1    4    4    0    0 0.23394850E+03 -.35487968E+02 0.72431761E+03 0.76198904E+03 0.51099893E-03 0.0000E+00 0.9000E+01
       23  1    3    3    0    0 0.19896997E+03 0.50554978E+02 0.73265460E+02 0.23627936E+03 0.91188000E+02 0.0000E+00 0.9000E+01
        2  1    1    2  502    0 -.64844814E+03 0.11859230E+03 0.63304289E+03 0.91394339E+03 0.32000000E+00 0.0000E+00 0.9000E+01
#aMCatNLO 2  0  0  2  1 0.65920340D+03 0.00000000D+00  -5  7  0 0.00000000D+00 0.00000000D+00 0.00000000D+00 0.00000000D+00 0.00000000D+00
  <mgrwgt>
 0.1307699485D-04    1    2    0
 0.439802701362524D+03 0.000000000000000D+00 0.000000000000000D+00 0.439802701362524D+03
 0.439802701362524D+03 0.000000000000000D+00 0.000000000000000D+00 -.439802701362524D+03
 0.327495524561244D+03 -.228936834325989D+02 -.996054759741455D+02 -.297477218755481D+03
 0.520029690187165D+02 -.318425988788394D+02 0.153741142934208D+02 0.381312770976236D+02
 0.341328058549148D+03 -.138896258587051D+02 0.983823636343450D+01 0.340903404136264D+03
 0.158778850595940D+03 0.686259081701433D+02 0.743931253172902D+02 -.815574624784071D+02
 0.000000000000000D+00 -.000000000000000D+00 0.000000000000000D+00 0.000000000000000D+00
 0.942973404996975D+03 0.000000000000000D+00 0.000000000000000D+00 0.942973404996975D+03
 0.825773813270587D+03 0.000000000000000D+00 0.000000000000000D+00 -.825773813270587D+03
 0.405809539622822D+03 0.217407235183826D+03 -.143553228859942D+03 -.297477218755481D+03
 0.394386761816189D+02 -.187756465957168D+01 0.989391918361821D+01 0.381312770976236D+02
 0.414977620212049D+03 0.233948495323990D+03 -.354879678314115D+02 0.340903404136264D+03
 0.238980597263478D+03 0.198969970112948D+03 0.505549783082186D+02 -.815574624784071D+02
 0.669540784987595D+03 -.648448135961193D+03 0.118592299199517D+03 0.117199591726388D+03
0.511624452374D-06 0.000000000000D+00 0.000000000000D+00 0.245321022358D-05 0.580216603216D-11  7 2 21 23 -11 11 23 2 2 0.28526012D+00 0.64608963D-01 0.49459920D+06 0.49459920D+06 0.49459920D+06 0.10688439D+01  1  2  1  4  7  2       -2 0.130769948542D-04 0.100000000000D+01
  </mgrwgt>
  </event>
  <event>
  8     66 0.55102590E-06 0.84877199E+02 0.75467711E-02 0.98930420E-01
        2 -1    0    0  501    0 0.00000000E+00 0.00000000E+00 0.16550027E+04 0.16550027E+04 0.32000000E+00 0.0000E+00 0.9000E+01
       -2 -1    0    0    0  501 0.00000000E+00 0.00000000E+00 -.49467073E+02 0.49468108E+02 0.32000000E+00 0.0000E+00 0.9000E+01
       25  2    1    2    0    0 -.11855211E+03 0.14879824E+03 0.87878607E+03 0.94781028E+03 0.29980634E+03 0.0000E+00 0.0000E+00
       23  2    1    2    0    0 0.11855211E+03 -.14879824E+03 0.72674952E+03 0.75666053E+03 0.90414445E+02 0.0000E+00 0.0000E+00
       23  1    3    3    0    0 -.11269751E+03 -.34606805E+02 0.33322234E+03 0.36503525E+03 0.91188000E+02 0.0000E+00 0.9000E+01
      -13  1    4    4    0    0 0.11161480E+03 -.11636992E+03 0.68292830E+03 0.70170570E+03 0.10565837E+00 0.0000E+00 0.9000E+01
       13  1    4    4    0    0 0.69373153E+01 -.32428319E+02 0.43821217E+02 0.54954821E+02 0.10565837E+00 0.0000E+00 0.9000E+01
       23  1    3    3    0    0 -.58546027E+01 0.18340504E+03 0.54556374E+03 0.58277502E+03 0.91188000E+02 0.0000E+00 0.9000E+01
#aMCatNLO 1  0  0  1  2 0.13472436D+03 0.00000000D+00  -5  7  0 0.00000000D+00 0.00000000D+00 0.00000000D+00 0.00000000D+00 0.00000000D+00
  <mgrwgt>
 0.2645641201D-03    7    2    0
 0.286127674169096D+03 0.000000000000000D+00 0.000000000000000D+00 0.286127674169096D+03
 0.286127674169096D+03 0.000000000000000D+00 0.000000000000000D+00 -.286127674169096D+03
 0.152364867839168D+03 -.112697508503339D+03 -.346068046310271D+02 -.316455724867945D+02
 0.173998018160198D+03 0.111614938596623D+03 -.116370033256196D+03 0.653867812764965D+02
 0.407375153893616D+02 0.693717296019788D+01 -.324282041161853D+02 -.236607770205840D+02
 0.205154946949465D+03 -.585460305348213D+01 0.183405042003408D+03 -.100804317691180D+02
 0.000000000000000D+00 -.000000000000000D+00 -.000000000000000D+00 0.000000000000000D+00
 0.664259358760865D+03 0.000000000000000D+00 0.000000000000000D+00 0.664259358760865D+03
 0.306203896929532D+03 0.000000000000000D+00 0.000000000000000D+00 -.306203896929532D+03
 0.140611620661198D+03 -.102224910297188D+03 -.223651015728378D+01 -.316455724867945D+02
 0.160777109077385D+03 0.123581651061906D+03 -.793815038809050D+02 0.653867812764965D+02
 0.350901837502010D+02 0.964767382683837D+01 -.240501770499930D+02 -.236607770205840D+02
 0.251421449512519D+03 0.104659596477553D+02 0.233851111853196D+03 -.100804317691180D+02
 0.382562892689095D+03 -.414703742393120D+02 -.128182920765014D+03 0.358055461831333D+03
0.212643595074D-05 0.000000000000D+00 0.000000000000D+00 0.248514455265D-06 0.000000000000D+00  7 2 -2 23 -13 13 23 21 0 0.25461588D+00 0.76104009D-02 0.75173618D+05 0.75173618D+05 0.75173618D+05 0.11320364D+01  1  2  2  1  7  1        2 0.268161396876D-03 0.100000000000D+01
-.117873928280D-06 0.000000000000D+00 -.816607395429D-08 0.248514455265D-06 0.000000000000D+00  7 2 -2 23 -13 13 23 21 2 0.25461588D+00 0.76104009D-02 0.75173618D+05 0.75173618D+05 0.75173618D+05 0.11320364D+01  1  2  3  1  7  1        2 -.190494539113D-04 0.100000000000D+01
0.136241753734D-06 0.000000000000D+00 0.000000000000D+00 0.248514455265D-06 0.000000000000D+00  7 2 -2 23 -13 13 23 21 2 0.25461588D+00 0.76104009D-02 0.75173618D+05 0.75173618D+05 0.75173618D+05 0.11320364D+01  1  2 15  1  7  1        2 0.220178545537D-04 0.100000000000D+01
0.248100670471D-05 0.000000000000D+00 0.000000000000D+00 0.248514455265D-06 0.000000000000D+00  7 2 -2 23 -13 13 23 21 2 0.58776341D+00 0.76104009D-02 0.12101404D+06 0.12101404D+06 0.12101404D+06 0.11149871D+01  1  2 12  1  7  1        2 0.183162075175D-04 0.100000000000D+01
-.352863476914D-05 0.000000000000D+00 -.529085429396D-06 0.248514455265D-06 0.000000000000D+00  7 2 -2 23 -13 13 23 21 2 0.59680735D+00 0.76104009D-02 0.75173618D+05 0.75173618D+05 0.75173618D+05 0.11320364D+01  1  2  5  1  7  1        2 -.248741065177D-04 0.100000000000D+01
0.225973054210D-06 0.000000000000D+00 0.000000000000D+00 0.248514455265D-06 0.000000000000D+00  7 21 -2 23 -13 13 23 -2 2 0.58776341D+00 0.76104009D-02 0.12101404D+06 0.12101404D+06 0.12101404D+06 0.11149871D+01  1  2 12  3  7  1        2 0.404031294292D-07 0.100000000000D+01
-.294435190020D-06 0.000000000000D+00 -.491577583327D-07 0.248514455265D-06 0.000000000000D+00  7 21 -2 23 -13 13 23 -2 2 0.59680735D+00 0.76104009D-02 0.75173618D+05 0.75173618D+05 0.75173618D+05 0.11320364D+01  1  2  5  3  7  1        2 -.481815966449D-07 0.100000000000D+01
  </mgrwgt>
  </event>
  <event>
  8     66 0.55102590E-06 0.18661355E+03 0.75467711E-02 0.89008721E-01
        2 -1    0    0  501    0 0.00000000E+00 0.00000000E+00 0.14769518E+03 0.14769553E+03 0.32000000E+00 0.0000E+00 0.9000E+01
       -2 -1    0    0    0  501 0.00000000E+00 0.00000000E+00 -.10628445E+04 0.10628446E+04 0.32000000E+00 0.0000E+00 0.9000E+01
       25  2    1    2    0    0 -.56334125E+02 0.13486536E+02 -.17484777E+02 0.30554259E+03 0.29949147E+03 0.0000E+00 0.0000E+00
       23  2    1    2    0    0 0.56334125E+02 -.13486536E+02 -.89766459E+03 0.90499753E+03 0.99314582E+02 0.0000E+00 0.0000E+00
       23  1    3    3    0    0 -.13114807E+03 0.46895427E+02 -.58217256E+02 0.17636184E+03 0.91188000E+02 0.0000E+00 0.9000E+01
      -11  1    4    4    0    0 0.17782173E+02 -.35544165E+02 -.74351674E+03 0.74457823E+03 0.51099893E-03 0.0000E+00 0.9000E+01
       11  1    4    4    0    0 0.38551951E+02 0.22057629E+02 -.15414785E+03 0.16041930E+03 0.51099893E-03 0.0000E+00 0.9000E+01
       23  1    3    3    0    0 0.74813948E+02 -.33408891E+02 0.40732480E+02 0.12918075E+03 0.91188000E+02 0.0000E+00 0.9000E+01
#aMCatNLO 1  0  0  2  2 0.81738547D+03 0.00000000D+00  -5  7  0 0.00000000D+00 0.00000000D+00 0.00000000D+00 0.00000000D+00 0.00000000D+00
  <mgrwgt>
 0.1833495662D-03    5    2    0
 0.396203551758810D+03 0.000000000000000D+00 0.000000000000000D+00 0.396203551758810D+03
 0.396203551758810D+03 0.000000000000000D+00 0.000000000000000D+00 -.396203551758810D+03
 0.202188491751730D+03 -.131148073024229D+03 0.468954274741477D+02 0.114742915584745D+03
 0.278787179629035D+03 0.177821731800536D+02 -.355441653100486D+02 -.275939663975512D+03
 0.670434311784839D+02 0.385519514316371D+02 0.220576292290103D+02 -.502198137968703D+02
 0.244388000958372D+03 0.748139484125379D+02 -.334088913931093D+02 0.211416562187637D+03
 0.000000000000000D+00 0.000000000000000D+00 0.000000000000000D+00 -.000000000000000D+00
 0.808391903131186D+03 0.000000000000000D+00 0.000000000000000D+00 0.808391903131186D+03
 0.126757177404152D+04 0.000000000000000D+00 0.000000000000000D+00 -.126757177404152D+04
 0.404916244638239D+03 -.376226081764847D+03 -.304944675460520D+02 0.114742915584745D+03
 0.394075946935595D+03 -.253841395751422D+03 -.121316526496754D+03 -.275939663975512D+03
 0.515468762014519D+02 -.932096842307404D+01 0.694048240337387D+01 -.502198137968703D+02
 0.287893194978400D+03 -.140059050875785D+03 -.101260751880511D+03 0.211416562187637D+03
 0.937531414419016D+03 0.779447496815127D+03 0.246131263519944D+03 -.459179870910331D+03
0.238864248926D-04 0.000000000000D+00 0.000000000000D+00 0.217221141273D-07 0.000000000000D+00  7 2 -2 23 -11 11 23 21 0 0.22722366D-01 0.16351458D+00 0.34824619D+05 0.34824619D+05 0.34824619D+05 0.11613742D+01  1  2  2  2  7  2       -2 0.172979466309D-03 0.100000000000D+01
-.412444865820D-06 0.000000000000D+00 -.917301610277D-07 0.217221141273D-07 0.000000000000D+00  7 2 -2 23 -11 11 23 21 2 0.22722366D-01 0.16351458D+00 0.34824619D+05 0.34824619D+05 0.34824619D+05 0.11613742D+01  1  2  3  2  7  2       -2 -.402859521802D-05 0.100000000000D+01
0.146066618766D-05 0.000000000000D+00 0.000000000000D+00 0.217221141273D-07 0.000000000000D+00  7 2 -2 23 -11 11 23 21 2 0.22722366D-01 0.16351458D+00 0.34824619D+05 0.34824619D+05 0.34824619D+05 0.11613742D+01  1  2 15  2  7  2       -2 0.142671986159D-04 0.100000000000D+01
0.151338973182D-04 0.000000000000D+00 -.737468683772D-05 0.217221141273D-07 0.000000000000D+00  7 2 -2 23 -11 11 23 21 2 0.22722366D-01 0.63680769D+00 0.34824619D+05 0.34824619D+05 0.34824619D+05 0.11613742D+01  1  2  5  2  7  2       -2 0.527087968993D-07 0.100000000000D+01
0.256485321344D-05 0.000000000000D+00 -.119228511458D-05 0.217221141273D-07 0.000000000000D+00  7 2 21 23 -11 11 23 2 2 0.22722366D-01 0.63680769D+00 0.34824619D+05 0.34824619D+05 0.34824619D+05 0.11613742D+01  1  2  5  4  7  2       -2 0.787876517218D-07 0.100000000000D+01
  </mgrwgt>
  </event>
  <event>
  9     66 0.55102590E-06 0.27003731E+03 0.75467711E-02 0.99450158E-01
        2 -1    0    0  501    0 0.00000000E+00 0.00000000E+00 0.14272295E+04 0.14272295E+04 0.32000000E+00 0.0000E+00 0.9000E+01
       21 -1    0    0  502  501 0.00000000E+00 0.00000000E+00 -.13931343E+03 0.13931545E+03 0.75000000E+00 0.0000E+00 0.9000E+01
       25  2    1    2    0    0 -.38056183E+02 -.13006787E+03 0.48407922E+03 0.58543754E+03 0.30006415E+03 0.0000E+00 0.0000E+00
       23  2    1    2    0    0 0.14831245E+03 0.15649596E+03 0.79971119E+02 0.24841612E+03 0.93955408E+02 0.0000E+00 0.0000E+00
       23  1    3    3    0    0 0.24565921E+02 -.17576048E+03 0.36852813E+03 0.41907454E+03 0.91188000E+02 0.0000E+00 0.9000E+01
      -13  1    4    4    0    0 0.95221893E+02 0.15469968E+03 0.67968294E+02 0.19395592E+03 0.10565837E+00 0.0000E+00 0.9000E+01
       13  1    4    4    0    0 0.53090555E+02 0.17962814E+01 0.12002825E+02 0.54460194E+02 0.10565837E+00 0.0000E+00 0.9000E+01
       23  1    3    3    0    0 -.62622104E+02 0.45692608E+02 0.11555109E+03 0.16636300E+03 0.91188000E+02 0.0000E+00 0.9000E+01
        2  1    1    2  502    0 -.11025626E+03 -.26428088E+02 0.72386569E+03 0.73269129E+03 0.32000000E+00 0.0000E+00 0.9000E+01
#aMCatNLO 2  0  0  2  2 0.11337940D+03 0.00000000D+00  -5  7  0 0.00000000D+00 0.00000000D+00 0.00000000D+00 0.00000000D+00 0.00000000D+00
  <mgrwgt>
 0.4578379174D-04    1    2    0
 0.301788104177464D+03 0.000000000000000D+00 0.000000000000000D+00 0.301788104177464D+03
 0.301788104177464D+03 0.000000000000000D+00 0.000000000000000D+00 -.301788104177464D+03
 0.237774252234246D+03 -.178365770736029D+02 -.185924229856506D+03 0.115478919946963D+03
 0.180269174009467D+03 0.607072770284973D+02 0.146426810370057D+03 -.858533098878099D+02
 0.542441823079509D+02 0.424819424488450D+02 -.746747107189179D+00 -.337217770704502D+02
 0.131288599803264D+03 -.853526424037394D+02 0.402441665936386D+02 0.409616701129696D+01
 0.000000000000000D+00 -.000000000000000D+00 -.000000000000000D+00 0.000000000000000D+00
 0.627016509929444D+03 0.000000000000000D+00 0.000000000000000D+00 0.627016509929444D+03
 0.317110860038977D+03 0.000000000000000D+00 0.000000000000000D+00 -.317110860038977D+03
 0.230533866332569D+03 0.245659200556148D+02 -.175760481343067D+03 0.115478919946963D+03
 0.200923021397276D+03 0.952219487383974D+02 0.154699871322441D+03 -.858533098878099D+02
 0.629204690190467D+02 0.530905003503028D+02 0.179609168534914D+01 -.337217770704502D+02
 0.119755468475926D+03 -.626221046178634D+02 0.456926067863665D+02 0.409616701129696D+01
 0.329994544743603D+03 -.110256264526452D+03 -.264280884510892D+02 0.309905649890467D+03
0.895500490032D-07 0.000000000000D+00 0.000000000000D+00 0.658009156332D-07 0.641714238203D-12  7 2 21 23 -13 13 23 2 2 0.21957387D+00 0.21432988D-01 0.11134512D+06 0.11134512D+06 0.11134512D+06 0.11179121D+01  1  2  1  4  7  2       -2 0.457837917442D-04 0.100000000000D+01
  </mgrwgt>
  </event>
  <event>
  8     66 0.55102590E-06 0.10937861E+04 0.75467711E-02 0.81870544E-01
        2 -1    0    0  501    0 0.00000000E+00 0.00000000E+00 0.11062842E+04 0.11062842E+04 0.32000000E+00 0.0000E+00 0.9000E+01
       -2 -1    0    0    0  501 0.00000000E+00 0.00000000E+00 -.20726874E+04 0.20726874E+04 0.32000000E+00 0.0000E+00 0.9000E+01
       25  2    1    2    0    0 0.84493953E+03 -.66122538E+03 -.15848051E+04 0.19372664E+04 0.30041997E+03 0.0000E+00 0.0000E+00
       23  2    1    2    0    0 -.84493953E+03 0.66122538E+03 0.61840189E+03 0.12417052E+04 0.90934319E+02 0.0000E+00 0.0000E+00
       23  1    3    3    0    0 0.76676481E+03 -.59521515E+03 -.14270290E+04 0.17282755E+04 0.91188000E+02 0.0000E+00 0.9000E+01
      -13  1    4    4    0    0 -.17682062E+02 0.30656356E+02 0.31475871E+02 0.47362528E+02 0.10565837E+00 0.0000E+00 0.9000E+01
       13  1    4    4    0    0 -.82725747E+03 0.63056902E+03 0.58692602E+03 0.11943427E+04 0.10565837E+00 0.0000E+00 0.9000E+01
       23  1    3    3    0    0 0.78174720E+02 -.66010234E+02 -.15777616E+03 0.20899092E+03 0.91188000E+02 0.0000E+00 0.9000E+01
#aMCatNLO 1  0  0  1  2 0.12308788D+04 0.00000000D+00  -5  7  0 0.00000000D+00 0.00000000D+00 0.00000000D+00 0.00000000D+00 0.00000000D+00
  <mgrwgt>
 0.3485233344D-03    5    2    0
 0.151425933604414D+04 0.000000000000000D+00 0.000000000000000D+00 0.151425933604414D+04
 0.151425933604414D+04 0.000000000000000D+00 0.000000000000000D+00 -.151425933604414D+04
 0.135876771748300D+04 0.766764811855257D+03 -.595215145312415D+03 -.946427552864584D+03
 0.597575539464879D+02 -.176809685724192D+02 0.306555457435253D+02 0.481516990268793D+02
 0.144096659882410D+04 -.827258563250293D+03 0.630569833478667D+03 0.997200929383055D+03
 0.169026801834699D+03 0.781747199674554D+02 -.660102339097767D+02 -.989250755453502D+02
 0.000000000000000D+00 -.000000000000000D+00 -.000000000000000D+00 0.000000000000000D+00
 0.505205839076655D+04 0.000000000000000D+00 0.000000000000000D+00 0.505205839076655D+04
 0.174537882711536D+04 0.000000000000000D+00 0.000000000000000D+00 -.174537882711536D+04
 0.173819113454377D+04 0.136511478855157D+04 -.503715862485127D+03 -.946427552864584D+03
 0.592844177759161D+02 0.531861405341007D+01 0.341726267121078D+02 0.481516990268793D+02
 0.126181457580561D+04 -.305065944579708D+03 0.710423183469375D+03 0.997200929383055D+03
 0.209805776478992D+03 0.151367318008419D+03 -.548176702098649D+02 -.989250755453502D+02
 0.352834131327762D+04 -.121673477603369D+04 -.186062277486491D+03 0.330667956365119D+04
0.680794755323D-02 0.000000000000D+00 0.000000000000D+00 0.185799045842D-04 0.000000000000D+00  7 2 -2 23 -13 13 23 21 0 0.17019757D+00 0.31887499D+00 0.11963679D+07 0.11963679D+07 0.11963679D+07 0.10427198D+01  1  2  2  1  7  1        2 0.352353013749D-03 0.100000000000D+01
-.329562521777D-03 0.000000000000D+00 -.261443111782D-04 0.185799045842D-04 0.000000000000D+00  7 2 -2 23 -13 13 23 21 2 0.17019757D+00 0.31887499D+00 0.11963679D+07 0.11963679D+07 0.11963679D+07 0.10427198D+01  1  2  3  1  7  1        2 -.185453405006D-04 0.100000000000D+01
0.424141511249D-03 0.000000000000D+00 0.000000000000D+00 0.185799045842D-04 0.000000000000D+00  7 2 -2 23 -13 13 23 21 2 0.17019757D+00 0.31887499D+00 0.11963679D+07 0.11963679D+07 0.11963679D+07 0.10427198D+01  1  2 15  1  7  1        2 0.238675462978D-04 0.100000000000D+01
-.713989138567D-02 0.000000000000D+00 -.204348240655D-02 0.185799045842D-04 0.000000000000D+00  7 2 -2 23 -13 13 23 21 2 0.57943840D+00 0.31887499D+00 0.11963679D+07 0.11963679D+07 0.11963679D+07 0.10427198D+01  1  2  5  1  7  1        2 -.912329976891D-05 0.100000000000D+01
-.945691880066D-03 0.000000000000D+00 -.291514747092D-03 0.185799045842D-04 0.000000000000D+00  7 21 -2 23 -13 13 23 -2 2 0.57943840D+00 0.31887499D+00 0.11963679D+07 0.11963679D+07 0.11963679D+07 0.10427198D+01  1  2  5  3  7  1        2 -.285853545279D-07 0.100000000000D+01
  </mgrwgt>
  </event>
  <event>
  9     66 0.55102590E-06 0.21539655E+03 0.75467711E-02 0.10002797E+00
        2 -1    0    0  501    0 0.00000000E+00 0.00000000E+00 0.16005419E+04 0.16005419E+04 0.32000000E+00 0.0000E+00 0.9000E+01
       21 -1    0    0  502  501 0.00000000E+00 0.00000000E+00 -.73224315E+02 0.73228156E+02 0.75000000E+00 0.0000E+00 0.9000E+01
       25  2    1    2    0    0 0.15593996E+03 0.96865097E+02 0.68073107E+03 0.76634331E+03 0.30031176E+03 0.0000E+00 0.0000E+00
       23  2    1    2    0    0 0.15624298E+02 -.11708611E+03 0.31866719E+03 0.35196111E+03 0.91512707E+02 0.0000E+00 0.0000E+00
       23  1    3    3    0    0 0.16183828E+03 0.12119630E+01 0.22486883E+03 0.29167506E+03 0.91188000E+02 0.0000E+00 0.9000E+01
      -13  1    4    4    0    0 0.42968801E+02 -.11053122E+03 0.28063268E+03 0.30466076E+03 0.10565837E+00 0.0000E+00 0.9000E+01
       13  1    4    4    0    0 -.27344503E+02 -.65548846E+01 0.38034510E+02 0.47300354E+02 0.10565837E+00 0.0000E+00 0.9000E+01
       23  1    3    3    0    0 -.58983179E+01 0.95653134E+02 0.45586224E+03 0.47466825E+03 0.91188000E+02 0.0000E+00 0.9000E+01
        2  1    1    2  502    0 -.17156426E+03 0.20221010E+02 0.52791931E+03 0.55546565E+03 0.32000000E+00 0.0000E+00 0.9000E+01
#aMCatNLO 2  0  0  2  2 0.17275180D+03 0.00000000D+00  -5  7  0 0.00000000D+00 0.00000000D+00 0.00000000D+00 0.00000000D+00 0.00000000D+00
  <mgrwgt>
 0.4466194004D-04    1    2    0
 0.235565659854827D+03 0.000000000000000D+00 0.000000000000000D+00 0.235565659854827D+03
 0.235565659854827D+03 0.000000000000000D+00 0.000000000000000D+00 -.235565659854827D+03
 0.156446476939688D+03 0.986017103995969D+02 0.866519660342646D+01 -.797675740946051D+02
 0.107470560891630D+03 0.284934542830825D+01 -.105802769997245D+03 0.186434049975318D+02
 0.412694285322050D+02 -.398523941513546D+02 -.508055532568863D+01 -.944141776231042D+01
 0.165944853346131D+03 -.615986616765505D+02 0.102218128719507D+03 0.705655868593837D+02
 0.000000000000000D+00 -.000000000000000D+00 0.000000000000000D+00 0.000000000000000D+00
 0.379260036805990D+03 0.000000000000000D+00 0.000000000000000D+00 0.379260036805990D+03
 0.309027357507426D+03 0.000000000000000D+00 0.000000000000000D+00 -.309027357507426D+03
 0.202166309179582D+03 0.161838284950925D+03 0.121196967756658D+01 -.797675740946051D+02
 0.120046172607018D+03 0.429688822559127D+02 -.110531362813318D+03 0.186434049975318D+02
 0.296619602256022D+02 -.273445912317998D+02 -.655475746527016D+01 -.944141776231042D+01
 0.149930206778235D+03 -.589831422207823D+01 0.956531410937071D+02 0.705655868593837D+02
 0.186482745522978D+03 -.171564261752960D+03 0.202210095073149D+02 0.702326792985643D+02
0.338098663887D-07 0.000000000000D+00 0.000000000000D+00 0.783181245630D-07 0.139643367656D-11  7 2 21 23 -13 13 23 2 2 0.24623741D+00 0.11265573D-01 0.10160502D+06 0.10160502D+06 0.10160502D+06 0.11211550D+01  1  2  1  4  7  2       -2 0.446619400376D-04 0.100000000000D+01
  </mgrwgt>
  </event>
  <event>
  9     66 0.55102590E-06 0.51340530E+03 0.75467711E-02 0.93969080E-01
        2 -1    0    0  502    0 0.00000000E+00 0.00000000E+00 0.65181169E+03 0.65181177E+03 0.32000000E+00 0.0000E+00 0.9000E+01
       -2 -1    0    0    0  501 0.00000000E+00 0.00000000E+00 -.48581490E+03 0.48581501E+03 0.32000000E+00 0.0000E+00 0.9000E+01
       25  2    1    2    0    0 0.17386831E+03 -.46586221E+03 0.21209808E+02 0.58159449E+03 0.30090615E+03 0.0000E+00 0.0000E+00
       23  2    1    2    0    0 -.19662807E+03 0.44286784E+03 0.16260392E+03 0.51908972E+03 0.90661912E+02 0.0000E+00 0.0000E+00
       23  1    3    3    0    0 0.87889133E+02 -.12351968E+03 0.10743146E+03 0.20697435E+03 0.91188000E+02 0.0000E+00 0.9000E+01
      -13  1    4    4    0    0 -.11129653E+03 0.29773120E+03 0.64836780E+02 0.32439883E+03 0.10565837E+00 0.0000E+00 0.9000E+01
       13  1    4    4    0    0 -.85331541E+02 0.14513664E+03 0.97767143E+02 0.19469089E+03 0.10565837E+00 0.0000E+00 0.9000E+01
       23  1    3    3    0    0 0.85979181E+02 -.34234253E+03 -.86221654E+02 0.37462014E+03 0.91188000E+02 0.0000E+00 0.9000E+01
       21  1    1    2  502  501 0.22759753E+02 0.22994366E+02 -.17816940E+02 0.36942565E+02 0.75000000E+00 0.0000E+00 0.9000E+01
#aMCatNLO 2  0  0  1  2 0.32353473D+02 0.00000000D+00  -5  7  0 0.00000000D+00 0.00000000D+00 0.00000000D+00 0.00000000D+00 0.00000000D+00
  <mgrwgt>
 0.1113405785D-03    2    2    0
 0.542372450757479D+03 0.000000000000000D+00 0.000000000000000D+00 0.542372450757479D+03
 0.542372450757479D+03 0.000000000000000D+00 0.000000000000000D+00 -.542372450757479D+03
 0.191036711902242D+03 0.919037374893877D+02 -.119463691444127D+03 0.739046914102490D+02
 0.322155052348057D+03 -.104581901894986D+03 0.304515284262620D+03 0.108141203924356D+02
 0.182270721890123D+03 -.815223471619896D+02 0.148984856712792D+03 0.661833471638839D+02
 0.389282415374537D+03 0.942005115675879D+02 -.334036449531285D+03 -.150902158966569D+03
 0.000000000000000D+00 0.000000000000000D+00 0.000000000000000D+00 -.000000000000000D+00
 0.550689481372805D+03 0.000000000000000D+00 0.000000000000000D+00 0.550689481372805D+03
 0.575017297800473D+03 0.000000000000000D+00 0.000000000000000D+00 -.575017297800473D+03
 0.191725756333798D+03 0.878891333880487D+02 -.123519679070262D+03 0.739046914102490D+02
 0.318037515497832D+03 -.111296561564638D+03 0.297731408232421D+03 0.108141203924356D+02
 0.180904077591646D+03 -.853315060019921D+02 0.145136432128192D+03 0.661833471638839D+02
 0.394559930269218D+03 0.859791812210502D+02 -.342342527369646D+03 -.150902158966569D+03
 0.404794994807837D+02 0.227597529575309D+02 0.229943660792945D+02 -.243278164276681D+02
-.177566621466D-05 0.000000000000D+00 0.000000000000D+00 0.434645648514D-06 0.000000000000D+00  7 2 -2 23 -13 13 23 21 2 0.98763615D-01 0.70497149D-01 0.26358500D+06 0.26358500D+06 0.26358500D+06 0.10887345D+01  1  2  8  1  7  1        2 -.221187296213D-04 0.100000000000D+01
0.124675271751D-04 0.000000000000D+00 0.000000000000D+00 0.434645648514D-06 0.262147513193D-08  7 2 -2 23 -13 13 23 21 2 0.10027811D+00 0.74740301D-01 0.28092225D+06 0.28092225D+06 0.28092225D+06 0.10866694D+01  1  2  1  1  7  1        2 0.133459308113D-03 0.100000000000D+01
  </mgrwgt>
  </event>
  <event>
  8     66 0.55102590E-06 0.64239910E+03 0.75467711E-02 0.91357669E-01
        2 -1    0    0  501    0 0.00000000E+00 0.00000000E+00 0.30249440E+04 0.30249440E+04 0.32000000E+00 0.0000E+00 0.9000E+01
       -2 -1    0    0    0  501 0.00000000E+00 0.00000000E+00 -.14130522E+03 0.14130558E+03 0.32000000E+00 0.0000E+00 0.9000E+01
       25  2    1    2    0    0 -.58867855E+03 0.17985292E+03 0.15456947E+04 0.16905256E+04 0.29969168E+03 0.0000E+00 0.0000E+00
       23  2    1    2    0    0 0.58867855E+03 -.17985292E+03 0.13379441E+04 0.14757240E+04 0.93688431E+02 0.0000E+00 0.0000E+00
       23  1    3    3    0    0 -.51452354E+03 0.13109066E+03 0.10681593E+04 0.11963272E+04 0.91188000E+02 0.0000E+00 0.9000E+01
      -13  1    4    4    0    0 0.17735243E+03 -.85123728E+02 0.35230643E+03 0.40350931E+03 0.10565837E+00 0.0000E+00 0.9000E+01
       13  1    4    4    0    0 0.41132612E+03 -.94729196E+02 0.98563766E+03 0.10722147E+04 0.10565837E+00 0.0000E+00 0.9000E+01
       23  1    3    3    0    0 -.74155009E+02 0.48762265E+02 0.47753535E+03 0.49419833E+03 0.91188000E+02 0.0000E+00 0.9000E+01
#aMCatNLO 1  0  0  1  1 0.61869260D+02 0.00000000D+00  -5  7  0 0.00000000D+00 0.00000000D+00 0.00000000D+00 0.00000000D+00 0.00000000D+00
  <mgrwgt>
 0.1454952170D-03    4    2    0
 0.653789700552961D+03 0.000000000000000D+00 0.000000000000000D+00 0.653789700552961D+03
 0.653789700552961D+03 0.000000000000000D+00 0.000000000000000D+00 -.653789700552961D+03
 0.541217563865955D+03 -.514523539375885D+03 0.131090658874013D+03 -.517877077798268D+02
 0.200130366134365D+03 0.177352133358121D+03 -.851237151898786D+02 -.367741397543259D+02
 0.422671701762443D+03 0.411326414595178D+03 -.947292085018228D+02 0.220980809948240D+02
 0.143559769343159D+03 -.741550085774140D+02 0.487622648176886D+02 0.664637665393287D+02
 0.000000000000000D+00 -.000000000000000D+00 -.000000000000000D+00 -.000000000000000D+00
 0.660691873159977D+03 0.000000000000000D+00 0.000000000000000D+00 0.660691873159977D+03
 0.809600199108256D+03 0.000000000000000D+00 0.000000000000000D+00 -.809600199108256D+03
 0.529348837812852D+03 -.496919049470638D+03 0.149279711769302D+03 -.517877077798268D+02
 0.203296175034721D+03 0.183986115575742D+03 -.782694493683646D+02 -.367741397543259D+02
 0.433459196260870D+03 0.425404707850213D+03 -.801834407988402D+02 0.220980809948240D+02
 0.142938072707099D+03 -.694438123729192D+02 0.536298978718053D+02 0.664637665393287D+02
 0.161249790452690D+03 -.430279615823973D+02 -.444567194739028D+02 -.148908325948279D+03
0.429151740364D-04 0.000000000000D+00 0.000000000000D+00 0.330510517188D-06 0.000000000000D+00  7 2 -2 23 -13 13 23 21 0 0.46537603D+00 0.21739294D-01 0.41267660D+06 0.41267660D+06 0.41267660D+06 0.10744522D+01  1  2  2  1  7  1        2 0.159206926777D-03 0.100000000000D+01
-.238328084888D-05 0.000000000000D+00 -.164805568125D-06 0.330510517188D-06 0.000000000000D+00  7 2 -2 23 -13 13 23 21 2 0.46537603D+00 0.21739294D-01 0.41267660D+06 0.41267660D+06 0.41267660D+06 0.10744522D+01  1  2  3  1  7  1        2 -.102070558952D-04 0.100000000000D+01
0.267992393419D-05 0.000000000000D+00 0.000000000000D+00 0.330510517188D-06 0.000000000000D+00  7 2 -2 23 -13 13 23 21 2 0.46537603D+00 0.21739294D-01 0.41267660D+06 0.41267660D+06 0.41267660D+06 0.10744522D+01  1  2 15  1  7  1        2 0.114775115170D-04 0.100000000000D+01
-.349823772211D-05 0.000000000000D+00 0.000000000000D+00 0.330510517188D-06 0.000000000000D+00  7 2 -2 23 -13 13 23 21 2 0.46537603D+00 0.21739294D-01 0.41267660D+06 0.41267660D+06 0.41267660D+06 0.10744522D+01  1  2  4  1  7  1        2 -.149821654385D-04 0.100000000000D+01
  </mgrwgt>
  </event>
  <event>
  8     66 0.55102590E-06 0.10388520E+03 0.75467711E-02 0.10843733E+00
        2 -1    0    0  501    0 0.00000000E+00 0.00000000E+00 0.12668464E+03 0.12668505E+03 0.32000000E+00 0.0000E+00 0.9000E+01
       -2 -1    0    0    0  501 0.00000000E+00 0.00000000E+00 -.48261988E+03 0.48261999E+03 0.32000000E+00 0.0000E+00 0.9000E+01
       25  2    1    2    0    0 0.91243076E+02 -.13695622E+02 -.36256812E+03 0.47988206E+03 0.30053000E+03 0.0000E+00 0.0000E+00
       23  2    1    2    0    0 -.91243076E+02 0.13695622E+02 0.66328796E+01 0.12942298E+03 0.90517644E+02 0.0000E+00 0.0000E+00
       23  1    3    3    0    0 0.91448224E+02 0.15385804E+02 -.36147775E+03 0.38416261E+03 0.91188000E+02 0.0000E+00 0.9000E+01
      -11  1    4    4    0    0 0.98474278E+01 -.90311705E+01 0.20926059E+02 0.24828086E+02 0.51099893E-03 0.0000E+00 0.9000E+01
       11  1    4    4    0    0 -.10109050E+03 0.22726793E+02 -.14293180E+02 0.10459489E+03 0.51099893E-03 0.0000E+00 0.9000E+01
       23  1    3    3    0    0 -.20514878E+00 -.29081426E+02 -.10903715E+01 0.95719442E+02 0.91188000E+02 0.0000E+00 0.9000E+01
#aMCatNLO 1  0  0  2  1 0.37124501D+01 0.00000000D+00  -5  7  0 0.00000000D+00 0.00000000D+00 0.00000000D+00 0.00000000D+00 0.00000000D+00
  <mgrwgt>
 0.1584757497D-03   11    2    0
 0.247266421486536D+03 0.000000000000000D+00 0.000000000000000D+00 0.247266421486536D+03
 0.247266421486536D+03 0.000000000000000D+00 0.000000000000000D+00 -.247266421486536D+03
 0.213149739925444D+03 0.914482243335939D+02 0.153858036949778D+02 -.168872909601205D+03
 0.456515677680830D+02 0.984742777661492D+01 -.903117046945382D+01 0.436523970226136D+02
 0.118582113286676D+03 -.101090503345691D+03 0.227267926172262D+02 0.576707952275902D+02
 0.117149421992868D+03 -.205148764518128D+00 -.290814258427502D+02 0.675497173510011D+02
 0.000000000000000D+00 0.000000000000000D+00 0.000000000000000D+00 -.000000000000000D+00
 0.247630402441887D+03 0.000000000000000D+00 0.000000000000000D+00 0.247630402441887D+03
 0.256924477983401D+03 0.000000000000000D+00 0.000000000000000D+00 -.256924477983401D+03
 0.212830583425111D+03 0.909463154736590D+02 0.138677323907749D+02 -.168872909601205D+03
 0.456940183085126D+02 0.973980036648673D+01 -.935669985517232D+01 0.436523970226136D+02
 0.118661690755763D+03 -.101370034489939D+03 0.218813239622800D+02 0.576707952275902D+02
 0.117360484938655D+03 -.481458710258452D+00 -.299171516750231D+02 0.675497173510011D+02
 0.100081029972465D+02 0.116537736005197D+01 0.352479517714053D+01 -.929407554151456D+01
0.170636461280D-05 0.000000000000D+00 0.000000000000D+00 0.978632540243D-07 0.000000000000D+00  7 2 -2 23 -11 11 23 21 0 0.19489984D-01 0.74249252D-01 0.29368586D+05 0.29368586D+05 0.29368586D+05 0.11681940D+01  1  2  2  2  7  2       -2 0.102047798221D-03 0.100000000000D+01
-.793053303209D-07 0.000000000000D+00 -.655288940927D-08 0.978632540243D-07 0.000000000000D+00  7 2 -2 23 -11 11 23 21 2 0.19489984D-01 0.74249252D-01 0.29368586D+05 0.29368586D+05 0.29368586D+05 0.11681940D+01  1  2  3  2  7  2       -2 -.647238201393D-05 0.100000000000D+01
0.108067347867D-06 0.000000000000D+00 0.000000000000D+00 0.978632540243D-07 0.000000000000D+00  7 2 -2 23 -11 11 23 21 2 0.19489984D-01 0.74249252D-01 0.29368586D+05 0.29368586D+05 0.29368586D+05 0.11681940D+01  1  2 15  2  7  2       -2 0.881974964099D-05 0.100000000000D+01
0.139056639474D-05 0.000000000000D+00 0.000000000000D+00 0.978632540243D-07 0.000000000000D+00  7 2 -2 23 -11 11 23 21 2 0.19489984D-01 0.77202858D-01 0.30003027D+05 0.30003027D+05 0.30003027D+05 0.11673319D+01  1  2 12  2  7  2       -2 0.104154444297D-03 0.100000000000D+01
-.725254863746D-04 0.000000000000D+00 0.000000000000D+00 0.978632540243D-07 0.000000000000D+00  7 2 -2 23 -11 11 23 21 2 0.19489984D-01 0.74249252D-01 0.29368586D+05 0.29368586D+05 0.29368586D+05 0.11681940D+01  1  2  4  2  7  2       -2 -.591905552456D-02 0.100000000000D+01
-.100972285360D-03 0.000000000000D+00 -.545287761110D-05 0.978632540243D-07 0.000000000000D+00  7 2 -2 23 -11 11 23 21 2 0.19489984D-01 0.77207507D-01 0.29368586D+05 0.29368586D+05 0.29368586D+05 0.11681940D+01  1  2  5  2  7  2       -2 -.757311397099D-02 0.100000000000D+01
0.101112304723D-03 0.000000000000D+00 0.544871865737D-05 0.978632540243D-07 0.000000000000D+00  7 2 -2 23 -11 11 23 21 2 0.19489984D-01 0.74249252D-01 0.29368586D+05 0.29368586D+05 0.29368586D+05 0.11681940D+01  1  2  6  2  7  2       -2 0.825212453975D-02 0.100000000000D+01
0.711719496408D-04 0.000000000000D+00 0.000000000000D+00 0.978632540243D-07 0.516428220938D-07  7 2 -2 23 -11 11 23 21 2 0.19518674D-01 0.77149377D-01 0.30003027D+05 0.30003027D+05 0.30003027D+05 0.11673319D+01  1  2 11  2  7  2       -2 0.532969679466D-02 0.100000000000D+01
0.330787498845D-07 0.000000000000D+00 0.000000000000D+00 0.978632540243D-07 0.000000000000D+00  7 2 21 23 -11 11 23 2 2 0.19489984D-01 0.77202858D-01 0.30003027D+05 0.30003027D+05 0.30003027D+05 0.11673319D+01  1  2 12  4  7  2       -2 0.257530220546D-04 0.100000000000D+01
-.697768241603D-06 0.000000000000D+00 -.377045000783D-07 0.978632540243D-07 0.000000000000D+00  7 2 21 23 -11 11 23 2 2 0.19489984D-01 0.77207507D-01 0.29368586D+05 0.29368586D+05 0.29368586D+05 0.11681940D+01  1  2  5  4  7  2       -2 -.544336341663D-03 0.100000000000D+01
0.486676973733D-06 0.000000000000D+00 0.000000000000D+00 0.978632540243D-07 0.350500482534D-09  7 2 21 23 -11 11 23 2 2 0.19518674D-01 0.77149377D-01 0.30003027D+05 0.30003027D+05 0.30003027D+05 0.11673319D+01  1  2 11  4  7  2       -2 0.378857620314D-03 0.100000000000D+01
  </mgrwgt>
  </event>
  <event>
  8     66 0.55102590E-06 0.20056809E+03 0.75467711E-02 0.98263288E-01
        2 -1    0    0  501    0 0.00000000E+00 0.00000000E+00 0.25517899E+04 0.25517899E+04 0.32000000E+00 0.0000E+00 0.9000E+01
       -2 -1    0    0    0  501 0.00000000E+00 0.00000000E+00 -.76614523E+02 0.76615191E+02 0.32000000E+00 0.0000E+00 0.9000E+01
       25  2    1    2    0    0 0.21876316E+03 0.45343462E+02 0.23011727E+04 0.23312869E+04 0.29931478E+03 0.0000E+00 0.0000E+00
       23  2    1    2    0    0 -.21876316E+03 -.45343462E+02 0.17400259E+03 0.29711815E+03 0.89938559E+02 0.0000E+00 0.0000E+00
       23  1    3    3    0    0 0.21105813E+03 0.49661401E+02 0.20585263E+04 0.20719213E+04 0.91188000E+02 0.0000E+00 0.9000E+01
      -11  1    4    4    0    0 -.16718406E+03 -.71866730E+02 0.14239000E+03 0.23106330E+03 0.51099893E-03 0.0000E+00 0.9000E+01
       11  1    4    4    0    0 -.51579108E+02 0.26523268E+02 0.31612590E+02 0.66054856E+02 0.51099893E-03 0.0000E+00 0.9000E+01
       23  1    3    3    0    0 0.77050316E+01 -.43179396E+01 0.24264641E+03 0.25936566E+03 0.91188000E+02 0.0000E+00 0.9000E+01
#aMCatNLO 1  0  0  2  1 0.15740377D+03 0.00000000D+00  -5  7  0 0.00000000D+00 0.00000000D+00 0.00000000D+00 0.00000000D+00 0.00000000D+00
  <mgrwgt>
 0.9083045218D-04    9    2    0
 0.442159549956887D+03 0.000000000000000D+00 0.000000000000000D+00 0.442159549956887D+03
 0.442159549956887D+03 0.000000000000000D+00 0.000000000000000D+00 -.442159549956887D+03
 0.396502501545857D+03 0.211058131484863D+03 0.496614014151810D+02 0.319197732967703D+03
 0.288230484933743D+03 -.167184055114999D+03 -.718667299302524D+02 -.223520641752787D+03
 0.107848190912139D+03 -.515791079821743D+02 0.265232680750047D+02 -.909249369172490D+02
 0.917379225220343D+02 0.770503161230995D+01 -.431793955993324D+01 -.475215429766672D+01
 0.000000000000000D+00 0.000000000000000D+00 0.000000000000000D+00 -.000000000000000D+00
 0.465465430777242D+03 0.000000000000000D+00 0.000000000000000D+00 0.465465430777242D+03
 0.827801457648656D+03 0.000000000000000D+00 0.000000000000000D+00 -.827801457648656D+03
 0.364981048991679D+03 0.150223260411902D+03 0.210165191828440D+02 0.319197732967703D+03
 0.325132654225683D+03 -.216185596205848D+03 -.949397363983183D+02 -.223520641752787D+03
 0.115838216512738D+03 -.694494004485844D+02 0.181088108051962D+02 -.909249369172490D+02
 0.922664370508126D+02 -.699506464528492D+01 -.112396691317410D+02 -.475215429766672D+01
 0.395048531644985D+03 0.142406800887815D+03 0.670540755420191D+02 -.362336026871414D+03
0.180723087321D-04 0.000000000000D+00 0.000000000000D+00 0.444201746182D-06 0.000000000000D+00  7 2 -2 23 -11 11 23 21 0 0.39258311D+00 0.11786903D-01 0.80317542D+05 0.80317542D+05 0.80317542D+05 0.11296182D+01  1  2  2  2  7  2       -2 0.378622680757D-03 0.100000000000D+01
-.762498609357D-06 0.000000000000D+00 -.694024240794D-07 0.444201746182D-06 0.000000000000D+00  7 2 -2 23 -11 11 23 21 2 0.39258311D+00 0.11786903D-01 0.80317542D+05 0.80317542D+05 0.80317542D+05 0.11296182D+01  1  2  3  2  7  2       -2 -.203842802584D-04 0.100000000000D+01
0.111281165599D-05 0.000000000000D+00 0.000000000000D+00 0.444201746182D-06 0.000000000000D+00  7 2 -2 23 -11 11 23 21 2 0.39258311D+00 0.11786903D-01 0.80317542D+05 0.80317542D+05 0.80317542D+05 0.11296182D+01  1  2 15  2  7  2       -2 0.297493849723D-04 0.100000000000D+01
0.200326273733D-04 0.000000000000D+00 0.000000000000D+00 0.444201746182D-06 0.000000000000D+00  7 2 -2 23 -11 11 23 21 2 0.39258311D+00 0.22126468D-01 0.13484279D+06 0.13484279D+06 0.13484279D+06 0.11112214D+01  1  2 12  2  7  2       -2 0.183170802437D-03 0.100000000000D+01
-.353321690559D-04 0.000000000000D+00 0.000000000000D+00 0.444201746182D-06 0.000000000000D+00  7 2 -2 23 -11 11 23 21 2 0.39258311D+00 0.11786903D-01 0.80317542D+05 0.80317542D+05 0.80317542D+05 0.11296182D+01  1  2  4  2  7  2       -2 -.944553638962D-03 0.100000000000D+01
-.353736357093D-04 0.000000000000D+00 -.593163278587D-05 0.444201746182D-06 0.000000000000D+00  7 2 -2 23 -11 11 23 21 2 0.39258311D+00 0.23280548D-01 0.80317542D+05 0.80317542D+05 0.80317542D+05 0.11296182D+01  1  2  5  2  7  2       -2 -.314996785530D-03 0.100000000000D+01
0.326923267435D-04 0.000000000000D+00 0.478084052234D-05 0.444201746182D-06 0.000000000000D+00  7 2 -2 23 -11 11 23 21 2 0.39258311D+00 0.11786903D-01 0.80317542D+05 0.80317542D+05 0.80317542D+05 0.11296182D+01  1  2  6  2  7  2       -2 0.873981332506D-03 0.100000000000D+01
0.137307571907D-05 0.000000000000D+00 0.000000000000D+00 0.444201746182D-06 0.000000000000D+00  7 2 21 23 -11 11 23 2 2 0.39258311D+00 0.22126468D-01 0.13484279D+06 0.13484279D+06 0.13484279D+06 0.11112214D+01  1  2 12  4  7  2       -2 0.156868106802D-03 0.100000000000D+01
-.225462409823D-05 0.000000000000D+00 -.437121859020D-06 0.444201746182D-06 0.000000000000D+00  7 2 21 23 -11 11 23 2 2 0.39258311D+00 0.23280548D-01 0.80317542D+05 0.80317542D+05 0.80317542D+05 0.11296182D+01  1  2  5  4  7  2       -2 -.251627150542D-03 0.100000000000D+01
  </mgrwgt>
  </event>
  <event>
  9     66 0.55102590E-06 0.26118210E+03 0.75467711E-02 0.95611488E-01
        2 -1    0    0  501    0 0.00000000E+00 0.00000000E+00 0.18993299E+04 0.18993300E+04 0.32000000E+00 0.0000E+00 0.9000E+01
       21 -1    0    0  502  501 0.00000000E+00 0.00000000E+00 -.12842376E+03 0.12842595E+03 0.75000000E+00 0.0000E+00 0.9000E+01
       25  2    1    2    0    0 0.15338153E+03 0.20972253E+03 0.59818164E+03 0.71866784E+03 0.30191515E+03 0.0000E+00 0.0000E+00
       23  2    1    2    0    0 0.16028513E+03 -.15669389E+03 0.68789241E+03 0.72920781E+03 0.91125018E+02 0.0000E+00 0.0000E+00
       23  1    3    3    0    0 0.14469636E+03 0.42321931E+02 0.42851794E+03 0.46332608E+03 0.91188000E+02 0.0000E+00 0.9000E+01
      -11  1    4    4    0    0 0.16467039E+03 -.15763702E+03 0.61027546E+03 0.65146136E+03 0.51099893E-03 0.0000E+00 0.9000E+01
       11  1    4    4    0    0 -.43852580E+01 0.94313205E+00 0.77616946E+02 0.77746449E+02 0.51099893E-03 0.0000E+00 0.9000E+01
       23  1    3    3    0    0 0.86851790E+01 0.16740060E+03 0.16966370E+03 0.25534177E+03 0.91188000E+02 0.0000E+00 0.9000E+01
        2  1    1    2  502    0 -.31366667E+03 -.53028646E+02 0.48483212E+03 0.57988025E+03 0.32000000E+00 0.0000E+00 0.9000E+01
#aMCatNLO 2  0  0  2  2 0.31811761D+03 0.00000000D+00  -5  7  0 0.00000000D+00 0.00000000D+00 0.00000000D+00 0.00000000D+00 0.00000000D+00
  <mgrwgt>
 0.3785550435D-04    1    2    0
 0.292043932963491D+03 0.000000000000000D+00 0.000000000000000D+00 0.292043932963491D+03
 0.292043932963491D+03 0.000000000000000D+00 0.000000000000000D+00 -.292043932963491D+03
 0.123443845276671D+03 0.684970534468964D+02 0.294396385412227D+02 0.369403971871703D+02
 0.197030760375338D+03 0.554047399475605D+02 -.176109523575430D+03 0.688249303048096D+02
 0.240914893311962D+02 -.152465934244698D+02 -.893090816621466D+00 0.186317910018689D+02
 0.239521770943776D+03 -.108655199969987D+03 0.147562975850829D+03 -.124397118493849D+03
 0.000000000000000D+00 -.000000000000000D+00 -.000000000000000D+00 -.000000000000000D+00
 0.462058270044653D+03 0.000000000000000D+00 0.000000000000000D+00 0.462058270044653D+03
 0.527901506020068D+03 0.000000000000000D+00 0.000000000000000D+00 -.527901506020068D+03
 0.180022291799445D+03 0.144696355859241D+03 0.423219311638118D+02 0.369403971871703D+02
 0.238123156872276D+03 0.164670390658205D+03 -.157637017377997D+03 0.688249303048096D+02
 0.191641232944247D+02 -.438525799097385D+01 0.943132047588398D+00 0.186317910018689D+02
 0.227790007564367D+03 0.868517900765596D+01 0.167400599694884D+03 -.124397118493849D+03
 0.324860196534209D+03 -.313666667534129D+03 -.530286455282873D+02 -.658432359754153D+02
0.123124874953D-06 0.000000000000D+00 0.000000000000D+00 0.294336410032D-07 0.298232697987D-12  7 2 21 23 -11 11 23 2 2 0.29220473D+00 0.19757669D-01 0.21048745D+06 0.21048745D+06 0.21048745D+06 0.10961247D+01  1  2  1  4  7  2       -2 0.378555043530D-04 0.100000000000D+01
  </mgrwgt>
  </event>
  <event>
  8     66 0.55102590E-06 0.25250506E+03 0.75467711E-02 0.98992041E-01
        2 -1    0    0  501    0 0.00000000E+00 0.00000000E+00 0.90578595E+03 0.90578601E+03 0.32000000E+00 0.0000E+00 0.9000E+01
       -2 -1    0    0    0  501 0.00000000E+00 0.00000000E+00 -.11490895E+03 0.11490939E+03 0.32000000E+00 0.0000E+00 0.9000E+01
       25  2    1    2    0    0 -.11790768E+03 0.90685679E+02 0.77532067E+03 0.84415507E+03 0.29891391E+03 0.0000E+00 0.0000E+00
       23  2    1    2    0    0 0.11790768E+03 -.90685679E+02 0.15556342E+02 0.17654033E+03 0.93799662E+02 0.0000E+00 0.0000E+00
       23  1    3    3    0    0 0.45692979E+02 0.10299499E+03 0.37404657E+03 0.40115072E+03 0.91188000E+02 0.0000E+00 0.9000E+01
      -11  1    4    4    0    0 0.82040820E+02 -.82481735E+01 0.24955882E+02 0.86148270E+02 0.51099893E-03 0.0000E+00 0.9000E+01
       11  1    4    4    0    0 0.35866860E+02 -.82437505E+02 -.93995399E+01 0.90392064E+02 0.51099893E-03 0.0000E+00 0.9000E+01
       23  1    3    3    0    0 -.16360066E+03 -.12309311E+02 0.40127410E+03 0.44300435E+03 0.91188000E+02 0.0000E+00 0.9000E+01
#aMCatNLO 1  0  0  2  2 0.16775805D+03 0.00000000D+00  -5  7  0 0.00000000D+00 0.00000000D+00 0.00000000D+00 0.00000000D+00 0.00000000D+00
  <mgrwgt>
 0.2834772138D-03    3    2    0
 0.322619225608145D+03 0.000000000000000D+00 0.000000000000000D+00 0.322619225608145D+03
 0.322619225608145D+03 0.000000000000000D+00 0.000000000000000D+00 -.322619225608145D+03
 0.176102132252408D+03 0.456929791106117D+02 0.102994989899820D+03 0.100004466677132D+03
 0.105688230319056D+03 0.820408196017244D+02 -.824817354373580D+01 -.661156076901935D+02
 0.154511319095696D+03 0.358668603776188D+02 -.824375049964129D+02 -.125663733134548D+03
 0.208936769549131D+03 -.163600659089955D+03 -.123093113596715D+02 0.917748741476097D+02
 0.000000000000000D+00 0.000000000000000D+00 0.000000000000000D+00 0.000000000000000D+00
 0.816588408234254D+03 0.000000000000000D+00 0.000000000000000D+00 0.816588408234254D+03
 0.347904259812874D+03 0.000000000000000D+00 0.000000000000000D+00 -.347904259812874D+03
 0.160792754353063D+03 0.584499003420644D+01 0.866256384944257D+02 0.100004466677132D+03
 0.902865633211623D+02 0.588608850087385D+02 -.177703728742741D+02 -.661156076901935D+02
 0.159166712021858D+03 -.123503476666228D+01 -.976787749701203D+02 -.125663733134548D+03
 0.256443870759006D+03 -.218645966717571D+03 -.349216439932404D+02 0.917748741476097D+02
 0.497802767592039D+03 0.155175126441289D+03 0.637451533432091D+02 0.468684148421380D+03
0.312101091992D-05 0.000000000000D+00 0.000000000000D+00 0.147679955339D-07 0.000000000000D+00  7 2 -2 23 -11 11 23 21 0 0.13935172D+00 0.17678338D-01 0.63758806D+05 0.63758806D+05 0.63758806D+05 0.11381237D+01  1  2  2  2  7  2       -2 0.279660710967D-03 0.100000000000D+01
-.160730960629D-06 0.000000000000D+00 -.119855037135D-07 0.147679955339D-07 0.000000000000D+00  7 2 -2 23 -11 11 23 21 2 0.13935172D+00 0.17678338D-01 0.63758806D+05 0.63758806D+05 0.63758806D+05 0.11381237D+01  1  2  3  2  7  2       -2 -.186558314845D-04 0.100000000000D+01
0.193612377242D-06 0.000000000000D+00 0.000000000000D+00 0.147679955339D-07 0.000000000000D+00  7 2 -2 23 -11 11 23 21 2 0.13935172D+00 0.17678338D-01 0.63758806D+05 0.63758806D+05 0.63758806D+05 0.11381237D+01  1  2 15  2  7  2       -2 0.224723343218D-04 0.100000000000D+01
  </mgrwgt>
  </event>
  <event>
  8     66 0.55102590E-06 0.15070460E+03 0.75467711E-02 0.10454933E+00
        2 -1    0    0  501    0 0.00000000E+00 0.00000000E+00 0.29341191E+04 0.29341191E+04 0.32000000E+00 0.0000E+00 0.9000E+01
       -2 -1    0    0    0  501 0.00000000E+00 0.00000000E+00 -.35410411E+02 0.35411856E+02 0.32000000E+00 0.0000E+00 0.9000E+01
       25  2    1    2    0    0 0.91945296E+02 0.10602158E+03 0.26436185E+04 0.26642481E+04 0.29967494E+03 0.0000E+00 0.0000E+00
       23  2    1    2    0    0 -.91945296E+02 -.10602158E+03 0.25509021E+03 0.30528282E+03 0.91826306E+02 0.0000E+00 0.0000E+00
       23  1    3    3    0    0 -.31068797E+02 -.15627289E+02 0.15652629E+04 0.15683025E+04 0.91188000E+02 0.0000E+00 0.9000E+01
      -11  1    4    4    0    0 -.55977362E+02 -.10802400E+03 0.14410235E+03 0.18859517E+03 0.51099893E-03 0.0000E+00 0.9000E+01
       11  1    4    4    0    0 -.35967934E+02 0.20024271E+01 0.11098786E+03 0.11668765E+03 0.51099893E-03 0.0000E+00 0.9000E+01
       23  1    3    3    0    0 0.12301409E+03 0.12164887E+03 0.10783556E+04 0.10959457E+04 0.91188000E+02 0.0000E+00 0.9000E+01
#aMCatNLO 1  0  0  1  2 0.31367533D+01 0.00000000D+00  -5  7  0 0.00000000D+00 0.00000000D+00 0.00000000D+00 0.00000000D+00 0.00000000D+00
  <mgrwgt>
 0.5481412882D-03   11    2    0
 0.322336057586476D+03 0.000000000000000D+00 0.000000000000000D+00 0.322336057586476D+03
 0.322336057586476D+03 0.000000000000000D+00 0.000000000000000D+00 -.322336057586476D+03
 0.185957523584383D+03 -.310687972089498D+02 -.156272893502792D+02 0.158289187568791D+03
 0.220776511513841D+03 -.559773622822665D+02 -.108024004074588D+03 -.184227081320403D+03
 0.384476202636555D+02 -.359679336192768D+02 0.200242713316114D+01 -.134356816229744D+02
 0.199490459811072D+03 0.123014093110493D+03 0.121648866291706D+03 0.393735753745863D+02
 0.000000000000000D+00 0.000000000000000D+00 -.000000000000000D+00 0.000000000000000D+00
 0.333926549187525D+03 0.000000000000000D+00 0.000000000000000D+00 0.333926549187525D+03
 0.322552169185392D+03 0.000000000000000D+00 0.000000000000000D+00 -.322552169185392D+03
 0.185917574329652D+03 -.312611884449458D+02 -.147432797044417D+02 0.158289187568791D+03
 0.220323460027775D+03 -.562055673145441D+02 -.106975435262617D+03 -.184227081320403D+03
 0.384948122068858D+02 -.360077401289532D+02 0.218533223452366D+01 -.134356816229744D+02
 0.199943899746105D+03 0.122807443967903D+03 0.122598388937100D+03 0.393735753745863D+02
 0.117989720624993D+02 0.667051920539853D+00 -.306500620456550D+01 0.113743800021328D+02
0.451753920178D-05 0.000000000000D+00 0.000000000000D+00 0.533010018742D-06 0.000000000000D+00  7 2 -2 23 -11 11 23 21 0 0.45140305D+00 0.54478680D-02 0.50816607D+05 0.50816607D+05 0.50816607D+05 0.11466770D+01  1  2  2  1  7  1        2 0.184344892927D-03 0.100000000000D+01
-.211951541094D-06 0.000000000000D+00 -.173485400302D-07 0.533010018742D-06 0.000000000000D+00  7 2 -2 23 -11 11 23 21 2 0.45140305D+00 0.54478680D-02 0.50816607D+05 0.50816607D+05 0.50816607D+05 0.11466770D+01  1  2  3  1  7  1        2 -.113722919150D-04 0.100000000000D+01
0.272502615789D-06 0.000000000000D+00 0.000000000000D+00 0.533010018742D-06 0.000000000000D+00  7 2 -2 23 -11 11 23 21 2 0.45140305D+00 0.54478680D-02 0.50816607D+05 0.50816607D+05 0.50816607D+05 0.11466770D+01  1  2 15  1  7  1        2 0.146211689632D-04 0.100000000000D+01
0.130701292929D-05 0.000000000000D+00 0.000000000000D+00 0.533010018742D-06 0.000000000000D+00  7 2 -2 23 -11 11 23 21 2 0.46778291D+00 0.54478680D-02 0.51438290D+05 0.51438290D+05 0.51438290D+05 0.11462136D+01  1  2 12  1  7  1        2 0.602492865023D-04 0.100000000000D+01
-.263572587489D-03 0.000000000000D+00 0.000000000000D+00 0.533010018742D-06 0.000000000000D+00  7 2 -2 23 -11 11 23 21 2 0.45140305D+00 0.54478680D-02 0.50816607D+05 0.50816607D+05 0.50816607D+05 0.11466770D+01  1  2  4  1  7  1        2 -.141420269475D-01 0.100000000000D+01
-.312370612815D-03 0.000000000000D+00 -.982281271544D-05 0.533010018742D-06 0.000000000000D+00  7 2 -2 23 -11 11 23 21 2 0.46771717D+00 0.54478680D-02 0.50816607D+05 0.50816607D+05 0.50816607D+05 0.11466770D+01  1  2  5  1  7  1        2 -.144255915710D-01 0.100000000000D+01
0.312528553345D-03 0.000000000000D+00 0.981662526022D-05 0.533010018742D-06 0.000000000000D+00  7 2 -2 23 -11 11 23 21 2 0.45140305D+00 0.54478680D-02 0.50816607D+05 0.50816607D+05 0.50816607D+05 0.11466770D+01  1  2  6  1  7  1        2 0.167687666816D-01 0.100000000000D+01
0.262391561822D-03 0.000000000000D+00 0.000000000000D+00 0.533010018742D-06 0.379775760873D-06  7 2 -2 23 -11 11 23 21 2 0.46763450D+00 0.54515206D-02 0.51438290D+05 0.51438290D+05 0.51438290D+05 0.11462136D+01  1  2 11  1  7  1        2 0.121001220162D-01 0.100000000000D+01
0.359860939541D-07 0.000000000000D+00 0.000000000000D+00 0.533010018742D-06 0.000000000000D+00  7 21 -2 23 -11 11 23 -2 2 0.46778291D+00 0.54478680D-02 0.51438290D+05 0.51438290D+05 0.51438290D+05 0.11462136D+01  1  2 12  3  7  1        2 0.117671391862D-06 0.100000000000D+01
-.198878785600D-05 0.000000000000D+00 -.620428952604D-07 0.533010018742D-06 0.000000000000D+00  7 21 -2 23 -11 11 23 -2 2 0.46771717D+00 0.54478680D-02 0.50816607D+05 0.50816607D+05 0.50816607D+05 0.11466770D+01  1  2  5  3  7  1        2 -.652356575230D-05 0.100000000000D+01
0.165920136649D-05 0.000000000000D+00 0.000000000000D+00 0.533010018742D-06 0.239520877272D-08  7 21 -2 23 -11 11 23 -2 2 0.46763450D+00 0.54515206D-02 0.51438290D+05 0.51438290D+05 0.51438290D+05 0.11462136D+01  1  2 11  3  7  1        2 0.543394686572D-05 0.100000000000D+01
  </mgrwgt>
  </event>
  <event>
  8     66 0.55102590E-06 0.29838158E+03 0.75467711E-02 0.91107870E-01
        2 -1    0    0  501    0 0.00000000E+00 0.00000000E+00 0.16075085E+04 0.16075085E+04 0.32000000E+00 0.0000E+00 0.9000E+01
       -2 -1    0    0    0  501 0.00000000E+00 0.00000000E+00 -.59184123E+02 0.59184988E+02 0.32000000E+00 0.0000E+00 0.9000E+01
       25  2    1    2    0    0 -.21069589E+03 0.49116301E+02 0.10944135E+04 0.11553003E+04 0.30028788E+03 0.0000E+00 0.0000E+00
       23  2    1    2    0    0 0.21069589E+03 -.49116301E+02 0.45391086E+03 0.51139315E+03 0.93181141E+02 0.0000E+00 0.0000E+00
       23  1    3    3    0    0 -.19819195E+03 -.59419687E+02 0.72419621E+03 0.75867394E+03 0.91188000E+02 0.0000E+00 0.9000E+01
      -11  1    4    4    0    0 0.13481692E+03 -.66759932E+02 0.35444915E+03 0.38505414E+03 0.51099893E-03 0.0000E+00 0.9000E+01
       11  1    4    4    0    0 0.75878969E+02 0.17643631E+02 0.99461701E+02 0.12633901E+03 0.51099893E-03 0.0000E+00 0.9000E+01
       23  1    3    3    0    0 -.12503935E+02 0.10853599E+03 0.37021726E+03 0.39662638E+03 0.91188000E+02 0.0000E+00 0.9000E+01
#aMCatNLO 1  0  0  2  2 0.56395128D+03 0.00000000D+00  -5  7  0 0.00000000D+00 0.00000000D+00 0.00000000D+00 0.00000000D+00 0.00000000D+00
  <mgrwgt>
 0.1460305353D-03    5    2    0
 0.308447282664265D+03 0.000000000000000D+00 0.000000000000000D+00 0.308447282664265D+03
 0.308447282664265D+03 0.000000000000000D+00 0.000000000000000D+00 -.308447282664265D+03
 0.232108216165300D+03 -.198191952082875D+03 -.594196873503822D+02 0.524235019070627D+02
 0.150698324746631D+03 0.134816918041349D+03 -.667599320520675D+02 -.880313374183452D+01
 0.917003263559179D+02 0.758789689970099D+02 0.176436310812333D+02 -.483738999875140D+02
 0.142387698060681D+03 -.125039349554831D+02 0.108535988321216D+03 0.475353182228574D+01
 0.000000000000000D+00 0.000000000000000D+00 -.000000000000000D+00 -.000000000000000D+00
 0.620793810028852D+03 0.000000000000000D+00 0.000000000000000D+00 0.620793810028852D+03
 0.809814750514181D+03 0.000000000000000D+00 0.000000000000000D+00 -.809814750514181D+03
 0.412434419866702D+03 -.383780955613678D+03 0.108401355631908D+03 0.524235019070627D+02
 0.718311093772774D+02 0.707420009969485D+02 -.881943340819043D+01 -.880313374183452D+01
 0.836109903312963D+02 0.253999925060931D+02 0.632898402973853D+02 -.483738999875140D+02
 0.267946398114092D+03 -.130655150664986D+03 0.215375617139545D+03 0.475353182228574D+01
 0.594785642853666D+03 0.418294112775622D+03 -.378247379660648D+03 -.189020940485328D+03
0.125245598812D-05 0.000000000000D+00 0.000000000000D+00 0.613390277581D-07 0.000000000000D+00  7 2 -2 23 -11 11 23 21 0 0.24730906D+00 0.91053187D-02 0.89031565D+05 0.89031565D+05 0.89031565D+05 0.11258862D+01  1  2  2  2  7  2       -2 0.127279019041D-03 0.100000000000D+01
-.694877630354D-07 0.000000000000D+00 -.480976077362D-08 0.613390277581D-07 0.000000000000D+00  7 2 -2 23 -11 11 23 21 2 0.24730906D+00 0.91053187D-02 0.89031565D+05 0.89031565D+05 0.89031565D+05 0.11258862D+01  1  2  3  2  7  2       -2 -.895141462996D-05 0.100000000000D+01
0.806364121902D-07 0.000000000000D+00 0.000000000000D+00 0.613390277581D-07 0.000000000000D+00  7 2 -2 23 -11 11 23 21 2 0.24730906D+00 0.91053187D-02 0.89031565D+05 0.89031565D+05 0.89031565D+05 0.11258862D+01  1  2 15  2  7  2       -2 0.103875837738D-04 0.100000000000D+01
0.104889706182D-05 0.000000000000D+00 -.623419253875D-06 0.613390277581D-07 0.000000000000D+00  7 2 -2 23 -11 11 23 21 2 0.24730906D+00 0.56621759D-01 0.89031565D+05 0.89031565D+05 0.89031565D+05 0.11258862D+01  1  2  5  2  7  2       -2 0.592658574490D-05 0.100000000000D+01
0.190684168887D-06 0.000000000000D+00 -.139626097236D-06 0.613390277581D-07 0.000000000000D+00  7 2 21 23 -11 11 23 2 2 0.24730906D+00 0.56621759D-01 0.89031565D+05 0.89031565D+05 0.89031565D+05 0.11258862D+01  1  2  5  4  7  2       -2 0.113887613439D-04 0.100000000000D+01
  </mgrwgt>
  </event>
  <event>
  8     66 0.55102590E-06 0.19671320E+03 0.75467711E-02 0.99483686E-01
        2 -1    0    0  501    0 0.00000000E+00 0.00000000E+00 0.67135431E+03 0.67135438E+03 0.32000000E+00 0.0000E+00 0.9000E+01
       -2 -1    0    0    0  501 0.00000000E+00 0.00000000E+00 -.62327231E+02 0.62328053E+02 0.32000000E+00 0.0000E+00 0.9000E+01
       25  2    1    2    0    0 0.29566420E+02 0.40492222E+02 0.47115474E+03 0.56043665E+03 0.29931363E+03 0.0000E+00 0.0000E+00
       23  2    1    2    0    0 -.29566420E+02 -.40492222E+02 0.13787233E+03 0.17324579E+03 0.92149495E+02 0.0000E+00 0.0000E+00
       23  1    3    3    0    0 0.89937478E+02 0.10767135E+03 0.20240084E+03 0.26260850E+03 0.91188000E+02 0.0000E+00 0.9000E+01
      -11  1    4    4    0    0 0.26441952E+02 0.33169380E+01 0.70183642E+02 0.75072782E+02 0.51099893E-03 0.0000E+00 0.9000E+01
       11  1    4    4    0    0 -.56008372E+02 -.43809160E+02 0.67688688E+02 0.98173004E+02 0.51099893E-03 0.0000E+00 0.9000E+01
       23  1    3    3    0    0 -.60371058E+02 -.67179123E+02 0.26875390E+03 0.29782815E+03 0.91188000E+02 0.0000E+00 0.9000E+01
#aMCatNLO 1  0  0  2  2 0.21740657D+03 0.00000000D+00  -5  7  0 0.00000000D+00 0.00000000D+00 0.00000000D+00 0.00000000D+00 0.00000000D+00
  <mgrwgt>
 0.6176392053D-03    3    2    0
 0.204558022022220D+03 0.000000000000000D+00 0.000000000000000D+00 0.204558022022220D+03
 0.204558022022220D+03 0.000000000000000D+00 0.000000000000000D+00 -.204558022022220D+03
 0.169642933923937D+03 0.899374783278024D+02 0.107671345451334D+03 -.279572002721449D+02
 0.301524297611202D+02 0.264419516903614D+02 0.331693780747834D+01 0.141063863156091D+02
 0.752929775680808D+02 -.560083720165528D+02 -.438091606379526D+02 -.247558514157969D+02
 0.134027702791302D+03 -.603710580016111D+02 -.671791226208593D+02 0.386066653723327D+02
 0.000000000000000D+00 0.000000000000000D+00 -.000000000000000D+00 0.000000000000000D+00
 0.841737803465990D+03 0.000000000000000D+00 0.000000000000000D+00 0.841737803465990D+03
 0.251015396806262D+03 0.000000000000000D+00 0.000000000000000D+00 -.251015396806262D+03
 0.222942126759683D+03 0.475148306833604D+02 0.195828180704937D+03 -.279572002721449D+02
 0.296407357611619D+02 0.199807165427974D+02 0.167437763964466D+02 0.141063863156091D+02
 0.771919506359185D+02 -.724858568424449D+02 -.956794761031071D+01 -.247558514157969D+02
 0.133519429412233D+03 -.892821370375461D+02 -.710014657635592D+01 0.386066653723327D+02
 0.629458957703255D+03 0.942724466538332D+02 -.195903862914717D+03 0.590722406659728D+03
0.181138926138D-05 0.000000000000D+00 0.000000000000D+00 0.230854879327D-07 0.000000000000D+00  7 2 -2 23 -11 11 23 21 0 0.10328535D+00 0.95888739D-02 0.38696082D+05 0.38696082D+05 0.38696082D+05 0.11572162D+01  1  2  2  2  7  2       -2 0.610531960374D-03 0.100000000000D+01
-.100445633293D-06 0.000000000000D+00 -.695621171343D-08 0.230854879327D-07 0.000000000000D+00  7 2 -2 23 -11 11 23 21 2 0.10328535D+00 0.95888739D-02 0.38696082D+05 0.38696082D+05 0.38696082D+05 0.11572162D+01  1  2  3  2  7  2       -2 -.453374048931D-04 0.100000000000D+01
0.116191830436D-06 0.000000000000D+00 0.000000000000D+00 0.230854879327D-07 0.000000000000D+00  7 2 -2 23 -11 11 23 21 2 0.10328535D+00 0.95888739D-02 0.38696082D+05 0.38696082D+05 0.38696082D+05 0.11572162D+01  1  2 15  2  7  2       -2 0.524446497975D-04 0.100000000000D+01
  </mgrwgt>
  </event>
  <event>
  8     66 0.55102590E-06 0.23152218E+03 0.75467711E-02 0.98222868E-01
        2 -1    0    0  501    0 0.00000000E+00 0.00000000E+00 0.22680628E+04 0.22680628E+04 0.32000000E+00 0.0000E+00 0.9000E+01
       -2 -1    0    0    0  501 0.00000000E+00 0.00000000E+00 -.33224239E+02 0.33225780E+02 0.32000000E+00 0.0000E+00 0.9000E+01
       25  2    1    2    0    0 0.94150546E+01 0.14928524E+03 0.18276828E+04 0.18582741E+04 0.30063869E+03 0.0000E+00 0.0000E+00
       23  2    1    2    0    0 -.94150546E+01 -.14928524E+03 0.40715579E+03 0.44301449E+03 0.90062637E+02 0.0000E+00 0.0000E+00
       23  1    3    3    0    0 0.13508516E+02 0.19119676E+03 0.15165077E+04 0.15312901E+04 0.91188000E+02 0.0000E+00 0.9000E+01
      -11  1    4    4    0    0 -.13608021E+02 -.11270374E+03 0.38176925E+03 0.39829019E+03 0.51099893E-03 0.0000E+00 0.9000E+01
       11  1    4    4    0    0 0.41929666E+01 -.36581504E+02 0.25386536E+02 0.44724307E+02 0.51099893E-03 0.0000E+00 0.9000E+01
       23  1    3    3    0    0 -.40934617E+01 -.41911517E+02 0.31117513E+03 0.32698402E+03 0.91188000E+02 0.0000E+00 0.9000E+01
#aMCatNLO 1  0  0  1  2 0.22109736D+03 0.00000000D+00  -5  7  0 0.00000000D+00 0.00000000D+00 0.00000000D+00 0.00000000D+00 0.00000000D+00
  <mgrwgt>
 0.2718133182D-03    3    2    0
 0.274511309696074D+03 0.000000000000000D+00 0.000000000000000D+00 0.274511309696074D+03
 0.274511309696074D+03 0.000000000000000D+00 0.000000000000000D+00 -.274511309696074D+03
 0.245510265194961D+03 0.135085162900056D+02 0.191196756084762D+03 0.123374873545656D+03
 0.115456115733827D+03 -.136080211258665D+02 -.112703735762322D+03 -.210429172549229D+02
 0.841290057184890D+02 0.419296656412201D+01 -.365815037073199D+02 -.756432562829302D+02
 0.103927232744872D+03 -.409346172826112D+01 -.419115166151202D+02 -.266887000078025D+02
 0.000000000000000D+00 -.000000000000000D+00 -.000000000000000D+00 -.000000000000000D+00
 0.384536701163052D+03 0.000000000000000D+00 0.000000000000000D+00 0.384536701163052D+03
 0.433866765402765D+03 0.000000000000000D+00 0.000000000000000D+00 -.433866765402765D+03
 0.294515250703872D+03 0.112634594619113D+03 0.224757803481317D+03 0.123374873545656D+03
 0.104720894103254D+03 0.268072608947479D+02 -.990203618378979D+02 -.210429172549229D+02
 0.875697330505307D+02 0.357096673998196D+02 -.259109162256069D+02 -.756432562829302D+02
 0.105063936378619D+03 0.342685681957246D+02 -.289233108249909D+02 -.266887000078025D+02
 0.226533652329541D+03 -.209420091109405D+03 -.709032145928210D+02 -.493300642397137D+02
0.248639068040D-05 0.000000000000D+00 0.000000000000D+00 0.773727175008D-07 0.000000000000D+00  7 2 -2 23 -11 11 23 21 0 0.34893286D+00 0.51115416D-02 0.53602520D+05 0.53602520D+05 0.53602520D+05 0.11446471D+01  1  2  2  1  7  1        2 0.268314016899D-03 0.100000000000D+01
-.133260972831D-06 0.000000000000D+00 -.954839489442D-08 0.773727175008D-07 0.000000000000D+00  7 2 -2 23 -11 11 23 21 2 0.34893286D+00 0.51115416D-02 0.53602520D+05 0.53602520D+05 0.53602520D+05 0.11446471D+01  1  2  3  1  7  1        2 -.188417054936D-04 0.100000000000D+01
0.158010340237D-06 0.000000000000D+00 0.000000000000D+00 0.773727175008D-07 0.000000000000D+00  7 2 -2 23 -11 11 23 21 2 0.34893286D+00 0.51115416D-02 0.53602520D+05 0.53602520D+05 0.53602520D+05 0.11446471D+01  1  2 15  1  7  1        2 0.223410067661D-04 0.100000000000D+01
  </mgrwgt>
  </event>
  <event>
  8     66 0.55102590E-06 0.90761928E+02 0.75467711E-02 0.95358846E-01
        2 -1    0    0  501    0 0.00000000E+00 0.00000000E+00 0.12267819E+04 0.12267820E+04 0.32000000E+00 0.0000E+00 0.9000E+01
       -2 -1    0    0    0  501 0.00000000E+00 0.00000000E+00 -.10116212E+03 0.10116263E+03 0.32000000E+00 0.0000E+00 0.9000E+01
       25  2    1    2    0    0 -.14854015E+03 -.21072229E+03 0.86092370E+03 0.94756283E+03 0.30036251E+03 0.0000E+00 0.0000E+00
       23  2    1    2    0    0 0.14854015E+03 0.21072229E+03 0.26469610E+03 0.38038176E+03 0.90322767E+02 0.0000E+00 0.0000E+00
       23  1    3    3    0    0 -.17388694E+03 -.15160854E+03 0.75106250E+03 0.79096899E+03 0.91188000E+02 0.0000E+00 0.9000E+01
      -11  1    4    4    0    0 0.84802965E+02 0.14328160E+03 0.10859083E+03 0.19877910E+03 0.51099893E-03 0.0000E+00 0.9000E+01
       11  1    4    4    0    0 0.63737181E+02 0.67440689E+02 0.15610526E+03 0.18160267E+03 0.51099893E-03 0.0000E+00 0.9000E+01
       23  1    3    3    0    0 0.25346795E+02 -.59113746E+02 0.10986121E+03 0.15659384E+03 0.91188000E+02 0.0000E+00 0.9000E+01
#aMCatNLO 1  0  0  2  1 0.26679282D+03 0.00000000D+00  -5  7  0 0.00000000D+00 0.00000000D+00 0.00000000D+00 0.00000000D+00 0.00000000D+00
  <mgrwgt>
 0.1485995236D-03    7    2    0
 0.352284297261725D+03 0.000000000000000D+00 0.000000000000000D+00 0.352284297261725D+03
 0.352284297261725D+03 0.000000000000000D+00 0.000000000000000D+00 -.352284297261725D+03
 0.290890307976233D+03 -.173886941183928D+03 -.151608542805543D+03 0.151921365727751D+03
 0.201166548629829D+03 0.848029647813317D+02 0.143281599953376D+03 -.112901818261418D+03
 0.928839326250082D+02 0.637371811159715D+02 0.674406889927258D+02 0.409269489008774D+01
 0.119627805292378D+03 0.253467952866249D+02 -.591137461405588D+02 -.431122423564200D+02
 0.000000000000000D+00 0.000000000000000D+00 -.000000000000000D+00 -.000000000000000D+00
 0.435080211894990D+03 0.000000000000000D+00 0.000000000000000D+00 0.435080211894990D+03
 0.681471822587249D+03 0.000000000000000D+00 0.000000000000000D+00 -.681471822587249D+03
 0.267454774833662D+03 -.193644847970046D+03 -.513651314356125D+02 0.151921365727751D+03
 0.262127053222858D+03 0.684086020801439D+02 0.226459785891458D+03 -.112901818261418D+03
 0.119707978742854D+03 0.562142865878236D+02 0.105608730731215D+03 0.409269489008774D+01
 0.104099409429944D+03 0.174298607776727D+02 -.189465092282307D+02 -.431122423564200D+02
 0.363162818252920D+03 0.515920985244057D+02 -.261756875958830D+03 -.246391610692258D+03
0.241136076260D-05 0.000000000000D+00 0.000000000000D+00 0.434631275077D-06 0.000000000000D+00  7 2 -2 23 -11 11 23 21 0 0.18873572D+00 0.15563446D-01 0.95773630D+05 0.95773630D+05 0.95773630D+05 0.11232643D+01  1  2  2  2  7  2       -2 0.170634901190D-03 0.100000000000D+01
-.131230092108D-06 0.000000000000D+00 -.926026025427D-08 0.434631275077D-06 0.000000000000D+00  7 2 -2 23 -11 11 23 21 2 0.18873572D+00 0.15563446D-01 0.95773630D+05 0.95773630D+05 0.95773630D+05 0.11232643D+01  1  2  3  2  7  2       -2 -.117166379784D-04 0.100000000000D+01
0.152263928496D-06 0.000000000000D+00 0.000000000000D+00 0.434631275077D-06 0.000000000000D+00  7 2 -2 23 -11 11 23 21 2 0.18873572D+00 0.15563446D-01 0.95773630D+05 0.95773630D+05 0.95773630D+05 0.11232643D+01  1  2 15  2  7  2       -2 0.135946054651D-04 0.100000000000D+01
0.469424527719D-07 0.000000000000D+00 0.000000000000D+00 0.434631275077D-06 0.000000000000D+00  7 2 -2 23 -11 11 23 21 2 0.18873572D+00 0.30461543D-01 0.21989906D+06 0.21989906D+06 0.21989906D+06 0.10946756D+01  1  2 12  2  7  2       -2 0.126500620366D-05 0.100000000000D+01
-.877813620030D-06 0.000000000000D+00 -.757593055316D-06 0.434631275077D-06 0.000000000000D+00  7 2 -2 23 -11 11 23 21 2 0.18873572D+00 0.36947830D-01 0.95773630D+05 0.95773630D+05 0.95773630D+05 0.11232643D+01  1  2  5  2  7  2       -2 -.180097831336D-04 0.100000000000D+01
0.341526275005D-08 0.000000000000D+00 0.000000000000D+00 0.434631275077D-06 0.000000000000D+00  7 2 21 23 -11 11 23 2 2 0.18873572D+00 0.30461543D-01 0.21989906D+06 0.21989906D+06 0.21989906D+06 0.10946756D+01  1  2 12  4  7  2       -2 0.106665508363D-05 0.100000000000D+01
-.351795288826D-07 0.000000000000D+00 -.715577608994D-07 0.434631275077D-06 0.000000000000D+00  7 2 21 23 -11 11 23 2 2 0.18873572D+00 0.36947830D-01 0.95773630D+05 0.95773630D+05 0.95773630D+05 0.11232643D+01  1  2  5  4  7  2       -2 -.823522319975D-05 0.100000000000D+01
  </mgrwgt>
  </event>
  <event>
  8     66 0.55102590E-06 0.33974449E+03 0.75467711E-02 0.86682933E-01
        2 -1    0    0  501    0 0.00000000E+00 0.00000000E+00 0.75662796E+03 0.75662803E+03 0.32000000E+00 0.0000E+00 0.9000E+01
       -2 -1    0    0    0  501 0.00000000E+00 0.00000000E+00 -.36630704E+03 0.36630718E+03 0.32000000E+00 0.0000E+00 0.9000E+01
       25  2    1    2    0    0 -.20171751E+03 -.19077945E+03 0.62629996E+03 0.74798826E+03 0.30024663E+03 0.0000E+00 0.0000E+00
       23  2    1    2    0    0 0.20171751E+03 0.19077945E+03 -.23597905E+03 0.37494695E+03 0.88387544E+02 0.0000E+00 0.0000E+00
       23  1    3    3    0    0 -.12310110E+03 0.24103968E+02 0.17485494E+03 0.23371860E+03 0.91188000E+02 0.0000E+00 0.9000E+01
      -11  1    4    4    0    0 0.96916674E+02 0.80839833E+02 -.16380047E+03 0.20678132E+03 0.51099893E-03 0.0000E+00 0.9000E+01
       11  1    4    4    0    0 0.10480083E+03 0.10993961E+03 -.72178575E+02 0.16816563E+03 0.51099893E-03 0.0000E+00 0.9000E+01
       23  1    3    3    0    0 -.78616409E+02 -.21488342E+03 0.45144503E+03 0.51426966E+03 0.91188000E+02 0.0000E+00 0.9000E+01
#aMCatNLO 1  0  0  2  1 0.98258381D+03 0.00000000D+00  -5  7  0 0.00000000D+00 0.00000000D+00 0.00000000D+00 0.00000000D+00 0.00000000D+00
  <mgrwgt>
 0.3056467407D-03    3    2    0
 0.526458230359423D+03 0.000000000000000D+00 0.000000000000000D+00 0.526458230359423D+03
 0.526458230359423D+03 0.000000000000000D+00 0.000000000000000D+00 -.526458230359423D+03
 0.184441319366474D+03 -.123101097209400D+03 0.241039682088252D+02 0.998422131569387D+02
 0.281253822397190D+03 0.969166743714202D+02 0.808398329952374D+02 -.251347950544889D+03
 0.206105541134839D+03 0.104800831887055D+03 0.109939614051950D+03 -.139318200477807D+03
 0.381115777820343D+03 -.786164090490752D+02 -.214883415256012D+03 0.290823937865757D+03
 0.000000000000000D+00 0.000000000000000D+00 -.000000000000000D+00 0.000000000000000D+00
 0.194461264376857D+04 0.000000000000000D+00 0.000000000000000D+00 0.194461264376857D+04
 0.917198795081578D+03 0.000000000000000D+00 0.000000000000000D+00 -.917198795081578D+03
 0.368704855054161D+03 -.331538427907393D+03 0.879876246362441D+02 0.998422131569387D+02
 0.320331776881004D+03 -.129773669516858D+03 0.150317829071454D+03 -.251347950544889D+03
 0.218467353853267D+03 -.551873322012739D+02 0.158974155383134D+03 -.139318200477807D+03
 0.532671012537875D+03 -.422950851222247D+03 -.109348849416700D+03 0.290823937865757D+03
 0.142163644052384D+04 0.939450280847771D+03 -.287930759674132D+03 0.102741384868699D+04
0.212408269341D-04 0.000000000000D+00 0.000000000000D+00 0.301175734808D-06 0.000000000000D+00  7 2 -2 23 -11 11 23 21 0 0.11640432D+00 0.56354946D-01 0.11542632D+06 0.11542632D+06 0.11542632D+06 0.11166448D+01  1  2  2  2  7  2       -2 0.298778059629D-03 0.100000000000D+01
-.904822579409D-06 0.000000000000D+00 -.815703682649D-07 0.301175734808D-06 0.000000000000D+00  7 2 -2 23 -11 11 23 21 2 0.11640432D+00 0.56354946D-01 0.11542632D+06 0.11542632D+06 0.11542632D+06 0.11166448D+01  1  2  3  2  7  2       -2 -.158697760685D-04 0.100000000000D+01
0.129644358754D-05 0.000000000000D+00 0.000000000000D+00 0.301175734808D-06 0.000000000000D+00  7 2 -2 23 -11 11 23 21 2 0.11640432D+00 0.56354946D-01 0.11542632D+06 0.11542632D+06 0.11542632D+06 0.11166448D+01  1  2 15  2  7  2       -2 0.227384571162D-04 0.100000000000D+01
  </mgrwgt>
  </event>
  <event>
  8     66 0.55102590E-06 0.21780008E+03 0.75467711E-02 0.99414158E-01
        2 -1    0    0  501    0 0.00000000E+00 0.00000000E+00 0.15818995E+04 0.15818995E+04 0.32000000E+00 0.0000E+00 0.9000E+01
       21 -1    0    0  502  501 0.00000000E+00 0.00000000E+00 -.16245679E+03 0.16245852E+03 0.75000000E+00 0.0000E+00 0.9000E+01
       25  2    1    2    0    0 0.55048208E+02 0.13388139E+03 0.21059735E+03 0.39451660E+03 0.30056209E+03 0.0000E+00 0.0000E+00
       23  1    3    3    0    0 0.33610352E+02 0.22181770E+02 0.22689684E+03 0.24782880E+03 0.91188000E+02 0.0000E+00 0.9000E+01
      -11  1    1    2    0    0 -.44353618E+02 -.48730484E+02 0.22557357E+03 0.23500072E+03 0.51099893E-03 0.0000E+00 0.9000E+01
       11  1    1    2    0    0 0.16829232E+03 -.32970726E+02 0.89000259E+03 0.90637409E+03 0.51099893E-03 0.0000E+00 0.9000E+01
       23  1    3    3    0    0 0.21437857E+02 0.11169962E+03 -.16299488E+02 0.14668780E+03 0.91188000E+02 0.0000E+00 0.9000E+01
        2  1    1    2  502    0 -.17898691E+03 -.52180177E+02 0.93269145E+02 0.20846660E+03 0.32000000E+00 0.0000E+00 0.9000E+01
#aMCatNLO 2  0  0  2  1 0.18643789D+03 0.00000000D+00  -5  7  0 0.00000000D+00 0.00000000D+00 0.00000000D+00 0.00000000D+00 0.00000000D+00
  <mgrwgt>
 0.1930593796D-03    2    2    0
 0.375987749934726D+03 0.000000000000000D+00 0.000000000000000D+00 0.375987749934726D+03
 0.375987749934726D+03 0.000000000000000D+00 0.000000000000000D+00 -.375987749934726D+03
 0.964928821687049D+02 0.102323566610175D+02 0.153663684706823D+02 0.255890320725211D+02
 0.961033631448135D+02 -.649700455204936D+02 -.547408061459061D+02 0.449243111834252D+02
 0.243881094094116D+03 0.107651230048064D+03 -.506494689200641D+02 0.212893945484124D+03
 0.315498160461818D+03 -.529135411885880D+02 0.900239065952879D+02 -.283407288740071D+03
 0.000000000000000D+00 -.000000000000000D+00 -.000000000000000D+00 -.000000000000000D+00
 0.428210220089600D+03 0.000000000000000D+00 0.000000000000000D+00 0.428210220089600D+03
 0.600153206963583D+03 0.000000000000000D+00 0.000000000000000D+00 -.600153206963583D+03
 0.102916162942667D+03 0.336103513108948D+02 0.221817711914854D+02 0.255890320725211D+02
 0.797502117205780D+02 -.443536089387487D+02 -.487304823317022D+02 0.449243111834252D+02
 0.273373745109639D+03 0.168292315094005D+03 -.329707320478779D+02 0.212893945484124D+03
 0.318702572280733D+03 0.214378571079282D+02 0.111699620437932D+03 -.283407288740071D+03
 0.253620734999565D+03 -.178986914574079D+03 -.521801772498369D+02 -.171942986873983D+03
-.151767332035D-07 0.000000000000D+00 0.000000000000D+00 0.186755596096D-09 0.000000000000D+00  7 2 21 23 -11 11 23 2 2 0.21368908D+00 0.25547892D-01 0.11198601D+06 0.11198601D+06 0.11198601D+06 0.11177098D+01  1  2 13  4  7  2       -2 -.584357395397D-05 0.100000000000D+01
0.630239664012D-06 0.000000000000D+00 0.000000000000D+00 0.186755596096D-09 0.268137346499D-14  7 2 21 23 -11 11 23 2 2 0.24336923D+00 0.24993483D-01 0.11198601D+06 0.11198601D+06 0.11198601D+06 0.11177098D+01  1  2  1  4  7  2       -2 0.198902953508D-03 0.100000000000D+01
  </mgrwgt>
  </event>
  <event>
  8     66 0.55102590E-06 0.18660444E+03 0.75467711E-02 0.10713226E+00
        2 -1    0    0  501    0 0.00000000E+00 0.00000000E+00 0.29227788E+04 0.29227788E+04 0.32000000E+00 0.0000E+00 0.9000E+01
       -2 -1    0    0    0  501 0.00000000E+00 0.00000000E+00 -.13851399E+02 0.13855095E+02 0.32000000E+00 0.0000E+00 0.9000E+01
       25  2    1    2    0    0 -.14647866E+02 -.24786214E+02 0.19832378E+04 0.20059568E+04 0.29966888E+03 0.0000E+00 0.0000E+00
       23  2    1    2    0    0 0.14647866E+02 0.24786214E+02 0.92568955E+03 0.93067710E+03 0.91813988E+02 0.0000E+00 0.0000E+00
       23  1    3    3    0    0 -.24683730E+02 0.91283042E+02 0.13145763E+04 0.13211237E+04 0.91188000E+02 0.0000E+00 0.9000E+01
      -11  1    4    4    0    0 0.22202875E+02 -.30705984E+02 0.27795299E+03 0.28052396E+03 0.51099893E-03 0.0000E+00 0.9000E+01
       11  1    4    4    0    0 -.75550086E+01 0.55492197E+02 0.64773656E+03 0.65015314E+03 0.51099893E-03 0.0000E+00 0.9000E+01
       23  1    3    3    0    0 0.10035864E+02 -.11606926E+03 0.66866156E+03 0.68483306E+03 0.91188000E+02 0.0000E+00 0.9000E+01
#aMCatNLO 1  0  0  2  1 0.51721656D+01 0.00000000D+00  -5  7  0 0.00000000D+00 0.00000000D+00 0.00000000D+00 0.00000000D+00 0.00000000D+00
  <mgrwgt>
 0.5361676377D-03    6    2    0
 0.201221339049574D+03 0.000000000000000D+00 0.000000000000000D+00 0.201221339049574D+03
 0.201221339049574D+03 0.000000000000000D+00 0.000000000000000D+00 -.201221339049574D+03
 0.138280078695902D+03 -.246837306122383D+02 0.912830409783555D+02 0.431769463134107D+02
 0.378963103350531D+02 0.222028749775309D+02 -.307059832497259D+02 0.552514624545010D+00
 0.622278659012269D+02 -.755500810387498D+01 0.554921981490242D+02 0.271264647855355D+02
 0.164038423166966D+03 0.100358637385824D+02 -.116069255877654D+03 -.708559257234912D+02
 0.000000000000000D+00 -.000000000000000D+00 -.000000000000000D+00 0.000000000000000D+00
 0.227715144867447D+03 0.000000000000000D+00 0.000000000000000D+00 0.227715144867447D+03
 0.201490544601853D+03 0.000000000000000D+00 0.000000000000000D+00 -.201490544601853D+03
 0.139243258037956D+03 -.239778250180221D+02 0.929206585183226D+02 0.431769463134107D+02
 0.376499981712829D+02 0.223950338151429D+02 -.302601974597965D+02 0.552514624545010D+00
 0.628494964706209D+02 -.723686257115260D+01 0.562302581798799D+02 0.271264647855355D+02
 0.162733160205323D+03 0.108670366822638D+02 -.114141032893630D+03 -.708559257234912D+02
 0.267297765841181D+02 -.204738290823197D+01 -.474968634477635D+01 0.262246002655940D+02
0.311507776135D-05 0.000000000000D+00 0.000000000000D+00 0.573276936909D-07 0.000000000000D+00  7 2 -2 23 -11 11 23 21 0 0.44965856D+00 0.21312701D-02 0.34821219D+05 0.34821219D+05 0.34821219D+05 0.11613781D+01  1  2  2  2  7  2       -2 0.515864276037D-03 0.100000000000D+01
-.171863172907D-06 0.000000000000D+00 -.119627188224D-07 0.573276936909D-07 0.000000000000D+00  7 2 -2 23 -11 11 23 21 2 0.44965856D+00 0.21312701D-02 0.34821219D+05 0.34821219D+05 0.34821219D+05 0.11613781D+01  1  2  3  2  7  2       -2 -.383880997392D-04 0.100000000000D+01
0.197567943998D-06 0.000000000000D+00 0.000000000000D+00 0.573276936909D-07 0.000000000000D+00  7 2 -2 23 -11 11 23 21 2 0.44965856D+00 0.21312701D-02 0.34821219D+05 0.34821219D+05 0.34821219D+05 0.11613781D+01  1  2 15  2  7  2       -2 0.441296283035D-04 0.100000000000D+01
-.102936857734D-06 0.000000000000D+00 0.000000000000D+00 0.573276936909D-07 0.000000000000D+00  7 2 -2 23 -11 11 23 21 2 0.44965856D+00 0.21312701D-02 0.34821219D+05 0.34821219D+05 0.34821219D+05 0.11613781D+01  1  2  4  2  7  2       -2 -.229924206256D-04 0.100000000000D+01
0.552087408909D-07 0.000000000000D+00 0.000000000000D+00 0.573276936909D-07 0.154910027239D-07  7 2 -2 23 -11 11 23 21 2 0.50886285D+00 0.21341214D-02 0.35794663D+05 0.35794663D+05 0.35794663D+05 0.11602860D+01  1  2 11  2  7  2       -2 0.703596728576D-05 0.100000000000D+01
0.130781122867D-07 0.000000000000D+00 0.000000000000D+00 0.573276936909D-07 0.410344282259D-11  7 2 21 23 -11 11 23 2 2 0.50886285D+00 0.21341214D-02 0.35794663D+05 0.35794663D+05 0.35794663D+05 0.11602860D+01  1  2 11  4  7  2       -2 0.305182864261D-04 0.100000000000D+01
  </mgrwgt>
  </event>
  <event>
  8     66 0.55102590E-06 0.19759707E+03 0.75467711E-02 0.99954307E-01
        2 -1    0    0  501    0 0.00000000E+00 0.00000000E+00 0.10970342E+04 0.10970342E+04 0.32000000E+00 0.0000E+00 0.9000E+01
       -2 -1    0    0    0  501 0.00000000E+00 0.00000000E+00 -.12419983E+03 0.12420024E+03 0.32000000E+00 0.0000E+00 0.9000E+01
       25  2    1    2    0    0 0.15078481E+03 0.22513218E+03 0.77297038E+03 0.87244001E+03 0.30041274E+03 0.0000E+00 0.0000E+00
       23  2    1    2    0    0 -.15078481E+03 -.22513218E+03 0.19986398E+03 0.34879447E+03 0.91057183E+02 0.0000E+00 0.0000E+00
       23  1    3    3    0    0 0.67739356E+01 0.12518046E+03 0.13838426E+03 0.20780156E+03 0.91188000E+02 0.0000E+00 0.9000E+01
      -11  1    4    4    0    0 -.45027382E+02 -.13513649E+03 0.13213830E+03 0.19429325E+03 0.51099893E-03 0.0000E+00 0.9000E+01
       11  1    4    4    0    0 -.10575743E+03 -.89995684E+02 0.67725684E+02 0.15450122E+03 0.51099893E-03 0.0000E+00 0.9000E+01
       23  1    3    3    0    0 0.14401088E+03 0.99951714E+02 0.63458612E+03 0.66463845E+03 0.91188000E+02 0.0000E+00 0.9000E+01
#aMCatNLO 1  0  0  1  2 0.71495167D+01 0.00000000D+00  -5  7  0 0.00000000D+00 0.00000000D+00 0.00000000D+00 0.00000000D+00 0.00000000D+00
  <mgrwgt>
 0.1778143189D-03   11    2    0
 0.369122931749862D+03 0.000000000000000D+00 0.000000000000000D+00 0.369122931749862D+03
 0.369122931749862D+03 0.000000000000000D+00 0.000000000000000D+00 -.369122931749862D+03
 0.161395375113776D+03 0.677393559685460D+01 0.125180461780553D+03 -.449130443084600D+02
 0.147280116731126D+03 -.450273823582212D+02 -.135136491878521D+03 -.374445748415889D+02
 0.166335289211507D+03 -.105757432197189D+03 -.899956836140431D+02 -.915618419592665D+02
 0.263235082443314D+03 0.144010878958556D+03 0.999517137120107D+02 0.173919461109315D+03
 0.000000000000000D+00 -.000000000000000D+00 0.000000000000000D+00 0.000000000000000D+00
 0.387902912099920D+03 0.000000000000000D+00 0.000000000000000D+00 0.387902912099920D+03
 0.369821322080068D+03 0.000000000000000D+00 0.000000000000000D+00 -.369821322080068D+03
 0.160736841938965D+03 0.802986789569056D+01 0.124255465413140D+03 -.449130443084600D+02
 0.147712010329603D+03 -.438772641127765D+02 -.135983556007788D+03 -.374445748415889D+02
 0.166035267443839D+03 -.104461582557856D+03 -.909500791735875D+02 -.915618419592665D+02
 0.263796362600035D+03 0.146065674409902D+03 0.984383532147652D+02 0.173919461109315D+03
 0.194437518675456D+02 -.575669563496069D+01 0.423981655347054D+01 0.180815900198523D+02
0.968478318813D-06 0.000000000000D+00 0.000000000000D+00 0.251993553045D-06 0.000000000000D+00  7 2 -2 23 -11 11 23 21 0 0.16877453D+00 0.19107701D-01 0.10046511D+06 0.10046511D+06 0.10046511D+06 0.11215567D+01  1  2  2  1  7  1        2 0.582780701170D-04 0.100000000000D+01
-.522860224524D-07 0.000000000000D+00 -.371921175044D-08 0.251993553045D-06 0.000000000000D+00  7 2 -2 23 -11 11 23 21 2 0.16877453D+00 0.19107701D-01 0.10046511D+06 0.10046511D+06 0.10046511D+06 0.11215567D+01  1  2  3  1  7  1        2 -.395770424135D-05 0.100000000000D+01
0.600930059145D-07 0.000000000000D+00 0.000000000000D+00 0.251993553045D-06 0.000000000000D+00  7 2 -2 23 -11 11 23 21 2 0.16877453D+00 0.19107701D-01 0.10046511D+06 0.10046511D+06 0.10046511D+06 0.11215567D+01  1  2 15  1  7  1        2 0.454864097953D-05 0.100000000000D+01
0.153243898962D-04 0.000000000000D+00 0.000000000000D+00 0.251993553045D-06 0.000000000000D+00  7 2 -2 23 -11 11 23 21 2 0.17751648D+00 0.19107701D-01 0.10279159D+06 0.10279159D+06 0.10279159D+06 0.11207421D+01  1  2 12  1  7  1        2 0.107318630943D-02 0.100000000000D+01
-.165335460730D-04 0.000000000000D+00 0.000000000000D+00 0.251993553045D-06 0.000000000000D+00  7 2 -2 23 -11 11 23 21 2 0.16877453D+00 0.19107701D-01 0.10046511D+06 0.10046511D+06 0.10046511D+06 0.11215567D+01  1  2  4  1  7  1        2 -.125147950348D-02 0.100000000000D+01
-.404121735236D-04 0.000000000000D+00 -.226458414570D-05 0.251993553045D-06 0.000000000000D+00  7 2 -2 23 -11 11 23 21 2 0.17750357D+00 0.19107701D-01 0.10046511D+06 0.10046511D+06 0.10046511D+06 0.11215567D+01  1  2  5  1  7  1        2 -.283547789651D-02 0.100000000000D+01
0.404777699596D-04 0.000000000000D+00 0.226170789997D-05 0.251993553045D-06 0.000000000000D+00  7 2 -2 23 -11 11 23 21 2 0.16877453D+00 0.19107701D-01 0.10046511D+06 0.10046511D+06 0.10046511D+06 0.11215567D+01  1  2  6  1  7  1        2 0.306389804264D-02 0.100000000000D+01
0.103832388156D-05 0.000000000000D+00 0.000000000000D+00 0.251993553045D-06 0.330426455989D-07  7 2 -2 23 -11 11 23 21 2 0.17736132D+00 0.19143854D-01 0.10279159D+06 0.10279159D+06 0.10279159D+06 0.11207421D+01  1  2 11  1  7  1        2 0.725864308492D-04 0.100000000000D+01
0.267183697372D-06 0.000000000000D+00 0.000000000000D+00 0.251993553045D-06 0.000000000000D+00  7 21 -2 23 -11 11 23 -2 2 0.17751648D+00 0.19107701D-01 0.10279159D+06 0.10279159D+06 0.10279159D+06 0.11207421D+01  1  2 12  3  7  1        2 0.108600900178D-04 0.100000000000D+01
-.367921260506D-06 0.000000000000D+00 -.198818778243D-07 0.251993553045D-06 0.000000000000D+00  7 21 -2 23 -11 11 23 -2 2 0.17750357D+00 0.19107701D-01 0.10046511D+06 0.10046511D+06 0.10046511D+06 0.11215567D+01  1  2  5  3  7  1        2 -.150019784642D-04 0.100000000000D+01
0.919979916025D-08 0.000000000000D+00 0.000000000000D+00 0.251993553045D-06 0.290606753335D-09  7 21 -2 23 -11 11 23 -2 2 0.17736132D+00 0.19143854D-01 0.10279159D+06 0.10279159D+06 0.10279159D+06 0.11207421D+01  1  2 11  3  7  1        2 0.373817520869D-06 0.100000000000D+01
  </mgrwgt>
  </event>
  <event>
  8     66 0.55102590E-06 0.16899467E+03 0.75467711E-02 0.10014680E+00
        2 -1    0    0  501    0 0.00000000E+00 0.00000000E+00 0.35224769E+04 0.35224769E+04 0.32000000E+00 0.0000E+00 0.9000E+01
       -2 -1    0    0    0  501 0.00000000E+00 0.00000000E+00 -.36277491E+02 0.36278902E+02 0.32000000E+00 0.0000E+00 0.9000E+01
       25  2    1    2    0    0 0.33563897E+02 -.18167290E+03 0.92787014E+03 0.99220633E+03 0.29899637E+03 0.0000E+00 0.0000E+00
       23  2    1    2    0    0 -.33563897E+02 0.18167290E+03 0.25583293E+04 0.25665495E+04 0.89420483E+02 0.0000E+00 0.0000E+00
       23  1    3    3    0    0 -.44180716E+02 -.18622831E+03 0.73615558E+03 0.76607650E+03 0.91188000E+02 0.0000E+00 0.9000E+01
      -13  1    4    4    0    0 -.47396938E+02 0.16447890E+03 0.24512843E+04 0.24572535E+04 0.10565837E+00 0.0000E+00 0.9000E+01
       13  1    4    4    0    0 0.13833041E+02 0.17193999E+02 0.10704495E+03 0.10929602E+03 0.10565837E+00 0.0000E+00 0.9000E+01
       23  1    3    3    0    0 0.77744613E+02 0.45554042E+01 0.19171456E+03 0.22612983E+03 0.91188000E+02 0.0000E+00 0.9000E+01
#aMCatNLO 1  0  0  2  1 0.10314447D+03 0.00000000D+00  -5  7  0 0.00000000D+00 0.00000000D+00 0.00000000D+00 0.00000000D+00 0.00000000D+00
  <mgrwgt>
 0.1882664630D-03    9    2    0
 0.357476096642783D+03 0.000000000000000D+00 0.000000000000000D+00 0.357476096642783D+03
 0.357476096642783D+03 0.000000000000000D+00 0.000000000000000D+00 -.357476096642783D+03
 0.223643008693933D+03 -.441807155435909D+02 -.186228306802846D+03 -.711900703263884D+02
 0.278479291166138D+03 -.473970230619810D+02 0.164479109651978D+03 0.219660784623358D+03
 0.220679579059972D+02 0.138331261547089D+02 0.171937931808738D+02 -.113415087662531D+00
 0.190761935519497D+03 0.777446124508630D+02 0.455540396999417D+01 -.148357299209307D+03
 0.000000000000000D+00 0.000000000000000D+00 0.000000000000000D+00 -.000000000000000D+00
 0.397851089522498D+03 0.000000000000000D+00 0.000000000000000D+00 0.397851089522498D+03
 0.433699584364849D+03 0.000000000000000D+00 0.000000000000000D+00 -.433699584364849D+03
 0.241149877653193D+03 -.755173372004162D+02 -.197654035671505D+03 -.711900703263884D+02
 0.279658093292614D+03 -.850269880702052D+02 0.150758748145573D+03 0.219660784623358D+03
 0.195717902710218D+02 0.110257487768757D+02 0.161701878572878D+02 -.113415087662531D+00
 0.181974320782647D+03 0.526145052899750D+02 -.460735116057083D+01 -.148357299209307D+03
 0.109196591887872D+03 0.969040712037707D+02 0.353324508292153D+02 -.358484948423515D+02
0.905985090859D-05 0.000000000000D+00 0.000000000000D+00 0.693254436886D-07 0.000000000000D+00  7 2 -2 23 -13 13 23 21 0 0.54191963D+00 0.55812621D-02 0.68950119D+05 0.68950119D+05 0.68950119D+05 0.11352180D+01  1  2  2  2  7  2       -2 0.145940251837D-03 0.100000000000D+01
-.445082803940D-06 0.000000000000D+00 -.347922130025D-07 0.693254436886D-07 0.000000000000D+00  7 2 -2 23 -13 13 23 21 2 0.54191963D+00 0.55812621D-02 0.68950119D+05 0.68950119D+05 0.68950119D+05 0.11352180D+01  1  2  3  2  7  2       -2 -.923960417797D-05 0.100000000000D+01
0.563488634439D-06 0.000000000000D+00 0.000000000000D+00 0.693254436886D-07 0.000000000000D+00  7 2 -2 23 -13 13 23 21 2 0.54191963D+00 0.55812621D-02 0.68950119D+05 0.68950119D+05 0.68950119D+05 0.11352180D+01  1  2 15  2  7  2       -2 0.116976254641D-04 0.100000000000D+01
0.496028872675D-05 0.000000000000D+00 0.000000000000D+00 0.693254436886D-07 0.000000000000D+00  7 2 -2 23 -13 13 23 21 2 0.54191963D+00 0.70329457D-02 0.99723514D+05 0.99723514D+05 0.99723514D+05 0.11218207D+01  1  2 12  2  7  2       -2 0.698765909639D-04 0.100000000000D+01
-.573012891382D-05 0.000000000000D+00 0.000000000000D+00 0.693254436886D-07 0.000000000000D+00  7 2 -2 23 -13 13 23 21 2 0.54191963D+00 0.55812621D-02 0.68950119D+05 0.68950119D+05 0.68950119D+05 0.11352180D+01  1  2  4  2  7  2       -2 -.118953423012D-03 0.100000000000D+01
-.758679980932D-05 0.000000000000D+00 -.398233757546D-05 0.693254436886D-07 0.000000000000D+00  7 2 -2 23 -13 13 23 21 2 0.54191963D+00 0.82297689D-02 0.68950119D+05 0.68950119D+05 0.68950119D+05 0.11352180D+01  1  2  5  2  7  2       -2 -.879631039597D-04 0.100000000000D+01
0.874785742087D-05 0.000000000000D+00 0.369982770189D-05 0.693254436886D-07 0.000000000000D+00  7 2 -2 23 -13 13 23 21 2 0.54191963D+00 0.55812621D-02 0.68950119D+05 0.68950119D+05 0.68950119D+05 0.11352180D+01  1  2  6  2  7  2       -2 0.181599332211D-03 0.100000000000D+01
0.158402971843D-06 0.000000000000D+00 0.000000000000D+00 0.693254436886D-07 0.000000000000D+00  7 2 21 23 -13 13 23 2 2 0.54191963D+00 0.70329457D-02 0.99723514D+05 0.99723514D+05 0.99723514D+05 0.11218207D+01  1  2 12  4  7  2       -2 0.345508699472D-04 0.100000000000D+01
-.222862093574D-06 0.000000000000D+00 -.185499304389D-06 0.693254436886D-07 0.000000000000D+00  7 2 21 23 -13 13 23 2 2 0.54191963D+00 0.82297689D-02 0.68950119D+05 0.68950119D+05 0.68950119D+05 0.11352180D+01  1  2  5  4  7  2       -2 -.392420762803D-04 0.100000000000D+01
  </mgrwgt>
  </event>
  <event>
  8     66 0.55102590E-06 0.30404000E+03 0.75467711E-02 0.98320271E-01
        4 -1    0    0  501    0 0.00000000E+00 0.00000000E+00 0.72462974E+03 0.72463140E+03 0.15500000E+01 0.0000E+00 0.9000E+01
       -4 -1    0    0    0  501 0.00000000E+00 0.00000000E+00 -.20164225E+03 0.20164821E+03 0.15500000E+01 0.0000E+00 0.9000E+01
       25  2    1    2    0    0 -.27741885E+03 0.12382782E+03 0.40717062E+03 0.58863667E+03 0.29733929E+03 0.0000E+00 0.0000E+00
       23  2    1    2    0    0 0.27741885E+03 -.12382782E+03 0.11581687E+03 0.33764295E+03 0.91075038E+02 0.0000E+00 0.0000E+00
       23  1    3    3    0    0 0.84445102E+01 0.49448163E+02 0.16865247E+03 0.19818006E+03 0.91188000E+02 0.0000E+00 0.9000E+01
      -11  1    4    4    0    0 0.16722510E+03 -.75929120E+02 0.11649552E+03 0.21748718E+03 0.51099893E-03 0.0000E+00 0.9000E+01
       11  1    4    4    0    0 0.11019375E+03 -.47898705E+02 -.67865044E+00 0.12015577E+03 0.51099893E-03 0.0000E+00 0.9000E+01
       23  1    3    3    0    0 -.28586336E+03 0.74379662E+02 0.23851816E+03 0.39045660E+03 0.91188000E+02 0.0000E+00 0.9000E+01
#aMCatNLO 1  0  0  2  1 0.14104341D+02 0.00000000D+00  -5  7  0 0.00000000D+00 0.00000000D+00 0.00000000D+00 0.00000000D+00 0.00000000D+00
  <mgrwgt>
 0.4385164196D-05    9    2    0
 0.382255806293685D+03 0.000000000000000D+00 0.000000000000000D+00 0.382255806293685D+03
 0.382255806293685D+03 0.000000000000000D+00 0.000000000000000D+00 -.382255806293685D+03
 0.124742408801955D+03 0.844451018733496D+01 0.494481628419493D+02 0.687676279143477D+02
 0.183814393786558D+03 0.167225102234544D+03 -.759291196474714D+02 -.763317334573349D+01
 0.146044566982164D+03 0.110193751982903D+03 -.478987048520329D+02 -.830184716941717D+02
 0.309910243016692D+03 -.285863364404782D+03 0.743796616575551D+02 0.218840171255575D+02
 0.000000000000000D+00 0.000000000000000D+00 0.000000000000000D+00 -.000000000000000D+00
 0.382965304174299D+03 0.000000000000000D+00 0.000000000000000D+00 0.382965304174299D+03
 0.459492097321142D+03 0.000000000000000D+00 0.000000000000000D+00 -.459492097321142D+03
 0.123922160867978D+03 0.715233465955652D+01 0.475532130369823D+02 0.687676279143477D+02
 0.183264902608954D+03 0.165317589297795D+03 -.787264495688003D+02 -.763317334573349D+01
 0.145654173179489D+03 0.108677951102943D+03 -.501215968044817D+02 -.830184716941717D+02
 0.311800469119501D+03 -.289094059347155D+03 0.696419115459404D+02 0.218840171255575D+02
 0.778156957195180D+02 0.794618428686079D+01 0.116529217903593D+02 -.765267931468426D+02
0.422851349357D-05 0.000000000000D+00 0.000000000000D+00 0.339420729095D-07 0.000000000000D+00  7 4 -4 23 -11 11 23 21 0 0.11148208D+00 0.31022471D-01 0.12853002D+06 0.12853002D+06 0.12853002D+06 0.11128852D+01  1  2  2  2  7  2       -4 0.547986772997D-05 0.100000000000D+01
-.233742695410D-06 0.000000000000D+00 -.162386052085D-07 0.339420729095D-07 0.000000000000D+00  7 4 -4 23 -11 11 23 21 2 0.11148208D+00 0.31022471D-01 0.12853002D+06 0.12853002D+06 0.12853002D+06 0.11128852D+01  1  2  3  2  7  2       -4 -.375163995582D-06 0.100000000000D+01
0.271028702660D-06 0.000000000000D+00 0.000000000000D+00 0.339420729095D-07 0.000000000000D+00  7 4 -4 23 -11 11 23 21 2 0.11148208D+00 0.31022471D-01 0.12853002D+06 0.12853002D+06 0.12853002D+06 0.11128852D+01  1  2 15  2  7  2       -4 0.435009148966D-06 0.100000000000D+01
0.165105608499D-03 0.000000000000D+00 0.000000000000D+00 0.339420729095D-07 0.000000000000D+00  7 4 -4 23 -11 11 23 21 2 0.11148208D+00 0.37315747D-01 0.13359449D+06 0.13359449D+06 0.13359449D+06 0.11115435D+01  1  2 12  2  7  2       -4 0.181306832317D-03 0.100000000000D+01
-.163116689328D-03 0.000000000000D+00 0.000000000000D+00 0.339420729095D-07 0.000000000000D+00  7 4 -4 23 -11 11 23 21 2 0.11148208D+00 0.31022471D-01 0.12853002D+06 0.12853002D+06 0.12853002D+06 0.11128852D+01  1  2  4  2  7  2       -4 -.261807149981D-03 0.100000000000D+01
-.172701188355D-03 0.000000000000D+00 -.326242729861D-05 0.339420729095D-07 0.000000000000D+00  7 4 -4 23 -11 11 23 21 2 0.11148208D+00 0.37323842D-01 0.12853002D+06 0.12853002D+06 0.12853002D+06 0.11128852D+01  1  2  5  2  7  2       -4 -.189910255095D-03 0.100000000000D+01
0.170437062435D-03 0.000000000000D+00 0.320743084064D-05 0.339420729095D-07 0.000000000000D+00  7 4 -4 23 -11 11 23 21 2 0.11148208D+00 0.31022471D-01 0.12853002D+06 0.12853002D+06 0.12853002D+06 0.11128852D+01  1  2  6  2  7  2       -4 0.273556567088D-03 0.100000000000D+01
0.444303958593D-05 0.000000000000D+00 0.000000000000D+00 0.339420729095D-07 0.000000000000D+00  7 4 21 23 -11 11 23 4 2 0.11148208D+00 0.37315747D-01 0.13359449D+06 0.13359449D+06 0.13359449D+06 0.11115435D+01  1  2 12  4  7  2       -4 0.100244326943D-03 0.100000000000D+01
-.461888535733D-05 0.000000000000D+00 -.878731221466D-07 0.339420729095D-07 0.000000000000D+00  7 4 21 23 -11 11 23 4 2 0.11148208D+00 0.37323842D-01 0.12853002D+06 0.12853002D+06 0.12853002D+06 0.11128852D+01  1  2  5  4  7  2       -4 -.104544869960D-03 0.100000000000D+01
  </mgrwgt>
  </event>
  <event>
  8     66 0.55102590E-06 0.33791765E+03 0.75467711E-02 0.92978895E-01
        2 -1    0    0  501    0 0.00000000E+00 0.00000000E+00 0.32383011E+03 0.32383027E+03 0.32000000E+00 0.0000E+00 0.9000E+01
       -2 -1    0    0    0  501 0.00000000E+00 0.00000000E+00 -.78301456E+03 0.78301463E+03 0.32000000E+00 0.0000E+00 0.9000E+01
       25  2    1    2    0    0 -.33850018E+02 -.45091028E+03 -.20448091E+03 0.57956965E+03 0.29937039E+03 0.0000E+00 0.0000E+00
       23  2    1    2    0    0 0.33850018E+02 0.45091028E+03 -.25470353E+03 0.52727525E+03 0.93163235E+02 0.0000E+00 0.0000E+00
       23  1    3    3    0    0 -.13107586E+02 -.13949390E+03 0.41037311E+02 0.17213271E+03 0.91188000E+02 0.0000E+00 0.9000E+01
      -13  1    4    4    0    0 0.64181492E+02 0.30061553E+03 -.15373362E+03 0.34369026E+03 0.10565837E+00 0.0000E+00 0.9000E+01
       13  1    4    4    0    0 -.30331474E+02 0.15029476E+03 -.10096991E+03 0.18358498E+03 0.10565837E+00 0.0000E+00 0.9000E+01
       23  1    3    3    0    0 -.20742433E+02 -.31141638E+03 -.24551822E+03 0.40743694E+03 0.91188000E+02 0.0000E+00 0.9000E+01
#aMCatNLO 1  0  0  2  1 0.19528710D+03 0.00000000D+00  -5  7  0 0.00000000D+00 0.00000000D+00 0.00000000D+00 0.00000000D+00 0.00000000D+00
  <mgrwgt>
 0.1065635441D-03    9    2    0
 0.503551207640264D+03 0.000000000000000D+00 0.000000000000000D+00 0.503551207640264D+03
 0.503551207640264D+03 0.000000000000000D+00 0.000000000000000D+00 -.503551207640264D+03
 0.207891377242049D+03 -.131075857214828D+02 -.139493903600432D+03 0.123584851185181D+03
 0.307634973411497D+03 0.641816136246687D+02 0.300615722296451D+03 -.122549927217017D+02
 0.155730033036566D+03 -.303315951663402D+02 0.150294562283399D+03 -.272650338763134D+02
 0.335846031590418D+03 -.207424327368456D+02 -.311416380979418D+03 -.840648245871660D+02
 0.000000000000000D+00 0.000000000000000D+00 -.000000000000000D+00 -.000000000000000D+00
 0.601011951029500D+03 0.000000000000000D+00 0.000000000000000D+00 0.601011951029500D+03
 0.621175039139959D+03 0.000000000000000D+00 0.000000000000000D+00 -.621175039139959D+03
 0.186152257307849D+03 -.223434392312959D+02 -.102786024525038D+03 0.123584851185181D+03
 0.366859108446374D+03 0.483723783342904D+02 0.363449492526464D+03 -.122549927217017D+02
 0.188328672460430D+03 -.383958690794969D+02 0.182346000877621D+03 -.272650338763134D+02
 0.284521709558297D+03 -.352830193041377D+02 -.253624852256022D+03 -.840648245871660D+02
 0.196325242396509D+03 0.476499492806402D+02 -.189384616623025D+03 -.201630881104594D+02
0.110037927542D-04 0.000000000000D+00 0.000000000000D+00 0.521303284097D-07 0.000000000000D+00  7 2 -2 23 -13 13 23 21 0 0.49820035D-01 0.12046380D+00 0.22707117D+06 0.22707117D+06 0.22707117D+06 0.10936160D+01  1  2  2  2  7  2       -2 0.712616288131D-04 0.100000000000D+01
-.609058988038D-06 0.000000000000D+00 -.422574615411D-07 0.521303284097D-07 0.000000000000D+00  7 2 -2 23 -13 13 23 21 2 0.49820035D-01 0.12046380D+00 0.22707117D+06 0.22707117D+06 0.22707117D+06 0.10936160D+01  1  2  3  2  7  2       -2 -.471739716453D-05 0.100000000000D+01
0.693041950009D-06 0.000000000000D+00 0.000000000000D+00 0.521303284097D-07 0.000000000000D+00  7 2 -2 23 -13 13 23 21 2 0.49820035D-01 0.12046380D+00 0.22707117D+06 0.22707117D+06 0.22707117D+06 0.10936160D+01  1  2 15  2  7  2       -2 0.536787765075D-05 0.100000000000D+01
0.460587353216D-05 0.000000000000D+00 0.000000000000D+00 0.521303284097D-07 0.000000000000D+00  7 2 -2 23 -13 13 23 21 2 0.49820035D-01 0.15789369D+00 0.33600304D+06 0.33600304D+06 0.33600304D+06 0.10809289D+01  1  2 12  2  7  2       -2 0.166635815298D-04 0.100000000000D+01
-.506844834808D-05 0.000000000000D+00 0.000000000000D+00 0.521303284097D-07 0.000000000000D+00  7 2 -2 23 -13 13 23 21 2 0.49820035D-01 0.12046380D+00 0.22707117D+06 0.22707117D+06 0.22707117D+06 0.10936160D+01  1  2  4  2  7  2       -2 -.392570905863D-04 0.100000000000D+01
-.112821396060D-04 0.000000000000D+00 -.471290177490D-05 0.521303284097D-07 0.000000000000D+00  7 2 -2 23 -13 13 23 21 2 0.49820035D-01 0.16897480D+00 0.22707117D+06 0.22707117D+06 0.22707117D+06 0.10936160D+01  1  2  5  2  7  2       -2 -.349145327146D-04 0.100000000000D+01
0.124167705139D-04 0.000000000000D+00 0.445535599544D-05 0.521303284097D-07 0.000000000000D+00  7 2 -2 23 -13 13 23 21 2 0.49820035D-01 0.12046380D+00 0.22707117D+06 0.22707117D+06 0.22707117D+06 0.10936160D+01  1  2  6  2  7  2       -2 0.961726846908D-04 0.100000000000D+01
0.165187754533D-06 0.000000000000D+00 0.000000000000D+00 0.521303284097D-07 0.000000000000D+00  7 2 21 23 -13 13 23 2 2 0.49820035D-01 0.15789369D+00 0.33600304D+06 0.33600304D+06 0.33600304D+06 0.10809289D+01  1  2 12  4  7  2       -2 0.500851880697D-05 0.100000000000D+01
-.348826812466D-06 0.000000000000D+00 -.198703643886D-06 0.521303284097D-07 0.000000000000D+00  7 2 21 23 -13 13 23 2 2 0.49820035D-01 0.16897480D+00 0.22707117D+06 0.22707117D+06 0.22707117D+06 0.10936160D+01  1  2  5  4  7  2       -2 -.902172689822D-05 0.100000000000D+01
  </mgrwgt>
  </event>
  <event>
  8     66 0.55102590E-06 0.10199942E+03 0.75467711E-02 0.99527023E-01
        2 -1    0    0  501    0 0.00000000E+00 0.00000000E+00 0.20121824E+04 0.20121825E+04 0.32000000E+00 0.0000E+00 0.9000E+01
       -2 -1    0    0    0  501 0.00000000E+00 0.00000000E+00 -.42243799E+02 0.42245011E+02 0.32000000E+00 0.0000E+00 0.9000E+01
       25  2    1    2    0    0 -.19270646E+03 0.90401558E+01 0.14333253E+04 0.14769537E+04 0.29958867E+03 0.0000E+00 0.0000E+00
       23  2    1    2    0    0 0.19270646E+03 -.90401558E+01 0.53661333E+03 0.57747375E+03 0.91129349E+02 0.0000E+00 0.0000E+00
       23  1    3    3    0    0 -.20687729E+03 -.67444081E+02 0.91120100E+03 0.94124887E+03 0.91188000E+02 0.0000E+00 0.9000E+01
      -11  1    4    4    0    0 0.14027298E+03 0.21846170E+02 0.28236239E+03 0.31604159E+03 0.51099893E-03 0.0000E+00 0.9000E+01
       11  1    4    4    0    0 0.52433480E+02 -.30886325E+02 0.25425094E+03 0.26143216E+03 0.51099893E-03 0.0000E+00 0.9000E+01
       23  1    3    3    0    0 0.14170834E+02 0.76484237E+02 0.52212430E+03 0.53570485E+03 0.91188000E+02 0.0000E+00 0.9000E+01
#aMCatNLO 1  0  0  2  1 0.98725698D+02 0.00000000D+00  -5  7  0 0.00000000D+00 0.00000000D+00 0.00000000D+00 0.00000000D+00 0.00000000D+00
  <mgrwgt>
 0.2116753128D-03    9    2    0
 0.291553600766789D+03 0.000000000000000D+00 0.000000000000000D+00 0.291553600766789D+03
 0.291553600766789D+03 0.000000000000000D+00 0.000000000000000D+00 -.291553600766789D+03
 0.237893612832519D+03 -.206877294546987D+03 -.674440809859375D+02 0.305155800107101D+02
 0.159572600451701D+03 0.140272979941725D+03 0.218461696245247D+02 -.728673506168783D+02
 0.621406597862379D+02 0.524334804014553D+02 -.308863253996911D+02 0.125788169143034D+02
 0.123500328463119D+03 0.141708342038065D+02 0.764842367611039D+02 0.297729536918648D+02
 0.000000000000000D+00 0.000000000000000D+00 -.000000000000000D+00 -.000000000000000D+00
 0.323066737881234D+03 0.000000000000000D+00 0.000000000000000D+00 0.323066737881234D+03
 0.384750660920270D+03 0.000000000000000D+00 0.000000000000000D+00 -.384750660920270D+03
 0.267521020590853D+03 -.244890362756174D+03 -.484742686353400D+02 0.305155800107101D+02
 0.142244687361896D+03 0.117572803908715D+03 0.331743285961194D+02 -.728673506168783D+02
 0.527466593199989D+02 0.437926156366678D+02 -.265742403495479D+02 0.125788169143034D+02
 0.128893391883891D+03 -.481211380095468D+01 0.859573726713602D+02 0.297729536918648D+02
 0.116411639644866D+03 0.883370570117460D+02 -.440831922825917D+02 -.616839230390359D+02
0.164951025149D-05 0.000000000000D+00 0.000000000000D+00 0.264162926500D-06 0.000000000000D+00  7 2 -2 23 -11 11 23 21 0 0.30956662D+00 0.64991413D-02 0.78009697D+05 0.78009697D+05 0.78009697D+05 0.11306814D+01  1  2  2  2  7  2       -2 0.170181283023D-03 0.100000000000D+01
-.914341159139D-07 0.000000000000D+00 -.633455369176D-08 0.264162926500D-06 0.000000000000D+00  7 2 -2 23 -11 11 23 21 2 0.30956662D+00 0.64991413D-02 0.78009697D+05 0.78009697D+05 0.78009697D+05 0.11306814D+01  1  2  3  2  7  2       -2 -.120599515664D-04 0.100000000000D+01
0.105423528499D-06 0.000000000000D+00 0.000000000000D+00 0.264162926500D-06 0.000000000000D+00  7 2 -2 23 -11 11 23 21 2 0.30956662D+00 0.64991413D-02 0.78009697D+05 0.78009697D+05 0.78009697D+05 0.11306814D+01  1  2 15  2  7  2       -2 0.139051232130D-04 0.100000000000D+01
0.122951447128D-05 0.000000000000D+00 0.000000000000D+00 0.264162926500D-06 0.000000000000D+00  7 2 -2 23 -11 11 23 21 2 0.30956662D+00 0.88412456D-02 0.10999056D+06 0.10999056D+06 0.10999056D+06 0.11183441D+01  1  2 12  2  7  2       -2 0.989826298326D-04 0.100000000000D+01
-.138425250322D-05 0.000000000000D+00 0.000000000000D+00 0.264162926500D-06 0.000000000000D+00  7 2 -2 23 -11 11 23 21 2 0.30956662D+00 0.64991413D-02 0.78009697D+05 0.78009697D+05 0.78009697D+05 0.11306814D+01  1  2  4  2  7  2       -2 -.182579751307D-03 0.100000000000D+01
-.204470795807D-05 0.000000000000D+00 -.715739155760D-06 0.264162926500D-06 0.000000000000D+00  7 2 -2 23 -11 11 23 21 2 0.30956662D+00 0.96506959D-02 0.78009697D+05 0.78009697D+05 0.78009697D+05 0.11306814D+01  1  2  5  2  7  2       -2 -.148187883756D-03 0.100000000000D+01
0.220556325072D-05 0.000000000000D+00 0.663226165968D-06 0.264162926500D-06 0.000000000000D+00  7 2 -2 23 -11 11 23 21 2 0.30956662D+00 0.64991413D-02 0.78009697D+05 0.78009697D+05 0.78009697D+05 0.11306814D+01  1  2  6  2  7  2       -2 0.290908767635D-03 0.100000000000D+01
0.484113708910D-07 0.000000000000D+00 0.000000000000D+00 0.264162926500D-06 0.000000000000D+00  7 2 21 23 -11 11 23 2 2 0.30956662D+00 0.88412456D-02 0.10999056D+06 0.10999056D+06 0.10999056D+06 0.11183441D+01  1  2 12  4  7  2       -2 0.579393516084D-04 0.100000000000D+01
-.724538191754D-07 0.000000000000D+00 -.337788459342D-07 0.264162926500D-06 0.000000000000D+00  7 2 21 23 -11 11 23 2 2 0.30956662D+00 0.96506959D-02 0.78009697D+05 0.78009697D+05 0.78009697D+05 0.11306814D+01  1  2  5  4  7  2       -2 -.774142558720D-04 0.100000000000D+01
  </mgrwgt>
  </event>
  <event>
  8     66 0.55102590E-06 0.26080066E+03 0.75467711E-02 0.92605563E-01
        2 -1    0    0  501    0 0.00000000E+00 0.00000000E+00 0.28787718E+04 0.28787718E+04 0.32000000E+00 0.0000E+00 0.9000E+01
       -2 -1    0    0    0  501 0.00000000E+00 0.00000000E+00 -.45235600E+02 0.45236732E+02 0.32000000E+00 0.0000E+00 0.9000E+01
       25  2    1    2    0    0 0.34168416E+02 -.16480526E+03 0.66963829E+03 0.75175410E+03 0.29730547E+03 0.0000E+00 0.0000E+00
       23  2    1    2    0    0 -.34168416E+02 0.16480526E+03 0.21638979E+04 0.21722544E+04 0.88921087E+02 0.0000E+00 0.0000E+00
       23  1    3    3    0    0 0.11765569E+03 -.14747714E+03 0.34140597E+03 0.40058164E+03 0.91188000E+02 0.0000E+00 0.9000E+01
      -11  1    4    4    0    0 -.59089741E+02 0.14043846E+03 0.18933537E+04 0.18994744E+04 0.51099893E-03 0.0000E+00 0.9000E+01
       11  1    4    4    0    0 0.24921325E+02 0.24366796E+02 0.27054420E+03 0.27278009E+03 0.51099893E-03 0.0000E+00 0.9000E+01
       23  1    3    3    0    0 -.83487273E+02 -.17328119E+02 0.32823232E+03 0.35117246E+03 0.91188000E+02 0.0000E+00 0.9000E+01
#aMCatNLO 1  0  0  2  2 0.49242783D+03 0.00000000D+00  -5  7  0 0.00000000D+00 0.00000000D+00 0.00000000D+00 0.00000000D+00 0.00000000D+00
  <mgrwgt>
 0.3695323648D-03    5    2    0
 0.360866528250448D+03 0.000000000000000D+00 0.000000000000000D+00 0.360866528250448D+03
 0.360866528250448D+03 0.000000000000000D+00 0.000000000000000D+00 -.360866528250448D+03
 0.282539340800862D+03 0.117655689059062D+03 -.147477136366073D+03 -.189527994864838D+03
 0.262137060683574D+03 -.590897414262804D+02 0.140438459133830D+03 0.213310290980334D+03
 0.429723008103252D+02 0.249213250173869D+02 0.243667959859660D+02 0.251357404842019D+02
 0.134084354206135D+03 -.834872726501691D+02 -.173281187537230D+02 -.489180365996982D+02
 0.000000000000000D+00 0.000000000000000D+00 0.000000000000000D+00 -.000000000000000D+00
 0.603880941440691D+03 0.000000000000000D+00 0.000000000000000D+00 0.603880941440691D+03
 0.799813635810051D+03 0.000000000000000D+00 0.000000000000000D+00 -.799813635810051D+03
 0.277710579802674D+03 -.533186218554567D+02 -.173332566231179D+03 -.189527994864838D+03
 0.342874459703271D+03 -.243724176861903D+03 0.112517289745546D+03 0.213310290980334D+03
 0.327234177991812D+02 0.182087849791623D+01 0.208734526196902D+02 0.251357404842019D+02
 0.220409903540359D+03 -.191670083949934D+03 -.336879629619537D+02 -.489180365996982D+02
 0.529976216405257D+03 0.486892004169378D+03 0.736297868278962D+02 -.195932694369360D+03
0.984589293670D-05 0.000000000000D+00 0.000000000000D+00 0.674223373106D-08 0.000000000000D+00  7 2 -2 23 -11 11 23 21 0 0.44288806D+00 0.69594116D-02 0.68016985D+05 0.68016985D+05 0.68016985D+05 0.11357221D+01  1  2  2  2  7  2       -2 0.298370753354D-03 0.100000000000D+01
-.476853814833D-06 0.000000000000D+00 -.378108213601D-07 0.674223373106D-08 0.000000000000D+00  7 2 -2 23 -11 11 23 21 2 0.44288806D+00 0.69594116D-02 0.68016985D+05 0.68016985D+05 0.68016985D+05 0.11357221D+01  1  2  3  2  7  2       -2 -.186393421396D-04 0.100000000000D+01
0.614927911445D-06 0.000000000000D+00 0.000000000000D+00 0.674223373106D-08 0.000000000000D+00  7 2 -2 23 -11 11 23 21 2 0.44288806D+00 0.69594116D-02 0.68016985D+05 0.68016985D+05 0.68016985D+05 0.11357221D+01  1  2 15  2  7  2       -2 0.240364056575D-04 0.100000000000D+01
0.106561506966D-04 0.000000000000D+00 -.489360951874D-05 0.674223373106D-08 0.000000000000D+00  7 2 -2 23 -11 11 23 21 2 0.44288806D+00 0.43069517D-01 0.68016985D+05 0.68016985D+05 0.68016985D+05 0.11357221D+01  1  2  5  2  7  2       -2 0.209378156234D-04 0.100000000000D+01
0.203782017319D-05 0.000000000000D+00 -.109315561179D-05 0.674223373106D-08 0.000000000000D+00  7 2 21 23 -11 11 23 2 2 0.44288806D+00 0.43069517D-01 0.68016985D+05 0.68016985D+05 0.68016985D+05 0.11357221D+01  1  2  5  4  7  2       -2 0.448267323305D-04 0.100000000000D+01
  </mgrwgt>
  </event>
  <event>
  8     66 0.55102590E-06 0.57014643E+03 0.75467711E-02 0.83202147E-01
        2 -1    0    0  501    0 0.00000000E+00 0.00000000E+00 0.89449850E+03 0.89449856E+03 0.32000000E+00 0.0000E+00 0.9000E+01
       -2 -1    0    0    0  501 0.00000000E+00 0.00000000E+00 -.55877713E+03 0.55877722E+03 0.32000000E+00 0.0000E+00 0.9000E+01
       25  2    1    2    0    0 0.40824776E+03 0.36106559E+03 -.22925795E+03 0.66288133E+03 0.29969628E+03 0.0000E+00 0.0000E+00
       23  2    1    2    0    0 -.40824776E+03 -.36106559E+03 0.56497932E+03 0.79039445E+03 0.92125784E+02 0.0000E+00 0.0000E+00
       23  1    3    3    0    0 0.26223500E+03 0.14287299E+03 -.16156799E+02 0.31265985E+03 0.91188000E+02 0.0000E+00 0.9000E+01
      -11  1    4    4    0    0 -.42262567E+02 -.73077525E+02 0.60744343E+02 0.10400156E+03 0.51099893E-03 0.0000E+00 0.9000E+01
       11  1    4    4    0    0 -.36598519E+03 -.28798807E+03 0.50423498E+03 0.68639289E+03 0.51099893E-03 0.0000E+00 0.9000E+01
       23  1    3    3    0    0 0.14601276E+03 0.21819260E+03 -.21310115E+03 0.35022149E+03 0.91188000E+02 0.0000E+00 0.9000E+01
#aMCatNLO 1  0  0  2  2 0.14329477D+04 0.00000000D+00  -5  7  0 0.00000000D+00 0.00000000D+00 0.00000000D+00 0.00000000D+00 0.00000000D+00
  <mgrwgt>
 0.2418192259D-03    5    2    0
 0.706983322049561D+03 0.000000000000000D+00 0.000000000000000D+00 0.706983322049561D+03
 0.706983322049561D+03 0.000000000000000D+00 0.000000000000000D+00 -.706983322049561D+03
 0.325188127960277D+03 0.262234998079790D+03 0.142872990944007D+03 -.908415183884323D+02
 0.924701972233119D+02 -.422625668915100D+02 -.730775251658914D+02 0.377397420485003D+02
 0.585753358946992D+03 -.365985191690866D+03 -.287988067300467D+03 0.355281170445641D+03
 0.410554959968542D+03 0.146012760502587D+03 0.218192601522352D+03 -.302179394105709D+03
 0.000000000000000D+00 0.000000000000000D+00 0.000000000000000D+00 -.000000000000000D+00
 0.139936244219279D+04 0.000000000000000D+00 0.000000000000000D+00 0.139936244219279D+04
 0.231340625669140D+04 0.000000000000000D+00 0.000000000000000D+00 -.231340625669140D+04
 0.185319283469703D+03 0.130886862102277D+03 -.253856917894249D+02 -.908415183884323D+02
 0.216385705535919D+03 -.121727910987971D+03 -.174873671880288D+03 0.377397420485003D+02
 0.129224504267368D+04 -.849174238311508D+03 -.906959565377384D+03 0.355281170445641D+03
 0.319167159233848D+03 -.417369919844852D+02 -.223172907719006D+02 -.302179394105709D+03
 0.169965150797105D+04 0.881752279181687D+03 0.112953621981900D+04 -.914043814498606D+03
0.538947979507D-04 0.000000000000D+00 0.000000000000D+00 0.226361739287D-05 0.000000000000D+00  7 2 -2 23 -11 11 23 21 0 0.13761517D+00 0.85965724D-01 0.32506695D+06 0.32506695D+06 0.32506695D+06 0.10819828D+01  1  2  2  2  7  2       -2 0.237520924001D-03 0.100000000000D+01
-.282569707626D-05 0.000000000000D+00 -.206970214957D-06 0.226361739287D-05 0.000000000000D+00  7 2 -2 23 -11 11 23 21 2 0.13761517D+00 0.85965724D-01 0.32506695D+06 0.32506695D+06 0.32506695D+06 0.10819828D+01  1  2  3  2  7  2       -2 -.145787846683D-04 0.100000000000D+01
0.336684166250D-05 0.000000000000D+00 0.000000000000D+00 0.226361739287D-05 0.000000000000D+00  7 2 -2 23 -11 11 23 21 2 0.13761517D+00 0.85965724D-01 0.32506695D+06 0.32506695D+06 0.32506695D+06 0.10819828D+01  1  2 15  2  7  2       -2 0.173707436732D-04 0.100000000000D+01
0.252358510521D-04 0.000000000000D+00 -.201388551736D-04 0.226361739287D-05 0.000000000000D+00  7 2 -2 23 -11 11 23 21 2 0.13761517D+00 0.39859057D+00 0.32506695D+06 0.32506695D+06 0.32506695D+06 0.10819828D+01  1  2  5  2  7  2       -2 0.659230769747D-06 0.100000000000D+01
0.440639503355D-05 0.000000000000D+00 -.374512565273D-05 0.226361739287D-05 0.000000000000D+00  7 2 21 23 -11 11 23 2 2 0.13761517D+00 0.39859057D+00 0.32506695D+06 0.32506695D+06 0.32506695D+06 0.10819828D+01  1  2  5  4  7  2       -2 0.847112163748D-06 0.100000000000D+01
  </mgrwgt>
  </event>
  <event>
  8     66 0.55102590E-06 0.25600956E+03 0.75467711E-02 0.98267291E-01
        2 -1    0    0  501    0 0.00000000E+00 0.00000000E+00 0.17210920E+03 0.17210950E+03 0.32000000E+00 0.0000E+00 0.9000E+01
       -2 -1    0    0    0  501 0.00000000E+00 0.00000000E+00 -.62877856E+03 0.62877864E+03 0.32000000E+00 0.0000E+00 0.9000E+01
       25  2    1    2    0    0 -.77828620E+02 0.17936002E+03 -.81024959E+02 0.36692973E+03 0.29974168E+03 0.0000E+00 0.0000E+00
       23  2    1    2    0    0 0.77828620E+02 -.17936002E+03 -.37564440E+03 0.43395841E+03 0.94783343E+02 0.0000E+00 0.0000E+00
       23  1    3    3    0    0 -.47527005E+02 -.93932802E+01 -.11260742E+03 0.15278329E+03 0.91188000E+02 0.0000E+00 0.9000E+01
      -11  1    4    4    0    0 0.24574867E+02 -.32545800E+02 -.17504640E+03 0.17973424E+03 0.51099893E-03 0.0000E+00 0.9000E+01
       11  1    4    4    0    0 0.53253753E+02 -.14681422E+03 -.20059800E+03 0.25422418E+03 0.51099893E-03 0.0000E+00 0.9000E+01
       23  1    3    3    0    0 -.30301616E+02 0.18875330E+03 0.31582466E+02 0.21414644E+03 0.91188000E+02 0.0000E+00 0.9000E+01
#aMCatNLO 1  0  0  1  2 0.19996620D+03 0.00000000D+00  -5  7  0 0.00000000D+00 0.00000000D+00 0.00000000D+00 0.00000000D+00 0.00000000D+00
  <mgrwgt>
 0.2394498661D-03    3    2    0
 0.328966152185523D+03 0.000000000000000D+00 0.000000000000000D+00 0.328966152185523D+03
 0.328966152185523D+03 0.000000000000000D+00 0.000000000000000D+00 -.328966152185523D+03
 0.107819548985943D+03 -.475270046833819D+02 -.939328018477075D+01 -.310282760192771D+02
 0.972876562293169D+02 0.245748670221776D+02 -.325458003725256D+02 -.883274297347531D+02
 0.170227499818242D+03 0.532537534356972D+02 -.146814215502561D+03 -.677275834925991D+02
 0.282597599337544D+03 -.303016157744930D+02 0.188753296059857D+03 0.187083289246629D+03
 0.000000000000000D+00 0.000000000000000D+00 -.000000000000000D+00 -.000000000000000D+00
 0.385390792986745D+03 0.000000000000000D+00 0.000000000000000D+00 0.385390792986745D+03
 0.584323347268644D+03 0.000000000000000D+00 0.000000000000000D+00 -.584323347268644D+03
 0.118182126554765D+03 -.658599080004341D+02 0.187478611700738D+02 -.310282760192771D+02
 0.893167884612994D+02 0.943780560499767D+01 -.931029982626966D+01 -.883274297347531D+02
 0.131693794552628D+03 0.287623690872506D+02 -.109219760494205D+03 -.677275834925991D+02
 0.348456471994179D+03 -.814917374843330D+02 0.267330509177454D+03 0.187083289246629D+03
 0.282064958692518D+03 0.109151470792519D+03 -.167548310027053D+03 -.198932554281898D+03
0.102302264129D-04 0.000000000000D+00 0.000000000000D+00 0.565122458355D-07 0.000000000000D+00  7 2 -2 23 -11 11 23 21 0 0.26478368D-01 0.96735192D-01 0.65540894D+05 0.65540894D+05 0.65540894D+05 0.11370977D+01  1  2  2  1  7  1        2 0.235807765938D-03 0.100000000000D+01
-.524900714093D-06 0.000000000000D+00 -.392867631059D-07 0.565122458355D-07 0.000000000000D+00  7 2 -2 23 -11 11 23 21 2 0.26478368D-01 0.96735192D-01 0.65540894D+05 0.65540894D+05 0.65540894D+05 0.11370977D+01  1  2  3  1  7  1        2 -.156439207210D-04 0.100000000000D+01
0.647104158736D-06 0.000000000000D+00 0.000000000000D+00 0.565122458355D-07 0.000000000000D+00  7 2 -2 23 -11 11 23 21 2 0.26478368D-01 0.96735192D-01 0.65540894D+05 0.65540894D+05 0.65540894D+05 0.11370977D+01  1  2 15  1  7  1        2 0.192860209288D-04 0.100000000000D+01
  </mgrwgt>
  </event>
  <event>
  8     66 0.55102590E-06 0.26834650E+03 0.75467711E-02 0.85579647E-01
        2 -1    0    0  501    0 0.00000000E+00 0.00000000E+00 0.13231263E+04 0.13231264E+04 0.32000000E+00 0.0000E+00 0.9000E+01
       -2 -1    0    0    0  501 0.00000000E+00 0.00000000E+00 -.65145234E+03 0.65145242E+03 0.32000000E+00 0.0000E+00 0.9000E+01
       25  2    1    2    0    0 0.20443161E+03 -.89699503E+02 -.58547443E+03 0.69461047E+03 0.29977510E+03 0.0000E+00 0.0000E+00
       23  2    1    2    0    0 -.20443161E+03 0.89699503E+02 0.12571484E+04 0.12799683E+04 0.89768917E+02 0.0000E+00 0.0000E+00
       23  1    3    3    0    0 0.42340731E+02 0.26990017E+01 -.35369903E+02 0.10661287E+03 0.91188000E+02 0.0000E+00 0.9000E+01
      -11  1    4    4    0    0 -.10278866E+03 0.18727335E+02 0.78051626E+03 0.78747816E+03 0.51099893E-03 0.0000E+00 0.9000E+01
       11  1    4    4    0    0 -.10164295E+03 0.70972167E+02 0.47663215E+03 0.49249015E+03 0.51099893E-03 0.0000E+00 0.9000E+01
       23  1    3    3    0    0 0.16209088E+03 -.92398504E+02 -.55010453E+03 0.58799760E+03 0.91188000E+02 0.0000E+00 0.9000E+01
#aMCatNLO 1  0  0  1  2 0.11472513D+04 0.00000000D+00  -5  7  0 0.00000000D+00 0.00000000D+00 0.00000000D+00 0.00000000D+00 0.00000000D+00
  <mgrwgt>
 0.4071927887D-03    3    2    0
 0.928414700766152D+03 0.000000000000000D+00 0.000000000000000D+00 0.928414700766152D+03
 0.928414700766152D+03 0.000000000000000D+00 0.000000000000000D+00 -.928414700766152D+03
 0.126168052378957D+03 0.423407312875878D+02 0.269900173408926D+01 -.761781068337284D+02
 0.555078027435683D+03 -.102788661013877D+03 0.187273353316511D+02 0.545156302926270D+03
 0.351308087249703D+03 -.101642950095757D+03 0.709721672384201D+02 0.328708129410208D+03
 0.824275234467960D+03 0.162090879822047D+03 -.923985043041605D+02 -.797686325502750D+03
 0.000000000000000D+00 -.000000000000000D+00 -.000000000000000D+00 -.000000000000000D+00
 0.151193730115704D+04 0.000000000000000D+00 0.000000000000000D+00 0.151193730115704D+04
 0.187364144937307D+04 0.000000000000000D+00 0.000000000000000D+00 -.187364144937307D+04
 0.163604816424115D+03 0.860180507341256D+02 0.724505044861576D+02 -.761781068337284D+02
 0.628582632699668D+03 0.756239177157275D+02 0.303647418201986D+03 0.545156302926270D+03
 0.416790142769491D+03 0.141321115842513D+02 0.255861822458187D+03 0.328708129410208D+03
 0.973681578165176D+03 0.433096010084345D+03 0.340389389477946D+03 -.797686325502750D+03
 0.120291958047166D+04 -.608870090118449D+03 -.972349134624277D+03 -.361704148216037D+03
0.193885698935D-03 0.000000000000D+00 0.000000000000D+00 0.250527728818D-05 0.000000000000D+00  7 2 -2 23 -11 11 23 21 0 0.20355790D+00 0.10022345D+00 0.72009844D+05 0.72009844D+05 0.72009844D+05 0.11336160D+01  1  2  2  1  7  1        2 0.356513873992D-03 0.100000000000D+01
0.940470493269D-05 0.000000000000D+00 -.744572135189D-06 0.250527728818D-05 0.000000000000D+00  7 2 -2 23 -11 11 23 21 2 0.20355790D+00 0.10022345D+00 0.72009844D+05 0.72009844D+05 0.72009844D+05 0.11336160D+01  1  2  3  1  7  1        2 0.222232600843D-04 0.100000000000D+01
0.120422041632D-04 0.000000000000D+00 0.000000000000D+00 0.250527728818D-05 0.000000000000D+00  7 2 -2 23 -11 11 23 21 2 0.20355790D+00 0.10022345D+00 0.72009844D+05 0.72009844D+05 0.72009844D+05 0.11336160D+01  1  2 15  1  7  1        2 0.284556545924D-04 0.100000000000D+01
  </mgrwgt>
  </event>
  <event>
  8     66 0.55102590E-06 0.99203953E+02 0.75467711E-02 0.10336398E+00
        2 -1    0    0  501    0 0.00000000E+00 0.00000000E+00 0.10626406E+03 0.10626455E+03 0.32000000E+00 0.0000E+00 0.9000E+01
       -2 -1    0    0    0  501 0.00000000E+00 0.00000000E+00 -.10259057E+04 0.10259058E+04 0.32000000E+00 0.0000E+00 0.9000E+01
       25  2    1    2    0    0 0.12642316E+03 0.74448477E+02 -.19336298E+03 0.38552714E+03 0.29952720E+03 0.0000E+00 0.0000E+00
       23  2    1    2    0    0 -.12642316E+03 -.74448477E+02 -.72627867E+03 0.74664317E+03 0.92032204E+02 0.0000E+00 0.0000E+00
       23  1    3    3    0    0 -.64170889E+01 0.58896217E+02 -.19542018E+03 0.22363864E+03 0.91188000E+02 0.0000E+00 0.9000E+01
      -13  1    4    4    0    0 -.12826180E+03 -.90096613E+02 -.67693613E+03 0.69484605E+03 0.10565837E+00 0.0000E+00 0.9000E+01
       13  1    4    4    0    0 0.18386476E+01 0.15648136E+02 -.49342535E+02 0.51797121E+02 0.10565837E+00 0.0000E+00 0.9000E+01
       23  1    3    3    0    0 0.13284025E+03 0.15552259E+02 0.20571966E+01 0.16188850E+03 0.91188000E+02 0.0000E+00 0.9000E+01
#aMCatNLO 1  0  0  1  2 0.47271917D+02 0.00000000D+00  -5  7  0 0.00000000D+00 0.00000000D+00 0.00000000D+00 0.00000000D+00 0.00000000D+00
  <mgrwgt>
 0.1912639748D-03    9    2    0
 0.330177544989842D+03 0.000000000000000D+00 0.000000000000000D+00 0.330177544989842D+03
 0.330177544989842D+03 0.000000000000000D+00 0.000000000000000D+00 -.330177544989842D+03
 0.111274211057515D+03 -.641708873199491D+01 0.588962170884429D+02 -.235956624689618D+02
 0.248571721256858D+03 -.128261976246063D+03 -.900967522372555D+02 -.192923148674155D+03
 0.200884543138984D+02 0.183881896072693D+01 0.156482755289398D+02 -.124617901812556D+02
 0.280420703351411D+03 0.132840246017331D+03 0.155522596198727D+02 0.228980601324372D+03
 0.000000000000000D+00 -.000000000000000D+00 0.000000000000000D+00 0.000000000000000D+00
 0.372558241737361D+03 0.000000000000000D+00 0.000000000000000D+00 0.372558241737361D+03
 0.344472516145511D+03 0.000000000000000D+00 0.000000000000000D+00 -.344472516145511D+03
 0.110014298141854D+03 0.121872056655485D+01 0.568300438542515D+02 -.235956624689618D+02
 0.242029457982486D+03 -.111333229878396D+03 -.946775008214209D+02 -.192923148674155D+03
 0.199743334485072D+02 0.322123058448816D+01 0.152742088407902D+02 -.124617901812556D+02
 0.290026832623662D+03 0.152524180873655D+03 0.102259847283000D+02 0.228980601324372D+03
 0.549858356863616D+02 -.456309021463013D+02 0.123472633980792D+02 0.280857255918499D+02
0.130296546797D-04 0.000000000000D+00 0.000000000000D+00 0.414011961167D-06 0.000000000000D+00  7 2 -2 23 -13 13 23 21 0 0.16348358D-01 0.15783169D+00 0.49088545D+05 0.49088545D+05 0.49088545D+05 0.11479988D+01  1  2  2  1  7  1        2 0.152320353580D-03 0.100000000000D+01
-.583795830310D-06 0.000000000000D+00 -.500373047571D-07 0.414011961167D-06 0.000000000000D+00  7 2 -2 23 -13 13 23 21 2 0.16348358D-01 0.15783169D+00 0.49088545D+05 0.49088545D+05 0.49088545D+05 0.11479988D+01  1  2  3  1  7  1        2 -.899433204347D-05 0.100000000000D+01
0.782529139542D-06 0.000000000000D+00 0.000000000000D+00 0.414011961167D-06 0.000000000000D+00  7 2 -2 23 -13 13 23 21 2 0.16348358D-01 0.15783169D+00 0.49088545D+05 0.49088545D+05 0.49088545D+05 0.11479988D+01  1  2 15  1  7  1        2 0.120561445446D-04 0.100000000000D+01
0.253670296446D-04 0.000000000000D+00 0.000000000000D+00 0.414011961167D-06 0.000000000000D+00  7 2 -2 23 -13 13 23 21 2 0.18768054D-01 0.15783169D+00 0.61128009D+05 0.61128009D+05 0.61128009D+05 0.11396973D+01  1  2 12  1  7  1        2 0.325344211366D-03 0.100000000000D+01
-.255525697883D-04 0.000000000000D+00 0.000000000000D+00 0.414011961167D-06 0.000000000000D+00  7 2 -2 23 -13 13 23 21 2 0.16348358D-01 0.15783169D+00 0.49088545D+05 0.49088545D+05 0.49088545D+05 0.11479988D+01  1  2  4  1  7  1        2 -.393679237342D-03 0.100000000000D+01
-.487999059244D-04 0.000000000000D+00 -.120076564994D-04 0.414011961167D-06 0.000000000000D+00  7 2 -2 23 -13 13 23 21 2 0.19219907D-01 0.15783169D+00 0.49088545D+05 0.49088545D+05 0.49088545D+05 0.11479988D+01  1  2  5  1  7  1        2 -.620042098978D-03 0.100000000000D+01
0.502392843632D-04 0.000000000000D+00 0.118521410378D-04 0.414011961167D-06 0.000000000000D+00  7 2 -2 23 -13 13 23 21 2 0.16348358D-01 0.15783169D+00 0.49088545D+05 0.49088545D+05 0.49088545D+05 0.11479988D+01  1  2  6  1  7  1        2 0.774018555337D-03 0.100000000000D+01
0.540697544112D-06 0.000000000000D+00 0.000000000000D+00 0.414011961167D-06 0.000000000000D+00  7 21 -2 23 -13 13 23 -2 2 0.18768054D-01 0.15783169D+00 0.61128009D+05 0.61128009D+05 0.61128009D+05 0.11396973D+01  1  2 12  3  7  1        2 0.511089746996D-04 0.100000000000D+01
-.108771824610D-05 0.000000000000D+00 -.291126753398D-06 0.414011961167D-06 0.000000000000D+00  7 21 -2 23 -13 13 23 -2 2 0.19219907D-01 0.15783169D+00 0.49088545D+05 0.49088545D+05 0.49088545D+05 0.11479988D+01  1  2  5  3  7  1        2 -.100868596345D-03 0.100000000000D+01
  </mgrwgt>
  </event>
  <event>
  8     66 0.55102590E-06 0.22549387E+03 0.75467711E-02 0.92398272E-01
        2 -1    0    0  501    0 0.00000000E+00 0.00000000E+00 0.14759770E+04 0.14759770E+04 0.32000000E+00 0.0000E+00 0.9000E+01
       -2 -1    0    0    0  501 0.00000000E+00 0.00000000E+00 -.10424836E+03 0.10424885E+03 0.32000000E+00 0.0000E+00 0.9000E+01
       25  2    1    2    0    0 -.13095665E+03 0.13865718E+02 0.17292392E+03 0.37051260E+03 0.30005833E+03 0.0000E+00 0.0000E+00
       23  2    1    2    0    0 0.13095665E+03 -.13865718E+02 0.11988047E+04 0.12097133E+04 0.94506904E+02 0.0000E+00 0.0000E+00
       23  1    3    3    0    0 0.34049369E+02 0.70173055E+02 0.11301865E+03 0.16483957E+03 0.91188000E+02 0.0000E+00 0.9000E+01
      -13  1    4    4    0    0 0.73804187E+02 0.52026673E+01 0.97927220E+03 0.98206323E+03 0.10565837E+00 0.0000E+00 0.9000E+01
       13  1    4    4    0    0 0.57152465E+02 -.19068385E+02 0.21953249E+03 0.22765003E+03 0.10565837E+00 0.0000E+00 0.9000E+01
       23  1    3    3    0    0 -.16500602E+03 -.56307337E+02 0.59905266E+02 0.20567303E+03 0.91188000E+02 0.0000E+00 0.9000E+01
#aMCatNLO 1  0  0  1  2 0.52616608D+03 0.00000000D+00  -5  7  0 0.00000000D+00 0.00000000D+00 0.00000000D+00 0.00000000D+00 0.00000000D+00
  <mgrwgt>
 0.2733868538D-03    3    2    0
 0.392260871026284D+03 0.000000000000000D+00 0.000000000000000D+00 0.392260871026284D+03
 0.392260871026284D+03 0.000000000000000D+00 0.000000000000000D+00 -.392260871026284D+03
 0.134416713426702D+03 0.340493684459945D+02 0.701730549325047D+02 -.605721418995950D+02
 0.265876877662529D+03 0.738042097375851D+02 0.520269696000914D+01 0.255374988291587D+03
 0.746942541455772D+02 0.571524426173658D+02 -.190684148226193D+02 0.441500335377597D+02
 0.309533896817759D+03 -.165006020800945D+03 -.563073370698945D+02 -.238952879929752D+03
 0.000000000000000D+00 0.000000000000000D+00 -.000000000000000D+00 -.000000000000000D+00
 0.673403910198083D+03 0.000000000000000D+00 0.000000000000000D+00 0.673403910198083D+03
 0.816503949345607D+03 0.000000000000000D+00 0.000000000000000D+00 -.816503949345607D+03
 0.208777842471378D+03 0.334355979739147D+02 0.174602441497322D+03 -.605721418995950D+02
 0.323336321247636D+03 0.727504585721438D+02 0.184492175364076D+03 0.255374988291587D+03
 0.769241717822625D+02 0.568812876376074D+02 0.270669883749467D+02 0.441500335377597D+02
 0.335591278487510D+03 -.166159765161375D+03 0.139995387308568D+03 -.238952879929752D+03
 0.545278245554904D+03 0.309242097770934D+01 -.526156992544913D+03 -.143100039147524D+03
0.530043850842D-05 0.000000000000D+00 0.000000000000D+00 0.152051391024D-06 0.000000000000D+00  7 2 -2 23 -13 13 23 21 0 0.22707342D+00 0.16038249D-01 0.50847487D+05 0.50847487D+05 0.50847487D+05 0.11466539D+01  1  2  2  1  7  1        2 0.263709474862D-03 0.100000000000D+01
-.184728420482D-06 0.000000000000D+00 -.203550795099D-07 0.152051391024D-06 0.000000000000D+00  7 2 -2 23 -13 13 23 21 2 0.22707342D+00 0.16038249D-01 0.50847487D+05 0.50847487D+05 0.50847487D+05 0.11466539D+01  1  2  3  1  7  1        2 -.120840452074D-04 0.100000000000D+01
0.332666209634D-06 0.000000000000D+00 0.000000000000D+00 0.152051391024D-06 0.000000000000D+00  7 2 -2 23 -13 13 23 21 2 0.22707342D+00 0.16038249D-01 0.50847487D+05 0.50847487D+05 0.50847487D+05 0.11466539D+01  1  2 15  1  7  1        2 0.217614241799D-04 0.100000000000D+01
  </mgrwgt>
  </event>
  <event>
  8     66 0.55102590E-06 0.23788080E+03 0.75467711E-02 0.90976452E-01
        2 -1    0    0  501    0 0.00000000E+00 0.00000000E+00 0.94356871E+03 0.94356876E+03 0.32000000E+00 0.0000E+00 0.9000E+01
       -2 -1    0    0    0  501 0.00000000E+00 0.00000000E+00 -.47390271E+03 0.47390282E+03 0.32000000E+00 0.0000E+00 0.9000E+01
       25  2    1    2    0    0 -.30397004E+03 0.54030002E+03 0.11696945E+03 0.69841482E+03 0.29963231E+03 0.0000E+00 0.0000E+00
       23  2    1    2    0    0 0.30397004E+03 -.54030002E+03 0.35269655E+03 0.71905676E+03 0.91246203E+02 0.0000E+00 0.0000E+00
       23  1    3    3    0    0 -.86923294E+02 0.36515828E+02 0.39382397E+02 0.13694995E+03 0.91188000E+02 0.0000E+00 0.9000E+01
      -11  1    4    4    0    0 0.27189597E+03 -.44854671E+03 0.32848336E+03 0.61888843E+03 0.51099893E-03 0.0000E+00 0.9000E+01
       11  1    4    4    0    0 0.32074072E+02 -.91753304E+02 0.24213186E+02 0.10016832E+03 0.51099893E-03 0.0000E+00 0.9000E+01
       23  1    3    3    0    0 -.21704674E+03 0.50378419E+03 0.77587049E+02 0.56146487E+03 0.91188000E+02 0.0000E+00 0.9000E+01
#aMCatNLO 1  0  0  1  2 0.86296015D+02 0.00000000D+00  -5  7  0 0.00000000D+00 0.00000000D+00 0.00000000D+00 0.00000000D+00 0.00000000D+00
  <mgrwgt>
 0.2607662070D-03    6    2    0
 0.668700144136653D+03 0.000000000000000D+00 0.000000000000000D+00 0.668700144136653D+03
 0.668700144136653D+03 0.000000000000000D+00 0.000000000000000D+00 -.668700144136653D+03
 0.131319016967932D+03 -.869232935338394D+02 0.365158278439003D+02 -.635359988735236D+01
 0.540585569965128D+03 0.271895965296541D+03 -.448546714551373D+03 0.130809737310162D+03
 0.976623414381237D+02 0.320740717229720D+02 -.917533043765320D+02 -.951409450624636D+01
 0.567833359902123D+03 -.217046743485673D+03 0.503784191084005D+03 -.114942042916564D+03
 0.000000000000000D+00 -.000000000000000D+00 -.000000000000000D+00 -.000000000000000D+00
 0.712736909871501D+03 0.000000000000000D+00 0.000000000000000D+00 0.712736909871501D+03
 0.713746541167483D+03 0.000000000000000D+00 0.000000000000000D+00 -.713746541167483D+03
 0.132986700755580D+03 -.855122933012565D+02 0.449164858007103D+02 -.635359988735236D+01
 0.516073079029340D+03 0.277536954119384D+03 -.414962015878326D+03 0.130809737310162D+03
 0.923696364166151D+02 0.330885604266622D+02 -.857133531391405D+02 -.951409450624636D+01
 0.598752113777452D+03 -.210818908579689D+03 0.540862789406336D+03 -.114942042916564D+03
 0.863019210599981D+02 -.142943126651007D+02 -.851039061895790D+02 -.100963129598134D+01
0.379019516528D-04 0.000000000000D+00 0.000000000000D+00 0.208792803206D-05 0.000000000000D+00  7 2 -2 23 -11 11 23 21 0 0.14516443D+00 0.72908122D-01 0.42834514D+06 0.42834514D+06 0.42834514D+06 0.10732907D+01  1  2  2  1  7  1        2 0.222516907929D-03 0.100000000000D+01
-.210448125672D-05 0.000000000000D+00 -.145553474160D-06 0.208792803206D-05 0.000000000000D+00  7 2 -2 23 -11 11 23 21 2 0.14516443D+00 0.72908122D-01 0.42834514D+06 0.42834514D+06 0.42834514D+06 0.10732907D+01  1  2  3  1  7  1        2 -.142325008749D-04 0.100000000000D+01
0.238093604507D-05 0.000000000000D+00 0.000000000000D+00 0.208792803206D-05 0.000000000000D+00  7 2 -2 23 -11 11 23 21 2 0.14516443D+00 0.72908122D-01 0.42834514D+06 0.42834514D+06 0.42834514D+06 0.10732907D+01  1  2 15  1  7  1        2 0.161021507017D-04 0.100000000000D+01
0.539239873744D-04 0.000000000000D+00 0.000000000000D+00 0.208792803206D-05 0.000000000000D+00  7 2 -2 23 -11 11 23 21 2 0.15929837D+00 0.72908122D-01 0.48849246D+06 0.48849246D+06 0.48849246D+06 0.10692258D+01  1  2 12  1  7  1        2 0.315238638403D-03 0.100000000000D+01
-.416914722307D-04 0.000000000000D+00 0.000000000000D+00 0.208792803206D-05 0.000000000000D+00  7 2 -2 23 -11 11 23 21 2 0.14516443D+00 0.72908122D-01 0.42834514D+06 0.42834514D+06 0.42834514D+06 0.10732907D+01  1  2  4  1  7  1        2 -.281957329439D-03 0.100000000000D+01
0.821693782761D-06 0.000000000000D+00 0.000000000000D+00 0.208792803206D-05 0.000000000000D+00  7 21 -2 23 -11 11 23 -2 2 0.15929837D+00 0.72908122D-01 0.48849246D+06 0.48849246D+06 0.48849246D+06 0.10692258D+01  1  2 12  3  7  1        2 0.309834031165D-05 0.100000000000D+01
  </mgrwgt>
  </event>
  <event>
  9     66 0.55102590E-06 0.18274588E+03 0.75467711E-02 0.10619680E+00
        2 -1    0    0  501    0 0.00000000E+00 0.00000000E+00 0.15826713E+03 0.15826746E+03 0.32000000E+00 0.0000E+00 0.9000E+01
       21 -1    0    0  502  501 0.00000000E+00 0.00000000E+00 -.58476566E+03 0.58476615E+03 0.75000000E+00 0.0000E+00 0.9000E+01
       25  2    1    2    0    0 -.81011246E+02 0.11234593E+03 -.42279459E+03 0.53699192E+03 0.30070024E+03 0.0000E+00 0.0000E+00
       23  2    1    2    0    0 0.45118726E+02 -.11642258E+03 -.19243302E+01 0.16987316E+03 0.11516629E+03 0.0000E+00 0.0000E+00
       23  1    3    3    0    0 -.48332749E+02 0.14995141E+02 -.37863361E+03 0.39273346E+03 0.91188000E+02 0.0000E+00 0.9000E+01
      -13  1    4    4    0    0 0.42416758E+02 -.91724337E+02 0.49673059E+02 0.11260533E+03 0.10565837E+00 0.0000E+00 0.9000E+01
       13  1    4    4    0    0 0.27019680E+01 -.24698238E+02 -.51597389E+02 0.57267839E+02 0.10565837E+00 0.0000E+00 0.9000E+01
       23  1    3    3    0    0 -.32678497E+02 0.97350788E+02 -.44160971E+02 0.14425846E+03 0.91188000E+02 0.0000E+00 0.9000E+01
        2  1    1    2  502    0 0.35892520E+02 0.40766467E+01 -.17796159E+01 0.36168515E+02 0.32000000E+00 0.0000E+00 0.9000E+01
#aMCatNLO 2  0  0  2  2 0.36123289D+02 0.00000000D+00  -5  7  0 0.00000000D+00 0.00000000D+00 0.00000000D+00 0.00000000D+00 0.00000000D+00
  <mgrwgt>
 0.4078504259D-04    1    2    0
 0.281942903046541D+03 0.000000000000000D+00 0.000000000000000D+00 0.281942903046541D+03
 0.281942903046541D+03 0.000000000000000D+00 0.000000000000000D+00 -.281942903046541D+03
 0.204160389509305D+03 -.352699990681210D+02 0.164789421404049D+02 -.178467601912109D+03
 0.180608342459083D+03 0.538248149893952D+02 -.904289340251555D+02 0.146781710537277D+03
 0.329186125030085D+02 0.479326227235752D+01 -.244606388521067D+02 -.215020192739758D+02
 0.146198461621686D+03 -.233480781936318D+02 0.984106307368573D+02 0.531879106488074D+02
 0.000000000000000D+00 0.000000000000000D+00 0.000000000000000D+00 0.000000000000000D+00
 0.316954780255969D+03 0.000000000000000D+00 0.000000000000000D+00 0.316954780255969D+03
 0.291994716344560D+03 0.000000000000000D+00 0.000000000000000D+00 -.291994716344560D+03
 0.206704757382116D+03 -.483328269541786D+02 0.149952754812288D+02 -.178467601912109D+03
 0.178206257044869D+03 0.424168545143163D+02 -.917246420260347D+02 0.146781710537277D+03
 0.328578284218370D+02 0.270200110489285D+01 -.246981628015043D+02 -.215020192739758D+02
 0.147272832014617D+03 -.326785483668120D+02 0.973508826003026D+02 0.531879106488074D+02
 0.439078217370902D+02 0.358925197017815D+02 0.407664674600757D+01 0.249600639114082D+02
0.100971643746D-06 0.000000000000D+00 0.000000000000D+00 0.709231656946D-09 0.265285348248D-13  7 2 21 23 -13 13 23 2 2 0.24348804D-01 0.89963834D-01 0.40732934D+05 0.40732934D+05 0.40732934D+05 0.11552092D+01  1  2  1  4  7  2       -2 0.407850425872D-04 0.100000000000D+01
  </mgrwgt>
  </event>
  <event>
  8     66 0.55102590E-06 0.20413969E+03 0.75467711E-02 0.10058408E+00
        2 -1    0    0  501    0 0.00000000E+00 0.00000000E+00 0.58957369E+03 0.58957377E+03 0.32000000E+00 0.0000E+00 0.9000E+01
       -2 -1    0    0    0  501 0.00000000E+00 0.00000000E+00 -.10550964E+03 0.10551013E+03 0.32000000E+00 0.0000E+00 0.9000E+01
       25  2    1    2    0    0 -.64280281E+02 -.11048975E+03 0.40379484E+03 0.51893626E+03 0.29984101E+03 0.0000E+00 0.0000E+00
       23  2    1    2    0    0 0.64280281E+02 0.11048975E+03 0.80269207E+02 0.17614764E+03 0.90801471E+02 0.0000E+00 0.0000E+00
       23  1    3    3    0    0 -.10655511E+03 -.66293140E+02 0.75024146E+02 0.17231554E+03 0.91188000E+02 0.0000E+00 0.9000E+01
      -13  1    4    4    0    0 0.77808430E+02 0.93867108E+02 0.36265465E+02 0.12720213E+03 0.10565837E+00 0.0000E+00 0.9000E+01
       13  1    4    4    0    0 -.13528150E+02 0.16622641E+02 0.44003743E+02 0.48945516E+02 0.10565837E+00 0.0000E+00 0.9000E+01
       23  1    3    3    0    0 0.42274832E+02 -.44196609E+02 0.32877069E+03 0.34662072E+03 0.91188000E+02 0.0000E+00 0.9000E+01
#aMCatNLO 1  0  0  1  2 0.16751453D+03 0.00000000D+00  -5  7  0 0.00000000D+00 0.00000000D+00 0.00000000D+00 0.00000000D+00 0.00000000D+00
  <mgrwgt>
 0.4679996962D-03    3    2    0
 0.249411121495297D+03 0.000000000000000D+00 0.000000000000000D+00 0.249411121495297D+03
 0.249411121495297D+03 0.000000000000000D+00 0.000000000000000D+00 -.249411121495297D+03
 0.167308634875765D+03 -.106555113589676D+03 -.662931416086015D+02 -.626749958400108D+02
 0.142057462230877D+03 0.778085531689435D+02 0.938672159089849D+02 -.729047145713417D+02
 0.255011294246054D+02 -.135282705126927D+02 0.166225368114565D+02 0.138197239052614D+02
 0.163955016459346D+03 0.422748309334250D+02 -.441966111118400D+02 0.121759986506091D+03
 0.000000000000000D+00 -.000000000000000D+00 0.000000000000000D+00 -.000000000000000D+00
 0.270154010321255D+03 0.000000000000000D+00 0.000000000000000D+00 0.270154010321255D+03
 0.125749535747565D+04 0.000000000000000D+00 0.000000000000000D+00 -.125749535747565D+04
 0.189813329739131D+03 -.929710830485785D+02 -.123053124364581D+03 -.626749958400108D+02
 0.125278744429110D+03 0.879773569834230D+02 0.513775345575937D+02 -.729047145713417D+02
 0.204143926377893D+02 -.117817583521243D+02 0.932485003012492D+01 0.138197239052614D+02
 0.190691926333858D+03 0.557647178055604D+02 -.100563220707276D+03 0.121759986506091D+03
 0.100145097465702D+04 -.389892333882806D+02 0.162913960484138D+03 -.987341347154399D+03
0.267476115114D-05 0.000000000000D+00 0.000000000000D+00 0.604121863513D-06 0.000000000000D+00  7 2 -2 23 -13 13 23 21 0 0.90703688D-01 0.16232297D-01 0.41673012D+05 0.41673012D+05 0.41673012D+05 0.11543200D+01  1  2  2  1  7  1        2 0.461855402826D-03 0.100000000000D+01
-.141349348085D-06 0.000000000000D+00 -.102717871011D-07 0.604121863513D-06 0.000000000000D+00  7 2 -2 23 -13 13 23 21 2 0.90703688D-01 0.16232297D-01 0.41673012D+05 0.41673012D+05 0.41673012D+05 0.11543200D+01  1  2  3  1  7  1        2 -.325212543734D-04 0.100000000000D+01
0.168054709927D-06 0.000000000000D+00 0.000000000000D+00 0.604121863513D-06 0.000000000000D+00  7 2 -2 23 -13 13 23 21 2 0.90703688D-01 0.16232297D-01 0.41673012D+05 0.41673012D+05 0.41673012D+05 0.11543200D+01  1  2 15  1  7  1        2 0.386655477670D-04 0.100000000000D+01
  </mgrwgt>
  </event>
  <event>
  8     66 0.55102590E-06 0.86750502E+02 0.75467711E-02 0.10088545E+00
        2 -1    0    0  501    0 0.00000000E+00 0.00000000E+00 0.49901637E+03 0.49901647E+03 0.32000000E+00 0.0000E+00 0.9000E+01
       -2 -1    0    0    0  501 0.00000000E+00 0.00000000E+00 -.14422911E+03 0.14422947E+03 0.32000000E+00 0.0000E+00 0.9000E+01
       25  2    1    2    0    0 -.47767500E+02 -.12635752E+03 0.35051113E+03 0.48060570E+03 0.29979298E+03 0.0000E+00 0.0000E+00
       23  2    1    2    0    0 0.47767500E+02 0.12635752E+03 0.42761222E+01 0.16264024E+03 0.90474328E+02 0.0000E+00 0.0000E+00
       23  1    3    3    0    0 -.11260699E+03 -.71506311E+01 0.83138912E+02 0.16720884E+03 0.91188000E+02 0.0000E+00 0.9000E+01
      -11  1    4    4    0    0 0.69983195E+02 0.81982127E+02 -.16115691E+02 0.10898822E+03 0.51099893E-03 0.0000E+00 0.9000E+01
       11  1    4    4    0    0 -.22215695E+02 0.44375396E+02 0.20391814E+02 0.53652017E+02 0.51099893E-03 0.0000E+00 0.9000E+01
       23  1    3    3    0    0 0.64839486E+02 -.11920689E+03 0.26737222E+03 0.31339687E+03 0.91188000E+02 0.0000E+00 0.9000E+01
#aMCatNLO 1  0  0  2  1 0.12285032D+03 0.00000000D+00  -5  7  0 0.00000000D+00 0.00000000D+00 0.00000000D+00 0.00000000D+00 0.00000000D+00
  <mgrwgt>
 0.1640732292D-03    9    2    0
 0.268277535748749D+03 0.000000000000000D+00 0.000000000000000D+00 0.268277535748749D+03
 0.268277535748749D+03 0.000000000000000D+00 0.000000000000000D+00 -.268277535748749D+03
 0.145483255339182D+03 -.112606985318963D+03 -.715063115050427D+01 -.108931892304334D+02
 0.141316103644314D+03 0.699831949023689D+02 0.819821267210242D+02 -.913866756084577D+02
 0.508366950063417D+02 -.222156952650757D+02 0.443753956497037D+02 -.110298097893554D+02
 0.198919017507660D+03 0.648394856816697D+02 -.119206891220224D+03 0.113309674628246D+03
 0.000000000000000D+00 0.000000000000000D+00 -.000000000000000D+00 -.000000000000000D+00
 0.305093222880057D+03 0.000000000000000D+00 0.000000000000000D+00 0.305093222880057D+03
 0.401520532874702D+03 0.000000000000000D+00 0.000000000000000D+00 -.401520532874702D+03
 0.175020455846175D+03 -.148829156788221D+03 -.693751675313744D+01 -.108931892304334D+02
 0.129060189501618D+03 0.394262431112852D+02 0.821619096026731D+02 -.913866756084577D+02
 0.572984092765104D+02 -.344367340627024D+02 0.444472985537237D+02 -.110298097893554D+02
 0.189060355961350D+03 0.209914586483656D+02 -.118948909838162D+03 0.113309674628246D+03
 0.156174345169107D+03 0.122848189091273D+03 -.722781565097869D+00 -.964273099946449D+02
0.127336869402D-05 0.000000000000D+00 0.000000000000D+00 0.208745479652D-06 0.000000000000D+00  7 2 -2 23 -11 11 23 21 0 0.76771784D-01 0.22189130D-01 0.54285021D+05 0.54285021D+05 0.54285021D+05 0.11441675D+01  1  2  2  2  7  2       -2 0.159496187394D-03 0.100000000000D+01
-.690321939846D-07 0.000000000000D+00 -.489007107071D-08 0.208745479652D-06 0.000000000000D+00  7 2 -2 23 -11 11 23 21 2 0.76771784D-01 0.22189130D-01 0.54285021D+05 0.54285021D+05 0.54285021D+05 0.11441675D+01  1  2  3  2  7  2       -2 -.113194951571D-04 0.100000000000D+01
0.805849740098D-07 0.000000000000D+00 0.000000000000D+00 0.208745479652D-06 0.000000000000D+00  7 2 -2 23 -11 11 23 21 2 0.76771784D-01 0.22189130D-01 0.54285021D+05 0.54285021D+05 0.54285021D+05 0.11441675D+01  1  2 15  2  7  2       -2 0.132138524127D-04 0.100000000000D+01
0.549531182282D-06 0.000000000000D+00 0.000000000000D+00 0.208745479652D-06 0.000000000000D+00  7 2 -2 23 -11 11 23 21 2 0.76771784D-01 0.34125886D-01 0.88873493D+05 0.88873493D+05 0.88873493D+05 0.11259503D+01  1  2 12  2  7  2       -2 0.414964309351D-04 0.100000000000D+01
-.958346102219D-06 0.000000000000D+00 0.000000000000D+00 0.208745479652D-06 0.000000000000D+00  7 2 -2 23 -11 11 23 21 2 0.76771784D-01 0.22189130D-01 0.54285021D+05 0.54285021D+05 0.54285021D+05 0.11441675D+01  1  2  4  2  7  2       -2 -.157143985100D-03 0.100000000000D+01
-.106745185966D-05 0.000000000000D+00 -.463038405780D-06 0.208745479652D-06 0.000000000000D+00  7 2 -2 23 -11 11 23 21 2 0.76771784D-01 0.37234160D-01 0.54285021D+05 0.54285021D+05 0.54285021D+05 0.11441675D+01  1  2  5  2  7  2       -2 -.713468046165D-04 0.100000000000D+01
0.119871295567D-05 0.000000000000D+00 0.407250964927D-06 0.208745479652D-06 0.000000000000D+00  7 2 -2 23 -11 11 23 21 2 0.76771784D-01 0.22189130D-01 0.54285021D+05 0.54285021D+05 0.54285021D+05 0.11441675D+01  1  2  6  2  7  2       -2 0.196557934975D-03 0.100000000000D+01
0.276177100736D-07 0.000000000000D+00 0.000000000000D+00 0.208745479652D-06 0.000000000000D+00  7 2 21 23 -11 11 23 2 2 0.76771784D-01 0.34125886D-01 0.88873493D+05 0.88873493D+05 0.88873493D+05 0.11259503D+01  1  2 12  4  7  2       -2 0.242129085922D-04 0.100000000000D+01
-.401749338094D-07 0.000000000000D+00 -.268402781951D-07 0.208745479652D-06 0.000000000000D+00  7 2 21 23 -11 11 23 2 2 0.76771784D-01 0.37234160D-01 0.54285021D+05 0.54285021D+05 0.54285021D+05 0.11441675D+01  1  2  5  4  7  2       -2 -.310938002338D-04 0.100000000000D+01
  </mgrwgt>
  </event>
  <event>
  8     66 0.55102590E-06 0.22265682E+03 0.75467711E-02 0.88542223E-01
        2 -1    0    0  501    0 0.00000000E+00 0.00000000E+00 0.18846694E+04 0.18846694E+04 0.32000000E+00 0.0000E+00 0.9000E+01
       -2 -1    0    0    0  501 0.00000000E+00 0.00000000E+00 -.27422019E+03 0.27422037E+03 0.32000000E+00 0.0000E+00 0.9000E+01
       25  2    1    2    0    0 0.93385656E+02 -.56302175E+02 -.17710731E+03 0.36578588E+03 0.30090114E+03 0.0000E+00 0.0000E+00
       23  2    1    2    0    0 -.93385656E+02 0.56302175E+02 0.17875565E+04 0.17931039E+04 0.89288999E+02 0.0000E+00 0.0000E+00
       23  1    3    3    0    0 -.65256965E+02 -.59707516E+02 -.11820642E+03 0.17352657E+03 0.91188000E+02 0.0000E+00 0.9000E+01
      -11  1    4    4    0    0 0.58660758E-01 0.40487736E+02 0.79583402E+03 0.79686325E+03 0.51099893E-03 0.0000E+00 0.9000E+01
       11  1    4    4    0    0 -.93444317E+02 0.15814439E+02 0.99172247E+03 0.99624063E+03 0.51099893E-03 0.0000E+00 0.9000E+01
       23  1    3    3    0    0 0.15864262E+03 0.34053412E+01 -.58900888E+02 0.19225931E+03 0.91188000E+02 0.0000E+00 0.9000E+01
#aMCatNLO 1  0  0  2  1 0.83829761D+03 0.00000000D+00  -5  7  0 0.00000000D+00 0.00000000D+00 0.00000000D+00 0.00000000D+00 0.00000000D+00
  <mgrwgt>
 0.3968801239D-03    5    2    0
 0.718898193623443D+03 0.000000000000000D+00 0.000000000000000D+00 0.718898193623443D+03
 0.718898193623443D+03 0.000000000000000D+00 0.000000000000000D+00 -.718898193623443D+03
 0.392955612947723D+03 -.652569653481453D+02 -.597075163971289D+02 -.371854008130016D+03
 0.305112519993560D+03 0.586607606864149D-01 0.404877362224051D+02 0.302414268233694D+03
 0.385071952701970D+03 -.934443170043581D+02 0.158144389739239D+02 0.373227104987349D+03
 0.354656301603633D+03 0.158642621591817D+03 0.340534120079988D+01 -.303787365091027D+03
 0.000000000000000D+00 -.000000000000000D+00 -.000000000000000D+00 -.000000000000000D+00
 0.121523509802878D+04 0.000000000000000D+00 0.000000000000000D+00 0.121523509802878D+04
 0.129079281918276D+04 0.000000000000000D+00 0.000000000000000D+00 -.129079281918276D+04
 0.407344177701975D+03 0.251009547193653D+02 0.136779261854699D+03 -.371854008130016D+03
 0.374646596519121D+03 0.768069251394029D+02 0.207379793863026D+03 0.302414268233694D+03
 0.431357151605448D+03 -.126531532311245D+01 0.216261229352515D+03 0.373227104987349D+03
 0.450984172492552D+03 0.249603532005697D+03 0.201203345191187D+03 -.303787365091027D+03
 0.841695818892450D+03 -.350246096541353D+03 -.761623630261427D+03 -.755577211539773D+02
0.508982420542D-04 0.000000000000D+00 0.000000000000D+00 0.328713071534D-06 0.000000000000D+00  7 2 -2 23 -11 11 23 21 0 0.28994915D+00 0.42187737D-01 0.49576060D+05 0.49576060D+05 0.49576060D+05 0.11476208D+01  1  2  2  2  7  2       -2 0.294721278145D-03 0.100000000000D+01
0.189547576766D-05 0.000000000000D+00 -.195462651303D-06 0.328713071534D-06 0.000000000000D+00  7 2 -2 23 -11 11 23 21 2 0.28994915D+00 0.42187737D-01 0.49576060D+05 0.49576060D+05 0.49576060D+05 0.11476208D+01  1  2  3  2  7  2       -2 0.144551888768D-04 0.100000000000D+01
0.314485740238D-05 0.000000000000D+00 0.000000000000D+00 0.328713071534D-06 0.000000000000D+00  7 2 -2 23 -11 11 23 21 2 0.28994915D+00 0.42187737D-01 0.49576060D+05 0.49576060D+05 0.49576060D+05 0.11476208D+01  1  2 15  2  7  2       -2 0.239831648169D-04 0.100000000000D+01
0.477565427946D-04 0.000000000000D+00 -.166104055464D-04 0.328713071534D-06 0.000000000000D+00  7 2 -2 23 -11 11 23 21 2 0.28994915D+00 0.13830171D+00 0.49576060D+05 0.49576060D+05 0.49576060D+05 0.11476208D+01  1  2  5  2  7  2       -2 0.265463946590D-04 0.100000000000D+01
0.722986090873D-05 0.000000000000D+00 -.228121519944D-05 0.328713071534D-06 0.000000000000D+00  7 2 21 23 -11 11 23 2 2 0.28994915D+00 0.13830171D+00 0.49576060D+05 0.49576060D+05 0.49576060D+05 0.11476208D+01  1  2  5  4  7  2       -2 0.371740973974D-04 0.100000000000D+01
  </mgrwgt>
  </event>
  <event>
  9     66 0.55102590E-06 0.18360913E+03 0.75467711E-02 0.10379702E+00
        2 -1    0    0  502    0 0.00000000E+00 0.00000000E+00 0.67581539E+02 0.67582297E+02 0.32000000E+00 0.0000E+00 0.9000E+01
       -2 -1    0    0    0  501 0.00000000E+00 0.00000000E+00 -.14563199E+04 0.14563199E+04 0.32000000E+00 0.0000E+00 0.9000E+01
       25  2    1    2    0    0 -.18523211E+00 -.27907502E+01 -.10782305E+04 0.11192011E+04 0.30003720E+03 0.0000E+00 0.0000E+00
       23  2    1    2    0    0 0.17280560E+02 -.82239560E+02 -.56283131E+02 0.13608767E+03 0.91049986E+02 0.0000E+00 0.0000E+00
       23  1    3    3    0    0 0.31713773E+02 -.11399480E+03 -.62630689E+03 0.64387588E+03 0.91188000E+02 0.0000E+00 0.9000E+01
      -11  1    4    4    0    0 0.32018790E+02 -.42460319E+02 0.13094552E+02 0.54768137E+02 0.51099893E-03 0.0000E+00 0.9000E+01
       11  1    4    4    0    0 -.14738230E+02 -.39779241E+02 -.69377682E+02 0.81319532E+02 0.51099893E-03 0.0000E+00 0.9000E+01
       23  1    3    3    0    0 -.31899005E+02 0.11120404E+03 -.45192361E+03 0.47532524E+03 0.91188000E+02 0.0000E+00 0.9000E+01
       21  1    1    2  502  501 -.17095328E+02 0.85030310E+02 -.25422470E+03 0.26861341E+03 0.75000000E+00 0.0000E+00 0.9000E+01
#aMCatNLO 2  0  0  1  1 0.86731792D+02 0.00000000D+00  -5  7  0 0.00000000D+00 0.00000000D+00 0.00000000D+00 0.00000000D+00 0.00000000D+00
  <mgrwgt>
 0.8186026716D-04    1    2    0
 0.265097325870018D+03 0.000000000000000D+00 0.000000000000000D+00 0.265097325870018D+03
 0.265097325870018D+03 0.000000000000000D+00 0.000000000000000D+00 -.265097325870018D+03
 0.164960739020797D+03 0.261595191046139D+02 -.863685385815118D+02 -.103696427989574D+03
 0.149846834729780D+03 0.271266371040889D+02 -.181272809016256D+02 0.146251909816831D+03
 0.381729314297533D+02 -.160462337506705D+02 -.332733703093077D+02 0.962153338190829D+01
 0.177214146559705D+03 -.372399224580323D+02 0.137769189792445D+03 -.521770152091658D+02
 0.000000000000000D+00 -.000000000000000D+00 0.000000000000000D+00 -.000000000000000D+00
 0.300621919664016D+03 0.000000000000000D+00 0.000000000000000D+00 0.300621919664016D+03
 0.327387834794652D+03 0.000000000000000D+00 0.000000000000000D+00 -.327387834794652D+03
 0.181848225739096D+03 0.317137728659852D+02 -.113994795027076D+03 -.103696427989574D+03
 0.155620380037364D+03 0.320187898423282D+02 -.424603185920203D+02 0.146251909816831D+03
 0.434991647154411D+02 -.147382296524270D+02 -.397792409811226D+02 0.962153338190829D+01
 0.156274048942771D+03 -.318990049718740D+02 0.111204044866338D+03 -.521770152091658D+02
 0.907679350239947D+02 -.170953280840124D+02 0.850303097338807D+02 -.267659151306361D+02
0.881220243824D-05 0.000000000000D+00 0.000000000000D+00 0.408298965840D-06 0.385113250654D-09  7 2 -2 23 -11 11 23 21 2 0.10397169D-01 0.22404815D+00 0.57366079D+05 0.57366079D+05 0.57366079D+05 0.11420822D+01  1  2  1  1  7  1        2 0.818602671641D-04 0.100000000000D+01
  </mgrwgt>
  </event>
  <event>
  9     66 0.55102590E-06 0.71414842E+03 0.75467711E-02 0.85788802E-01
        2 -1    0    0  501    0 0.00000000E+00 0.00000000E+00 0.96177282E+03 0.96177288E+03 0.32000000E+00 0.0000E+00 0.9000E+01
       21 -1    0    0  502  501 0.00000000E+00 0.00000000E+00 -.15458093E+04 0.15458095E+04 0.75000000E+00 0.0000E+00 0.9000E+01
       25  2    1    2    0    0 0.24276693E+03 -.67748280E+03 -.23606884E+03 0.81425735E+03 0.29894451E+03 0.0000E+00 0.0000E+00
       23  2    1    2    0    0 0.50925914E+03 0.67760647E+03 -.39547357E+03 0.93979985E+03 0.91263407E+02 0.0000E+00 0.0000E+00
       23  1    3    3    0    0 0.17911662E+03 -.57743628E+03 -.25696189E+03 0.66321948E+03 0.91188000E+02 0.0000E+00 0.9000E+01
      -13  1    4    4    0    0 0.41557802E+03 0.60512122E+03 -.34195299E+03 0.80982013E+03 0.10565837E+00 0.0000E+00 0.9000E+01
       13  1    4    4    0    0 0.93681122E+02 0.72485250E+02 -.53520584E+02 0.12997972E+03 0.10565837E+00 0.0000E+00 0.9000E+01
       23  1    3    3    0    0 0.63650304E+02 -.10004652E+03 0.20893053E+02 0.15103787E+03 0.91188000E+02 0.0000E+00 0.9000E+01
        2  1    1    2  502    0 -.75202607E+03 -.12367801E+00 0.47505948E+02 0.75352514E+03 0.32000000E+00 0.0000E+00 0.9000E+01
#aMCatNLO 2  0  0  2  2 0.75202608D+03 0.00000000D+00  -5  7  0 0.00000000D+00 0.00000000D+00 0.00000000D+00 0.00000000D+00 0.00000000D+00
  <mgrwgt>
 0.1871003431D-04    1    2    0
 0.726692444932477D+03 0.000000000000000D+00 0.000000000000000D+00 0.726692444932477D+03
 0.726692444932477D+03 0.000000000000000D+00 0.000000000000000D+00 -.726692444932477D+03
 0.596135016875856D+03 -.114864326264518D+03 -.577484623780549D+03 -.194782661038703D+02
 0.613680319555352D+03 0.870642114490612D+02 0.605067909854226D+03 -.540016866306089D+02
 0.851327889461568D+02 0.440778261196111D+02 0.724763783095308D+02 -.720496949709143D+01
 0.158436764487590D+03 -.162777113041548D+02 -.100059664383207D+03 0.806849222315707D+02
 0.000000000000000D+00 -.000000000000000D+00 -.000000000000000D+00 0.000000000000000D+00
 0.140208803634167D+04 0.000000000000000D+00 0.000000000000000D+00 0.140208803634167D+04
 0.106035964734306D+04 0.000000000000000D+00 0.000000000000000D+00 -.106035964734306D+04
 0.611727121503491D+03 0.179116622446137D+03 -.577436275749993D+03 -.194782661038703D+02
 0.736066701103056D+03 0.415578449162436D+03 0.605121937220532D+03 -.540016866306089D+02
 0.118667566374680D+03 0.936806904706513D+02 0.724845359837332D+02 -.720496949709143D+01
 0.169958745854883D+03 0.636503041664976D+02 -.100046519442519D+03 0.806849222315707D+02
 0.826027548848616D+03 -.752026066245722D+03 -.123678011752725D+00 0.341728388998614D+03
0.113405676543D-04 0.000000000000D+00 0.000000000000D+00 0.533202535807D-06 0.883507452395D-12  7 2 21 23 -13 13 23 2 2 0.14796506D+00 0.23781682D+00 0.13989692D+07 0.13989692D+07 0.13989692D+07 0.10382937D+01  1  2  1  4  7  2       -2 0.187100343117D-04 0.100000000000D+01
  </mgrwgt>
  </event>
  <event>
  8     66 0.55102590E-06 0.19050895E+03 0.75467711E-02 0.10628496E+00
        2 -1    0    0  501    0 0.00000000E+00 0.00000000E+00 0.39927227E+03 0.39927240E+03 0.32000000E+00 0.0000E+00 0.9000E+01
       -2 -1    0    0    0  501 0.00000000E+00 0.00000000E+00 -.22629158E+03 0.22629180E+03 0.32000000E+00 0.0000E+00 0.9000E+01
       25  2    1    2    0    0 -.25882363E+02 0.13511316E+03 0.27598502E+03 0.43052707E+03 0.30043363E+03 0.0000E+00 0.0000E+00
       23  2    1    2    0    0 0.25882363E+02 -.13511316E+03 -.10300433E+03 0.19503713E+03 0.92217829E+02 0.0000E+00 0.0000E+00
       23  1    3    3    0    0 -.10812079E+02 0.16863341E+02 -.22852314E+02 0.96118432E+02 0.91188000E+02 0.0000E+00 0.9000E+01
      -13  1    4    4    0    0 0.10126914E+02 -.51422603E+02 0.10183171E+02 0.53390511E+02 0.10565837E+00 0.0000E+00 0.9000E+01
       13  1    4    4    0    0 0.15755450E+02 -.83690555E+02 -.11318750E+03 0.14164662E+03 0.10565837E+00 0.0000E+00 0.9000E+01
       23  1    3    3    0    0 -.15070285E+02 0.11824982E+03 0.29883734E+03 0.33440864E+03 0.91188000E+02 0.0000E+00 0.9000E+01
#aMCatNLO 1  0  0  1  1 0.19877009D+02 0.00000000D+00  -5  7  0 0.00000000D+00 0.00000000D+00 0.00000000D+00 0.00000000D+00 0.00000000D+00
  <mgrwgt>
 0.1680125475D-03    4    2    0
 0.300586198062721D+03 0.000000000000000D+00 0.000000000000000D+00 0.300586198062721D+03
 0.300586198062721D+03 0.000000000000000D+00 0.000000000000000D+00 -.300586198062721D+03
 0.106593814594492D+03 -.108120785700925D+02 0.168633417179094D+02 -.514365301017108D+02
 0.526265000290564D+02 0.101269058986519D+02 -.514225596802115D+02 -.476598763775267D+01
 0.179962367230680D+03 0.157554576778121D+02 -.836905999950343D+02 -.158537385638542D+03
 0.261989714271213D+03 -.150702850063715D+02 0.118249817957336D+03 0.214739903378006D+03
 0.000000000000000D+00 -.000000000000000D+00 -.000000000000000D+00 -.000000000000000D+00
 0.303114451068786D+03 0.000000000000000D+00 0.000000000000000D+00 0.303114451068786D+03
 0.342533044705062D+03 0.000000000000000D+00 0.000000000000000D+00 -.342533044705062D+03
 0.107095670849760D+03 -.988108853119637D+01 0.202701463066899D+02 -.514365301017108D+02
 0.511034376840906D+02 0.105788305150900D+02 -.497688160387760D+02 -.476598763775267D+01
 0.177528780361998D+03 0.173129545135147D+02 -.779911970527925D+02 -.158537385638542D+03
 0.265773021602568D+03 -.127709587246989D+02 0.126663823478592D+03 0.214739903378006D+03
 0.441465852754322D+02 -.523973777270952D+01 -.191739566937131D+02 -.394185936362760D+02
0.276162769470D-05 0.000000000000D+00 0.000000000000D+00 0.215256065666D-06 0.000000000000D+00  7 2 -2 23 -13 13 23 21 0 0.61426530D-01 0.34814116D-01 0.36293660D+05 0.36293660D+05 0.36293660D+05 0.11597389D+01  1  2  2  1  7  1        2 0.203077984494D-03 0.100000000000D+01
-.114629167842D-06 0.000000000000D+00 -.106053775009D-07 0.215256065666D-06 0.000000000000D+00  7 2 -2 23 -13 13 23 21 2 0.61426530D-01 0.34814116D-01 0.36293660D+05 0.36293660D+05 0.36293660D+05 0.11597389D+01  1  2  3  1  7  1        2 -.113373956828D-04 0.100000000000D+01
0.167804727017D-06 0.000000000000D+00 0.000000000000D+00 0.215256065666D-06 0.000000000000D+00  7 2 -2 23 -13 13 23 21 2 0.61426530D-01 0.34814116D-01 0.36293660D+05 0.36293660D+05 0.36293660D+05 0.11597389D+01  1  2 15  1  7  1        2 0.165967233597D-04 0.100000000000D+01
-.407712172062D-06 0.000000000000D+00 0.000000000000D+00 0.215256065666D-06 0.000000000000D+00  7 2 -2 23 -13 13 23 21 2 0.61426530D-01 0.34814116D-01 0.36293660D+05 0.36293660D+05 0.36293660D+05 0.11597389D+01  1  2  4  1  7  1        2 -.403247646857D-04 0.100000000000D+01
  </mgrwgt>
  </event>
  <event>
  8     66 0.55102590E-06 0.69248562E+03 0.75467711E-02 0.84540980E-01
        2 -1    0    0  501    0 0.00000000E+00 0.00000000E+00 0.15142527E+04 0.15142527E+04 0.32000000E+00 0.0000E+00 0.9000E+01
       -2 -1    0    0    0  501 0.00000000E+00 0.00000000E+00 -.33970227E+03 0.33970242E+03 0.32000000E+00 0.0000E+00 0.9000E+01
       25  2    1    2    0    0 0.15252119E+03 -.64520926E+03 0.82165332E+03 0.10974362E+04 0.29949018E+03 0.0000E+00 0.0000E+00
       23  2    1    2    0    0 -.15252119E+03 0.64520926E+03 0.35289709E+03 0.75651892E+03 0.90701740E+02 0.0000E+00 0.0000E+00
       23  1    3    3    0    0 0.14670348E+03 -.18911745E+03 0.36233570E+03 0.44372258E+03 0.91188000E+02 0.0000E+00 0.9000E+01
      -11  1    4    4    0    0 0.76041212E+00 0.18104873E+02 0.29148617E+02 0.34322100E+02 0.51099893E-03 0.0000E+00 0.9000E+01
       11  1    4    4    0    0 -.15328161E+03 0.62710439E+03 0.32374847E+03 0.72219681E+03 0.51099893E-03 0.0000E+00 0.9000E+01
       23  1    3    3    0    0 0.58177122E+01 -.45609182E+03 0.45931762E+03 0.65371363E+03 0.91188000E+02 0.0000E+00 0.9000E+01
#aMCatNLO 1  0  0  2  1 0.10102360D+04 0.00000000D+00  -5  7  0 0.00000000D+00 0.00000000D+00 0.00000000D+00 0.00000000D+00 0.00000000D+00
  <mgrwgt>
 0.2979630707D-03    5    2    0
 0.717213527247046D+03 0.000000000000000D+00 0.000000000000000D+00 0.717213527247046D+03
 0.717213527247046D+03 0.000000000000000D+00 0.000000000000000D+00 -.717213527247046D+03
 0.276807535266496D+03 0.146703482407163D+03 -.189117446948356D+03 0.104975424484301D+03
 0.204925814416219D+02 0.760412127019965D+00 0.181048731848834D+02 0.956980848804604D+01
 0.668323696717441D+03 -.153281606767934D+03 0.627104389454825D+03 -.172920205144447D+03
 0.468803241068534D+03 0.581771223375078D+01 -.456091815691352D+03 0.583749721721001D+02
 0.000000000000000D+00 0.000000000000000D+00 0.000000000000000D+00 -.000000000000000D+00
 0.112512631590681D+04 0.000000000000000D+00 0.000000000000000D+00 0.112512631590681D+04
 0.190648807438186D+04 0.000000000000000D+00 0.000000000000000D+00 -.190648807438186D+04
 0.419895026378451D+03 0.592177600333353D+02 -.391752471573997D+03 0.104975424484301D+03
 0.131460628403124D+02 -.346363017839789D+01 0.832111769480859D+01 0.956980848804604D+01
 0.454746754415923D+03 -.294306823414366D+03 0.300460824395400D+03 -.172920205144447D+03
 0.866680109568589D+03 -.161880430533019D+03 -.844515393472595D+03 0.583749721721001D+02
 0.127714643708539D+04 0.400433124092448D+03 0.927485922956384D+03 -.781361758475052D+03
0.535649329778D-04 0.000000000000D+00 0.000000000000D+00 0.184296689403D-05 0.000000000000D+00  7 2 -2 23 -11 11 23 21 0 0.23296196D+00 0.52261902D-01 0.47953633D+06 0.47953633D+06 0.47953633D+06 0.10697954D+01  1  2  2  2  7  2       -2 0.291837045514D-03 0.100000000000D+01
-.297137550430D-05 0.000000000000D+00 -.205703446606D-06 0.184296689403D-05 0.000000000000D+00  7 2 -2 23 -11 11 23 21 2 0.23296196D+00 0.52261902D-01 0.47953633D+06 0.47953633D+06 0.47953633D+06 0.10697954D+01  1  2  3  2  7  2       -2 -.185275863479D-04 0.100000000000D+01
0.343640743672D-05 0.000000000000D+00 0.000000000000D+00 0.184296689403D-05 0.000000000000D+00  7 2 -2 23 -11 11 23 21 2 0.23296196D+00 0.52261902D-01 0.47953633D+06 0.47953633D+06 0.47953633D+06 0.10697954D+01  1  2 15  2  7  2       -2 0.214272263530D-04 0.100000000000D+01
0.511386596915D-05 0.000000000000D+00 -.185245775526D-04 0.184296689403D-05 0.000000000000D+00  7 2 -2 23 -11 11 23 21 2 0.23296196D+00 0.19914325D+00 0.47953633D+06 0.47953633D+06 0.47953633D+06 0.10697954D+01  1  2  5  2  7  2       -2 0.115947596408D-05 0.100000000000D+01
0.117148948606D-05 0.000000000000D+00 -.293783510849D-05 0.184296689403D-05 0.000000000000D+00  7 2 21 23 -11 11 23 2 2 0.23296196D+00 0.19914325D+00 0.47953633D+06 0.47953633D+06 0.47953633D+06 0.10697954D+01  1  2  5  4  7  2       -2 0.206690917756D-05 0.100000000000D+01
  </mgrwgt>
  </event>
  <event>
  8     66 0.55102590E-06 0.18735761E+03 0.75467711E-02 0.82900624E-01
        2 -1    0    0  501    0 0.00000000E+00 0.00000000E+00 0.21952109E+03 0.21952132E+03 0.32000000E+00 0.0000E+00 0.9000E+01
       -2 -1    0    0    0  501 0.00000000E+00 0.00000000E+00 -.23090783E+03 0.23090805E+03 0.32000000E+00 0.0000E+00 0.9000E+01
       25  2    1    2    0    0 0.10469155E+01 0.77641415E+02 -.70616386E+02 0.31884458E+03 0.30107458E+03 0.0000E+00 0.0000E+00
       23  2    1    2    0    0 -.10469155E+01 -.77641415E+02 0.59229650E+02 0.13158480E+03 0.88187992E+02 0.0000E+00 0.0000E+00
       23  1    3    3    0    0 -.83858348E+02 0.44353812E+02 0.51435261E+02 0.14128100E+03 0.91188000E+02 0.0000E+00 0.9000E+01
      -11  1    4    4    0    0 -.39390719E+02 -.60429042E+02 0.52035212E+02 0.88943584E+02 0.51099893E-03 0.0000E+00 0.9000E+01
       11  1    4    4    0    0 0.38343804E+02 -.17212373E+02 0.71944383E+01 0.42641213E+02 0.51099893E-03 0.0000E+00 0.9000E+01
       23  1    3    3    0    0 0.84905263E+02 0.33287603E+02 -.12205165E+03 0.17756358E+03 0.91188000E+02 0.0000E+00 0.9000E+01
#aMCatNLO 1  0  0  2  1 0.16127314D+04 0.00000000D+00  -5  7  0 0.00000000D+00 0.00000000D+00 0.00000000D+00 0.00000000D+00 0.00000000D+00
  <mgrwgt>
 0.1739105347D-03    3    2    0
 0.225142711551566D+03 0.000000000000000D+00 0.000000000000000D+00 0.225142711551566D+03
 0.225142711551566D+03 0.000000000000000D+00 0.000000000000000D+00 -.225142711551566D+03
 0.142626849384820D+03 -.838583475975015D+02 0.443538120033440D+02 0.550243920496054D+02
 0.902878753368410D+02 -.393907194056754D+02 -.604290420647797D+02 0.543010362026120D+02
 0.428367760678636D+02 0.383438038694104D+02 -.172123727915971D+02 0.827504148603335D+01
 0.174533922313608D+03 0.849052631337666D+02 0.332876028530328D+02 -.117600469738251D+03
 0.000000000000000D+00 0.000000000000000D+00 -.000000000000000D+00 0.000000000000000D+00
 0.194550137675549D+04 0.000000000000000D+00 0.000000000000000D+00 0.194550137675549D+04
 0.142389671149127D+04 0.000000000000000D+00 0.000000000000000D+00 -.142389671149127D+04
 0.860864477945376D+03 -.656178173608966D+03 0.546968846281886D+03 0.550243920496054D+02
 0.298930326054566D+03 -.261372999903779D+03 0.134517256230237D+03 0.543010362026120D+02
 0.154237929465434D+02 0.511613382031713D+01 0.119683855216516D+02 0.827504148603335D+01
 0.499194564839627D+03 -.299341376617840D+03 0.370735528353170D+03 -.117600469738251D+03
 0.169498492646064D+04 0.121177641631027D+04 -.106419001638695D+04 0.521604665264214D+03
0.126524946454D-05 0.000000000000D+00 0.000000000000D+00 0.302383516691D-08 0.000000000000D+00  7 2 -2 23 -11 11 23 21 0 0.33772511D-01 0.35524316D-01 0.35102875D+05 0.35102875D+05 0.35102875D+05 0.11610587D+01  1  2  2  2  7  2       -2 0.171356273674D-03 0.100000000000D+01
-.674071011914D-07 0.000000000000D+00 -.485889109166D-08 0.302383516691D-08 0.000000000000D+00  7 2 -2 23 -11 11 23 21 2 0.33772511D-01 0.35524316D-01 0.35102875D+05 0.35102875D+05 0.35102875D+05 0.11610587D+01  1  2  3  2  7  2       -2 -.123065923614D-04 0.100000000000D+01
0.813975971625D-07 0.000000000000D+00 0.000000000000D+00 0.302383516691D-08 0.000000000000D+00  7 2 -2 23 -11 11 23 21 2 0.33772511D-01 0.35524316D-01 0.35102875D+05 0.35102875D+05 0.35102875D+05 0.11610587D+01  1  2 15  2  7  2       -2 0.148608533785D-04 0.100000000000D+01
  </mgrwgt>
  </event>
  <event>
  8     66 0.55102590E-06 0.13116754E+03 0.75467711E-02 0.10731429E+00
        2 -1    0    0  501    0 0.00000000E+00 0.00000000E+00 0.11598916E+04 0.11598917E+04 0.32000000E+00 0.0000E+00 0.9000E+01
       -2 -1    0    0    0  501 0.00000000E+00 0.00000000E+00 -.58805387E+02 0.58806257E+02 0.32000000E+00 0.0000E+00 0.9000E+01
       25  2    1    2    0    0 0.71249128E+01 0.11680713E+01 0.10854930E+04 0.11262554E+04 0.30017327E+03 0.0000E+00 0.0000E+00
       23  2    1    2    0    0 -.71249128E+01 -.11680713E+01 0.15593205E+02 0.92442518E+02 0.90831395E+02 0.0000E+00 0.0000E+00
       23  1    3    3    0    0 0.79542523E+02 -.69497367E+02 0.32546225E+03 0.35411555E+03 0.91188000E+02 0.0000E+00 0.9000E+01
      -11  1    4    4    0    0 0.14048867E+02 -.41033492E+02 -.33244851E+01 0.43499084E+02 0.51099893E-03 0.0000E+00 0.9000E+01
       11  1    4    4    0    0 -.21173780E+02 0.39865420E+02 0.18917690E+02 0.48943434E+02 0.51099893E-03 0.0000E+00 0.9000E+01
       23  1    3    3    0    0 -.72417610E+02 0.70665438E+02 0.76003080E+03 0.77213987E+03 0.91188000E+02 0.0000E+00 0.9000E+01
#aMCatNLO 1  0  0  1  2 0.97649156D+01 0.00000000D+00  -5  7  0 0.00000000D+00 0.00000000D+00 0.00000000D+00 0.00000000D+00 0.00000000D+00
  <mgrwgt>
 0.2375870089D-03   11    2    0
 0.261167443028370D+03 0.000000000000000D+00 0.000000000000000D+00 0.261167443028370D+03
 0.261167443028370D+03 0.000000000000000D+00 0.000000000000000D+00 -.261167443028370D+03
 0.140135929978288D+03 0.795425230610690D+02 -.694973668428013D+02 0.128814034125219D+02
 0.108498953749041D+03 0.140488673170862D+02 -.410334915935718D+02 -.994530284073027D+02
 0.743148773520690D+02 -.211737800737201D+02 0.398654203040508D+02 -.590349074465622D+02
 0.199385124977341D+03 -.724176103044351D+02 0.706654381323223D+02 0.145606532441343D+03
 0.000000000000000D+00 -.000000000000000D+00 -.000000000000000D+00 0.000000000000000D+00
 0.272171621311639D+03 0.000000000000000D+00 0.000000000000000D+00 0.272171621311639D+03
 0.263388402120949D+03 0.000000000000000D+00 0.000000000000000D+00 -.263388402120949D+03
 0.140907552765587D+03 0.818907937276789D+02 -.683202344196899D+02 0.128814034125219D+02
 0.108408941967964D+03 0.158612503828501D+02 -.401249869223923D+02 -.994530284073027D+02
 0.743079713954729D+02 -.199319555962605D+02 0.404879174791066D+02 -.590349074465622D+02
 0.198801688240305D+03 -.690905436022267D+02 0.723332178072599D+02 0.145606532441343D+03
 0.131338690632590D+02 -.872954491204175D+01 -.437591394428437D+01 0.878321919068944D+01
0.538838055839D-06 0.000000000000D+00 0.000000000000D+00 0.280959071418D-06 0.000000000000D+00  7 2 -2 23 -11 11 23 21 0 0.17844494D+00 0.90470529D-02 0.33172079D+05 0.33172079D+05 0.33172079D+05 0.11633074D+01  1  2  2  1  7  1        2 0.971718958521D-04 0.100000000000D+01
-.252071070142D-07 0.000000000000D+00 -.206928001374D-08 0.280959071418D-06 0.000000000000D+00  7 2 -2 23 -11 11 23 21 2 0.17844494D+00 0.90470529D-02 0.33172079D+05 0.33172079D+05 0.33172079D+05 0.11633074D+01  1  2  3  1  7  1        2 -.615168949170D-05 0.100000000000D+01
0.336945140069D-07 0.000000000000D+00 0.000000000000D+00 0.280959071418D-06 0.000000000000D+00  7 2 -2 23 -11 11 23 21 2 0.17844494D+00 0.90470529D-02 0.33172079D+05 0.33172079D+05 0.33172079D+05 0.11633074D+01  1  2 15  1  7  1        2 0.822300582243D-05 0.100000000000D+01
0.206722245155D-05 0.000000000000D+00 0.000000000000D+00 0.280959071418D-06 0.000000000000D+00  7 2 -2 23 -11 11 23 21 2 0.18670242D+00 0.90470529D-02 0.34915045D+05 0.34915045D+05 0.34915045D+05 0.11612713D+01  1  2 12  1  7  1        2 0.469308558521D-03 0.100000000000D+01
-.209284886443D-05 0.000000000000D+00 0.000000000000D+00 0.280959071418D-06 0.000000000000D+00  7 2 -2 23 -11 11 23 21 2 0.17844494D+00 0.90470529D-02 0.33172079D+05 0.33172079D+05 0.33172079D+05 0.11633074D+01  1  2  4  1  7  1        2 -.510751049687D-03 0.100000000000D+01
-.105852300419D-04 0.000000000000D+00 -.137473337600D-05 0.280959071418D-06 0.000000000000D+00  7 2 -2 23 -11 11 23 21 2 0.18676266D+00 0.90470529D-02 0.33172079D+05 0.33172079D+05 0.33172079D+05 0.11633074D+01  1  2  5  1  7  1        2 -.241014794766D-02 0.100000000000D+01
0.106382441603D-04 0.000000000000D+00 0.137330792406D-05 0.280959071418D-06 0.000000000000D+00  7 2 -2 23 -11 11 23 21 2 0.17844494D+00 0.90470529D-02 0.33172079D+05 0.33172079D+05 0.33172079D+05 0.11633074D+01  1  2  6  1  7  1        2 0.259621918429D-02 0.100000000000D+01
0.184495247318D-11 0.000000000000D+00 0.000000000000D+00 0.280959071418D-06 0.212043740909D-07  7 2 -2 23 -11 11 23 21 2 0.18596364D+00 0.91239887D-02 0.34915045D+05 0.34915045D+05 0.34915045D+05 0.11612713D+01  1  2 11  1  7  1        2 0.416057003205D-09 0.100000000000D+01
0.348650655673D-07 0.000000000000D+00 0.000000000000D+00 0.280959071418D-06 0.000000000000D+00  7 21 -2 23 -11 11 23 -2 2 0.18670242D+00 0.90470529D-02 0.34915045D+05 0.34915045D+05 0.34915045D+05 0.11612713D+01  1  2 12  3  7  1        2 0.446350203762D-05 0.100000000000D+01
-.835415794254D-07 0.000000000000D+00 -.109809612931D-07 0.280959071418D-06 0.000000000000D+00  7 21 -2 23 -11 11 23 -2 2 0.18676266D+00 0.90470529D-02 0.33172079D+05 0.33172079D+05 0.33172079D+05 0.11633074D+01  1  2  5  3  7  1        2 -.107488687112D-04 0.100000000000D+01
0.147640732745D-13 0.000000000000D+00 0.000000000000D+00 0.280959071418D-06 0.155261990152D-09  7 21 -2 23 -11 11 23 -2 2 0.18596364D+00 0.91239887D-02 0.34915045D+05 0.34915045D+05 0.34915045D+05 0.11612713D+01  1  2 11  3  7  1        2 0.188991442507D-11 0.100000000000D+01
  </mgrwgt>
  </event>
  <event>
  9     66 0.55102590E-06 0.23721073E+03 0.75467711E-02 0.96801398E-01
        2 -1    0    0  501    0 0.00000000E+00 0.00000000E+00 0.16269086E+04 0.16269087E+04 0.32000000E+00 0.0000E+00 0.9000E+01
       21 -1    0    0  502  501 0.00000000E+00 0.00000000E+00 -.13032624E+03 0.13032840E+03 0.75000000E+00 0.0000E+00 0.9000E+01
       25  2    1    2    0    0 -.35818336E+02 0.39516651E+02 0.52686817E+03 0.60890378E+03 0.30054821E+03 0.0000E+00 0.0000E+00
       23  2    1    2    0    0 0.95030808E+02 0.23253505E+03 0.73800214E+03 0.78610568E+03 0.10105240E+03 0.0000E+00 0.0000E+00
       23  1    3    3    0    0 -.11490788E+03 -.26479715E+02 0.37734694E+03 0.40572276E+03 0.91188000E+02 0.0000E+00 0.9000E+01
      -13  1    4    4    0    0 0.28399203E+02 0.75919975E+01 0.15330167E+03 0.15609474E+03 0.10565837E+00 0.0000E+00 0.9000E+01
       13  1    4    4    0    0 0.66631605E+02 0.22494305E+03 0.58470046E+03 0.63001094E+03 0.10565837E+00 0.0000E+00 0.9000E+01
       23  1    3    3    0    0 0.79089540E+02 0.65996366E+02 0.14952123E+03 0.20318102E+03 0.91188000E+02 0.0000E+00 0.9000E+01
        2  1    1    2  502    0 -.59212472E+02 -.27205170E+03 0.23171208E+03 0.36222760E+03 0.32000000E+00 0.0000E+00 0.9000E+01
#aMCatNLO 2  0  0  2  2 0.27842098D+03 0.00000000D+00  -5  7  0 0.00000000D+00 0.00000000D+00 0.00000000D+00 0.00000000D+00 0.00000000D+00
  <mgrwgt>
 0.7231466316D-04    1    2    0
 0.259150660093504D+03 0.000000000000000D+00 0.000000000000000D+00 0.259150660093504D+03
 0.259150660093504D+03 0.000000000000000D+00 0.000000000000000D+00 -.259150660093504D+03
 0.198147292422861D+03 -.133575878774959D+03 -.112249780927820D+03 0.224626232142349D+02
 0.387801668318011D+02 0.241554850228346D+02 -.119056624808189D+02 0.279046426908993D+02
 0.143081785943235D+03 0.463075494969878D+02 0.131563936190288D+03 0.319208242751881D+02
 0.138292074989110D+03 0.631128442551365D+02 -.740849278164892D+01 -.822880901803224D+02
 0.000000000000000D+00 -.000000000000000D+00 -.000000000000000D+00 -.000000000000000D+00
 0.359862309347982D+03 0.000000000000000D+00 0.000000000000000D+00 0.359862309347982D+03
 0.589199618604535D+03 0.000000000000000D+00 0.000000000000000D+00 -.589199618604535D+03
 0.150747546708901D+03 -.114907898268011D+03 -.264797463869281D+02 0.224626232142349D+02
 0.405316760409715D+02 0.283991474983346D+02 0.759184433134267D+01 0.279046426908993D+02
 0.236766128073389D+03 0.666317064037319D+02 0.224943273031634D+03 0.319208242751881D+02
 0.160303611076821D+03 0.790895163687427D+02 0.659963256197043D+02 -.822880901803224D+02
 0.360712966052435D+03 -.592124720027983D+02 -.272051696595753D+03 -.229337309256553D+03
0.168249473897D-06 0.000000000000D+00 0.000000000000D+00 0.205302617638D-08 0.627904789183D-13  7 2 21 23 -13 13 23 2 2 0.25029376D+00 0.20050356D-01 0.17183427D+06 0.17183427D+06 0.17183427D+06 0.11029244D+01  1  2  1  4  7  2       -2 0.723146631573D-04 0.100000000000D+01
  </mgrwgt>
  </event>
  <event>
  8     66 0.55102590E-06 0.20650994E+03 0.75467711E-02 0.94797901E-01
        2 -1    0    0  501    0 0.00000000E+00 0.00000000E+00 0.40590631E+03 0.40590644E+03 0.32000000E+00 0.0000E+00 0.9000E+01
       -2 -1    0    0    0  501 0.00000000E+00 0.00000000E+00 -.20440444E+03 0.20440469E+03 0.32000000E+00 0.0000E+00 0.9000E+01
       25  2    1    2    0    0 -.13910774E+03 0.61097680E+02 0.26343365E+03 0.42485773E+03 0.29668655E+03 0.0000E+00 0.0000E+00
       23  2    1    2    0    0 0.13910774E+03 -.61097680E+02 -.61931776E+02 0.18545340E+03 0.86449581E+02 0.0000E+00 0.0000E+00
       23  1    3    3    0    0 -.96698523E+02 0.16266134E+02 -.57472142E+01 0.13402788E+03 0.91188000E+02 0.0000E+00 0.9000E+01
      -13  1    4    4    0    0 0.23028280E+02 -.46660736E+02 0.21466971E+01 0.52078263E+02 0.10565837E+00 0.0000E+00 0.9000E+01
       13  1    4    4    0    0 0.11607946E+03 -.14436944E+02 -.64078473E+02 0.13337514E+03 0.10565837E+00 0.0000E+00 0.9000E+01
       23  1    3    3    0    0 -.42409213E+02 0.44831546E+02 0.26918086E+03 0.29082984E+03 0.91188000E+02 0.0000E+00 0.9000E+01
#aMCatNLO 1  0  0  2  2 0.40180030D+03 0.00000000D+00  -5  7  0 0.00000000D+00 0.00000000D+00 0.00000000D+00 0.00000000D+00 0.00000000D+00
  <mgrwgt>
 0.2657387178D-03    3    2    0
 0.288043688811598D+03 0.000000000000000D+00 0.000000000000000D+00 0.288043688811598D+03
 0.288043688811598D+03 0.000000000000000D+00 0.000000000000000D+00 -.288043688811598D+03
 0.144000346952158D+03 -.966985235341180D+02 0.162661345263377D+02 -.529684528019716D+02
 0.544210602221831D+02 0.230281421458448D+02 -.466607837416773D+02 -.159413840562754D+02
 0.163711897525251D+03 0.116079596043408D+03 -.144368970537183D+02 -.114536844627297D+03
 0.213954072923604D+03 -.424092146551350D+02 0.448315462690579D+02 0.183446681485544D+03
 0.000000000000000D+00 -.000000000000000D+00 -.000000000000000D+00 0.000000000000000D+00
 0.278042751219945D+04 0.000000000000000D+00 0.000000000000000D+00 0.278042751219945D+04
 0.367798346586996D+03 0.000000000000000D+00 0.000000000000000D+00 -.367798346586996D+03
 0.124426387061933D+03 -.251985474981230D+02 0.610413848551629D+02 -.529684528019716D+02
 0.626900257198945D+02 0.542226499103670D+02 -.271259255294479D+02 -.159413840562754D+02
 0.262871063247245D+03 0.229707143555110D+03 0.567197965027335D+02 -.114536844627297D+03
 0.252380052889151D+03 0.818067243527442D+02 0.122618981625790D+03 0.183446681485544D+03
 0.244585832986822D+04 -.340537970320099D+03 -.213254237454239D+03 0.241262916561246D+04
0.301241470382D-05 0.000000000000D+00 0.000000000000D+00 0.665978435462D-09 0.000000000000D+00  7 2 -2 23 -13 13 23 21 0 0.62447154D-01 0.31446866D-01 0.42646357D+05 0.42646357D+05 0.42646357D+05 0.11534224D+01  1  2  2  2  7  2       -2 0.260506530144D-03 0.100000000000D+01
-.144824598349D-06 0.000000000000D+00 -.115684656497D-07 0.665978435462D-09 0.000000000000D+00  7 2 -2 23 -13 13 23 21 2 0.62447154D-01 0.31446866D-01 0.42646357D+05 0.42646357D+05 0.42646357D+05 0.11534224D+01  1  2  3  2  7  2       -2 -.166618390750D-04 0.100000000000D+01
0.190302739898D-06 0.000000000000D+00 0.000000000000D+00 0.665978435462D-09 0.000000000000D+00  7 2 -2 23 -13 13 23 21 2 0.62447154D-01 0.31446866D-01 0.42646357D+05 0.42646357D+05 0.42646357D+05 0.11534224D+01  1  2 15  2  7  2       -2 0.218940267320D-04 0.100000000000D+01
  </mgrwgt>
  </event>
  <event>
  9     66 0.55102590E-06 0.26445748E+03 0.75467711E-02 0.10161325E+00
        2 -1    0    0  502    0 0.00000000E+00 0.00000000E+00 0.16461785E+03 0.16461816E+03 0.32000000E+00 0.0000E+00 0.9000E+01
       -2 -1    0    0    0  501 0.00000000E+00 0.00000000E+00 -.11741484E+04 0.11741484E+04 0.32000000E+00 0.0000E+00 0.9000E+01
       25  2    1    2    0    0 0.20920647E+03 0.63352913E+01 -.81097974E+02 0.37666527E+03 0.30247705E+03 0.0000E+00 0.0000E+00
       23  2    1    2    0    0 -.18836582E+03 0.22586878E+02 -.85436613E+03 0.87989900E+03 0.91043475E+02 0.0000E+00 0.0000E+00
       23  1    3    3    0    0 0.21712765E+03 -.21271034E+02 0.20271021E+02 0.23732476E+03 0.91188000E+02 0.0000E+00 0.9000E+01
      -13  1    4    4    0    0 -.15974885E+02 0.17415868E+02 -.32812225E+02 0.40437144E+02 0.10565837E+00 0.0000E+00 0.9000E+01
       13  1    4    4    0    0 -.17239094E+03 0.51710104E+01 -.82155390E+03 0.83946185E+03 0.10565837E+00 0.0000E+00 0.9000E+01
       23  1    3    3    0    0 -.79211865E+01 0.27606326E+02 -.10136899E+03 0.13934051E+03 0.91188000E+02 0.0000E+00 0.9000E+01
       21  1    1    2  502  501 -.20840641E+02 -.28922170E+02 -.74066448E+02 0.82202344E+02 0.75000000E+00 0.0000E+00 0.9000E+01
#aMCatNLO 2  0  0  1  2 0.35648622D+02 0.00000000D+00  -5  7  0 0.00000000D+00 0.00000000D+00 0.00000000D+00 0.00000000D+00 0.00000000D+00
  <mgrwgt>
 0.1219998177D-03    2    2    0
 0.419103163887190D+03 0.000000000000000D+00 0.000000000000000D+00 0.419103163887190D+03
 0.419103163887190D+03 0.000000000000000D+00 0.000000000000000D+00 -.419103163887190D+03
 0.373734644478124D+03 0.207785827336944D+03 -.342354045587282D+02 0.294983593055261D+03
 0.237961355899157D+02 -.165683218004567D+02 0.165920339563570D+02 -.405600677036647D+01
 0.345675187827357D+03 -.180927043857790D+03 -.667492479153534D+01 -.294469328894178D+03
 0.950003598789838D+02 -.102904616786968D+02 0.243182953939065D+02 0.354174260928311D+01
 0.000000000000000D+00 -.000000000000000D+00 -.000000000000000D+00 -.000000000000000D+00
 0.430107247529842D+03 0.000000000000000D+00 0.000000000000000D+00 0.430107247529842D+03
 0.449383139653116D+03 0.000000000000000D+00 0.000000000000000D+00 -.449383139653116D+03
 0.378057462752224D+03 0.217127650835939D+03 -.212710335744172D+02 0.294983593055261D+03
 0.239782076594542D+02 -.159746743304663D+02 0.174158844643098D+02 -.405600677036647D+01
 0.341258895479672D+03 -.172391150889534D+03 0.517099406303871D+01 -.294469328894178D+03
 0.956694811051662D+02 -.792118434268244D+01 0.276063247976001D+02 0.354174260928311D+01
 0.405263401864419D+02 -.208406412732560D+02 -.289221697505314D+02 -.192758921232745D+02
-.186922510802D-06 0.000000000000D+00 0.000000000000D+00 0.649109101385D-07 0.000000000000D+00  7 2 -2 23 -13 13 23 21 2 0.24677705D-01 0.16846528D+00 0.69937761D+05 0.69937761D+05 0.69937761D+05 0.11346925D+01  1  2  8  1  7  1        2 -.143274147904D-05 0.100000000000D+01
0.205308324152D-04 0.000000000000D+00 0.000000000000D+00 0.649109101385D-07 0.348815054069D-09  7 2 -2 23 -13 13 23 21 2 0.25325649D-01 0.18063680D+00 0.79470804D+05 0.79470804D+05 0.79470804D+05 0.11300043D+01  1  2  1  1  7  1        2 0.123432559187D-03 0.100000000000D+01
  </mgrwgt>
  </event>
  <event>
  9     66 -.55102590E-06 0.23977857E+03 0.75467711E-02 0.10163152E+00
        2 -1    0    0  502    0 0.00000000E+00 0.00000000E+00 0.42711472E+03 0.42711484E+03 0.32000000E+00 0.0000E+00 0.9000E+01
       -2 -1    0    0    0  501 0.00000000E+00 0.00000000E+00 -.28001104E+03 0.28001123E+03 0.32000000E+00 0.0000E+00 0.9000E+01
       25  2    1    2    0    0 0.89013023E+02 -.13265767E+03 -.88595911E+02 0.35129683E+03 0.30006475E+03 0.0000E+00 0.0000E+00
       23  2    1    2    0    0 -.12846574E+03 0.66795996E+02 0.21706638E+03 0.27682268E+03 0.92454485E+02 0.0000E+00 0.0000E+00
       23  1    3    3    0    0 0.12408542E+03 -.15690941E+03 -.41256094E+01 0.21988639E+03 0.91188000E+02 0.0000E+00 0.9000E+01
      -11  1    4    4    0    0 -.86404602E+02 -.46963183E+00 0.14923348E+03 0.17244305E+03 0.51099893E-03 0.0000E+00 0.9000E+01
       11  1    4    4    0    0 -.42061137E+02 0.67265628E+02 0.67832906E+02 0.10437963E+03 0.51099893E-03 0.0000E+00 0.9000E+01
       23  1    3    3    0    0 -.35072399E+02 0.24251735E+02 -.84470302E+02 0.13141044E+03 0.91188000E+02 0.0000E+00 0.9000E+01
       21  1    1    2  502  501 0.39452717E+02 0.65861674E+02 0.18633210E+02 0.79006557E+02 0.75000000E+00 0.0000E+00 0.9000E+01
#aMCatNLO 2  0  0  1  2 0.76774195D+02 0.00000000D+00  -5  7  0 0.00000000D+00 0.00000000D+00 0.00000000D+00 0.00000000D+00 0.00000000D+00
  <mgrwgt>
 -.2199642774D-04    2    2    0
 0.305014418905869D+03 0.000000000000000D+00 0.000000000000000D+00 0.305014418905869D+03
 0.305014418905869D+03 0.000000000000000D+00 0.000000000000000D+00 -.305014418905869D+03
 0.218360403780703D+03 0.138381953221118D+03 -.133043026586265D+03 -.501597716775741D+02
 0.140489955522030D+03 -.772095318770897D+02 0.148804575132503D+02 0.116424601240885D+03
 0.977317033176863D+02 -.359351071797222D+02 0.774923152842716D+02 0.474878403092957D+02
 0.153446775191318D+03 -.252373141643064D+02 0.406702537887432D+02 -.113752669872606D+03
 0.000000000000000D+00 0.000000000000000D+00 0.000000000000000D+00 0.000000000000000D+00
 0.347092023237995D+03 0.000000000000000D+00 0.000000000000000D+00 0.347092023237995D+03
 0.344564760388362D+03 0.000000000000000D+00 0.000000000000000D+00 -.344564760388362D+03
 0.225497244936835D+03 0.124085421795595D+03 -.156909405496184D+03 -.501597716775741D+02
 0.144985046212119D+03 -.864046022905113D+02 -.469631823686404D+00 0.116424601240885D+03
 0.924602561064108D+02 -.420611372991643D+02 0.672656280066034D+02 0.474878403092957D+02
 0.151898456530877D+03 -.350723991596041D+02 0.242517353297847D+02 -.113752669872606D+03
 0.768157798401159D+02 0.394527169536844D+02 0.658616739834821D+02 0.252726284963330D+01
-.137783405348D-05 0.000000000000D+00 0.000000000000D+00 0.187427281972D-06 0.000000000000D+00  7 2 -2 23 -11 11 23 21 2 0.68977006D-01 0.38133727D-01 0.79249682D+05 0.79249682D+05 0.79249682D+05 0.11301059D+01  1  2 13  1  7  1        2 -.965193996032D-04 0.100000000000D+01
0.126563571558D-05 0.000000000000D+00 0.000000000000D+00 0.187427281972D-06 0.220395296462D-09  7 2 -2 23 -11 11 23 21 2 0.65709633D-01 0.43078417D-01 0.79249682D+05 0.79249682D+05 0.79249682D+05 0.11301059D+01  1  2  1  1  7  1        2 0.745229718668D-04 0.100000000000D+01
  </mgrwgt>
  </event>
  <event>
  8     66 0.55102590E-06 0.16640178E+03 0.75467711E-02 0.98749334E-01
        2 -1    0    0  501    0 0.00000000E+00 0.00000000E+00 0.11892234E+04 0.11892234E+04 0.32000000E+00 0.0000E+00 0.9000E+01
       -2 -1    0    0    0  501 0.00000000E+00 0.00000000E+00 -.11272500E+03 0.11272546E+03 0.32000000E+00 0.0000E+00 0.9000E+01
       25  2    1    2    0    0 -.62594627E+02 0.21553575E+03 0.96341172E+03 0.10336477E+04 0.29981957E+03 0.0000E+00 0.0000E+00
       23  2    1    2    0    0 0.62594627E+02 -.21553575E+03 0.11308667E+03 0.26830115E+03 0.93931695E+02 0.0000E+00 0.0000E+00
       23  1    3    3    0    0 -.30468972E+02 0.21581386E+03 0.42167918E+03 0.48335552E+03 0.91188000E+02 0.0000E+00 0.9000E+01
      -13  1    4    4    0    0 -.83128505E+01 -.85705980E+02 0.72595153E+01 0.86413715E+02 0.10565837E+00 0.0000E+00 0.9000E+01
       13  1    4    4    0    0 0.70907477E+02 -.12982977E+03 0.10582716E+03 0.18188744E+03 0.10565837E+00 0.0000E+00 0.9000E+01
       23  1    3    3    0    0 -.32125655E+02 -.27810325E+00 0.54173253E+03 0.55029222E+03 0.91188000E+02 0.0000E+00 0.9000E+01
#aMCatNLO 1  0  0  2  1 0.11695815D+03 0.00000000D+00  -5  7  0 0.00000000D+00 0.00000000D+00 0.00000000D+00 0.00000000D+00 0.00000000D+00
  <mgrwgt>
 0.1621582521D-03    9    2    0
 0.366135949975222D+03 0.000000000000000D+00 0.000000000000000D+00 0.366135949975222D+03
 0.366135949975222D+03 0.000000000000000D+00 0.000000000000000D+00 -.366135949975222D+03
 0.239483762605127D+03 -.304689720859998D+02 0.215813857771162D+03 0.391566308747344D+02
 0.142967879289382D+03 -.831294734100433D+01 -.857059253375356D+02 -.114128014865088D+03
 0.167813898255136D+03 0.709075741708896D+02 -.129829829645920D+03 -.792327943903036D+02
 0.182006359800798D+03 -.321256547438855D+02 -.278102787706089D+00 0.154204178380658D+03
 0.000000000000000D+00 0.000000000000000D+00 0.000000000000000D+00 -.000000000000000D+00
 0.402370913421452D+03 0.000000000000000D+00 0.000000000000000D+00 0.402370913421452D+03
 0.479017969280786D+03 0.000000000000000D+00 0.000000000000000D+00 -.479017969280786D+03
 0.208550019824252D+03 -.333167607016903D+02 0.180373532258982D+03 0.391566308747344D+02
 0.158531255084056D+03 -.102293336408355D+02 -.109555081099622D+03 -.114128014865088D+03
 0.189703538098671D+03 0.686351248041508D+02 -.158110139786721D+03 -.792327943903036D+02
 0.184768519744689D+03 -.344569461943367D+02 -.292906943166304D+02 0.154204178380658D+03
 0.139835549950570D+03 0.936791573271165D+01 0.116582382943991D+03 -.766470558593338D+02
0.228123976232D-05 0.000000000000D+00 0.000000000000D+00 0.106351438489D-06 0.000000000000D+00  7 2 -2 23 -13 13 23 21 0 0.18295748D+00 0.17342346D-01 0.80367218D+05 0.80367218D+05 0.80367218D+05 0.11295957D+01  1  2  2  2  7  2       -2 0.142694478839D-03 0.100000000000D+01
-.116650862121D-06 0.000000000000D+00 -.876056135155D-08 0.106351438489D-06 0.000000000000D+00  7 2 -2 23 -13 13 23 21 2 0.18295748D+00 0.17342346D-01 0.80367218D+05 0.80367218D+05 0.80367218D+05 0.11295957D+01  1  2  3  2  7  2       -2 -.931044016003D-05 0.100000000000D+01
0.141531839434D-06 0.000000000000D+00 0.000000000000D+00 0.106351438489D-06 0.000000000000D+00  7 2 -2 23 -13 13 23 21 2 0.18295748D+00 0.17342346D-01 0.80367218D+05 0.80367218D+05 0.80367218D+05 0.11295957D+01  1  2 15  2  7  2       -2 0.112963050408D-04 0.100000000000D+01
0.168705815684D-05 0.000000000000D+00 0.000000000000D+00 0.106351438489D-06 0.000000000000D+00  7 2 -2 23 -13 13 23 21 2 0.18295748D+00 0.23344654D-01 0.12460264D+06 0.12460264D+06 0.12460264D+06 0.11139662D+01  1  2 12  2  7  2       -2 0.794977415989D-04 0.100000000000D+01
-.212141181730D-05 0.000000000000D+00 0.000000000000D+00 0.106351438489D-06 0.000000000000D+00  7 2 -2 23 -13 13 23 21 2 0.18295748D+00 0.17342346D-01 0.80367218D+05 0.80367218D+05 0.80367218D+05 0.11295957D+01  1  2  4  2  7  2       -2 -.169319603993D-03 0.100000000000D+01
-.281598866452D-05 0.000000000000D+00 -.104264900895D-05 0.106351438489D-06 0.000000000000D+00  7 2 -2 23 -13 13 23 21 2 0.18295748D+00 0.24875474D-01 0.80367218D+05 0.80367218D+05 0.80367218D+05 0.11295957D+01  1  2  5  2  7  2       -2 -.123593341902D-03 0.100000000000D+01
0.305548413349D-05 0.000000000000D+00 0.978303940403D-06 0.106351438489D-06 0.000000000000D+00  7 2 -2 23 -13 13 23 21 2 0.18295748D+00 0.17342346D-01 0.80367218D+05 0.80367218D+05 0.80367218D+05 0.11295957D+01  1  2  6  2  7  2       -2 0.243872198349D-03 0.100000000000D+01
0.647758017836D-07 0.000000000000D+00 0.000000000000D+00 0.106351438489D-06 0.000000000000D+00  7 2 21 23 -13 13 23 2 2 0.18295748D+00 0.23344654D-01 0.12460264D+06 0.12460264D+06 0.12460264D+06 0.11139662D+01  1  2 12  4  7  2       -2 0.378164334886D-04 0.100000000000D+01
-.935261501522D-07 0.000000000000D+00 -.460343414607D-07 0.106351438489D-06 0.000000000000D+00  7 2 21 23 -13 13 23 2 2 0.18295748D+00 0.24875474D-01 0.80367218D+05 0.80367218D+05 0.80367218D+05 0.11295957D+01  1  2  5  4  7  2       -2 -.507955191983D-04 0.100000000000D+01
  </mgrwgt>
  </event>
  <event>
  8     66 0.55102590E-06 0.23692438E+03 0.75467711E-02 0.90380214E-01
        2 -1    0    0  501    0 0.00000000E+00 0.00000000E+00 0.20727304E+03 0.20727329E+03 0.32000000E+00 0.0000E+00 0.9000E+01
       -2 -1    0    0    0  501 0.00000000E+00 0.00000000E+00 -.13136403E+04 0.13136403E+04 0.32000000E+00 0.0000E+00 0.9000E+01
       25  2    1    2    0    0 0.39837314E+03 0.19685681E+03 -.35431103E+03 0.64265308E+03 0.30002153E+03 0.0000E+00 0.0000E+00
       23  2    1    2    0    0 -.39837314E+03 -.19685681E+03 -.75205623E+03 0.87826055E+03 0.91100300E+02 0.0000E+00 0.0000E+00
       23  1    3    3    0    0 0.29839198E+03 0.18238777E+03 -.35494372E+03 0.50656033E+03 0.91188000E+02 0.0000E+00 0.9000E+01
      -13  1    4    4    0    0 -.50243666E+02 -.44945229E+01 -.13508023E+03 0.14419191E+03 0.10565837E+00 0.0000E+00 0.9000E+01
       13  1    4    4    0    0 -.34812947E+03 -.19236228E+03 -.61697599E+03 0.73406864E+03 0.10565837E+00 0.0000E+00 0.9000E+01
       23  1    3    3    0    0 0.99981159E+02 0.14469031E+02 0.63268935E+00 0.13609275E+03 0.91188000E+02 0.0000E+00 0.9000E+01
#aMCatNLO 1  0  0  2  1 0.44286912D+03 0.00000000D+00  -5  7  0 0.00000000D+00 0.00000000D+00 0.00000000D+00 0.00000000D+00 0.00000000D+00
  <mgrwgt>
 0.2450121034D-03    7    2    0
 0.521806897946524D+03 0.000000000000000D+00 0.000000000000000D+00 0.521806897946524D+03
 0.521806897946524D+03 0.000000000000000D+00 0.000000000000000D+00 -.521806897946524D+03
 0.361950369335773D+03 0.298391976847443D+03 0.182387774388588D+03 0.197419964784520D+02
 0.669353031936019D+02 -.502432652675653D+02 -.449427023077580D+01 -.439971663174486D+02
 0.415722220703376D+03 -.348129870586097D+03 -.192362535537662D+03 -.120943015150837D+03
 0.199005902660297D+03 0.999811590062191D+02 0.144690313798493D+02 0.145198184989833D+03
 0.000000000000000D+00 -.000000000000000D+00 -.000000000000000D+00 -.000000000000000D+00
 0.624994896492095D+03 0.000000000000000D+00 0.000000000000000D+00 0.624994896492095D+03
 0.141010033273869D+04 0.000000000000000D+00 0.000000000000000D+00 -.141010033273869D+04
 0.540117538737929D+03 0.466871394575788D+03 0.255055011341127D+03 0.197419964784520D+02
 0.523796793441151D+02 -.279587802478636D+02 0.511730117139395D+01 -.439971663174486D+02
 0.283623236934617D+03 -.217512968644181D+03 -.136025865507594D+03 -.120943015150837D+03
 0.257573864225675D+03 0.185256660532216D+03 0.512493999209359D+02 0.145198184989833D+03
 0.901400909988453D+03 -.406656306215959D+03 -.175395846925863D+03 -.785105436246600D+03
0.979002421388D-04 0.000000000000D+00 0.000000000000D+00 0.175563936746D-05 0.000000000000D+00  7 2 -2 23 -13 13 23 21 0 0.31888182D-01 0.20209853D+00 0.22358123D+06 0.22358123D+06 0.22358123D+06 0.10941270D+01  1  2  2  2  7  2       -2 0.243576782964D-03 0.100000000000D+01
-.537469978464D-05 0.000000000000D+00 -.375962707539D-06 0.175563936746D-05 0.000000000000D+00  7 2 -2 23 -13 13 23 21 2 0.31888182D-01 0.20209853D+00 0.22358123D+06 0.22358123D+06 0.22358123D+06 0.10941270D+01  1  2  3  2  7  2       -2 -.160081733759D-04 0.100000000000D+01
0.605158742154D-05 0.000000000000D+00 0.000000000000D+00 0.175563936746D-05 0.000000000000D+00  7 2 -2 23 -13 13 23 21 2 0.31888182D-01 0.20209853D+00 0.22358123D+06 0.22358123D+06 0.22358123D+06 0.10941270D+01  1  2 15  2  7  2       -2 0.180242366133D-04 0.100000000000D+01
0.513564527056D-06 0.000000000000D+00 0.000000000000D+00 0.175563936746D-05 0.000000000000D+00  7 2 -2 23 -13 13 23 21 2 0.31888182D-01 0.53152621D+00 0.54785262D+06 0.54785262D+06 0.54785262D+06 0.10657163D+01  1  2 12  2  7  2       -2 0.447461207764D-08 0.100000000000D+01
-.587522358030D-04 0.000000000000D+00 -.253337310116D-04 0.175563936746D-05 0.000000000000D+00  7 2 -2 23 -13 13 23 21 2 0.31888182D-01 0.56414183D+00 0.22358123D+06 0.22358123D+06 0.22358123D+06 0.10941270D+01  1  2  5  2  7  2       -2 -.277241407114D-06 0.100000000000D+01
0.551344521890D-07 0.000000000000D+00 0.000000000000D+00 0.175563936746D-05 0.000000000000D+00  7 2 21 23 -13 13 23 2 2 0.31888182D-01 0.53152621D+00 0.54785262D+06 0.54785262D+06 0.54785262D+06 0.10657163D+01  1  2 12  4  7  2       -2 0.523711507012D-08 0.100000000000D+01
-.535009427579D-05 0.000000000000D+00 -.291884975497D-05 0.175563936746D-05 0.000000000000D+00  7 2 21 23 -13 13 23 2 2 0.31888182D-01 0.56414183D+00 0.22358123D+06 0.22358123D+06 0.22358123D+06 0.10941270D+01  1  2  5  4  7  2       -2 -.313213125185D-06 0.100000000000D+01
  </mgrwgt>
  </event>
  <event>
  8     66 0.55102590E-06 0.13011088E+03 0.75467711E-02 0.10250276E+00
        2 -1    0    0  501    0 0.00000000E+00 0.00000000E+00 0.13607256E+04 0.13607256E+04 0.32000000E+00 0.0000E+00 0.9000E+01
       -2 -1    0    0    0  501 0.00000000E+00 0.00000000E+00 -.56965277E+02 0.56966175E+02 0.32000000E+00 0.0000E+00 0.9000E+01
       25  2    1    2    0    0 0.93501111E+01 -.11892442E+03 0.47179076E+03 0.57243072E+03 0.30142988E+03 0.0000E+00 0.0000E+00
       23  2    1    2    0    0 -.93501111E+01 0.11892442E+03 0.83196956E+03 0.84526109E+03 0.89791457E+02 0.0000E+00 0.0000E+00
       23  1    3    3    0    0 0.85629313E+02 -.10023364E+03 0.11888587E+03 0.19957020E+03 0.91188000E+02 0.0000E+00 0.9000E+01
      -13  1    4    4    0    0 0.39047685E+02 0.71870753E+02 0.45007712E+03 0.45744896E+03 0.10565837E+00 0.0000E+00 0.9000E+01
       13  1    4    4    0    0 -.48397797E+02 0.47053671E+02 0.38189245E+03 0.38781213E+03 0.10565837E+00 0.0000E+00 0.9000E+01
       23  1    3    3    0    0 -.76279202E+02 -.18690780E+02 0.35290488E+03 0.37286052E+03 0.91188000E+02 0.0000E+00 0.9000E+01
#aMCatNLO 1  0  0  2  1 0.93424093D+02 0.00000000D+00  -5  7  0 0.00000000D+00 0.00000000D+00 0.00000000D+00 0.00000000D+00 0.00000000D+00
  <mgrwgt>
 0.1202288129D-03    9    2    0
 0.278414751497047D+03 0.000000000000000D+00 0.000000000000000D+00 0.278414751497047D+03
 0.278414751497047D+03 0.000000000000000D+00 0.000000000000000D+00 -.278414751497047D+03
 0.229747802794661D+03 0.856293132827073D+02 -.100233644890177D+03 -.164589303065953D+03
 0.110857934781422D+03 0.390478041840490D+02 0.718707879354756D+02 0.748287413627950D+02
 0.932095819673553D+02 -.483979153997359D+02 0.470536371386903D+02 0.642777036577194D+02
 0.123014183450656D+03 -.762792020670205D+02 -.186907801839888D+02 0.254828580454390D+02
 0.000000000000000D+00 0.000000000000000D+00 -.000000000000000D+00 -.000000000000000D+00
 0.299694748029023D+03 0.000000000000000D+00 0.000000000000000D+00 0.299694748029023D+03
 0.407791945216323D+03 0.000000000000000D+00 0.000000000000000D+00 -.407791945216323D+03
 0.216760592157140D+03 0.486767915435258D+02 -.959730912787843D+02 -.164589303065953D+03
 0.107280300500490D+03 0.209949344675196D+02 0.739522485678418D+02 0.748287413627950D+02
 0.103483322796651D+03 -.646759942027543D+02 0.489304678437840D+02 0.642777036577194D+02
 0.137088179458342D+03 -.978049747702296D+02 -.162089006176631D+02 0.254828580454390D+02
 0.142874298332723D+03 0.928092429619385D+02 -.107007245151784D+02 -.108097197187300D+03
0.853971195765D-06 0.000000000000D+00 0.000000000000D+00 0.125471681504D-07 0.000000000000D+00  7 2 -2 23 -13 13 23 21 0 0.20934247D+00 0.87639607D-02 0.46211025D+05 0.46211025D+05 0.46211025D+05 0.11503180D+01  1  2  2  2  7  2       -2 0.125322392424D-03 0.100000000000D+01
-.435845667536D-07 0.000000000000D+00 -.327947424752D-08 0.125471681504D-07 0.000000000000D+00  7 2 -2 23 -13 13 23 21 2 0.20934247D+00 0.87639607D-02 0.46211025D+05 0.46211025D+05 0.46211025D+05 0.11503180D+01  1  2  3  2  7  2       -2 -.846357792747D-05 0.100000000000D+01
0.534640991121D-07 0.000000000000D+00 0.000000000000D+00 0.125471681504D-07 0.000000000000D+00  7 2 -2 23 -13 13 23 21 2 0.20934247D+00 0.87639607D-02 0.46211025D+05 0.46211025D+05 0.46211025D+05 0.11503180D+01  1  2 15  2  7  2       -2 0.103820595881D-04 0.100000000000D+01
0.809534941580D-06 0.000000000000D+00 0.000000000000D+00 0.125471681504D-07 0.000000000000D+00  7 2 -2 23 -13 13 23 21 2 0.20934247D+00 0.13048469D-01 0.69471506D+05 0.69471506D+05 0.69471506D+05 0.11349395D+01  1  2 12  2  7  2       -2 0.826022991203D-04 0.100000000000D+01
-.105928282326D-05 0.000000000000D+00 0.000000000000D+00 0.125471681504D-07 0.000000000000D+00  7 2 -2 23 -13 13 23 21 2 0.20934247D+00 0.87639607D-02 0.46211025D+05 0.46211025D+05 0.46211025D+05 0.11503180D+01  1  2  4  2  7  2       -2 -.205699480107D-03 0.100000000000D+01
-.115071538488D-05 0.000000000000D+00 -.338170760002D-06 0.125471681504D-07 0.000000000000D+00  7 2 -2 23 -13 13 23 21 2 0.20934247D+00 0.13816535D-01 0.46211025D+05 0.46211025D+05 0.46211025D+05 0.11503180D+01  1  2  5  2  7  2       -2 -.110775879766D-03 0.100000000000D+01
0.120941645656D-05 0.000000000000D+00 0.305922429766D-06 0.125471681504D-07 0.000000000000D+00  7 2 -2 23 -13 13 23 21 2 0.20934247D+00 0.87639607D-02 0.46211025D+05 0.46211025D+05 0.46211025D+05 0.11503180D+01  1  2  6  2  7  2       -2 0.234853554580D-03 0.100000000000D+01
0.383938678800D-07 0.000000000000D+00 0.000000000000D+00 0.125471681504D-07 0.000000000000D+00  7 2 21 23 -13 13 23 2 2 0.20934247D+00 0.13048469D-01 0.69471506D+05 0.69471506D+05 0.69471506D+05 0.11349395D+01  1  2 12  4  7  2       -2 0.548985538893D-04 0.100000000000D+01
-.466722348625D-07 0.000000000000D+00 -.177277246534D-07 0.125471681504D-07 0.000000000000D+00  7 2 21 23 -13 13 23 2 2 0.20934247D+00 0.13816535D-01 0.46211025D+05 0.46211025D+05 0.46211025D+05 0.11503180D+01  1  2  5  4  7  2       -2 -.628911088791D-04 0.100000000000D+01
  </mgrwgt>
  </event>
  <event>
  8     66 0.55102590E-06 0.10162351E+03 0.75467711E-02 0.10102716E+00
        2 -1    0    0  501    0 0.00000000E+00 0.00000000E+00 0.13948768E+04 0.13948768E+04 0.32000000E+00 0.0000E+00 0.9000E+01
       -2 -1    0    0    0  501 0.00000000E+00 0.00000000E+00 -.76922969E+02 0.76923634E+02 0.32000000E+00 0.0000E+00 0.9000E+01
       25  2    1    2    0    0 0.13141745E+03 -.76040467E+02 0.12290088E+04 0.12738034E+04 0.29842886E+03 0.0000E+00 0.0000E+00
       23  2    1    2    0    0 -.13141745E+03 0.76040467E+02 0.88944963E+02 0.19799700E+03 0.90768420E+02 0.0000E+00 0.0000E+00
       23  1    3    3    0    0 0.13412680E+03 0.56503307E+02 0.70675714E+03 0.72732628E+03 0.91188000E+02 0.0000E+00 0.9000E+01
      -13  1    4    4    0    0 -.11320756E+03 0.32679943E+02 0.28169854E+02 0.12115066E+03 0.10565837E+00 0.0000E+00 0.9000E+01
       13  1    4    4    0    0 -.18209893E+02 0.43360525E+02 0.60775109E+02 0.76846343E+02 0.10565837E+00 0.0000E+00 0.9000E+01
       23  1    3    3    0    0 -.27093457E+01 -.13254377E+03 0.52225169E+03 0.54647715E+03 0.91188000E+02 0.0000E+00 0.9000E+01
#aMCatNLO 1  0  0  1  2 0.94794817D+02 0.00000000D+00  -5  7  0 0.00000000D+00 0.00000000D+00 0.00000000D+00 0.00000000D+00 0.00000000D+00
  <mgrwgt>
 0.3702115297D-03    9    2    0
 0.327564616536029D+03 0.000000000000000D+00 0.000000000000000D+00 0.327564616536029D+03
 0.327564616536029D+03 0.000000000000000D+00 0.000000000000000D+00 -.327564616536029D+03
 0.212180868382374D+03 0.134126796394315D+03 0.565033072282383D+02 0.124590723269301D+03
 0.215504303400586D+03 -.113207686054752D+03 0.326799286266366D+02 -.180438762097446D+03
 0.503771567492252D+02 -.182097647369801D+02 0.433605388968944D+02 -.180589605717149D+02
 0.177066904539874D+03 -.270934560258340D+01 -.132543774751769D+03 0.739069993998594D+02
 0.000000000000000D+00 -.000000000000000D+00 -.000000000000000D+00 0.000000000000000D+00
 0.383181464392076D+03 0.000000000000000D+00 0.000000000000000D+00 0.383181464392076D+03
 0.374008112418587D+03 0.000000000000000D+00 0.000000000000000D+00 -.374008112418587D+03
 0.234319780322195D+03 0.166185180181958D+03 0.587379406292393D+02 0.124590723269301D+03
 0.201736352722703D+03 -.832501459602043D+02 0.347681224716708D+02 -.180438762097446D+03
 0.487095694316275D+02 -.110954183068393D+02 0.438564452490172D+02 -.180589605717149D+02
 0.177186236357763D+03 0.227257420771857D+02 -.130770818982598D+03 0.739069993998594D+02
 0.952376379763745D+02 -.945653579921004D+02 -.659168936732905D+01 0.917335197348880D+01
0.271144373155D-05 0.000000000000D+00 0.000000000000D+00 0.801546529405D-07 0.000000000000D+00  7 2 -2 23 -13 13 23 21 0 0.21459648D+00 0.11834357D-01 0.61879992D+05 0.61879992D+05 0.61879992D+05 0.11392400D+01  1  2  2  1  7  1        2 0.240062538412D-03 0.100000000000D+01
-.136763872495D-06 0.000000000000D+00 -.104126578687D-07 0.801546529405D-07 0.000000000000D+00  7 2 -2 23 -13 13 23 21 2 0.21459648D+00 0.11834357D-01 0.61879992D+05 0.61879992D+05 0.61879992D+05 0.11392400D+01  1  2  3  1  7  1        2 -.157154078995D-04 0.100000000000D+01
0.163967385661D-06 0.000000000000D+00 0.000000000000D+00 0.801546529405D-07 0.000000000000D+00  7 2 -2 23 -13 13 23 21 2 0.21459648D+00 0.11834357D-01 0.61879992D+05 0.61879992D+05 0.61879992D+05 0.11392400D+01  1  2 15  1  7  1        2 0.188413380001D-04 0.100000000000D+01
0.155845620210D-05 0.000000000000D+00 0.000000000000D+00 0.801546529405D-07 0.000000000000D+00  7 2 -2 23 -13 13 23 21 2 0.26396481D+00 0.11834357D-01 0.86948132D+05 0.86948132D+05 0.86948132D+05 0.11267408D+01  1  2 12  1  7  1        2 0.117421125881D-03 0.100000000000D+01
-.160007702911D-05 0.000000000000D+00 0.000000000000D+00 0.801546529405D-07 0.000000000000D+00  7 2 -2 23 -13 13 23 21 2 0.21459648D+00 0.11834357D-01 0.61879992D+05 0.61879992D+05 0.61879992D+05 0.11392400D+01  1  2  4  1  7  1        2 -.183863345811D-03 0.100000000000D+01
-.394728302644D-05 0.000000000000D+00 -.144958938946D-05 0.801546529405D-07 0.000000000000D+00  7 2 -2 23 -13 13 23 21 2 0.27114304D+00 0.11834357D-01 0.61879992D+05 0.61879992D+05 0.61879992D+05 0.11392400D+01  1  2  5  1  7  1        2 -.289073079244D-03 0.100000000000D+01
0.420942746628D-05 0.000000000000D+00 0.141082486544D-05 0.801546529405D-07 0.000000000000D+00  7 2 -2 23 -13 13 23 21 2 0.21459648D+00 0.11834357D-01 0.61879992D+05 0.61879992D+05 0.61879992D+05 0.11392400D+01  1  2  6  1  7  1        2 0.483701349260D-03 0.100000000000D+01
0.457960470810D-07 0.000000000000D+00 0.000000000000D+00 0.801546529405D-07 0.000000000000D+00  7 21 -2 23 -13 13 23 -2 2 0.26396481D+00 0.11834357D-01 0.86948132D+05 0.86948132D+05 0.86948132D+05 0.11267408D+01  1  2 12  3  7  1        2 0.999334349186D-06 0.100000000000D+01
-.105387570334D-06 0.000000000000D+00 -.466938744164D-07 0.801546529405D-07 0.000000000000D+00  7 21 -2 23 -13 13 23 -2 2 0.27114304D+00 0.11834357D-01 0.61879992D+05 0.61879992D+05 0.61879992D+05 0.11392400D+01  1  2  5  3  7  1        2 -.216232324949D-05 0.100000000000D+01
  </mgrwgt>
  </event>
  <event>
  8     66 0.55102590E-06 0.13848446E+03 0.75467711E-02 0.10319254E+00
        2 -1    0    0  501    0 0.00000000E+00 0.00000000E+00 0.19392321E+04 0.19392321E+04 0.32000000E+00 0.0000E+00 0.9000E+01
       -2 -1    0    0    0  501 0.00000000E+00 0.00000000E+00 -.24438333E+02 0.24440428E+02 0.32000000E+00 0.0000E+00 0.9000E+01
       25  2    1    2    0    0 -.65895158E+02 0.52005732E+02 0.14274852E+04 0.14609306E+04 0.29926115E+03 0.0000E+00 0.0000E+00
       23  2    1    2    0    0 0.65895158E+02 -.52005732E+02 0.48730848E+03 0.50274194E+03 0.90736645E+02 0.0000E+00 0.0000E+00
       23  1    3    3    0    0 -.14912631E+03 -.46237260E+01 0.78280212E+03 0.80209379E+03 0.91188000E+02 0.0000E+00 0.9000E+01
      -13  1    4    4    0    0 0.65425182E+02 -.71217986E+02 0.45487939E+03 0.46504594E+03 0.10565837E+00 0.0000E+00 0.9000E+01
       13  1    4    4    0    0 0.46997618E+00 0.19212255E+02 0.32429092E+02 0.37696004E+02 0.10565837E+00 0.0000E+00 0.9000E+01
       23  1    3    3    0    0 0.83231155E+02 0.56629458E+02 0.64468312E+03 0.65883678E+03 0.91188000E+02 0.0000E+00 0.9000E+01
#aMCatNLO 1  0  0  2  1 0.68078964D+02 0.00000000D+00  -5  7  0 0.00000000D+00 0.00000000D+00 0.00000000D+00 0.00000000D+00 0.00000000D+00
  <mgrwgt>
 0.3942452846D-03    9    2    0
 0.217700901624643D+03 0.000000000000000D+00 0.000000000000000D+00 0.217700901624643D+03
 0.217700901624643D+03 0.000000000000000D+00 0.000000000000000D+00 -.217700901624643D+03
 0.174884298953903D+03 -.149126312410063D+03 -.462371609341604D+01 0.303823518870352D+01
 0.969168608732077D+02 0.654252819270554D+02 -.712181173850278D+02 0.635532551600760D+01
 0.273943385162019D+02 0.469892188655109D+00 0.192123731238216D+02 -.195221336698210D+02
 0.136206304905973D+03 0.832311382943521D+02 0.566294603546222D+02 0.101285729651099D+02
 0.000000000000000D+00 -.000000000000000D+00 -.000000000000000D+00 -.000000000000000D+00
 0.239011585704264D+03 0.000000000000000D+00 0.000000000000000D+00 0.239011585704264D+03
 0.282422167671167D+03 0.000000000000000D+00 0.000000000000000D+00 -.282422167671167D+03
 0.156740628922903D+03 -.127142845788967D+03 0.882265848643683D+01 0.303823518870352D+01
 0.101010785555412D+03 0.785459355417078D+02 -.631927578602559D+02 0.635532551600760D+01
 0.293573341389065D+02 0.423196915160407D+01 0.215134795377437D+02 -.195221336698210D+02
 0.153583293114027D+03 0.102441334572420D+03 0.683795405107480D+02 0.101285729651099D+02
 0.807417116441823D+02 -.580763934767651D+02 -.355229206746726D+02 -.434105819669026D+02
0.124218685886D-05 0.000000000000D+00 0.000000000000D+00 0.381428917749D-07 0.000000000000D+00  7 2 -2 23 -13 13 23 21 0 0.29834356D+00 0.37599068D-02 0.45499765D+05 0.45499765D+05 0.45499765D+05 0.11509158D+01  1  2  2  2  7  2       -2 0.316953238405D-03 0.100000000000D+01
-.689754936669D-07 0.000000000000D+00 -.477032461334D-08 0.381428917749D-07 0.000000000000D+00  7 2 -2 23 -13 13 23 21 2 0.29834356D+00 0.37599068D-02 0.45499765D+05 0.45499765D+05 0.45499765D+05 0.11509158D+01  1  2  3  2  7  2       -2 -.233125719609D-04 0.100000000000D+01
0.806421666623D-07 0.000000000000D+00 0.000000000000D+00 0.381428917749D-07 0.000000000000D+00  7 2 -2 23 -13 13 23 21 2 0.29834356D+00 0.37599068D-02 0.45499765D+05 0.45499765D+05 0.45499765D+05 0.11509158D+01  1  2 15  2  7  2       -2 0.272557137826D-04 0.100000000000D+01
0.105005002456D-05 0.000000000000D+00 0.000000000000D+00 0.381428917749D-07 0.000000000000D+00  7 2 -2 23 -13 13 23 21 2 0.29834356D+00 0.50198962D-02 0.62694030D+05 0.62694030D+05 0.62694030D+05 0.11387518D+01  1  2 12  2  7  2       -2 0.226336565509D-03 0.100000000000D+01
-.113530130233D-05 0.000000000000D+00 0.000000000000D+00 0.381428917749D-07 0.000000000000D+00  7 2 -2 23 -13 13 23 21 2 0.29834356D+00 0.37599068D-02 0.45499765D+05 0.45499765D+05 0.45499765D+05 0.11509158D+01  1  2  4  2  7  2       -2 -.383712995743D-03 0.100000000000D+01
-.176360099851D-05 0.000000000000D+00 -.568498370030D-06 0.381428917749D-07 0.000000000000D+00  7 2 -2 23 -13 13 23 21 2 0.29834356D+00 0.54279097D-02 0.45499765D+05 0.45499765D+05 0.45499765D+05 0.11509158D+01  1  2  5  2  7  2       -2 -.346739823520D-03 0.100000000000D+01
0.188043158754D-05 0.000000000000D+00 0.532220208116D-06 0.381428917749D-07 0.000000000000D+00  7 2 -2 23 -13 13 23 21 2 0.29834356D+00 0.37599068D-02 0.45499765D+05 0.45499765D+05 0.45499765D+05 0.11509158D+01  1  2  6  2  7  2       -2 0.635554664007D-03 0.100000000000D+01
0.395090391590D-07 0.000000000000D+00 0.000000000000D+00 0.381428917749D-07 0.000000000000D+00  7 2 21 23 -13 13 23 2 2 0.29834356D+00 0.50198962D-02 0.62694030D+05 0.62694030D+05 0.62694030D+05 0.11387518D+01  1  2 12  4  7  2       -2 0.140047485263D-03 0.100000000000D+01
-.616421417675D-07 0.000000000000D+00 -.254229080223D-07 0.381428917749D-07 0.000000000000D+00  7 2 21 23 -13 13 23 2 2 0.29834356D+00 0.54279097D-02 0.45499765D+05 0.45499765D+05 0.45499765D+05 0.11509158D+01  1  2  5  4  7  2       -2 -.198136991187D-03 0.100000000000D+01
  </mgrwgt>
  </event>
  <event>
  8     66 0.55102590E-06 0.15560620E+03 0.75467711E-02 0.10477961E+00
        2 -1    0    0  501    0 0.00000000E+00 0.00000000E+00 0.11132540E+04 0.11132540E+04 0.32000000E+00 0.0000E+00 0.9000E+01
       -2 -1    0    0    0  501 0.00000000E+00 0.00000000E+00 -.41600835E+02 0.41602066E+02 0.32000000E+00 0.0000E+00 0.9000E+01
       25  2    1    2    0    0 0.34824359E+02 0.54940606E+02 0.65092708E+03 0.71886431E+03 0.29804130E+03 0.0000E+00 0.0000E+00
       23  2    1    2    0    0 -.34824359E+02 -.54940606E+02 0.42072604E+03 0.43599176E+03 0.94059605E+02 0.0000E+00 0.0000E+00
       23  1    3    3    0    0 0.17624208E+00 -.43267911E+01 0.44079520E+02 0.10137558E+03 0.91188000E+02 0.0000E+00 0.9000E+01
      -13  1    4    4    0    0 0.24134308E+01 0.21032856E+02 0.17136220E+03 0.17266505E+03 0.10565837E+00 0.0000E+00 0.9000E+01
       13  1    4    4    0    0 -.37237790E+02 -.75973461E+02 0.24936385E+03 0.26332671E+03 0.10565837E+00 0.0000E+00 0.9000E+01
       23  1    3    3    0    0 0.34648117E+02 0.59267397E+02 0.60684756E+03 0.61748873E+03 0.91188000E+02 0.0000E+00 0.9000E+01
#aMCatNLO 1  0  0  1  2 0.11138411D+03 0.00000000D+00  -5  7  0 0.00000000D+00 0.00000000D+00 0.00000000D+00 0.00000000D+00 0.00000000D+00
  <mgrwgt>
 0.4261938526D-03    3    2    0
 0.215204626308087D+03 0.000000000000000D+00 0.000000000000000D+00 0.215204626308087D+03
 0.215204626308087D+03 0.000000000000000D+00 0.000000000000000D+00 -.215204626308087D+03
 0.162255444201381D+03 0.176272248652158D+00 -.432674218258746D+01 -.134137340286615D+03
 0.366219150316000D+02 0.241345882346385D+01 0.210329328119504D+02 0.298823629322909D+02
 0.856695261884735D+02 -.372378658352904D+02 -.759736136638032D+02 0.134394602664549D+02
 0.145862367194720D+03 0.346481347631744D+02 0.592674230344403D+02 0.908155170878689D+02
 0.000000000000000D+00 0.000000000000000D+00 -.000000000000000D+00 -.000000000000000D+00
 0.226607763313862D+03 0.000000000000000D+00 0.000000000000000D+00 0.226607763313862D+03
 0.941301238941646D+03 0.000000000000000D+00 0.000000000000000D+00 -.941301238941646D+03
 0.166614862893755D+03 -.212219291418116D+02 0.316554080282896D+02 -.134137340286615D+03
 0.421873894940441D+02 -.271432964907309D+01 0.296555666353079D+02 0.298823629322909D+02
 0.765187576074595D+02 -.477907722089118D+02 -.582283716517251D+02 0.134394602664549D+02
 0.159267051307721D+03 0.147946526870879D+02 0.926520501456266D+02 0.908155170878689D+02
 0.723320940952528D+03 0.569323783127086D+02 -.957346531574990D+02 -.714693475627784D+03
0.130298836884D-05 0.000000000000D+00 0.000000000000D+00 0.148239992534D-08 0.000000000000D+00  7 2 -2 23 -13 13 23 21 0 0.17126994D+00 0.64002266D-02 0.24213290D+05 0.24213290D+05 0.24213290D+05 0.11760706D+01  1  2  2  1  7  1        2 0.417273000469D-03 0.100000000000D+01
-.631340485419D-07 0.000000000000D+00 -.500381842108D-08 0.148239992534D-08 0.000000000000D+00  7 2 -2 23 -13 13 23 21 2 0.17126994D+00 0.64002266D-02 0.24213290D+05 0.24213290D+05 0.24213290D+05 0.11760706D+01  1  2  3  1  7  1        2 -.279647012597D-04 0.100000000000D+01
0.832740638843D-07 0.000000000000D+00 0.000000000000D+00 0.148239992534D-08 0.000000000000D+00  7 2 -2 23 -13 13 23 21 2 0.17126994D+00 0.64002266D-02 0.24213290D+05 0.24213290D+05 0.24213290D+05 0.11760706D+01  1  2 15  1  7  1        2 0.368855534056D-04 0.100000000000D+01
  </mgrwgt>
  </event>
  <event>
  8     66 0.55102590E-06 0.92362288E+03 0.75467711E-02 0.82780624E-01
        2 -1    0    0  501    0 0.00000000E+00 0.00000000E+00 0.16460319E+04 0.16460319E+04 0.32000000E+00 0.0000E+00 0.9000E+01
       -2 -1    0    0    0  501 0.00000000E+00 0.00000000E+00 -.59295928E+03 0.59295936E+03 0.32000000E+00 0.0000E+00 0.9000E+01
       25  2    1    2    0    0 0.86740486E+03 -.24416484E+03 0.15257561E+03 0.96165691E+03 0.29916056E+03 0.0000E+00 0.0000E+00
       23  2    1    2    0    0 -.86740486E+03 0.24416484E+03 0.90049697E+03 0.12773343E+04 0.93169561E+02 0.0000E+00 0.0000E+00
       23  1    3    3    0    0 0.67610053E+03 -.11054069E+03 0.16595167E+03 0.71076464E+03 0.91188000E+02 0.0000E+00 0.9000E+01
      -13  1    4    4    0    0 -.31000501E+03 0.42859493E+02 0.29495313E+03 0.43004349E+03 0.10565837E+00 0.0000E+00 0.9000E+01
       13  1    4    4    0    0 -.55739985E+03 0.20130535E+03 0.60554383E+03 0.84729085E+03 0.10565837E+00 0.0000E+00 0.9000E+01
       23  1    3    3    0    0 0.19130433E+03 -.13362415E+03 -.13376056E+02 0.25089227E+03 0.91188000E+02 0.0000E+00 0.9000E+01
#aMCatNLO 1  0  0  2  1 0.11386901D+04 0.00000000D+00  -5  7  0 0.00000000D+00 0.00000000D+00 0.00000000D+00 0.00000000D+00 0.00000000D+00
  <mgrwgt>
 0.1694387887D-03    3    2    0
 0.987942302451593D+03 0.000000000000000D+00 0.000000000000000D+00 0.987942302451593D+03
 0.987942302451593D+03 0.000000000000000D+00 0.000000000000000D+00 -.987942302451593D+03
 0.716963256708804D+03 0.676100527350171D+03 -.110540688569997D+03 -.190761351467708D+03
 0.330108234203622D+03 -.310004692592302D+03 0.428592891680900D+02 0.105031510470866D+03
 0.637383361622328D+03 -.557400167466083D+03 0.201305552720060D+03 0.234603234048112D+03
 0.291429752368433D+03 0.191304332708214D+03 -.133624153318153D+03 -.148873393051270D+03
 0.000000000000000D+00 0.000000000000000D+00 0.000000000000000D+00 0.000000000000000D+00
 0.216933650040635D+04 0.000000000000000D+00 0.000000000000000D+00 0.216933650040635D+04
 0.145524959073774D+04 0.000000000000000D+00 0.000000000000000D+00 -.145524959073774D+04
 0.645027065662894D+03 0.457767762855514D+03 -.402247990883925D+03 -.190761351467708D+03
 0.468279434234103D+03 -.437989586409250D+03 -.128137162961705D+03 0.105031510470866D+03
 0.835256215458490D+03 -.793470471848577D+03 -.114100299476395D+03 0.234603234048112D+03
 0.331949289841542D+03 0.913740561283253D+02 -.267137744226389D+03 -.148873393051270D+03
 0.134407408594706D+04 0.682318239273987D+03 0.911623197548414D+03 0.714086909668615D+03
0.126206276762D-03 0.000000000000D+00 0.000000000000D+00 0.217595625008D-06 0.000000000000D+00  7 2 -2 23 -13 13 23 21 0 0.25323568D+00 0.91224513D-01 0.85307922D+06 0.85307922D+06 0.85307922D+06 0.10524889D+01  1  2  2  2  7  2       -2 0.167790888936D-03 0.100000000000D+01
-.697282454578D-05 0.000000000000D+00 -.484665333640D-06 0.217595625008D-06 0.000000000000D+00  7 2 -2 23 -13 13 23 21 2 0.25323568D+00 0.91224513D-01 0.85307922D+06 0.85307922D+06 0.85307922D+06 0.10524889D+01  1  2  3  2  7  2       -2 -.102690719482D-04 0.100000000000D+01
0.809176850324D-05 0.000000000000D+00 0.000000000000D+00 0.217595625008D-06 0.000000000000D+00  7 2 -2 23 -13 13 23 21 2 0.25323568D+00 0.91224513D-01 0.85307922D+06 0.85307922D+06 0.85307922D+06 0.10524889D+01  1  2 15  2  7  2       -2 0.119169717240D-04 0.100000000000D+01
  </mgrwgt>
  </event>
  <event>
  8     66 0.55102590E-06 0.26695147E+03 0.75467711E-02 0.99897941E-01
        2 -1    0    0  501    0 0.00000000E+00 0.00000000E+00 0.47989125E+03 0.47989136E+03 0.32000000E+00 0.0000E+00 0.9000E+01
       -2 -1    0    0    0  502 0.00000000E+00 0.00000000E+00 -.39039231E+03 0.39039244E+03 0.32000000E+00 0.0000E+00 0.9000E+01
       25  2    1    2    0    0 0.41770639E+02 -.12877622E+03 0.20706315E+03 0.38873985E+03 0.29985900E+03 0.0000E+00 0.0000E+00
       23  1    3    3    0    0 -.17569733E+01 0.24120000E+02 -.20512814E+02 0.96544747E+02 0.91188000E+02 0.0000E+00 0.9000E+01
      -11  1    1    2    0    0 0.71924860E+02 -.75063951E+02 -.18362866E+02 0.10556977E+03 0.51099893E-03 0.0000E+00 0.9000E+01
       11  1    1    2    0    0 -.25292725E+02 0.16331732E+03 0.71061745E+02 0.17989453E+03 0.51099893E-03 0.0000E+00 0.9000E+01
       23  1    3    3    0    0 0.43527612E+02 -.15289622E+03 0.22757596E+03 0.29219510E+03 0.91188000E+02 0.0000E+00 0.9000E+01
       21  1    1    2  501  502 -.88402774E+02 0.40522849E+02 -.17026308E+03 0.19607965E+03 0.75000000E+00 0.0000E+00 0.9000E+01
#aMCatNLO 2  0  0  2  1 0.97247888D+02 0.00000000D+00  -5  7  0 0.00000000D+00 0.00000000D+00 0.00000000D+00 0.00000000D+00 0.00000000D+00
  <mgrwgt>
 0.8653689929D-04    2    2    0
 0.307253059697596D+03 0.000000000000000D+00 0.000000000000000D+00 0.307253059697596D+03
 0.307253059697596D+03 0.000000000000000D+00 0.000000000000000D+00 -.307253059697596D+03
 0.116438267555295D+03 -.181717303766805D+02 0.316442739254199D+02 -.625383638267637D+02
 0.108290748553843D+03 0.554575306908471D+02 -.675153775140408D+02 -.639767325764765D+02
 0.181740318020692D+03 -.500991233243253D+02 0.174688356785833D+03 0.189711356061562D+01
 0.208036785265362D+03 0.128133230101586D+02 -.138817253197212D+03 0.124617982842625D+03
 0.000000000000000D+00 -.000000000000000D+00 0.000000000000000D+00 -.000000000000000D+00
 0.319674987532251D+03 0.000000000000000D+00 0.000000000000000D+00 0.319674987532251D+03
 0.586049575069718D+03 0.000000000000000D+00 0.000000000000000D+00 -.586049575069718D+03
 0.113186379841599D+03 -.175698191365105D+01 0.241199357808672D+02 -.625383638267637D+02
 0.122068724877214D+03 0.719248082906727D+02 -.750637944307165D+02 -.639767325764765D+02
 0.165275157377106D+03 -.252926759067364D+02 0.163317357165863D+03 0.189711356061562D+01
 0.221623193669520D+03 0.435276237561769D+02 -.152896347080803D+03 0.124617982842625D+03
 0.283571106836531D+03 -.884027742264621D+02 0.405228485647896D+02 -.266374587537467D+03
-.267158726893D-04 0.000000000000D+00 0.000000000000D+00 0.879893441317D-10 0.000000000000D+00  7 2 -2 23 -11 11 23 21 2 0.70960471D-01 0.60150831D-01 0.10371008D+06 0.10371008D+06 0.10371008D+06 0.11204261D+01  1  2 13  2  7  2       -2 -.734204701055D-03 0.100000000000D+01
0.311090097028D-04 0.000000000000D+00 0.000000000000D+00 0.879893441317D-10 0.730789939900D-13  7 2 -2 23 -11 11 23 21 2 0.73829330D-01 0.60060282D-01 0.10371008D+06 0.10371008D+06 0.10371008D+06 0.11204261D+01  1  2  1  2  7  2       -2 0.820741600345D-03 0.100000000000D+01
  </mgrwgt>
  </event>
  <event>
  8     66 0.55102590E-06 0.14900590E+03 0.75467711E-02 0.95865654E-01
        2 -1    0    0  501    0 0.00000000E+00 0.00000000E+00 0.26603257E+04 0.26603257E+04 0.32000000E+00 0.0000E+00 0.9000E+01
       -2 -1    0    0    0  501 0.00000000E+00 0.00000000E+00 -.46428569E+02 0.46429671E+02 0.32000000E+00 0.0000E+00 0.9000E+01
       25  2    1    2    0    0 0.13753825E+03 -.13781016E+03 0.75404195E+03 0.83453716E+03 0.29994101E+03 0.0000E+00 0.0000E+00
       23  2    1    2    0    0 -.13753825E+03 0.13781016E+03 0.18598552E+04 0.18722182E+04 0.90726927E+02 0.0000E+00 0.0000E+00
       23  1    3    3    0    0 0.10540082E+03 -.19724380E+03 0.46425253E+03 0.52331645E+03 0.91188000E+02 0.0000E+00 0.9000E+01
      -11  1    4    4    0    0 -.43604856E+02 0.90328826E+02 0.11810565E+04 0.11853081E+04 0.51099893E-03 0.0000E+00 0.9000E+01
       11  1    4    4    0    0 -.93933390E+02 0.47481333E+02 0.67879861E+03 0.68691012E+03 0.51099893E-03 0.0000E+00 0.9000E+01
       23  1    3    3    0    0 0.32137428E+02 0.59433639E+02 0.28978942E+03 0.31122071E+03 0.91188000E+02 0.0000E+00 0.9000E+01
#aMCatNLO 1  0  0  1  2 0.27134750D+03 0.00000000D+00  -5  7  0 0.00000000D+00 0.00000000D+00 0.00000000D+00 0.00000000D+00 0.00000000D+00
  <mgrwgt>
 0.2280738010D-03    8    2    0
 0.351449329755276D+03 0.000000000000000D+00 0.000000000000000D+00 0.351449329755276D+03
 0.351449329755276D+03 0.000000000000000D+00 0.000000000000000D+00 -.351449329755276D+03
 0.288777441580613D+03 0.105400817700930D+03 -.197243798721163D+03 -.158312068130844D+03
 0.172398561464252D+03 -.436048559769640D+02 0.903288262969112D+02 0.140216203307586D+03
 0.120910641715660D+03 -.939333895025165D+02 0.474813331312738D+02 0.595098699438868D+02
 0.120812014750027D+03 0.321374277785501D+02 0.594336392929776D+02 -.414140051206287D+02
 0.000000000000000D+00 0.000000000000000D+00 -.000000000000000D+00 0.000000000000000D+00
 0.617711394071283D+03 0.000000000000000D+00 0.000000000000000D+00 0.617711394071283D+03
 0.453112396615843D+03 0.000000000000000D+00 0.000000000000000D+00 -.453112396615843D+03
 0.262879814417386D+03 0.294775361665518D+01 -.188995093367182D+03 -.158312068130844D+03
 0.204376071224698D+03 -.113578947985192D+03 0.959625833011278D+02 0.140216203307586D+03
 0.167223533643746D+03 -.147445291706290D+03 0.517896856257087D+02 0.595098699438868D+02
 0.118976611628697D+03 -.123958022985486D+02 0.630191005639540D+02 -.414140051206287D+02
 0.317367759772599D+03 0.270472288373375D+03 -.217762761236089D+02 0.164598997455440D+03
0.390090414743D-05 0.000000000000D+00 0.000000000000D+00 0.509261376105D-06 0.000000000000D+00  7 2 -2 23 -11 11 23 21 0 0.40928096D+00 0.71429430D-02 0.78557495D+05 0.78557495D+05 0.78557495D+05 0.11304259D+01  1  2  2  1  7  1        2 0.152407045996D-03 0.100000000000D+01
-.203226091125D-06 0.000000000000D+00 -.149804990578D-07 0.509261376105D-06 0.000000000000D+00  7 2 -2 23 -11 11 23 21 2 0.40928096D+00 0.71429430D-02 0.78557495D+05 0.78557495D+05 0.78557495D+05 0.11304259D+01  1  2  3  1  7  1        2 -.101462011315D-04 0.100000000000D+01
0.251428449612D-06 0.000000000000D+00 0.000000000000D+00 0.509261376105D-06 0.000000000000D+00  7 2 -2 23 -11 11 23 21 2 0.40928096D+00 0.71429430D-02 0.78557495D+05 0.78557495D+05 0.78557495D+05 0.11304259D+01  1  2 15  1  7  1        2 0.125527367369D-04 0.100000000000D+01
0.191895881981D-08 0.000000000000D+00 0.000000000000D+00 0.509261376105D-06 0.000000000000D+00  7 2 -2 23 -11 11 23 21 2 0.74180792D+00 0.71429430D-02 0.20147321D+06 0.20147321D+06 0.20147321D+06 0.10975807D+01  1  2 12  1  7  1        2 0.169722630385D-08 0.100000000000D+01
-.113249961017D-05 0.000000000000D+00 -.837345816581D-06 0.509261376105D-06 0.000000000000D+00  7 2 -2 23 -11 11 23 21 2 0.74465057D+00 0.71429430D-02 0.78557495D+05 0.78557495D+05 0.78557495D+05 0.11304259D+01  1  2  5  1  7  1        2 -.109535825711D-05 0.100000000000D+01
0.148929584387D-05 0.000000000000D+00 0.706907308673D-06 0.509261376105D-06 0.000000000000D+00  7 2 -2 23 -11 11 23 21 2 0.40928096D+00 0.71429430D-02 0.78557495D+05 0.78557495D+05 0.78557495D+05 0.11304259D+01  1  2  6  1  7  1        2 0.743541102061D-04 0.100000000000D+01
0.124971987964D-09 0.000000000000D+00 0.000000000000D+00 0.509261376105D-06 0.000000000000D+00  7 21 -2 23 -11 11 23 -2 2 0.74180792D+00 0.71429430D-02 0.20147321D+06 0.20147321D+06 0.20147321D+06 0.10975807D+01  1  2 12  3  7  1        2 0.903761323038D-12 0.100000000000D+01
-.289429192543D-07 0.000000000000D+00 -.548395110141D-07 0.509261376105D-06 0.000000000000D+00  7 21 -2 23 -11 11 23 -2 2 0.74465057D+00 0.71429430D-02 0.78557495D+05 0.78557495D+05 0.78557495D+05 0.11304259D+01  1  2  5  3  7  1        2 -.230703732512D-09 0.100000000000D+01
  </mgrwgt>
  </event>
  <event>
  9     66 0.55102590E-06 0.33050813E+03 0.75467711E-02 0.97472785E-01
        2 -1    0    0  501    0 0.00000000E+00 0.00000000E+00 0.14527245E+04 0.14527246E+04 0.32000000E+00 0.0000E+00 0.9000E+01
       21 -1    0    0  502  501 0.00000000E+00 0.00000000E+00 -.27571647E+03 0.27571749E+03 0.75000000E+00 0.0000E+00 0.9000E+01
       25  2    1    2    0    0 -.13723789E+03 -.19446852E+03 0.72651933E+03 0.82115927E+03 0.29969979E+03 0.0000E+00 0.0000E+00
       23  2    1    2    0    0 0.79267245E+02 0.28285811E+03 -.11930865E+03 0.32776361E+03 0.83080807E+02 0.0000E+00 0.0000E+00
       23  1    3    3    0    0 -.11974568E+03 0.12644010E+02 0.35494946E+03 0.38575027E+03 0.91188000E+02 0.0000E+00 0.9000E+01
      -11  1    4    4    0    0 0.18437429E+02 0.10921448E+02 0.59623283E+01 0.22243340E+02 0.51099893E-03 0.0000E+00 0.9000E+01
       11  1    4    4    0    0 0.60829816E+02 0.27193667E+03 -.12527098E+03 0.30552027E+03 0.51099893E-03 0.0000E+00 0.9000E+01
       23  1    3    3    0    0 -.17492208E+02 -.20711253E+03 0.37156987E+03 0.43540900E+03 0.91188000E+02 0.0000E+00 0.9000E+01
        2  1    1    2  502    0 0.57970648E+02 -.88389596E+02 0.56979737E+03 0.57951916E+03 0.32000000E+00 0.0000E+00 0.9000E+01
#aMCatNLO 2  0  0  2  2 0.10570391D+03 0.00000000D+00  -5  7  0 0.00000000D+00 0.00000000D+00 0.00000000D+00 0.00000000D+00 0.00000000D+00
  <mgrwgt>
 0.6857942652D-04    1    2    0
 0.484805541321452D+03 0.000000000000000D+00 0.000000000000000D+00 0.484805541321452D+03
 0.484805541321452D+03 0.000000000000000D+00 0.000000000000000D+00 -.484805541321452D+03
 0.226491710377846D+03 -.106037781150222D+03 -.825684408826268D+01 0.177963639601807D+03
 0.227297114569221D+02 0.197852156011269D+02 0.886643730416171D+01 -.682431799253457D+01
 0.419317684818707D+03 0.863788806312957D+02 0.232981235361679D+03 -.337765826797133D+03
 0.301071975989429D+03 -.126315082201081D+00 -.233590828577578D+03 0.166626505187860D+03
 0.000000000000000D+00 0.000000000000000D+00 -.000000000000000D+00 0.000000000000000D+00
 0.806842734563648D+03 0.000000000000000D+00 0.000000000000000D+00 0.806842734563648D+03
 0.496429903854111D+03 0.000000000000000D+00 0.000000000000000D+00 -.496429903854111D+03
 0.233420668243367D+03 -.119745684719363D+03 0.126440100422757D+02 0.177963639601807D+03
 0.224897339796143D+02 0.184374288784637D+02 0.109214483820681D+02 -.682431799253457D+01
 0.437876204159707D+03 0.608298158172540D+02 0.271936665282565D+03 -.337765826797133D+03
 0.281569209899052D+03 -.174922081584288D+02 -.207112527486386D+03 0.166626505187860D+03
 0.327916822136017D+03 0.579706481820740D+02 -.883895962205237D+02 0.310412830709537D+03
0.550219880176D-06 0.000000000000D+00 0.000000000000D+00 0.343993846129D-07 0.142741973350D-12  7 2 21 23 -11 11 23 2 2 0.22349613D+00 0.42417993D-01 0.15358841D+06 0.15358841D+06 0.15358841D+06 0.11067426D+01  1  2  1  4  7  2       -2 0.685794265222D-04 0.100000000000D+01
  </mgrwgt>
  </event>
  <event>
  8     66 0.55102590E-06 0.63823535E+03 0.75467711E-02 0.83070203E-01
        2 -1    0    0  501    0 0.00000000E+00 0.00000000E+00 0.18660112E+04 0.18660112E+04 0.32000000E+00 0.0000E+00 0.9000E+01
       -2 -1    0    0    0  501 0.00000000E+00 0.00000000E+00 -.60686881E+03 0.60686889E+03 0.32000000E+00 0.0000E+00 0.9000E+01
       25  2    1    2    0    0 -.47686093E+03 0.88719407E+03 0.94570961E+03 0.14140862E+04 0.30126993E+03 0.0000E+00 0.0000E+00
       23  2    1    2    0    0 0.47686093E+03 -.88719407E+03 0.31343274E+03 0.10587938E+04 0.91074754E+02 0.0000E+00 0.0000E+00
       23  1    3    3    0    0 -.40776823E+03 0.69948833E+03 0.83972108E+03 0.11700451E+04 0.91188000E+02 0.0000E+00 0.9000E+01
      -13  1    4    4    0    0 0.17006744E+03 -.32494537E+03 0.16016665E+03 0.40020719E+03 0.10565837E+00 0.0000E+00 0.9000E+01
       13  1    4    4    0    0 0.30679349E+03 -.56224870E+03 0.15326608E+03 0.65858664E+03 0.10565837E+00 0.0000E+00 0.9000E+01
       23  1    3    3    0    0 -.69092700E+02 0.18770575E+03 0.10598853E+03 0.24404112E+03 0.91188000E+02 0.0000E+00 0.9000E+01
#aMCatNLO 1  0  0  2  1 0.95354388D+03 0.00000000D+00  -5  7  0 0.00000000D+00 0.00000000D+00 0.00000000D+00 0.00000000D+00 0.00000000D+00
  <mgrwgt>
 0.2287592140D-03    7    2    0
 0.106415417244147D+04 0.000000000000000D+00 0.000000000000000D+00 0.106415417244147D+04
 0.106415417244147D+04 0.000000000000000D+00 0.000000000000000D+00 -.106415417244147D+04
 0.862681816942100D+03 -.407768233671041D+03 0.699488329301468D+03 0.283453366038159D+03
 0.370242828680818D+03 0.170067256960865D+03 -.324945050712870D+03 -.506714349174266D+02
 0.674537045856456D+03 0.306793676747044D+03 -.562249024128199D+03 -.211551178223315D+03
 0.220846653403562D+03 -.690927000368684D+02 0.187705745539601D+03 -.212307528974170D+02
 0.000000000000000D+00 0.000000000000000D+00 0.000000000000000D+00 -.000000000000000D+00
 0.138891643769387D+04 0.000000000000000D+00 0.000000000000000D+00 0.138891643769387D+04
 0.218614549611288D+04 0.000000000000000D+00 0.000000000000000D+00 -.218614549611288D+04
 0.746131640444259D+03 -.560995645990662D+03 0.391580448936356D+03 0.283453366038159D+03
 0.502095196116323D+03 0.869836044752459D+02 -.491900238055433D+03 -.506714349174266D+02
 0.903426941190954D+03 0.156504445041070D+03 -.864252680495905D+03 -.211551178223315D+03
 0.180500235047469D+03 -.107317980213099D+03 0.110892694811611D+03 -.212307528974170D+02
 0.124290792100775D+04 0.424825576687445D+03 0.853679774803371D+03 -.797229058419006D+03
0.250693998560D-03 0.000000000000D+00 0.000000000000D+00 0.143173829061D-05 0.000000000000D+00  7 2 -2 23 -13 13 23 21 0 0.28707865D+00 0.93364440D-01 0.10423105D+07 0.10423105D+07 0.10423105D+07 0.10466680D+01  1  2  2  2  7  2       -2 0.235307858406D-03 0.100000000000D+01
-.138983359778D-04 0.000000000000D+00 -.962730963715D-06 0.143173829061D-05 0.000000000000D+00  7 2 -2 23 -13 13 23 21 2 0.28707865D+00 0.93364440D-01 0.10423105D+07 0.10423105D+07 0.10423105D+07 0.10466680D+01  1  2  3  2  7  2       -2 -.142913492095D-04 0.100000000000D+01
0.156801845696D-04 0.000000000000D+00 0.000000000000D+00 0.143173829061D-05 0.000000000000D+00  7 2 -2 23 -13 13 23 21 2 0.28707865D+00 0.93364440D-01 0.10423105D+07 0.10423105D+07 0.10423105D+07 0.10466680D+01  1  2 15  2  7  2       -2 0.161235844142D-04 0.100000000000D+01
0.799015777498D-06 0.000000000000D+00 0.000000000000D+00 0.143173829061D-05 0.000000000000D+00  7 2 -2 23 -13 13 23 21 2 0.28707865D+00 0.19323005D+00 0.25613200D+07 0.25613200D+07 0.25613200D+07 0.10217098D+01  1  2 12  2  7  2       -2 0.101994560945D-06 0.100000000000D+01
-.775254868548D-04 0.000000000000D+00 -.725200024035D-04 0.143173829061D-05 0.000000000000D+00  7 2 -2 23 -13 13 23 21 2 0.28707865D+00 0.22574070D+00 0.10423105D+07 0.10423105D+07 0.10423105D+07 0.10466680D+01  1  2  5  2  7  2       -2 -.668228969720D-05 0.100000000000D+01
0.628440195741D-07 0.000000000000D+00 0.000000000000D+00 0.143173829061D-05 0.000000000000D+00  7 2 21 23 -13 13 23 2 2 0.28707865D+00 0.19323005D+00 0.25613200D+07 0.25613200D+07 0.25613200D+07 0.10217098D+01  1  2 12  4  7  2       -2 0.595989740588D-07 0.100000000000D+01
-.294984333616D-05 0.000000000000D+00 -.701231696332D-05 0.143173829061D-05 0.000000000000D+00  7 2 21 23 -13 13 23 2 2 0.28707865D+00 0.22574070D+00 0.10423105D+07 0.10423105D+07 0.10423105D+07 0.10466680D+01  1  2  5  4  7  2       -2 -.186018342597D-05 0.100000000000D+01
  </mgrwgt>
  </event>
  <event>
  8     66 0.55102590E-06 0.15580647E+03 0.75467711E-02 0.99277491E-01
        2 -1    0    0  501    0 0.00000000E+00 0.00000000E+00 0.37346307E+03 0.37346320E+03 0.32000000E+00 0.0000E+00 0.9000E+01
       -2 -1    0    0    0  501 0.00000000E+00 0.00000000E+00 -.26838988E+03 0.26839007E+03 0.32000000E+00 0.0000E+00 0.9000E+01
       25  2    1    2    0    0 -.10210339E+03 0.18011506E+03 0.17468110E+03 0.40478760E+03 0.30078726E+03 0.0000E+00 0.0000E+00
       23  2    1    2    0    0 0.10210339E+03 -.18011506E+03 -.69607907E+02 0.23706568E+03 0.92132168E+02 0.0000E+00 0.0000E+00
       23  1    3    3    0    0 0.44313567E+02 0.55025739E+02 -.18918970E+02 0.11689612E+03 0.91188000E+02 0.0000E+00 0.9000E+01
      -13  1    4    4    0    0 0.27719504E+01 -.43001122E+02 0.17679859E+02 0.46576483E+02 0.10565837E+00 0.0000E+00 0.9000E+01
       13  1    4    4    0    0 0.99331439E+02 -.13711394E+03 -.87287766E+02 0.19048919E+03 0.10565837E+00 0.0000E+00 0.9000E+01
       23  1    3    3    0    0 -.14641696E+03 0.12508932E+03 0.19360007E+03 0.28789147E+03 0.91188000E+02 0.0000E+00 0.9000E+01
#aMCatNLO 1  0  0  1  2 0.12264014D+03 0.00000000D+00  -5  7  0 0.00000000D+00 0.00000000D+00 0.00000000D+00 0.00000000D+00 0.00000000D+00
  <mgrwgt>
 0.1664215842D-03    9    2    0
 0.316597238305483D+03 0.000000000000000D+00 0.000000000000000D+00 0.316597238305483D+03
 0.316597238305483D+03 0.000000000000000D+00 0.000000000000000D+00 -.316597238305483D+03
 0.121634088905979D+03 0.443135653228160D+02 0.550257396600985D+02 -.385755899919524D+02
 0.442793704351881D+02 0.277182383043145D+01 -.430009981969192D+02 0.101928304635274D+02
 0.207578961280942D+03 0.993315663919798D+02 -.137114063783093D+03 -.120091625842424D+03
 0.259702055988857D+03 -.146416955545227D+03 0.125089322319914D+03 0.148474385370849D+03
 0.000000000000000D+00 0.000000000000000D+00 0.000000000000000D+00 0.000000000000000D+00
 0.440003671058001D+03 0.000000000000000D+00 0.000000000000000D+00 0.440003671058001D+03
 0.354476046029830D+03 0.000000000000000D+00 0.000000000000000D+00 -.354476046029830D+03
 0.111976178831666D+03 0.406458914743055D+02 0.329127428934892D+02 -.385755899919524D+02
 0.532308145757459D+02 0.124091699576412D+01 -.522310822456213D+02 0.101928304635274D+02
 0.234487655818144D+03 0.923911344215208D+02 -.178959046750692D+03 -.120091625842424D+03
 0.245267248095192D+03 -.154344957720926D+03 0.772901194142095D+02 0.148474385370849D+03
 0.149517819767084D+03 0.200670148293356D+02 0.120987266688615D+03 0.855276250281714D+02
0.268363308586D-05 0.000000000000D+00 0.000000000000D+00 0.112042784141D-06 0.000000000000D+00  7 2 -2 23 -13 13 23 21 0 0.57455882D-01 0.41290775D-01 0.73124976D+05 0.73124976D+05 0.73124976D+05 0.11330507D+01  1  2  2  1  7  1        2 0.155119217385D-03 0.100000000000D+01
-.144584447324D-06 0.000000000000D+00 -.103058576665D-07 0.112042784141D-06 0.000000000000D+00  7 2 -2 23 -13 13 23 21 2 0.57455882D-01 0.41290775D-01 0.73124976D+05 0.73124976D+05 0.73124976D+05 0.11330507D+01  1  2  3  1  7  1        2 -.107290861155D-04 0.100000000000D+01
0.169274334475D-06 0.000000000000D+00 0.000000000000D+00 0.112042784141D-06 0.000000000000D+00  7 2 -2 23 -13 13 23 21 2 0.57455882D-01 0.41290775D-01 0.73124976D+05 0.73124976D+05 0.73124976D+05 0.11330507D+01  1  2 15  1  7  1        2 0.125612328667D-04 0.100000000000D+01
0.164927882203D-05 0.000000000000D+00 0.000000000000D+00 0.112042784141D-06 0.000000000000D+00  7 2 -2 23 -13 13 23 21 2 0.82240879D-01 0.41290775D-01 0.11445716D+06 0.11445716D+06 0.11445716D+06 0.11169412D+01  1  2 12  1  7  1        2 0.797968571891D-04 0.100000000000D+01
-.227491697333D-05 0.000000000000D+00 0.000000000000D+00 0.112042784141D-06 0.000000000000D+00  7 2 -2 23 -13 13 23 21 2 0.57455882D-01 0.41290775D-01 0.73124976D+05 0.73124976D+05 0.73124976D+05 0.11330507D+01  1  2  4  1  7  1        2 -.168813316814D-03 0.100000000000D+01
-.294198959850D-05 0.000000000000D+00 -.111770553345D-05 0.112042784141D-06 0.000000000000D+00  7 2 -2 23 -13 13 23 21 2 0.87062841D-01 0.41290775D-01 0.73124976D+05 0.73124976D+05 0.73124976D+05 0.11330507D+01  1  2  5  1  7  1        2 -.138099472479D-03 0.100000000000D+01
0.321488385210D-05 0.000000000000D+00 0.102766427839D-05 0.112042784141D-06 0.000000000000D+00  7 2 -2 23 -13 13 23 21 2 0.57455882D-01 0.41290775D-01 0.73124976D+05 0.73124976D+05 0.73124976D+05 0.11330507D+01  1  2  6  1  7  1        2 0.238564841094D-03 0.100000000000D+01
0.725117351723D-07 0.000000000000D+00 0.000000000000D+00 0.112042784141D-06 0.000000000000D+00  7 21 -2 23 -13 13 23 -2 2 0.82240879D-01 0.41290775D-01 0.11445716D+06 0.11445716D+06 0.11445716D+06 0.11169412D+01  1  2 12  3  7  1        2 0.627956574812D-05 0.100000000000D+01
-.103888932530D-06 0.000000000000D+00 -.547253640452D-07 0.112042784141D-06 0.000000000000D+00  7 21 -2 23 -13 13 23 -2 2 0.87062841D-01 0.41290775D-01 0.73124976D+05 0.73124976D+05 0.73124976D+05 0.11330507D+01  1  2  5  3  7  1        2 -.825825462601D-05 0.100000000000D+01
  </mgrwgt>
  </event>
  <event>
  8     66 0.55102590E-06 0.53160233E+03 0.75467711E-02 0.91265839E-01
        2 -1    0    0  501    0 0.00000000E+00 0.00000000E+00 0.20200063E+04 0.20200064E+04 0.32000000E+00 0.0000E+00 0.9000E+01
       -2 -1    0    0    0  501 0.00000000E+00 0.00000000E+00 -.46823156E+03 0.46823167E+03 0.32000000E+00 0.0000E+00 0.9000E+01
       25  2    1    2    0    0 -.20120742E+03 -.44521644E+03 -.24542471E+03 0.62354141E+03 0.29978075E+03 0.0000E+00 0.0000E+00
       23  2    1    2    0    0 0.20120742E+03 0.44521644E+03 0.17971995E+04 0.18646966E+04 0.92007592E+02 0.0000E+00 0.0000E+00
       23  1    3    3    0    0 -.17214028E+03 -.42666578E+03 -.16516125E+03 0.49726196E+03 0.91188000E+02 0.0000E+00 0.9000E+01
      -13  1    4    4    0    0 0.91537831E+02 0.10536553E+03 0.46908181E+03 0.48940660E+03 0.10565837E+00 0.0000E+00 0.9000E+01
       13  1    4    4    0    0 0.10966959E+03 0.33985091E+03 0.13281177E+04 0.13752900E+04 0.10565837E+00 0.0000E+00 0.9000E+01
       23  1    3    3    0    0 -.29067145E+02 -.18550656E+02 -.80263461E+02 0.12627945E+03 0.91188000E+02 0.0000E+00 0.9000E+01
#aMCatNLO 1  0  0  2  2 0.26350555D+03 0.00000000D+00  -5  7  0 0.00000000D+00 0.00000000D+00 0.00000000D+00 0.00000000D+00 0.00000000D+00
  <mgrwgt>
 0.3551512289D-03    4    2    0
 0.972538377336381D+03 0.000000000000000D+00 0.000000000000000D+00 0.972538377336381D+03
 0.972538377336381D+03 0.000000000000000D+00 0.000000000000000D+00 -.972538377336381D+03
 0.767887017598833D+03 -.172140280025196D+03 -.426665782119216D+03 -.607996097696585D+03
 0.251840784608166D+03 0.915378071744731D+02 0.105365220877715D+03 0.209625334535538D+03
 0.699772171268044D+03 0.109669617440158D+03 0.339851217094540D+03 0.601793001729899D+03
 0.225576781197719D+03 -.290671445894354D+02 -.185506558530391D+02 -.203422238568851D+03
 0.000000000000000D+00 0.000000000000000D+00 -.000000000000000D+00 0.000000000000000D+00
 0.130077168599443D+04 0.000000000000000D+00 0.000000000000000D+00 0.130077168599443D+04
 0.103577902369425D+04 0.000000000000000D+00 0.000000000000000D+00 -.103577902369425D+04
 0.719289370398350D+03 -.180657547649166D+03 -.326749969681971D+03 -.607996097696585D+03
 0.267310570711350D+03 0.885645545957672D+02 0.140244358190070D+03 0.209625334535538D+03
 0.750776815796797D+03 0.101362120075203D+03 0.437306220880467D+03 0.601793001729899D+03
 0.225467800972627D+03 -.316503401321378D+02 0.117527340048782D+02 -.203422238568851D+03
 0.373706151809556D+03 0.223812131103333D+02 -.262553343393445D+03 0.264992662300186D+03
0.258080851177D-03 0.000000000000D+00 0.000000000000D+00 0.531380982176D-05 0.000000000000D+00  7 2 -2 23 -13 13 23 21 0 0.31077022D+00 0.72035635D-01 0.28260104D+06 0.28260104D+06 0.28260104D+06 0.10864768D+01  1  2  2  2  7  2       -2 0.389996479673D-03 0.100000000000D+01
-.797780419589D-05 0.000000000000D+00 -.991098422769D-06 0.531380982176D-05 0.000000000000D+00  7 2 -2 23 -13 13 23 21 2 0.31077022D+00 0.72035635D-01 0.28260104D+06 0.28260104D+06 0.28260104D+06 0.10864768D+01  1  2  3  2  7  2       -2 -.142307962459D-04 0.100000000000D+01
0.157997615973D-04 0.000000000000D+00 0.000000000000D+00 0.531380982176D-05 0.000000000000D+00  7 2 -2 23 -13 13 23 21 2 0.31077022D+00 0.72035635D-01 0.28260104D+06 0.28260104D+06 0.28260104D+06 0.10864768D+01  1  2 15  2  7  2       -2 0.281835931924D-04 0.100000000000D+01
-.273562535306D-04 0.000000000000D+00 0.000000000000D+00 0.531380982176D-05 0.000000000000D+00  7 2 -2 23 -13 13 23 21 2 0.31077022D+00 0.72035635D-01 0.28260104D+06 0.28260104D+06 0.28260104D+06 0.10864768D+01  1  2  4  2  7  2       -2 -.487980477443D-04 0.100000000000D+01
  </mgrwgt>
  </event>
  <event>
  9     66 0.55102590E-06 0.64345295E+03 0.75467711E-02 0.91625542E-01
        2 -1    0    0  501    0 0.00000000E+00 0.00000000E+00 0.21416381E+04 0.21416381E+04 0.32000000E+00 0.0000E+00 0.9000E+01
       -2 -1    0    0    0  502 0.00000000E+00 0.00000000E+00 -.20470406E+03 0.20470431E+03 0.32000000E+00 0.0000E+00 0.9000E+01
       25  2    1    2    0    0 -.60099037E+03 -.10180447E+03 0.99842182E+03 0.12076592E+04 0.30006827E+03 0.0000E+00 0.0000E+00
       23  2    1    2    0    0 0.60415974E+03 0.74788710E+02 0.87727805E+03 0.10716752E+04 0.90931793E+02 0.0000E+00 0.0000E+00
       23  1    3    3    0    0 -.47704509E+03 0.90397466E+01 0.77439227E+03 0.91414024E+03 0.91188000E+02 0.0000E+00 0.9000E+01
      -13  1    4    4    0    0 0.45333258E+02 0.22215737E+02 0.43901668E+02 0.66902996E+02 0.10565837E+00 0.0000E+00 0.9000E+01
       13  1    4    4    0    0 0.55882648E+03 0.52572973E+02 0.83337638E+03 0.10047722E+04 0.10565837E+00 0.0000E+00 0.9000E+01
       23  1    3    3    0    0 -.12394528E+03 -.11084422E+03 0.22402954E+03 0.29351893E+03 0.91188000E+02 0.0000E+00 0.9000E+01
       21  1    1    2  501  502 -.31693696E+01 0.27015763E+02 0.61234140E+02 0.67008050E+02 0.75000000E+00 0.0000E+00 0.9000E+01
#aMCatNLO 2  0  0  2  1 0.27201036D+02 0.00000000D+00  -5  7  0 0.00000000D+00 0.00000000D+00 0.00000000D+00 0.00000000D+00 0.00000000D+00
  <mgrwgt>
 0.9499594955D-04    2    2    0
 0.647374548036987D+03 0.000000000000000D+00 0.000000000000000D+00 0.647374548036987D+03
 0.647374548036987D+03 0.000000000000000D+00 0.000000000000000D+00 -.647374548036987D+03
 0.488789620442588D+03 -.478239655718063D+03 0.192222566650499D+02 0.389535397079811D+02
 0.545306861469807D+02 0.451995423138657D+02 0.233495851886433D+02 -.196314537871210D+02
 0.561265397546534D+03 0.557453243904505D+03 0.642844159744110D+02 0.114996176563873D+02
 0.190163391937872D+03 -.124413130500308D+03 -.106856257828104D+03 -.308217035772475D+02
 0.000000000000000D+00 -.000000000000000D+00 0.000000000000000D+00 0.000000000000000D+00
 0.667497700962118D+03 0.000000000000000D+00 0.000000000000000D+00 0.667497700962118D+03
 0.656775218470581D+03 0.000000000000000D+00 0.000000000000000D+00 -.656775218470581D+03
 0.487325726088220D+03 -.477045088738267D+03 0.903974658543353D+01 0.389535397079811D+02
 0.541661572320854D+02 0.453325651788069D+02 0.222156959333791D+02 -.196314537871210D+02
 0.561412480332271D+03 0.558827173662527D+03 0.525730143984678D+02 0.114996176563873D+02
 0.192130430521779D+03 -.123945280487998D+03 -.110844219613979D+03 -.308217035772475D+02
 0.292381252583432D+02 -.316936961506887D+01 0.270157626966982D+02 0.107224824915377D+02
-.255391998960D-04 0.000000000000D+00 0.000000000000D+00 0.283862609862D-05 0.000000000000D+00  7 2 -2 23 -13 13 23 21 2 0.31954751D+00 0.31041957D-01 0.41403170D+06 0.41403170D+06 0.41403170D+06 0.10743499D+01  1  2  8  2  7  2       -2 -.212822014643D-03 0.100000000000D+01
0.413606898701D-04 0.000000000000D+00 0.000000000000D+00 0.283862609862D-05 0.235694286411D-07  7 2 -2 23 -13 13 23 21 2 0.32948040D+00 0.31492724D-01 0.43190373D+06 0.43190373D+06 0.43190373D+06 0.10730333D+01  1  2  1  2  7  2       -2 0.307817964189D-03 0.100000000000D+01
  </mgrwgt>
  </event>
  <event>
  7     66 0.55102590E-06 0.21703056E+03 0.75467711E-02 0.96581865E-01
        2 -1    0    0  501    0 0.00000000E+00 0.00000000E+00 0.14881569E+04 0.14881570E+04 0.32000000E+00 0.0000E+00 0.9000E+01
       -2 -1    0    0    0  501 0.00000000E+00 0.00000000E+00 -.59038459E+03 0.59038467E+03 0.32000000E+00 0.0000E+00 0.9000E+01
       25  2    1    2    0    0 0.22265429E+03 0.69636907E+02 -.50756437E+03 0.63393500E+03 0.29971281E+03 0.0000E+00 0.0000E+00
       23  1    3    3    0    0 0.25838470E+03 0.42584494E+02 -.39029842E+03 0.47877364E+03 0.91188000E+02 0.0000E+00 0.9000E+01
      -11  1    1    2    0    0 -.83594749E+02 0.56119029E+02 0.19130557E+03 0.21618337E+03 0.51099893E-03 0.0000E+00 0.9000E+01
       11  1    1    2    0    0 -.13905954E+03 -.12575594E+03 0.12140311E+04 0.12284233E+04 0.51099893E-03 0.0000E+00 0.9000E+01
       23  1    3    3    0    0 -.35730407E+02 0.27052412E+02 -.11726595E+03 0.15516137E+03 0.91188000E+02 0.0000E+00 0.9000E+01
#aMCatNLO 1  0  0  1  2 0.14897274D+03 0.00000000D+00  -5  7  0 0.00000000D+00 0.00000000D+00 0.00000000D+00 0.00000000D+00 0.00000000D+00
  <mgrwgt>
 0.5548516536D-03    9    2    0
 0.937328674646157D+03 0.000000000000000D+00 0.000000000000000D+00 0.937328674646157D+03
 0.937328674646157D+03 0.000000000000000D+00 0.000000000000000D+00 -.937328674646157D+03
 0.717757874690285D+03 0.258384697511226D+03 0.425844942694648D+02 -.662030984377440D+03
 0.148078945331489D+03 -.835947479915505D+02 0.561190283294953D+02 0.108581521531375D+03
 0.780625500945128D+03 -.139059542326989D+03 -.125755935084900D+03 0.757775732789434D+03
 0.228195028325411D+03 -.357304071926860D+02 0.270524124859398D+02 -.204326269943369D+03
 0.000000000000000D+00 0.000000000000000D+00 0.000000000000000D+00 0.000000000000000D+00
 0.119664468965688D+04 0.000000000000000D+00 0.000000000000000D+00 0.119664468965688D+04
 0.961925815496145D+03 0.000000000000000D+00 0.000000000000000D+00 -.961925815496145D+03
 0.703832210558278D+03 0.220860295130148D+03 0.484803686468943D+00 -.662030984377440D+03
 0.149636754092430D+03 -.914532747330294D+02 0.473023244445244D+02 0.108581521531375D+03
 0.797899392405241D+03 -.180726408100234D+03 -.172503172757135D+03 0.757775732789434D+03
 0.229198859466227D+03 -.478038118050556D+02 0.135069176556108D+02 -.204326269943369D+03
 0.278003288630846D+03 0.991231995081702D+02 0.111209126970531D+03 0.234718874160731D+03
0.638647049354D-03 0.000000000000D+00 0.000000000000D+00 0.141845063408D-08 0.000000000000D+00  7 2 -2 23 -11 11 23 21 0 0.22894723D+00 0.90828407D-01 0.11124642D+06 0.11124642D+06 0.11124642D+06 0.11179434D+01  1  2  2  1  7  1        2 0.117467569046D-02 0.100000000000D+01
0.105779220749D-04 0.000000000000D+00 -.245257282915D-05 0.141845063408D-08 0.000000000000D+00  7 2 -2 23 -11 11 23 21 2 0.22894723D+00 0.90828407D-01 0.11124642D+06 0.11124642D+06 0.11124642D+06 0.11179434D+01  1  2  3  1  7  1        2 0.243162767927D-04 0.100000000000D+01
0.396430804705D-04 0.000000000000D+00 0.000000000000D+00 0.141845063408D-08 0.000000000000D+00  7 2 -2 23 -11 11 23 21 2 0.22894723D+00 0.90828407D-01 0.11124642D+06 0.11124642D+06 0.11124642D+06 0.11179434D+01  1  2 15  1  7  1        2 0.911305746829D-04 0.100000000000D+01
0.122929509137D-02 0.000000000000D+00 0.000000000000D+00 0.141845063408D-08 0.000000000000D+00  7 2 -2 23 -11 11 23 21 2 0.29470407D+00 0.90828407D-01 0.17832016D+06 0.17832016D+06 0.17832016D+06 0.11016731D+01  1  2 12  1  7  1        2 0.156957378223D-02 0.100000000000D+01
-.170883319922D-02 0.000000000000D+00 0.000000000000D+00 0.141845063408D-08 0.000000000000D+00  7 2 -2 23 -11 11 23 21 2 0.22894723D+00 0.90828407D-01 0.11124642D+06 0.11124642D+06 0.11124642D+06 0.11179434D+01  1  2  4  1  7  1        2 -.392822529516D-02 0.100000000000D+01
-.163475729738D-02 0.000000000000D+00 -.313756771923D-03 0.141845063408D-08 0.000000000000D+00  7 2 -2 23 -11 11 23 21 2 0.29497383D+00 0.90828407D-01 0.11124642D+06 0.11124642D+06 0.11124642D+06 0.11179434D+01  1  2  5  1  7  1        2 -.221227093802D-02 0.100000000000D+01
0.167016472092D-02 0.000000000000D+00 0.303946389615D-03 0.141845063408D-08 0.000000000000D+00  7 2 -2 23 -11 11 23 21 2 0.22894723D+00 0.90828407D-01 0.11124642D+06 0.11124642D+06 0.11124642D+06 0.11179434D+01  1  2  6  1  7  1        2 0.383933511286D-02 0.100000000000D+01
0.419071760887D-04 0.000000000000D+00 0.000000000000D+00 0.141845063408D-08 0.000000000000D+00  7 21 -2 23 -11 11 23 -2 2 0.29470407D+00 0.90828407D-01 0.17832016D+06 0.17832016D+06 0.17832016D+06 0.11016731D+01  1  2 12  3  7  1        2 0.119531720523D-04 0.100000000000D+01
-.505027057289D-04 0.000000000000D+00 -.107246282491D-04 0.141845063408D-08 0.000000000000D+00  7 21 -2 23 -11 11 23 -2 2 0.29497383D+00 0.90828407D-01 0.11124642D+06 0.11124642D+06 0.11124642D+06 0.11179434D+01  1  2  5  3  7  1        2 -.156367223162D-04 0.100000000000D+01
  </mgrwgt>
  </event>
  <event>
  8     66 0.55102590E-06 0.30124083E+03 0.75467711E-02 0.92575062E-01
        2 -1    0    0  501    0 0.00000000E+00 0.00000000E+00 0.14329389E+03 0.14329425E+03 0.32000000E+00 0.0000E+00 0.9000E+01
       -2 -1    0    0    0  501 0.00000000E+00 0.00000000E+00 -.77969776E+03 0.77969782E+03 0.32000000E+00 0.0000E+00 0.9000E+01
       25  2    1    2    0    0 0.20314551E+03 0.80922696E+02 -.56376652E+03 0.67491588E+03 0.29977021E+03 0.0000E+00 0.0000E+00
       23  2    1    2    0    0 -.20314551E+03 -.80922696E+02 -.72637345E+02 0.24807618E+03 0.91918601E+02 0.0000E+00 0.0000E+00
       23  1    3    3    0    0 0.15310194E+03 0.15845429E+03 -.32388165E+03 0.40219714E+03 0.91188000E+02 0.0000E+00 0.9000E+01
      -11  1    4    4    0    0 -.12794897E+03 -.59271028E+01 -.20322903E+02 0.12968844E+03 0.51099893E-03 0.0000E+00 0.9000E+01
       11  1    4    4    0    0 -.75196535E+02 -.74995593E+02 -.52314442E+02 0.11838775E+03 0.51099893E-03 0.0000E+00 0.9000E+01
       23  1    3    3    0    0 0.50043569E+02 -.77531599E+02 -.23988488E+03 0.27271874E+03 0.91188000E+02 0.0000E+00 0.9000E+01
#aMCatNLO 1  0  0  2  1 0.47325539D+03 0.00000000D+00  -5  7  0 0.00000000D+00 0.00000000D+00 0.00000000D+00 0.00000000D+00 0.00000000D+00
  <mgrwgt>
 0.8858105939D-04    5    2    0
 0.334254571923904D+03 0.000000000000000D+00 0.000000000000000D+00 0.334254571923904D+03
 0.334254571923904D+03 0.000000000000000D+00 0.000000000000000D+00 -.334254571923904D+03
 0.246975287126127D+03 0.153101939432728D+03 0.158454294693427D+03 -.642928747387974D+02
 0.159710343831124D+03 -.127948973688709D+03 -.592710278529693D+01 0.954008569732701D+02
 0.113652654170778D+03 -.751965351084610D+02 -.749955932296504D+02 0.404730515760456D+02
 0.148170858719781D+03 0.500435693644423D+02 -.775315986784801D+02 -.715810338105183D+02
 0.000000000000000D+00 -.000000000000000D+00 -.000000000000000D+00 -.000000000000000D+00
 0.607290003344604D+03 0.000000000000000D+00 0.000000000000000D+00 0.607290003344604D+03
 0.692676199567511D+03 0.000000000000000D+00 0.000000000000000D+00 -.692676199567511D+03
 0.426623175679295D+03 0.364961140685289D+03 0.190687898751337D+03 -.642928747387974D+02
 0.105500952589012D+03 -.445351054492903D+02 0.676401275687288D+01 0.954008569732701D+02
 0.786355798142879D+02 -.147183215854151D+02 -.657940538237332D+02 0.404730515760456D+02
 0.208309971131375D+03 0.162163397488118D+03 -.604729761338255D+02 -.715810338105183D+02
 0.480896523698146D+03 -.467871111138702D+03 -.711848815506514D+02 -.853861962229070D+02
0.517311512026D-05 0.000000000000D+00 0.000000000000D+00 0.184580414263D-06 0.000000000000D+00  7 2 -2 23 -11 11 23 21 0 0.22045246D-01 0.11995353D+00 0.90746039D+05 0.90746039D+05 0.90746039D+05 0.11251993D+01  1  2  2  2  7  2       -2 0.867669232007D-04 0.100000000000D+01
-.283616361578D-06 0.000000000000D+00 -.198661241743D-07 0.184580414263D-06 0.000000000000D+00  7 2 -2 23 -11 11 23 21 2 0.22045246D-01 0.11995353D+00 0.90746039D+05 0.90746039D+05 0.90746039D+05 0.11251993D+01  1  2  3  2  7  2       -2 -.602271386947D-05 0.100000000000D+01
0.324279408292D-06 0.000000000000D+00 0.000000000000D+00 0.184580414263D-06 0.000000000000D+00  7 2 -2 23 -11 11 23 21 2 0.22045246D-01 0.11995353D+00 0.90746039D+05 0.90746039D+05 0.90746039D+05 0.11251993D+01  1  2 15  2  7  2       -2 0.688621093311D-05 0.100000000000D+01
0.593859982445D-06 0.000000000000D+00 -.149332017112D-05 0.184580414263D-06 0.000000000000D+00  7 2 -2 23 -11 11 23 21 2 0.22045246D-01 0.35084089D+00 0.90746039D+05 0.90746039D+05 0.90746039D+05 0.11251993D+01  1  2  5  2  7  2       -2 0.327199926092D-06 0.100000000000D+01
0.150284554002D-06 0.000000000000D+00 -.181474273754D-06 0.184580414263D-06 0.000000000000D+00  7 2 21 23 -11 11 23 2 2 0.22045246D-01 0.35084089D+00 0.90746039D+05 0.90746039D+05 0.90746039D+05 0.11251993D+01  1  2  5  4  7  2       -2 0.623439202113D-06 0.100000000000D+01
  </mgrwgt>
  </event>
  <event>
  8     66 0.55102590E-06 0.55449809E+03 0.75467711E-02 0.87105647E-01
        2 -1    0    0  501    0 0.00000000E+00 0.00000000E+00 0.73143955E+03 0.73143962E+03 0.32000000E+00 0.0000E+00 0.9000E+01
       -2 -1    0    0    0  501 0.00000000E+00 0.00000000E+00 -.15419717E+04 0.15419717E+04 0.32000000E+00 0.0000E+00 0.9000E+01
       25  2    1    2    0    0 -.36514643E+03 -.73129985E+03 -.10987536E+04 0.14019161E+04 0.29996336E+03 0.0000E+00 0.0000E+00
       23  2    1    2    0    0 0.36514643E+03 0.73129985E+03 0.28822141E+03 0.87149523E+03 0.91109673E+02 0.0000E+00 0.0000E+00
       23  1    3    3    0    0 -.25175156E+03 -.24742056E+03 -.49105884E+03 0.61159612E+03 0.91188000E+02 0.0000E+00 0.9000E+01
      -13  1    4    4    0    0 0.75520239E+02 0.82041951E+02 0.41054291E+02 0.11882615E+03 0.10565837E+00 0.0000E+00 0.9000E+01
       13  1    4    4    0    0 0.28962619E+03 0.64925790E+03 0.24716712E+03 0.75266908E+03 0.10565837E+00 0.0000E+00 0.9000E+01
       23  1    3    3    0    0 -.11339487E+03 -.48387928E+03 -.60769472E+03 0.79031998E+03 0.91188000E+02 0.0000E+00 0.9000E+01
#aMCatNLO 1  0  0  1  2 0.33588758D+03 0.00000000D+00  -5  7  0 0.00000000D+00 0.00000000D+00 0.00000000D+00 0.00000000D+00 0.00000000D+00
  <mgrwgt>
 0.3083217323D-03    9    2    0
 0.106200715209205D+04 0.000000000000000D+00 0.000000000000000D+00 0.106200715209205D+04
 0.106200715209205D+04 0.000000000000000D+00 0.000000000000000D+00 -.106200715209205D+04
 0.467224061213878D+03 -.251751564196005D+03 -.247420562914186D+03 -.292211031628311D+03
 0.142849499262297D+03 0.755199511154214D+02 0.820411882048487D+02 0.892858323640990D+02
 0.899930606128110D+03 0.289626482596009D+03 0.649258659422740D+03 0.551774219758189D+03
 0.614010137579813D+03 -.113394869515425D+03 -.483879284713403D+03 -.348849020493977D+03
 0.000000000000000D+00 -.000000000000000D+00 -.000000000000000D+00 0.000000000000000D+00
 0.170110614352261D+04 0.000000000000000D+00 0.000000000000000D+00 0.170110614352261D+04
 0.112026747278121D+04 0.000000000000000D+00 0.000000000000000D+00 -.112026747278121D+04
 0.425334233464346D+03 -.183467621383602D+03 -.231400742676562D+03 -.292211031628311D+03
 0.159214812947031D+03 0.986289652196548D+02 0.874627007387046D+02 0.892858323640990D+02
 0.979154857184344D+03 0.433383327478284D+03 0.682984872615628D+03 0.551774219758189D+03
 0.586704715738769D+03 -.215358336778081D+02 -.462328607047308D+03 -.348849020493977D+03
 0.670964996969330D+03 -.327008837636528D+03 -.767182236304629D+02 0.580838670741408D+03
0.103147903897D-02 0.000000000000D+00 0.000000000000D+00 0.101584049824D-04 0.000000000000D+00  7 2 -2 23 -13 13 23 21 0 0.11252917D+00 0.23722642D+00 0.71596277D+06 0.71596277D+06 0.71596277D+06 0.10576622D+01  1  2  2  1  7  1        2 0.335814038872D-03 0.100000000000D+01
-.537070747161D-04 0.000000000000D+00 -.396115110433D-05 0.101584049824D-04 0.000000000000D+00  7 2 -2 23 -13 13 23 21 2 0.11252917D+00 0.23722642D+00 0.71596277D+06 0.71596277D+06 0.71596277D+06 0.10576622D+01  1  2  3  1  7  1        2 -.195597773614D-04 0.100000000000D+01
0.647215786474D-04 0.000000000000D+00 0.000000000000D+00 0.101584049824D-04 0.000000000000D+00  7 2 -2 23 -13 13 23 21 2 0.11252917D+00 0.23722642D+00 0.71596277D+06 0.71596277D+06 0.71596277D+06 0.10576622D+01  1  2 15  1  7  1        2 0.235711901181D-04 0.100000000000D+01
0.152163638014D-02 0.000000000000D+00 0.000000000000D+00 0.101584049824D-04 0.000000000000D+00  7 2 -2 23 -13 13 23 21 2 0.18178040D+00 0.23722642D+00 0.10582095D+07 0.10582095D+07 0.10582095D+07 0.10462322D+01  1  2 12  1  7  1        2 0.268123186785D-03 0.100000000000D+01
-.176217794482D-02 0.000000000000D+00 0.000000000000D+00 0.101584049824D-04 0.000000000000D+00  7 2 -2 23 -13 13 23 21 2 0.11252917D+00 0.23722642D+00 0.71596277D+06 0.71596277D+06 0.71596277D+06 0.10576622D+01  1  2  4  1  7  1        2 -.641774076395D-03 0.100000000000D+01
-.189893858497D-02 0.000000000000D+00 -.364824570124D-03 0.101584049824D-04 0.000000000000D+00  7 2 -2 23 -13 13 23 21 2 0.18442768D+00 0.23722642D+00 0.71596277D+06 0.71596277D+06 0.71596277D+06 0.10576622D+01  1  2  5  1  7  1        2 -.343549557358D-03 0.100000000000D+01
0.188483937406D-02 0.000000000000D+00 0.324420351738D-03 0.101584049824D-04 0.000000000000D+00  7 2 -2 23 -13 13 23 21 2 0.11252917D+00 0.23722642D+00 0.71596277D+06 0.71596277D+06 0.71596277D+06 0.10576622D+01  1  2  6  1  7  1        2 0.686446594113D-03 0.100000000000D+01
0.830326050926D-04 0.000000000000D+00 0.000000000000D+00 0.101584049824D-04 0.000000000000D+00  7 21 -2 23 -13 13 23 -2 2 0.18178040D+00 0.23722642D+00 0.10582095D+07 0.10582095D+07 0.10582095D+07 0.10462322D+01  1  2 12  3  7  1        2 0.735153192236D-05 0.100000000000D+01
-.898251794781D-04 0.000000000000D+00 -.203759151608D-04 0.101584049824D-04 0.000000000000D+00  7 21 -2 23 -13 13 23 -2 2 0.18442768D+00 0.23722642D+00 0.71596277D+06 0.71596277D+06 0.71596277D+06 0.10576622D+01  1  2  5  3  7  1        2 -.810139840540D-05 0.100000000000D+01
  </mgrwgt>
  </event>
  <event>
  8     66 0.55102590E-06 0.24480678E+03 0.75467711E-02 0.94001273E-01
        2 -1    0    0  501    0 0.00000000E+00 0.00000000E+00 0.22205424E+04 0.22205424E+04 0.32000000E+00 0.0000E+00 0.9000E+01
       -2 -1    0    0    0  501 0.00000000E+00 0.00000000E+00 -.46771949E+02 0.46773044E+02 0.32000000E+00 0.0000E+00 0.9000E+01
       25  2    1    2    0    0 0.14084869E+03 0.96710355E+02 0.70376600E+03 0.78458348E+03 0.30181684E+03 0.0000E+00 0.0000E+00
       23  2    1    2    0    0 -.14084869E+03 -.96710355E+02 0.14700044E+04 0.14827320E+04 0.91595954E+02 0.0000E+00 0.0000E+00
       23  1    3    3    0    0 0.18069969E+03 0.61210942E+02 0.60131028E+03 0.63740761E+03 0.91188000E+02 0.0000E+00 0.9000E+01
      -11  1    4    4    0    0 -.12556996E+03 -.76057465E+02 0.87946665E+03 0.89163566E+03 0.51099893E-03 0.0000E+00 0.9000E+01
       11  1    4    4    0    0 -.15278728E+02 -.20652890E+02 0.59053780E+03 0.59109633E+03 0.51099893E-03 0.0000E+00 0.9000E+01
       23  1    3    3    0    0 -.39851001E+02 0.35499413E+02 0.10245572E+03 0.14717587E+03 0.91188000E+02 0.0000E+00 0.9000E+01
#aMCatNLO 1  0  0  1  2 0.40153144D+03 0.00000000D+00  -5  7  0 0.00000000D+00 0.00000000D+00 0.00000000D+00 0.00000000D+00 0.00000000D+00
  <mgrwgt>
 0.3508393196D-03    3    2    0
 0.322273740069032D+03 0.000000000000000D+00 0.000000000000000D+00 0.322273740069032D+03
 0.322273740069032D+03 0.000000000000000D+00 0.000000000000000D+00 -.322273740069032D+03
 0.214248939103109D+03 0.180699688393990D+03 0.612109416117328D+02 -.344702742102207D+02
 0.170446241380844D+03 -.125569959836101D+03 -.760574650837689D+02 0.865988937149204D+02
 0.876711792768999D+02 -.152787280202211D+02 -.206528899476468D+02 0.838227551604982D+02
 0.172181120377211D+03 -.398510005376679D+02 0.354994134196829D+02 -.135951374665198D+03
 0.000000000000000D+00 0.000000000000000D+00 0.000000000000000D+00 -.000000000000000D+00
 0.464623682180345D+03 0.000000000000000D+00 0.000000000000000D+00 0.464623682180345D+03
 0.854282580635277D+03 0.000000000000000D+00 0.000000000000000D+00 -.854282580635277D+03
 0.148137651291014D+03 0.110519618271314D+03 -.150574419824035D+02 -.344702742102207D+02
 0.288649884195368D+03 -.214478874073095D+03 -.172679471361505D+03 0.865988937149204D+02
 0.119204337090699D+03 -.553424020914744D+02 -.641921975732385D+02 0.838227551604982D+02
 0.203395349842045D+03 -.112585433088686D+03 -.435449305458615D+02 -.135951374665198D+03
 0.559519040396497D+03 0.271887090981941D+03 0.295474041463008D+03 -.389658898454932D+03
0.501802538236D-05 0.000000000000D+00 0.000000000000D+00 0.446281145452D-07 0.000000000000D+00  7 2 -2 23 -11 11 23 21 0 0.34162199D+00 0.71957705D-02 0.59930358D+05 0.59930358D+05 0.59930358D+05 0.11404386D+01  1  2  2  1  7  1        2 0.344640525673D-03 0.100000000000D+01
-.253158389407D-06 0.000000000000D+00 -.192705387447D-07 0.446281145452D-07 0.000000000000D+00  7 2 -2 23 -11 11 23 21 2 0.34162199D+00 0.71957705D-02 0.59930358D+05 0.59930358D+05 0.59930358D+05 0.11404386D+01  1  2  3  1  7  1        2 -.226135978583D-04 0.100000000000D+01
0.322553657866D-06 0.000000000000D+00 0.000000000000D+00 0.446281145452D-07 0.000000000000D+00  7 2 -2 23 -11 11 23 21 2 0.34162199D+00 0.71957705D-02 0.59930358D+05 0.59930358D+05 0.59930358D+05 0.11404386D+01  1  2 15  1  7  1        2 0.288123918143D-04 0.100000000000D+01
  </mgrwgt>
  </event>
  <event>
  8     66 0.55102590E-06 0.33587629E+03 0.75467711E-02 0.96272212E-01
        2 -1    0    0  501    0 0.00000000E+00 0.00000000E+00 0.64789951E+03 0.64789959E+03 0.32000000E+00 0.0000E+00 0.9000E+01
       -2 -1    0    0    0  501 0.00000000E+00 0.00000000E+00 -.30771036E+03 0.30771053E+03 0.32000000E+00 0.0000E+00 0.9000E+01
       25  2    1    2    0    0 -.37065424E+03 -.43762781E+02 0.70936195E+02 0.48650684E+03 0.30390330E+03 0.0000E+00 0.0000E+00
       23  2    1    2    0    0 0.37065424E+03 0.43762781E+02 0.26925295E+03 0.46910328E+03 0.90889965E+02 0.0000E+00 0.0000E+00
       23  1    3    3    0    0 -.37460629E+03 -.33682390E+02 0.76530715E+02 0.39450802E+03 0.91188000E+02 0.0000E+00 0.9000E+01
      -11  1    4    4    0    0 0.13166617E+03 0.13381305E+02 0.15082444E+03 0.20065655E+03 0.51099893E-03 0.0000E+00 0.9000E+01
       11  1    4    4    0    0 0.23898808E+03 0.30381476E+02 0.11842851E+03 0.26844673E+03 0.51099893E-03 0.0000E+00 0.9000E+01
       23  1    3    3    0    0 0.39520467E+01 -.10080391E+02 -.55945204E+01 0.91998820E+02 0.91188000E+02 0.0000E+00 0.9000E+01
#aMCatNLO 1  0  0  2  1 0.15171130D+02 0.00000000D+00  -5  7  0 0.00000000D+00 0.00000000D+00 0.00000000D+00 0.00000000D+00 0.00000000D+00
  <mgrwgt>
 0.2498718185D-03    6    2    0
 0.446503652741232D+03 0.000000000000000D+00 0.000000000000000D+00 0.446503652741232D+03
 0.446503652741232D+03 0.000000000000000D+00 0.000000000000000D+00 -.446503652741232D+03
 0.393010153584618D+03 -.374606290500399D+03 -.336823900554304D+02 -.683911777518831D+02
 0.157267012504499D+03 0.131666166427330D+03 0.133813049587417D+02 0.849580750607138D+02
 0.242150672080966D+03 0.238988077412958D+03 0.303814761157748D+02 0.244665639751128D+02
 0.100579467312381D+03 0.395204666011119D+01 -.100803910190862D+02 -.410334612839436D+02
 0.000000000000000D+00 0.000000000000000D+00 0.000000000000000D+00 0.000000000000000D+00
 0.454990883291941D+03 0.000000000000000D+00 0.000000000000000D+00 0.454990883291941D+03
 0.453399634687251D+03 0.000000000000000D+00 0.000000000000000D+00 -.453399634687251D+03
 0.399451948743678D+03 -.381282192543668D+03 -.345419233095953D+02 -.683911777518831D+02
 0.155042137727128D+03 0.129035194816149D+03 0.130425630814768D+02 0.849580750607138D+02
 0.238092820754026D+03 0.234942384242692D+03 0.298605865350931D+02 0.244665639751128D+02
 0.100549258670616D+03 0.225768718373373D+01 -.102985425595097D+02 -.410334612839436D+02
 0.152543520837430D+02 0.150469263010931D+02 0.193731625253512D+01 0.159124860469053D+01
0.667458278057D-05 0.000000000000D+00 0.000000000000D+00 0.300996307956D-07 0.000000000000D+00  7 2 -2 23 -11 11 23 21 0 0.99676867D-01 0.47340075D-01 0.18151782D+06 0.18151782D+06 0.18151782D+06 0.11010743D+01  1  2  2  2  7  2       -2 0.158437030803D-03 0.100000000000D+01
-.369818752241D-06 0.000000000000D+00 -.256321553354D-07 0.300996307956D-07 0.000000000000D+00  7 2 -2 23 -11 11 23 21 2 0.99676867D-01 0.47340075D-01 0.18151782D+06 0.18151782D+06 0.18151782D+06 0.11010743D+01  1  2  3  2  7  2       -2 -.106427721659D-04 0.100000000000D+01
0.423069974817D-06 0.000000000000D+00 0.000000000000D+00 0.300996307956D-07 0.000000000000D+00  7 2 -2 23 -11 11 23 21 2 0.99676867D-01 0.47340075D-01 0.18151782D+06 0.18151782D+06 0.18151782D+06 0.11010743D+01  1  2 15  2  7  2       -2 0.121752542966D-04 0.100000000000D+01
0.653136771855D-05 0.000000000000D+00 0.000000000000D+00 0.300996307956D-07 0.000000000000D+00  7 2 -2 23 -11 11 23 21 2 0.99676867D-01 0.48513485D-01 0.18794191D+06 0.18794191D+06 0.18794191D+06 0.10999056D+01  1  2 12  2  7  2       -2 0.178685086729D-03 0.100000000000D+01
-.452081985921D-05 0.000000000000D+00 0.000000000000D+00 0.300996307956D-07 0.000000000000D+00  7 2 -2 23 -11 11 23 21 2 0.99676867D-01 0.47340075D-01 0.18151782D+06 0.18151782D+06 0.18151782D+06 0.11010743D+01  1  2  4  2  7  2       -2 -.130101720026D-03 0.100000000000D+01
0.142037265719D-06 0.000000000000D+00 0.000000000000D+00 0.300996307956D-07 0.000000000000D+00  7 2 21 23 -11 11 23 2 2 0.99676867D-01 0.48513485D-01 0.18794191D+06 0.18794191D+06 0.18794191D+06 0.10999056D+01  1  2 12  4  7  2       -2 0.413189389038D-04 0.100000000000D+01
  </mgrwgt>
  </event>
  <event>
  8     66 0.55102590E-06 0.29201366E+03 0.75467711E-02 0.99107848E-01
        2 -1    0    0  501    0 0.00000000E+00 0.00000000E+00 0.15900211E+04 0.15900212E+04 0.32000000E+00 0.0000E+00 0.9000E+01
       -2 -1    0    0    0  501 0.00000000E+00 0.00000000E+00 -.60851930E+02 0.60852771E+02 0.32000000E+00 0.0000E+00 0.9000E+01
       25  2    1    2    0    0 0.15666931E+03 0.15830684E+03 0.79985944E+03 0.88280041E+03 0.29992518E+03 0.0000E+00 0.0000E+00
       23  2    1    2    0    0 -.15666931E+03 -.15830684E+03 0.72930976E+03 0.76807353E+03 0.91857967E+02 0.0000E+00 0.0000E+00
       23  1    3    3    0    0 0.19919758E+03 0.85603315E+02 0.39907586E+03 0.46323255E+03 0.91188000E+02 0.0000E+00 0.9000E+01
      -11  1    4    4    0    0 -.75423728E+02 -.55469819E+02 0.44874450E+03 0.45840731E+03 0.51099893E-03 0.0000E+00 0.9000E+01
       11  1    4    4    0    0 -.81245577E+02 -.10283702E+03 0.28056526E+03 0.30966621E+03 0.51099893E-03 0.0000E+00 0.9000E+01
       23  1    3    3    0    0 -.42528276E+02 0.72703525E+02 0.40078358E+03 0.41956786E+03 0.91188000E+02 0.0000E+00 0.9000E+01
#aMCatNLO 1  0  0  2  2 0.96106275D+02 0.00000000D+00  -5  7  0 0.00000000D+00 0.00000000D+00 0.00000000D+00 0.00000000D+00 0.00000000D+00
  <mgrwgt>
 0.4444691735D-03    3    2    0
 0.311057189380072D+03 0.000000000000000D+00 0.000000000000000D+00 0.311057189380072D+03
 0.311057189380072D+03 0.000000000000000D+00 0.000000000000000D+00 -.311057189380072D+03
 0.248320947199704D+03 0.199197581514455D+03 0.856033146115894D+02 -.796268643138696D+02
 0.113429974095567D+03 -.754237284982062D+02 -.554698188929040D+02 0.640368596570619D+02
 0.132110947259691D+03 -.812455772533344D+02 -.102837020253183D+03 -.166434920636218D+02
 0.128252510205183D+03 -.425282757629141D+02 0.727035245344975D+02 0.322334967204295D+02
 0.000000000000000D+00 -.000000000000000D+00 -.000000000000000D+00 0.000000000000000D+00
 0.969868853803872D+03 0.000000000000000D+00 0.000000000000000D+00 0.969868853803872D+03
 0.318271702071322D+03 0.000000000000000D+00 0.000000000000000D+00 -.318271702071322D+03
 0.284639623969654D+03 0.235289810089132D+03 0.104893908008745D+03 -.796268643138696D+02
 0.100460189836489D+03 -.609390309349827D+02 -.477280300866303D+02 0.640368596570619D+02
 0.115120305034236D+03 -.645030125097210D+02 -.938884454034382D+02 -.166434920636218D+02
 0.129273897324164D+03 -.250885204275965D+02 0.820247341800420D+02 0.322334967204295D+02
 0.658646539710652D+03 -.847592462168320D+02 -.453021666987181D+02 0.651597151732550D+03
0.441749550324D-05 0.000000000000D+00 0.000000000000D+00 0.381796613177D-06 0.000000000000D+00  7 2 -2 23 -11 11 23 21 0 0.24461870D+00 0.93619025D-02 0.85271978D+05 0.85271978D+05 0.85271978D+05 0.11274448D+01  1  2  2  2  7  2       -2 0.439772588205D-03 0.100000000000D+01
-.244225470743D-06 0.000000000000D+00 -.169643458857D-07 0.381796613177D-06 0.000000000000D+00  7 2 -2 23 -11 11 23 21 2 0.24461870D+00 0.93619025D-02 0.85271978D+05 0.85271978D+05 0.85271978D+05 0.11274448D+01  1  2  3  2  7  2       -2 -.309053430581D-04 0.100000000000D+01
0.281339628117D-06 0.000000000000D+00 0.000000000000D+00 0.381796613177D-06 0.000000000000D+00  7 2 -2 23 -11 11 23 21 2 0.24461870D+00 0.93619025D-02 0.85271978D+05 0.85271978D+05 0.85271978D+05 0.11274448D+01  1  2 15  2  7  2       -2 0.356019283998D-04 0.100000000000D+01
  </mgrwgt>
  </event>
  <event>
  8     66 0.55102590E-06 0.20336558E+03 0.75467711E-02 0.10568961E+00
        2 -1    0    0  501    0 0.00000000E+00 0.00000000E+00 0.27661652E+04 0.27661652E+04 0.32000000E+00 0.0000E+00 0.9000E+01
       -2 -1    0    0    0  501 0.00000000E+00 0.00000000E+00 -.33689074E+02 0.33690594E+02 0.32000000E+00 0.0000E+00 0.9000E+01
       25  2    1    2    0    0 -.70190322E+02 0.21384591E+02 0.71324756E+03 0.77713934E+03 0.29973237E+03 0.0000E+00 0.0000E+00
       23  2    1    2    0    0 0.70190322E+02 -.21384591E+02 0.20192286E+04 0.20227165E+04 0.93348507E+02 0.0000E+00 0.0000E+00
       23  1    3    3    0    0 -.54847683E+02 -.10027593E+03 0.44515663E+03 0.46855438E+03 0.91188000E+02 0.0000E+00 0.9000E+01
      -13  1    4    4    0    0 -.42899326E+01 0.21388273E+02 0.15699564E+03 0.15850395E+03 0.10565837E+00 0.0000E+00 0.9000E+01
       13  1    4    4    0    0 0.74480255E+02 -.42772864E+02 0.18622329E+04 0.18642125E+04 0.10565837E+00 0.0000E+00 0.9000E+01
       23  1    3    3    0    0 -.15342639E+02 0.12166052E+03 0.26809093E+03 0.30858496E+03 0.91188000E+02 0.0000E+00 0.9000E+01
#aMCatNLO 1  0  0  2  2 0.11377373D+02 0.00000000D+00  -5  7  0 0.00000000D+00 0.00000000D+00 0.00000000D+00 0.00000000D+00 0.00000000D+00
  <mgrwgt>
 0.1835454712D-03    4    2    0
 0.305273154253878D+03 0.000000000000000D+00 0.000000000000000D+00 0.305273154253878D+03
 0.305273154253878D+03 0.000000000000000D+00 0.000000000000000D+00 -.305273154253878D+03
 0.156425223035659D+03 -.548476833640321D+02 -.100275932349111D+03 -.555883807901523D+02
 0.242426034839524D+02 -.429003145168313D+01 0.213883512947658D+02 0.105753431488250D+02
 0.214593697833176D+03 0.744803548424059D+02 -.427729429570228D+02 0.196656063326461D+03
 0.215284784154968D+03 -.153426400266906D+02 0.121660524011368D+03 -.151643025685134D+03
 0.000000000000000D+00 -.000000000000000D+00 -.000000000000000D+00 0.000000000000000D+00
 0.315923916278185D+03 0.000000000000000D+00 0.000000000000000D+00 0.315923916278185D+03
 0.308379736724077D+03 0.000000000000000D+00 0.000000000000000D+00 -.308379736724077D+03
 0.154433098335518D+03 -.543381753763018D+02 -.974249718265854D+02 -.555883807901523D+02
 0.246250980776473D+02 -.420993552831254D+01 0.218365293823400D+02 0.105753431488250D+02
 0.214090495855610D+03 0.751829836796676D+02 -.388413714699014D+02 0.196656063326461D+03
 0.217503614243124D+03 -.146332842500520D+02 0.125629736201016D+03 -.151643025685134D+03
 0.136513464903626D+02 -.200158852500123D+01 -.111999222868688D+02 0.754417955410768D+01
0.529069537624D-05 0.000000000000D+00 0.000000000000D+00 0.188124644751D-06 0.000000000000D+00  7 2 -2 23 -13 13 23 21 0 0.42556399D+00 0.51830529D-02 0.41357560D+05 0.41357560D+05 0.41357560D+05 0.11546159D+01  1  2  2  2  7  2       -2 0.294510888152D-03 0.100000000000D+01
-.234961037381D-06 0.000000000000D+00 -.203176633168D-07 0.188124644751D-06 0.000000000000D+00  7 2 -2 23 -13 13 23 21 2 0.42556399D+00 0.51830529D-02 0.41357560D+05 0.41357560D+05 0.41357560D+05 0.11546159D+01  1  2  3  2  7  2       -2 -.174365085595D-04 0.100000000000D+01
0.331241495715D-06 0.000000000000D+00 0.000000000000D+00 0.188124644751D-06 0.000000000000D+00  7 2 -2 23 -13 13 23 21 2 0.42556399D+00 0.51830529D-02 0.41357560D+05 0.41357560D+05 0.41357560D+05 0.11546159D+01  1  2 15  2  7  2       -2 0.245815018509D-04 0.100000000000D+01
-.159156544591D-05 0.000000000000D+00 0.000000000000D+00 0.188124644751D-06 0.000000000000D+00  7 2 -2 23 -13 13 23 21 2 0.42556399D+00 0.51830529D-02 0.41357560D+05 0.41357560D+05 0.41357560D+05 0.11546159D+01  1  2  4  2  7  2       -2 -.118110410262D-03 0.100000000000D+01
  </mgrwgt>
  </event>
  <event>
  8     66 0.55102590E-06 0.31181530E+03 0.75467711E-02 0.88242304E-01
        2 -1    0    0  501    0 0.00000000E+00 0.00000000E+00 0.21792122E+04 0.21792123E+04 0.32000000E+00 0.0000E+00 0.9000E+01
       -2 -1    0    0    0  501 0.00000000E+00 0.00000000E+00 -.39491468E+03 0.39491481E+03 0.32000000E+00 0.0000E+00 0.9000E+01
       25  2    1    2    0    0 0.18591985E+03 -.55874090E+03 0.18594431E+04 0.19733808E+04 0.29990910E+03 0.0000E+00 0.0000E+00
       23  2    1    2    0    0 -.18591985E+03 0.55874090E+03 -.75145541E+02 0.60074629E+03 0.92150272E+02 0.0000E+00 0.0000E+00
       23  1    3    3    0    0 -.33138043E+02 -.88060011E+02 0.44609889E+03 0.46494318E+03 0.91188000E+02 0.0000E+00 0.9000E+01
      -11  1    4    4    0    0 -.13877084E+03 0.50517660E+03 -.76050435E+02 0.52938116E+03 0.51099893E-03 0.0000E+00 0.9000E+01
       11  1    4    4    0    0 -.47149011E+02 0.53564296E+02 0.90489378E+00 0.71365130E+02 0.51099893E-03 0.0000E+00 0.9000E+01
       23  1    3    3    0    0 0.21905790E+03 -.47068089E+03 0.14133442E+04 0.15084376E+04 0.91188000E+02 0.0000E+00 0.9000E+01
#aMCatNLO 1  0  0  2  1 0.48881035D+03 0.00000000D+00  -5  7  0 0.00000000D+00 0.00000000D+00 0.00000000D+00 0.00000000D+00 0.00000000D+00
  <mgrwgt>
 0.2923979430D-03    7    2    0
 0.927686959220329D+03 0.000000000000000D+00 0.000000000000000D+00 0.927686959220329D+03
 0.927686959220329D+03 0.000000000000000D+00 0.000000000000000D+00 -.927686959220329D+03
 0.216047920921970D+03 -.331380432642540D+02 -.880600107910045D+02 0.171781132196788D+03
 0.807595149912731D+03 -.138770842791545D+03 0.505176601077754D+03 -.614613033604901D+03
 0.981410331576435D+02 -.471490107861281D+02 0.535642955624805D+02 -.673758073200945D+02
 0.733589814448314D+03 0.219057896841927D+03 -.470680885849230D+03 0.510207708728208D+03
 0.000000000000000D+00 0.000000000000000D+00 0.000000000000000D+00 -.000000000000000D+00
 0.103154259307795D+04 0.000000000000000D+00 0.000000000000000D+00 0.103154259307795D+04
 0.178667382661955D+04 0.000000000000000D+00 0.000000000000000D+00 -.178667382661955D+04
 0.243037801670708D+03 -.837296188172517D+02 -.119300944048393D+03 0.171781132196788D+03
 0.796331519132698D+03 -.315524710893158D+03 0.396028867764662D+03 -.614613033604901D+03
 0.104644340846804D+03 -.694961042919990D+02 0.397646846770242D+02 -.673758073200945D+02
 0.774670246020228D+03 0.528465575481879D+02 -.573318475225297D+03 0.510207708728208D+03
 0.899532512027065D+03 0.415903876454221D+03 0.256825866832004D+03 -.755131233541604D+03
0.214467823500D-03 0.000000000000D+00 0.000000000000D+00 0.626262002523D-05 0.000000000000D+00  7 2 -2 23 -11 11 23 21 0 0.33526343D+00 0.60756116D-01 0.39274237D+06 0.39274237D+06 0.39274237D+06 0.10760014D+01  1  2  2  2  7  2       -2 0.372884883886D-03 0.100000000000D+01
-.968606210767D-05 0.000000000000D+00 -.823612912913D-06 0.626262002523D-05 0.000000000000D+00  7 2 -2 23 -11 11 23 21 2 0.33526343D+00 0.60756116D-01 0.39274237D+06 0.39274237D+06 0.39274237D+06 0.10760014D+01  1  2  3  2  7  2       -2 -.194977960791D-04 0.100000000000D+01
0.128995488750D-04 0.000000000000D+00 0.000000000000D+00 0.626262002523D-05 0.000000000000D+00  7 2 -2 23 -11 11 23 21 2 0.33526343D+00 0.60756116D-01 0.39274237D+06 0.39274237D+06 0.39274237D+06 0.10760014D+01  1  2 15  2  7  2       -2 0.259664630147D-04 0.100000000000D+01
0.235699276057D-04 0.000000000000D+00 0.000000000000D+00 0.626262002523D-05 0.000000000000D+00  7 2 -2 23 -11 11 23 21 2 0.33526343D+00 0.11753555D+00 0.83730247D+06 0.83730247D+06 0.83730247D+06 0.10530363D+01  1  2 12  2  7  2       -2 0.940161770564D-05 0.100000000000D+01
-.180943853341D-03 0.000000000000D+00 -.659788404083D-04 0.626262002523D-05 0.000000000000D+00  7 2 -2 23 -11 11 23 21 2 0.33526343D+00 0.12440872D+00 0.39274237D+06 0.39274237D+06 0.39274237D+06 0.10760014D+01  1  2  5  2  7  2       -2 -.688315991533D-04 0.100000000000D+01
0.168667715820D-05 0.000000000000D+00 0.000000000000D+00 0.626262002523D-05 0.000000000000D+00  7 2 21 23 -11 11 23 2 2 0.33526343D+00 0.11753555D+00 0.83730247D+06 0.83730247D+06 0.83730247D+06 0.10530363D+01  1  2 12  4  7  2       -2 0.582621937902D-05 0.100000000000D+01
-.999626499435D-05 0.000000000000D+00 -.511343275348D-05 0.626262002523D-05 0.000000000000D+00  7 2 21 23 -11 11 23 2 2 0.33526343D+00 0.12440872D+00 0.39274237D+06 0.39274237D+06 0.39274237D+06 0.10760014D+01  1  2  5  4  7  2       -2 -.333518457595D-04 0.100000000000D+01
  </mgrwgt>
  </event>
  <event>
  8     66 0.55102590E-06 0.29570820E+03 0.75467711E-02 0.10005480E+00
        2 -1    0    0  501    0 0.00000000E+00 0.00000000E+00 0.44976101E+03 0.44976112E+03 0.32000000E+00 0.0000E+00 0.9000E+01
       -2 -1    0    0    0  501 0.00000000E+00 0.00000000E+00 -.23165126E+03 0.23165148E+03 0.32000000E+00 0.0000E+00 0.9000E+01
       25  2    1    2    0    0 -.49724454E+01 0.22731111E+03 0.21950839E+03 0.43538773E+03 0.29947200E+03 0.0000E+00 0.0000E+00
       23  2    1    2    0    0 0.49724454E+01 -.22731111E+03 -.13986437E+01 0.24602487E+03 0.93974541E+02 0.0000E+00 0.0000E+00
       23  1    3    3    0    0 0.10633127E+03 0.12013283E+03 0.16586339E+03 0.24812125E+03 0.91188000E+02 0.0000E+00 0.9000E+01
      -13  1    4    4    0    0 0.12142956E+01 -.61294943E+01 -.22929557E+02 0.23765962E+02 0.10565837E+00 0.0000E+00 0.9000E+01
       13  1    4    4    0    0 0.37581498E+01 -.22118161E+03 0.21530913E+02 0.22225890E+03 0.10565837E+00 0.0000E+00 0.9000E+01
       23  1    3    3    0    0 -.11130372E+03 0.10717827E+03 0.53645001E+02 0.18726649E+03 0.91188000E+02 0.0000E+00 0.9000E+01
#aMCatNLO 1  0  0  2  1 0.41963669D+02 0.00000000D+00  -5  7  0 0.00000000D+00 0.00000000D+00 0.00000000D+00 0.00000000D+00 0.00000000D+00
  <mgrwgt>
 0.2227075041D-03    4    2    0
 0.322781375864344D+03 0.000000000000000D+00 0.000000000000000D+00 0.322781375864344D+03
 0.322781375864344D+03 0.000000000000000D+00 0.000000000000000D+00 -.322781375864344D+03
 0.205861505698905D+03 0.106331270340502D+03 0.120132832560880D+03 0.912440226715980D+02
 0.328324802855405D+02 0.121429231996099D+01 -.612922430631419D+01 -.322324349881448D+02
 0.227327356900570D+03 0.375815312254200D+01 -.221181883248298D+03 -.523658094871367D+02
 0.179541408843672D+03 -.111303715783005D+03 0.107178274993732D+03 -.664577819631651D+01
 0.000000000000000D+00 -.000000000000000D+00 0.000000000000000D+00 0.000000000000000D+00
 0.385593545177539D+03 0.000000000000000D+00 0.000000000000000D+00 0.385593545177539D+03
 0.330548238501154D+03 0.000000000000000D+00 0.000000000000000D+00 -.330548238501154D+03
 0.213173404634702D+03 0.119936094884339D+03 0.120072938542164D+03 0.912440226715980D+02
 0.329824588451982D+02 0.335110879313777D+01 -.613863144901008D+01 -.322324349881448D+02
 0.228114712469338D+03 0.185450104722711D+02 -.221246981060328D+03 -.523658094871367D+02
 0.172654625233159D+03 -.998689519232687D+02 0.107127934472367D+03 -.664577819631651D+01
 0.692165824962957D+02 -.419632622264789D+02 0.184739494806740D+00 0.550453066763856D+02
0.443784911846D-05 0.000000000000D+00 0.000000000000D+00 0.503955389829D-07 0.000000000000D+00  7 2 -2 23 -13 13 23 21 0 0.69194027D-01 0.35638681D-01 0.87443340D+05 0.87443340D+05 0.87443340D+05 0.11265356D+01  1  2  2  2  7  2       -2 0.274249156910D-03 0.100000000000D+01
-.244246736105D-06 0.000000000000D+00 -.170425091274D-07 0.503955389829D-07 0.000000000000D+00  7 2 -2 23 -13 13 23 21 2 0.69194027D-01 0.35638681D-01 0.87443340D+05 0.87443340D+05 0.87443340D+05 0.11265356D+01  1  2  3  2  7  2       -2 -.191554080203D-04 0.100000000000D+01
0.283171136736D-06 0.000000000000D+00 0.000000000000D+00 0.503955389829D-07 0.000000000000D+00  7 2 -2 23 -13 13 23 21 2 0.69194027D-01 0.35638681D-01 0.87443340D+05 0.87443340D+05 0.87443340D+05 0.11265356D+01  1  2 15  2  7  2       -2 0.222081111512D-04 0.100000000000D+01
-.696121598500D-06 0.000000000000D+00 0.000000000000D+00 0.503955389829D-07 0.000000000000D+00  7 2 -2 23 -13 13 23 21 2 0.69194027D-01 0.35638681D-01 0.87443340D+05 0.87443340D+05 0.87443340D+05 0.11265356D+01  1  2  4  2  7  2       -2 -.545943559518D-04 0.100000000000D+01
  </mgrwgt>
  </event>
  <event>
  8     66 0.55102590E-06 0.44113854E+03 0.75467711E-02 0.92541747E-01
        2 -1    0    0  501    0 0.00000000E+00 0.00000000E+00 0.14261886E+04 0.14261887E+04 0.32000000E+00 0.0000E+00 0.9000E+01
       -2 -1    0    0    0  501 0.00000000E+00 0.00000000E+00 -.15511462E+03 0.15511495E+03 0.32000000E+00 0.0000E+00 0.9000E+01
       25  2    1    2    0    0 0.36914628E+03 0.19005169E+03 0.77279099E+03 0.92714772E+03 0.30001392E+03 0.0000E+00 0.0000E+00
       23  2    1    2    0    0 -.36914628E+03 -.19005169E+03 0.49828302E+03 0.65415589E+03 0.85119589E+02 0.0000E+00 0.0000E+00
       23  1    3    3    0    0 0.26836659E+03 0.88551160E+02 0.28853155E+03 0.41403821E+03 0.91188000E+02 0.0000E+00 0.9000E+01
      -11  1    4    4    0    0 -.25163121E+03 -.11872221E+03 0.39044087E+03 0.47943435E+03 0.51099893E-03 0.0000E+00 0.9000E+01
       11  1    4    4    0    0 -.11751507E+03 -.71329484E+02 0.10784215E+03 0.17472154E+03 0.51099893E-03 0.0000E+00 0.9000E+01
       23  1    3    3    0    0 0.10077969E+03 0.10150053E+03 0.48425945E+03 0.51310951E+03 0.91188000E+02 0.0000E+00 0.9000E+01
#aMCatNLO 1  0  0  1  2 0.28789022D+03 0.00000000D+00  -5  7  0 0.00000000D+00 0.00000000D+00 0.00000000D+00 0.00000000D+00 0.00000000D+00
  <mgrwgt>
 0.3236220188D-03    4    2    0
 0.470343480016428D+03 0.000000000000000D+00 0.000000000000000D+00 0.470343480016428D+03
 0.470343480016428D+03 0.000000000000000D+00 0.000000000000000D+00 -.470343480016428D+03
 0.306132835316148D+03 0.268366591370878D+03 0.885511599358591D+02 -.744320241878063D+02
 0.278362562250162D+03 -.251631210125668D+03 -.118722205244335D+03 0.851399642291816D+01
 0.147990190094642D+03 -.117515066726518D+03 -.713294839516713D+02 -.548033774114205D+02
 0.208201372371903D+03 0.100779685481309D+03 0.101500529260147D+03 0.120721405176309D+03
 0.000000000000000D+00 0.000000000000000D+00 0.000000000000000D+00 -.000000000000000D+00
 0.570564154761392D+03 0.000000000000000D+00 0.000000000000000D+00 0.570564154761392D+03
 0.755201601545584D+03 0.000000000000000D+00 0.000000000000000D+00 -.755201601545584D+03
 0.276540655472598D+03 0.250216897260252D+03 0.329558583147814D+01 -.744320241878063D+02
 0.342679474158520D+03 -.270976045902218D+03 -.209591785196056D+03 0.851399642291816D+01
 0.183605551875717D+03 -.127843941096624D+03 -.119847883705850D+03 -.548033774114205D+02
 0.180928725411599D+03 0.886586737042875D+02 0.445638221466699D+02 0.120721405176309D+03
 0.342011349388541D+03 0.599444160343025D+02 0.281580260923758D+03 -.184637446784192D+03
0.143566272012D-04 0.000000000000D+00 0.000000000000D+00 0.552531362913D-07 0.000000000000D+00  7 2 -2 23 -11 11 23 21 0 0.21941366D+00 0.23863815D-01 0.19460321D+06 0.19460321D+06 0.19460321D+06 0.10987390D+01  1  2  2  1  7  1        2 0.382972504325D-03 0.100000000000D+01
-.793605336930D-06 0.000000000000D+00 -.551332286392D-07 0.552531362913D-07 0.000000000000D+00  7 2 -2 23 -11 11 23 21 2 0.21941366D+00 0.23863815D-01 0.19460321D+06 0.19460321D+06 0.19460321D+06 0.10987390D+01  1  2  3  1  7  1        2 -.255569370616D-04 0.100000000000D+01
0.910040273783D-06 0.000000000000D+00 0.000000000000D+00 0.552531362913D-07 0.000000000000D+00  7 2 -2 23 -11 11 23 21 2 0.21941366D+00 0.23863815D-01 0.19460321D+06 0.19460321D+06 0.19460321D+06 0.10987390D+01  1  2 15  1  7  1        2 0.293065594676D-04 0.100000000000D+01
-.195941251982D-05 0.000000000000D+00 0.000000000000D+00 0.552531362913D-07 0.000000000000D+00  7 2 -2 23 -11 11 23 21 2 0.21941366D+00 0.23863815D-01 0.19460321D+06 0.19460321D+06 0.19460321D+06 0.10987390D+01  1  2  4  1  7  1        2 -.631001079712D-04 0.100000000000D+01
  </mgrwgt>
  </event>
  <event>
  8     66 0.55102590E-06 0.32453589E+03 0.75467711E-02 0.88772586E-01
        2 -1    0    0  501    0 0.00000000E+00 0.00000000E+00 0.26383726E+04 0.26383726E+04 0.32000000E+00 0.0000E+00 0.9000E+01
       -2 -1    0    0    0  501 0.00000000E+00 0.00000000E+00 -.42557738E+02 0.42558941E+02 0.32000000E+00 0.0000E+00 0.9000E+01
       25  2    1    2    0    0 -.20213902E+03 0.14803901E+03 0.17833968E+04 0.18256939E+04 0.29979717E+03 0.0000E+00 0.0000E+00
       23  2    1    2    0    0 0.20213902E+03 -.14803901E+03 0.81241800E+03 0.85523760E+03 0.92911847E+02 0.0000E+00 0.0000E+00
       23  1    3    3    0    0 0.19614080E+02 -.22997792E+02 0.45845108E+03 0.46840821E+03 0.91188000E+02 0.0000E+00 0.9000E+01
      -13  1    4    4    0    0 0.20446222E+03 -.13447484E+03 0.80036940E+03 0.83694652E+03 0.10565837E+00 0.0000E+00 0.9000E+01
       13  1    4    4    0    0 -.23231963E+01 -.13564164E+02 0.12048600E+02 0.18291083E+02 0.10565837E+00 0.0000E+00 0.9000E+01
       23  1    3    3    0    0 -.22175310E+03 0.17103680E+03 0.13249458E+04 0.13572857E+04 0.91188000E+02 0.0000E+00 0.9000E+01
#aMCatNLO 1  0  0  1  2 0.74997537D+03 0.00000000D+00  -5  7  0 0.00000000D+00 0.00000000D+00 0.00000000D+00 0.00000000D+00 0.00000000D+00
  <mgrwgt>
 0.4697436997D-03    3    2    0
 0.335089252968690D+03 0.000000000000000D+00 0.000000000000000D+00 0.335089252968690D+03
 0.335089252968690D+03 0.000000000000000D+00 0.000000000000000D+00 -.335089252968690D+03
 0.980578090849811D+02 0.196140796474760D+02 -.229977921884462D+02 0.196588914383825D+02
 0.247972343507021D+03 0.204462484646337D+03 -.134474999619636D+03 -.400231182432068D+02
 0.265019161233489D+02 -.232346310357577D+01 -.135640080504334D+02 -.226488578745843D+02
 0.297646437222029D+03 -.221753101190237D+03 0.171036799858516D+03 0.430130846794086D+02
 0.000000000000000D+00 -.000000000000000D+00 -.000000000000000D+00 -.000000000000000D+00
 0.777436445768034D+03 0.000000000000000D+00 0.000000000000000D+00 0.777436445768034D+03
 0.101507110494884D+04 0.000000000000000D+00 0.000000000000000D+00 -.101507110494884D+04
 0.128483727707950D+03 0.475928747195015D+02 0.744396615056674D+02 0.196588914383825D+02
 0.290657297915520D+03 0.270985421545342D+03 0.971942186939903D+02 -.400231182432068D+02
 0.244662037959286D+02 0.397130562897386D+01 0.835781650684392D+01 -.226488578745843D+02
 0.562177185968823D+03 -.115561409847857D+03 0.540854298476181D+03 0.430130846794086D+02
 0.786723135328653D+03 -.206988192045960D+03 -.720845995182683D+03 -.237634659180806D+03
0.102129362887D-04 0.000000000000D+00 0.000000000000D+00 0.198570294223D-06 0.000000000000D+00  7 2 -2 23 -13 13 23 21 0 0.40590357D+00 0.65474383D-02 0.10532355D+06 0.10532355D+06 0.10532355D+06 0.11198782D+01  1  2  2  1  7  1        2 0.464327483255D-03 0.100000000000D+01
-.566678900188D-06 0.000000000000D+00 -.392203644765D-07 0.198570294223D-06 0.000000000000D+00  7 2 -2 23 -13 13 23 21 2 0.40590357D+00 0.65474383D-02 0.10532355D+06 0.10532355D+06 0.10532355D+06 0.11198782D+01  1  2  3  1  7  1        2 -.323111506786D-04 0.100000000000D+01
0.661669500015D-06 0.000000000000D+00 0.000000000000D+00 0.198570294223D-06 0.000000000000D+00  7 2 -2 23 -13 13 23 21 2 0.40590357D+00 0.65474383D-02 0.10532355D+06 0.10532355D+06 0.10532355D+06 0.11198782D+01  1  2 15  1  7  1        2 0.377273671339D-04 0.100000000000D+01
  </mgrwgt>
  </event>
  <event>
  8     66 0.55102590E-06 0.12444355E+03 0.75467711E-02 0.99359407E-01
        2 -1    0    0  501    0 0.00000000E+00 0.00000000E+00 0.21997858E+04 0.21997858E+04 0.32000000E+00 0.0000E+00 0.9000E+01
       -2 -1    0    0    0  501 0.00000000E+00 0.00000000E+00 -.83512379E+02 0.83512992E+02 0.32000000E+00 0.0000E+00 0.9000E+01
       25  2    1    2    0    0 0.40405160E+02 -.43308333E+01 0.21550546E+04 0.21762264E+04 0.30008276E+03 0.0000E+00 0.0000E+00
       23  2    1    2    0    0 -.40405160E+02 0.43308333E+01 -.38781195E+02 0.10707240E+03 0.91154732E+02 0.0000E+00 0.0000E+00
       23  1    3    3    0    0 -.25133702E+02 0.95398272E+01 0.24462271E+03 0.26244663E+03 0.91188000E+02 0.0000E+00 0.9000E+01
      -13  1    4    4    0    0 -.38785093E+02 0.44736630E+01 -.67676717E+02 0.78130956E+02 0.10565837E+00 0.0000E+00 0.9000E+01
       13  1    4    4    0    0 -.16200675E+01 -.14282979E+00 0.28895521E+02 0.28941447E+02 0.10565837E+00 0.0000E+00 0.9000E+01
       23  1    3    3    0    0 0.65538862E+02 -.13870660E+02 0.19104319E+04 0.19137797E+04 0.91188000E+02 0.0000E+00 0.9000E+01
#aMCatNLO 1  0  0  1  2 0.27889252D+03 0.00000000D+00  -5  7  0 0.00000000D+00 0.00000000D+00 0.00000000D+00 0.00000000D+00 0.00000000D+00
  <mgrwgt>
 0.2502651750D-03    7    2    0
 0.428614124790276D+03 0.000000000000000D+00 0.000000000000000D+00 0.428614124790276D+03
 0.428614124790276D+03 0.000000000000000D+00 0.000000000000000D+00 -.428614124790276D+03
 0.951386471678603D+02 -.251337019870852D+02 0.953982722345988D+01 0.366054120336433D+01
 0.375184994673263D+03 -.387851428046873D+02 0.447366924672013D+01 -.373148066066364D+03
 0.575193550772487D+01 -.162001752785150D+01 -.142835990826249D+00 0.551723691481570D+01
 0.381152672231703D+03 0.655388623196240D+02 -.138706604793538D+02 0.363970287948184D+03
 0.000000000000000D+00 0.000000000000000D+00 -.000000000000000D+00 0.000000000000000D+00
 0.637036573168264D+03 0.000000000000000D+00 0.000000000000000D+00 0.637036573168264D+03
 0.555098558774400D+03 0.000000000000000D+00 0.000000000000000D+00 -.555098558774400D+03
 0.104524569377384D+03 -.306358506075728D+02 0.407207484604155D+02 0.366054120336433D+01
 0.398167949612478D+03 -.600965436184049D+02 0.125246326631398D+03 -.373148066066364D+03
 0.609452015065115D+01 -.194647204855002D+01 0.170719631463452D+01 0.551723691481570D+01
 0.392668068128086D+03 0.442145703807005D+02 0.106975051485893D+03 0.363970287948184D+03
 0.290680024674065D+03 0.484642958938271D+02 -.274649322892341D+03 0.819380143938647D+02
0.113503778985D-04 0.000000000000D+00 0.000000000000D+00 0.515704958816D-05 0.000000000000D+00  7 2 -2 23 -13 13 23 21 0 0.33842863D+00 0.12848107D-01 0.15486196D+05 0.15486196D+05 0.15486196D+05 0.11949571D+01  1  2  2  1  7  1        2 0.343457482031D-03 0.100000000000D+01
0.542027672901D-06 0.000000000000D+00 -.435884397533D-07 0.515704958816D-05 0.000000000000D+00  7 2 -2 23 -13 13 23 21 2 0.33842863D+00 0.12848107D-01 0.15486196D+05 0.15486196D+05 0.15486196D+05 0.11949571D+01  1  2  3  1  7  1        2 0.234200991176D-04 0.100000000000D+01
0.686551096645D-06 0.000000000000D+00 0.000000000000D+00 0.515704958816D-05 0.000000000000D+00  7 2 -2 23 -13 13 23 21 2 0.33842863D+00 0.12848107D-01 0.15486196D+05 0.15486196D+05 0.15486196D+05 0.11949571D+01  1  2 15  1  7  1        2 0.296647118527D-04 0.100000000000D+01
-.380844652867D-05 0.000000000000D+00 0.000000000000D+00 0.515704958816D-05 0.000000000000D+00  7 2 -2 23 -13 13 23 21 2 0.33842863D+00 0.12848107D-01 0.15486196D+05 0.15486196D+05 0.15486196D+05 0.11949571D+01  1  2  4  1  7  1        2 -.164556534002D-03 0.100000000000D+01
0.158069992502D-05 0.000000000000D+00 -.306381587926D-05 0.515704958816D-05 0.000000000000D+00  7 2 -2 23 -13 13 23 21 2 0.54351584D+00 0.12848107D-01 0.15486196D+05 0.15486196D+05 0.15486196D+05 0.11949571D+01  1  2  5  1  7  1        2 0.110414057398D-04 0.100000000000D+01
0.166127530053D-06 0.000000000000D+00 0.274946410274D-05 0.515704958816D-05 0.000000000000D+00  7 2 -2 23 -13 13 23 21 2 0.33842863D+00 0.12848107D-01 0.15486196D+05 0.15486196D+05 0.15486196D+05 0.11949571D+01  1  2  6  1  7  1        2 0.717808963368D-05 0.100000000000D+01
0.215250530861D-06 0.000000000000D+00 -.165605006776D-06 0.515704958816D-05 0.000000000000D+00  7 21 -2 23 -13 13 23 -2 2 0.54351584D+00 0.12848107D-01 0.15486196D+05 0.15486196D+05 0.15486196D+05 0.11949571D+01  1  2  5  3  7  1        2 0.599206212487D-07 0.100000000000D+01
  </mgrwgt>
  </event>
  <event>
  8     66 0.55102590E-06 0.35655894E+03 0.75467711E-02 0.96724387E-01
        2 -1    0    0  501    0 0.00000000E+00 0.00000000E+00 0.27576499E+04 0.27576499E+04 0.32000000E+00 0.0000E+00 0.9000E+01
       -2 -1    0    0    0  501 0.00000000E+00 0.00000000E+00 -.58478402E+02 0.58479277E+02 0.32000000E+00 0.0000E+00 0.9000E+01
       25  2    1    2    0    0 -.70658447E+02 0.31932627E+03 0.18350088E+04 0.18878297E+04 0.29946899E+03 0.0000E+00 0.0000E+00
       23  2    1    2    0    0 0.70658447E+02 -.31932627E+03 0.86416272E+03 0.92829955E+03 0.89448090E+02 0.0000E+00 0.0000E+00
       23  1    3    3    0    0 -.51999219E+02 0.19292240E+03 0.53426508E+03 0.57764816E+03 0.91188000E+02 0.0000E+00 0.9000E+01
      -13  1    4    4    0    0 0.70749056E+02 -.13705138E+03 0.45325791E+03 0.47878101E+03 0.10565837E+00 0.0000E+00 0.9000E+01
       13  1    4    4    0    0 -.90608978E-01 -.18227489E+03 0.41090482E+03 0.44951854E+03 0.10565837E+00 0.0000E+00 0.9000E+01
       23  1    3    3    0    0 -.18659228E+02 0.12640387E+03 0.13007437E+04 0.13101815E+04 0.91188000E+02 0.0000E+00 0.9000E+01
#aMCatNLO 1  0  0  2  2 0.11289815D+03 0.00000000D+00  -5  7  0 0.00000000D+00 0.00000000D+00 0.00000000D+00 0.00000000D+00 0.00000000D+00
  <mgrwgt>
 0.1188990931D-03    3    2    0
 0.401577162476503D+03 0.000000000000000D+00 0.000000000000000D+00 0.401577162476503D+03
 0.401577162476503D+03 0.000000000000000D+00 0.000000000000000D+00 -.401577162476503D+03
 0.229916930829897D+03 -.519992187978152D+02 0.192922402128921D+03 -.679968509525495D+02
 0.155497265923080D+03 0.707491543380379D+02 -.137051320222840D+03 -.197710013702352D+02
 0.195229944956586D+03 -.907075713274708D-01 -.182274951392216D+03 -.699325766353107D+02
 0.222510183243443D+03 -.186592279688953D+02 0.126403869486135D+03 0.157700428958095D+03
 0.000000000000000D+00 0.000000000000000D+00 0.000000000000000D+00 0.000000000000000D+00
 0.868039393116565D+03 0.000000000000000D+00 0.000000000000000D+00 0.868039393116565D+03
 0.412414748307570D+03 0.000000000000000D+00 0.000000000000000D+00 -.412414748307570D+03
 0.231535833891712D+03 -.829613445133728D+02 0.183813586573465D+03 -.679968509525495D+02
 0.152922460127649D+03 0.500550962215988D+02 -.143139350489504D+03 -.197710013702352D+02
 0.204392945245876D+03 -.269042302354029D+02 -.190163280332641D+03 -.699325766353107D+02
 0.222199228623259D+03 -.484979238653546D+02 0.117625558208895D+03 0.157700428958095D+03
 0.469403673535639D+03 0.108308402392532D+03 0.318634860397851D+02 0.455624644808995D+03
0.495892695960D-05 0.000000000000D+00 0.000000000000D+00 0.513042928073D-07 0.000000000000D+00  7 2 -2 23 -13 13 23 21 0 0.42425390D+00 0.89967459D-02 0.12713428D+06 0.12713428D+06 0.12713428D+06 0.11132652D+01  1  2  2  2  7  2       -2 0.117638344637D-03 0.100000000000D+01
-.270760489901D-06 0.000000000000D+00 -.190435852403D-07 0.513042928073D-07 0.000000000000D+00  7 2 -2 23 -13 13 23 21 2 0.42425390D+00 0.89967459D-02 0.12713428D+06 0.12713428D+06 0.12713428D+06 0.11132652D+01  1  2  3  2  7  2       -2 -.796056232067D-05 0.100000000000D+01
0.313641992888D-06 0.000000000000D+00 0.000000000000D+00 0.513042928073D-07 0.000000000000D+00  7 2 -2 23 -13 13 23 21 2 0.42425390D+00 0.89967459D-02 0.12713428D+06 0.12713428D+06 0.12713428D+06 0.11132652D+01  1  2 15  2  7  2       -2 0.922131080379D-05 0.100000000000D+01
  </mgrwgt>
  </event>
  <event>
  8     66 0.55102590E-06 0.28115047E+03 0.75467711E-02 0.93853346E-01
        2 -1    0    0  501    0 0.00000000E+00 0.00000000E+00 0.48382991E+03 0.48383002E+03 0.32000000E+00 0.0000E+00 0.9000E+01
       -2 -1    0    0    0  501 0.00000000E+00 0.00000000E+00 -.20750590E+03 0.20750614E+03 0.32000000E+00 0.0000E+00 0.9000E+01
       25  2    1    2    0    0 0.20638276E+03 -.60378344E+02 0.24275540E+03 0.44163463E+03 0.29978588E+03 0.0000E+00 0.0000E+00
       23  2    1    2    0    0 -.20638276E+03 0.60378344E+02 0.33568616E+02 0.24970153E+03 0.12241166E+03 0.0000E+00 0.0000E+00
       23  1    3    3    0    0 0.11186846E+03 -.10286849E+03 0.18359027E+02 0.17818189E+03 0.91188000E+02 0.0000E+00 0.9000E+01
      -13  1    4    4    0    0 -.13500000E+03 0.97545156E+02 0.29285421E+02 0.16910856E+03 0.10565837E+00 0.0000E+00 0.9000E+01
       13  1    4    4    0    0 -.71382759E+02 -.37166813E+02 0.42831955E+01 0.80592972E+02 0.10565837E+00 0.0000E+00 0.9000E+01
       23  1    3    3    0    0 0.94514297E+02 0.42490144E+02 0.22439637E+03 0.26345274E+03 0.91188000E+02 0.0000E+00 0.9000E+01
#aMCatNLO 1  0  0  1  2 0.39534816D+03 0.00000000D+00  -5  7  0 0.00000000D+00 0.00000000D+00 0.00000000D+00 0.00000000D+00 0.00000000D+00
  <mgrwgt>
 0.8448880215D-04    5    2    0
 0.316855931177509D+03 0.000000000000000D+00 0.000000000000000D+00 0.316855931177509D+03
 0.316855931177509D+03 0.000000000000000D+00 0.000000000000000D+00 -.316855931177509D+03
 0.186379016933498D+03 0.111868594483160D+03 -.102868525273167D+03 -.576660271354234D+02
 0.171716238885021D+03 -.135000242603072D+03 0.975448868336168D+02 -.417899060365803D+02
 0.860535513272031D+02 -.713827808214615D+02 -.371664666404938D+02 -.304691000142738D+02
 0.189563055209295D+03 0.945144289413730D+02 0.424901050800436D+02 0.129925033186278D+03
 0.000000000000000D+00 0.000000000000000D+00 -.000000000000000D+00 0.000000000000000D+00
 0.855311999146803D+03 0.000000000000000D+00 0.000000000000000D+00 0.855311999146803D+03
 0.454554004616852D+03 0.000000000000000D+00 0.000000000000000D+00 -.454554004616852D+03
 0.125262905936792D+03 0.409150324320365D+02 -.487456018039744D+02 -.576660271354234D+02
 0.306263688258154D+03 -.243825069851556D+03 0.180555769253783D+03 -.417899060365803D+02
 0.122771756768895D+03 -.118927409346965D+03 -.899727992433981D+00 -.304691000142738D+02
 0.192622592286560D+03 0.749971408886370D+01 0.108864373214216D+03 0.129925033186278D+03
 0.562945060513254D+03 0.314337732677620D+03 -.239774812671591D+03 0.400757994529950D+03
0.122176467139D-05 0.000000000000D+00 0.000000000000D+00 0.444090840656D-09 0.000000000000D+00  7 2 -2 23 -13 13 23 21 0 0.74435398D-01 0.31924011D-01 0.79045586D+05 0.79045586D+05 0.79045586D+05 0.11302000D+01  1  2  2  1  7  1        2 0.848770635068D-04 0.100000000000D+01
-.666961791731D-07 0.000000000000D+00 -.469189803618D-08 0.444090840656D-09 0.000000000000D+00  7 2 -2 23 -13 13 23 21 2 0.74435398D-01 0.31924011D-01 0.79045586D+05 0.79045586D+05 0.79045586D+05 0.11302000D+01  1  2  3  1  7  1        2 -.591853626120D-05 0.100000000000D+01
0.791212182121D-07 0.000000000000D+00 0.000000000000D+00 0.444090840656D-09 0.000000000000D+00  7 2 -2 23 -13 13 23 21 2 0.74435398D-01 0.31924011D-01 0.79045586D+05 0.79045586D+05 0.79045586D+05 0.11302000D+01  1  2 15  1  7  1        2 0.702111882307D-05 0.100000000000D+01
-.890853996585D-07 0.000000000000D+00 -.404502024505D-06 0.444090840656D-09 0.000000000000D+00  7 2 -2 23 -13 13 23 21 2 0.24665260D+00 0.31924011D-01 0.79045586D+05 0.79045586D+05 0.79045586D+05 0.11302000D+01  1  2  5  1  7  1        2 -.151017525589D-05 0.100000000000D+01
0.344382297602D-08 0.000000000000D+00 -.561633411820D-07 0.444090840656D-09 0.000000000000D+00  7 21 -2 23 -13 13 23 -2 2 0.24665260D+00 0.31924011D-01 0.79045586D+05 0.79045586D+05 0.79045586D+05 0.11302000D+01  1  2  5  3  7  1        2 0.193313340645D-07 0.100000000000D+01
  </mgrwgt>
  </event>
  <event>
  8     66 0.55102590E-06 0.22608170E+03 0.75467711E-02 0.96077023E-01
        2 -1    0    0  501    0 0.00000000E+00 0.00000000E+00 0.92225517E+03 0.92225523E+03 0.32000000E+00 0.0000E+00 0.9000E+01
       -2 -1    0    0    0  501 0.00000000E+00 0.00000000E+00 -.13171515E+03 0.13171554E+03 0.32000000E+00 0.0000E+00 0.9000E+01
       25  2    1    2    0    0 0.25462220E+03 -.47523414E+01 0.62198735E+03 0.73593080E+03 0.29978464E+03 0.0000E+00 0.0000E+00
       23  2    1    2    0    0 -.25462220E+03 0.47523414E+01 0.16855267E+03 0.31803997E+03 0.88793972E+02 0.0000E+00 0.0000E+00
       23  1    3    3    0    0 0.24448195E+01 0.29392317E+02 0.62097042E+02 0.11419798E+03 0.91188000E+02 0.0000E+00 0.9000E+01
      -13  1    4    4    0    0 -.24709188E+03 0.20701668E+02 0.16953461E+03 0.30037469E+03 0.10565837E+00 0.0000E+00 0.9000E+01
       13  1    4    4    0    0 -.75303158E+01 -.15949326E+02 -.98194369E+00 0.17665278E+02 0.10565837E+00 0.0000E+00 0.9000E+01
       23  1    3    3    0    0 0.25217738E+03 -.34144658E+02 0.55989031E+03 0.62173282E+03 0.91188000E+02 0.0000E+00 0.9000E+01
#aMCatNLO 1  0  0  1  2 0.21448567D+03 0.00000000D+00  -5  7  0 0.00000000D+00 0.00000000D+00 0.00000000D+00 0.00000000D+00 0.00000000D+00
  <mgrwgt>
 0.2440424556D-03    7    2    0
 0.348532945828314D+03 0.000000000000000D+00 0.000000000000000D+00 0.348532945828314D+03
 0.348532945828314D+03 0.000000000000000D+00 0.000000000000000D+00 -.348532945828314D+03
 0.102244479674380D+03 0.244481955906075D+01 0.293923166835917D+02 -.356201748617232D+02
 0.261901318782729D+03 -.247092221734377D+03 0.207017193869007D+02 -.843159151817043D+02
 0.278233684431104D+02 -.752997691390274D+01 -.159493779384614D+02 -.215187504881971D+02
 0.305096724756409D+03 0.252177379089219D+03 -.341446581320310D+02 0.141454840531625D+03
 0.000000000000000D+00 -.000000000000000D+00 -.000000000000000D+00 0.000000000000000D+00
 0.988658124909391D+03 0.000000000000000D+00 0.000000000000000D+00 0.988658124909391D+03
 0.383090231527929D+03 0.000000000000000D+00 0.000000000000000D+00 -.383090231527929D+03
 0.108985097430717D+03 0.338951937876555D+02 0.338351754672628D+02 -.356201748617232D+02
 0.199627835001326D+03 -.178374266593591D+03 0.304092086642644D+02 -.843159151817043D+02
 0.261300787407430D+02 0.503254644434572D+00 -.148145579477417D+02 -.215187504881971D+02
 0.394575135196907D+03 0.356352855527352D+03 -.194282376795369D+02 0.141454840531625D+03
 0.642430210067627D+03 -.212377037365850D+03 -.300015885042486D+02 0.605567893381462D+03
0.408351007848D-05 0.000000000000D+00 0.000000000000D+00 0.133521025500D-06 0.000000000000D+00  7 2 -2 23 -13 13 23 21 0 0.14188545D+00 0.20263904D-01 0.99779420D+05 0.99779420D+05 0.99779420D+05 0.11218008D+01  1  2  2  1  7  1        2 0.284776445820D-03 0.100000000000D+01
-.224192326823D-06 0.000000000000D+00 -.156817539143D-07 0.133521025500D-06 0.000000000000D+00  7 2 -2 23 -13 13 23 21 2 0.14188545D+00 0.20263904D-01 0.99779420D+05 0.99779420D+05 0.99779420D+05 0.11218008D+01  1  2  3  1  7  1        2 -.196753574615D-04 0.100000000000D+01
0.257707952722D-06 0.000000000000D+00 0.000000000000D+00 0.133521025500D-06 0.000000000000D+00  7 2 -2 23 -13 13 23 21 2 0.14188545D+00 0.20263904D-01 0.99779420D+05 0.99779420D+05 0.99779420D+05 0.11218008D+01  1  2 15  1  7  1        2 0.226167244987D-04 0.100000000000D+01
0.194055990716D-05 0.000000000000D+00 0.000000000000D+00 0.133521025500D-06 0.000000000000D+00  7 2 -2 23 -13 13 23 21 2 0.39504039D+00 0.20263904D-01 0.19430644D+06 0.19430644D+06 0.19430644D+06 0.10987900D+01  1  2 12  1  7  1        2 0.193283592123D-04 0.100000000000D+01
-.667647590362D-05 0.000000000000D+00 -.119823805311D-05 0.133521025500D-06 0.000000000000D+00  7 2 -2 23 -13 13 23 21 2 0.41063316D+00 0.20263904D-01 0.99779420D+05 0.99779420D+05 0.99779420D+05 0.11218008D+01  1  2  5  1  7  1        2 -.625326403710D-04 0.100000000000D+01
0.222913077742D-06 0.000000000000D+00 0.000000000000D+00 0.133521025500D-06 0.000000000000D+00  7 21 -2 23 -13 13 23 -2 2 0.39504039D+00 0.20263904D-01 0.19430644D+06 0.19430644D+06 0.19430644D+06 0.10987900D+01  1  2 12  3  7  1        2 0.247205232114D-06 0.100000000000D+01
-.738009639780D-06 0.000000000000D+00 -.143894653948D-06 0.133521025500D-06 0.000000000000D+00  7 21 -2 23 -13 13 23 -2 2 0.41063316D+00 0.20263904D-01 0.99779420D+05 0.99779420D+05 0.99779420D+05 0.11218008D+01  1  2  5  3  7  1        2 -.718281311042D-06 0.100000000000D+01
  </mgrwgt>
  </event>
  <event>
  8     66 0.55102590E-06 0.19125503E+03 0.75467711E-02 0.96665516E-01
        2 -1    0    0  501    0 0.00000000E+00 0.00000000E+00 0.20275511E+04 0.20275511E+04 0.32000000E+00 0.0000E+00 0.9000E+01
       -2 -1    0    0    0  501 0.00000000E+00 0.00000000E+00 -.10750170E+03 0.10750217E+03 0.32000000E+00 0.0000E+00 0.9000E+01
       25  2    1    2    0    0 0.26627811E+03 0.19872174E+03 0.48487943E+03 0.65988125E+03 0.29990138E+03 0.0000E+00 0.0000E+00
       23  2    1    2    0    0 -.26627811E+03 -.19872174E+03 0.14351699E+04 0.14751720E+04 0.77623203E+02 0.0000E+00 0.0000E+00
       23  1    3    3    0    0 0.10860035E+03 0.10176762E+02 0.47397723E+02 0.14986460E+03 0.91188000E+02 0.0000E+00 0.9000E+01
      -11  1    4    4    0    0 0.16530020E+01 -.16930715E+01 0.44854857E+00 0.24083402E+01 0.51099893E-03 0.0000E+00 0.9000E+01
       11  1    4    4    0    0 -.26793112E+03 -.19702867E+03 0.14347214E+04 0.14727637E+04 0.51099893E-03 0.0000E+00 0.9000E+01
       23  1    3    3    0    0 0.15767776E+03 0.18854498E+03 0.43748170E+03 0.51001664E+03 0.91188000E+02 0.0000E+00 0.9000E+01
#aMCatNLO 1  0  0  1  2 0.97245579D+02 0.00000000D+00  -5  7  0 0.00000000D+00 0.00000000D+00 0.00000000D+00 0.00000000D+00 0.00000000D+00
  <mgrwgt>
 0.4112515857D-02    9    2    0
 0.466867988420172D+03 0.000000000000000D+00 0.000000000000000D+00 0.466867988420172D+03
 0.466867988420172D+03 0.000000000000000D+00 0.000000000000000D+00 -.466867988420172D+03
 0.245211646822157D+03 0.108600352188653D+03 0.101767618138561D+02 -.199789632906011D+03
 0.458448576800661D+01 0.165300198270412D+01 -.169307150249963D+01 -.392665291178822D+01
 0.417348170004485D+03 -.267931116000315D+03 -.197028672162313D+03 0.252135111459855D+03
 0.266591674245695D+03 0.157677761828957D+03 0.188544981850957D+03 -.484188256420562D+02
 0.000000000000000D+00 0.000000000000000D+00 -.000000000000000D+00 0.000000000000000D+00
 0.532462248842035D+03 0.000000000000000D+00 0.000000000000000D+00 0.532462248842035D+03
 0.506878573646826D+03 0.000000000000000D+00 0.000000000000000D+00 -.506878573646826D+03
 0.240454488393631D+03 0.931651029468517D+02 0.301243393425776D+02 -.199789632906011D+03
 0.436447352439572D+01 0.136858969385553D+01 -.132551435502165D+01 -.392665291178822D+01
 0.420453342525502D+03 -.294557792689051D+03 -.162617974332936D+03 0.252135111459855D+03
 0.273513920958598D+03 0.140512339176695D+03 0.210728530286441D+03 -.484188256420562D+02
 0.100554597086735D+03 0.595117608716492D+02 -.769093809410616D+02 0.255836751952095D+02
0.976085527280D-04 0.000000000000D+00 0.000000000000D+00 0.163513945922D-07 0.000000000000D+00  7 2 -2 23 -11 11 23 21 0 0.31193097D+00 0.16538761D-01 0.13663109D+06 0.13663109D+06 0.13663109D+06 0.11107655D+01  1  2  2  1  7  1        2 0.228781485808D-02 0.100000000000D+01
-.506313869219D-05 0.000000000000D+00 -.374842543398D-06 0.163513945922D-07 0.000000000000D+00  7 2 -2 23 -11 11 23 21 2 0.31193097D+00 0.16538761D-01 0.13663109D+06 0.13663109D+06 0.13663109D+06 0.11107655D+01  1  2  3  1  7  1        2 -.146419050849D-03 0.100000000000D+01
0.623746099343D-05 0.000000000000D+00 0.000000000000D+00 0.163513945922D-07 0.000000000000D+00  7 2 -2 23 -11 11 23 21 2 0.31193097D+00 0.16538761D-01 0.13663109D+06 0.13663109D+06 0.13663109D+06 0.11107655D+01  1  2 15  1  7  1        2 0.180378846776D-03 0.100000000000D+01
0.894742110352D-04 0.000000000000D+00 0.000000000000D+00 0.163513945922D-07 0.000000000000D+00  7 2 -2 23 -11 11 23 21 2 0.36759094D+00 0.16538761D-01 0.17581684D+06 0.17581684D+06 0.17581684D+06 0.11021500D+01  1  2 12  1  7  1        2 0.159259597410D-02 0.100000000000D+01
-.854334418010D-04 0.000000000000D+00 0.000000000000D+00 0.163513945922D-07 0.000000000000D+00  7 2 -2 23 -11 11 23 21 2 0.31193097D+00 0.16538761D-01 0.13663109D+06 0.13663109D+06 0.13663109D+06 0.11107655D+01  1  2  4  1  7  1        2 -.247061836930D-02 0.100000000000D+01
-.226871913916D-03 0.000000000000D+00 -.612215165765D-04 0.163513945922D-07 0.000000000000D+00  7 2 -2 23 -11 11 23 21 2 0.36857391D+00 0.16538761D-01 0.13663109D+06 0.13663109D+06 0.13663109D+06 0.11107655D+01  1  2  5  1  7  1        2 -.410978356814D-02 0.100000000000D+01
0.234655554567D-03 0.000000000000D+00 0.603790269607D-04 0.163513945922D-07 0.000000000000D+00  7 2 -2 23 -11 11 23 21 2 0.31193097D+00 0.16538761D-01 0.13663109D+06 0.13663109D+06 0.13663109D+06 0.11107655D+01  1  2  6  1  7  1        2 0.678591791867D-02 0.100000000000D+01
0.219460075647D-05 0.000000000000D+00 0.000000000000D+00 0.163513945922D-07 0.000000000000D+00  7 21 -2 23 -11 11 23 -2 2 0.36759094D+00 0.16538761D-01 0.17581684D+06 0.17581684D+06 0.17581684D+06 0.11021500D+01  1  2 12  3  7  1        2 0.528542613099D-05 0.100000000000D+01
-.512265830961D-05 0.000000000000D+00 -.152100958436D-05 0.163513945922D-07 0.000000000000D+00  7 21 -2 23 -11 11 23 -2 2 0.36857391D+00 0.16538761D-01 0.13663109D+06 0.13663109D+06 0.13663109D+06 0.11107655D+01  1  2  5  3  7  1        2 -.126561781749D-04 0.100000000000D+01
  </mgrwgt>
  </event>
  <event>
  8     66 0.55102590E-06 0.97282390E+02 0.75467711E-02 0.10199419E+00
        2 -1    0    0  501    0 0.00000000E+00 0.00000000E+00 0.61843117E+02 0.61843945E+02 0.32000000E+00 0.0000E+00 0.9000E+01
       -2 -1    0    0    0  501 0.00000000E+00 0.00000000E+00 -.11283410E+04 0.11283410E+04 0.32000000E+00 0.0000E+00 0.9000E+01
       25  2    1    2    0    0 -.16807230E+03 -.81929416E+01 -.68290718E+03 0.76250782E+03 0.29451747E+03 0.0000E+00 0.0000E+00
       23  2    1    2    0    0 0.16807230E+03 0.81929416E+01 -.38359070E+03 0.42767717E+03 0.86316326E+02 0.0000E+00 0.0000E+00
       23  1    3    3    0    0 -.18388734E+03 -.67850649E+02 -.54311638E+03 0.58455873E+03 0.91188000E+02 0.0000E+00 0.9000E+01
      -11  1    4    4    0    0 0.86417617E+02 -.36122761E+02 -.15755617E+03 0.18329431E+03 0.51099893E-03 0.0000E+00 0.9000E+01
       11  1    4    4    0    0 0.81654687E+02 0.44315703E+02 -.22603453E+03 0.24438285E+03 0.51099893E-03 0.0000E+00 0.9000E+01
       23  1    3    3    0    0 0.15815039E+02 0.59657708E+02 -.13979080E+03 0.17794909E+03 0.91188000E+02 0.0000E+00 0.9000E+01
#aMCatNLO 1  0  0  2  1 0.33712095D+02 0.00000000D+00  -5  7  0 0.00000000D+00 0.00000000D+00 0.00000000D+00 0.00000000D+00 0.00000000D+00
  <mgrwgt>
 0.1290813846D-03    7    2    0
 0.264160261367358D+03 0.000000000000000D+00 0.000000000000000D+00 0.264160261367358D+03
 0.264160261367358D+03 0.000000000000000D+00 0.000000000000000D+00 -.264160261367358D+03
 0.220511151180501D+03 -.183887342769100D+03 -.678506493316283D+02 -.434931144613251D+02
 0.948682014620639D+02 0.864176166666993D+02 -.361227614611698D+02 0.150704108342665D+02
 0.942523560086986D+02 0.816546869485553D+02 0.443157030726739D+02 -.158788278439724D+02
 0.118688814083452D+03 0.158150391538451D+02 0.596577077201243D+02 0.443015314710310D+02
 0.000000000000000D+00 -.000000000000000D+00 -.000000000000000D+00 -.000000000000000D+00
 0.265748715459578D+03 0.000000000000000D+00 0.000000000000000D+00 0.265748715459578D+03
 0.534982861184985D+03 0.000000000000000D+00 0.000000000000000D+00 -.534982861184985D+03
 0.208465561430272D+03 -.171289658405968D+03 -.625367162238270D+02 -.434931144613251D+02
 0.992460777775603D+02 0.921181368775861D+02 -.337181780308233D+02 0.150704108342665D+02
 0.100343834613068D+03 0.873693593670206D+02 0.467262561623826D+02 -.158788278439724D+02
 0.121339539490916D+03 0.228639099844525D+02 0.626310500423849D+02 0.443015314710310D+02
 0.271336563332746D+03 -.310617478230908D+02 -.131024119501173D+02 -.269234145725407D+03
0.734935938358D-05 0.000000000000D+00 0.000000000000D+00 0.416732594728D-10 0.000000000000D+00  7 2 -2 23 -11 11 23 21 0 0.95143928D-02 0.17359099D+00 0.65756078D+05 0.65756078D+05 0.65756078D+05 0.11369759D+01  1  2  2  2  7  2       -2 0.127963500567D-03 0.100000000000D+01
-.407859779935D-06 0.000000000000D+00 -.282234751637D-07 0.416732594728D-10 0.000000000000D+00  7 2 -2 23 -11 11 23 21 2 0.95143928D-02 0.17359099D+00 0.65756078D+05 0.65756078D+05 0.65756078D+05 0.11369759D+01  1  2  3  2  7  2       -2 -.918015577357D-05 0.100000000000D+01
0.477894172554D-06 0.000000000000D+00 0.000000000000D+00 0.416732594728D-10 0.000000000000D+00  7 2 -2 23 -11 11 23 21 2 0.95143928D-02 0.17359099D+00 0.65756078D+05 0.65756078D+05 0.65756078D+05 0.11369759D+01  1  2 15  2  7  2       -2 0.107564980985D-04 0.100000000000D+01
0.128441267069D-03 0.000000000000D+00 0.000000000000D+00 0.416732594728D-10 0.000000000000D+00  7 2 -2 23 -11 11 23 21 2 0.95143928D-02 0.35154466D+00 0.75001456D+05 0.75001456D+05 0.75001456D+05 0.11321205D+01  1  2 12  2  7  2       -2 0.200465982434D-03 0.100000000000D+01
-.127860513429D-03 0.000000000000D+00 -.199614742590D-05 0.416732594728D-10 0.000000000000D+00  7 2 -2 23 -11 11 23 21 2 0.95143928D-02 0.35202216D+00 0.65756078D+05 0.65756078D+05 0.65756078D+05 0.11369759D+01  1  2  5  2  7  2       -2 -.201085904323D-03 0.100000000000D+01
0.980250171034D-05 0.000000000000D+00 0.000000000000D+00 0.416732594728D-10 0.000000000000D+00  7 2 21 23 -11 11 23 2 2 0.95143928D-02 0.35154466D+00 0.75001456D+05 0.75001456D+05 0.75001456D+05 0.11321205D+01  1  2 12  4  7  2       -2 0.116166606049D-03 0.100000000000D+01
-.965559915330D-05 0.000000000000D+00 -.152631904909D-06 0.416732594728D-10 0.000000000000D+00  7 2 21 23 -11 11 23 2 2 0.95143928D-02 0.35202216D+00 0.65756078D+05 0.65756078D+05 0.65756078D+05 0.11369759D+01  1  2  5  4  7  2       -2 -.116005142452D-03 0.100000000000D+01
  </mgrwgt>
  </event>
  <event>
  8     66 0.55102590E-06 0.36091341E+03 0.75467711E-02 0.89480510E-01
        2 -1    0    0  501    0 0.00000000E+00 0.00000000E+00 0.30212343E+04 0.30212343E+04 0.32000000E+00 0.0000E+00 0.9000E+01
       -2 -1    0    0    0  501 0.00000000E+00 0.00000000E+00 -.74207150E+02 0.74207839E+02 0.32000000E+00 0.0000E+00 0.9000E+01
       25  2    1    2    0    0 -.29210346E+03 0.11969303E+03 0.25147796E+04 0.25523711E+04 0.30138170E+03 0.0000E+00 0.0000E+00
       23  2    1    2    0    0 0.29210346E+03 -.11969303E+03 0.43224755E+03 0.54307106E+03 0.91855197E+02 0.0000E+00 0.0000E+00
       23  1    3    3    0    0 -.22718002E+03 0.15005489E+03 0.12628375E+04 0.12950680E+04 0.91188000E+02 0.0000E+00 0.9000E+01
      -13  1    4    4    0    0 0.36177066E+02 0.13228493E-01 0.10324589E+03 0.10940067E+03 0.10565837E+00 0.0000E+00 0.9000E+01
       13  1    4    4    0    0 0.25592639E+03 -.11970626E+03 0.32900166E+03 0.43367039E+03 0.10565837E+00 0.0000E+00 0.9000E+01
       23  1    3    3    0    0 -.64923440E+02 -.30361860E+02 0.12519420E+04 0.12573031E+04 0.91188000E+02 0.0000E+00 0.9000E+01
#aMCatNLO 1  0  0  2  1 0.65301387D+03 0.00000000D+00  -5  7  0 0.00000000D+00 0.00000000D+00 0.00000000D+00 0.00000000D+00 0.00000000D+00
  <mgrwgt>
 0.2815544148D-03    5    2    0
 0.473495803876629D+03 0.000000000000000D+00 0.000000000000000D+00 0.473495803876629D+03
 0.473495803876629D+03 0.000000000000000D+00 0.000000000000000D+00 -.473495803876629D+03
 0.303267285714967D+03 -.227180019245514D+03 0.150054889848793D+03 0.976143643579048D+02
 0.362986721054126D+02 0.361767754850604D+02 0.133868638655414D-01 -.297226057263887D+01
 0.393694342581091D+03 0.255926684523614D+03 -.119706417024516D+03 -.274166265707983D+03
 0.213731307351787D+03 -.649234407631609D+02 -.303618596881418D+02 0.179524161922718D+03
 0.000000000000000D+00 -.000000000000000D+00 -.000000000000000D+00 -.000000000000000D+00
 0.859694491048562D+03 0.000000000000000D+00 0.000000000000000D+00 0.859694491048562D+03
 0.949822849489473D+03 0.000000000000000D+00 0.000000000000000D+00 -.949822849489473D+03
 0.322385235887032D+03 -.832673436560650D+02 0.281344938332649D+03 0.976143643579048D+02
 0.625277061673791D+02 0.589088320579896D+02 0.207516074366783D+02 -.297226057263887D+01
 0.552964394557124D+03 0.473677252175533D+03 0.789451782384629D+02 -.274166265707983D+03
 0.212435759760858D+03 0.331035642575334D+02 0.590671651644663D+02 0.179524161922718D+03
 0.659204244165642D+03 -.482422304834991D+03 -.440108889172256D+03 -.901283584409102D+02
0.219193851042D-04 0.000000000000D+00 0.000000000000D+00 0.197050886729D-06 0.000000000000D+00  7 2 -2 23 -13 13 23 21 0 0.46480532D+00 0.11416539D-01 0.13025849D+06 0.13025849D+06 0.13025849D+06 0.11124209D+01  1  2  2  2  7  2       -2 0.247735026144D-03 0.100000000000D+01
-.110860134798D-05 0.000000000000D+00 -.841762103068D-07 0.197050886729D-06 0.000000000000D+00  7 2 -2 23 -13 13 23 21 2 0.46480532D+00 0.11416539D-01 0.13025849D+06 0.13025849D+06 0.13025849D+06 0.11124209D+01  1  2  3  2  7  2       -2 -.155050338476D-04 0.100000000000D+01
0.138855934141D-05 0.000000000000D+00 0.000000000000D+00 0.197050886729D-06 0.000000000000D+00  7 2 -2 23 -13 13 23 21 2 0.46480532D+00 0.11416539D-01 0.13025849D+06 0.13025849D+06 0.13025849D+06 0.11124209D+01  1  2 15  2  7  2       -2 0.194205605353D-04 0.100000000000D+01
0.415412849017D-04 0.000000000000D+00 -.145110248704D-04 0.197050886729D-06 0.000000000000D+00  7 2 -2 23 -13 13 23 21 2 0.46480532D+00 0.10138138D+00 0.13025849D+06 0.13025849D+06 0.13025849D+06 0.11124209D+01  1  2  5  2  7  2       -2 0.988608973455D-05 0.100000000000D+01
0.890860980958D-05 0.000000000000D+00 -.381538666524D-05 0.197050886729D-06 0.000000000000D+00  7 2 21 23 -13 13 23 2 2 0.46480532D+00 0.10138138D+00 0.13025849D+06 0.13025849D+06 0.13025849D+06 0.11124209D+01  1  2  5  4  7  2       -2 0.200177722388D-04 0.100000000000D+01
  </mgrwgt>
  </event>
  <event>
  8     66 0.55102590E-06 0.18838849E+03 0.75467711E-02 0.98545685E-01
        2 -1    0    0  501    0 0.00000000E+00 0.00000000E+00 0.14653766E+03 0.14653801E+03 0.32000000E+00 0.0000E+00 0.9000E+01
       -2 -1    0    0    0  501 0.00000000E+00 0.00000000E+00 -.46920267E+03 0.46920277E+03 0.32000000E+00 0.0000E+00 0.9000E+01
       25  2    1    2    0    0 -.47536309E+02 0.24083358E+02 -.38649269E+03 0.49249183E+03 0.30055265E+03 0.0000E+00 0.0000E+00
       23  2    1    2    0    0 0.47536309E+02 -.24083358E+02 0.63827686E+02 0.12324895E+03 0.90975944E+02 0.0000E+00 0.0000E+00
       23  1    3    3    0    0 -.51700984E+02 -.99916527E+02 -.13724263E+03 0.19951715E+03 0.91188000E+02 0.0000E+00 0.9000E+01
      -11  1    4    4    0    0 0.12026065E+02 -.37990943E+02 -.91692707E+01 0.40890262E+02 0.51099893E-03 0.0000E+00 0.9000E+01
       11  1    4    4    0    0 0.35510244E+02 0.13907586E+02 0.72996957E+02 0.82358692E+02 0.51099893E-03 0.0000E+00 0.9000E+01
       23  1    3    3    0    0 0.41646754E+01 0.12399988E+03 -.24925006E+03 0.29297468E+03 0.91188000E+02 0.0000E+00 0.9000E+01
#aMCatNLO 1  0  0  1  1 0.24879322D+03 0.00000000D+00  -5  7  0 0.00000000D+00 0.00000000D+00 0.00000000D+00 0.00000000D+00 0.00000000D+00
  <mgrwgt>
 0.2120466083D-03    3    2    0
 0.262213656866169D+03 0.000000000000000D+00 0.000000000000000D+00 0.262213656866169D+03
 0.262213656866169D+03 0.000000000000000D+00 0.000000000000000D+00 -.262213656866169D+03
 0.149815719254496D+03 -.517009840749194D+02 -.999165273159978D+02 -.383822121110580D+02
 0.423685011268634D+02 0.120260647190178D+02 -.379909433083299D+02 0.143927718544511D+02
 0.141611939093569D+03 0.355102439733007D+02 0.139075857815306D+02 0.136380141239576D+03
 0.190631154257410D+03 0.416467538260094D+01 0.123999884842797D+03 -.112390700982969D+03
 0.000000000000000D+00 0.000000000000000D+00 -.000000000000000D+00 -.000000000000000D+00
 0.318220261691512D+03 0.000000000000000D+00 0.000000000000000D+00 0.318220261691512D+03
 0.842978662467670D+03 0.000000000000000D+00 0.000000000000000D+00 -.842978662467670D+03
 0.124923794096634D+03 -.652194945110648D+02 -.395465082741972D+02 -.383822121110580D+02
 0.280601755829538D+02 0.856063381141930D+01 -.225152641743041D+02 0.143927718544511D+02
 0.159497037725290D+03 0.206942286288299D+02 0.800719115550108D+02 0.136380141239576D+03
 0.267968880045678D+03 -.184006603207478D+02 0.224770583843287D+03 -.112390700982969D+03
 0.580749036708626D+03 0.543652923915634D+02 -.242780722949797D+03 -.524758400776158D+03
0.387626366566D-05 0.000000000000D+00 0.000000000000D+00 0.228889063957D-06 0.000000000000D+00  7 2 -2 23 -11 11 23 21 0 0.22544291D-01 0.72185061D-01 0.35490222D+05 0.35490222D+05 0.35490222D+05 0.11606240D+01  1  2  2  1  7  1        2 0.207955970487D-03 0.100000000000D+01
-.186721477353D-06 0.000000000000D+00 -.148858731198D-07 0.228889063957D-06 0.000000000000D+00  7 2 -2 23 -11 11 23 21 2 0.22544291D-01 0.72185061D-01 0.35490222D+05 0.35490222D+05 0.35490222D+05 0.11606240D+01  1  2  3  1  7  1        2 -.134938365771D-04 0.100000000000D+01
0.243325833494D-06 0.000000000000D+00 0.000000000000D+00 0.228889063957D-06 0.000000000000D+00  7 2 -2 23 -11 11 23 21 2 0.22544291D-01 0.72185061D-01 0.35490222D+05 0.35490222D+05 0.35490222D+05 0.11606240D+01  1  2 15  1  7  1        2 0.175844743663D-04 0.100000000000D+01
  </mgrwgt>
  </event>
  <event>
  8     66 0.55102590E-06 0.55033867E+03 0.75467711E-02 0.91579162E-01
        2 -1    0    0  501    0 0.00000000E+00 0.00000000E+00 0.20188339E+04 0.20188339E+04 0.32000000E+00 0.0000E+00 0.9000E+01
       -2 -1    0    0    0  501 0.00000000E+00 0.00000000E+00 -.15885024E+03 0.15885057E+03 0.32000000E+00 0.0000E+00 0.9000E+01
       25  2    1    2    0    0 0.41494659E+03 0.30918840E+03 0.85271306E+03 0.10415609E+04 0.29991883E+03 0.0000E+00 0.0000E+00
       23  2    1    2    0    0 -.41494659E+03 -.30918840E+03 0.10072706E+04 0.11361236E+04 0.91677337E+02 0.0000E+00 0.0000E+00
       23  1    3    3    0    0 0.36995753E+03 0.29179072E+03 0.59810303E+03 0.76684606E+03 0.91188000E+02 0.0000E+00 0.9000E+01
      -11  1    4    4    0    0 -.32848037E+03 -.25038934E+03 0.87440976E+03 0.96705046E+03 0.51099893E-03 0.0000E+00 0.9000E+01
       11  1    4    4    0    0 -.86466225E+02 -.58799055E+02 0.13286084E+03 0.16907318E+03 0.51099893E-03 0.0000E+00 0.9000E+01
       23  1    3    3    0    0 0.44989064E+02 0.17397674E+02 0.25461003E+03 0.27471479E+03 0.91188000E+02 0.0000E+00 0.9000E+01
#aMCatNLO 1  0  0  2  1 0.20113018D+03 0.00000000D+00  -5  7  0 0.00000000D+00 0.00000000D+00 0.00000000D+00 0.00000000D+00 0.00000000D+00
  <mgrwgt>
 0.4047457257D-03    4    2    0
 0.566297304321975D+03 0.000000000000000D+00 0.000000000000000D+00 0.566297304321975D+03
 0.566297304321975D+03 0.000000000000000D+00 0.000000000000000D+00 -.566297304321975D+03
 0.492221063136882D+03 0.369957529808931D+03 0.291790723894293D+03 -.109343144451404D+03
 0.423402104472251D+03 -.328480368296818D+03 -.250389343301638D+03 0.931405737371832D+02
 0.106895307329279D+03 -.864662254578943D+02 -.587990545360735D+02 -.222006704797282D+02
 0.110076133705539D+03 0.449890639457818D+02 0.173976739434185D+02 0.384032411939484D+02
 0.000000000000000D+00 -.000000000000000D+00 0.000000000000000D+00 0.000000000000000D+00
 0.755788693410041D+03 0.000000000000000D+00 0.000000000000000D+00 0.755788693410041D+03
 0.631146172749742D+03 0.000000000000000D+00 0.000000000000000D+00 -.631146172749742D+03
 0.536171026022721D+03 0.451346894930215D+03 0.251980505199490D+03 -.109343144451404D+03
 0.397163680349884D+03 -.263538864982165D+03 -.282154371146161D+03 0.931405737371832D+02
 0.993623676175221D+02 -.701425086651769D+02 -.667835219718585D+02 -.222006704797282D+02
 0.117617620086806D+03 0.630092823610996D+02 0.858339169692487D+01 0.384032411939484D+02
 0.236620172082850D+03 -.180674803643973D+03 0.883739962216053D+02 0.124642520660299D+03
0.407054287116D-04 0.000000000000D+00 0.000000000000D+00 0.209021808924D-05 0.000000000000D+00  7 2 -2 23 -11 11 23 21 0 0.31058986D+00 0.24438526D-01 0.30287265D+06 0.30287265D+06 0.30287265D+06 0.10842458D+01  1  2  2  2  7  2       -2 0.488265316469D-03 0.100000000000D+01
-.225916598845D-05 0.000000000000D+00 -.156319564238D-06 0.209021808924D-05 0.000000000000D+00  7 2 -2 23 -11 11 23 21 2 0.31058986D+00 0.24438526D-01 0.30287265D+06 0.30287265D+06 0.30287265D+06 0.10842458D+01  1  2  3  2  7  2       -2 -.318571686013D-04 0.100000000000D+01
0.258354851993D-05 0.000000000000D+00 0.000000000000D+00 0.209021808924D-05 0.000000000000D+00  7 2 -2 23 -11 11 23 21 2 0.31058986D+00 0.24438526D-01 0.30287265D+06 0.30287265D+06 0.30287265D+06 0.10842458D+01  1  2 15  2  7  2       -2 0.364313827358D-04 0.100000000000D+01
-.624721331137D-05 0.000000000000D+00 0.000000000000D+00 0.209021808924D-05 0.000000000000D+00  7 2 -2 23 -11 11 23 21 2 0.31058986D+00 0.24438526D-01 0.30287265D+06 0.30287265D+06 0.30287265D+06 0.10842458D+01  1  2  4  2  7  2       -2 -.880938048668D-04 0.100000000000D+01
  </mgrwgt>
  </event>
  <event>
  8     66 0.55102590E-06 0.13714684E+03 0.75467711E-02 0.10234142E+00
        2 -1    0    0  501    0 0.00000000E+00 0.00000000E+00 0.11350091E+04 0.11350092E+04 0.32000000E+00 0.0000E+00 0.9000E+01
       -2 -1    0    0    0  501 0.00000000E+00 0.00000000E+00 -.61134990E+02 0.61135828E+02 0.32000000E+00 0.0000E+00 0.9000E+01
       25  2    1    2    0    0 -.14054660E+03 -.78398058E+02 0.64344454E+03 0.72804359E+03 0.30021159E+03 0.0000E+00 0.0000E+00
       23  2    1    2    0    0 0.14054660E+03 0.78398058E+02 0.43042959E+03 0.46810140E+03 0.89161013E+02 0.0000E+00 0.0000E+00
       23  1    3    3    0    0 -.12968973E+03 -.69715998E+02 0.15969766E+03 0.23558086E+03 0.91188000E+02 0.0000E+00 0.9000E+01
      -11  1    4    4    0    0 0.14727349E+03 0.56447323E+02 0.40008100E+03 0.43004719E+03 0.51099893E-03 0.0000E+00 0.9000E+01
       11  1    4    4    0    0 -.67268903E+01 0.21950735E+02 0.30348593E+02 0.38054211E+02 0.51099893E-03 0.0000E+00 0.9000E+01
       23  1    3    3    0    0 -.10856865E+02 -.86820593E+01 0.48374688E+03 0.49246273E+03 0.91188000E+02 0.0000E+00 0.9000E+01
#aMCatNLO 1  0  0  1  2 0.79619956D+02 0.00000000D+00  -5  7  0 0.00000000D+00 0.00000000D+00 0.00000000D+00 0.00000000D+00 0.00000000D+00
  <mgrwgt>
 0.3118070957D-03    9    2    0
 0.263418486583258D+03 0.000000000000000D+00 0.000000000000000D+00 0.263418486583258D+03
 0.263418486583258D+03 0.000000000000000D+00 0.000000000000000D+00 -.263418486583258D+03
 0.209350681275269D+03 -.129689732500058D+03 -.697159983404183D+02 -.117612538727303D+03
 0.160888781802142D+03 0.147273487605545D+03 0.564473225983417D+02 0.317713665075235D+02
 0.245384906210499D+02 -.672689030548172D+01 0.219507350813683D+02 -.866323831860540D+01
 0.132059019468055D+03 -.108568648000057D+02 -.868205933929171D+01 0.945044105383849D+02
 0.000000000000000D+00 0.000000000000000D+00 -.000000000000000D+00 0.000000000000000D+00
 0.359181210836416D+03 0.000000000000000D+00 0.000000000000000D+00 0.359181210836416D+03
 0.283492912074806D+03 0.000000000000000D+00 0.000000000000000D+00 -.283492912074806D+03
 0.214990816627712D+03 -.148741031251620D+03 -.441497026782047D+02 -.117612538727303D+03
 0.156257078806712D+03 0.133034860065842D+03 0.755551517417147D+02 0.317713665075235D+02
 0.280846398306439D+02 -.908946616580177D+01 0.251212440192117D+02 -.866323831860540D+01
 0.133486884072392D+03 -.227788530231777D+02 0.731690638844141D+01 0.945044105383849D+02
 0.109854703573762D+03 0.475744903747576D+02 -.638435994711630D+02 0.756882987616109D+02
0.145495213447D-05 0.000000000000D+00 0.000000000000D+00 0.549433730356D-07 0.000000000000D+00  7 2 -2 23 -11 11 23 21 0 0.17461685D+00 0.94054510D-02 0.49753779D+05 0.49753779D+05 0.49753779D+05 0.11474840D+01  1  2  2  1  7  1        2 0.255761588839D-03 0.100000000000D+01
-.781119638516D-07 0.000000000000D+00 -.558739929404D-08 0.549433730356D-07 0.000000000000D+00  7 2 -2 23 -11 11 23 21 2 0.17461685D+00 0.94054510D-02 0.49753779D+05 0.49753779D+05 0.49753779D+05 0.11474840D+01  1  2  3  1  7  1        2 -.180799597905D-04 0.100000000000D+01
0.930434595622D-07 0.000000000000D+00 0.000000000000D+00 0.549433730356D-07 0.000000000000D+00  7 2 -2 23 -11 11 23 21 2 0.17461685D+00 0.94054510D-02 0.49753779D+05 0.49753779D+05 0.49753779D+05 0.11474840D+01  1  2 15  1  7  1        2 0.215360352590D-04 0.100000000000D+01
0.146303292025D-05 0.000000000000D+00 0.000000000000D+00 0.549433730356D-07 0.000000000000D+00  7 2 -2 23 -11 11 23 21 2 0.24290614D+00 0.94054510D-02 0.71174249D+05 0.71174249D+05 0.71174249D+05 0.11340459D+01  1  2 12  1  7  1        2 0.188924641346D-03 0.100000000000D+01
-.167320655699D-05 0.000000000000D+00 0.000000000000D+00 0.549433730356D-07 0.000000000000D+00  7 2 -2 23 -11 11 23 21 2 0.17461685D+00 0.94054510D-02 0.49753779D+05 0.49753779D+05 0.49753779D+05 0.11474840D+01  1  2  4  1  7  1        2 -.387283916315D-03 0.100000000000D+01
-.223297709576D-05 0.000000000000D+00 -.605102238478D-06 0.549433730356D-07 0.000000000000D+00  7 2 -2 23 -11 11 23 21 2 0.24611420D+00 0.94054510D-02 0.49753779D+05 0.49753779D+05 0.49753779D+05 0.11474840D+01  1  2  5  1  7  1        2 -.288895899319D-03 0.100000000000D+01
0.233570316535D-05 0.000000000000D+00 0.571134591829D-06 0.549433730356D-07 0.000000000000D+00  7 2 -2 23 -11 11 23 21 2 0.17461685D+00 0.94054510D-02 0.49753779D+05 0.49753779D+05 0.49753779D+05 0.11474840D+01  1  2  6  1  7  1        2 0.540626777640D-03 0.100000000000D+01
0.605876327225D-07 0.000000000000D+00 0.000000000000D+00 0.549433730356D-07 0.000000000000D+00  7 21 -2 23 -11 11 23 -2 2 0.24290614D+00 0.94054510D-02 0.71174249D+05 0.71174249D+05 0.71174249D+05 0.11340459D+01  1  2 12  3  7  1        2 0.268018227991D-05 0.100000000000D+01
-.784785584962D-07 0.000000000000D+00 -.257724507319D-07 0.549433730356D-07 0.000000000000D+00  7 21 -2 23 -11 11 23 -2 2 0.24611420D+00 0.94054510D-02 0.49753779D+05 0.49753779D+05 0.49753779D+05 0.11474840D+01  1  2  5  3  7  1        2 -.346235426903D-05 0.100000000000D+01
  </mgrwgt>
  </event>
  <event>
  8     66 0.55102590E-06 0.31404774E+03 0.75467711E-02 0.75522392E-01
        2 -1    0    0  501    0 0.00000000E+00 0.00000000E+00 0.25039631E+03 0.25039651E+03 0.32000000E+00 0.0000E+00 0.9000E+01
       -2 -1    0    0    0  501 0.00000000E+00 0.00000000E+00 -.57971817E+03 0.57971826E+03 0.32000000E+00 0.0000E+00 0.9000E+01
       25  2    1    2    0    0 -.95048615E+02 -.22296287E+03 0.31849398E+02 0.38667033E+03 0.29958786E+03 0.0000E+00 0.0000E+00
       23  2    1    2    0    0 0.95048615E+02 0.22296287E+03 -.36117126E+03 0.44344444E+03 0.86322686E+02 0.0000E+00 0.0000E+00
       23  1    3    3    0    0 -.12473656E+03 -.13932643E+02 0.19485435E+02 0.15635940E+03 0.91188000E+02 0.0000E+00 0.9000E+01
      -13  1    4    4    0    0 0.80177555E+02 0.20149214E+03 -.25807282E+03 0.33708918E+03 0.10565837E+00 0.0000E+00 0.9000E+01
       13  1    4    4    0    0 0.14871060E+02 0.21470730E+02 -.10309844E+03 0.10635526E+03 0.10565837E+00 0.0000E+00 0.9000E+01
       23  1    3    3    0    0 0.29687943E+02 -.20903023E+03 0.12363963E+02 0.23031094E+03 0.91188000E+02 0.0000E+00 0.9000E+01
#aMCatNLO 1  0  0  1  2 0.41394561D+04 0.00000000D+00  -5  7  0 0.00000000D+00 0.00000000D+00 0.00000000D+00 0.00000000D+00 0.00000000D+00
  <mgrwgt>
 0.3445100139D-03    5    2    0
 0.380997913774565D+03 0.000000000000000D+00 0.000000000000000D+00 0.380997913774565D+03
 0.380997913774565D+03 0.000000000000000D+00 0.000000000000000D+00 -.380997913774565D+03
 0.178758491340142D+03 -.124736557859151D+03 -.139326434417057D+02 0.888032626786912D+02
 0.255688924614389D+03 0.801776531442271D+02 0.201492408418417D+03 -.135459143126230D+03
 0.713052307091646D+02 0.148709621292161D+02 0.214704605844471D+02 -.663499037989530D+02
 0.256243180885435D+03 0.296879425857075D+02 -.209030225561158D+03 0.113005784246492D+03
 0.000000000000000D+00 -.000000000000000D+00 -.000000000000000D+00 0.000000000000000D+00
 0.503350972648431D+04 0.000000000000000D+00 0.000000000000000D+00 0.503350972648431D+04
 0.356703806755524D+04 0.000000000000000D+00 0.000000000000000D+00 -.356703806755524D+04
 0.441395806929525D+03 0.251914731248105D+03 0.339364046046103D+03 0.888032626786912D+02
 0.247885627107339D+04 0.174100621782827D+04 0.175933981443798D+04 -.135459143126230D+03
 0.532581321668554D+03 0.381642020658101D+03 0.365499552016271D+03 -.663499037989530D+02
 0.756172968649268D+03 0.644579831425658D+03 0.367734742467927D+03 0.113005784246492D+03
 0.439154142571881D+04 -.301914280116014D+04 -.283193815496828D+04 0.146647165892908D+04
0.187068715989D-04 0.000000000000D+00 0.000000000000D+00 0.375531308220D-07 0.000000000000D+00  7 2 -2 23 -13 13 23 21 0 0.38522531D-01 0.89187433D-01 0.98625980D+05 0.98625980D+05 0.98625980D+05 0.11222155D+01  1  2  2  1  7  1        2 0.339940796746D-03 0.100000000000D+01
-.992081269707D-06 0.000000000000D+00 -.718393125722D-07 0.375531308220D-07 0.000000000000D+00  7 2 -2 23 -13 13 23 21 2 0.38522531D-01 0.89187433D-01 0.98625980D+05 0.98625980D+05 0.98625980D+05 0.11222155D+01  1  2  3  1  7  1        2 -.227039732469D-04 0.100000000000D+01
0.119162608269D-05 0.000000000000D+00 0.000000000000D+00 0.375531308220D-07 0.000000000000D+00  7 2 -2 23 -13 13 23 21 2 0.38522531D-01 0.89187433D-01 0.98625980D+05 0.98625980D+05 0.98625980D+05 0.11222155D+01  1  2 15  1  7  1        2 0.272705951900D-04 0.100000000000D+01
0.123788822012D-03 0.000000000000D+00 -.317284409745D-04 0.375531308220D-07 0.000000000000D+00  7 2 -2 23 -13 13 23 21 2 0.94189928D+00 0.89187433D-01 0.98625980D+05 0.98625980D+05 0.98625980D+05 0.11222155D+01  1  2  5  1  7  1        2 0.259371925209D-08 0.100000000000D+01
0.322132496206D-04 0.000000000000D+00 -.104987234915D-04 0.375531308220D-07 0.000000000000D+00  7 21 -2 23 -13 13 23 -2 2 0.94189928D+00 0.89187433D-01 0.98625980D+05 0.98625980D+05 0.98625980D+05 0.11222155D+01  1  2  5  3  7  1        2 0.148265749948D-11 0.100000000000D+01
  </mgrwgt>
  </event>
  <event>
  8     66 0.55102590E-06 0.21877573E+03 0.75467711E-02 0.10182090E+00
        2 -1    0    0  501    0 0.00000000E+00 0.00000000E+00 0.39029726E+03 0.39029739E+03 0.32000000E+00 0.0000E+00 0.9000E+01
       -2 -1    0    0    0  501 0.00000000E+00 0.00000000E+00 -.22933090E+03 0.22933112E+03 0.32000000E+00 0.0000E+00 0.9000E+01
       25  2    1    2    0    0 0.14205418E+03 0.74382574E+02 0.24349599E+03 0.41791772E+03 0.29942072E+03 0.0000E+00 0.0000E+00
       23  2    1    2    0    0 -.14205418E+03 -.74382574E+02 -.82529622E+02 0.20171079E+03 0.90354568E+02 0.0000E+00 0.0000E+00
       23  1    3    3    0    0 0.44162697E+02 -.14044132E+02 0.23618699E+03 0.25738517E+03 0.91188000E+02 0.0000E+00 0.9000E+01
      -11  1    4    4    0    0 -.14924454E+03 -.76068193E+02 -.59888900E+02 0.17789599E+03 0.51099893E-03 0.0000E+00 0.9000E+01
       11  1    4    4    0    0 0.71903597E+01 0.16856181E+01 -.22640722E+02 0.23814803E+02 0.51099893E-03 0.0000E+00 0.9000E+01
       23  1    3    3    0    0 0.97891485E+02 0.88426706E+02 0.73089957E+01 0.16053255E+03 0.91188000E+02 0.0000E+00 0.9000E+01
#aMCatNLO 1  0  0  2  1 0.99744755D+02 0.00000000D+00  -5  7  0 0.00000000D+00 0.00000000D+00 0.00000000D+00 0.00000000D+00 0.00000000D+00
  <mgrwgt>
 0.1213999655D-03    4    2    0
 0.299177757762393D+03 0.000000000000000D+00 0.000000000000000D+00 0.299177757762393D+03
 0.299177757762393D+03 0.000000000000000D+00 0.000000000000000D+00 -.299177757762393D+03
 0.202998096423941D+03 0.441626971436690D+02 -.140441317137356D+02 0.175343646457885D+03
 0.200331615212683D+03 -.149244542288918D+03 -.760681926095216D+02 -.109874713759874D+03
 0.307521619968424D+02 0.719035972469284D+01 0.168561814061849D+01 -.298521839401001D+02
 0.164273641891321D+03 0.978914854205565D+02 0.884267061826387D+02 -.356167487579104D+02
 0.000000000000000D+00 -.000000000000000D+00 0.000000000000000D+00 0.000000000000000D+00
 0.355036780902353D+03 0.000000000000000D+00 0.000000000000000D+00 0.355036780902353D+03
 0.351386911579316D+03 0.000000000000000D+00 0.000000000000000D+00 -.351386911579316D+03
 0.213382933926628D+03 0.744178918228457D+02 -.305550023830990D+02 0.175343646457885D+03
 0.187331766340188D+03 -.121076037424528D+03 -.914403145111331D+02 -.109874713759874D+03
 0.320940514204803D+02 0.117569088304225D+02 -.806439917163321D+00 -.298521839401001D+02
 0.173803430090946D+03 0.122456936014638D+03 0.750208437515942D+02 -.356167487579104D+02
 0.998115107034276D+02 -.875556992433783D+02 0.477809130598012D+02 0.364986932303696D+01
0.381304437376D-05 0.000000000000D+00 0.000000000000D+00 0.181998347143D-06 0.000000000000D+00  7 2 -2 23 -11 11 23 21 0 0.60045760D-01 0.35281704D-01 0.47862819D+05 0.47862819D+05 0.47862819D+05 0.11489679D+01  1  2  2  2  7  2       -2 0.280517792364D-03 0.100000000000D+01
-.186604248360D-06 0.000000000000D+00 -.146430943929D-07 0.181998347143D-06 0.000000000000D+00  7 2 -2 23 -11 11 23 21 2 0.60045760D-01 0.35281704D-01 0.47862819D+05 0.47862819D+05 0.47862819D+05 0.11489679D+01  1  2  3  2  7  2       -2 -.181228232884D-04 0.100000000000D+01
0.242998812040D-06 0.000000000000D+00 0.000000000000D+00 0.181998347143D-06 0.000000000000D+00  7 2 -2 23 -11 11 23 21 2 0.60045760D-01 0.35281704D-01 0.47862819D+05 0.47862819D+05 0.47862819D+05 0.11489679D+01  1  2 15  2  7  2       -2 0.235998085178D-04 0.100000000000D+01
-.169477408211D-05 0.000000000000D+00 0.000000000000D+00 0.181998347143D-06 0.000000000000D+00  7 2 -2 23 -11 11 23 21 2 0.60045760D-01 0.35281704D-01 0.47862819D+05 0.47862819D+05 0.47862819D+05 0.11489679D+01  1  2  4  2  7  2       -2 -.164594812143D-03 0.100000000000D+01
  </mgrwgt>
  </event>
  <event>
  9     66 0.55102590E-06 0.20300633E+03 0.75467711E-02 0.10262364E+00
        2 -1    0    0  502    0 0.00000000E+00 0.00000000E+00 0.25624830E+04 0.25624830E+04 0.32000000E+00 0.0000E+00 0.9000E+01
       -2 -1    0    0    0  501 0.00000000E+00 0.00000000E+00 -.28790711E+02 0.28792489E+02 0.32000000E+00 0.0000E+00 0.9000E+01
       25  2    1    2    0    0 0.23587462E+02 -.23547050E+02 0.15786068E+04 0.16071059E+04 0.29946511E+03 0.0000E+00 0.0000E+00
       23  2    1    2    0    0 0.76544887E+02 0.54288895E+02 0.44155140E+03 0.46006137E+03 0.88782989E+02 0.0000E+00 0.0000E+00
       23  1    3    3    0    0 0.12746832E+03 -.22678865E+02 0.69977102E+03 0.71746584E+03 0.91188000E+02 0.0000E+00 0.9000E+01
      -13  1    4    4    0    0 0.66195730E+02 0.73704427E+02 0.40861171E+03 0.42044947E+03 0.10565837E+00 0.0000E+00 0.9000E+01
       13  1    4    4    0    0 0.10349157E+02 -.19415532E+02 0.32939687E+02 0.39611893E+02 0.10565837E+00 0.0000E+00 0.9000E+01
       23  1    3    3    0    0 -.10388085E+03 -.86818509E+00 0.87883575E+03 0.88964010E+03 0.91188000E+02 0.0000E+00 0.9000E+01
       21  1    1    2  502  501 -.10013235E+03 -.30741845E+02 0.51353411E+03 0.52410819E+03 0.75000000E+00 0.0000E+00 0.9000E+01
#aMCatNLO 2  0  0  1  1 0.10474516D+03 0.00000000D+00  -5  7  0 0.00000000D+00 0.00000000D+00 0.00000000D+00 0.00000000D+00 0.00000000D+00
  <mgrwgt>
 0.5855852488D-04    1    2    0
 0.212820415304648D+03 0.000000000000000D+00 0.000000000000000D+00 0.212820415304648D+03
 0.212820415304648D+03 0.000000000000000D+00 0.000000000000000D+00 -.212820415304648D+03
 0.134872576579782D+03 0.934682329209513D+02 -.331173027169026D+02 -.650340408255721D+01
 0.817238565082969D+02 0.451755876322609D+02 0.672511021783541D+02 -.107351879566773D+02
 0.350097700283803D+02 0.223543116084387D+01 -.219066455988693D+02 -.272173790724006D+02
 0.174034627492836D+03 -.140879251714056D+03 -.122271538625823D+02 0.444559711116351D+02
 0.000000000000000D+00 -.000000000000000D+00 -.000000000000000D+00 0.000000000000000D+00
 0.274808746685720D+03 0.000000000000000D+00 0.000000000000000D+00 0.274808746685720D+03
 0.268467834155138D+03 0.000000000000000D+00 0.000000000000000D+00 -.268467834155138D+03
 0.158493035434454D+03 0.127468291824002D+03 -.226788723713731D+02 -.650340408255721D+01
 0.996468520334212D+02 0.661958249101299D+02 0.737045699001953D+02 -.107351879566773D+02
 0.349979564547124D+02 0.103490843179096D+02 -.194156556988425D+02 -.272173790724006D+02
 0.145201824670361D+03 -.103880851993563D+03 -.868196530194700D+00 0.444559711116351D+02
 0.104936912247909D+03 -.100132349058478D+03 -.307418452997850D+02 0.634091253058228D+01
0.498841287127D-06 0.000000000000D+00 0.000000000000D+00 0.112885209214D-07 0.764903819560D-11  7 2 -2 23 -13 13 23 21 2 0.39422634D+00 0.44294566D-02 0.68226004D+05 0.68226004D+05 0.68226004D+05 0.11356085D+01  1  2  1  1  7  1        2 0.585585248776D-04 0.100000000000D+01
  </mgrwgt>
  </event>
  <event>
  8     66 0.55102590E-06 0.16221472E+03 0.75467711E-02 0.97375381E-01
        2 -1    0    0  501    0 0.00000000E+00 0.00000000E+00 0.20575462E+04 0.20575462E+04 0.32000000E+00 0.0000E+00 0.9000E+01
       -2 -1    0    0    0  501 0.00000000E+00 0.00000000E+00 -.69227360E+02 0.69228100E+02 0.32000000E+00 0.0000E+00 0.9000E+01
       25  2    1    2    0    0 0.12102027E+03 -.28175049E+03 0.12498074E+04 0.13212452E+04 0.29940118E+03 0.0000E+00 0.0000E+00
       23  2    1    2    0    0 -.12102027E+03 0.28175049E+03 0.73851139E+03 0.80552909E+03 0.97204912E+02 0.0000E+00 0.0000E+00
       23  1    3    3    0    0 0.77789668E+02 -.25700109E+03 0.60552629E+03 0.66863901E+03 0.91188000E+02 0.0000E+00 0.9000E+01
      -11  1    4    4    0    0 -.11072502E+03 0.25504659E+03 0.56540399E+03 0.63007180E+03 0.51099893E-03 0.0000E+00 0.9000E+01
       11  1    4    4    0    0 -.10295242E+02 0.26703903E+02 0.17310739E+03 0.17545729E+03 0.51099893E-03 0.0000E+00 0.9000E+01
       23  1    3    3    0    0 0.43230598E+02 -.24749407E+02 0.64428115E+03 0.65260621E+03 0.91188000E+02 0.0000E+00 0.9000E+01
#aMCatNLO 1  0  0  2  1 0.90422235D+02 0.00000000D+00  -5  7  0 0.00000000D+00 0.00000000D+00 0.00000000D+00 0.00000000D+00 0.00000000D+00
  <mgrwgt>
 0.2768375751D-03    9    2    0
 0.377411319580049D+03 0.000000000000000D+00 0.000000000000000D+00 0.377411319580049D+03
 0.377411319580049D+03 0.000000000000000D+00 0.000000000000000D+00 -.377411319580049D+03
 0.288895620002833D+03 0.777896675148704D+02 -.257001086077517D+03 -.551782320822622D+02
 0.285917641066068D+03 -.110725023457691D+03 0.255046590294311D+03 -.666341011219063D+02
 0.383737361759742D+02 -.102952416484011D+02 0.267039029035468D+02 0.255627306292236D+02
 0.141635641915223D+03 0.432305975912219D+02 -.247494071203412D+02 0.962496025749449D+02
 0.000000000000000D+00 -.000000000000000D+00 0.000000000000000D+00 -.000000000000000D+00
 0.404758283936089D+03 0.000000000000000D+00 0.000000000000000D+00 0.404758283936089D+03
 0.463036989434490D+03 0.000000000000000D+00 0.000000000000000D+00 -.463036989434490D+03
 0.323114827374388D+03 0.893426994688421D+02 -.291652507414349D+03 -.551782320822622D+02
 0.254782326588142D+03 -.100518132332563D+03 0.224432697220605D+03 -.666341011219063D+02
 0.352233062224663D+02 -.890593696219704D+01 0.225369117415133D+02 0.255627306292236D+02
 0.147098848473834D+03 0.486810908106987D+02 -.410972660888009D+02 0.962496025749449D+02
 0.107575964711748D+03 -.285997209847811D+02 0.857801645410318D+02 -.582787054984012D+02
0.482309386371D-05 0.000000000000D+00 0.000000000000D+00 0.201389007627D-07 0.000000000000D+00  7 2 -2 23 -11 11 23 21 0 0.31654563D+00 0.10650422D-01 0.12046057D+06 0.12046057D+06 0.12046057D+06 0.11151475D+01  1  2  2  2  7  2       -2 0.219679427165D-03 0.100000000000D+01
-.265662011253D-06 0.000000000000D+00 -.185219503864D-07 0.201389007627D-07 0.000000000000D+00  7 2 -2 23 -11 11 23 21 2 0.31654563D+00 0.10650422D-01 0.12046057D+06 0.12046057D+06 0.12046057D+06 0.11151475D+01  1  2  3  2  7  2       -2 -.150472728907D-04 0.100000000000D+01
0.310727529510D-06 0.000000000000D+00 0.000000000000D+00 0.201389007627D-07 0.000000000000D+00  7 2 -2 23 -11 11 23 21 2 0.31654563D+00 0.10650422D-01 0.12046057D+06 0.12046057D+06 0.12046057D+06 0.11151475D+01  1  2 15  2  7  2       -2 0.175998137977D-04 0.100000000000D+01
0.544892299004D-05 0.000000000000D+00 0.000000000000D+00 0.201389007627D-07 0.000000000000D+00  7 2 -2 23 -11 11 23 21 2 0.31654563D+00 0.13387504D-01 0.15609490D+06 0.15609490D+06 0.15609490D+06 0.11061895D+01  1  2 12  2  7  2       -2 0.210462958255D-03 0.100000000000D+01
-.563421719000D-05 0.000000000000D+00 0.000000000000D+00 0.201389007627D-07 0.000000000000D+00  7 2 -2 23 -11 11 23 21 2 0.31654563D+00 0.10650422D-01 0.12046057D+06 0.12046057D+06 0.12046057D+06 0.11151475D+01  1  2  4  2  7  2       -2 -.319125806447D-03 0.100000000000D+01
-.954260121920D-05 0.000000000000D+00 -.266009971383D-05 0.201389007627D-07 0.000000000000D+00  7 2 -2 23 -11 11 23 21 2 0.31654563D+00 0.14137320D-01 0.12046057D+06 0.12046057D+06 0.12046057D+06 0.11151475D+01  1  2  5  2  7  2       -2 -.346142515490D-03 0.100000000000D+01
0.999564864347D-05 0.000000000000D+00 0.255686576803D-05 0.201389007627D-07 0.000000000000D+00  7 2 -2 23 -11 11 23 21 2 0.31654563D+00 0.10650422D-01 0.12046057D+06 0.12046057D+06 0.12046057D+06 0.11151475D+01  1  2  6  2  7  2       -2 0.566160182815D-03 0.100000000000D+01
0.172615954659D-06 0.000000000000D+00 0.000000000000D+00 0.201389007627D-07 0.000000000000D+00  7 2 21 23 -11 11 23 2 2 0.31654563D+00 0.13387504D-01 0.15609490D+06 0.15609490D+06 0.15609490D+06 0.11061895D+01  1  2 12  4  7  2       -2 0.913784681548D-04 0.100000000000D+01
-.299309624859D-06 0.000000000000D+00 -.986284779922D-07 0.201389007627D-07 0.000000000000D+00  7 2 21 23 -11 11 23 2 2 0.31654563D+00 0.14137320D-01 0.12046057D+06 0.12046057D+06 0.12046057D+06 0.11151475D+01  1  2  5  4  7  2       -2 -.148127680255D-03 0.100000000000D+01
  </mgrwgt>
  </event>
  <event>
  8     66 0.55102590E-06 0.33596519E+03 0.75467711E-02 0.87604342E-01
        2 -1    0    0  501    0 0.00000000E+00 0.00000000E+00 0.10094271E+04 0.10094271E+04 0.32000000E+00 0.0000E+00 0.9000E+01
       -2 -1    0    0    0  501 0.00000000E+00 0.00000000E+00 -.72480840E+03 0.72480847E+03 0.32000000E+00 0.0000E+00 0.9000E+01
       25  2    1    2    0    0 -.15876498E+03 -.77651052E+03 -.91270594E+02 0.85244650E+03 0.30026623E+03 0.0000E+00 0.0000E+00
       23  2    1    2    0    0 0.15876498E+03 0.77651052E+03 0.37588927E+03 0.88178909E+03 0.89913000E+02 0.0000E+00 0.0000E+00
       23  1    3    3    0    0 -.92720628E+02 -.67998562E+03 -.32970273E+02 0.69309440E+03 0.91188000E+02 0.0000E+00 0.9000E+01
      -13  1    4    4    0    0 0.15954508E+03 0.63519363E+03 0.32883287E+03 0.73284149E+03 0.10565837E+00 0.0000E+00 0.9000E+01
       13  1    4    4    0    0 -.78009664E+00 0.14131689E+03 0.47056401E+02 0.14894760E+03 0.10565837E+00 0.0000E+00 0.9000E+01
       23  1    3    3    0    0 -.66044354E+02 -.96524902E+02 -.58300321E+02 0.15935210E+03 0.91188000E+02 0.0000E+00 0.9000E+01
#aMCatNLO 1  0  0  2  1 0.29299596D+03 0.00000000D+00  -5  7  0 0.00000000D+00 0.00000000D+00 0.00000000D+00 0.00000000D+00 0.00000000D+00
  <mgrwgt>
 0.2501696081D-03    9    2    0
 0.855360347167044D+03 0.000000000000000D+00 0.000000000000000D+00 0.855360347167044D+03
 0.855360347167044D+03 0.000000000000000D+00 0.000000000000000D+00 -.855360347167044D+03
 0.708106785252685D+03 -.927206280956760D+02 -.679985618581995D+03 -.148736046821529D+03
 0.688206504382443D+03 0.159545299891482D+03 0.635194315517330D+03 0.211427698023007D+03
 0.143165280534134D+03 -.780318032077162D+00 0.141316204743017D+03 0.229220184804011D+02
 0.171242124164827D+03 -.660443537637289D+02 -.965249016783519D+02 -.856136696818795D+02
 0.000000000000000D+00 -.000000000000000D+00 0.000000000000000D+00 -.000000000000000D+00
 0.992739989666775D+03 0.000000000000000D+00 0.000000000000000D+00 0.992739989666775D+03
 0.103961149799187D+04 0.000000000000000D+00 0.000000000000000D+00 -.103961149799187D+04
 0.829850937282368D+03 -.682567348646475D+02 -.808428063148445D+03 -.148736046821529D+03
 0.596471120675327D+03 0.179980332529376D+03 0.527904542707285D+03 0.211427698023007D+03
 0.121448998582078D+03 0.342883243860951D+01 0.119216959504434D+03 0.229220184804011D+02
 0.187859066487320D+03 -.603322245819404D+02 -.126515215520047D+03 -.856136696818795D+02
 0.296721364631552D+03 -.548202055213975D+02 0.287821776456773D+03 -.468715083250962D+02
0.856037012491D-04 0.000000000000D+00 0.000000000000D+00 0.140540715968D-05 0.000000000000D+00  7 2 -2 23 -13 13 23 21 0 0.15529648D+00 0.11150899D+00 0.66982541D+06 0.66982541D+06 0.66982541D+06 0.10596494D+01  1  2  2  2  7  2       -2 0.164902317854D-03 0.100000000000D+01
-.474449698063D-05 0.000000000000D+00 -.328740752769D-06 0.140540715968D-05 0.000000000000D+00  7 2 -2 23 -13 13 23 21 2 0.15529648D+00 0.11150899D+00 0.66982541D+06 0.66982541D+06 0.66982541D+06 0.10596494D+01  1  2  3  2  7  2       -2 -.102623963225D-04 0.100000000000D+01
0.539009496172D-05 0.000000000000D+00 0.000000000000D+00 0.140540715968D-05 0.000000000000D+00  7 2 -2 23 -13 13 23 21 2 0.15529648D+00 0.11150899D+00 0.66982541D+06 0.66982541D+06 0.66982541D+06 0.10596494D+01  1  2 15  2  7  2       -2 0.116588314712D-04 0.100000000000D+01
0.456383605108D-04 0.000000000000D+00 0.000000000000D+00 0.140540715968D-05 0.000000000000D+00  7 2 -2 23 -13 13 23 21 2 0.15529648D+00 0.14283946D+00 0.95417106D+06 0.95417106D+06 0.95417106D+06 0.10492229D+01  1  2 12  2  7  2       -2 0.496414237459D-04 0.100000000000D+01
-.466891900662D-04 0.000000000000D+00 0.000000000000D+00 0.140540715968D-05 0.000000000000D+00  7 2 -2 23 -13 13 23 21 2 0.15529648D+00 0.11150899D+00 0.66982541D+06 0.66982541D+06 0.66982541D+06 0.10596494D+01  1  2  4  2  7  2       -2 -.100989203785D-03 0.100000000000D+01
-.107509753621D-03 0.000000000000D+00 -.399434631609D-04 0.140540715968D-05 0.000000000000D+00  7 2 -2 23 -13 13 23 21 2 0.15529648D+00 0.15140772D+00 0.66982541D+06 0.66982541D+06 0.66982541D+06 0.10596494D+01  1  2  5  2  7  2       -2 -.103440414525D-03 0.100000000000D+01
0.116054322042D-03 0.000000000000D+00 0.381451332639D-04 0.140540715968D-05 0.000000000000D+00  7 2 -2 23 -13 13 23 21 2 0.15529648D+00 0.11150899D+00 0.66982541D+06 0.66982541D+06 0.66982541D+06 0.10596494D+01  1  2  6  2  7  2       -2 0.251026705800D-03 0.100000000000D+01
0.153366301493D-05 0.000000000000D+00 0.000000000000D+00 0.140540715968D-05 0.000000000000D+00  7 2 21 23 -13 13 23 2 2 0.15529648D+00 0.14283946D+00 0.95417106D+06 0.95417106D+06 0.95417106D+06 0.10492229D+01  1  2 12  4  7  2       -2 0.138227408994D-04 0.100000000000D+01
-.329155586389D-05 0.000000000000D+00 -.156578615612D-05 0.140540715968D-05 0.000000000000D+00  7 2 21 23 -13 13 23 2 2 0.15529648D+00 0.15140772D+00 0.66982541D+06 0.66982541D+06 0.66982541D+06 0.10596494D+01  1  2  5  4  7  2       -2 -.261903970647D-04 0.100000000000D+01
  </mgrwgt>
  </event>
  <event>
  8     66 0.55102590E-06 0.28937083E+03 0.75467711E-02 0.10121562E+00
        2 -1    0    0  501    0 0.00000000E+00 0.00000000E+00 0.19191243E+04 0.19191243E+04 0.32000000E+00 0.0000E+00 0.9000E+01
       -2 -1    0    0    0  501 0.00000000E+00 0.00000000E+00 -.15365390E+03 0.15365423E+03 0.32000000E+00 0.0000E+00 0.9000E+01
       25  2    1    2    0    0 0.21536952E+03 0.79913202E+02 0.10441938E+03 0.39354778E+03 0.30200381E+03 0.0000E+00 0.0000E+00
       23  2    1    2    0    0 -.21536952E+03 -.79913202E+02 0.16610510E+04 0.16792308E+04 0.89192747E+02 0.0000E+00 0.0000E+00
       23  1    3    3    0    0 0.17257756E+02 -.28395420E+02 -.45924185E+02 0.10737044E+03 0.91188000E+02 0.0000E+00 0.9000E+01
      -13  1    4    4    0    0 -.12056727E+01 -.14077603E+02 0.33906522E+02 0.36732764E+02 0.10565837E+00 0.0000E+00 0.9000E+01
       13  1    4    4    0    0 -.21416385E+03 -.65835599E+02 0.16271445E+04 0.16424980E+04 0.10565837E+00 0.0000E+00 0.9000E+01
       23  1    3    3    0    0 0.19811177E+03 0.10830862E+03 0.15034357E+03 0.28617734E+03 0.91188000E+02 0.0000E+00 0.9000E+01
#aMCatNLO 1  0  0  2  2 0.26481135D+01 0.00000000D+00  -5  7  0 0.00000000D+00 0.00000000D+00 0.00000000D+00 0.00000000D+00 0.00000000D+00
  <mgrwgt>
 0.2860521638D-03    8    2    0
 0.543029740723429D+03 0.000000000000000D+00 0.000000000000000D+00 0.543029740723429D+03
 0.543029740723429D+03 0.000000000000000D+00 0.000000000000000D+00 -.543029740723429D+03
 0.279573032655536D+03 0.172577563966420D+02 -.283954197364602D+02 -.262186382610458D+03
 0.149873934808180D+02 -.120537384337685D+01 -.140775301197259D+02 0.499921823636262D+01
 0.489715278740049D+03 -.214164149078009D+03 -.658356717782036D+02 0.435454286696835D+03
 0.301783776570455D+03 0.198111766524743D+03 0.108308621634390D+03 -.178267122322739D+03
 0.000000000000000D+00 0.000000000000000D+00 -.000000000000000D+00 0.000000000000000D+00
 0.559390515314712D+03 0.000000000000000D+00 0.000000000000000D+00 0.559390515314712D+03
 0.543138519735583D+03 0.000000000000000D+00 0.000000000000000D+00 -.543138519735583D+03
 0.279496819664178D+03 0.171013600917431D+02 -.277320232771556D+02 -.262186382610458D+03
 0.149547033705930D+02 -.121374995825597D+01 -.140420006041332D+02 0.499921823636262D+01
 0.489680314381126D+03 -.214438128887800D+03 -.646735136578198D+02 0.435454286696835D+03
 0.301930872442807D+03 0.197942881116369D+03 0.109024993942651D+03 -.178267122322739D+03
 0.164663251915913D+02 0.607637637943763D+00 -.257745640354245D+01 0.162519955791290D+02
0.162818713699D-04 0.000000000000D+00 0.000000000000D+00 0.810186467946D-07 0.000000000000D+00  7 2 -2 23 -13 13 23 21 0 0.29524992D+00 0.23639089D-01 0.83735475D+05 0.83735475D+05 0.83735475D+05 0.11281036D+01  1  2  2  2  7  2       -2 0.246046832480D-03 0.100000000000D+01
-.468792976411D-06 0.000000000000D+00 -.625266731757D-07 0.810186467946D-07 0.000000000000D+00  7 2 -2 23 -13 13 23 21 2 0.29524992D+00 0.23639089D-01 0.83735475D+05 0.83735475D+05 0.83735475D+05 0.11281036D+01  1  2  3  2  7  2       -2 -.901555694895D-05 0.100000000000D+01
0.100293841519D-05 0.000000000000D+00 0.000000000000D+00 0.810186467946D-07 0.000000000000D+00  7 2 -2 23 -13 13 23 21 2 0.29524992D+00 0.23639089D-01 0.83735475D+05 0.83735475D+05 0.83735475D+05 0.11281036D+01  1  2 15  2  7  2       -2 0.192879348741D-04 0.100000000000D+01
-.213891996084D-05 0.000000000000D+00 0.000000000000D+00 0.810186467946D-07 0.000000000000D+00  7 2 -2 23 -13 13 23 21 2 0.29524992D+00 0.23639089D-01 0.83735475D+05 0.83735475D+05 0.83735475D+05 0.11281036D+01  1  2  4  2  7  2       -2 -.411344787283D-04 0.100000000000D+01
0.156860154927D-06 0.000000000000D+00 0.000000000000D+00 0.810186467946D-07 0.000000000000D+00  7 2 -2 23 -13 13 23 21 2 0.29524992D+00 0.24639767D-01 0.83735475D+05 0.83735475D+05 0.83735475D+05 0.11281036D+01  1  2  5  2  7  2       -2 0.281220672630D-05 0.100000000000D+01
-.156725435277D-06 0.000000000000D+00 0.000000000000D+00 0.810186467946D-07 0.000000000000D+00  7 2 -2 23 -13 13 23 21 2 0.29524992D+00 0.23639089D-01 0.83735475D+05 0.83735475D+05 0.83735475D+05 0.11281036D+01  1  2  6  2  7  2       -2 -.301405344830D-05 0.100000000000D+01
0.213754662596D-05 0.000000000000D+00 0.000000000000D+00 0.810186467946D-07 0.784075958263D-07  7 2 -2 23 -13 13 23 21 2 0.30414541D+00 0.23643824D-01 0.84460325D+05 0.84460325D+05 0.84460325D+05 0.11277912D+01  1  2 11  2  7  2       -2 0.382359513075D-04 0.100000000000D+01
0.147077209710D-06 0.000000000000D+00 0.000000000000D+00 0.810186467946D-07 0.298807033951D-11  7 2 21 23 -13 13 23 2 2 0.30414541D+00 0.23643824D-01 0.84460325D+05 0.84460325D+05 0.84460325D+05 0.11277912D+01  1  2 11  4  7  2       -2 0.328333275519D-04 0.100000000000D+01
  </mgrwgt>
  </event>
  <event>
  8     66 0.55102590E-06 0.11546537E+03 0.75467711E-02 0.99550427E-01
        2 -1    0    0  501    0 0.00000000E+00 0.00000000E+00 0.40246410E+03 0.40246422E+03 0.32000000E+00 0.0000E+00 0.9000E+01
       -2 -1    0    0    0  501 0.00000000E+00 0.00000000E+00 -.27705628E+03 0.27705646E+03 0.32000000E+00 0.0000E+00 0.9000E+01
       25  2    1    2    0    0 -.94022385E+01 -.23284016E+03 -.36174511E+02 0.38121059E+03 0.29951625E+03 0.0000E+00 0.0000E+00
       23  2    1    2    0    0 0.94022385E+01 0.23284016E+03 0.16158233E+03 0.29831009E+03 0.92612750E+02 0.0000E+00 0.0000E+00
       23  1    3    3    0    0 -.12113734E+03 -.89308472E+02 -.13785292E+02 0.17650933E+03 0.91188000E+02 0.0000E+00 0.9000E+01
      -11  1    4    4    0    0 -.27804396E+02 0.19576943E+03 0.11978593E+03 0.23118699E+03 0.51099893E-03 0.0000E+00 0.9000E+01
       11  1    4    4    0    0 0.37206634E+02 0.37070731E+02 0.41796397E+02 0.67123107E+02 0.51099893E-03 0.0000E+00 0.9000E+01
       23  1    3    3    0    0 0.11173510E+03 -.14353169E+03 -.22389220E+02 0.20470126E+03 0.91188000E+02 0.0000E+00 0.9000E+01
#aMCatNLO 1  0  0  1  2 0.32124144D+02 0.00000000D+00  -5  7  0 0.00000000D+00 0.00000000D+00 0.00000000D+00 0.00000000D+00 0.00000000D+00
  <mgrwgt>
 0.1869213003D-03    9    2    0
 0.333924109977883D+03 0.000000000000000D+00 0.000000000000000D+00 0.333924109977883D+03
 0.333924109977883D+03 0.000000000000000D+00 0.000000000000000D+00 -.333924109977883D+03
 0.182182901920802D+03 -.121137342606818D+03 -.893084721489132D+02 -.471709596772176D+02
 0.212734335606168D+03 -.278043959212370D+02 0.195769426427070D+03 0.784674759990964D+02
 0.604477842908872D+02 0.372066344624936D+02 0.370707310691933D+02 0.299225980764966D+02
 0.212483198137909D+03 0.111735104065561D+03 -.143531685347350D+03 -.612191143983753D+02
 0.000000000000000D+00 -.000000000000000D+00 0.000000000000000D+00 0.000000000000000D+00
 0.350376876679977D+03 0.000000000000000D+00 0.000000000000000D+00 0.350376876679977D+03
 0.350367643198306D+03 0.000000000000000D+00 0.000000000000000D+00 -.350367643198306D+03
 0.186541407617142D+03 -.120914364636547D+03 -.981685407829570D+02 -.471709596772176D+02
 0.203532930134804D+03 -.275526673869253D+02 0.185766949104128D+03 0.784674759990964D+02
 0.587801252855325D+02 0.372787349359077D+02 0.342058061520800D+02 0.299225980764966D+02
 0.219765911699835D+03 0.111996497270918D+03 -.153918190064020D+03 -.612191143983753D+02
 0.321241451409695D+02 -.808200183353043D+00 0.321139755907691D+02 0.923348167127206D-02
0.171052511658D-05 0.000000000000D+00 0.000000000000D+00 0.856504181406D-07 0.000000000000D+00  7 2 -2 23 -11 11 23 21 0 0.61917577D-01 0.42624067D-01 0.99130373D+05 0.99130373D+05 0.99130373D+05 0.11220335D+01  1  2  2  1  7  1        2 0.857056996381D-04 0.100000000000D+01
-.946294480112D-07 0.000000000000D+00 -.656886683929D-08 0.856504181406D-07 0.000000000000D+00  7 2 -2 23 -11 11 23 21 2 0.61917577D-01 0.42624067D-01 0.99130373D+05 0.99130373D+05 0.99130373D+05 0.11220335D+01  1  2  3  1  7  1        2 -.596922803828D-05 0.100000000000D+01
0.108286589325D-06 0.000000000000D+00 0.000000000000D+00 0.856504181406D-07 0.000000000000D+00  7 2 -2 23 -11 11 23 21 2 0.61917577D-01 0.42624067D-01 0.99130373D+05 0.99130373D+05 0.99130373D+05 0.11220335D+01  1  2 15  1  7  1        2 0.683072086706D-05 0.100000000000D+01
0.329925294972D-05 0.000000000000D+00 0.000000000000D+00 0.856504181406D-07 0.000000000000D+00  7 2 -2 23 -11 11 23 21 2 0.66419466D-01 0.42624067D-01 0.10958183D+06 0.10958183D+06 0.10958183D+06 0.11184756D+01  1  2 12  1  7  1        2 0.191333471603D-03 0.100000000000D+01
-.254781479053D-05 0.000000000000D+00 0.000000000000D+00 0.856504181406D-07 0.000000000000D+00  7 2 -2 23 -11 11 23 21 2 0.61917577D-01 0.42624067D-01 0.99130373D+05 0.99130373D+05 0.99130373D+05 0.11220335D+01  1  2  4  1  7  1        2 -.160716223159D-03 0.100000000000D+01
-.128755982306D-04 0.000000000000D+00 -.257818456052D-05 0.856504181406D-07 0.000000000000D+00  7 2 -2 23 -11 11 23 21 2 0.67768728D-01 0.42624067D-01 0.99130373D+05 0.99130373D+05 0.99130373D+05 0.11220335D+01  1  2  5  1  7  1        2 -.735677396331D-03 0.100000000000D+01
0.130655736477D-04 0.000000000000D+00 0.256770953220D-05 0.856504181406D-07 0.000000000000D+00  7 2 -2 23 -11 11 23 21 2 0.61917577D-01 0.42624067D-01 0.99130373D+05 0.99130373D+05 0.99130373D+05 0.11220335D+01  1  2  6  1  7  1        2 0.824176725041D-03 0.100000000000D+01
0.395195959722D-07 0.000000000000D+00 0.000000000000D+00 0.856504181406D-07 0.000000000000D+00  7 21 -2 23 -11 11 23 -2 2 0.66419466D-01 0.42624067D-01 0.10958183D+06 0.10958183D+06 0.10958183D+06 0.11184756D+01  1  2 12  3  7  1        2 0.535367014876D-05 0.100000000000D+01
-.184340836455D-06 0.000000000000D+00 -.383181747065D-07 0.856504181406D-07 0.000000000000D+00  7 21 -2 23 -11 11 23 -2 2 0.67768728D-01 0.42624067D-01 0.99130373D+05 0.99130373D+05 0.99130373D+05 0.11220335D+01  1  2  5  3  7  1        2 -.241161395185D-04 0.100000000000D+01
  </mgrwgt>
  </event>
  <event>
  8     66 0.55102590E-06 0.27115503E+03 0.75467711E-02 0.89194966E-01
        2 -1    0    0  501    0 0.00000000E+00 0.00000000E+00 0.55068979E+03 0.55068988E+03 0.32000000E+00 0.0000E+00 0.9000E+01
       -2 -1    0    0    0  501 0.00000000E+00 0.00000000E+00 -.15552601E+03 0.15552634E+03 0.32000000E+00 0.0000E+00 0.9000E+01
       25  2    1    2    0    0 0.14909519E+03 0.11730108E+03 0.33107719E+03 0.48550891E+03 0.30019640E+03 0.0000E+00 0.0000E+00
       23  2    1    2    0    0 -.14909519E+03 -.11730108E+03 0.64086589E+02 0.22070731E+03 0.92820814E+02 0.0000E+00 0.0000E+00
       23  1    3    3    0    0 0.31167679E+02 0.16285332E+03 0.12367034E+03 0.22605803E+03 0.91188000E+02 0.0000E+00 0.9000E+01
      -11  1    4    4    0    0 -.53008140E+02 -.11420571E+02 0.55312134E+02 0.77457889E+02 0.51099893E-03 0.0000E+00 0.9000E+01
       11  1    4    4    0    0 -.96087054E+02 -.10588051E+03 0.87744551E+01 0.14324942E+03 0.51099893E-03 0.0000E+00 0.9000E+01
       23  1    3    3    0    0 0.11792752E+03 -.45552243E+02 0.20740685E+03 0.25945088E+03 0.91188000E+02 0.0000E+00 0.9000E+01
#aMCatNLO 1  0  0  2  1 0.76421039D+03 0.00000000D+00  -5  7  0 0.00000000D+00 0.00000000D+00 0.00000000D+00 0.00000000D+00 0.00000000D+00
  <mgrwgt>
 0.2010147098D-03    5    2    0
 0.292654631448075D+03 0.000000000000000D+00 0.000000000000000D+00 0.292654631448075D+03
 0.292654631448075D+03 0.000000000000000D+00 0.000000000000000D+00 -.292654631448075D+03
 0.189260304809474D+03 0.311676789300541D+02 0.162853324795160D+03 -.340323755417066D+01
 0.561150617160799D+02 -.530081404570959D+02 -.114205707478687D+02 0.144432600361959D+02
 0.166916399617690D+03 -.960870536874225D+02 -.105880510912543D+03 -.861259541828232D+02
 0.173017496752906D+03 0.117927515214464D+03 -.455522431347489D+02 0.750859317007979D+02
 0.000000000000000D+00 -.000000000000000D+00 -.000000000000000D+00 -.000000000000000D+00
 0.601155317495713D+03 0.000000000000000D+00 0.000000000000000D+00 0.601155317495713D+03
 0.169948841599700D+04 0.000000000000000D+00 0.000000000000000D+00 -.169948841599700D+04
 0.522187331696535D+03 0.173180751485883D+03 0.484108668925977D+03 -.340323755417066D+01
 0.506663264036127D+02 -.316933560084081D+02 0.367967397426532D+02 0.144432600361959D+02
 0.973479645655920D+02 -.433368688544402D+02 0.134484950479612D+02 -.861259541828232D+02
 0.292401335355861D+03 0.210830428909861D+03 0.164608391888742D+03 0.750859317007979D+02
 0.133804077547111D+04 -.308980955532895D+03 -.698962295605334D+03 -.109833309850128D+04
0.197464101855D-05 0.000000000000D+00 0.000000000000D+00 0.126224098856D-06 0.000000000000D+00  7 2 -2 23 -11 11 23 21 0 0.84721538D-01 0.23927111D-01 0.73525049D+05 0.73525049D+05 0.73525049D+05 0.11328502D+01  1  2  2  2  7  2       -2 0.195422969962D-03 0.100000000000D+01
-.108925720064D-06 0.000000000000D+00 -.758314144615D-08 0.126224098856D-06 0.000000000000D+00  7 2 -2 23 -11 11 23 21 2 0.84721538D-01 0.23927111D-01 0.73525049D+05 0.73525049D+05 0.73525049D+05 0.11328502D+01  1  2  3  2  7  2       -2 -.138344806145D-04 0.100000000000D+01
0.127240163916D-06 0.000000000000D+00 0.000000000000D+00 0.126224098856D-06 0.000000000000D+00  7 2 -2 23 -11 11 23 21 2 0.84721538D-01 0.23927111D-01 0.73525049D+05 0.73525049D+05 0.73525049D+05 0.11328502D+01  1  2 15  2  7  2       -2 0.161605686889D-04 0.100000000000D+01
0.191775983960D-05 0.000000000000D+00 -.138249056063D-05 0.126224098856D-06 0.000000000000D+00  7 2 -2 23 -11 11 23 21 2 0.84721538D-01 0.23024433D+00 0.73525049D+05 0.73525049D+05 0.73525049D+05 0.11328502D+01  1  2  5  2  7  2       -2 0.142741062657D-05 0.100000000000D+01
0.307301591206D-06 0.000000000000D+00 -.373998783526D-06 0.126224098856D-06 0.000000000000D+00  7 2 21 23 -11 11 23 2 2 0.84721538D-01 0.23024433D+00 0.73525049D+05 0.73525049D+05 0.73525049D+05 0.11328502D+01  1  2  5  4  7  2       -2 0.183824118082D-05 0.100000000000D+01
  </mgrwgt>
  </event>
  <event>
  8     66 0.55102590E-06 0.23396199E+03 0.75467711E-02 0.93468495E-01
        2 -1    0    0  501    0 0.00000000E+00 0.00000000E+00 0.10465517E+04 0.10465517E+04 0.32000000E+00 0.0000E+00 0.9000E+01
       -2 -1    0    0    0  501 0.00000000E+00 0.00000000E+00 -.12975160E+03 0.12975199E+03 0.32000000E+00 0.0000E+00 0.9000E+01
       25  2    1    2    0    0 0.47380982E+01 0.14472077E+03 0.94565234E+03 0.10025342E+04 0.29974964E+03 0.0000E+00 0.0000E+00
       23  2    1    2    0    0 -.47380982E+01 -.14472077E+03 -.28852260E+02 0.17376955E+03 0.91634347E+02 0.0000E+00 0.0000E+00
       23  1    3    3    0    0 0.19111726E+02 0.19605888E+03 0.74225080E+03 0.77334070E+03 0.91188000E+02 0.0000E+00 0.9000E+01
      -13  1    4    4    0    0 -.66500494E+01 -.45302439E+02 0.33201679E+02 0.56558791E+02 0.10565837E+00 0.0000E+00 0.9000E+01
       13  1    4    4    0    0 0.19119511E+01 -.99418332E+02 -.62053939E+02 0.11721076E+03 0.10565837E+00 0.0000E+00 0.9000E+01
       23  1    3    3    0    0 -.14373628E+02 -.51338111E+02 0.20340154E+03 0.22919346E+03 0.91188000E+02 0.0000E+00 0.9000E+01
#aMCatNLO 1  0  0  1  2 0.46894426D+03 0.00000000D+00  -5  7  0 0.00000000D+00 0.00000000D+00 0.00000000D+00 0.00000000D+00 0.00000000D+00
  <mgrwgt>
 0.3149343019D-03    3    2    0
 0.368499674337468D+03 0.000000000000000D+00 0.000000000000000D+00 0.368499674337468D+03
 0.368499674337468D+03 0.000000000000000D+00 0.000000000000000D+00 -.368499674337468D+03
 0.310974425629920D+03 0.191117263551304D+02 0.196058881805333D+03 0.222678016051939D+03
 0.489699243023491D+02 -.665006069214150D+01 -.453023668324141D+02 -.173644964899655D+02
 0.264269870046362D+03 0.191196244029493D+01 -.994184039752568D+02 -.244848707501103D+03
 0.112785128696305D+03 -.143736281032838D+02 -.513381109976616D+02 0.395351879391288D+02
 0.000000000000000D+00 -.000000000000000D+00 0.000000000000000D+00 -.000000000000000D+00
 0.593499513164243D+03 0.000000000000000D+00 0.000000000000000D+00 0.593499513164243D+03
 0.787551742300824D+03 0.000000000000000D+00 0.000000000000000D+00 -.787551742300824D+03
 0.250294302476399D+03 0.579190514379550D+02 0.373077894795025D+02 0.222678016051939D+03
 0.850386411860779D+02 0.261557928452092D+01 -.832057900715500D+02 -.173644964899655D+02
 0.374969226385695D+03 0.461103262162130D+02 -.280222891619441D+03 -.244848707501103D+03
 0.163240478346702D+03 0.471137508198689D+01 -.129410101175737D+03 0.395351879391288D+02
 0.507508607070193D+03 -.111356332020676D+03 0.455530993387226D+03 -.194052229136581D+03
0.508522256957D-05 0.000000000000D+00 0.000000000000D+00 0.826605488228D-06 0.000000000000D+00  7 2 -2 23 -13 13 23 21 0 0.16100798D+00 0.19961818D-01 0.54738212D+05 0.54738212D+05 0.54738212D+05 0.11438527D+01  1  2  2  1  7  1        2 0.307183723678D-03 0.100000000000D+01
-.211625066018D-06 0.000000000000D+00 -.195285936370D-07 0.826605488228D-06 0.000000000000D+00  7 2 -2 23 -13 13 23 21 2 0.16100798D+00 0.19961818D-01 0.54738212D+05 0.54738212D+05 0.54738212D+05 0.11438527D+01  1  2  3  1  7  1        2 -.167261342728D-04 0.100000000000D+01
0.309688168662D-06 0.000000000000D+00 0.000000000000D+00 0.826605488228D-06 0.000000000000D+00  7 2 -2 23 -13 13 23 21 2 0.16100798D+00 0.19961818D-01 0.54738212D+05 0.54738212D+05 0.54738212D+05 0.11438527D+01  1  2 15  1  7  1        2 0.244767124670D-04 0.100000000000D+01
  </mgrwgt>
  </event>
  <event>
  8     66 0.55102590E-06 0.42611316E+03 0.75467711E-02 0.91458085E-01
        2 -1    0    0  501    0 0.00000000E+00 0.00000000E+00 0.18441035E+04 0.18441035E+04 0.32000000E+00 0.0000E+00 0.9000E+01
       -2 -1    0    0    0  501 0.00000000E+00 0.00000000E+00 -.35286152E+03 0.35286167E+03 0.32000000E+00 0.0000E+00 0.9000E+01
       25  2    1    2    0    0 -.34693541E+03 -.43029651E+03 0.15110463E+04 0.16365565E+04 0.29922756E+03 0.0000E+00 0.0000E+00
       23  2    1    2    0    0 0.34693541E+03 0.43029651E+03 -.19804317E+02 0.56040865E+03 0.90257281E+02 0.0000E+00 0.0000E+00
       23  1    3    3    0    0 -.33469301E+03 -.40468879E+03 0.12774583E+04 0.13841992E+04 0.91188000E+02 0.0000E+00 0.9000E+01
      -13  1    4    4    0    0 0.26664594E+03 0.36732276E+03 0.10309806E+02 0.45401803E+03 0.10565837E+00 0.0000E+00 0.9000E+01
       13  1    4    4    0    0 0.80289477E+02 0.62973753E+02 -.30114123E+02 0.10639063E+03 0.10565837E+00 0.0000E+00 0.9000E+01
       23  1    3    3    0    0 -.12242401E+02 -.25607728E+02 0.23358793E+03 0.25235730E+03 0.91188000E+02 0.0000E+00 0.9000E+01
#aMCatNLO 1  0  0  1  2 0.14135176D+03 0.00000000D+00  -5  7  0 0.00000000D+00 0.00000000D+00 0.00000000D+00 0.00000000D+00 0.00000000D+00
  <mgrwgt>
 0.3815990916D-03    9    2    0
 0.806668051737264D+03 0.000000000000000D+00 0.000000000000000D+00 0.806668051737264D+03
 0.806668051737264D+03 0.000000000000000D+00 0.000000000000000D+00 -.806668051737264D+03
 0.704154576731211D+03 -.334693012309340D+03 -.404688786314915D+03 0.460136925631677D+03
 0.608731393515799D+03 0.266646191669063D+03 0.367323177923958D+03 -.405619773778247D+03
 0.172712292898378D+03 0.802892217093986D+02 0.629733362831992D+02 -.139346818811472D+03
 0.127737840329139D+03 -.122424010691220D+02 -.256077278922418D+02 0.848296669580424D+02
 0.000000000000000D+00 -.000000000000000D+00 -.000000000000000D+00 0.000000000000000D+00
 0.100107463084400D+04 0.000000000000000D+00 0.000000000000000D+00 0.100107463084400D+04
 0.835867254137357D+03 0.000000000000000D+00 0.000000000000000D+00 -.835867254137357D+03
 0.666725153536491D+03 -.278776568076874D+03 -.383098960812694D+03 0.460136925631677D+03
 0.644449338642161D+03 0.317761843156030D+03 0.387059375587886D+03 -.405619773778247D+03
 0.181923577678267D+03 0.947543687548354D+02 0.685584553811983D+02 -.139346818811472D+03
 0.126418432788272D+03 -.187568927207331D+01 -.216050502935087D+02 0.848296669580424D+02
 0.217425382336167D+03 -.131863954561919D+03 -.509138198628815D+02 0.165207376706642D+03
0.826275108995D-04 0.000000000000D+00 0.000000000000D+00 0.118203597683D-05 0.000000000000D+00  7 2 -2 23 -13 13 23 21 0 0.28370824D+00 0.54286402D-01 0.35073725D+06 0.35073725D+06 0.35073725D+06 0.10795667D+01  1  2  2  1  7  1        2 0.278965606172D-03 0.100000000000D+01
-.405745631505D-05 0.000000000000D+00 -.317311398177D-06 0.118203597683D-05 0.000000000000D+00  7 2 -2 23 -13 13 23 21 2 0.28370824D+00 0.54286402D-01 0.35073725D+06 0.35073725D+06 0.35073725D+06 0.10795667D+01  1  2  3  1  7  1        2 -.159653621271D-04 0.100000000000D+01
0.521235153405D-05 0.000000000000D+00 0.000000000000D+00 0.118203597683D-05 0.000000000000D+00  7 2 -2 23 -13 13 23 21 2 0.28370824D+00 0.54286402D-01 0.35073725D+06 0.35073725D+06 0.35073725D+06 0.10795667D+01  1  2 15  1  7  1        2 0.205096674649D-04 0.100000000000D+01
0.149941802697D-03 0.000000000000D+00 0.000000000000D+00 0.118203597683D-05 0.000000000000D+00  7 2 -2 23 -13 13 23 21 2 0.35634631D+00 0.54286402D-01 0.44576690D+06 0.44576690D+06 0.44576690D+06 0.10720523D+01  1  2 12  1  7  1        2 0.313781354344D-03 0.100000000000D+01
-.155883327252D-03 0.000000000000D+00 0.000000000000D+00 0.118203597683D-05 0.000000000000D+00  7 2 -2 23 -13 13 23 21 2 0.28370824D+00 0.54286402D-01 0.35073725D+06 0.35073725D+06 0.35073725D+06 0.10795667D+01  1  2  4  1  7  1        2 -.613372905565D-03 0.100000000000D+01
-.213157487262D-03 0.000000000000D+00 -.411786348398D-04 0.118203597683D-05 0.000000000000D+00  7 2 -2 23 -13 13 23 21 2 0.35630744D+00 0.54286402D-01 0.35073725D+06 0.35073725D+06 0.35073725D+06 0.10795667D+01  1  2  5  1  7  1        2 -.459253204674D-03 0.100000000000D+01
0.217905440499D-03 0.000000000000D+00 0.401323933164D-04 0.118203597683D-05 0.000000000000D+00  7 2 -2 23 -13 13 23 21 2 0.28370824D+00 0.54286402D-01 0.35073725D+06 0.35073725D+06 0.35073725D+06 0.10795667D+01  1  2  6  1  7  1        2 0.857418785787D-03 0.100000000000D+01
0.473808455226D-05 0.000000000000D+00 0.000000000000D+00 0.118203597683D-05 0.000000000000D+00  7 21 -2 23 -13 13 23 -2 2 0.35634631D+00 0.54286402D-01 0.44576690D+06 0.44576690D+06 0.44576690D+06 0.10720523D+01  1  2 12  3  7  1        2 0.137642393469D-05 0.100000000000D+01
-.614150380812D-05 0.000000000000D+00 -.130075751108D-05 0.118203597683D-05 0.000000000000D+00  7 21 -2 23 -13 13 23 -2 2 0.35630744D+00 0.54286402D-01 0.35073725D+06 0.35073725D+06 0.35073725D+06 0.10795667D+01  1  2  5  3  7  1        2 -.186127377342D-05 0.100000000000D+01
  </mgrwgt>
  </event>
  <event>
  9     66 -.55102590E-06 0.20376154E+03 0.75467711E-02 0.10561630E+00
        2 -1    0    0  502    0 0.00000000E+00 0.00000000E+00 0.84092358E+02 0.84092967E+02 0.32000000E+00 0.0000E+00 0.9000E+01
       -2 -1    0    0    0  501 0.00000000E+00 0.00000000E+00 -.73702715E+03 0.73702722E+03 0.32000000E+00 0.0000E+00 0.9000E+01
       25  2    1    2    0    0 -.79555920E+02 0.40997049E+02 -.27839208E+03 0.41872347E+03 0.29969533E+03 0.0000E+00 0.0000E+00
       23  2    1    2    0    0 0.85044515E+02 -.50785409E+02 -.35452421E+03 0.37943502E+03 0.92042331E+02 0.0000E+00 0.0000E+00
       23  1    3    3    0    0 0.68261176E+02 -.35574044E+02 -.77211130E+02 0.14213343E+03 0.91188000E+02 0.0000E+00 0.9000E+01
      -13  1    4    4    0    0 0.77561764E+02 -.41019213E+02 -.14451063E+03 0.16906134E+03 0.10565837E+00 0.0000E+00 0.9000E+01
       13  1    4    4    0    0 0.74827509E+01 -.97661957E+01 -.21001358E+03 0.21037368E+03 0.10565837E+00 0.0000E+00 0.9000E+01
       23  1    3    3    0    0 -.14781710E+03 0.76571093E+02 -.20118095E+03 0.27659004E+03 0.91188000E+02 0.0000E+00 0.9000E+01
       21  1    1    2  502  501 -.54885954E+01 0.97883604E+01 -.20018501E+02 0.22961698E+02 0.75000000E+00 0.0000E+00 0.9000E+01
#aMCatNLO 2  0  0  1  2 0.11222151D+02 0.00000000D+00  -5  7  0 0.00000000D+00 0.00000000D+00 0.00000000D+00 0.00000000D+00 0.00000000D+00
  <mgrwgt>
 -.1128729830D-03    3    2    0
 0.243078178895344D+03 0.000000000000000D+00 0.000000000000000D+00 0.243078178895344D+03
 0.243078178895344D+03 0.000000000000000D+00 0.000000000000000D+00 -.243078178895344D+03
 0.131344468101405D+03 0.667703276931682D+02 -.329152700639452D+02 0.582617052033802D+02
 0.877236383310536D+02 0.765621338857446D+02 -.392363568221051D+02 -.171518127388119D+02
 0.716926642755637D+02 0.667190859935126D+01 -.832024380982005D+01 -.708949736548068D+02
 0.195395587082666D+03 -.150004370178264D+03 0.804718706958704D+02 0.297850811902384D+02
 0.000000000000000D+00 -.000000000000000D+00 0.000000000000000D+00 -.000000000000000D+00
 0.247461603271348D+03 0.000000000000000D+00 0.000000000000000D+00 0.247461603271348D+03
 0.250433175635895D+03 0.000000000000000D+00 0.000000000000000D+00 -.250433175635895D+03
 0.132796000446431D+03 0.682611722205367D+02 -.355740420031400D+02 0.582617052033802D+02
 0.894013678565542D+02 0.775618513754071D+02 -.410192528651476D+02 -.171518127388119D+02
 0.719546078836624D+02 0.748267323056192D+01 -.976616134929643D+01 -.708949736548068D+02
 0.192133887167721D+03 -.147817101415335D+03 0.765710958641591D+02 0.297850811902384D+02
 0.116089155528741D+02 -.548859541117093D+01 0.978836035342490D+01 -.297157236454617D+01
-.423723109513D-05 0.000000000000D+00 0.000000000000D+00 0.118070922726D-06 0.000000000000D+00  7 2 -2 23 -13 13 23 21 2 0.13124432D-01 0.11005336D+00 0.44186160D+05 0.44186160D+05 0.44186160D+05 0.11520475D+01  1  2 13  1  7  1        2 -.219188159880D-03 0.100000000000D+01
-.331368465881D-05 0.000000000000D+00 0.000000000000D+00 0.118070922726D-06 0.000000000000D+00  7 2 -2 23 -13 13 23 21 2 0.12707553D-01 0.11005336D+00 0.41518766D+05 0.41518766D+05 0.41518766D+05 0.11544644D+01  1  2  8  1  7  1        2 -.179141060686D-03 0.100000000000D+01
0.583278251454D-05 0.000000000000D+00 0.000000000000D+00 0.118070922726D-06 0.664003567451D-08  7 2 -2 23 -13 13 23 21 2 0.12936708D-01 0.11338332D+00 0.44186160D+05 0.44186160D+05 0.44186160D+05 0.11520475D+01  1  2  1  1  7  1        2 0.285456237574D-03 0.100000000000D+01
  </mgrwgt>
  </event>
  <event>
  8     66 0.55102590E-06 0.13040638E+03 0.75467711E-02 0.10052575E+00
        2 -1    0    0  501    0 0.00000000E+00 0.00000000E+00 0.10034877E+04 0.10034878E+04 0.32000000E+00 0.0000E+00 0.9000E+01
       -2 -1    0    0    0  501 0.00000000E+00 0.00000000E+00 -.12054653E+03 0.12054696E+03 0.32000000E+00 0.0000E+00 0.9000E+01
       25  2    1    2    0    0 -.21994155E+02 0.24838806E+03 0.33741671E+03 0.51501735E+03 0.29868455E+03 0.0000E+00 0.0000E+00
       23  2    1    2    0    0 0.21994155E+02 -.24838806E+03 0.54552449E+03 0.60901739E+03 0.10547441E+03 0.0000E+00 0.0000E+00
       23  1    3    3    0    0 0.98910093E+01 0.14058803E+03 0.23715257E+02 0.16953021E+03 0.91188000E+02 0.0000E+00 0.9000E+01
      -11  1    4    4    0    0 0.32056128E+02 -.19992875E+02 0.45020016E+02 0.58771696E+02 0.51099893E-03 0.0000E+00 0.9000E+01
       11  1    4    4    0    0 -.10061973E+02 -.22839518E+03 0.50050447E+03 0.55024570E+03 0.51099893E-03 0.0000E+00 0.9000E+01
       23  1    3    3    0    0 -.31885164E+02 0.10780002E+03 0.31370146E+03 0.34548714E+03 0.91188000E+02 0.0000E+00 0.9000E+01
#aMCatNLO 1  0  0  2  1 0.31423955D+02 0.00000000D+00  -5  7  0 0.00000000D+00 0.00000000D+00 0.00000000D+00 0.00000000D+00 0.00000000D+00
  <mgrwgt>
 0.2644783896D-03    9    2    0
 0.347803444130534D+03 0.000000000000000D+00 0.000000000000000D+00 0.347803444130534D+03
 0.347803444130534D+03 0.000000000000000D+00 0.000000000000000D+00 -.347803444130534D+03
 0.243842710842932D+03 0.989100927677132D+01 0.140588034350699D+03 -.176864888601790D+03
 0.378251016058674D+02 0.320561279601931D+02 -.199928752568534D+02 -.185146176245180D+01
 0.253849217173945D+03 -.100619728164497D+02 -.228395182400643D+03 0.110335046195859D+03
 0.160089858638323D+03 -.318851644205147D+02 0.107800023306798D+03 0.683813041683821D+02
 0.000000000000000D+00 0.000000000000000D+00 -.000000000000000D+00 -.000000000000000D+00
 0.350685161459404D+03 0.000000000000000D+00 0.000000000000000D+00 0.350685161459404D+03
 0.445849395873483D+03 0.000000000000000D+00 0.000000000000000D+00 -.445849395873483D+03
 0.249476644367434D+03 0.462581738248329D+01 0.150401987135328D+03 -.176864888601790D+03
 0.363831891711630D+02 0.312641037126920D+02 -.185165969510827D+02 -.185146176245180D+01
 0.245231111704537D+03 -.153886515174892D+02 -.218466622469598D+03 0.110335046195859D+03
 0.165225367902422D+03 -.353572501511473D+02 0.114271750474346D+03 0.683813041683821D+02
 0.100218244187332D+03 0.148559805734612D+02 -.276905181889933D+02 -.951642344140789D+02
0.332371145531D-05 0.000000000000D+00 0.000000000000D+00 0.888743509771D-09 0.000000000000D+00  7 2 -2 23 -11 11 23 21 0 0.15438276D+00 0.18545657D-01 0.83813271D+05 0.83813271D+05 0.83813271D+05 0.11280700D+01  1  2  2  2  7  2       -2 0.239252068484D-03 0.100000000000D+01
-.177093888916D-06 0.000000000000D+00 -.127639271417D-07 0.888743509771D-09 0.000000000000D+00  7 2 -2 23 -11 11 23 21 2 0.15438276D+00 0.18545657D-01 0.83813271D+05 0.83813271D+05 0.83813271D+05 0.11280700D+01  1  2  3  2  7  2       -2 -.162221360003D-04 0.100000000000D+01
0.208032893126D-06 0.000000000000D+00 0.000000000000D+00 0.888743509771D-09 0.000000000000D+00  7 2 -2 23 -11 11 23 21 2 0.15438276D+00 0.18545657D-01 0.83813271D+05 0.83813271D+05 0.83813271D+05 0.11280700D+01  1  2 15  2  7  2       -2 0.190562074472D-04 0.100000000000D+01
0.315666026246D-04 0.000000000000D+00 0.000000000000D+00 0.888743509771D-09 0.000000000000D+00  7 2 -2 23 -11 11 23 21 2 0.15438276D+00 0.23835519D-01 0.93980857D+05 0.93980857D+05 0.93980857D+05 0.11239412D+01  1  2 12  2  7  2       -2 0.188888596488D-02 0.100000000000D+01
-.310341981174D-04 0.000000000000D+00 0.000000000000D+00 0.888743509771D-09 0.000000000000D+00  7 2 -2 23 -11 11 23 21 2 0.15438276D+00 0.18545657D-01 0.83813271D+05 0.83813271D+05 0.83813271D+05 0.11280700D+01  1  2  4  2  7  2       -2 -.284279138936D-02 0.100000000000D+01
-.344754991446D-04 0.000000000000D+00 -.198694530989D-05 0.888743509771D-09 0.000000000000D+00  7 2 -2 23 -11 11 23 21 2 0.15438276D+00 0.23898745D-01 0.83813271D+05 0.83813271D+05 0.83813271D+05 0.11280700D+01  1  2  5  2  7  2       -2 -.207231629515D-02 0.100000000000D+01
0.339442825087D-04 0.000000000000D+00 0.192472528922D-05 0.888743509771D-09 0.000000000000D+00  7 2 -2 23 -11 11 23 21 2 0.15438276D+00 0.18545657D-01 0.83813271D+05 0.83813271D+05 0.83813271D+05 0.11280700D+01  1  2  6  2  7  2       -2 0.310936063722D-02 0.100000000000D+01
0.107128070422D-05 0.000000000000D+00 0.000000000000D+00 0.888743509771D-09 0.000000000000D+00  7 2 21 23 -11 11 23 2 2 0.15438276D+00 0.23835519D-01 0.93980857D+05 0.93980857D+05 0.93980857D+05 0.11239412D+01  1  2 12  4  7  2       -2 0.796598318488D-03 0.100000000000D+01
-.114500262954D-05 0.000000000000D+00 -.679549757513D-07 0.888743509771D-09 0.000000000000D+00  7 2 21 23 -11 11 23 2 2 0.15438276D+00 0.23898745D-01 0.83813271D+05 0.83813271D+05 0.83813271D+05 0.11280700D+01  1  2  5  4  7  2       -2 -.857344986427D-03 0.100000000000D+01
  </mgrwgt>
  </event>
  <event>
  8     66 0.55102590E-06 0.21553847E+03 0.75467711E-02 0.10119827E+00
        2 -1    0    0  501    0 0.00000000E+00 0.00000000E+00 0.29517201E+04 0.29517201E+04 0.32000000E+00 0.0000E+00 0.9000E+01
       -2 -1    0    0    0  501 0.00000000E+00 0.00000000E+00 -.20567539E+02 0.20570028E+02 0.32000000E+00 0.0000E+00 0.9000E+01
       25  2    1    2    0    0 -.58422541E+02 0.10045169E+03 0.23896204E+04 0.24111276E+04 0.29957766E+03 0.0000E+00 0.0000E+00
       23  2    1    2    0    0 0.58422541E+02 -.10045169E+03 0.54153215E+03 0.56116257E+03 0.90236455E+02 0.0000E+00 0.0000E+00
       23  1    3    3    0    0 -.92304255E+02 0.12860039E+03 0.20082007E+04 0.20164929E+04 0.91188000E+02 0.0000E+00 0.9000E+01
      -13  1    4    4    0    0 0.46638441E+01 -.92689714E+02 0.34351997E+03 0.35583579E+03 0.10565837E+00 0.0000E+00 0.9000E+01
       13  1    4    4    0    0 0.53758697E+02 -.77619758E+01 0.19801219E+03 0.20532677E+03 0.10565837E+00 0.0000E+00 0.9000E+01
       23  1    3    3    0    0 0.33881714E+02 -.28148702E+02 0.38141972E+03 0.39463474E+03 0.91188000E+02 0.0000E+00 0.9000E+01
#aMCatNLO 1  0  0  1  1 0.13081412D+03 0.00000000D+00  -5  7  0 0.00000000D+00 0.00000000D+00 0.00000000D+00 0.00000000D+00 0.00000000D+00
  <mgrwgt>
 0.2365983611D-03    4    2    0
 0.246400778965523D+03 0.000000000000000D+00 0.000000000000000D+00 0.246400778965523D+03
 0.246400778965523D+03 0.000000000000000D+00 0.000000000000000D+00 -.246400778965523D+03
 0.217651954809220D+03 -.923042568558481D+02 0.128600394497805D+03 0.118317305537159D+03
 0.102957926419958D+03 0.466378251296429D+01 -.926898291363611D+02 -.445777895374071D+02
 0.606466867915602D+02 0.537587612281327D+02 -.776186467888240D+01 -.269772064290751D+02
 0.111544989910307D+03 0.338817131147511D+02 -.281487006825620D+02 -.467623095706764D+02
 0.000000000000000D+00 0.000000000000000D+00 -.000000000000000D+00 -.000000000000000D+00
 0.296830528092209D+03 0.000000000000000D+00 0.000000000000000D+00 0.296830528092209D+03
 0.357045244274587D+03 0.000000000000000D+00 0.000000000000000D+00 -.357045244274587D+03
 0.266461179317130D+03 -.118834847784620D+03 0.185918269412956D+03 0.118317305537159D+03
 0.836749688699858D+02 -.556415936621129D+01 -.705929261746469D+02 -.445777895374071D+02
 0.548829555902169D+02 0.474274525605635D+02 0.591657766080109D+01 -.269772064290751D+02
 0.104849220850377D+03 0.220227779189384D+02 -.252812683234625D+01 -.467623095706764D+02
 0.144007447739087D+03 0.549487766713296D+02 -.118713794066764D+03 -.602147161823778D+02
0.335090472559D-05 0.000000000000D+00 0.000000000000D+00 0.521756451649D-07 0.000000000000D+00  7 2 -2 23 -13 13 23 21 0 0.45411098D+00 0.31644296D-02 0.46456832D+05 0.46456832D+05 0.46456832D+05 0.11501137D+01  1  2  2  1  7  1        2 0.298019180708D-03 0.100000000000D+01
-.182108034004D-06 0.000000000000D+00 -.128683564597D-07 0.521756451649D-07 0.000000000000D+00  7 2 -2 23 -13 13 23 21 2 0.45411098D+00 0.31644296D-02 0.46456832D+05 0.46456832D+05 0.46456832D+05 0.11501137D+01  1  2  3  1  7  1        2 -.214236177337D-04 0.100000000000D+01
0.215360512366D-06 0.000000000000D+00 0.000000000000D+00 0.521756451649D-07 0.000000000000D+00  7 2 -2 23 -13 13 23 21 2 0.45411098D+00 0.31644296D-02 0.46456832D+05 0.46456832D+05 0.46456832D+05 0.11501137D+01  1  2 15  1  7  1        2 0.253355175520D-04 0.100000000000D+01
-.555350326267D-06 0.000000000000D+00 0.000000000000D+00 0.521756451649D-07 0.000000000000D+00  7 2 -2 23 -13 13 23 21 2 0.45411098D+00 0.31644296D-02 0.46456832D+05 0.46456832D+05 0.46456832D+05 0.11501137D+01  1  2  4  1  7  1        2 -.653327194667D-04 0.100000000000D+01
  </mgrwgt>
  </event>
  <event>
  8     66 0.55102590E-06 0.12510355E+03 0.75467711E-02 0.99152783E-01
        2 -1    0    0  501    0 0.00000000E+00 0.00000000E+00 0.57336308E+03 0.57336317E+03 0.32000000E+00 0.0000E+00 0.9000E+01
       -2 -1    0    0    0  501 0.00000000E+00 0.00000000E+00 -.19097705E+03 0.19097731E+03 0.32000000E+00 0.0000E+00 0.9000E+01
       25  2    1    2    0    0 0.23795226E+03 -.34616823E+02 0.32531678E+03 0.50336791E+03 0.29954740E+03 0.0000E+00 0.0000E+00
       23  2    1    2    0    0 -.23795226E+03 0.34616823E+02 0.57069253E+02 0.26097258E+03 0.83846196E+02 0.0000E+00 0.0000E+00
       23  1    3    3    0    0 -.19436208E+02 -.49549223E+01 0.25568479E+02 0.96805557E+02 0.91188000E+02 0.0000E+00 0.9000E+01
      -11  1    4    4    0    0 -.16475817E+02 -.19093012E+02 0.14640761E+02 0.29160719E+02 0.51099893E-03 0.0000E+00 0.9000E+01
       11  1    4    4    0    0 -.22147644E+03 0.53709835E+02 0.42428492E+02 0.23181186E+03 0.51099893E-03 0.0000E+00 0.9000E+01
       23  1    3    3    0    0 0.25738846E+03 -.29661901E+02 0.29974830E+03 0.40656235E+03 0.91188000E+02 0.0000E+00 0.9000E+01
#aMCatNLO 1  0  0  1  2 0.59318152D+02 0.00000000D+00  -5  7  0 0.00000000D+00 0.00000000D+00 0.00000000D+00 0.00000000D+00 0.00000000D+00
  <mgrwgt>
 0.2665526537D-03    9    2    0
 0.330906820738216D+03 0.000000000000000D+00 0.000000000000000D+00 0.330906820738216D+03
 0.330906820738216D+03 0.000000000000000D+00 0.000000000000000D+00 -.330906820738216D+03
 0.970293946977508D+02 -.194362077715335D+02 -.495492229655220D+01 -.264033078213474D+02
 0.252190260445124D+02 -.164758167621824D+02 -.190930119810942D+02 0.602506645004368D-01
 0.243209135316702D+03 -.221476439668007D+03 0.537098351177838D+02 -.849359981698117D+02
 0.296356085417467D+03 0.257388464201722D+03 -.296619008401374D+02 0.111279055326659D+03
 0.000000000000000D+00 -.000000000000000D+00 -.000000000000000D+00 0.000000000000000D+00
 0.428511793753908D+03 0.000000000000000D+00 0.000000000000000D+00 0.428511793753908D+03
 0.341369959617702D+03 0.000000000000000D+00 0.000000000000000D+00 -.341369959617702D+03
 0.968465046120675D+02 -.187942932131660D+02 0.369242336195664D+01 -.264033078213474D+02
 0.235041965028503D+02 -.163144963195948D+02 -.169198354879696D+02 0.602506645004368D-01
 0.247515338929304D+03 -.219851672560351D+03 0.755973630003190D+02 -.849359981698117D+02
 0.296600617648063D+03 0.259351717713553D+03 -.321456215497387D+01 0.111279055326659D+03
 0.105415095679326D+03 -.439125562044142D+01 -.591553887193322D+02 0.871418341362064D+02
0.310582379452D-05 0.000000000000D+00 0.000000000000D+00 0.737750811323D-08 0.000000000000D+00  7 2 -2 23 -11 11 23 21 0 0.88209732D-01 0.29381111D-01 0.96457871D+05 0.96457871D+05 0.96457871D+05 0.11230096D+01  1  2  2  1  7  1        2 0.206178134136D-03 0.100000000000D+01
-.171702340760D-06 0.000000000000D+00 -.119271811531D-07 0.737750811323D-08 0.000000000000D+00  7 2 -2 23 -11 11 23 21 2 0.88209732D-01 0.29381111D-01 0.96457871D+05 0.96457871D+05 0.96457871D+05 0.11230096D+01  1  2  3  1  7  1        2 -.143750358765D-04 0.100000000000D+01
0.201690118108D-06 0.000000000000D+00 0.000000000000D+00 0.737750811323D-08 0.000000000000D+00  7 2 -2 23 -11 11 23 21 2 0.88209732D-01 0.29381111D-01 0.96457871D+05 0.96457871D+05 0.96457871D+05 0.11230096D+01  1  2 15  1  7  1        2 0.168856328394D-04 0.100000000000D+01
0.813564172121D-05 0.000000000000D+00 0.000000000000D+00 0.737750811323D-08 0.000000000000D+00  7 2 -2 23 -11 11 23 21 2 0.11532788D+00 0.29381111D-01 0.11676587D+06 0.11676587D+06 0.11676587D+06 0.11162395D+01  1  2 12  1  7  1        2 0.489333023203D-03 0.100000000000D+01
-.821125815030D-05 0.000000000000D+00 0.000000000000D+00 0.737750811323D-08 0.000000000000D+00  7 2 -2 23 -11 11 23 21 2 0.88209732D-01 0.29381111D-01 0.96457871D+05 0.96457871D+05 0.96457871D+05 0.11230096D+01  1  2  4  1  7  1        2 -.687452075374D-03 0.100000000000D+01
-.108293419916D-04 0.000000000000D+00 -.168818951289D-05 0.737750811323D-08 0.000000000000D+00  7 2 -2 23 -11 11 23 21 2 0.11615599D+00 0.29381111D-01 0.96457871D+05 0.96457871D+05 0.96457871D+05 0.11230096D+01  1  2  5  1  7  1        2 -.654989356041D-03 0.100000000000D+01
0.109390318251D-04 0.000000000000D+00 0.162621168013D-05 0.737750811323D-08 0.000000000000D+00  7 2 -2 23 -11 11 23 21 2 0.88209732D-01 0.29381111D-01 0.96457871D+05 0.96457871D+05 0.96457871D+05 0.11230096D+01  1  2  6  1  7  1        2 0.915823128816D-03 0.100000000000D+01
0.289801960010D-06 0.000000000000D+00 0.000000000000D+00 0.737750811323D-08 0.000000000000D+00  7 21 -2 23 -11 11 23 -2 2 0.11532788D+00 0.29381111D-01 0.11676587D+06 0.11676587D+06 0.11676587D+06 0.11162395D+01  1  2 12  3  7  1        2 0.195955128587D-04 0.100000000000D+01
-.360189107804D-06 0.000000000000D+00 -.613020530434D-07 0.737750811323D-08 0.000000000000D+00  7 21 -2 23 -11 11 23 -2 2 0.11615599D+00 0.29381111D-01 0.96457871D+05 0.96457871D+05 0.96457871D+05 0.11230096D+01  1  2  5  3  7  1        2 -.244463108281D-04 0.100000000000D+01
  </mgrwgt>
  </event>
  <event>
  8     66 0.55102590E-06 0.76436878E+02 0.75467711E-02 0.10329273E+00
        2 -1    0    0  501    0 0.00000000E+00 0.00000000E+00 0.23146725E+04 0.23146726E+04 0.32000000E+00 0.0000E+00 0.9000E+01
       -2 -1    0    0    0  501 0.00000000E+00 0.00000000E+00 -.29973256E+02 0.29974964E+02 0.32000000E+00 0.0000E+00 0.9000E+01
       25  2    1    2    0    0 0.10656832E+03 -.16052789E+02 0.93890581E+03 0.99153102E+03 0.29995856E+03 0.0000E+00 0.0000E+00
       23  2    1    2    0    0 -.10656832E+03 0.16052789E+02 0.13457935E+04 0.13531165E+04 0.90275763E+02 0.0000E+00 0.0000E+00
       23  1    3    3    0    0 0.53749424E+02 -.87551098E+02 0.75770955E+03 0.77006052E+03 0.91188000E+02 0.0000E+00 0.9000E+01
      -11  1    4    4    0    0 0.15820768E+02 -.15110702E+00 0.10329798E+03 0.10450259E+03 0.51099893E-03 0.0000E+00 0.9000E+01
       11  1    4    4    0    0 -.12238909E+03 0.16203896E+02 0.12424955E+04 0.12486139E+04 0.51099893E-03 0.0000E+00 0.9000E+01
       23  1    3    3    0    0 0.52818899E+02 0.71498309E+02 0.18119626E+03 0.22147050E+03 0.91188000E+02 0.0000E+00 0.9000E+01
#aMCatNLO 1  0  0  1  2 0.85490137D+02 0.00000000D+00  -5  7  0 0.00000000D+00 0.00000000D+00 0.00000000D+00 0.00000000D+00 0.00000000D+00
  <mgrwgt>
 0.3804249871D-03    9    2    0
 0.263401407375968D+03 0.000000000000000D+00 0.000000000000000D+00 0.263401407375968D+03
 0.263401407375968D+03 0.000000000000000D+00 0.000000000000000D+00 -.263401407375968D+03
 0.141195209870250D+03 0.537494241128153D+02 -.875510984608837D+02 0.326594628268313D+02
 0.171163252228620D+02 0.158207682240306D+02 -.151107020519593D+00 0.653062390623088D+01
 0.168622792161376D+03 -.122389091806412D+03 0.162038960299005D+02 0.114856388575265D+03
 0.199868487497449D+03 0.528188994695665D+02 0.714983094515028D+02 -.154046475308327D+03
 0.000000000000000D+00 -.000000000000000D+00 -.000000000000000D+00 0.000000000000000D+00
 0.392990707078558D+03 0.000000000000000D+00 0.000000000000000D+00 0.392990707078558D+03
 0.281331850303235D+03 0.000000000000000D+00 0.000000000000000D+00 -.281331850303235D+03
 0.146754061586765D+03 0.757388174552679D+02 -.801155057810437D+02 0.326594628268313D+02
 0.197645134008049D+02 0.186371923225941D+02 0.801251331730779D+00 0.653062390623088D+01
 0.152856163762987D+03 -.978391869659792D+02 0.245053116205652D+02 0.114856388575265D+03
 0.214319714185111D+03 0.844485932642963D+02 0.821937168228206D+02 -.154046475308327D+03
 0.140628104446125D+03 -.809854160761792D+02 -.273847739940728D+02 0.111658856775323D+03
0.281280183288D-05 0.000000000000D+00 0.000000000000D+00 0.303431071470D-06 0.000000000000D+00  7 2 -2 23 -11 11 23 21 0 0.35610360D+00 0.46114033D-02 0.40802194D+05 0.40802194D+05 0.40802194D+05 0.11551429D+01  1  2  2  1  7  1        2 0.334630698652D-03 0.100000000000D+01
-.142880490979D-06 0.000000000000D+00 -.108018996660D-07 0.303431071470D-06 0.000000000000D+00  7 2 -2 23 -11 11 23 21 2 0.35610360D+00 0.46114033D-02 0.40802194D+05 0.40802194D+05 0.40802194D+05 0.11551429D+01  1  2  3  1  7  1        2 -.226814618217D-04 0.100000000000D+01
0.179977401247D-06 0.000000000000D+00 0.000000000000D+00 0.303431071470D-06 0.000000000000D+00  7 2 -2 23 -11 11 23 21 2 0.35610360D+00 0.46114033D-02 0.40802194D+05 0.40802194D+05 0.40802194D+05 0.11551429D+01  1  2 15  1  7  1        2 0.285703844323D-04 0.100000000000D+01
0.230102687899D-05 0.000000000000D+00 0.000000000000D+00 0.303431071470D-06 0.000000000000D+00  7 2 -2 23 -11 11 23 21 2 0.53866276D+00 0.46114033D-02 0.61773417D+05 0.61773417D+05 0.61773417D+05 0.11393045D+01  1  2 12  1  7  1        2 0.664002518927D-04 0.100000000000D+01
-.290978444048D-05 0.000000000000D+00 0.000000000000D+00 0.303431071470D-06 0.000000000000D+00  7 2 -2 23 -11 11 23 21 2 0.35610360D+00 0.46114033D-02 0.40802194D+05 0.40802194D+05 0.40802194D+05 0.11551429D+01  1  2  4  1  7  1        2 -.461911659484D-03 0.100000000000D+01
-.325713141337D-05 0.000000000000D+00 -.801985801475D-06 0.303431071470D-06 0.000000000000D+00  7 2 -2 23 -11 11 23 21 2 0.53887614D+00 0.46114033D-02 0.40802194D+05 0.40802194D+05 0.40802194D+05 0.11551429D+01  1  2  5  1  7  1        2 -.980981465870D-04 0.100000000000D+01
0.336103241997D-05 0.000000000000D+00 0.737769226629D-06 0.303431071470D-06 0.000000000000D+00  7 2 -2 23 -11 11 23 21 2 0.35610360D+00 0.46114033D-02 0.40802194D+05 0.40802194D+05 0.40802194D+05 0.11551429D+01  1  2  6  1  7  1        2 0.533544698737D-03 0.100000000000D+01
0.112313243607D-06 0.000000000000D+00 0.000000000000D+00 0.303431071470D-06 0.000000000000D+00  7 21 -2 23 -11 11 23 -2 2 0.53866276D+00 0.46114033D-02 0.61773417D+05 0.61773417D+05 0.61773417D+05 0.11393045D+01  1  2 12  3  7  1        2 0.123852513407D-06 0.100000000000D+01
-.130402902110D-06 0.000000000000D+00 -.391726746280D-07 0.303431071470D-06 0.000000000000D+00  7 21 -2 23 -11 11 23 -2 2 0.53887614D+00 0.46114033D-02 0.40802194D+05 0.40802194D+05 0.40802194D+05 0.11551429D+01  1  2  5  3  7  1        2 -.153631245374D-06 0.100000000000D+01
  </mgrwgt>
  </event>
  <event>
  8     66 0.55102590E-06 0.29134359E+03 0.75467711E-02 0.92829579E-01
        2 -1    0    0  501    0 0.00000000E+00 0.00000000E+00 0.91326558E+03 0.91326563E+03 0.32000000E+00 0.0000E+00 0.9000E+01
       -2 -1    0    0    0  501 0.00000000E+00 0.00000000E+00 -.10877578E+04 0.10877579E+04 0.32000000E+00 0.0000E+00 0.9000E+01
       25  2    1    2    0    0 0.36610333E+03 -.34571312E+03 0.74521457E+03 0.94812296E+03 0.30007196E+03 0.0000E+00 0.0000E+00
       23  2    1    2    0    0 -.36610333E+03 0.34571312E+03 -.91970682E+03 0.10529005E+04 0.95863014E+02 0.0000E+00 0.0000E+00
       23  1    3    3    0    0 0.21328128E+03 -.73411696E+02 0.43612352E+03 0.49939679E+03 0.91188000E+02 0.0000E+00 0.9000E+01
      -11  1    4    4    0    0 -.28315632E+03 0.31574168E+03 -.77404629E+03 0.88261995E+03 0.51099893E-03 0.0000E+00 0.9000E+01
       11  1    4    4    0    0 -.82947003E+02 0.29971445E+02 -.14566053E+03 0.17028060E+03 0.51099893E-03 0.0000E+00 0.9000E+01
       23  1    3    3    0    0 0.15282204E+03 -.27230143E+03 0.30909106E+03 0.44872617E+03 0.91188000E+02 0.0000E+00 0.9000E+01
#aMCatNLO 1  0  0  2  1 0.87043034D+02 0.00000000D+00  -5  7  0 0.00000000D+00 0.00000000D+00 0.00000000D+00 0.00000000D+00 0.00000000D+00
  <mgrwgt>
 0.3403714189D-03    9    2    0
 0.996700498086983D+03 0.000000000000000D+00 0.000000000000000D+00 0.996700498086983D+03
 0.996700498086983D+03 0.000000000000000D+00 0.000000000000000D+00 -.996700498086983D+03
 0.539482469533781D+03 0.213281284776048D+03 -.734116961644743D+02 0.481505867067890D+03
 0.818238873406605D+03 -.283156324509985D+03 0.315741677968661D+03 -.699746055821139D+03
 0.158181343197609D+03 -.829470030310738D+02 0.299714446428007D+02 -.131312012131359D+03
 0.477498310035971D+03 0.152822042765011D+03 -.272301426446988D+03 0.349552200884608D+03
 0.000000000000000D+00 -.000000000000000D+00 -.000000000000000D+00 -.000000000000000D+00
 0.103192211090140D+04 0.000000000000000D+00 0.000000000000000D+00 0.103192211090140D+04
 0.105291779857353D+04 0.000000000000000D+00 0.000000000000000D+00 -.105291779857353D+04
 0.539842336016866D+03 0.220597410905974D+03 -.510233151895038D+02 0.481505867067890D+03
 0.828283093417377D+03 -.271995492920618D+03 0.349895401562651D+03 -.699746055821139D+03
 0.158451020647850D+03 -.808007331605059D+02 0.365393340810140D+02 -.131312012131359D+03
 0.468724033896390D+03 0.159235943362460D+03 -.252673983239862D+03 0.349552200884608D+03
 0.895394254964421D+02 -.270371281873104D+02 -.827374372142990D+02 -.209956876721337D+02
0.213411224750D-03 0.000000000000D+00 0.000000000000D+00 0.780138251029D-06 0.000000000000D+00  7 2 -2 23 -11 11 23 21 0 0.14050240D+00 0.16734737D+00 0.29208653D+06 0.29208653D+06 0.29208653D+06 0.10854119D+01  1  2  2  2  7  2       -2 0.165893890243D-03 0.100000000000D+01
-.645614249185D-05 0.000000000000D+00 -.819555295504D-06 0.780138251029D-06 0.000000000000D+00  7 2 -2 23 -11 11 23 21 2 0.14050240D+00 0.16734737D+00 0.29208653D+06 0.29208653D+06 0.29208653D+06 0.10854119D+01  1  2  3  2  7  2       -2 -.591255724161D-05 0.100000000000D+01
0.129409447732D-04 0.000000000000D+00 0.000000000000D+00 0.780138251029D-06 0.000000000000D+00  7 2 -2 23 -11 11 23 21 2 0.14050240D+00 0.16734737D+00 0.29208653D+06 0.29208653D+06 0.29208653D+06 0.10854119D+01  1  2 15  2  7  2       -2 0.118513612159D-04 0.100000000000D+01
0.479015864338D-03 0.000000000000D+00 0.000000000000D+00 0.780138251029D-06 0.000000000000D+00  7 2 -2 23 -11 11 23 21 2 0.14050240D+00 0.17960688D+00 0.34531488D+06 0.34531488D+06 0.34531488D+06 0.10800606D+01  1  2 12  2  7  2       -2 0.349946709202D-03 0.100000000000D+01
-.429581366789D-03 0.000000000000D+00 0.000000000000D+00 0.780138251029D-06 0.000000000000D+00  7 2 -2 23 -11 11 23 21 2 0.14050240D+00 0.16734737D+00 0.29208653D+06 0.29208653D+06 0.29208653D+06 0.10854119D+01  1  2  4  2  7  2       -2 -.393412076062D-03 0.100000000000D+01
-.141758387487D-02 0.000000000000D+00 -.316033897963D-03 0.780138251029D-06 0.000000000000D+00  7 2 -2 23 -11 11 23 21 2 0.14050240D+00 0.18082495D+00 0.29208653D+06 0.29208653D+06 0.29208653D+06 0.10854119D+01  1  2  5  2  7  2       -2 -.103495216094D-02 0.100000000000D+01
0.143869081730D-02 0.000000000000D+00 0.315088208048D-03 0.780138251029D-06 0.000000000000D+00  7 2 -2 23 -11 11 23 21 2 0.14050240D+00 0.16734737D+00 0.29208653D+06 0.29208653D+06 0.29208653D+06 0.10854119D+01  1  2  6  2  7  2       -2 0.131755794130D-02 0.100000000000D+01
0.588790677426D-05 0.000000000000D+00 0.000000000000D+00 0.780138251029D-06 0.000000000000D+00  7 2 21 23 -11 11 23 2 2 0.14050240D+00 0.17960688D+00 0.34531488D+06 0.34531488D+06 0.34531488D+06 0.10800606D+01  1  2 12  4  7  2       -2 0.348536506613D-04 0.100000000000D+01
-.177538624722D-04 0.000000000000D+00 -.410161910247D-05 0.780138251029D-06 0.000000000000D+00  7 2 21 23 -11 11 23 2 2 0.14050240D+00 0.18082495D+00 0.29208653D+06 0.29208653D+06 0.29208653D+06 0.10854119D+01  1  2  5  4  7  2       -2 -.105455339444D-03 0.100000000000D+01
  </mgrwgt>
  </event>
  <event>
  8     66 0.55102590E-06 0.14196272E+03 0.75467711E-02 0.10019090E+00
        2 -1    0    0  501    0 0.00000000E+00 0.00000000E+00 0.91596489E+03 0.91596495E+03 0.32000000E+00 0.0000E+00 0.9000E+01
       -2 -1    0    0    0  501 0.00000000E+00 0.00000000E+00 -.11730653E+03 0.11730697E+03 0.32000000E+00 0.0000E+00 0.9000E+01
       25  2    1    2    0    0 -.16451543E+03 0.10998691E+03 0.23799552E+03 0.43164301E+03 0.30085108E+03 0.0000E+00 0.0000E+00
       23  2    1    2    0    0 0.16451543E+03 -.10998691E+03 0.56066284E+03 0.60162891E+03 0.91935156E+02 0.0000E+00 0.0000E+00
       23  1    3    3    0    0 -.16130928E+03 0.16933737E+03 0.17309405E+03 0.30491413E+03 0.91188000E+02 0.0000E+00 0.9000E+01
      -13  1    4    4    0    0 0.15855062E+03 -.89419435E+02 0.54633887E+03 0.57586484E+03 0.10565837E+00 0.0000E+00 0.9000E+01
       13  1    4    4    0    0 0.59648083E+01 -.20567478E+02 0.14323968E+02 0.25764071E+02 0.10565837E+00 0.0000E+00 0.9000E+01
       23  1    3    3    0    0 -.32061503E+01 -.59350453E+02 0.64901466E+02 0.12672887E+03 0.91188000E+02 0.0000E+00 0.9000E+01
#aMCatNLO 1  0  0  1  2 0.60284525D+02 0.00000000D+00  -5  7  0 0.00000000D+00 0.00000000D+00 0.00000000D+00 0.00000000D+00 0.00000000D+00
  <mgrwgt>
 0.2508625536D-03    9    2    0
 0.327794017464809D+03 0.000000000000000D+00 0.000000000000000D+00 0.327794017464809D+03
 0.327794017464809D+03 0.000000000000000D+00 0.000000000000000D+00 -.327794017464809D+03
 0.269706262169343D+03 -.161309276188688D+03 0.169337366704383D+03 -.986427400393211D+02
 0.242052987678712D+03 0.158550819595984D+03 -.894195265542544D+02 0.159547593903654D+03
 0.231565296579753D+02 0.596460705907954D+01 -.205673872122987D+02 -.881084057799498D+01
 0.120672255423589D+03 -.320615046637473D+01 -.593504529378302D+02 -.520940132863380D+02
 0.000000000000000D+00 -.000000000000000D+00 -.000000000000000D+00 0.000000000000000D+00
 0.382693402736780D+03 0.000000000000000D+00 0.000000000000000D+00 0.382693402736780D+03
 0.346154103140927D+03 0.000000000000000D+00 0.000000000000000D+00 -.346154103140927D+03
 0.261216225228450D+03 -.138016239737511D+03 0.176464705776689D+03 -.986427400393211D+02
 0.254609790467780D+03 0.180340787943361D+03 -.827521050219830D+02 0.159547593903654D+03
 0.232253211961742D+02 0.799950700824912D+01 -.199447366640823D+02 -.881084057799498D+01
 0.119302591887521D+03 0.732220913123857D+01 -.561289240965976D+02 -.520940132863380D+02
 0.704935770977817D+02 -.576462643453376D+02 -.176389399940256D+02 0.365392995958530D+02
0.190899133032D-05 0.000000000000D+00 0.000000000000D+00 0.148835206357D-06 0.000000000000D+00  7 2 -2 23 -13 13 23 21 0 0.14091771D+00 0.18047196D-01 0.79329959D+05 0.79329959D+05 0.79329959D+05 0.11300690D+01  1  2  2  1  7  1        2 0.162785117904D-03 0.100000000000D+01
-.103087624902D-06 0.000000000000D+00 -.733102935740D-08 0.148835206357D-06 0.000000000000D+00  7 2 -2 23 -13 13 23 21 2 0.14091771D+00 0.18047196D-01 0.79329959D+05 0.79329959D+05 0.79329959D+05 0.11300690D+01  1  2  3  1  7  1        2 -.112260558359D-04 0.100000000000D+01
0.121648803142D-06 0.000000000000D+00 0.000000000000D+00 0.148835206357D-06 0.000000000000D+00  7 2 -2 23 -13 13 23 21 2 0.14091771D+00 0.18047196D-01 0.79329959D+05 0.79329959D+05 0.79329959D+05 0.11300690D+01  1  2 15  1  7  1        2 0.132473345636D-04 0.100000000000D+01
0.283338373864D-05 0.000000000000D+00 0.000000000000D+00 0.148835206357D-06 0.000000000000D+00  7 2 -2 23 -13 13 23 21 2 0.16798263D+00 0.18047196D-01 0.99035261D+05 0.99035261D+05 0.99035261D+05 0.11220677D+01  1  2 12  1  7  1        2 0.237389935520D-03 0.100000000000D+01
-.285575114081D-05 0.000000000000D+00 0.000000000000D+00 0.148835206357D-06 0.000000000000D+00  7 2 -2 23 -13 13 23 21 2 0.14091771D+00 0.18047196D-01 0.79329959D+05 0.79329959D+05 0.79329959D+05 0.11300690D+01  1  2  4  1  7  1        2 -.310986132338D-03 0.100000000000D+01
-.574547898098D-05 0.000000000000D+00 -.134933424392D-05 0.148835206357D-06 0.000000000000D+00  7 2 -2 23 -13 13 23 21 2 0.16996027D+00 0.18047196D-01 0.79329959D+05 0.79329959D+05 0.79329959D+05 0.11300690D+01  1  2  5  1  7  1        2 -.481129042975D-03 0.100000000000D+01
0.591747867698D-05 0.000000000000D+00 0.132598540317D-05 0.148835206357D-06 0.000000000000D+00  7 2 -2 23 -13 13 23 21 2 0.14091771D+00 0.18047196D-01 0.79329959D+05 0.79329959D+05 0.79329959D+05 0.11300690D+01  1  2  6  1  7  1        2 0.644402721458D-03 0.100000000000D+01
0.733185506377D-07 0.000000000000D+00 0.000000000000D+00 0.148835206357D-06 0.000000000000D+00  7 21 -2 23 -13 13 23 -2 2 0.16798263D+00 0.18047196D-01 0.99035261D+05 0.99035261D+05 0.99035261D+05 0.11220677D+01  1  2 12  3  7  1        2 0.390870104919D-05 0.100000000000D+01
-.142473434121D-06 0.000000000000D+00 -.367207408245D-07 0.148835206357D-06 0.000000000000D+00  7 21 -2 23 -13 13 23 -2 2 0.16996027D+00 0.18047196D-01 0.79329959D+05 0.79329959D+05 0.79329959D+05 0.11300690D+01  1  2  5  3  7  1        2 -.753002571726D-05 0.100000000000D+01
  </mgrwgt>
  </event>
  <event>
  8     66 0.55102590E-06 0.26301367E+03 0.75467711E-02 0.94386372E-01
        2 -1    0    0  501    0 0.00000000E+00 0.00000000E+00 0.37898009E+03 0.37898022E+03 0.32000000E+00 0.0000E+00 0.9000E+01
       -2 -1    0    0    0  501 0.00000000E+00 0.00000000E+00 -.25125605E+03 0.25125626E+03 0.32000000E+00 0.0000E+00 0.9000E+01
       25  2    1    2    0    0 0.12494212E+03 0.18206457E+03 0.11789429E+03 0.39041437E+03 0.29961021E+03 0.0000E+00 0.0000E+00
       23  2    1    2    0    0 -.12494212E+03 -.18206457E+03 0.98297477E+01 0.23982210E+03 0.93059001E+02 0.0000E+00 0.0000E+00
       23  1    3    3    0    0 0.17689019E+02 0.61040253E+02 -.65866373E+02 0.12919924E+03 0.91188000E+02 0.0000E+00 0.9000E+01
      -13  1    4    4    0    0 -.99045513E+02 -.17702224E+03 -.15251636E+02 0.20341955E+03 0.10565837E+00 0.0000E+00 0.9000E+01
       13  1    4    4    0    0 -.25896605E+02 -.50423245E+01 0.25081383E+02 0.36402557E+02 0.10565837E+00 0.0000E+00 0.9000E+01
       23  1    3    3    0    0 0.10725310E+03 0.12102432E+03 0.18376066E+03 0.26121513E+03 0.91188000E+02 0.0000E+00 0.9000E+01
#aMCatNLO 1  0  0  1  2 0.37580511D+03 0.00000000D+00  -5  7  0 0.00000000D+00 0.00000000D+00 0.00000000D+00 0.00000000D+00 0.00000000D+00
  <mgrwgt>
 0.1946424538D-03    5    2    0
 0.308579239247393D+03 0.000000000000000D+00 0.000000000000000D+00 0.308579239247393D+03
 0.308579239247393D+03 0.000000000000000D+00 0.000000000000000D+00 -.308579239247393D+03
 0.145568436672879D+03 0.176890197740210D+02 0.610402541310499D+02 -.940005551389837D+02
 0.210886776005006D+03 -.990456095193549D+02 -.177022466141218D+03 -.576736162383330D+02
 0.319830007821357D+02 -.258965097195431D+02 -.504210550611318D+01 0.180792780674706D+02
 0.228720265034766D+03 0.107253099464877D+03 0.121024317516281D+03 0.133594893309846D+03
 0.000000000000000D+00 0.000000000000000D+00 -.000000000000000D+00 0.000000000000000D+00
 0.588813719157439D+03 0.000000000000000D+00 0.000000000000000D+00 0.588813719157439D+03
 0.516466517433975D+03 0.000000000000000D+00 0.000000000000000D+00 -.516466517433975D+03
 0.177668701560414D+03 -.631434957073098D+02 0.102116163037920D+03 -.940005551389837D+02
 0.251842547808468D+03 -.214761196642957D+03 -.118220350587955D+03 -.576736162383330D+02
 0.501132024969125D+02 -.464264607603875D+02 0.539040910505218D+01 0.180792780674706D+02
 0.242950157948217D+03 -.106984050443004D+02 0.180962638448113D+03 0.133594893309846D+03
 0.382705626777403D+03 0.335029558154955D+03 -.170248860003131D+03 0.723472017234642D+02
0.282826901864D-05 0.000000000000D+00 0.000000000000D+00 0.110185045536D-06 0.000000000000D+00  7 2 -2 23 -13 13 23 21 0 0.58304655D-01 0.38654803D-01 0.69176190D+05 0.69176190D+05 0.69176190D+05 0.11350970D+01  1  2  2  1  7  1        2 0.181850741749D-03 0.100000000000D+01
-.152249259918D-06 0.000000000000D+00 -.108612977319D-07 0.110185045536D-06 0.000000000000D+00  7 2 -2 23 -13 13 23 21 2 0.58304655D-01 0.38654803D-01 0.69176190D+05 0.69176190D+05 0.69176190D+05 0.11350970D+01  1  2  3  1  7  1        2 -.126129148645D-04 0.100000000000D+01
0.177224268877D-06 0.000000000000D+00 0.000000000000D+00 0.110185045536D-06 0.000000000000D+00  7 2 -2 23 -13 13 23 21 2 0.58304655D-01 0.38654803D-01 0.69176190D+05 0.69176190D+05 0.69176190D+05 0.11350970D+01  1  2 15  1  7  1        2 0.146819407626D-04 0.100000000000D+01
0.391942671525D-06 0.000000000000D+00 -.907595550322D-06 0.110185045536D-06 0.000000000000D+00  7 2 -2 23 -13 13 23 21 2 0.16642495D+00 0.38654803D-01 0.69176190D+05 0.69176190D+05 0.69176190D+05 0.11350970D+01  1  2  5  1  7  1        2 0.924051802011D-05 0.100000000000D+01
0.956477450466D-07 0.000000000000D+00 -.107292912020D-06 0.110185045536D-06 0.000000000000D+00  7 21 -2 23 -13 13 23 -2 2 0.16642495D+00 0.38654803D-01 0.69176190D+05 0.69176190D+05 0.69176190D+05 0.11350970D+01  1  2  5  3  7  1        2 0.148216811697D-05 0.100000000000D+01
  </mgrwgt>
  </event>
  <event>
  8     66 0.55102590E-06 0.20636685E+03 0.75467711E-02 0.10141688E+00
        2 -1    0    0  501    0 0.00000000E+00 0.00000000E+00 0.48850316E+03 0.48850327E+03 0.32000000E+00 0.0000E+00 0.9000E+01
       21 -1    0    0  502  501 0.00000000E+00 0.00000000E+00 -.34533775E+03 0.34533856E+03 0.75000000E+00 0.0000E+00 0.9000E+01
       25  2    1    2    0    0 -.61308373E+02 0.10505044E+03 -.11160041E+03 0.34213553E+03 0.29967942E+03 0.0000E+00 0.0000E+00
       23  1    3    3    0    0 -.51111375E+01 -.52537889E+02 -.10896096E+03 0.15157208E+03 0.91188000E+02 0.0000E+00 0.9000E+01
      -11  1    1    2    0    0 0.22669472E+02 -.11626808E+02 0.21651110E+03 0.21800492E+03 0.51099893E-03 0.0000E+00 0.9000E+01
       11  1    1    2    0    0 -.39984547E+02 0.63724426E+02 0.60553732E+02 0.96572879E+02 0.51099893E-03 0.0000E+00 0.9000E+01
       23  1    3    3    0    0 -.56197235E+02 0.15758833E+03 -.26394540E+01 0.19056345E+03 0.91188000E+02 0.0000E+00 0.9000E+01
        2  1    1    2  502    0 0.78623448E+02 -.15714806E+03 -.22299009E+02 0.17712850E+03 0.32000000E+00 0.0000E+00 0.9000E+01
#aMCatNLO 2  0  0  2  1 0.17571898D+03 0.00000000D+00  -5  7  0 0.00000000D+00 0.00000000D+00 0.00000000D+00 0.00000000D+00 0.00000000D+00
  <mgrwgt>
 0.5025952107D-04    2    2    0
 0.305375489930483D+03 0.000000000000000D+00 0.000000000000000D+00 0.305375489930483D+03
 0.305375489930483D+03 0.000000000000000D+00 0.000000000000000D+00 -.305375489930483D+03
 0.205358559024356D+03 0.195148877457519D+02 -.101758982220612D+03 -.152056453708009D+03
 0.181663782985753D+03 0.447854940930326D+02 -.558310542377718D+02 0.166969706684286D+03
 0.658915206407180D+02 -.305267007162553D+02 0.448206287737448D+02 0.374289229347106D+02
 0.157837117210140D+03 -.337736811225293D+02 0.112769407684639D+03 -.523421759109883D+02
 0.000000000000000D+00 0.000000000000000D+00 -.000000000000000D+00 -.000000000000000D+00
 0.377603123323865D+03 0.000000000000000D+00 0.000000000000000D+00 0.377603123323865D+03
 0.446762327896315D+03 0.000000000000000D+00 0.000000000000000D+00 -.446762327896315D+03
 0.184993972321207D+03 -.511113879820509D+01 -.525378872539537D+02 -.152056453708009D+03
 0.168902249628155D+03 0.226694637580908D+02 -.116267962971506D+02 0.166969706684286D+03
 0.840267107251046D+02 -.399845370272220D+02 0.637244116641858D+02 0.374289229347106D+02
 0.197603555874135D+03 -.561972361075655D+02 0.157588328326929D+03 -.523421759109883D+02
 0.188838962671579D+03 0.786234481749017D+02 -.157148056440011D+03 -.691592045724495D+02
-.272993777763D-08 0.000000000000D+00 0.000000000000D+00 0.437493109175D-09 0.000000000000D+00  7 2 21 23 -11 11 23 2 2 0.60778906D-01 0.55819161D-01 0.81891997D+05 0.81891997D+05 0.81891997D+05 0.11289119D+01  1  2 13  4  7  2       -2 -.112014882272D-05 0.100000000000D+01
0.141951175828D-06 0.000000000000D+00 0.000000000000D+00 0.437493109175D-09 0.719927007663D-14  7 2 21 23 -11 11 23 2 2 0.75154378D-01 0.53128937D-01 0.81891997D+05 0.81891997D+05 0.81891997D+05 0.11289119D+01  1  2  1  4  7  2       -2 0.513796698955D-04 0.100000000000D+01
  </mgrwgt>
  </event>
  <event>
  8     66 0.55102590E-06 0.13218407E+03 0.75467711E-02 0.10052744E+00
        2 -1    0    0  501    0 0.00000000E+00 0.00000000E+00 0.17740910E+04 0.17740910E+04 0.32000000E+00 0.0000E+00 0.9000E+01
       -2 -1    0    0    0  501 0.00000000E+00 0.00000000E+00 -.70721608E+02 0.70722332E+02 0.32000000E+00 0.0000E+00 0.9000E+01
       25  2    1    2    0    0 -.19095510E+03 0.40729446E+02 0.15206563E+04 0.15623754E+04 0.30083009E+03 0.0000E+00 0.0000E+00
       23  2    1    2    0    0 0.19095510E+03 -.40729446E+02 0.18271308E+03 0.28243789E+03 0.90908504E+02 0.0000E+00 0.0000E+00
       23  1    3    3    0    0 -.21777489E+03 0.88506026E+02 0.10874299E+04 0.11162787E+04 0.91188000E+02 0.0000E+00 0.9000E+01
      -11  1    4    4    0    0 0.14802760E+03 -.29793609E+02 0.80670099E+02 0.17119432E+03 0.51099893E-03 0.0000E+00 0.9000E+01
       11  1    4    4    0    0 0.42927494E+02 -.10935837E+02 0.10204298E+03 0.11124357E+03 0.51099893E-03 0.0000E+00 0.9000E+01
       23  1    3    3    0    0 0.26819789E+02 -.47776580E+02 0.43322640E+03 0.44609670E+03 0.91188000E+02 0.0000E+00 0.9000E+01
#aMCatNLO 1  0  0  2  1 0.56077499D+02 0.00000000D+00  -5  7  0 0.00000000D+00 0.00000000D+00 0.00000000D+00 0.00000000D+00 0.00000000D+00
  <mgrwgt>
 0.2542534619D-03    9    2    0
 0.354213579623744D+03 0.000000000000000D+00 0.000000000000000D+00 0.354213579623744D+03
 0.354213579623744D+03 0.000000000000000D+00 0.000000000000000D+00 -.354213579623744D+03
 0.292240558438731D+03 -.217774885897821D+03 0.885060259114857D+02 0.147750042646789D+03
 0.251840413266810D+03 0.148027602982334D+03 -.297936091954870D+02 -.201553375959840D+03
 0.443330498847217D+02 0.429274941530369D+02 -.109358367444315D+02 -.174843716539799D+01
 0.120013137657226D+03 0.268197887624506D+02 -.477765799715671D+02 0.555517704784492D+02
 0.000000000000000D+00 0.000000000000000D+00 0.000000000000000D+00 -.000000000000000D+00
 0.374935749576666D+03 0.000000000000000D+00 0.000000000000000D+00 0.374935749576666D+03
 0.395403419188179D+03 0.000000000000000D+00 0.000000000000000D+00 -.395403419188179D+03
 0.288388442166004D+03 -.220680824771549D+03 0.657460318723156D+02 0.147750042646789D+03
 0.253483576881466D+03 0.145498551513547D+03 -.496017327849835D+02 -.201553375959840D+03
 0.449000527530800D+02 0.424808992679924D+02 -.144336725087798D+02 -.174843716539799D+01
 0.123871105768210D+03 0.255991940230875D+02 -.573365639214373D+02 0.555517704784492D+02
 0.596959911960860D+02 0.710217996692218D+01 0.556259373428850D+02 -.204676696115132D+02
0.324898800858D-05 0.000000000000D+00 0.000000000000D+00 0.382698481391D-06 0.000000000000D+00  7 2 -2 23 -11 11 23 21 0 0.27293713D+00 0.10880305D-01 0.76678201D+05 0.76678201D+05 0.76678201D+05 0.11313107D+01  1  2  2  2  7  2       -2 0.205096073818D-03 0.100000000000D+01
-.167195355711D-06 0.000000000000D+00 -.124769694311D-07 0.382698481391D-06 0.000000000000D+00  7 2 -2 23 -11 11 23 21 2 0.27293713D+00 0.10880305D-01 0.76678201D+05 0.76678201D+05 0.76678201D+05 0.11313107D+01  1  2  3  2  7  2       -2 -.135081929833D-04 0.100000000000D+01
0.203989651421D-06 0.000000000000D+00 0.000000000000D+00 0.382698481391D-06 0.000000000000D+00  7 2 -2 23 -11 11 23 21 2 0.27293713D+00 0.10880305D-01 0.76678201D+05 0.76678201D+05 0.76678201D+05 0.11313107D+01  1  2 15  2  7  2       -2 0.164809098092D-04 0.100000000000D+01
0.455700720507D-05 0.000000000000D+00 0.000000000000D+00 0.382698481391D-06 0.000000000000D+00  7 2 -2 23 -11 11 23 21 2 0.27293713D+00 0.12435069D-01 0.93956153D+05 0.93956153D+05 0.93956153D+05 0.11239506D+01  1  2 12  2  7  2       -2 0.293877782225D-03 0.100000000000D+01
-.435479012866D-05 0.000000000000D+00 0.000000000000D+00 0.382698481391D-06 0.000000000000D+00  7 2 -2 23 -11 11 23 21 2 0.27293713D+00 0.10880305D-01 0.76678201D+05 0.76678201D+05 0.76678201D+05 0.11313107D+01  1  2  4  2  7  2       -2 -.351836001721D-03 0.100000000000D+01
-.102855705808D-04 0.000000000000D+00 -.272049985321D-05 0.382698481391D-06 0.000000000000D+00  7 2 -2 23 -11 11 23 21 2 0.27293713D+00 0.12928836D-01 0.76678201D+05 0.76678201D+05 0.76678201D+05 0.11313107D+01  1  2  5  2  7  2       -2 -.634909858086D-03 0.100000000000D+01
0.106362051078D-04 0.000000000000D+00 0.268051708345D-05 0.382698481391D-06 0.000000000000D+00  7 2 -2 23 -11 11 23 21 2 0.27293713D+00 0.10880305D-01 0.76678201D+05 0.76678201D+05 0.76678201D+05 0.11313107D+01  1  2  6  2  7  2       -2 0.859329558498D-03 0.100000000000D+01
0.945380151254D-07 0.000000000000D+00 0.000000000000D+00 0.382698481391D-06 0.000000000000D+00  7 2 21 23 -11 11 23 2 2 0.27293713D+00 0.12435069D-01 0.93956153D+05 0.93956153D+05 0.93956153D+05 0.11239506D+01  1  2 12  4  7  2       -2 0.856170945917D-04 0.100000000000D+01
-.238141242332D-06 0.000000000000D+00 -.693926010636D-07 0.382698481391D-06 0.000000000000D+00  7 2 21 23 -11 11 23 2 2 0.27293713D+00 0.12928836D-01 0.76678201D+05 0.76678201D+05 0.76678201D+05 0.11313107D+01  1  2  5  4  7  2       -2 -.205893904254D-03 0.100000000000D+01
  </mgrwgt>
  </event>
  <event>
  8     66 0.55102590E-06 0.22371258E+03 0.75467711E-02 0.84328343E-01
        2 -1    0    0  501    0 0.00000000E+00 0.00000000E+00 0.55473541E+03 0.55473550E+03 0.32000000E+00 0.0000E+00 0.9000E+01
       -2 -1    0    0    0  501 0.00000000E+00 0.00000000E+00 -.10941364E+03 0.10941411E+03 0.32000000E+00 0.0000E+00 0.9000E+01
       25  2    1    2    0    0 0.88124443E+02 -.10161985E+03 0.25739052E+03 0.41739831E+03 0.29979820E+03 0.0000E+00 0.0000E+00
       23  2    1    2    0    0 -.88124443E+02 0.10161985E+03 0.18793124E+03 0.24675129E+03 0.86461196E+02 0.0000E+00 0.0000E+00
       23  1    3    3    0    0 0.26439325E+02 -.15192436E+03 0.23302114E+03 0.29392882E+03 0.91188000E+02 0.0000E+00 0.9000E+01
      -11  1    4    4    0    0 -.77521262E+02 0.45014362E+02 0.64159548E+02 0.11023741E+03 0.51099893E-03 0.0000E+00 0.9000E+01
       11  1    4    4    0    0 -.10603181E+02 0.56605489E+02 0.12377169E+03 0.13651388E+03 0.51099893E-03 0.0000E+00 0.9000E+01
       23  1    3    3    0    0 0.61685118E+02 0.50304509E+02 0.24369382E+02 0.12346949E+03 0.91188000E+02 0.0000E+00 0.9000E+01
#aMCatNLO 1  0  0  1  1 0.13588596D+04 0.00000000D+00  -5  7  0 0.00000000D+00 0.00000000D+00 0.00000000D+00 0.00000000D+00 0.00000000D+00
  <mgrwgt>
 0.2563114937D-03    3    2    0
 0.246365191058017D+03 0.000000000000000D+00 0.000000000000000D+00 0.246365191058017D+03
 0.246365191058017D+03 0.000000000000000D+00 0.000000000000000D+00 -.246365191058017D+03
 0.185584916395166D+03 0.264393247157889D+02 -.151924359667860D+03 0.484402817651235D+02
 0.906022669049648D+02 -.775212623796503D+02 0.450143624216939D+02 -.131503544877044D+02
 0.721437436600312D+02 -.106031805812176D+02 0.566054887028216D+02 0.434523987779859D+02
 0.144399455155871D+03 0.616851182450790D+02 0.503045085433444D+02 -.787423260554050D+02
 0.000000000000000D+00 0.000000000000000D+00 0.000000000000000D+00 -.000000000000000D+00
 0.108287802426349D+04 0.000000000000000D+00 0.000000000000000D+00 0.108287802426349D+04
 0.200443751297405D+04 0.000000000000000D+00 0.000000000000000D+00 -.200443751297405D+04
 0.896281411337379D+03 -.285665530194680D+03 -.843240096844328D+03 0.484402817651235D+02
 0.240607586131279D+03 -.173071147311784D+03 -.166629699180403D+03 -.131503544877044D+02
 0.813877160210297D+02 -.548950794227131D+02 -.415015615939051D+02 0.434523987779859D+02
 0.227158399482597D+03 -.455046586618632D+02 -.187122043701288D+03 -.787423260554050D+02
 0.164188042426525D+04 0.559136415591040D+03 0.123849340131992D+04 -.921559488710555D+03
0.144733046439D-05 0.000000000000D+00 0.000000000000D+00 0.107727602724D-07 0.000000000000D+00  7 2 -2 23 -11 11 23 21 0 0.85343952D-01 0.16832911D-01 0.50047316D+05 0.50047316D+05 0.50047316D+05 0.11472593D+01  1  2  2  1  7  1        2 0.252926290749D-03 0.100000000000D+01
-.794977389870D-07 0.000000000000D+00 -.555813007413D-08 0.107727602724D-07 0.000000000000D+00  7 2 -2 23 -11 11 23 21 2 0.85343952D-01 0.16832911D-01 0.50047316D+05 0.50047316D+05 0.50047316D+05 0.11472593D+01  1  2  3  1  7  1        2 -.182853884031D-04 0.100000000000D+01
0.942152816735D-07 0.000000000000D+00 0.000000000000D+00 0.107727602724D-07 0.000000000000D+00  7 2 -2 23 -11 11 23 21 2 0.85343952D-01 0.16832911D-01 0.50047316D+05 0.50047316D+05 0.50047316D+05 0.11472593D+01  1  2 15  1  7  1        2 0.216705914013D-04 0.100000000000D+01
  </mgrwgt>
  </event>
  <event>
  8     66 0.55102590E-06 0.28459090E+03 0.75467711E-02 0.94154682E-01
        2 -1    0    0  501    0 0.00000000E+00 0.00000000E+00 0.34710898E+04 0.34710899E+04 0.32000000E+00 0.0000E+00 0.9000E+01
       -2 -1    0    0    0  502 0.00000000E+00 0.00000000E+00 -.93554901E+02 0.93555448E+02 0.32000000E+00 0.0000E+00 0.9000E+01
       25  2    1    2    0    0 -.95792575E+02 -.54005700E+02 0.12547574E+04 0.12946916E+04 0.29952841E+03 0.0000E+00 0.0000E+00
       23  1    3    3    0    0 -.12500145E+03 -.67997196E+02 0.10945911E+04 0.11075622E+04 0.91188000E+02 0.0000E+00 0.9000E+01
      -11  1    1    2    0    0 -.12142180E+03 0.35677135E+03 0.10832117E+04 0.11468987E+04 0.51099893E-03 0.0000E+00 0.9000E+01
       11  1    1    2    0    0 0.17197196E+02 0.16109923E+02 0.21909161E+03 0.22035518E+03 0.51099893E-03 0.0000E+00 0.9000E+01
       23  1    3    3    0    0 0.29208872E+02 0.13991495E+02 0.16016626E+03 0.18712938E+03 0.91188000E+02 0.0000E+00 0.9000E+01
       21  1    1    2  501  502 0.20001718E+03 -.31887558E+03 0.82047424E+03 0.90269986E+03 0.75000000E+00 0.0000E+00 0.9000E+01
#aMCatNLO 2  0  0  2  2 0.37641534D+03 0.00000000D+00  -5  7  0 0.00000000D+00 0.00000000D+00 0.00000000D+00 0.00000000D+00 0.00000000D+00
  <mgrwgt>
 0.9489913734D-05    1    2    0
 0.318475109585512D+03 0.000000000000000D+00 0.000000000000000D+00 0.318475109585512D+03
 0.318475109585512D+03 0.000000000000000D+00 0.000000000000000D+00 -.318475109585512D+03
 0.229239789561434D+03 -.623759154086490D+02 -.167837393421502D+03 0.110342577097780D+03
 0.227791100958289D+03 -.327324813338207D+02 0.215379229358496D+03 -.665519188488286D+02
 0.386931227492358D+02 0.279909357988494D+02 -.109790086291817D+01 0.266919440072716D+02
 0.141226205902064D+03 0.671174609436203D+02 -.464439350740754D+02 -.704826022562225D+02
 0.000000000000000D+00 0.000000000000000D+00 -.000000000000000D+00 -.000000000000000D+00
 0.492071100210659D+03 0.000000000000000D+00 0.000000000000000D+00 0.492071100210659D+03
 0.659941332894775D+03 0.000000000000000D+00 0.000000000000000D+00 -.659941332894775D+03
 0.201840822838277D+03 -.125001449515045D+03 -.679972037556752D+02 0.110342577097780D+03
 0.382698594940075D+03 -.121421794126752D+03 0.356771361767851D+03 -.665519188488286D+02
 0.356052395188396D+02 0.171971898348013D+02 0.161099307289764D+02 0.266919440072716D+02
 0.119716199983194D+03 0.292088724580406D+02 0.139914882459711D+02 -.704826022562225D+02
 0.412151575825049D+03 0.200017181348956D+03 -.318875576987123D+03 -.167870232684116D+03
0.212274927641D-05 0.000000000000D+00 0.000000000000D+00 0.247426800083D-09 0.157339327709D-13  7 2 -2 23 -11 11 23 21 2 0.53401353D+00 0.14393096D-01 0.27176683D+06 0.27176683D+06 0.27176683D+06 0.10877420D+01  1  2  1  2  7  2       -2 0.948991373419D-05 0.100000000000D+01
  </mgrwgt>
  </event>
  <event>
  8     66 0.55102590E-06 0.31909765E+03 0.75467711E-02 0.93275752E-01
        2 -1    0    0  501    0 0.00000000E+00 0.00000000E+00 0.16630811E+04 0.16630811E+04 0.32000000E+00 0.0000E+00 0.9000E+01
       -2 -1    0    0    0  501 0.00000000E+00 0.00000000E+00 -.15327217E+03 0.15327250E+03 0.32000000E+00 0.0000E+00 0.9000E+01
       25  2    1    2    0    0 0.10823417E+03 0.24661722E+03 0.14761308E+04 0.15300246E+04 0.29912939E+03 0.0000E+00 0.0000E+00
       23  2    1    2    0    0 -.10823417E+03 -.24661722E+03 0.33678069E+02 0.28632899E+03 0.91188763E+02 0.0000E+00 0.0000E+00
       23  1    3    3    0    0 0.14386934E+03 0.11854537E+03 0.51114881E+03 0.55166996E+03 0.91188000E+02 0.0000E+00 0.9000E+01
      -13  1    4    4    0    0 -.67280709E+02 -.14261094E+03 -.25687529E+02 0.15976368E+03 0.10565837E+00 0.0000E+00 0.9000E+01
       13  1    4    4    0    0 -.40953459E+02 -.10400629E+03 0.59365597E+02 0.12656532E+03 0.10565837E+00 0.0000E+00 0.9000E+01
       23  1    3    3    0    0 -.35635172E+02 0.12807186E+03 0.96498202E+03 0.97835464E+03 0.91188000E+02 0.0000E+00 0.9000E+01
#aMCatNLO 1  0  0  1  1 0.39978329D+03 0.00000000D+00  -5  7  0 0.00000000D+00 0.00000000D+00 0.00000000D+00 0.00000000D+00 0.00000000D+00
  <mgrwgt>
 0.2456962420D-03    3    2    0
 0.504880555704768D+03 0.000000000000000D+00 0.000000000000000D+00 0.504880555704768D+03
 0.504880555704768D+03 0.000000000000000D+00 0.000000000000000D+00 -.504880555704768D+03
 0.228064539579798D+03 0.143869339308506D+03 0.118545365645587D+03 0.945874852220615D+02
 0.325790764611653D+03 -.672807440128396D+02 -.142610986970346D+03 -.285087758745738D+03
 0.138900582152492D+03 -.409534237875811D+02 -.104006236166949D+03 -.824553918234625D+02
 0.317005225065592D+03 -.356351715080848D+02 0.128071857491708D+03 0.272955665347139D+03
 0.000000000000000D+00 -.000000000000000D+00 0.000000000000000D+00 -.000000000000000D+00
 0.717978403866589D+03 0.000000000000000D+00 0.000000000000000D+00 0.717978403866589D+03
 0.771377569289083D+03 0.000000000000000D+00 0.000000000000000D+00 -.771377569289083D+03
 0.294434787498654D+03 0.242375950940863D+03 0.103361979423074D+03 0.945874852220615D+02
 0.332670230198894D+03 0.568586723066749D+02 -.161745303664245D+03 -.285087758745738D+03
 0.139638832370833D+03 0.115595126101982D+02 -.112100354742273D+03 -.824553918234625D+02
 0.319278331441196D+03 0.843231402840721D+02 0.109581998299936D+03 0.272955665347139D+03
 0.403333791646096D+03 -.395117276141808D+03 0.609016806835080D+02 -.533991654224942D+02
0.116315193219D-04 0.000000000000D+00 0.000000000000D+00 0.681321078949D-06 0.000000000000D+00  7 2 -2 23 -13 13 23 21 0 0.25585865D+00 0.23580362D-01 0.10182331D+06 0.10182331D+06 0.10182331D+06 0.11210787D+01  1  2  2  1  7  1        2 0.240108337108D-03 0.100000000000D+01
-.480794169474D-06 0.000000000000D+00 -.446680968456D-07 0.681321078949D-06 0.000000000000D+00  7 2 -2 23 -13 13 23 21 2 0.25585865D+00 0.23580362D-01 0.10182331D+06 0.10182331D+06 0.10182331D+06 0.11210787D+01  1  2  3  1  7  1        2 -.124738970770D-04 0.100000000000D+01
0.696174502272D-06 0.000000000000D+00 0.000000000000D+00 0.681321078949D-06 0.000000000000D+00  7 2 -2 23 -13 13 23 21 2 0.25585865D+00 0.23580362D-01 0.10182331D+06 0.10182331D+06 0.10182331D+06 0.11210787D+01  1  2 15  1  7  1        2 0.180618019941D-04 0.100000000000D+01
  </mgrwgt>
  </event>
  <event>
  8     66 0.55102590E-06 0.20428081E+03 0.75467711E-02 0.10301359E+00
        2 -1    0    0  501    0 0.00000000E+00 0.00000000E+00 0.20433322E+03 0.20433347E+03 0.32000000E+00 0.0000E+00 0.9000E+01
       -2 -1    0    0    0  501 0.00000000E+00 0.00000000E+00 -.27046767E+03 0.27046786E+03 0.32000000E+00 0.0000E+00 0.9000E+01
       25  2    1    2    0    0 -.12336913E+02 0.85256582E+02 -.12282512E+03 0.33603818E+03 0.30069048E+03 0.0000E+00 0.0000E+00
       23  2    1    2    0    0 0.12336913E+02 -.85256582E+02 0.56690665E+02 0.13876314E+03 0.92846616E+02 0.0000E+00 0.0000E+00
       23  1    3    3    0    0 -.31779788E+02 0.14490308E+03 -.47509545E+01 0.17419725E+03 0.91188000E+02 0.0000E+00 0.9000E+01
      -11  1    4    4    0    0 0.11332498E+02 -.10418021E+03 0.57987612E+02 0.11976855E+03 0.51099893E-03 0.0000E+00 0.9000E+01
       11  1    4    4    0    0 0.10044155E+01 0.18923629E+02 -.12969475E+01 0.18994595E+02 0.51099893E-03 0.0000E+00 0.9000E+01
       23  1    3    3    0    0 0.19442875E+02 -.59646497E+02 -.11807416E+03 0.16184094E+03 0.91188000E+02 0.0000E+00 0.9000E+01
#aMCatNLO 1  0  0  2  1 0.97704812D+02 0.00000000D+00  -5  7  0 0.00000000D+00 0.00000000D+00 0.00000000D+00 0.00000000D+00 0.00000000D+00
  <mgrwgt>
 0.3348648738D-03    3    2    0
 0.235086437739448D+03 0.000000000000000D+00 0.000000000000000D+00 0.235086437739448D+03
 0.235086437739448D+03 0.000000000000000D+00 0.000000000000000D+00 -.235086437739448D+03
 0.175243799415229D+03 -.317797881809260D+02 0.144903079180414D+03 0.197048368857780D+02
 0.129104095852387D+03 0.113324979408395D+02 -.104180210480526D+03 0.754050780817610D+02
 0.189991521744375D+02 0.100441554230807D+01 0.189236285829017D+02 0.136206241493820D+01
 0.146825828036843D+03 0.194428746977784D+02 -.596464972827905D+02 -.964719773824772D+02
 0.000000000000000D+00 0.000000000000000D+00 -.000000000000000D+00 0.000000000000000D+00
 0.605571936829241D+03 0.000000000000000D+00 0.000000000000000D+00 0.605571936829241D+03
 0.246638932514414D+03 0.000000000000000D+00 0.000000000000000D+00 -.246638932514414D+03
 0.209726341812721D+03 -.431644512776058D+02 0.182807102311028D+03 0.197048368857780D+02
 0.110450552786353D+03 0.424818496192546D+01 -.805937450105394D+02 0.754050780817610D+02
 0.231112313237751D+02 -.240908387152895D+00 0.230698019590081D+02 0.136206241493820D+01
 0.136929286527822D+03 0.110514281014938D+02 -.317080696645293D+02 -.964719773824772D+02
 0.371993456892983D+03 0.281057466013394D+02 -.935750895949670D+02 0.358933004314826D+03
0.300148345388D-05 0.000000000000D+00 0.000000000000D+00 0.422813264957D-07 0.000000000000D+00  7 2 -2 23 -11 11 23 21 0 0.31435913D-01 0.41610444D-01 0.41730650D+05 0.41730650D+05 0.41730650D+05 0.11542662D+01  1  2  2  2  7  2       -2 0.330403887575D-03 0.100000000000D+01
-.162749301651D-06 0.000000000000D+00 -.115264867716D-07 0.422813264957D-07 0.000000000000D+00  7 2 -2 23 -11 11 23 21 2 0.31435913D-01 0.41610444D-01 0.41730650D+05 0.41730650D+05 0.41730650D+05 0.11542662D+01  1  2  3  2  7  2       -2 -.238693341520D-04 0.100000000000D+01
0.193165835024D-06 0.000000000000D+00 0.000000000000D+00 0.422813264957D-07 0.000000000000D+00  7 2 -2 23 -11 11 23 21 2 0.31435913D-01 0.41610444D-01 0.41730650D+05 0.41730650D+05 0.41730650D+05 0.11542662D+01  1  2 15  2  7  2       -2 0.283303204141D-04 0.100000000000D+01
  </mgrwgt>
  </event>
  <event>
  8     66 0.55102590E-06 0.23793439E+03 0.75467711E-02 0.97958577E-01
        2 -1    0    0  501    0 0.00000000E+00 0.00000000E+00 0.79594459E+03 0.79594465E+03 0.32000000E+00 0.0000E+00 0.9000E+01
       -2 -1    0    0    0  501 0.00000000E+00 0.00000000E+00 -.17511367E+03 0.17511397E+03 0.32000000E+00 0.0000E+00 0.9000E+01
       25  2    1    2    0    0 -.65615694E+02 0.28940988E+03 0.41769155E+03 0.59400733E+03 0.30052452E+03 0.0000E+00 0.0000E+00
       23  2    1    2    0    0 0.65615694E+02 -.28940988E+03 0.20313937E+03 0.37705128E+03 0.11330740E+03 0.0000E+00 0.0000E+00
       23  1    3    3    0    0 -.20356944E+02 -.16635556E+02 0.13564635E+03 0.16554857E+03 0.91188000E+02 0.0000E+00 0.9000E+01
      -13  1    4    4    0    0 0.72739812E+02 -.29521424E+03 0.18288370E+03 0.35480838E+03 0.10565837E+00 0.0000E+00 0.9000E+01
       13  1    4    4    0    0 -.71241180E+01 0.58043546E+01 0.20255667E+02 0.22242905E+02 0.10565837E+00 0.0000E+00 0.9000E+01
       23  1    3    3    0    0 -.45258750E+02 0.30604544E+03 0.28204520E+03 0.42845876E+03 0.91188000E+02 0.0000E+00 0.9000E+01
#aMCatNLO 1  0  0  2  1 0.22122733D+02 0.00000000D+00  -5  7  0 0.00000000D+00 0.00000000D+00 0.00000000D+00 0.00000000D+00 0.00000000D+00
  <mgrwgt>
 0.2435163114D-04    7    2    0
 0.373337586228984D+03 0.000000000000000D+00 0.000000000000000D+00 0.373337586228984D+03
 0.373337586228984D+03 0.000000000000000D+00 0.000000000000000D+00 -.373337586228984D+03
 0.102513012352092D+03 -.203569496087784D+02 -.166355326800306D+02 0.387623530320011D+02
 0.309371584567820D+03 0.727398636123410D+02 -.295214522490046D+03 -.571670822295183D+02
 0.120849928279052D+02 -.712414752299789D+01 0.580454486287352D+01 0.784861979305732D+01
 0.322705582710150D+03 -.452587664805647D+02 0.306045510307203D+03 0.105561094044598D+02
 0.000000000000000D+00 -.000000000000000D+00 -.000000000000000D+00 -.000000000000000D+00
 0.373585033654555D+03 0.000000000000000D+00 0.000000000000000D+00 0.373585033654555D+03
 0.183674011386667D+04 0.000000000000000D+00 0.000000000000000D+00 -.183674011386667D+04
 0.102016895789644D+03 -.201062823073297D+02 -.136166472288702D+02 0.387623530320011D+02
 0.300968965474590D+03 0.734878834009083D+02 -.286205824331831D+03 -.571670822295183D+02
 0.122442188931718D+02 -.709433018281568D+01 0.616364688355239D+01 0.784861979305732D+01
 0.331772750146237D+03 -.444566524081324D+02 0.315705687320487D+03 0.105561094044598D+02
 0.146332231721758D+04 -.183061850263054D+01 -.220468626433381D+02 -.146315508021211D+04
0.965461383501D-06 0.000000000000D+00 0.000000000000D+00 0.189198347164D-08 0.000000000000D+00  7 2 -2 23 -13 13 23 21 0 0.12245304D+00 0.26940592D-01 0.13346904D+06 0.13346904D+06 0.13346904D+06 0.11115761D+01  1  2  2  2  7  2       -2 0.502189818339D-04 0.100000000000D+01
-.536061177122D-07 0.000000000000D+00 -.370762592447D-08 0.189198347164D-08 0.000000000000D+00  7 2 -2 23 -13 13 23 21 2 0.12245304D+00 0.26940592D-01 0.13346904D+06 0.13346904D+06 0.13346904D+06 0.11115761D+01  1  2  3  2  7  2       -2 -.344528951663D-05 0.100000000000D+01
0.616374678892D-07 0.000000000000D+00 0.000000000000D+00 0.189198347164D-08 0.000000000000D+00  7 2 -2 23 -13 13 23 21 2 0.12245304D+00 0.26940592D-01 0.13346904D+06 0.13346904D+06 0.13346904D+06 0.11115761D+01  1  2 15  2  7  2       -2 0.396146803785D-05 0.100000000000D+01
0.710359578624D-03 0.000000000000D+00 0.000000000000D+00 0.189198347164D-08 0.000000000000D+00  7 2 -2 23 -13 13 23 21 2 0.12245304D+00 0.13249859D+00 0.14174515D+06 0.14174515D+06 0.14174515D+06 0.11094971D+01  1  2 12  2  7  2       -2 0.160438064251D-02 0.100000000000D+01
-.709625442802D-03 0.000000000000D+00 -.399198897800D-06 0.189198347164D-08 0.000000000000D+00  7 2 -2 23 -13 13 23 21 2 0.12245304D+00 0.13255492D+00 0.13346904D+06 0.13346904D+06 0.13346904D+06 0.11115761D+01  1  2  5  2  7  2       -2 -.161148479626D-02 0.100000000000D+01
0.137772169564D-03 0.000000000000D+00 0.000000000000D+00 0.189198347164D-08 0.000000000000D+00  7 2 21 23 -13 13 23 2 2 0.12245304D+00 0.13249859D+00 0.14174515D+06 0.14174515D+06 0.14174515D+06 0.11094971D+01  1  2 12  4  7  2       -2 0.279088015812D-02 0.100000000000D+01
-.137680354960D-03 0.000000000000D+00 -.774462183570D-07 0.189198347164D-08 0.000000000000D+00  7 2 21 23 -13 13 23 2 2 0.12245304D+00 0.13255492D+00 0.13346904D+06 0.13346904D+06 0.13346904D+06 0.11115761D+01  1  2  5  4  7  2       -2 -.281015953359D-02 0.100000000000D+01
  </mgrwgt>
  </event>
  <event>
  8     66 0.55102590E-06 0.43271807E+03 0.75467711E-02 0.90983981E-01
        2 -1    0    0  501    0 0.00000000E+00 0.00000000E+00 0.40878510E+03 0.40878523E+03 0.32000000E+00 0.0000E+00 0.9000E+01
       -2 -1    0    0    0  501 0.00000000E+00 0.00000000E+00 -.47594783E+03 0.47594794E+03 0.32000000E+00 0.0000E+00 0.9000E+01
       25  2    1    2    0    0 -.37052459E+03 0.73267867E+02 0.32723059E+02 0.48365593E+03 0.30032583E+03 0.0000E+00 0.0000E+00
       23  2    1    2    0    0 0.37052459E+03 -.73267867E+02 -.99885793E+02 0.40107724E+03 0.90714533E+02 0.0000E+00 0.0000E+00
       23  1    3    3    0    0 -.14965596E+02 -.29560570E+02 -.19310826E+02 0.98923990E+02 0.91188000E+02 0.0000E+00 0.9000E+01
      -11  1    4    4    0    0 0.29646766E+03 -.92757559E+02 -.67257869E+02 0.31783747E+03 0.51099893E-03 0.0000E+00 0.9000E+01
       11  1    4    4    0    0 0.74056932E+02 0.19489692E+02 -.32627923E+02 0.83239766E+02 0.51099893E-03 0.0000E+00 0.9000E+01
       23  1    3    3    0    0 -.35555900E+03 0.10282844E+03 0.52033885E+02 0.38473194E+03 0.91188000E+02 0.0000E+00 0.9000E+01
#aMCatNLO 1  0  0  1  2 0.42983555D+03 0.00000000D+00  -5  7  0 0.00000000D+00 0.00000000D+00 0.00000000D+00 0.00000000D+00 0.00000000D+00
  <mgrwgt>
 0.2151188517D-03    3    2    0
 0.441090111510456D+03 0.000000000000000D+00 0.000000000000000D+00 0.441090111510456D+03
 0.441090111510456D+03 0.000000000000000D+00 0.000000000000000D+00 -.441090111510456D+03
 0.977400815038491D+02 -.149655962502543D+02 -.295605701947500D+02 -.118353625637196D+02
 0.313636743931627D+03 0.296467660898791D+03 -.927575590131143D+02 -.432546925912247D+02
 0.809966034583119D+02 0.740569323278909D+02 0.194896922763793D+02 -.263850798925691D+02
 0.389806794127124D+03 -.355558996976427D+03 0.102828436931485D+03 0.814751350475134D+02
 0.000000000000000D+00 0.000000000000000D+00 -.000000000000000D+00 -.000000000000000D+00
 0.561826670294176D+03 0.000000000000000D+00 0.000000000000000D+00 0.561826670294176D+03
 0.113972476521364D+04 0.000000000000000D+00 0.000000000000000D+00 -.113972476521364D+04
 0.945585728680904D+02 -.163632844533126D+02 0.147729304383136D+02 -.118353625637196D+02
 0.299160688627467D+03 0.292013652912361D+03 0.485198485331272D+02 -.432546925912247D+02
 0.984540316024012D+02 0.727526276437273D+02 0.608611458055346D+02 -.263850798925691D+02
 0.489152617999088D+03 -.361947555467948D+03 0.305468168245282D+03 0.814751350475134D+02
 0.720225524410771D+03 0.135445593651717D+02 -.429622093022258D+03 -.577898094919466D+03
0.130431833633D-04 0.000000000000D+00 0.000000000000D+00 0.466301984512D-06 0.000000000000D+00  7 2 -2 23 -11 11 23 21 0 0.62890033D-01 0.73222762D-01 0.18724493D+06 0.18724493D+06 0.18724493D+06 0.11000303D+01  1  2  2  1  7  1        2 0.212748152846D-03 0.100000000000D+01
-.724297771540D-06 0.000000000000D+00 -.500892584641D-07 0.466301984512D-06 0.000000000000D+00  7 2 -2 23 -11 11 23 21 2 0.62890033D-01 0.73222762D-01 0.18724493D+06 0.18724493D+06 0.18724493D+06 0.11000303D+01  1  2  3  1  7  1        2 -.142958047549D-04 0.100000000000D+01
0.844409367707D-06 0.000000000000D+00 0.000000000000D+00 0.466301984512D-06 0.000000000000D+00  7 2 -2 23 -11 11 23 21 2 0.62890033D-01 0.73222762D-01 0.18724493D+06 0.18724493D+06 0.18724493D+06 0.11000303D+01  1  2 15  1  7  1        2 0.166665036512D-04 0.100000000000D+01
  </mgrwgt>
  </event>
  <event>
  8     66 0.55102590E-06 0.23093001E+03 0.75467711E-02 0.93732791E-01
        2 -1    0    0  501    0 0.00000000E+00 0.00000000E+00 0.40863784E+03 0.40863797E+03 0.32000000E+00 0.0000E+00 0.9000E+01
       -2 -1    0    0    0  501 0.00000000E+00 0.00000000E+00 -.13832332E+03 0.13832369E+03 0.32000000E+00 0.0000E+00 0.9000E+01
       25  2    1    2    0    0 0.74531468E+02 0.95028919E+02 0.21038009E+03 0.38505880E+03 0.29904023E+03 0.0000E+00 0.0000E+00
       23  2    1    2    0    0 -.74531468E+02 -.95028919E+02 0.59934429E+02 0.16190287E+03 0.89637980E+02 0.0000E+00 0.0000E+00
       23  1    3    3    0    0 0.37351544E+02 -.76478993E+02 0.81573324E+02 0.14904239E+03 0.91188000E+02 0.0000E+00 0.9000E+01
      -13  1    4    4    0    0 -.75850736E+02 -.42770393E+02 0.66017685E+02 0.10927482E+03 0.10565837E+00 0.0000E+00 0.9000E+01
       13  1    4    4    0    0 0.13192686E+01 -.52258527E+02 -.60832555E+01 0.52628046E+02 0.10565837E+00 0.0000E+00 0.9000E+01
       23  1    3    3    0    0 0.37179924E+02 0.17150791E+03 0.12880677E+03 0.23601641E+03 0.91188000E+02 0.0000E+00 0.9000E+01
#aMCatNLO 1  0  0  2  2 0.44263167D+03 0.00000000D+00  -5  7  0 0.00000000D+00 0.00000000D+00 0.00000000D+00 0.00000000D+00 0.00000000D+00
  <mgrwgt>
 0.1129697406D-03    5    2    0
 0.237748354497739D+03 0.000000000000000D+00 0.000000000000000D+00 0.237748354497739D+03
 0.237748354497739D+03 0.000000000000000D+00 0.000000000000000D+00 -.237748354497739D+03
 0.125069248254466D+03 0.373515449081656D+02 -.764789884297809D+02 0.910450090163956D+01
 0.881680465083607D+02 -.758508442498135D+02 -.427703825902872D+02 0.138184016720982D+02
 0.639960270722204D+02 0.131937327743428D+01 -.522585411588436D+02 -.369160616958610D+02
 0.198263387160430D+03 0.371799260642136D+02 0.171507912178912D+03 0.139931591221232D+02
 0.000000000000000D+00 0.000000000000000D+00 0.000000000000000D+00 -.000000000000000D+00
 0.423046109682131D+03 0.000000000000000D+00 0.000000000000000D+00 0.423046109682131D+03
 0.823443966072008D+03 0.000000000000000D+00 0.000000000000000D+00 -.823443966072008D+03
 0.136150627579144D+03 -.654138586964283D+02 -.765498347481587D+02 0.910450090163956D+01
 0.191092152889042D+03 -.185713415044593D+03 -.428461216853068D+02 0.138184016720982D+02
 0.862376688526034D+02 -.577834279449295D+02 -.522992865432390D+02 -.369160616958610D+02
 0.236150148354711D+03 -.133720860738658D+03 0.171390093427385D+03 0.139931591221232D+02
 0.596859478078639D+03 0.442631562424608D+03 0.305149549319754D+00 -.400397856389877D+03
0.640248617192D-06 0.000000000000D+00 0.000000000000D+00 0.115902869116D-07 0.000000000000D+00  7 2 -2 23 -13 13 23 21 0 0.62867399D-01 0.21280549D-01 0.53328671D+05 0.53328671D+05 0.53328671D+05 0.11448414D+01  1  2  2  2  7  2       -2 0.106894143100D-03 0.100000000000D+01
-.355327503074D-07 0.000000000000D+00 -.245872327135D-08 0.115902869116D-07 0.000000000000D+00  7 2 -2 23 -13 13 23 21 2 0.62867399D-01 0.21280549D-01 0.53328671D+05 0.53328671D+05 0.53328671D+05 0.11448414D+01  1  2  3  2  7  2       -2 -.777543634968D-05 0.100000000000D+01
0.415546672474D-07 0.000000000000D+00 0.000000000000D+00 0.115902869116D-07 0.000000000000D+00  7 2 -2 23 -13 13 23 21 2 0.62867399D-01 0.21280549D-01 0.53328671D+05 0.53328671D+05 0.53328671D+05 0.11448414D+01  1  2 15  2  7  2       -2 0.909317931823D-05 0.100000000000D+01
0.270033811423D-06 0.000000000000D+00 -.290979721965D-06 0.115902869116D-07 0.000000000000D+00  7 2 -2 23 -13 13 23 21 2 0.62867399D-01 0.11899243D+00 0.53328671D+05 0.53328671D+05 0.53328671D+05 0.11448414D+01  1  2  5  2  7  2       -2 0.191332149512D-05 0.100000000000D+01
0.423419842512D-07 0.000000000000D+00 -.613240941567D-07 0.115902869116D-07 0.000000000000D+00  7 2 21 23 -13 13 23 2 2 0.62867399D-01 0.11899243D+00 0.53328671D+05 0.53328671D+05 0.53328671D+05 0.11448414D+01  1  2  5  4  7  2       -2 0.284453307634D-05 0.100000000000D+01
  </mgrwgt>
  </event>
  <event>
  8     66 0.55102590E-06 0.17758766E+03 0.75467711E-02 0.95441710E-01
        2 -1    0    0  501    0 0.00000000E+00 0.00000000E+00 0.62768514E+03 0.62768523E+03 0.32000000E+00 0.0000E+00 0.9000E+01
       -2 -1    0    0    0  501 0.00000000E+00 0.00000000E+00 -.23083870E+03 0.23083892E+03 0.32000000E+00 0.0000E+00 0.9000E+01
       25  2    1    2    0    0 -.27046529E+03 0.12026964E+03 0.10766669E+03 0.43482302E+03 0.29977105E+03 0.0000E+00 0.0000E+00
       23  2    1    2    0    0 0.27046529E+03 -.12026964E+03 0.28917975E+03 0.42370113E+03 0.91002526E+02 0.0000E+00 0.0000E+00
       23  1    3    3    0    0 -.29491860E+03 0.82831393E+02 0.77512492E+02 0.32887910E+03 0.91188000E+02 0.0000E+00 0.9000E+01
      -13  1    4    4    0    0 0.21727504E+03 -.52884853E+02 0.21580515E+03 0.31076861E+03 0.10565837E+00 0.0000E+00 0.9000E+01
       13  1    4    4    0    0 0.53190246E+02 -.67384787E+02 0.73374604E+02 0.11293253E+03 0.10565837E+00 0.0000E+00 0.9000E+01
       23  1    3    3    0    0 0.24453314E+02 0.37438247E+02 0.30154198E+02 0.10594392E+03 0.91188000E+02 0.0000E+00 0.9000E+01
#aMCatNLO 1  0  0  2  1 0.17982531D+03 0.00000000D+00  -5  7  0 0.00000000D+00 0.00000000D+00 0.00000000D+00 0.00000000D+00 0.00000000D+00
  <mgrwgt>
 0.1141301990D-03    9    2    0
 0.380649646701490D+03 0.000000000000000D+00 0.000000000000000D+00 0.380649646701490D+03
 0.380649646701490D+03 0.000000000000000D+00 0.000000000000000D+00 -.380649646701490D+03
 0.330474614504513D+03 -.294918604693793D+03 0.828313929438250D+02 -.840249750750243D+02
 0.237962915450347D+03 0.217275265559928D+03 -.528848333443297D+02 0.813695428746773D+02
 0.891064768118284D+02 0.531900253804852D+02 -.673848066888751D+02 0.238762065107336D+02
 0.103755286636292D+03 0.244533137533792D+02 0.374382470893799D+02 -.212207743103866D+02
 0.000000000000000D+00 0.000000000000000D+00 -.000000000000000D+00 -.000000000000000D+00
 0.439517709660592D+03 0.000000000000000D+00 0.000000000000000D+00 0.439517709660592D+03
 0.558178992743937D+03 0.000000000000000D+00 0.000000000000000D+00 -.558178992743937D+03
 0.370030602631672D+03 -.307979137333692D+03 0.163389259349552D+03 -.840249750750243D+02
 0.223967046852263D+03 0.208662836697992D+03 0.236958302143542D+00 0.813695428746773D+02
 0.738361642598217D+02 0.501520498878144D+02 -.486464572945488D+02 0.238762065107336D+02
 0.114415350887077D+03 0.203856427885708D+02 0.625277976613393D+02 -.212207743103866D+02
 0.215447537773695D+03 0.287786079593151D+02 -.177507558018486D+03 -.118661283083344D+03
0.231244766627D-05 0.000000000000D+00 0.000000000000D+00 0.278130038359D-06 0.000000000000D+00  7 2 -2 23 -13 13 23 21 0 0.96566969D-01 0.35513670D-01 0.13345982D+06 0.13345982D+06 0.13345982D+06 0.11115785D+01  1  2  2  2  7  2       -2 0.983111951186D-04 0.100000000000D+01
-.128205440977D-06 0.000000000000D+00 -.888040791991D-08 0.278130038359D-06 0.000000000000D+00  7 2 -2 23 -13 13 23 21 2 0.96566969D-01 0.35513670D-01 0.13345982D+06 0.13345982D+06 0.13345982D+06 0.11115785D+01  1  2  3  2  7  2       -2 -.673469234652D-05 0.100000000000D+01
0.148765950052D-06 0.000000000000D+00 0.000000000000D+00 0.278130038359D-06 0.000000000000D+00  7 2 -2 23 -13 13 23 21 2 0.96566969D-01 0.35513670D-01 0.13345982D+06 0.13345982D+06 0.13345982D+06 0.11115785D+01  1  2 15  2  7  2       -2 0.781474559586D-05 0.100000000000D+01
0.101022510076D-05 0.000000000000D+00 0.000000000000D+00 0.278130038359D-06 0.000000000000D+00  7 2 -2 23 -13 13 23 21 2 0.96566969D-01 0.53800477D-01 0.21676102D+06 0.21676102D+06 0.21676102D+06 0.10951511D+01  1  2 12  2  7  2       -2 0.230987203254D-04 0.100000000000D+01
-.154671269932D-05 0.000000000000D+00 0.000000000000D+00 0.278130038359D-06 0.000000000000D+00  7 2 -2 23 -13 13 23 21 2 0.96566969D-01 0.35513670D-01 0.13345982D+06 0.13345982D+06 0.13345982D+06 0.11115785D+01  1  2  4  2  7  2       -2 -.812495483735D-04 0.100000000000D+01
-.194670154609D-05 0.000000000000D+00 -.840651819688D-06 0.278130038359D-06 0.000000000000D+00  7 2 -2 23 -13 13 23 21 2 0.96566969D-01 0.58819001D-01 0.13345982D+06 0.13345982D+06 0.13345982D+06 0.11115785D+01  1  2  5  2  7  2       -2 -.386782914918D-04 0.100000000000D+01
0.218367372725D-05 0.000000000000D+00 0.743934926890D-06 0.278130038359D-06 0.000000000000D+00  7 2 -2 23 -13 13 23 21 2 0.96566969D-01 0.35513670D-01 0.13345982D+06 0.13345982D+06 0.13345982D+06 0.11115785D+01  1  2  6  2  7  2       -2 0.114709411910D-03 0.100000000000D+01
0.494410184541D-07 0.000000000000D+00 0.000000000000D+00 0.278130038359D-06 0.000000000000D+00  7 2 21 23 -13 13 23 2 2 0.96566969D-01 0.53800477D-01 0.21676102D+06 0.21676102D+06 0.21676102D+06 0.10951511D+01  1  2 12  4  7  2       -2 0.117441156642D-04 0.100000000000D+01
-.722478575613D-07 0.000000000000D+00 -.477401379334D-07 0.278130038359D-06 0.000000000000D+00  7 2 21 23 -13 13 23 2 2 0.96566969D-01 0.58819001D-01 0.13345982D+06 0.13345982D+06 0.13345982D+06 0.11115785D+01  1  2  5  4  7  2       -2 -.148854574101D-04 0.100000000000D+01
  </mgrwgt>
  </event>
  <event>
  8     66 0.55102590E-06 0.29124561E+03 0.75467711E-02 0.92981387E-01
        2 -1    0    0  501    0 0.00000000E+00 0.00000000E+00 0.20608359E+04 0.20608359E+04 0.32000000E+00 0.0000E+00 0.9000E+01
       -2 -1    0    0    0  501 0.00000000E+00 0.00000000E+00 -.19910623E+03 0.19910649E+03 0.32000000E+00 0.0000E+00 0.9000E+01
       25  2    1    2    0    0 0.41196548E+03 -.18473056E+03 0.27655361E+03 0.60918004E+03 0.30129303E+03 0.0000E+00 0.0000E+00
       23  2    1    2    0    0 -.41196548E+03 0.18473056E+03 0.15851760E+04 0.16507623E+04 0.91609707E+02 0.0000E+00 0.0000E+00
       23  1    3    3    0    0 0.97238547E+02 -.17754191E+01 0.17574213E+03 0.22058793E+03 0.91188000E+02 0.0000E+00 0.9000E+01
      -13  1    4    4    0    0 -.10667639E+03 0.59061230E+02 0.58275737E+03 0.59537740E+03 0.10565837E+00 0.0000E+00 0.9000E+01
       13  1    4    4    0    0 -.30528909E+03 0.12566933E+03 0.10024187E+04 0.10553849E+04 0.10565837E+00 0.0000E+00 0.9000E+01
       23  1    3    3    0    0 0.31472693E+03 -.18295514E+03 0.10081149E+03 0.38859212E+03 0.91188000E+02 0.0000E+00 0.9000E+01
#aMCatNLO 1  0  0  2  1 0.18825065D+03 0.00000000D+00  -5  7  0 0.00000000D+00 0.00000000D+00 0.00000000D+00 0.00000000D+00 0.00000000D+00
  <mgrwgt>
 0.4221000673D-03    9    2    0
 0.640566610724140D+03 0.000000000000000D+00 0.000000000000000D+00 0.640566610724140D+03
 0.640566610724140D+03 0.000000000000000D+00 0.000000000000000D+00 -.640566610724140D+03
 0.133734475693223D+03 0.972385469883694D+02 -.177541921165616D+01 -.105437901702788D+02
 0.203399301590807D+03 -.106676127291412D+03 0.590611414510204D+02 0.162798222730585D+03
 0.405014076243880D+03 -.305289354545049D+03 0.125669414478449D+03 0.234610336988366D+03
 0.538985367920369D+03 0.314726934848092D+03 -.182955136717813D+03 -.386864769548672D+03
 0.000000000000000D+00 0.000000000000000D+00 -.000000000000000D+00 -.000000000000000D+00
 0.740682174980946D+03 0.000000000000000D+00 0.000000000000000D+00 0.740682174980946D+03
 0.742467144721654D+03 0.000000000000000D+00 0.000000000000000D+00 -.742467144721654D+03
 0.123262990847557D+03 0.817817910550108D+02 0.889273351476710D+01 -.105437901702788D+02
 0.223413769484597D+03 -.132346207069156D+03 0.767784640735126D+02 0.162798222730585D+03
 0.456772021869192D+03 -.357120283326526D+03 0.161442785461154D+03 0.234610336988366D+03
 0.491441421532813D+03 0.252753345745629D+03 -.140181367344720D+03 -.386864769548672D+03
 0.188259115968441D+03 0.154931353595042D+03 -.106932615704713D+03 -.178496974070795D+01
0.385279717402D-04 0.000000000000D+00 0.000000000000D+00 0.457980532602D-06 0.000000000000D+00  7 2 -2 23 -13 13 23 21 0 0.31705169D+00 0.30631750D-01 0.23072813D+06 0.23072813D+06 0.23072813D+06 0.10930898D+01  1  2  2  2  7  2       -2 0.298654323192D-03 0.100000000000D+01
-.192480056389D-05 0.000000000000D+00 -.147957556130D-06 0.457980532602D-06 0.000000000000D+00  7 2 -2 23 -13 13 23 21 2 0.31705169D+00 0.30631750D-01 0.23072813D+06 0.23072813D+06 0.23072813D+06 0.10930898D+01  1  2  3  2  7  2       -2 -.178274845583D-04 0.100000000000D+01
0.242320781802D-05 0.000000000000D+00 0.000000000000D+00 0.457980532602D-06 0.000000000000D+00  7 2 -2 23 -13 13 23 21 2 0.31705169D+00 0.30631750D-01 0.23072813D+06 0.23072813D+06 0.23072813D+06 0.10930898D+01  1  2 15  2  7  2       -2 0.224437278166D-04 0.100000000000D+01
0.183177180917D-04 0.000000000000D+00 0.000000000000D+00 0.457980532602D-06 0.000000000000D+00  7 2 -2 23 -13 13 23 21 2 0.31705169D+00 0.37544947D-01 0.33585006D+06 0.33585006D+06 0.33585006D+06 0.10809434D+01  1  2 12  2  7  2       -2 0.112586727588D-03 0.100000000000D+01
-.182943628715D-04 0.000000000000D+00 0.000000000000D+00 0.457980532602D-06 0.000000000000D+00  7 2 -2 23 -13 13 23 21 2 0.31705169D+00 0.30631750D-01 0.23072813D+06 0.23072813D+06 0.23072813D+06 0.10930898D+01  1  2  4  2  7  2       -2 -.169442215320D-03 0.100000000000D+01
-.373633860968D-04 0.000000000000D+00 -.189963341527D-04 0.457980532602D-06 0.000000000000D+00  7 2 -2 23 -13 13 23 21 2 0.31705169D+00 0.42144615D-01 0.23072813D+06 0.23072813D+06 0.23072813D+06 0.10930898D+01  1  2  5  2  7  2       -2 -.192629369979D-03 0.100000000000D+01
0.421864359967D-04 0.000000000000D+00 0.180687546472D-04 0.457980532602D-06 0.000000000000D+00  7 2 -2 23 -13 13 23 21 2 0.31705169D+00 0.30631750D-01 0.23072813D+06 0.23072813D+06 0.23072813D+06 0.10930898D+01  1  2  6  2  7  2       -2 0.390730369895D-03 0.100000000000D+01
0.531208308990D-06 0.000000000000D+00 0.000000000000D+00 0.457980532602D-06 0.000000000000D+00  7 2 21 23 -13 13 23 2 2 0.31705169D+00 0.37544947D-01 0.33585006D+06 0.33585006D+06 0.33585006D+06 0.10809434D+01  1  2 12  4  7  2       -2 0.359023316958D-04 0.100000000000D+01
-.104179319714D-05 0.000000000000D+00 -.767689537282D-06 0.457980532602D-06 0.000000000000D+00  7 2 21 23 -13 13 23 2 2 0.31705169D+00 0.42144615D-01 0.23072813D+06 0.23072813D+06 0.23072813D+06 0.10930898D+01  1  2  5  4  7  2       -2 -.583183430565D-04 0.100000000000D+01
  </mgrwgt>
  </event>
  <event>
  8     66 0.55102590E-06 0.28667927E+03 0.75467711E-02 0.98416132E-01
        2 -1    0    0  501    0 0.00000000E+00 0.00000000E+00 0.19569773E+04 0.19569774E+04 0.32000000E+00 0.0000E+00 0.9000E+01
       -2 -1    0    0    0  501 0.00000000E+00 0.00000000E+00 -.56055254E+02 0.56056167E+02 0.32000000E+00 0.0000E+00 0.9000E+01
       25  2    1    2    0    0 0.94714644E+02 -.21525023E+03 0.84343325E+03 0.92588775E+03 0.30097335E+03 0.0000E+00 0.0000E+00
       23  2    1    2    0    0 -.94714644E+02 0.21525023E+03 0.10574888E+04 0.10871458E+04 0.91103173E+02 0.0000E+00 0.0000E+00
       23  1    3    3    0    0 0.49513081E+02 -.19599622E+03 0.76348416E+03 0.79504049E+03 0.91188000E+02 0.0000E+00 0.9000E+01
      -13  1    4    4    0    0 -.70237464E+02 0.21198022E+03 0.99903975E+03 0.10236940E+04 0.10565837E+00 0.0000E+00 0.9000E+01
       13  1    4    4    0    0 -.24477180E+02 0.32700032E+01 0.58449092E+02 0.63451815E+02 0.10565837E+00 0.0000E+00 0.9000E+01
       23  1    3    3    0    0 0.45201562E+02 -.19254010E+02 0.79949085E+02 0.13084726E+03 0.91188000E+02 0.0000E+00 0.9000E+01
#aMCatNLO 1  0  0  1  2 0.13729635D+03 0.00000000D+00  -5  7  0 0.00000000D+00 0.00000000D+00 0.00000000D+00 0.00000000D+00 0.00000000D+00
  <mgrwgt>
 0.2856048146D-03    4    2    0
 0.331209613010596D+03 0.000000000000000D+00 0.000000000000000D+00 0.331209613010596D+03
 0.331209613010596D+03 0.000000000000000D+00 0.000000000000000D+00 -.331209613010596D+03
 0.225113119950588D+03 0.495130814764658D+02 -.195996215703416D+03 0.386601037573941D+02
 0.244005242861337D+03 -.702375255423570D+02 0.211980502847630D+03 0.983336918963831D+02
 0.250947814845213D+02 -.244771184519340D+02 0.326972277343400D+01 -.446403886976312D+01
 0.168206081724745D+03 0.452015625178251D+02 -.192540099176477D+02 -.132529756784014D+03
 0.000000000000000D+00 -.000000000000000D+00 0.000000000000000D+00 -.000000000000000D+00
 0.379934522040732D+03 0.000000000000000D+00 0.000000000000000D+00 0.379934522040732D+03
 0.451299531990142D+03 0.000000000000000D+00 0.000000000000000D+00 -.451299531990142D+03
 0.270866974946747D+03 0.513621080618826D+02 -.246821791999225D+03 0.386601037573941D+02
 0.204754856558433D+03 -.685645363179140D+02 0.165993797118450D+03 0.983336918963831D+02
 0.247664412069606D+02 -.242912345277877D+02 -.183980763752494D+01 -.446403886976312D+01
 0.176109708502825D+03 0.464851806639149D+02 -.545377816780559D+02 -.132529756784014D+03
 0.154736072815908D+03 -.499151788009583D+01 0.137205584196356D+03 -.713650099494092D+02
0.518238358421D-05 0.000000000000D+00 0.000000000000D+00 0.132534181237D-06 0.000000000000D+00  7 2 -2 23 -13 13 23 21 0 0.30107351D+00 0.86239575D-02 0.82185001D+05 0.82185001D+05 0.82185001D+05 0.11287821D+01  1  2  2  1  7  1        2 0.373106150877D-03 0.100000000000D+01
-.280612312226D-06 0.000000000000D+00 -.199017175163D-07 0.132534181237D-06 0.000000000000D+00  7 2 -2 23 -13 13 23 21 2 0.30107351D+00 0.86239575D-02 0.82185001D+05 0.82185001D+05 0.82185001D+05 0.11287821D+01  1  2  3  1  7  1        2 -.257412597967D-04 0.100000000000D+01
0.336077040666D-06 0.000000000000D+00 0.000000000000D+00 0.132534181237D-06 0.000000000000D+00  7 2 -2 23 -13 13 23 21 2 0.30107351D+00 0.86239575D-02 0.82185001D+05 0.82185001D+05 0.82185001D+05 0.11287821D+01  1  2 15  1  7  1        2 0.308291761928D-04 0.100000000000D+01
-.100934004381D-05 0.000000000000D+00 0.000000000000D+00 0.132534181237D-06 0.000000000000D+00  7 2 -2 23 -13 13 23 21 2 0.30107351D+00 0.86239575D-02 0.82185001D+05 0.82185001D+05 0.82185001D+05 0.11287821D+01  1  2  4  1  7  1        2 -.925892527124D-04 0.100000000000D+01
  </mgrwgt>
  </event>
  <event>
  8     66 0.55102590E-06 0.20504649E+03 0.75467711E-02 0.97150957E-01
        2 -1    0    0  501    0 0.00000000E+00 0.00000000E+00 0.24388633E+04 0.24388633E+04 0.32000000E+00 0.0000E+00 0.9000E+01
       -2 -1    0    0    0  501 0.00000000E+00 0.00000000E+00 -.59425936E+02 0.59426797E+02 0.32000000E+00 0.0000E+00 0.9000E+01
       25  2    1    2    0    0 -.14334260E+03 0.23941064E+02 0.44279721E+03 0.55455280E+03 0.30056474E+03 0.0000E+00 0.0000E+00
       23  2    1    2    0    0 0.14334260E+03 -.23941064E+02 0.19366401E+04 0.19437373E+04 0.80121117E+02 0.0000E+00 0.0000E+00
       23  1    3    3    0    0 -.29478379E+02 0.23673526E+02 0.11655746E+02 0.99400797E+02 0.91188000E+02 0.0000E+00 0.9000E+01
      -13  1    4    4    0    0 -.35029729E+01 -.18208277E+02 0.17570992E+03 0.17668560E+03 0.10565837E+00 0.0000E+00 0.9000E+01
       13  1    4    4    0    0 0.14684558E+03 -.57327866E+01 0.17609302E+04 0.17670517E+04 0.10565837E+00 0.0000E+00 0.9000E+01
       23  1    3    3    0    0 -.11386422E+03 0.26753799E+00 0.43114146E+03 0.45515200E+03 0.91188000E+02 0.0000E+00 0.9000E+01
#aMCatNLO 1  0  0  2  2 0.28998490D+03 0.00000000D+00  -5  7  0 0.00000000D+00 0.00000000D+00 0.00000000D+00 0.00000000D+00 0.00000000D+00
  <mgrwgt>
 0.3458576206D-02    3    2    0
 0.380700451048506D+03 0.000000000000000D+00 0.000000000000000D+00 0.380700451048506D+03
 0.380700451048506D+03 0.000000000000000D+00 0.000000000000000D+00 -.380700451048506D+03
 0.289726355579477D+03 -.294783797691615D+02 0.236735260539060D+02 -.272390710310990D+03
 0.306287741225582D+02 -.350323407065023D+01 -.182082988909699D+02 0.243784127209717D+02
 0.294962883730092D+03 0.146845837870332D+03 -.573276518761356D+01 0.255747019692969D+03
 0.146082888664884D+03 -.113864224030520D+03 0.267538024677496D+00 -.773472210295111D+01
 0.000000000000000D+00 -.000000000000000D+00 -.000000000000000D+00 0.000000000000000D+00
 0.618416858719358D+03 0.000000000000000D+00 0.000000000000000D+00 0.618416858719358D+03
 0.506991672193647D+03 0.000000000000000D+00 0.000000000000000D+00 -.506991672193647D+03
 0.317701638845210D+03 -.167042927014157D+02 0.134697243930795D+03 -.272390710310990D+03
 0.257331502340381D+02 -.231795427511039D+01 -.790664923668951D+01 0.243784127209717D+02
 0.319854858782690D+03 0.159775329836029D+03 0.106641626867029D+03 0.255747019692969D+03
 0.151463427399486D+03 -.107606885575625D+03 0.546520882153982D+02 -.773472210295111D+01
 0.310655455651582D+03 -.331461972838773D+02 -.288084309776532D+03 0.111425186525710D+03
0.904682484109D-04 0.000000000000D+00 0.000000000000D+00 0.809583316882D-08 0.000000000000D+00  7 2 -2 23 -13 13 23 21 0 0.37520980D+00 0.91425195D-02 0.42044062D+05 0.42044062D+05 0.42044062D+05 0.11539751D+01  1  2  2  2  7  2       -2 0.331542655637D-02 0.100000000000D+01
-.268624857448D-05 0.000000000000D+00 -.347421894735D-06 0.809583316882D-08 0.000000000000D+00  7 2 -2 23 -13 13 23 21 2 0.37520980D+00 0.91425195D-02 0.42044062D+05 0.42044062D+05 0.42044062D+05 0.11539751D+01  1  2  3  2  7  2       -2 -.131093851843D-03 0.100000000000D+01
0.561953291634D-05 0.000000000000D+00 0.000000000000D+00 0.809583316882D-08 0.000000000000D+00  7 2 -2 23 -13 13 23 21 2 0.37520980D+00 0.91425195D-02 0.42044062D+05 0.42044062D+05 0.42044062D+05 0.11539751D+01  1  2 15  2  7  2       -2 0.274243501722D-03 0.100000000000D+01
  </mgrwgt>
  </event>
  <event>
  9     66 -.55102590E-06 0.33313800E+03 0.75467711E-02 0.99080274E-01
        2 -1    0    0  501    0 0.00000000E+00 0.00000000E+00 0.18977862E+04 0.18977863E+04 0.32000000E+00 0.0000E+00 0.9000E+01
       -2 -1    0    0    0  502 0.00000000E+00 0.00000000E+00 -.12546270E+03 0.12546311E+03 0.32000000E+00 0.0000E+00 0.9000E+01
       25  2    1    2    0    0 0.22831552E+02 -.28234531E+03 0.16418366E+04 0.16928385E+04 0.29972394E+03 0.0000E+00 0.0000E+00
       23  2    1    2    0    0 -.21849146E+02 0.26001546E+03 0.10343108E+03 0.29530865E+03 0.91781186E+02 0.0000E+00 0.0000E+00
       23  1    3    3    0    0 -.83982540E+02 -.53284586E+02 0.39602775E+03 0.41838444E+03 0.91188000E+02 0.0000E+00 0.9000E+01
      -11  1    4    4    0    0 -.15833979E+02 0.95215962E+02 -.70989380E+01 0.96784241E+02 0.51099893E-03 0.0000E+00 0.9000E+01
       11  1    4    4    0    0 -.60151670E+01 0.16479950E+03 0.11053001E+03 0.19852441E+03 0.51099893E-03 0.0000E+00 0.9000E+01
       23  1    3    3    0    0 0.10681409E+03 -.22906072E+03 0.12458089E+04 0.12744540E+04 0.91188000E+02 0.0000E+00 0.9000E+01
       21  1    1    2  501  502 -.98240668E+00 0.22329847E+02 0.27055852E+02 0.35102262E+02 0.75000000E+00 0.0000E+00 0.9000E+01
#aMCatNLO 2  0  0  2  1 0.22351447D+02 0.00000000D+00  -5  7  0 0.00000000D+00 0.00000000D+00 0.00000000D+00 0.00000000D+00 0.00000000D+00
  <mgrwgt>
 -.5641430778D-04    3    2    0
 0.475991083212300D+03 0.000000000000000D+00 0.000000000000000D+00 0.475991083212300D+03
 0.475991083212300D+03 0.000000000000000D+00 0.000000000000000D+00 -.475991083212300D+03
 0.146565832655744D+03 -.841343481810492D+02 -.498340247243319D+02 0.600356010546771D+02
 0.217391225098729D+03 -.160570952284918D+02 0.100287346761963D+03 -.192207082393431D+03
 0.215841360243251D+03 -.623584814475117D+01 0.169815523676650D+03 -.133083789050348D+03
 0.372183748426875D+03 0.106427291554292D+03 -.220268845714281D+03 0.265255270389102D+03
 0.000000000000000D+00 -.000000000000000D+00 0.000000000000000D+00 -.000000000000000D+00
 0.484043381059960D+03 0.000000000000000D+00 0.000000000000000D+00 0.484043381059960D+03
 0.491889830892517D+03 0.000000000000000D+00 0.000000000000000D+00 -.491889830892517D+03
 0.147688316469534D+03 -.839825399733668D+02 -.532845856062586D+02 0.600356010546771D+02
 0.215082209578149D+03 -.158339785207623D+02 0.952159623121446D+02 -.192207082393431D+03
 0.211911188606896D+03 -.601516698200265D+01 0.164799498527661D+03 -.133083789050348D+03
 0.377562808763630D+03 0.106814092153032D+03 -.229060722224064D+03 0.265255270389102D+03
 0.236886885342681D+02 -.982406676899792D+00 0.223298469905176D+02 -.784644983255605D+01
-.102161028884D-04 0.000000000000D+00 0.000000000000D+00 0.113443831777D-05 0.000000000000D+00  7 2 -2 23 -11 11 23 21 2 0.28710663D+00 0.19455722D-01 0.11813236D+06 0.11813236D+06 0.11813236D+06 0.11158313D+01  1  2 13  2  7  2       -2 -.280586338639D-03 0.100000000000D+01
-.107609726867D-04 0.000000000000D+00 0.000000000000D+00 0.113443831777D-05 0.000000000000D+00  7 2 -2 23 -11 11 23 21 2 0.28710663D+00 0.18677885D-01 0.11098093D+06 0.11098093D+06 0.11098093D+06 0.11180277D+01  1  2  8  2  7  2       -2 -.317957228022D-03 0.100000000000D+01
0.202567163188D-04 0.000000000000D+00 0.000000000000D+00 0.113443831777D-05 0.150886090910D-07  7 2 -2 23 -11 11 23 21 2 0.29196359D+00 0.19301752D-01 0.11813236D+06 0.11813236D+06 0.11813236D+06 0.11158313D+01  1  2  1  2  7  2       -2 0.542129258880D-03 0.100000000000D+01
  </mgrwgt>
  </event>
  <event>
  8     66 0.55102590E-06 0.16102574E+03 0.75467711E-02 0.98353495E-01
        2 -1    0    0  501    0 0.00000000E+00 0.00000000E+00 0.11149323E+03 0.11149369E+03 0.32000000E+00 0.0000E+00 0.9000E+01
       -2 -1    0    0    0  501 0.00000000E+00 0.00000000E+00 -.40141120E+03 0.40141133E+03 0.32000000E+00 0.0000E+00 0.9000E+01
       25  2    1    2    0    0 -.56041687E+02 0.31976850E+02 -.17560320E+03 0.35351390E+03 0.29995400E+03 0.0000E+00 0.0000E+00
       23  2    1    2    0    0 0.56041687E+02 -.31976850E+02 -.11431478E+03 0.15939112E+03 0.90412781E+02 0.0000E+00 0.0000E+00
       23  1    3    3    0    0 -.67230826E+02 -.58788917E+02 -.18417853E+03 0.22408280E+03 0.91188000E+02 0.0000E+00 0.9000E+01
      -13  1    4    4    0    0 0.22621493E+02 -.74651311E+01 -.11549751E+03 0.11792856E+03 0.10565837E+00 0.0000E+00 0.9000E+01
       13  1    4    4    0    0 0.33420194E+02 -.24511718E+02 0.11827294E+01 0.41462558E+02 0.10565837E+00 0.0000E+00 0.9000E+01
       23  1    3    3    0    0 0.11189139E+02 0.90765766E+02 0.85753266E+01 0.12943110E+03 0.91188000E+02 0.0000E+00 0.9000E+01
#aMCatNLO 1  0  0  2  1 0.29186634D+03 0.00000000D+00  -5  7  0 0.00000000D+00 0.00000000D+00 0.00000000D+00 0.00000000D+00 0.00000000D+00
  <mgrwgt>
 0.5889839975D-03    5    2    0
 0.211553257279645D+03 0.000000000000000D+00 0.000000000000000D+00 0.211553257279645D+03
 0.211553257279645D+03 0.000000000000000D+00 0.000000000000000D+00 -.211553257279645D+03
 0.145439798765987D+03 -.672308724577649D+02 -.587888903795537D+02 -.697234528519601D+02
 0.638169168027861D+02 0.226215448828155D+02 -.746515388693484D+01 -.592041895035551D+02
 0.510727908841746D+02 0.334202396481094D+02 -.245117513612324D+02 0.298444567008127D+02
 0.162777008106342D+03 0.111890879268400D+02 0.907657956277209D+02 0.990831856547024D+02
 0.000000000000000D+00 -.000000000000000D+00 0.000000000000000D+00 -.000000000000000D+00
 0.287226408420970D+03 0.000000000000000D+00 0.000000000000000D+00 0.287226408420970D+03
 0.961673130519730D+03 0.000000000000000D+00 0.000000000000000D+00 -.961673130519730D+03
 0.177378390344796D+03 -.190139765438352D+01 -.135214151724852D+03 -.697234528519601D+02
 0.915815307433961D+02 0.540698935381911D+02 -.442548000933166D+02 -.592041895035551D+02
 0.898780245340115D+02 0.619447870713601D+02 -.578810077059267D+02 0.298444567008127D+02
 0.155170891777168D+03 0.755329508654290D+02 0.154935459142855D+02 0.990831856547024D+02
 0.734890701541328D+03 -.189646233820597D+03 0.221856413609810D+03 -.674446722098760D+03
0.574143559643D-05 0.000000000000D+00 0.000000000000D+00 0.149986858397D-06 0.000000000000D+00  7 2 -2 23 -13 13 23 21 0 0.17152849D-01 0.61755615D-01 0.25929289D+05 0.25929289D+05 0.25929289D+05 0.11732578D+01  1  2  2  2  7  2       -2 0.586469871839D-03 0.100000000000D+01
-.290083371505D-06 0.000000000000D+00 -.220486244450D-07 0.149986858397D-06 0.000000000000D+00  7 2 -2 23 -13 13 23 21 2 0.17152849D-01 0.61755615D-01 0.25929289D+05 0.25929289D+05 0.25929289D+05 0.11732578D+01  1  2  3  2  7  2       -2 -.407882401329D-04 0.100000000000D+01
0.371787623174D-06 0.000000000000D+00 0.000000000000D+00 0.149986858397D-06 0.000000000000D+00  7 2 -2 23 -13 13 23 21 2 0.17152849D-01 0.61755615D-01 0.25929289D+05 0.25929289D+05 0.25929289D+05 0.11732578D+01  1  2 15  2  7  2       -2 0.522765671600D-04 0.100000000000D+01
-.216466609742D-05 0.000000000000D+00 -.235150127692D-05 0.149986858397D-06 0.000000000000D+00  7 2 -2 23 -13 13 23 21 2 0.17152849D-01 0.31622345D+00 0.25929289D+05 0.25929289D+05 0.25929289D+05 0.11732578D+01  1  2  5  2  7  2       -2 -.312161558341D-05 0.100000000000D+01
-.508975018135D-06 0.000000000000D+00 -.468695730073D-06 0.149986858397D-06 0.000000000000D+00  7 2 21 23 -13 13 23 2 2 0.17152849D-01 0.31622345D+00 0.25929289D+05 0.25929289D+05 0.25929289D+05 0.11732578D+01  1  2  5  4  7  2       -2 -.585258573302D-05 0.100000000000D+01
  </mgrwgt>
  </event>
  <event>
  8     66 0.55102590E-06 0.13575023E+03 0.75467711E-02 0.98248960E-01
        2 -1    0    0  501    0 0.00000000E+00 0.00000000E+00 0.41275441E+03 0.41275453E+03 0.32000000E+00 0.0000E+00 0.9000E+01
       -2 -1    0    0    0  501 0.00000000E+00 0.00000000E+00 -.35348944E+03 0.35348959E+03 0.32000000E+00 0.0000E+00 0.9000E+01
       25  2    1    2    0    0 -.13713890E+02 -.31479803E+03 0.17477985E+02 0.43540570E+03 0.29997795E+03 0.0000E+00 0.0000E+00
       23  2    1    2    0    0 0.13713890E+02 0.31479803E+03 0.41786982E+02 0.33083843E+03 0.91771672E+02 0.0000E+00 0.0000E+00
       23  1    3    3    0    0 -.68759863E+02 -.26341527E+03 0.84744354E+02 0.29935327E+03 0.91188000E+02 0.0000E+00 0.9000E+01
      -11  1    4    4    0    0 0.28367785E+02 0.13636908E+03 0.58407888E+02 0.15103887E+03 0.51099893E-03 0.0000E+00 0.9000E+01
       11  1    4    4    0    0 -.14653895E+02 0.17842895E+03 -.16620906E+02 0.17979956E+03 0.51099893E-03 0.0000E+00 0.9000E+01
       23  1    3    3    0    0 0.55045973E+02 -.51382761E+02 -.67266369E+02 0.13605243E+03 0.91188000E+02 0.0000E+00 0.9000E+01
#aMCatNLO 1  0  0  1  2 0.11375696D+02 0.00000000D+00  -5  7  0 0.00000000D+00 0.00000000D+00 0.00000000D+00 0.00000000D+00 0.00000000D+00
  <mgrwgt>
 0.1754342934D-03    6    2    0
 0.381974384101905D+03 0.000000000000000D+00 0.000000000000000D+00 0.381974384101905D+03
 0.381974384101905D+03 0.000000000000000D+00 0.000000000000000D+00 -.381974384101905D+03
 0.293678480262028D+03 -.687598626484388D+02 -.263415271367445D+03 0.617760028166093D+02
 0.146961561744077D+03 0.283677854149680D+02 0.136369084790830D+03 0.468662148484384D+02
 0.181629183644235D+03 -.146538953083655D+02 0.178428947854826D+03 -.306191814224723D+02
 0.141679542553470D+03 0.550459725418363D+02 -.513827612782122D+02 -.780230362425753D+02
 0.000000000000000D+00 -.000000000000000D+00 -.000000000000000D+00 -.000000000000000D+00
 0.386317866779238D+03 0.000000000000000D+00 0.000000000000000D+00 0.386317866779238D+03
 0.389538371439550D+03 0.000000000000000D+00 0.000000000000000D+00 -.389538371439550D+03
 0.291672634670255D+03 -.645616465681443D+02 -.262246437039477D+03 0.617760028166093D+02
 0.147929427662769D+03 0.304827828277686D+02 0.136957925749076D+03 0.468662148484384D+02
 0.182151724489150D+03 -.120448102322973D+02 0.179155348817324D+03 -.306191814224723D+02
 0.142279672452880D+03 0.570825658141073D+02 -.508157489846068D+02 -.780230362425753D+02
 0.118227789437341D+02 -.109588918414344D+02 -.305108854231630D+01 -.322050466031221D+01
0.393434819102D-05 0.000000000000D+00 0.000000000000D+00 0.610707437919D-06 0.000000000000D+00  7 2 -2 23 -11 11 23 21 0 0.63500699D-01 0.54383012D-01 0.13093035D+06 0.13093035D+06 0.13093035D+06 0.11122422D+01  1  2  2  1  7  1        2 0.119020748384D-03 0.100000000000D+01
-.217795843019D-06 0.000000000000D+00 -.151089329912D-07 0.610707437919D-06 0.000000000000D+00  7 2 -2 23 -11 11 23 21 2 0.63500699D-01 0.54383012D-01 0.13093035D+06 0.13093035D+06 0.13093035D+06 0.11122422D+01  1  2  3  1  7  1        2 -.815076220350D-05 0.100000000000D+01
0.251932083420D-06 0.000000000000D+00 0.000000000000D+00 0.610707437919D-06 0.000000000000D+00  7 2 -2 23 -11 11 23 21 2 0.63500699D-01 0.54383012D-01 0.13093035D+06 0.13093035D+06 0.13093035D+06 0.11122422D+01  1  2 15  1  7  1        2 0.942827225222D-05 0.100000000000D+01
0.325073618053D-05 0.000000000000D+00 0.000000000000D+00 0.610707437919D-06 0.000000000000D+00  7 2 -2 23 -11 11 23 21 2 0.64841870D-01 0.54383012D-01 0.13515874D+06 0.13515874D+06 0.13515874D+06 0.11111403D+01  1  2 12  1  7  1        2 0.118603063563D-03 0.100000000000D+01
-.187443100603D-05 0.000000000000D+00 0.000000000000D+00 0.610707437919D-06 0.000000000000D+00  7 2 -2 23 -11 11 23 21 2 0.63500699D-01 0.54383012D-01 0.13093035D+06 0.13093035D+06 0.13093035D+06 0.11122422D+01  1  2  4  1  7  1        2 -.701484527216D-04 0.100000000000D+01
0.768176937986D-07 0.000000000000D+00 0.000000000000D+00 0.610707437919D-06 0.000000000000D+00  7 21 -2 23 -11 11 23 -2 2 0.64841870D-01 0.54383012D-01 0.13515874D+06 0.13515874D+06 0.13515874D+06 0.11111403D+01  1  2 12  3  7  1        2 0.668142413063D-05 0.100000000000D+01
  </mgrwgt>
  </event>
  <event>
  8     66 0.55102590E-06 0.38959438E+03 0.75467711E-02 0.81841516E-01
        2 -1    0    0  501    0 0.00000000E+00 0.00000000E+00 0.14742681E+03 0.14742715E+03 0.32000000E+00 0.0000E+00 0.9000E+01
       -2 -1    0    0    0  501 0.00000000E+00 0.00000000E+00 -.13890544E+04 0.13890545E+04 0.32000000E+00 0.0000E+00 0.9000E+01
       25  2    1    2    0    0 0.35711314E+03 -.41171575E+02 -.96832946E+03 0.10757878E+04 0.30072011E+03 0.0000E+00 0.0000E+00
       23  2    1    2    0    0 -.35711314E+03 0.41171575E+02 -.27329817E+03 0.46069382E+03 0.91225042E+02 0.0000E+00 0.0000E+00
       23  1    3    3    0    0 0.15920721E+03 0.21777616E+02 -.70228347E+03 0.72618078E+03 0.91188000E+02 0.0000E+00 0.9000E+01
      -13  1    4    4    0    0 -.14206348E+03 -.21353612E+02 -.13707093E+03 0.19856097E+03 0.10565837E+00 0.0000E+00 0.9000E+01
       13  1    4    4    0    0 -.21504966E+03 0.62525187E+02 -.13622725E+03 0.26213285E+03 0.10565837E+00 0.0000E+00 0.9000E+01
       23  1    3    3    0    0 0.19790593E+03 -.62949191E+02 -.26604599E+03 0.34960703E+03 0.91188000E+02 0.0000E+00 0.9000E+01
#aMCatNLO 1  0  0  2  2 0.17695289D+04 0.00000000D+00  -5  7  0 0.00000000D+00 0.00000000D+00 0.00000000D+00 0.00000000D+00 0.00000000D+00
  <mgrwgt>
 0.1517949532D-03    3    2    0
 0.452530833682057D+03 0.000000000000000D+00 0.000000000000000D+00 0.452530833682057D+03
 0.452530833682057D+03 0.000000000000000D+00 0.000000000000000D+00 -.452530833682057D+03
 0.269361606272220D+03 0.159207206599189D+03 0.217776157650750D+02 -.196008225358076D+03
 0.149044099118991D+03 -.142063381014105D+03 -.213537243692772D+02 0.397008527942899D+02
 0.258124866043810D+03 -.215049758281456D+03 0.625252996108968D+02 0.128345762850941D+03
 0.228531095929092D+03 0.197905932696373D+03 -.629491910066946D+02 0.279616097128453D+02
 0.000000000000000D+00 0.000000000000000D+00 -.000000000000000D+00 0.000000000000000D+00
 0.468494494176482D+04 0.000000000000000D+00 0.000000000000000D+00 0.468494494176482D+04
 0.120585276887582D+04 0.000000000000000D+00 0.000000000000000D+00 -.120585276887582D+04
 0.410869132753811D+03 -.124010484266841D+03 0.326650223158886D+03 -.196008225358076D+03
 0.485761521809296D+03 -.406368082041745D+03 0.263159799847169D+03 0.397008527942899D+02
 0.942580837801189D+03 -.714969972618666D+03 0.600669575725177D+03 0.128345762850941D+03
 0.148342069326149D+03 0.409927832468348D+02 0.105961588757004D+03 0.279616097128453D+02
 0.390324414895019D+04 0.120435575568042D+04 -.129644118748824D+04 0.347909217288900D+04
0.480386618881D-04 0.000000000000D+00 0.000000000000D+00 0.306364295191D-06 0.000000000000D+00  7 2 -2 23 -13 13 23 21 0 0.22681077D-01 0.21370071D+00 0.15178378D+06 0.15178378D+06 0.15178378D+06 0.11071470D+01  1  2  2  2  7  2       -2 0.150162074014D-03 0.100000000000D+01
-.259604794903D-05 0.000000000000D+00 -.184481110520D-06 0.306364295191D-06 0.000000000000D+00  7 2 -2 23 -13 13 23 21 2 0.22681077D-01 0.21370071D+00 0.15178378D+06 0.15178378D+06 0.15178378D+06 0.11071470D+01  1  2  3  2  7  2       -2 -.994701146708D-05 0.100000000000D+01
0.302220937639D-05 0.000000000000D+00 0.000000000000D+00 0.306364295191D-06 0.000000000000D+00  7 2 -2 23 -13 13 23 21 2 0.22681077D-01 0.21370071D+00 0.15178378D+06 0.15178378D+06 0.15178378D+06 0.11071470D+01  1  2 15  2  7  2       -2 0.115798906311D-04 0.100000000000D+01
  </mgrwgt>
  </event>
  <event>
  8     66 0.55102590E-06 0.19548798E+03 0.75467711E-02 0.99933743E-01
        2 -1    0    0  501    0 0.00000000E+00 0.00000000E+00 0.38944040E+04 0.38944040E+04 0.32000000E+00 0.0000E+00 0.9000E+01
       -2 -1    0    0    0  501 0.00000000E+00 0.00000000E+00 -.55070999E+02 0.55071928E+02 0.32000000E+00 0.0000E+00 0.9000E+01
       25  2    1    2    0    0 -.14248802E+03 -.11686576E+03 0.54465990E+03 0.64834848E+03 0.29956786E+03 0.0000E+00 0.0000E+00
       23  2    1    2    0    0 0.14248802E+03 0.11686576E+03 0.32946731E+04 0.33011275E+04 0.92796747E+02 0.0000E+00 0.0000E+00
       23  1    3    3    0    0 -.12731404E+03 0.11953932E+02 0.41434314E+03 0.44311088E+03 0.91188000E+02 0.0000E+00 0.9000E+01
      -11  1    4    4    0    0 0.12857307E+03 0.12202352E+03 0.32261396E+04 0.32310056E+04 0.51099893E-03 0.0000E+00 0.9000E+01
       11  1    4    4    0    0 0.13914949E+02 -.51577610E+01 0.68533557E+02 0.70121870E+02 0.51099893E-03 0.0000E+00 0.9000E+01
       23  1    3    3    0    0 -.15173981E+02 -.12881970E+03 0.13031676E+03 0.20523760E+03 0.91188000E+02 0.0000E+00 0.9000E+01
#aMCatNLO 1  0  0  1  2 0.13759096D+03 0.00000000D+00  -5  7  0 0.00000000D+00 0.00000000D+00 0.00000000D+00 0.00000000D+00 0.00000000D+00
  <mgrwgt>
 0.4186759057D-03    9    2    0
 0.463109685203714D+03 0.000000000000000D+00 0.000000000000000D+00 0.463109685203714D+03
 0.463109685203714D+03 0.000000000000000D+00 0.000000000000000D+00 -.463109685203714D+03
 0.171940328095112D+03 -.127314040458255D+03 0.119539321973058D+02 -.699747360743198D+02
 0.404391062121370D+03 0.128573072430006D+03 0.122023524851107D+03 0.363471258220604D+03
 0.149224840549139D+02 0.139149488294432D+02 -.515776096889631D+01 0.156596016260512D+01
 0.334965496136032D+03 -.151739808011943D+02 -.128819696079517D+03 -.295062482308890D+03
 0.000000000000000D+00 0.000000000000000D+00 -.000000000000000D+00 0.000000000000000D+00
 0.592217276282370D+03 0.000000000000000D+00 0.000000000000000D+00 0.592217276282370D+03
 0.506351620500269D+03 0.000000000000000D+00 0.000000000000000D+00 -.506351620500269D+03
 0.192812106068057D+03 -.154210192925463D+03 0.135650142506578D+02 -.699747360743198D+02
 0.390846997929451D+03 0.699337266503826D+02 0.125536027158679D+03 0.363471258220604D+03
 0.129770399705798D+02 0.118576908602846D+02 -.503453102374828D+01 0.156596016260512D+01
 0.339747108042155D+03 -.649260081321629D+02 -.125839544979893D+03 -.295062482308890D+03
 0.162185644772396D+03 0.137344783546958D+03 -.822696540569546D+01 0.858656557821015D+02
0.686831953021D-04 0.000000000000D+00 0.000000000000D+00 0.520115221507D-06 0.000000000000D+00  7 2 -2 23 -11 11 23 21 0 0.59913915D+00 0.84725339D-02 0.64443006D+05 0.64443006D+05 0.64443006D+05 0.11377261D+01  1  2  2  1  7  1        2 0.315585804172D-03 0.100000000000D+01
-.213889472890D-05 0.000000000000D+00 -.263761554661D-06 0.520115221507D-06 0.000000000000D+00  7 2 -2 23 -11 11 23 21 2 0.59913915D+00 0.84725339D-02 0.64443006D+05 0.64443006D+05 0.64443006D+05 0.11377261D+01  1  2  3  1  7  1        2 -.127213091119D-04 0.100000000000D+01
0.424699443649D-05 0.000000000000D+00 0.000000000000D+00 0.520115221507D-06 0.000000000000D+00  7 2 -2 23 -11 11 23 21 2 0.59913915D+00 0.84725339D-02 0.64443006D+05 0.64443006D+05 0.64443006D+05 0.11377261D+01  1  2 15  1  7  1        2 0.252594614841D-04 0.100000000000D+01
0.187874583463D-04 0.000000000000D+00 0.000000000000D+00 0.520115221507D-06 0.000000000000D+00  7 2 -2 23 -11 11 23 21 2 0.78820378D+00 0.84725339D-02 0.10312562D+06 0.10312562D+06 0.10312562D+06 0.11206268D+01  1  2 12  1  7  1        2 0.587779080451D-05 0.100000000000D+01
-.355729441792D-04 0.000000000000D+00 0.000000000000D+00 0.520115221507D-06 0.000000000000D+00  7 2 -2 23 -11 11 23 21 2 0.59913915D+00 0.84725339D-02 0.64443006D+05 0.64443006D+05 0.64443006D+05 0.11377261D+01  1  2  4  1  7  1        2 -.211573955842D-03 0.100000000000D+01
-.466114328374D-04 0.000000000000D+00 -.173888905816D-04 0.520115221507D-06 0.000000000000D+00  7 2 -2 23 -11 11 23 21 2 0.77405316D+00 0.84725339D-02 0.64443006D+05 0.64443006D+05 0.64443006D+05 0.11377261D+01  1  2  5  1  7  1        2 -.209371203457D-04 0.100000000000D+01
0.533303202768D-04 0.000000000000D+00 0.189307218621D-04 0.520115221507D-06 0.000000000000D+00  7 2 -2 23 -11 11 23 21 2 0.59913915D+00 0.84725339D-02 0.64443006D+05 0.64443006D+05 0.64443006D+05 0.11377261D+01  1  2  6  1  7  1        2 0.317187882186D-03 0.100000000000D+01
0.680492576332D-06 0.000000000000D+00 0.000000000000D+00 0.520115221507D-06 0.000000000000D+00  7 21 -2 23 -11 11 23 -2 2 0.78820378D+00 0.84725339D-02 0.10312562D+06 0.10312562D+06 0.10312562D+06 0.11206268D+01  1  2 12  3  7  1        2 0.126945901903D-08 0.100000000000D+01
-.130273986151D-05 0.000000000000D+00 -.599116956204D-06 0.520115221507D-06 0.000000000000D+00  7 21 -2 23 -11 11 23 -2 2 0.77405316D+00 0.84725339D-02 0.64443006D+05 0.64443006D+05 0.64443006D+05 0.11377261D+01  1  2  5  3  7  1        2 -.391706963046D-08 0.100000000000D+01
  </mgrwgt>
  </event>
  <event>
  9     66 0.55102590E-06 0.71499845E+03 0.75467711E-02 0.90584846E-01
        2 -1    0    0  501    0 0.00000000E+00 0.00000000E+00 0.11752893E+04 0.11752894E+04 0.32000000E+00 0.0000E+00 0.9000E+01
       -2 -1    0    0    0  502 0.00000000E+00 0.00000000E+00 -.47846977E+03 0.47846988E+03 0.32000000E+00 0.0000E+00 0.9000E+01
       25  2    1    2    0    0 -.18768714E+03 -.67404472E+03 0.41402526E+03 0.86627176E+03 0.29907706E+03 0.0000E+00 0.0000E+00
       23  2    1    2    0    0 0.16706750E+03 0.67899504E+03 0.25342463E+03 0.75125470E+03 0.10589505E+03 0.0000E+00 0.0000E+00
       23  1    3    3    0    0 -.97647060E+02 -.35082882E+03 0.79403810E+02 0.38371347E+03 0.91188000E+02 0.0000E+00 0.9000E+01
      -11  1    4    4    0    0 0.12239060E+02 0.26141064E+03 0.10150837E+03 0.28069425E+03 0.51099893E-03 0.0000E+00 0.9000E+01
       11  1    4    4    0    0 0.15482844E+03 0.41758440E+03 0.15191627E+03 0.47056044E+03 0.51099893E-03 0.0000E+00 0.9000E+01
       23  1    3    3    0    0 -.90040084E+02 -.32321591E+03 0.33462145E+03 0.48255829E+03 0.91188000E+02 0.0000E+00 0.9000E+01
       21  1    1    2  501  502 0.20619647E+02 -.49503159E+01 0.29369644E+02 0.36232774E+02 0.75000000E+00 0.0000E+00 0.9000E+01
#aMCatNLO 2  0  0  2  1 0.21205552D+02 0.00000000D+00  -5  7  0 0.00000000D+00 0.00000000D+00 0.00000000D+00 0.00000000D+00 0.00000000D+00
  <mgrwgt>
 0.5731229417D-05    2    2    0
 0.736622835213224D+03 0.000000000000000D+00 0.000000000000000D+00 0.736622835213224D+03
 0.736622835213224D+03 0.000000000000000D+00 0.000000000000000D+00 -.736622835213224D+03
 0.385130531009191D+03 -.922559909657946D+02 -.352123094606744D+03 -.866512143418116D+02
 0.261488590489431D+03 0.159034405396922D+02 0.260530901251177D+03 -.157166481286389D+02
 0.448582893069230D+03 0.161100839172969D+03 0.416078540414026D+03 -.463872803585156D+02
 0.378043655858594D+03 -.847482887468664D+02 -.324486347058460D+03 0.148755142828966D+03
 0.000000000000000D+00 0.000000000000000D+00 -.000000000000000D+00 0.000000000000000D+00
 0.757844608028583D+03 0.000000000000000D+00 0.000000000000000D+00 0.757844608028583D+03
 0.742015589611235D+03 0.000000000000000D+00 0.000000000000000D+00 -.742015589611235D+03
 0.385278461941771D+03 -.976470600731257D+02 -.350828819517983D+03 -.866512143418116D+02
 0.262168512153961D+03 0.122390601200377D+02 0.261410637013876D+03 -.157166481286389D+02
 0.447772664492573D+03 0.154828437371107D+03 0.417584403766400D+03 -.463872803585156D+02
 0.378178637806169D+03 -.900400839919287D+02 -.323215905403169D+03 0.148755142828966D+03
 0.264619212453437D+02 0.206196465739094D+02 -.495031585912385D+01 0.158290184173481D+02
-.537851512146D-05 0.000000000000D+00 0.000000000000D+00 0.888546651187D-09 0.000000000000D+00  7 2 -2 23 -11 11 23 21 2 0.17574921D+00 0.73075243D-01 0.51122278D+06 0.51122278D+06 0.51122278D+06 0.10678297D+01  1  2  8  2  7  2       -2 -.268303938588D-04 0.100000000000D+01
0.695839434842D-05 0.000000000000D+00 0.000000000000D+00 0.888546651187D-09 0.120156162705D-10  7 2 -2 23 -11 11 23 21 2 0.18081246D+00 0.73610221D-01 0.52661701D+06 0.52661701D+06 0.52661701D+06 0.10669221D+01  1  2  1  2  7  2       -2 0.325616232761D-04 0.100000000000D+01
  </mgrwgt>
  </event>
  <event>
  9     66 0.55102590E-06 0.27714619E+03 0.75467711E-02 0.93401906E-01
        2 -1    0    0  501    0 0.00000000E+00 0.00000000E+00 0.22731034E+04 0.22731034E+04 0.32000000E+00 0.0000E+00 0.9000E+01
       21 -1    0    0  502  501 0.00000000E+00 0.00000000E+00 -.25555648E+03 0.25555758E+03 0.75000000E+00 0.0000E+00 0.9000E+01
       25  2    1    2    0    0 0.14012913E+03 -.44620028E+03 0.18479699E+04 0.19303819E+04 0.30438575E+03 0.0000E+00 0.0000E+00
       23  2    1    2    0    0 0.63455215E+02 0.58440064E+02 0.50112088E+02 0.14432254E+03 0.10428792E+03 0.0000E+00 0.0000E+00
       23  1    3    3    0    0 0.17772686E+03 -.16680672E+03 0.93453819E+03 0.97009701E+03 0.91188000E+02 0.0000E+00 0.9000E+01
      -13  1    4    4    0    0 0.16331855E+02 -.22260553E+02 -.14036403E+02 0.30972463E+02 0.10565837E+00 0.0000E+00 0.9000E+01
       13  1    4    4    0    0 0.47123360E+02 0.80700617E+02 0.64148491E+02 0.11335008E+03 0.10565837E+00 0.0000E+00 0.9000E+01
       23  1    3    3    0    0 -.37597732E+02 -.27939355E+03 0.91343168E+03 0.96028488E+03 0.91188000E+02 0.0000E+00 0.9000E+01
        2  1    1    2  502    0 -.20358435E+03 0.38776021E+03 0.11946492E+03 0.45395654E+03 0.32000000E+00 0.0000E+00 0.9000E+01
#aMCatNLO 2  0  0  2  1 0.43795498D+03 0.00000000D+00  -5  7  0 0.00000000D+00 0.00000000D+00 0.00000000D+00 0.00000000D+00 0.00000000D+00
  <mgrwgt>
 0.3982347725D-04    1    2    0
 0.357028970070920D+03 0.000000000000000D+00 0.000000000000000D+00 0.357028970070920D+03
 0.357028970070920D+03 0.000000000000000D+00 0.000000000000000D+00 -.357028970070920D+03
 0.193221098637697D+03 0.114969161690754D+03 -.472742680270891D+02 0.116474791510382D+03
 0.110557147991118D+03 -.124104392788156D+02 0.324838830968062D+02 -.104945992337916D+03
 0.189211229492982D+03 0.453647511433522D+01 0.161814483553930D+03 -.979611283722154D+02
 0.221068464020044D+03 -.107095197526274D+03 -.147024098623647D+03 0.864323291997495D+02
 0.000000000000000D+00 -.000000000000000D+00 0.000000000000000D+00 -.000000000000000D+00
 0.479285870259811D+03 0.000000000000000D+00 0.000000000000000D+00 0.479285870259811D+03
 0.121202747779789D+04 0.000000000000000D+00 0.000000000000000D+00 -.121202747779789D+04
 0.285119200898294D+03 0.177726867953276D+03 -.166806746647172D+03 0.116474791510382D+03
 0.108516919790037D+03 0.163318306258571D+02 -.222605453961878D+02 -.104945992337916D+03
 0.135386822615027D+03 0.471233724076257D+02 0.807006619475162D+02 -.979611283722154D+02
 0.308642449402927D+03 -.375977248255664D+02 -.279393582221363D+03 0.864323291997495D+02
 0.853647955351418D+03 -.203584346161192D+03 0.387760212317206D+03 -.732741607538081D+03
0.841975967290D-06 0.000000000000D+00 0.000000000000D+00 0.119962831230D-09 0.145019475291D-14  7 2 21 23 -13 13 23 2 2 0.34970828D+00 0.39316465D-01 0.31111414D+06 0.31111414D+06 0.31111414D+06 0.10833850D+01  1  2  1  4  7  2       -2 0.398234772500D-04 0.100000000000D+01
  </mgrwgt>
  </event>
  <event>
  8     66 0.55102590E-06 0.18036091E+03 0.75467711E-02 0.10187624E+00
        2 -1    0    0  501    0 0.00000000E+00 0.00000000E+00 0.80180317E+03 0.80180323E+03 0.32000000E+00 0.0000E+00 0.9000E+01
       -2 -1    0    0    0  501 0.00000000E+00 0.00000000E+00 -.69204921E+02 0.69205661E+02 0.32000000E+00 0.0000E+00 0.9000E+01
       25  2    1    2    0    0 -.50929966E+02 -.12362953E+02 0.30739157E+03 0.43304998E+03 0.30049293E+03 0.0000E+00 0.0000E+00
       23  2    1    2    0    0 0.50929966E+02 0.12362953E+02 0.42520668E+03 0.43795892E+03 0.90887788E+02 0.0000E+00 0.0000E+00
       23  1    3    3    0    0 -.14426266E+03 0.35536538E+01 0.20269359E+03 0.26499865E+03 0.91188000E+02 0.0000E+00 0.9000E+01
      -13  1    4    4    0    0 0.50202008E+02 0.42066292E+01 0.42667508E+03 0.42963889E+03 0.10565837E+00 0.0000E+00 0.9000E+01
       13  1    4    4    0    0 0.72795763E+00 0.81563238E+01 -.14684023E+01 0.83200306E+01 0.10565837E+00 0.0000E+00 0.9000E+01
       23  1    3    3    0    0 0.93332691E+02 -.15916607E+02 0.10469799E+03 0.16805133E+03 0.91188000E+02 0.0000E+00 0.9000E+01
#aMCatNLO 1  0  0  1  1 0.17919305D+03 0.00000000D+00  -5  7  0 0.00000000D+00 0.00000000D+00 0.00000000D+00 0.00000000D+00 0.00000000D+00
  <mgrwgt>
 0.4108288506D-03    3    2    0
 0.235561191321783D+03 0.000000000000000D+00 0.000000000000000D+00 0.235561191321783D+03
 0.235561191321783D+03 0.000000000000000D+00 0.000000000000000D+00 -.235561191321783D+03
 0.174738493602483D+03 -.144262659771591D+03 0.355365322352136D+01 -.373355908866886D+02
 0.130832136969222D+03 0.502020779198052D+02 0.420662633044210D+01 0.120743959399148D+03
 0.176652491386780D+02 0.727892496726257D+00 0.815632781664763D+01 -.156526520498014D+02
 0.147886502933183D+03 0.933326893550596D+02 -.159166073706111D+02 -.677557164626578D+02
 0.000000000000000D+00 0.000000000000000D+00 0.000000000000000D+00 -.000000000000000D+00
 0.255345614408338D+03 0.000000000000000D+00 0.000000000000000D+00 0.255345614408338D+03
 0.266952664852840D+04 0.000000000000000D+00 0.000000000000000D+00 -.266952664852840D+04
 0.231596303945272D+03 -.206046673182238D+03 -.383721094127576D+02 -.373355908866886D+02
 0.123277672413214D+03 0.115641764518263D+02 -.220125102436683D+02 0.120743959399148D+03
 0.169288528613039D+02 -.453220945564215D+01 0.458689660421005D+01 -.156526520498014D+02
 0.132247215252732D+03 0.507378008404012D+02 -.448208997077708D+02 -.677557164626578D+02
 0.242082221846422D+04 0.148276905345653D+03 0.100618622759987D+03 -.241418103412006D+04
0.174702293676D-05 0.000000000000D+00 0.000000000000D+00 0.207401085174D-06 0.000000000000D+00  7 2 -2 23 -13 13 23 21 0 0.12335440D+00 0.10646973D-01 0.32530056D+05 0.32530056D+05 0.32530056D+05 0.11640874D+01  1  2  2  1  7  1        2 0.404927263148D-03 0.100000000000D+01
-.886435490300D-07 0.000000000000D+00 -.670902807885D-08 0.207401085174D-06 0.000000000000D+00  7 2 -2 23 -13 13 23 21 2 0.12335440D+00 0.10646973D-01 0.32530056D+05 0.32530056D+05 0.32530056D+05 0.11640874D+01  1  2  3  1  7  1        2 -.278417614704D-04 0.100000000000D+01
0.107433224182D-06 0.000000000000D+00 0.000000000000D+00 0.207401085174D-06 0.000000000000D+00  7 2 -2 23 -13 13 23 21 2 0.12335440D+00 0.10646973D-01 0.32530056D+05 0.32530056D+05 0.32530056D+05 0.11640874D+01  1  2 15  1  7  1        2 0.337433488889D-04 0.100000000000D+01
  </mgrwgt>
  </event>
  <event>
  8     66 0.55102590E-06 0.12084861E+03 0.75467711E-02 0.10517737E+00
        2 -1    0    0  501    0 0.00000000E+00 0.00000000E+00 0.87506727E+03 0.87506733E+03 0.32000000E+00 0.0000E+00 0.9000E+01
       -2 -1    0    0    0  501 0.00000000E+00 0.00000000E+00 -.62577954E+02 0.62578772E+02 0.32000000E+00 0.0000E+00 0.9000E+01
       25  2    1    2    0    0 -.62424299E+02 0.63784706E+02 0.41143963E+03 0.51649650E+03 0.29920024E+03 0.0000E+00 0.0000E+00
       23  2    1    2    0    0 0.62424299E+02 -.63784706E+02 0.40104968E+03 0.42114960E+03 0.92524888E+02 0.0000E+00 0.0000E+00
       23  1    3    3    0    0 0.64060554E+02 0.81349041E+02 0.10922576E+03 0.17597426E+03 0.91188000E+02 0.0000E+00 0.9000E+01
      -11  1    4    4    0    0 0.23765504E+02 0.13470368E+02 0.31768955E+02 0.41898884E+02 0.51099893E-03 0.0000E+00 0.9000E+01
       11  1    4    4    0    0 0.38658795E+02 -.77255074E+02 0.36928073E+03 0.37925072E+03 0.51099893E-03 0.0000E+00 0.9000E+01
       23  1    3    3    0    0 -.12648485E+03 -.17564335E+02 0.30221387E+03 0.34052225E+03 0.91188000E+02 0.0000E+00 0.9000E+01
#aMCatNLO 1  0  0  1  2 0.25623835D+02 0.00000000D+00  -5  7  0 0.00000000D+00 0.00000000D+00 0.00000000D+00 0.00000000D+00 0.00000000D+00
  <mgrwgt>
 0.3417445078D-03    9    2    0
 0.234009253681858D+03 0.000000000000000D+00 0.000000000000000D+00 0.234009253681858D+03
 0.234009253681858D+03 0.000000000000000D+00 0.000000000000000D+00 -.234009253681858D+03
 0.162935463256502D+03 0.640605536042707D+02 0.813490410883396D+02 -.866677150300669D+02
 0.287902904062769D+02 0.237655036617819D+02 0.134703680715729D+02 -.909015079060522D+01
 0.118726733551588D+03 0.386587950053685D+02 -.772550744425915D+02 0.814443877835199D+02
 0.157566020149350D+03 -.126484852271421D+03 -.175643347173210D+02 0.143134780371522D+02
 0.000000000000000D+00 0.000000000000000D+00 -.000000000000000D+00 0.000000000000000D+00
 0.249660830190499D+03 0.000000000000000D+00 0.000000000000000D+00 0.249660830190499D+03
 0.245087379377046D+03 0.000000000000000D+00 0.000000000000000D+00 -.245087379377046D+03
 0.166040187997551D+03 0.607662269303039D+02 0.897232719108259D+02 -.866677150300669D+02
 0.290433837858514D+02 0.231863634888896D+02 0.149425516059808D+02 -.909015079060522D+01
 0.114193639416786D+03 0.363263555234341D+02 -.713259761671982D+02 0.814443877835199D+02
 0.159442218889624D+03 -.129659338570794D+03 -.949474003387689D+01 0.143134780371522D+02
 0.260287794777318D+02 0.938039262816664D+01 -.238451073157316D+02 0.457345081345289D+01
0.656566413354D-06 0.000000000000D+00 0.000000000000D+00 0.417997850959D-07 0.000000000000D+00  7 2 -2 23 -11 11 23 21 0 0.13462580D+00 0.96274450D-02 0.41737132D+05 0.41737132D+05 0.41737132D+05 0.11542602D+01  1  2  2  1  7  1        2 0.159349038471D-03 0.100000000000D+01
-.356581878267D-07 0.000000000000D+00 -.252138790519D-08 0.417997850959D-07 0.000000000000D+00  7 2 -2 23 -11 11 23 21 2 0.13462580D+00 0.96274450D-02 0.41737132D+05 0.41737132D+05 0.41737132D+05 0.11542602D+01  1  2  3  1  7  1        2 -.115302169612D-04 0.100000000000D+01
0.419372783944D-07 0.000000000000D+00 0.000000000000D+00 0.417997850959D-07 0.000000000000D+00  7 2 -2 23 -11 11 23 21 2 0.13462580D+00 0.96274450D-02 0.41737132D+05 0.41737132D+05 0.41737132D+05 0.11542602D+01  1  2 15  1  7  1        2 0.135605858884D-04 0.100000000000D+01
0.124382739786D-05 0.000000000000D+00 0.000000000000D+00 0.417997850959D-07 0.000000000000D+00  7 2 -2 23 -11 11 23 21 2 0.14663531D+00 0.96274450D-02 0.47018858D+05 0.47018858D+05 0.47018858D+05 0.11496512D+01  1  2 12  1  7  1        2 0.356929617897D-03 0.100000000000D+01
-.108006377405D-05 0.000000000000D+00 0.000000000000D+00 0.417997850959D-07 0.000000000000D+00  7 2 -2 23 -11 11 23 21 2 0.13462580D+00 0.96274450D-02 0.41737132D+05 0.41737132D+05 0.41737132D+05 0.11542602D+01  1  2  4  1  7  1        2 -.349242920231D-03 0.100000000000D+01
-.412632657491D-05 0.000000000000D+00 -.845932994767D-06 0.417997850959D-07 0.000000000000D+00  7 2 -2 23 -11 11 23 21 2 0.14846937D+00 0.96274450D-02 0.41737132D+05 0.41737132D+05 0.41737132D+05 0.11542602D+01  1  2  5  1  7  1        2 -.117281825453D-02 0.100000000000D+01
0.419306054728D-05 0.000000000000D+00 0.841896915788D-06 0.417997850959D-07 0.000000000000D+00  7 2 -2 23 -11 11 23 21 2 0.13462580D+00 0.96274450D-02 0.41737132D+05 0.41737132D+05 0.41737132D+05 0.11542602D+01  1  2  6  1  7  1        2 0.135584281727D-02 0.100000000000D+01
0.176115050821D-07 0.000000000000D+00 0.000000000000D+00 0.417997850959D-07 0.000000000000D+00  7 21 -2 23 -11 11 23 -2 2 0.14663531D+00 0.96274450D-02 0.47018858D+05 0.47018858D+05 0.47018858D+05 0.11496512D+01  1  2 12  3  7  1        2 0.413459773479D-05 0.100000000000D+01
-.631093272511D-07 0.000000000000D+00 -.134874810350D-07 0.417997850959D-07 0.000000000000D+00  7 21 -2 23 -11 11 23 -2 2 0.14846937D+00 0.96274450D-02 0.41737132D+05 0.41737132D+05 0.41737132D+05 0.11542602D+01  1  2  5  3  7  1        2 -.144807577839D-04 0.100000000000D+01
  </mgrwgt>
  </event>
  <event>
  8     66 0.55102590E-06 0.10542015E+03 0.75467711E-02 0.98891404E-01
        2 -1    0    0  501    0 0.00000000E+00 0.00000000E+00 0.21936167E+04 0.21936168E+04 0.32000000E+00 0.0000E+00 0.9000E+01
       -2 -1    0    0    0  501 0.00000000E+00 0.00000000E+00 -.51350340E+02 0.51351337E+02 0.32000000E+00 0.0000E+00 0.9000E+01
       25  2    1    2    0    0 -.51582985E+02 0.15224797E+03 0.58476719E+03 0.67668579E+03 0.30018452E+03 0.0000E+00 0.0000E+00
       23  2    1    2    0    0 0.51582985E+02 -.15224797E+03 0.15574992E+04 0.15682823E+04 0.88686862E+02 0.0000E+00 0.0000E+00
       23  1    3    3    0    0 -.96824500E+02 0.16080723E+03 0.24467057E+03 0.32157874E+03 0.91188000E+02 0.0000E+00 0.9000E+01
      -13  1    4    4    0    0 -.21129191E+02 -.56774588E+02 0.39714999E+03 0.40174360E+03 0.10565837E+00 0.0000E+00 0.9000E+01
       13  1    4    4    0    0 0.72712176E+02 -.95473378E+02 0.11603492E+04 0.11665387E+04 0.10565837E+00 0.0000E+00 0.9000E+01
       23  1    3    3    0    0 0.45241515E+02 -.85592595E+01 0.34009662E+03 0.35510705E+03 0.91188000E+02 0.0000E+00 0.9000E+01
#aMCatNLO 1  0  0  2  1 0.18059379D+03 0.00000000D+00  -5  7  0 0.00000000D+00 0.00000000D+00 0.00000000D+00 0.00000000D+00 0.00000000D+00
  <mgrwgt>
 0.2382642172D-03    9    2    0
 0.335624954464103D+03 0.000000000000000D+00 0.000000000000000D+00 0.335624954464103D+03
 0.335624954464103D+03 0.000000000000000D+00 0.000000000000000D+00 -.335624954464103D+03
 0.294651024616648D+03 -.968244997737662D+02 0.160807225548058D+03 -.208014488482741D+03
 0.761272006487888D+02 -.211293237758730D+02 -.567745331562712D+02 0.461037388969998D+02
 0.198234887152138D+03 0.727123084559777D+02 -.954734331002112D+02 0.157780905864060D+03
 0.102236796510630D+03 0.452415150936614D+02 -.855925929157560D+01 0.412984372168204D+01
 0.000000000000000D+00 -.000000000000000D+00 0.000000000000000D+00 -.000000000000000D+00
 0.412413818606223D+03 0.000000000000000D+00 0.000000000000000D+00 0.412413818606223D+03
 0.473280328526603D+03 0.000000000000000D+00 0.000000000000000D+00 -.473280328526603D+03
 0.260531013026588D+03 -.928920880757452D+02 0.875339360411246D+02 -.208014488482741D+03
 0.937823187930179D+02 -.199258371056370D+02 -.791993029865296D+02 0.461037388969998D+02
 0.231981718764382D+03 0.757595770977564D+02 -.152253702955175D+03 0.157780905864060D+03
 0.108824045809296D+03 0.467364808329283D+02 -.364152077090262D+02 0.412984372168204D+01
 0.190575050739543D+03 -.967813274930247D+01 0.180334277609606D+03 -.608665099203806D+02
0.390017184255D-05 0.000000000000D+00 0.000000000000D+00 0.117058880464D-06 0.000000000000D+00  7 2 -2 23 -13 13 23 21 0 0.33747958D+00 0.79001307D-02 0.60374888D+05 0.60374888D+05 0.60374888D+05 0.11401616D+01  1  2  2  2  7  2       -2 0.240687990572D-03 0.100000000000D+01
-.191059188176D-06 0.000000000000D+00 -.149776868142D-07 0.117058880464D-06 0.000000000000D+00  7 2 -2 23 -13 13 23 21 2 0.33747958D+00 0.79001307D-02 0.60374888D+05 0.60374888D+05 0.60374888D+05 0.11401616D+01  1  2  3  2  7  2       -2 -.153275038707D-04 0.100000000000D+01
0.239553402353D-06 0.000000000000D+00 0.000000000000D+00 0.117058880464D-06 0.000000000000D+00  7 2 -2 23 -13 13 23 21 2 0.33747958D+00 0.79001307D-02 0.60374888D+05 0.60374888D+05 0.60374888D+05 0.11401616D+01  1  2 15  2  7  2       -2 0.192178964899D-04 0.100000000000D+01
0.265829833587D-06 0.000000000000D+00 0.000000000000D+00 0.117058880464D-06 0.000000000000D+00  7 2 -2 23 -13 13 23 21 2 0.33747958D+00 0.11743782D-01 0.12177726D+06 0.12177726D+06 0.12177726D+06 0.11147673D+01  1  2 12  2  7  2       -2 0.108849912705D-04 0.100000000000D+01
-.166251955453D-05 0.000000000000D+00 0.000000000000D+00 0.117058880464D-06 0.000000000000D+00  7 2 -2 23 -13 13 23 21 2 0.33747958D+00 0.79001307D-02 0.60374888D+05 0.60374888D+05 0.60374888D+05 0.11401616D+01  1  2  4  2  7  2       -2 -.133373721256D-03 0.100000000000D+01
-.114662638283D-05 0.000000000000D+00 -.134164061154D-05 0.117058880464D-06 0.000000000000D+00  7 2 -2 23 -13 13 23 21 2 0.33747958D+00 0.14426334D-01 0.60374888D+05 0.60374888D+05 0.60374888D+05 0.11401616D+01  1  2  5  2  7  2       -2 -.363194910279D-04 0.100000000000D+01
0.182478528191D-05 0.000000000000D+00 0.113041817743D-05 0.117058880464D-06 0.000000000000D+00  7 2 -2 23 -13 13 23 21 2 0.33747958D+00 0.79001307D-02 0.60374888D+05 0.60374888D+05 0.60374888D+05 0.11401616D+01  1  2  6  2  7  2       -2 0.146391302814D-03 0.100000000000D+01
0.125708667634D-07 0.000000000000D+00 0.000000000000D+00 0.117058880464D-06 0.000000000000D+00  7 2 21 23 -13 13 23 2 2 0.33747958D+00 0.11743782D-01 0.12177726D+06 0.12177726D+06 0.12177726D+06 0.11147673D+01  1  2 12  4  7  2       -2 0.726379393598D-05 0.100000000000D+01
-.265534413588D-08 0.000000000000D+00 -.883401397456D-07 0.117058880464D-06 0.000000000000D+00  7 2 21 23 -13 13 23 2 2 0.33747958D+00 0.14426334D-01 0.60374888D+05 0.60374888D+05 0.60374888D+05 0.11401616D+01  1  2  5  4  7  2       -2 -.116104171406D-05 0.100000000000D+01
  </mgrwgt>
  </event>
  <event>
  8     66 0.55102590E-06 0.14988422E+03 0.75467711E-02 0.98118240E-01
        2 -1    0    0  501    0 0.00000000E+00 0.00000000E+00 0.33253485E+03 0.33253501E+03 0.32000000E+00 0.0000E+00 0.9000E+01
       -2 -1    0    0    0  501 0.00000000E+00 0.00000000E+00 -.59247068E+03 0.59247077E+03 0.32000000E+00 0.0000E+00 0.9000E+01
       25  2    1    2    0    0 -.13719079E+03 0.21205767E+03 -.44916576E+03 0.59679746E+03 0.30104410E+03 0.0000E+00 0.0000E+00
       23  2    1    2    0    0 0.13719079E+03 -.21205767E+03 0.18922993E+03 0.32820832E+03 0.90127498E+02 0.0000E+00 0.0000E+00
       23  1    3    3    0    0 0.40285404E+02 -.15185997E+01 -.96461461E+02 0.13872738E+03 0.91188000E+02 0.0000E+00 0.9000E+01
      -11  1    4    4    0    0 -.12217792E+02 -.29257374E+02 0.28171665E+02 0.42413572E+02 0.51099893E-03 0.0000E+00 0.9000E+01
       11  1    4    4    0    0 0.14940859E+03 -.18280029E+03 0.16105827E+03 0.28579475E+03 0.51099893E-03 0.0000E+00 0.9000E+01
       23  1    3    3    0    0 -.17747620E+03 0.21357627E+03 -.35270430E+03 0.45807008E+03 0.91188000E+02 0.0000E+00 0.9000E+01
#aMCatNLO 1  0  0  1  2 0.78356925D+02 0.00000000D+00  -5  7  0 0.00000000D+00 0.00000000D+00 0.00000000D+00 0.00000000D+00 0.00000000D+00
  <mgrwgt>
 0.2434685549D-03    9    2    0
 0.443866266205792D+03 0.000000000000000D+00 0.000000000000000D+00 0.443866266205792D+03
 0.443866266205792D+03 0.000000000000000D+00 0.000000000000000D+00 -.443866266205792D+03
 0.116307366849601D+03 0.402854040245721D+02 -.151859967399237D+01 -.598910036407369D+02
 0.524433008002675D+02 -.122177917790405D+02 -.292573739170715D+02 0.417735733969218D+02
 0.344953683409351D+03 0.149408585501874D+03 -.182800293647825D+03 0.251503818894021D+03
 0.374028181352366D+03 -.177476197747406D+03 0.213576267238889D+03 -.233386388650206D+03
 0.000000000000000D+00 -.000000000000000D+00 -.000000000000000D+00 0.000000000000000D+00
 0.558207519622180D+03 0.000000000000000D+00 0.000000000000000D+00 0.558207519622180D+03
 0.459222000638432D+03 0.000000000000000D+00 0.000000000000000D+00 -.459222000638432D+03
 0.120232347074802D+03 0.505321492956164D+02 0.368116267537532D+00 -.598910036407369D+02
 0.511189653048752D+02 -.773154233337377D+01 -.284313283657355D+02 0.417735733969218D+02
 0.356342747161327D+03 0.179788286924219D+03 -.177206530413129D+03 0.251503818894021D+03
 0.363489903927363D+03 -.145527397999280D+03 0.219458945904462D+03 -.233386388650206D+03
 0.126245556792245D+03 -.770614958871825D+02 -.141892033931346D+02 0.989855189837487D+02
0.164066700090D-04 0.000000000000D+00 0.000000000000D+00 0.221504112440D-06 0.000000000000D+00  7 2 -2 23 -11 11 23 21 0 0.51159226D-01 0.91149355D-01 0.10882714D+06 0.10882714D+06 0.10882714D+06 0.11187197D+01  1  2  2  1  7  1        2 0.207337832704D-03 0.100000000000D+01
-.813880341448D-06 0.000000000000D+00 -.630059328100D-07 0.221504112440D-06 0.000000000000D+00  7 2 -2 23 -11 11 23 21 2 0.51159226D-01 0.91149355D-01 0.10882714D+06 0.10882714D+06 0.10882714D+06 0.11187197D+01  1  2  3  1  7  1        2 -.128724517993D-04 0.100000000000D+01
0.100855530292D-05 0.000000000000D+00 0.000000000000D+00 0.221504112440D-06 0.000000000000D+00  7 2 -2 23 -11 11 23 21 2 0.51159226D-01 0.91149355D-01 0.10882714D+06 0.10882714D+06 0.10882714D+06 0.11187197D+01  1  2 15  1  7  1        2 0.159514597694D-04 0.100000000000D+01
0.393587439769D-04 0.000000000000D+00 0.000000000000D+00 0.221504112440D-06 0.000000000000D+00  7 2 -2 23 -11 11 23 21 2 0.65061877D-01 0.91149355D-01 0.13808005D+06 0.13808005D+06 0.13808005D+06 0.11104009D+01  1  2 12  1  7  1        2 0.468745755404D-03 0.100000000000D+01
-.407975477154D-04 0.000000000000D+00 0.000000000000D+00 0.221504112440D-06 0.000000000000D+00  7 2 -2 23 -11 11 23 21 2 0.51159226D-01 0.91149355D-01 0.10882714D+06 0.10882714D+06 0.10882714D+06 0.11187197D+01  1  2  4  1  7  1        2 -.645260045919D-03 0.100000000000D+01
-.529931871801D-04 0.000000000000D+00 -.994631375871D-05 0.221504112440D-06 0.000000000000D+00  7 2 -2 23 -11 11 23 21 2 0.65856712D-01 0.91149355D-01 0.10882714D+06 0.10882714D+06 0.10882714D+06 0.11187197D+01  1  2  5  1  7  1        2 -.635957929058D-03 0.100000000000D+01
0.540802775789D-04 0.000000000000D+00 0.963736228914D-05 0.221504112440D-06 0.000000000000D+00  7 2 -2 23 -11 11 23 21 2 0.51159226D-01 0.91149355D-01 0.10882714D+06 0.10882714D+06 0.10882714D+06 0.11187197D+01  1  2  6  1  7  1        2 0.855341665075D-03 0.100000000000D+01
0.129397042561D-05 0.000000000000D+00 0.000000000000D+00 0.221504112440D-06 0.000000000000D+00  7 21 -2 23 -11 11 23 -2 2 0.65061877D-01 0.91149355D-01 0.13808005D+06 0.13808005D+06 0.13808005D+06 0.11104009D+01  1  2 12  3  7  1        2 0.365612192363D-04 0.100000000000D+01
-.163739996688D-05 0.000000000000D+00 -.339131654126D-06 0.221504112440D-06 0.000000000000D+00  7 21 -2 23 -11 11 23 -2 2 0.65856712D-01 0.91149355D-01 0.10882714D+06 0.10882714D+06 0.10882714D+06 0.11187197D+01  1  2  5  3  7  1        2 -.463789505446D-04 0.100000000000D+01
  </mgrwgt>
  </event>
  <event>
  9     66 -.55102590E-06 0.41660654E+03 0.75467711E-02 0.96535905E-01
        2 -1    0    0  501    0 0.00000000E+00 0.00000000E+00 0.27101972E+04 0.27101973E+04 0.32000000E+00 0.0000E+00 0.9000E+01
       -2 -1    0    0    0  502 0.00000000E+00 0.00000000E+00 -.71675377E+02 0.71676092E+02 0.32000000E+00 0.0000E+00 0.9000E+01
       25  2    1    2    0    0 -.13915278E+03 -.33996786E+03 0.12936922E+04 0.13782757E+04 0.30176618E+03 0.0000E+00 0.0000E+00
       23  2    1    2    0    0 0.15326713E+03 0.33729524E+03 0.13266896E+04 0.13804463E+04 0.90927999E+02 0.0000E+00 0.0000E+00
       23  1    3    3    0    0 -.15979263E+03 -.30171224E+03 0.11467104E+04 0.11999266E+04 0.91188000E+02 0.0000E+00 0.9000E+01
      -13  1    4    4    0    0 0.11452952E+03 0.31315292E+03 0.11099474E+04 0.11589500E+04 0.10565837E+00 0.0000E+00 0.9000E+01
       13  1    4    4    0    0 0.38737613E+02 0.24142328E+02 0.21674218E+03 0.22149636E+03 0.10565837E+00 0.0000E+00 0.9000E+01
       23  1    3    3    0    0 0.20639849E+02 -.38255612E+02 0.14698184E+03 0.17834912E+03 0.91188000E+02 0.0000E+00 0.9000E+01
       21  1    1    2  501  502 -.14114349E+02 0.26726119E+01 0.18140060E+02 0.23151285E+02 0.75000000E+00 0.0000E+00 0.9000E+01
#aMCatNLO 2  0  0  2  1 0.14365156D+02 0.00000000D+00  -5  7  0 0.00000000D+00 0.00000000D+00 0.00000000D+00 0.00000000D+00 0.00000000D+00
  <mgrwgt>
 -.8842632775D-04    3    2    0
 0.431259865092081D+03 0.000000000000000D+00 0.000000000000000D+00 0.431259865092081D+03
 0.431259865092081D+03 0.000000000000000D+00 0.000000000000000D+00 -.431259865092081D+03
 0.355811058721602D+03 -.165600603828034D+03 -.300612479233389D+03 0.222448984158825D+02
 0.333853935854521D+03 0.109059768091565D+03 0.314189045831715D+03 0.291489442128765D+02
 0.494099681131195D+02 0.379245001233879D+02 0.242958843908885D+02 0.203171661654676D+02
 0.123444767494921D+03 0.186163356130814D+02 -.378724509892145D+02 -.717110087942266D+02
 0.000000000000000D+00 -.000000000000000D+00 0.000000000000000D+00 -.000000000000000D+00
 0.434623197951428D+03 0.000000000000000D+00 0.000000000000000D+00 0.434623197951428D+03
 0.446936154600313D+03 0.000000000000000D+00 0.000000000000000D+00 -.446936154600313D+03
 0.354081981289054D+03 -.159792630174968D+03 -.301712243645854D+03 0.222448984158825D+02
 0.334711350205220D+03 0.114529619671926D+03 0.313153306265924D+03 0.291489442128765D+02
 0.499621368547382D+02 0.387375107249489D+02 0.241419373897547D+02 0.203171661654676D+02
 0.123883878465529D+03 0.206398492671457D+02 -.382556118707558D+02 -.717110087942266D+02
 0.189200057371988D+02 -.141143494890526D+02 0.267261186093092D+01 -.123129566488852D+02
-.222467641243D-04 0.000000000000D+00 0.000000000000D+00 0.771604857264D-07 0.000000000000D+00  7 2 -2 23 -13 13 23 21 2 0.41371984D+00 0.11067394D-01 0.17971262D+06 0.17971262D+06 0.17971262D+06 0.11014109D+01  1  2 13  2  7  2       -2 -.503052052725D-03 0.100000000000D+01
-.409908810451D-04 0.000000000000D+00 0.000000000000D+00 0.771604857264D-07 0.000000000000D+00  7 2 -2 23 -13 13 23 21 2 0.41371984D+00 0.10640083D-01 0.17356101D+06 0.17356101D+06 0.17356101D+06 0.11025863D+01  1  2  8  2  7  2       -2 -.989246083069D-03 0.100000000000D+01
0.635221737083D-04 0.000000000000D+00 0.000000000000D+00 0.771604857264D-07 0.242149282879D-08  7 2 -2 23 -13 13 23 21 2 0.41694638D+00 0.11026850D-01 0.17971262D+06 0.17971262D+06 0.17971262D+06 0.11014109D+01  1  2  1  2  7  2       -2 0.140387180805D-02 0.100000000000D+01
  </mgrwgt>
  </event>
  <event>
  8     66 0.55102590E-06 0.26648640E+03 0.75467711E-02 0.93835297E-01
        2 -1    0    0  501    0 0.00000000E+00 0.00000000E+00 0.63861640E+03 0.63861648E+03 0.32000000E+00 0.0000E+00 0.9000E+01
       -2 -1    0    0    0  501 0.00000000E+00 0.00000000E+00 -.50292615E+03 0.50292625E+03 0.32000000E+00 0.0000E+00 0.9000E+01
       25  2    1    2    0    0 -.18188216E+03 0.28907402E+03 -.32668032E+03 0.55962697E+03 0.29969551E+03 0.0000E+00 0.0000E+00
       23  2    1    2    0    0 0.18188216E+03 -.28907402E+03 0.46237057E+03 0.58191576E+03 0.90523481E+02 0.0000E+00 0.0000E+00
       23  1    3    3    0    0 -.13148001E+02 -.16362116E+02 -.73090579E+02 0.11873531E+03 0.91188000E+02 0.0000E+00 0.9000E+01
      -13  1    4    4    0    0 0.31815372E+02 -.89529898E+02 0.18994650E+03 0.21238527E+03 0.10565837E+00 0.0000E+00 0.9000E+01
       13  1    4    4    0    0 0.15006678E+03 -.19954412E+03 0.27242408E+03 0.36953049E+03 0.10565837E+00 0.0000E+00 0.9000E+01
       23  1    3    3    0    0 -.16873415E+03 0.30543613E+03 -.25358974E+03 0.44089166E+03 0.91188000E+02 0.0000E+00 0.9000E+01
#aMCatNLO 1  0  0  2  1 0.26311552D+03 0.00000000D+00  -5  7  0 0.00000000D+00 0.00000000D+00 0.00000000D+00 0.00000000D+00 0.00000000D+00
  <mgrwgt>
 0.2334433760D-03    9    2    0
 0.566724791227593D+03 0.000000000000000D+00 0.000000000000000D+00 0.566724791227593D+03
 0.566724791227593D+03 0.000000000000000D+00 0.000000000000000D+00 -.566724791227593D+03
 0.128333104657130D+03 -.131480013679409D+02 -.163621155549480D+02 -.878267934148401D+02
 0.191162224380427D+03 0.318152106674561D+02 -.895297484342984D+02 0.165877100726861D+03
 0.339556156905218D+03 0.150066945145875D+03 -.199544269276703D+03 0.230131224012851D+03
 0.474398096512411D+03 -.168734154445390D+03 0.305436133265950D+03 -.308181531324872D+03
 0.000000000000000D+00 0.000000000000000D+00 -.000000000000000D+00 -.000000000000000D+00
 0.667013567547467D+03 0.000000000000000D+00 0.000000000000000D+00 0.667013567547467D+03
 0.784886874899837D+03 0.000000000000000D+00 0.000000000000000D+00 -.784886874899837D+03
 0.131357761049396D+03 -.347793982825649D+02 0.405682850017527D+01 -.878267934148401D+02
 0.176608352158762D+03 0.118112851367863D+01 -.606127250840797D+02 0.165877100726861D+03
 0.291455811338606D+03 0.975057189131987D+02 -.149929131514235D+03 0.230131224012851D+03
 0.564166375097603D+03 -.255243166788593D+03 0.387096263227581D+03 -.308181531324872D+03
 0.288312142802936D+03 0.191335717644281D+03 -.180611235129442D+03 -.117873307352370D+03
0.264281396095D-04 0.000000000000D+00 0.000000000000D+00 0.140222829865D-05 0.000000000000D+00  7 2 -2 23 -13 13 23 21 0 0.98248691D-01 0.77373267D-01 0.15957067D+06 0.15957067D+06 0.15957067D+06 0.11054383D+01  1  2  2  2  7  2       -2 0.231185073653D-03 0.100000000000D+01
-.124985754993D-05 0.000000000000D+00 -.101491014790D-06 0.140222829865D-05 0.000000000000D+00  7 2 -2 23 -13 13 23 21 2 0.98248691D-01 0.77373267D-01 0.15957067D+06 0.15957067D+06 0.15957067D+06 0.11054383D+01  1  2  3  2  7  2       -2 -.133605015840D-04 0.100000000000D+01
0.162475600927D-05 0.000000000000D+00 0.000000000000D+00 0.140222829865D-05 0.000000000000D+00  7 2 -2 23 -13 13 23 21 2 0.98248691D-01 0.77373267D-01 0.15957067D+06 0.15957067D+06 0.15957067D+06 0.11054383D+01  1  2 15  2  7  2       -2 0.173680234494D-04 0.100000000000D+01
0.429680131782D-05 0.000000000000D+00 0.000000000000D+00 0.140222829865D-05 0.000000000000D+00  7 2 -2 23 -13 13 23 21 2 0.98248691D-01 0.11189839D+00 0.28773601D+06 0.28773601D+06 0.28773601D+06 0.10858955D+01  1  2 12  2  7  2       -2 0.182261986965D-04 0.100000000000D+01
-.149782796221D-04 0.000000000000D+00 0.000000000000D+00 0.140222829865D-05 0.000000000000D+00  7 2 -2 23 -13 13 23 21 2 0.98248691D-01 0.77373267D-01 0.15957067D+06 0.15957067D+06 0.15957067D+06 0.11054383D+01  1  2  4  2  7  2       -2 -.160112109279D-03 0.100000000000D+01
-.159198082076D-04 0.000000000000D+00 -.983885751176D-05 0.140222829865D-05 0.000000000000D+00  7 2 -2 23 -13 13 23 21 2 0.98248691D-01 0.12106762D+00 0.15957067D+06 0.15957067D+06 0.15957067D+06 0.11054383D+01  1  2  5  2  7  2       -2 -.586815785737D-04 0.100000000000D+01
0.192708363408D-04 0.000000000000D+00 0.892894096766D-05 0.140222829865D-05 0.000000000000D+00  7 2 -2 23 -13 13 23 21 2 0.98248691D-01 0.77373267D-01 0.15957067D+06 0.15957067D+06 0.15957067D+06 0.11054383D+01  1  2  6  2  7  2       -2 0.205997907099D-03 0.100000000000D+01
0.192828658032D-06 0.000000000000D+00 0.000000000000D+00 0.140222829865D-05 0.000000000000D+00  7 2 21 23 -13 13 23 2 2 0.98248691D-01 0.11189839D+00 0.28773601D+06 0.28773601D+06 0.28773601D+06 0.10858955D+01  1  2 12  4  7  2       -2 0.739088525407D-05 0.100000000000D+01
-.435042515139D-06 0.000000000000D+00 -.509303586947D-06 0.140222829865D-05 0.000000000000D+00  7 2 21 23 -13 13 23 2 2 0.98248691D-01 0.12106762D+00 0.15957067D+06 0.15957067D+06 0.15957067D+06 0.11054383D+01  1  2  5  4  7  2       -2 -.145705227238D-04 0.100000000000D+01
  </mgrwgt>
  </event>
  <event>
  8     66 0.55102590E-06 0.17133632E+03 0.75467711E-02 0.97686597E-01
        2 -1    0    0  501    0 0.00000000E+00 0.00000000E+00 0.95861472E+03 0.95861477E+03 0.32000000E+00 0.0000E+00 0.9000E+01
       -2 -1    0    0    0  501 0.00000000E+00 0.00000000E+00 -.39867473E+02 0.39868757E+02 0.32000000E+00 0.0000E+00 0.9000E+01
       25  2    1    2    0    0 -.21763105E+01 0.36781717E+00 0.70515277E+03 0.76635973E+03 0.30010320E+03 0.0000E+00 0.0000E+00
       23  2    1    2    0    0 0.21763105E+01 -.36781717E+00 0.21359447E+03 0.23212380E+03 0.90851458E+02 0.0000E+00 0.0000E+00
       23  1    3    3    0    0 -.11103285E+03 -.25575896E+02 0.25715757E+03 0.29568174E+03 0.91188000E+02 0.0000E+00 0.9000E+01
      -13  1    4    4    0    0 -.21647160E+02 -.13073296E+02 0.10730876E+02 0.27471321E+02 0.10565837E+00 0.0000E+00 0.9000E+01
       13  1    4    4    0    0 0.23823470E+02 0.12705479E+02 0.20286359E+03 0.20465248E+03 0.10565837E+00 0.0000E+00 0.9000E+01
       23  1    3    3    0    0 0.10885654E+03 0.25943714E+02 0.44799520E+03 0.47067800E+03 0.91188000E+02 0.0000E+00 0.9000E+01
#aMCatNLO 1  0  0  2  2 0.31344608D+03 0.00000000D+00  -5  7  0 0.00000000D+00 0.00000000D+00 0.00000000D+00 0.00000000D+00 0.00000000D+00
  <mgrwgt>
 0.7182165484D-04    5    2    0
 0.195494793343623D+03 0.000000000000000D+00 0.000000000000000D+00 0.195494793343623D+03
 0.195494793343623D+03 0.000000000000000D+00 0.000000000000000D+00 -.195494793343623D+03
 0.152076865380040D+03 -.112790898066103D+03 -.252787701259434D+02 -.380961774221575D+02
 0.441150686766164D+02 -.198893775601373D+02 -.133332991763448D+02 -.370509794430184D+02
 0.467164118888687D+02 0.255496709240200D+02 0.123766557659535D+02 0.371006178856338D+02
 0.148081240741721D+03 0.107130604702220D+03 0.262354135363347D+02 0.380465389795421D+02
 0.000000000000000D+00 -.000000000000000D+00 -.000000000000000D+00 -.000000000000000D+00
 0.320037985171978D+03 0.000000000000000D+00 0.000000000000000D+00 0.320037985171978D+03
 0.604083798418578D+03 0.000000000000000D+00 0.000000000000000D+00 -.604083798418578D+03
 0.130088515466734D+03 -.606090215226483D+02 0.590169322163161D+02 -.380961774221575D+02
 0.390600269385260D+02 -.450750272540590D+01 0.115149053809337D+02 -.370509794430184D+02
 0.790923741092193D+02 0.488159501512337D+02 0.499614932279767D+02 0.371006178856338D+02
 0.252879130771352D+03 0.181281673633227D+03 0.146020611942592D+03 0.380465389795421D+02
 0.423001736304725D+03 -.164981099536406D+03 -.266513942767818D+03 -.284045813246600D+03
0.149733505843D-06 0.000000000000D+00 0.000000000000D+00 0.112419161490D-06 0.000000000000D+00  7 2 -2 23 -13 13 23 21 0 0.14747929D+00 0.61335603D-02 0.29356134D+05 0.29356134D+05 0.29356134D+05 0.11682112D+01  1  2  2  2  7  2       -2 0.630369187540D-04 0.100000000000D+01
-.814255235710D-08 0.000000000000D+00 -.575016088175D-09 0.112419161490D-06 0.000000000000D+00  7 2 -2 23 -13 13 23 21 2 0.14747929D+00 0.61335603D-02 0.29356134D+05 0.29356134D+05 0.29356134D+05 0.11682112D+01  1  2  3  2  7  2       -2 -.467820489797D-05 0.100000000000D+01
0.969848019804D-08 0.000000000000D+00 0.000000000000D+00 0.112419161490D-06 0.000000000000D+00  7 2 -2 23 -13 13 23 21 2 0.14747929D+00 0.61335603D-02 0.29356134D+05 0.29356134D+05 0.29356134D+05 0.11682112D+01  1  2 15  2  7  2       -2 0.557214440578D-05 0.100000000000D+01
0.599404497453D-07 0.000000000000D+00 -.648021200462D-07 0.112419161490D-06 0.000000000000D+00  7 2 -2 23 -13 13 23 21 2 0.14747929D+00 0.31294556D-01 0.29356134D+05 0.29356134D+05 0.29356134D+05 0.11682112D+01  1  2  5  2  7  2       -2 0.263425722056D-05 0.100000000000D+01
0.982720141795D-08 0.000000000000D+00 -.128853832940D-07 0.112419161490D-06 0.000000000000D+00  7 2 21 23 -13 13 23 2 2 0.14747929D+00 0.31294556D-01 0.29356134D+05 0.29356134D+05 0.29356134D+05 0.11682112D+01  1  2  5  4  7  2       -2 0.525653936236D-05 0.100000000000D+01
  </mgrwgt>
  </event>
  <event>
  8     66 0.55102590E-06 0.19705320E+03 0.75467711E-02 0.10029450E+00
        2 -1    0    0  501    0 0.00000000E+00 0.00000000E+00 0.36207172E+04 0.36207172E+04 0.32000000E+00 0.0000E+00 0.9000E+01
       -2 -1    0    0    0  501 0.00000000E+00 0.00000000E+00 -.27087702E+02 0.27089592E+02 0.32000000E+00 0.0000E+00 0.9000E+01
       25  2    1    2    0    0 -.18474822E+03 -.49206975E+02 0.14253230E+04 0.14692255E+04 0.30087310E+03 0.0000E+00 0.0000E+00
       23  2    1    2    0    0 0.18474822E+03 0.49206975E+02 0.21683065E+04 0.21785813E+04 0.90057200E+02 0.0000E+00 0.0000E+00
       23  1    3    3    0    0 -.22181370E+03 0.14299139E+01 0.84187858E+03 0.87537316E+03 0.91188000E+02 0.0000E+00 0.9000E+01
      -13  1    4    4    0    0 0.15396170E+03 0.74770548E+02 0.17227728E+04 0.17312541E+04 0.10565837E+00 0.0000E+00 0.9000E+01
       13  1    4    4    0    0 0.30786518E+02 -.25563573E+02 0.44553373E+03 0.44732720E+03 0.10565837E+00 0.0000E+00 0.9000E+01
       23  1    3    3    0    0 0.37065476E+02 -.50636889E+02 0.58344444E+03 0.59385235E+03 0.91188000E+02 0.0000E+00 0.9000E+01
#aMCatNLO 1  0  0  1  2 0.60363723D+02 0.00000000D+00  -5  7  0 0.00000000D+00 0.00000000D+00 0.00000000D+00 0.00000000D+00 0.00000000D+00
  <mgrwgt>
 0.6030972446D-03    9    2    0
 0.313177874892487D+03 0.000000000000000D+00 0.000000000000000D+00 0.313177874892487D+03
 0.313177874892487D+03 0.000000000000000D+00 0.000000000000000D+00 -.313177874892487D+03
 0.267886806585145D+03 -.221813694447402D+03 0.142991311013034D+01 -.119351288650265D+03
 0.198407516968315D+03 0.153961872149557D+03 0.747706858392521D+02 0.100352524895309D+03
 0.489816086477555D+02 0.307863483184400D+02 -.255637102884525D+02 0.282470433713979D+02
 0.111079817583760D+03 0.370654739794059D+02 -.506368886609300D+02 -.924827961644187D+01
 0.000000000000000D+00 0.000000000000000D+00 0.000000000000000D+00 0.000000000000000D+00
 0.347019231042236D+03 0.000000000000000D+00 0.000000000000000D+00 0.347019231042236D+03
 0.342752816997781D+03 0.000000000000000D+00 0.000000000000000D+00 -.342752816997781D+03
 0.278706302325147D+03 -.233738835898491D+03 -.219858614135431D+02 -.119351288650265D+03
 0.186172045469984D+03 0.145571415690240D+03 0.582954903534887D+02 0.100352524895309D+03
 0.500574370905831D+02 0.286255917879284D+02 -.298064933134198D+02 0.282470433713979D+02
 0.114321955931624D+03 0.321478341689516D+02 -.602929875392980D+02 -.924827961644187D+01
 0.605143072226796D+02 0.273939942513714D+02 0.537898519127722D+02 0.426641404445473D+01
0.120876666338D-04 0.000000000000D+00 0.000000000000D+00 0.541114797334D-07 0.000000000000D+00  7 2 -2 23 -13 13 23 21 0 0.55703356D+00 0.41674852D-02 0.78876267D+05 0.78876267D+05 0.78876267D+05 0.11302782D+01  1  2  2  1  7  1        2 0.254316916794D-03 0.100000000000D+01
-.661844581523D-06 0.000000000000D+00 -.464198226295D-07 0.541114797334D-07 0.000000000000D+00  7 2 -2 23 -13 13 23 21 2 0.55703356D+00 0.41674852D-02 0.78876267D+05 0.78876267D+05 0.78876267D+05 0.11302782D+01  1  2  3  1  7  1        2 -.177893254899D-04 0.100000000000D+01
0.764336113288D-06 0.000000000000D+00 0.000000000000D+00 0.541114797334D-07 0.000000000000D+00  7 2 -2 23 -13 13 23 21 2 0.55703356D+00 0.41674852D-02 0.78876267D+05 0.78876267D+05 0.78876267D+05 0.11302782D+01  1  2 15  1  7  1        2 0.205441342009D-04 0.100000000000D+01
0.829958970390D-05 0.000000000000D+00 0.000000000000D+00 0.541114797334D-07 0.000000000000D+00  7 2 -2 23 -13 13 23 21 2 0.64094428D+00 0.41674852D-02 0.97439267D+05 0.97439267D+05 0.97439267D+05 0.11226477D+01  1  2 12  1  7  1        2 0.812554471983D-04 0.100000000000D+01
-.701263043529D-05 0.000000000000D+00 0.000000000000D+00 0.541114797334D-07 0.000000000000D+00  7 2 -2 23 -13 13 23 21 2 0.55703356D+00 0.41674852D-02 0.78876267D+05 0.78876267D+05 0.78876267D+05 0.11302782D+01  1  2  4  1  7  1        2 -.188488308035D-03 0.100000000000D+01
-.278089431593D-04 0.000000000000D+00 -.641845197752D-05 0.541114797334D-07 0.000000000000D+00  7 2 -2 23 -13 13 23 21 2 0.63022631D+00 0.41674852D-02 0.78876267D+05 0.78876267D+05 0.78876267D+05 0.11302782D+01  1  2  5  1  7  1        2 -.319949958017D-03 0.100000000000D+01
0.287697797269D-04 0.000000000000D+00 0.657211639915D-05 0.541114797334D-07 0.000000000000D+00  7 2 -2 23 -13 13 23 21 2 0.55703356D+00 0.41674852D-02 0.78876267D+05 0.78876267D+05 0.78876267D+05 0.11302782D+01  1  2  6  1  7  1        2 0.773285738257D-03 0.100000000000D+01
0.179307960527D-06 0.000000000000D+00 0.000000000000D+00 0.541114797334D-07 0.000000000000D+00  7 21 -2 23 -13 13 23 -2 2 0.64094428D+00 0.41674852D-02 0.97439267D+05 0.97439267D+05 0.97439267D+05 0.11226477D+01  1  2 12  3  7  1        2 0.293910691971D-07 0.100000000000D+01
-.509076085720D-06 0.000000000000D+00 -.124715669178D-06 0.541114797334D-07 0.000000000000D+00  7 21 -2 23 -13 13 23 -2 2 0.63022631D+00 0.41674852D-02 0.78876267D+05 0.78876267D+05 0.78876267D+05 0.11302782D+01  1  2  5  3  7  1        2 -.106791376345D-06 0.100000000000D+01
  </mgrwgt>
  </event>
  <event>
  8     66 0.55102590E-06 0.19928340E+03 0.75467711E-02 0.10157573E+00
        2 -1    0    0  501    0 0.00000000E+00 0.00000000E+00 0.10864472E+04 0.10864472E+04 0.32000000E+00 0.0000E+00 0.9000E+01
       -2 -1    0    0    0  501 0.00000000E+00 0.00000000E+00 -.16065894E+04 0.16065895E+04 0.32000000E+00 0.0000E+00 0.9000E+01
       25  2    1    2    0    0 0.15261313E+03 0.13619974E+02 0.10551774E+04 0.11077090E+04 0.30023921E+03 0.0000E+00 0.0000E+00
       23  2    1    2    0    0 -.15261313E+03 -.13619974E+02 -.15753197E+04 0.15853277E+04 0.90308505E+02 0.0000E+00 0.0000E+00
       23  1    3    3    0    0 0.82053672E+02 -.21114469E+02 0.91275325E+03 0.92120159E+03 0.91188000E+02 0.0000E+00 0.9000E+01
      -11  1    4    4    0    0 -.73380339E+02 -.62155785E+00 -.36249517E+03 0.36984836E+03 0.51099893E-03 0.0000E+00 0.9000E+01
       11  1    4    4    0    0 -.79232794E+02 -.12998416E+02 -.12128245E+04 0.12154793E+04 0.51099893E-03 0.0000E+00 0.9000E+01
       23  1    3    3    0    0 0.70559461E+02 0.34734443E+02 0.14242416E+03 0.18650740E+03 0.91188000E+02 0.0000E+00 0.9000E+01
#aMCatNLO 1  0  0  1  2 0.17333759D+03 0.00000000D+00  -5  7  0 0.00000000D+00 0.00000000D+00 0.00000000D+00 0.00000000D+00 0.00000000D+00
  <mgrwgt>
 0.3896534717D-03    4    2    0
 0.132116413349373D+04 0.000000000000000D+00 0.000000000000000D+00 0.132116413349373D+04
 0.132116413349373D+04 0.000000000000000D+00 0.000000000000000D+00 -.132116413349373D+04
 0.111855564942206D+04 0.820536724048000D+02 -.211144691310401D+02 0.111160823294370D+04
 0.305588882680670D+03 -.733803386995384D+02 -.621557847636577D+00 -.296647104783113D+03
 0.100006091148522D+04 -.792327943264815D+02 -.129984159903331D+02 -.996832499553262D+03
 0.218122823399520D+03 0.705594606212200D+02 0.347344429690098D+02 0.181871371392678D+03
 0.000000000000000D+00 -.000000000000000D+00 -.000000000000000D+00 -.000000000000000D+00
 0.136776263561966D+04 0.000000000000000D+00 0.000000000000000D+00 0.136776263561966D+04
 0.149566025965946D+04 0.000000000000000D+00 0.000000000000000D+00 -.149566025965946D+04
 0.112474166801010D+04 0.143910483693781D+03 0.185870263615511D+02 0.111160823294370D+04
 0.302172552102221D+03 -.566218893901447D+02 0.101345009574546D+02 -.296647104783113D+03
 0.997375616365820D+03 -.241553628131101D+02 0.223518769427448D+02 -.996832499553262D+03
 0.223717827792557D+03 0.827428005504425D+02 0.425540638839161D+02 0.181871371392678D+03
 0.215415231008421D+03 -.145876032040969D+03 -.936274681456666D+02 -.127897624039799D+03
0.208116246718D-02 0.000000000000D+00 0.000000000000D+00 0.931059780158D-05 0.000000000000D+00  7 2 -2 23 -11 11 23 21 0 0.16714573D+00 0.24716761D+00 0.39713872D+05 0.39713872D+05 0.39713872D+05 0.11561991D+01  1  2  2  1  7  1        2 0.421170378238D-03 0.100000000000D+01
0.387354783943D-03 0.000000000000D+00 -.799221185664D-05 0.931059780158D-05 0.000000000000D+00  7 2 -2 23 -11 11 23 21 2 0.16714573D+00 0.24716761D+00 0.39713872D+05 0.39713872D+05 0.39713872D+05 0.11561991D+01  1  2  3  1  7  1        2 0.104791491726D-03 0.100000000000D+01
0.123675410766D-03 0.000000000000D+00 0.000000000000D+00 0.931059780158D-05 0.000000000000D+00  7 2 -2 23 -11 11 23 21 2 0.16714573D+00 0.24716761D+00 0.39713872D+05 0.39713872D+05 0.39713872D+05 0.11561991D+01  1  2 15  1  7  1        2 0.334580372343D-04 0.100000000000D+01
-.627530344813D-03 0.000000000000D+00 0.000000000000D+00 0.931059780158D-05 0.000000000000D+00  7 2 -2 23 -11 11 23 21 2 0.16714573D+00 0.24716761D+00 0.39713872D+05 0.39713872D+05 0.39713872D+05 0.11561991D+01  1  2  4  1  7  1        2 -.169766435481D-03 0.100000000000D+01
  </mgrwgt>
  </event>
  <event>
  8     66 0.55102590E-06 0.28821453E+03 0.75467711E-02 0.96456967E-01
        2 -1    0    0  501    0 0.00000000E+00 0.00000000E+00 0.13452900E+03 0.13452938E+03 0.32000000E+00 0.0000E+00 0.9000E+01
       -2 -1    0    0    0  501 0.00000000E+00 0.00000000E+00 -.13696902E+04 0.13696903E+04 0.32000000E+00 0.0000E+00 0.9000E+01
       25  2    1    2    0    0 -.24883721E+01 -.20154185E+03 -.13681602E+03 0.38383196E+03 0.29661936E+03 0.0000E+00 0.0000E+00
       23  2    1    2    0    0 0.24883721E+01 0.20154185E+03 -.10983452E+04 0.11203877E+04 0.91000189E+02 0.0000E+00 0.0000E+00
       23  1    3    3    0    0 -.85342197E+02 -.19542450E+03 -.11381528E+03 0.25834705E+03 0.91188000E+02 0.0000E+00 0.9000E+01
      -13  1    4    4    0    0 -.11258895E+02 0.20629255E+03 -.10274959E+04 0.10480607E+04 0.10565837E+00 0.0000E+00 0.9000E+01
       13  1    4    4    0    0 0.13747267E+02 -.47507044E+01 -.70849290E+02 0.72326963E+02 0.10565837E+00 0.0000E+00 0.9000E+01
       23  1    3    3    0    0 0.82853825E+02 -.61173440E+01 -.23000734E+02 0.12548491E+03 0.91188000E+02 0.0000E+00 0.9000E+01
#aMCatNLO 1  0  0  1  2 0.25043547D+03 0.00000000D+00  -5  7  0 0.00000000D+00 0.00000000D+00 0.00000000D+00 0.00000000D+00 0.00000000D+00
  <mgrwgt>
 0.2840853789D-03    7    2    0
 0.429259089892826D+03 0.000000000000000D+00 0.000000000000000D+00 0.429259089892826D+03
 0.429259089892826D+03 0.000000000000000D+00 0.000000000000000D+00 -.429259089892826D+03
 0.288905333101028D+03 -.853421966792076D+02 -.195424504015345D+03 0.172270173989984D+03
 0.358048063511582D+03 -.112589281773586D+02 0.206292836805475D+03 -.292429338137337D+03
 0.247926682427679D+02 0.137473003235686D+02 -.475098882184134D+01 -.200777547954024D+02
 0.186772114930275D+03 0.828538245329976D+02 -.611734396828867D+01 0.140236918942754D+03
 0.000000000000000D+00 -.000000000000000D+00 0.000000000000000D+00 0.000000000000000D+00
 0.589548160337771D+03 0.000000000000000D+00 0.000000000000000D+00 0.589548160337771D+03
 0.557259592638250D+03 0.000000000000000D+00 0.000000000000000D+00 -.557259592638250D+03
 0.325831659199474D+03 -.256350362197874D+02 -.259840048614821D+03 0.172270173989984D+03
 0.326604148536706D+03 0.552388424069135D+02 0.134551188502703D+03 -.292429338137337D+03
 0.295684917785845D+02 0.190272013947710D+02 -.104472520558635D+02 -.200777547954024D+02
 0.212295085182186D+03 0.121613765206226D+03 -.479338140180792D+02 0.140236918942754D+03
 0.252508368279072D+03 -.170244772788123D+03 0.183669926186061D+03 0.322885676995217D+02
0.800094276867D-04 0.000000000000D+00 0.000000000000D+00 0.504040991985D-07 0.000000000000D+00  7 2 -2 23 -13 13 23 21 0 0.20696801D-01 0.21072161D+00 0.83067616D+05 0.83067616D+05 0.83067616D+05 0.11283942D+01  1  2  2  1  7  1        2 0.297216980765D-03 0.100000000000D+01
-.358735401140D-05 0.000000000000D+00 -.307257269283D-06 0.504040991985D-07 0.000000000000D+00  7 2 -2 23 -13 13 23 21 2 0.20696801D-01 0.21072161D+00 0.83067616D+05 0.83067616D+05 0.83067616D+05 0.11283942D+01  1  2  3  1  7  1        2 -.169679104336D-04 0.100000000000D+01
0.482151524951D-05 0.000000000000D+00 0.000000000000D+00 0.504040991985D-07 0.000000000000D+00  7 2 -2 23 -13 13 23 21 2 0.20696801D-01 0.21072161D+00 0.83067616D+05 0.83067616D+05 0.83067616D+05 0.11283942D+01  1  2 15  1  7  1        2 0.228053988114D-04 0.100000000000D+01
-.281517916763D-04 0.000000000000D+00 0.000000000000D+00 0.504040991985D-07 0.000000000000D+00  7 2 -2 23 -13 13 23 21 2 0.20696801D-01 0.21072161D+00 0.83067616D+05 0.83067616D+05 0.83067616D+05 0.11283942D+01  1  2  4  1  7  1        2 -.133155824095D-03 0.100000000000D+01
-.140172384832D-04 0.000000000000D+00 -.286116666597D-04 0.504040991985D-07 0.000000000000D+00  7 2 -2 23 -13 13 23 21 2 0.37392244D-01 0.21072161D+00 0.83067616D+05 0.83067616D+05 0.83067616D+05 0.11283942D+01  1  2  5  1  7  1        2 -.337772196369D-04 0.100000000000D+01
0.299188706213D-04 0.000000000000D+00 0.242453976726D-04 0.504040991985D-07 0.000000000000D+00  7 2 -2 23 -13 13 23 21 2 0.20696801D-01 0.21072161D+00 0.83067616D+05 0.83067616D+05 0.83067616D+05 0.11283942D+01  1  2  6  1  7  1        2 0.141513972517D-03 0.100000000000D+01
0.620978093017D-06 0.000000000000D+00 -.185455736373D-05 0.504040991985D-07 0.000000000000D+00  7 21 -2 23 -13 13 23 -2 2 0.37392244D-01 0.21072161D+00 0.83067616D+05 0.83067616D+05 0.83067616D+05 0.11283942D+01  1  2  5  3  7  1        2 0.644998100618D-05 0.100000000000D+01
  </mgrwgt>
  </event>
  <event>
  8     66 0.55102590E-06 0.18005136E+03 0.75467711E-02 0.94401740E-01
        2 -1    0    0  501    0 0.00000000E+00 0.00000000E+00 0.25183563E+04 0.25183564E+04 0.32000000E+00 0.0000E+00 0.9000E+01
       -2 -1    0    0    0  501 0.00000000E+00 0.00000000E+00 -.23307481E+02 0.23309677E+02 0.32000000E+00 0.0000E+00 0.9000E+01
       25  2    1    2    0    0 -.43775859E+01 0.55957893E+02 0.10807093E+04 0.11232450E+04 0.30099241E+03 0.0000E+00 0.0000E+00
       23  2    1    2    0    0 0.43775859E+01 -.55957893E+02 0.14143396E+04 0.14184210E+04 0.91712702E+02 0.0000E+00 0.0000E+00
       23  1    3    3    0    0 -.77068226E+02 0.12137991E+03 0.53751296E+03 0.56383333E+03 0.91188000E+02 0.0000E+00 0.9000E+01
      -11  1    4    4    0    0 0.39273232E+01 -.47814756E+02 0.28198796E+03 0.28604000E+03 0.51099893E-03 0.0000E+00 0.9000E+01
       11  1    4    4    0    0 0.45026273E+00 -.81431373E+01 0.11323516E+04 0.11323810E+04 0.51099893E-03 0.0000E+00 0.9000E+01
       23  1    3    3    0    0 0.72690640E+02 -.65422015E+02 0.54319630E+03 0.55941169E+03 0.91188000E+02 0.0000E+00 0.9000E+01
#aMCatNLO 1  0  0  1  1 0.43529464D+03 0.00000000D+00  -5  7  0 0.00000000D+00 0.00000000D+00 0.00000000D+00 0.00000000D+00 0.00000000D+00
  <mgrwgt>
 0.3824201728D-03    3    2    0
 0.242279505628068D+03 0.000000000000000D+00 0.000000000000000D+00 0.242279505628068D+03
 0.242279505628068D+03 0.000000000000000D+00 0.000000000000000D+00 -.242279505628068D+03
 0.189770352553559D+03 -.770682262433427D+02 0.121379907463740D+03 -.838149266664408D+02
 0.483830180114709D+02 0.392732319116855D+01 -.478147555505010D+02 0.626432088069097D+01
 0.109092356975643D+03 0.450262731855274D+00 -.814313738156842D+01 0.108787080701517D+03
 0.137313283715464D+03 0.726906403203189D+02 -.654220145316710D+02 -.312364749157669D+02
 0.000000000000000D+00 0.000000000000000D+00 0.000000000000000D+00 -.000000000000000D+00
 0.364136148676626D+03 0.000000000000000D+00 0.000000000000000D+00 0.364136148676626D+03
 0.155759617707356D+04 0.000000000000000D+00 0.000000000000000D+00 -.155759617707356D+04
 0.199720091151618D+03 -.156600478490771D+03 -.492053553705021D+01 -.838149266664408D+02
 0.995061679503314D+02 -.262710044768756D+02 -.957709249607588D+02 0.626432088069097D+01
 0.152621700374485D+03 -.529906079294640D+02 -.930094079591233D+02 0.108787080701517D+03
 0.199518959395641D+03 0.391096329066316D+01 -.174646931880566D+03 -.312364749157669D+02
 0.127036540687811D+04 0.231951127606447D+03 0.368347800337499D+03 -.119346002839693D+04
0.281812522339D-05 0.000000000000D+00 0.000000000000D+00 0.708391771679D-07 0.000000000000D+00  7 2 -2 23 -11 11 23 21 0 0.38743961D+00 0.35859368D-02 0.32418493D+05 0.32418493D+05 0.32418493D+05 0.11642246D+01  1  2  2  1  7  1        2 0.375745302430D-03 0.100000000000D+01
-.139788263765D-06 0.000000000000D+00 -.108223428872D-07 0.708391771679D-07 0.000000000000D+00  7 2 -2 23 -11 11 23 21 2 0.38743961D+00 0.35859368D-02 0.32418493D+05 0.32418493D+05 0.32418493D+05 0.11642246D+01  1  2  3  1  7  1        2 -.252625719851D-04 0.100000000000D+01
0.176723083496D-06 0.000000000000D+00 0.000000000000D+00 0.708391771679D-07 0.000000000000D+00  7 2 -2 23 -11 11 23 21 2 0.38743961D+00 0.35859368D-02 0.32418493D+05 0.32418493D+05 0.32418493D+05 0.11642246D+01  1  2 15  1  7  1        2 0.319374423719D-04 0.100000000000D+01
  </mgrwgt>
  </event>
  <event>
  8     66 0.55102590E-06 0.27365409E+03 0.75467711E-02 0.97959015E-01
        2 -1    0    0  501    0 0.00000000E+00 0.00000000E+00 0.19414889E+04 0.19414889E+04 0.32000000E+00 0.0000E+00 0.9000E+01
       -2 -1    0    0    0  501 0.00000000E+00 0.00000000E+00 -.57581457E+02 0.57582346E+02 0.32000000E+00 0.0000E+00 0.9000E+01
       25  2    1    2    0    0 -.13125319E+03 -.13448339E+03 0.16348439E+04 0.16733786E+04 0.30359199E+03 0.0000E+00 0.0000E+00
       23  2    1    2    0    0 0.13125319E+03 0.13448339E+03 0.24906352E+03 0.32569267E+03 0.93433927E+02 0.0000E+00 0.0000E+00
       23  1    3    3    0    0 -.18624850E+03 -.59864481E+02 0.12093265E+04 0.12284373E+04 0.91188000E+02 0.0000E+00 0.9000E+01
      -11  1    4    4    0    0 0.71574812E+02 0.23338660E+02 0.13988001E+03 0.15885233E+03 0.51099893E-03 0.0000E+00 0.9000E+01
       11  1    4    4    0    0 0.59678374E+02 0.11114473E+03 0.10918351E+03 0.16684034E+03 0.51099893E-03 0.0000E+00 0.9000E+01
       23  1    3    3    0    0 0.54995314E+02 -.74618912E+02 0.42551736E+03 0.44494128E+03 0.91188000E+02 0.0000E+00 0.9000E+01
#aMCatNLO 1  0  0  1  1 0.17826462D+03 0.00000000D+00  -5  7  0 0.00000000D+00 0.00000000D+00 0.00000000D+00 0.00000000D+00 0.00000000D+00
  <mgrwgt>
 0.1666098470D-03    4    2    0
 0.334357104984695D+03 0.000000000000000D+00 0.000000000000000D+00 0.334357104984695D+03
 0.334357104984695D+03 0.000000000000000D+00 0.000000000000000D+00 -.334357104984695D+03
 0.265396543848842D+03 -.186248499871962D+03 -.598644808496982D+02 0.154427375717358D+03
 0.808060362759702D+02 0.715748117830010D+02 0.233386599706706D+02 -.293593046176985D+02
 0.191164029684363D+03 0.596783736148188D+02 0.111144733108685D+03 -.143628083152471D+03
 0.131347600160215D+03 0.549953144741422D+02 -.746189122296575D+02 0.185600120528116D+02
 0.000000000000000D+00 -.000000000000000D+00 -.000000000000000D+00 -.000000000000000D+00
 0.417818057772910D+03 0.000000000000000D+00 0.000000000000000D+00 0.417818057772910D+03
 0.456706103104390D+03 0.000000000000000D+00 0.000000000000000D+00 -.456706103104390D+03
 0.225791757118663D+03 -.135710985839013D+03 -.200344750464428D+02 0.154427375717358D+03
 0.102464662066858D+03 0.904312166914352D+02 0.381999116824544D+02 -.293593046176985D+02
 0.228674721495740D+03 0.102874855977179D+03 0.145189069797887D+03 -.143628083152471D+03
 0.135136029475093D+03 0.824133538405492D+02 -.530100007512282D+02 0.185600120528116D+02
 0.182456990720946D+03 -.140008440670150D+03 -.110344505682671D+03 -.388880453314791D+02
0.334399779073D-05 0.000000000000D+00 0.000000000000D+00 0.308533402831D-08 0.000000000000D+00  7 2 -2 23 -11 11 23 21 0 0.29869067D+00 0.88587561D-02 0.74886560D+05 0.74886560D+05 0.74886560D+05 0.11321767D+01  1  2  2  1  7  1        2 0.235952741205D-03 0.100000000000D+01
-.176711338872D-06 0.000000000000D+00 -.128418320112D-07 0.308533402831D-08 0.000000000000D+00  7 2 -2 23 -11 11 23 21 2 0.29869067D+00 0.88587561D-02 0.74886560D+05 0.74886560D+05 0.74886560D+05 0.11321767D+01  1  2  3  1  7  1        2 -.159827646741D-04 0.100000000000D+01
0.212267691132D-06 0.000000000000D+00 0.000000000000D+00 0.308533402831D-08 0.000000000000D+00  7 2 -2 23 -11 11 23 21 2 0.29869067D+00 0.88587561D-02 0.74886560D+05 0.74886560D+05 0.74886560D+05 0.11321767D+01  1  2 15  1  7  1        2 0.191986806107D-04 0.100000000000D+01
-.802236956170D-06 0.000000000000D+00 0.000000000000D+00 0.308533402831D-08 0.000000000000D+00  7 2 -2 23 -11 11 23 21 2 0.29869067D+00 0.88587561D-02 0.74886560D+05 0.74886560D+05 0.74886560D+05 0.11321767D+01  1  2  4  1  7  1        2 -.725588101205D-04 0.100000000000D+01
  </mgrwgt>
  </event>
  <event>
  8     66 0.55102590E-06 0.46121777E+03 0.75467711E-02 0.89404836E-01
        2 -1    0    0  501    0 0.00000000E+00 0.00000000E+00 0.10167424E+04 0.10167425E+04 0.32000000E+00 0.0000E+00 0.9000E+01
       -2 -1    0    0    0  501 0.00000000E+00 0.00000000E+00 -.26689753E+03 0.26689772E+03 0.32000000E+00 0.0000E+00 0.9000E+01
       25  2    1    2    0    0 -.75848104E+02 0.41737794E+03 0.66063996E+03 0.84018235E+03 0.29917210E+03 0.0000E+00 0.0000E+00
       23  2    1    2    0    0 0.75848104E+02 -.41737794E+03 0.89204931E+02 0.44345785E+03 0.93488287E+02 0.0000E+00 0.0000E+00
       23  1    3    3    0    0 0.10469046E+02 0.33537095E+03 0.56138437E+03 0.66034153E+03 0.91188000E+02 0.0000E+00 0.9000E+01
      -11  1    4    4    0    0 0.30813930E+02 -.22957770E+03 0.94720780E+02 0.25025476E+03 0.51099893E-03 0.0000E+00 0.9000E+01
       11  1    4    4    0    0 0.45034174E+02 -.18780025E+03 -.55158492E+01 0.19320309E+03 0.51099893E-03 0.0000E+00 0.9000E+01
       23  1    3    3    0    0 -.86317150E+02 0.82006994E+02 0.99255588E+02 0.17984082E+03 0.91188000E+02 0.0000E+00 0.9000E+01
#aMCatNLO 1  0  0  2  1 0.56679491D+03 0.00000000D+00  -5  7  0 0.00000000D+00 0.00000000D+00 0.00000000D+00 0.00000000D+00 0.00000000D+00
  <mgrwgt>
 0.2784785754D-03    5    2    0
 0.520928209632327D+03 0.000000000000000D+00 0.000000000000000D+00 0.520928209632327D+03
 0.520928209632327D+03 0.000000000000000D+00 0.000000000000000D+00 -.520928209632327D+03
 0.409547538183802D+03 0.104690460630225D+02 0.335370948563266D+03 0.216403929314414D+03
 0.240158977803422D+03 0.308139296931558D+02 -.229577696719111D+03 -.634107051340534D+02
 0.242009627221270D+03 0.450341742916823D+02 -.187800245961371D+03 -.145848038829780D+03
 0.150140276056161D+03 -.863171500478606D+02 0.820069941172157D+02 -.714518535058085D+01
 0.000000000000000D+00 0.000000000000000D+00 0.000000000000000D+00 -.000000000000000D+00
 0.749697652561661D+03 0.000000000000000D+00 0.000000000000000D+00 0.749697652561661D+03
 0.110565472897953D+04 0.000000000000000D+00 0.000000000000000D+00 -.110565472897953D+04
 0.315248844913326D+03 -.978726848140816D+02 0.186163529778933D+03 0.216403929314414D+03
 0.364611583129680D+03 -.595864791430857D+02 -.354076461417678D+03 -.634107051340534D+02
 0.343781897300026D+03 -.425292699801829D+02 -.308391964350022D+03 -.145848038829780D+03
 0.162410486399854D+03 -.133036879038155D+03 0.176649339294128D+02 -.714518535058085D+01
 0.669299569798306D+03 0.333025312975505D+03 0.458639962059355D+03 -.355957076417872D+03
0.157150413230D-04 0.000000000000D+00 0.000000000000D+00 0.128075803617D-06 0.000000000000D+00  7 2 -2 23 -11 11 23 21 0 0.15642193D+00 0.41061177D-01 0.21272183D+06 0.21272183D+06 0.21272183D+06 0.10957744D+01  1  2  2  2  7  2       -2 0.272662802686D-03 0.100000000000D+01
-.857325094158D-06 0.000000000000D+00 -.603498965457D-07 0.128075803617D-06 0.000000000000D+00  7 2 -2 23 -11 11 23 21 2 0.15642193D+00 0.41061177D-01 0.21272183D+06 0.21272183D+06 0.21272183D+06 0.10957744D+01  1  2  3  2  7  2       -2 -.178606873538D-04 0.100000000000D+01
0.989787223168D-06 0.000000000000D+00 0.000000000000D+00 0.128075803617D-06 0.000000000000D+00  7 2 -2 23 -11 11 23 21 2 0.15642193D+00 0.41061177D-01 0.21272183D+06 0.21272183D+06 0.21272183D+06 0.10957744D+01  1  2 15  2  7  2       -2 0.206202760893D-04 0.100000000000D+01
-.447196324510D-06 0.000000000000D+00 -.492160129439D-05 0.128075803617D-06 0.000000000000D+00  7 2 -2 23 -11 11 23 21 2 0.15642193D+00 0.11810713D+00 0.21272183D+06 0.21272183D+06 0.21272183D+06 0.10957744D+01  1  2  5  2  7  2       -2 -.935826135157D-06 0.100000000000D+01
0.211050480915D-06 0.000000000000D+00 -.586920639828D-06 0.128075803617D-06 0.000000000000D+00  7 2 21 23 -11 11 23 2 2 0.15642193D+00 0.11810713D+00 0.21272183D+06 0.21272183D+06 0.21272183D+06 0.10957744D+01  1  2  5  4  7  2       -2 0.399201016309D-05 0.100000000000D+01
  </mgrwgt>
  </event>
  <event>
  8     66 0.55102590E-06 0.18353152E+03 0.75467711E-02 0.99118069E-01
        2 -1    0    0  501    0 0.00000000E+00 0.00000000E+00 0.34853973E+04 0.34853973E+04 0.32000000E+00 0.0000E+00 0.9000E+01
       -2 -1    0    0    0  501 0.00000000E+00 0.00000000E+00 -.23768839E+02 0.23770993E+02 0.32000000E+00 0.0000E+00 0.9000E+01
       25  2    1    2    0    0 0.31286554E+02 0.36784863E+02 0.99089623E+03 0.10363019E+04 0.29952351E+03 0.0000E+00 0.0000E+00
       23  2    1    2    0    0 -.31286554E+02 -.36784863E+02 0.24707322E+04 0.24728664E+04 0.90655964E+02 0.0000E+00 0.0000E+00
       23  1    3    3    0    0 -.98974083E+02 -.16327609E+02 0.46105616E+03 0.48057309E+03 0.91188000E+02 0.0000E+00 0.9000E+01
      -11  1    4    4    0    0 0.88184222E+01 -.16966944E+02 0.10598955E+03 0.10770064E+03 0.51099893E-03 0.0000E+00 0.9000E+01
       11  1    4    4    0    0 -.40104977E+02 -.19817919E+02 0.23647427E+04 0.23651658E+04 0.51099893E-03 0.0000E+00 0.9000E+01
       23  1    3    3    0    0 0.13026064E+03 0.53112473E+02 0.52984007E+03 0.55572882E+03 0.91188000E+02 0.0000E+00 0.9000E+01
#aMCatNLO 1  0  0  1  1 0.23809115D+03 0.00000000D+00  -5  7  0 0.00000000D+00 0.00000000D+00 0.00000000D+00 0.00000000D+00 0.00000000D+00
  <mgrwgt>
 0.5465694077D-03    3    2    0
 0.287832682682749D+03 0.000000000000000D+00 0.000000000000000D+00 0.287832682682749D+03
 0.287832682682749D+03 0.000000000000000D+00 0.000000000000000D+00 -.287832682682749D+03
 0.157047364640539D+03 -.989740831897498D+02 -.163276094973174D+02 -.792853291687050D+02
 0.191833794177020D+02 0.881842220818144D+01 -.169669439302316D+02 -.153632330911861D+01
 0.197865275468919D+03 -.401049765747710D+02 -.198179193465976D+02 0.192742076784235D+03
 0.201569345838338D+03 0.130260637556339D+03 0.531124727741465D+02 -.111920424306411D+03
 0.000000000000000D+00 0.000000000000000D+00 -.000000000000000D+00 -.000000000000000D+00
 0.345231933381866D+03 0.000000000000000D+00 0.000000000000000D+00 0.345231933381866D+03
 0.731356365548697D+03 0.000000000000000D+00 0.000000000000000D+00 -.731356365548697D+03
 0.172472825230757D+03 -.113536144607801D+03 0.474868881406844D+02 -.792853291687050D+02
 0.131064274385122D+02 0.739148035432760D+01 -.107137373993595D+02 -.153632330911861D+01
 0.209819955040568D+03 -.581212849783029D+02 0.591339293688249D+02 0.192742076784235D+03
 0.227559867032043D+03 0.111296682854385D+03 0.136217138232765D+03 -.111920424306411D+03
 0.453629224188682D+03 0.529692663773916D+02 -.232124218342915D+03 -.386124432166831D+03
0.162004643414D-04 0.000000000000D+00 0.000000000000D+00 0.403486505826D-06 0.000000000000D+00  7 2 -2 23 -11 11 23 21 0 0.53621513D+00 0.36569113D-02 0.33683817D+05 0.33683817D+05 0.33683817D+05 0.11626976D+01  1  2  2  1  7  1        2 0.532582874932D-03 0.100000000000D+01
-.678436961505D-06 0.000000000000D+00 -.622140487513D-07 0.403486505826D-06 0.000000000000D+00  7 2 -2 23 -11 11 23 21 2 0.53621513D+00 0.36569113D-02 0.33683817D+05 0.33683817D+05 0.33683817D+05 0.11626976D+01  1  2  3  1  7  1        2 -.301510725195D-04 0.100000000000D+01
0.993151496346D-06 0.000000000000D+00 0.000000000000D+00 0.403486505826D-06 0.000000000000D+00  7 2 -2 23 -11 11 23 21 2 0.53621513D+00 0.36569113D-02 0.33683817D+05 0.33683817D+05 0.33683817D+05 0.11626976D+01  1  2 15  1  7  1        2 0.441376052430D-04 0.100000000000D+01
  </mgrwgt>
  </event>
  <event>
  8     66 0.55102590E-06 0.10060083E+03 0.75467711E-02 0.10302322E+00
        2 -1    0    0  501    0 0.00000000E+00 0.00000000E+00 0.11571965E+04 0.11571966E+04 0.32000000E+00 0.0000E+00 0.9000E+01
       -2 -1    0    0    0  501 0.00000000E+00 0.00000000E+00 -.82554477E+02 0.82555097E+02 0.32000000E+00 0.0000E+00 0.9000E+01
       25  2    1    2    0    0 0.64431092E+02 -.65065217E+02 0.25624753E+03 0.41132692E+03 0.30845128E+03 0.0000E+00 0.0000E+00
       23  2    1    2    0    0 -.64431092E+02 0.65065217E+02 0.81839453E+03 0.82842476E+03 0.90183804E+02 0.0000E+00 0.0000E+00
       23  1    3    3    0    0 0.13241899E+03 -.11064072E+03 0.18837735E+03 0.27125161E+03 0.91188000E+02 0.0000E+00 0.9000E+01
      -11  1    4    4    0    0 -.85993922E+02 0.57933792E+02 0.72097261E+03 0.72839054E+03 0.51099893E-03 0.0000E+00 0.9000E+01
       11  1    4    4    0    0 0.21562831E+02 0.71314255E+01 0.97421929E+02 0.10003422E+03 0.51099893E-03 0.0000E+00 0.9000E+01
       23  1    3    3    0    0 -.67987896E+02 0.45575507E+02 0.67870175E+02 0.14007531E+03 0.91188000E+02 0.0000E+00 0.9000E+01
#aMCatNLO 1  0  0  1  2 0.57567110D+02 0.00000000D+00  -5  7  0 0.00000000D+00 0.00000000D+00 0.00000000D+00 0.00000000D+00 0.00000000D+00
  <mgrwgt>
 0.2818932710D-03    9    2    0
 0.309082783343581D+03 0.000000000000000D+00 0.000000000000000D+00 0.309082783343581D+03
 0.309082783343581D+03 0.000000000000000D+00 0.000000000000000D+00 -.309082783343581D+03
 0.216521949115699D+03 0.132418987065637D+03 -.110640723497040D+03 -.937568412086476D+02
 0.207445891819474D+03 -.859939225582786D+02 0.579337919322522D+02 0.179673367720896D+03
 0.312600549336797D+02 0.215628308211784D+02 0.713142552451705D+01 0.214797144166811D+02
 0.162937670818308D+03 -.679878953285366D+02 0.455755060402711D+02 -.107396240928929D+03
 0.000000000000000D+00 0.000000000000000D+00 0.000000000000000D+00 0.000000000000000D+00
 0.351926609468233D+03 0.000000000000000D+00 0.000000000000000D+00 0.351926609468233D+03
 0.330380708311400D+03 0.000000000000000D+00 0.000000000000000D+00 -.330380708311400D+03
 0.215702128641590D+03 0.117935201047527D+03 -.124551595882865D+03 -.937568412086476D+02
 0.210382044513196D+03 -.999952953037112D+02 0.444862507130878D+02 0.179673367720896D+03
 0.294870146667905D+02 0.195272025380765D+02 0.517631756891743D+01 0.214797144166811D+02
 0.165269081511620D+03 -.789860710782797D+02 0.350123688094212D+02 -.107396240928929D+03
 0.614670484464372D+02 0.415189627963872D+02 0.398766587914391D+02 0.215459011568330D+02
0.161808879673D-05 0.000000000000D+00 0.000000000000D+00 0.188672651736D-08 0.000000000000D+00  7 2 -2 23 -11 11 23 21 0 0.17803029D+00 0.12700740D-01 0.49307248D+05 0.49307248D+05 0.49307248D+05 0.11478287D+01  1  2  2  1  7  1        2 0.173889311392D-03 0.100000000000D+01
-.779410365411D-07 0.000000000000D+00 -.621388703202D-08 0.188672651736D-08 0.000000000000D+00  7 2 -2 23 -11 11 23 21 2 0.17803029D+00 0.12700740D-01 0.49307248D+05 0.49307248D+05 0.49307248D+05 0.11478287D+01  1  2  3  1  7  1        2 -.110354716906D-04 0.100000000000D+01
0.100632451748D-06 0.000000000000D+00 0.000000000000D+00 0.188672651736D-08 0.000000000000D+00  7 2 -2 23 -11 11 23 21 2 0.17803029D+00 0.12700740D-01 0.49307248D+05 0.49307248D+05 0.49307248D+05 0.11478287D+01  1  2 15  1  7  1        2 0.142482910376D-04 0.100000000000D+01
0.195527290936D-05 0.000000000000D+00 0.000000000000D+00 0.188672651736D-08 0.000000000000D+00  7 2 -2 23 -11 11 23 21 2 0.20818076D+00 0.12700740D-01 0.64285477D+05 0.64285477D+05 0.64285477D+05 0.11378172D+01  1  2 12  1  7  1        2 0.211373183414D-03 0.100000000000D+01
-.192999589821D-05 0.000000000000D+00 0.000000000000D+00 0.188672651736D-08 0.000000000000D+00  7 2 -2 23 -11 11 23 21 2 0.17803029D+00 0.12700740D-01 0.49307248D+05 0.49307248D+05 0.49307248D+05 0.11478287D+01  1  2  4  1  7  1        2 -.273263174866D-03 0.100000000000D+01
-.438719420213D-05 0.000000000000D+00 -.119854517699D-05 0.188672651736D-08 0.000000000000D+00  7 2 -2 23 -11 11 23 21 2 0.21081462D+00 0.12700740D-01 0.49307248D+05 0.49307248D+05 0.49307248D+05 0.11478287D+01  1  2  5  1  7  1        2 -.473770697439D-03 0.100000000000D+01
0.454166696400D-05 0.000000000000D+00 0.118162565573D-05 0.188672651736D-08 0.000000000000D+00  7 2 -2 23 -11 11 23 21 2 0.17803029D+00 0.12700740D-01 0.49307248D+05 0.49307248D+05 0.49307248D+05 0.11478287D+01  1  2  6  1  7  1        2 0.643042990360D-03 0.100000000000D+01
0.461426623310D-07 0.000000000000D+00 0.000000000000D+00 0.188672651736D-08 0.000000000000D+00  7 21 -2 23 -11 11 23 -2 2 0.20818076D+00 0.12700740D-01 0.64285477D+05 0.64285477D+05 0.64285477D+05 0.11378172D+01  1  2 12  3  7  1        2 0.226487362243D-05 0.100000000000D+01
-.998257839330D-07 0.000000000000D+00 -.300831494867D-07 0.188672651736D-08 0.000000000000D+00  7 21 -2 23 -11 11 23 -2 2 0.21081462D+00 0.12700740D-01 0.49307248D+05 0.49307248D+05 0.49307248D+05 0.11478287D+01  1  2  5  3  7  1        2 -.485603484342D-05 0.100000000000D+01
  </mgrwgt>
  </event>
  <event>
  8     66 0.55102590E-06 0.24291866E+03 0.75467711E-02 0.93582260E-01
        2 -1    0    0  501    0 0.00000000E+00 0.00000000E+00 0.86519672E+03 0.86519678E+03 0.32000000E+00 0.0000E+00 0.9000E+01
       -2 -1    0    0    0  501 0.00000000E+00 0.00000000E+00 -.70702492E+02 0.70703217E+02 0.32000000E+00 0.0000E+00 0.9000E+01
       25  2    1    2    0    0 -.10936177E+03 0.77879764E+02 0.58431484E+03 0.67048118E+03 0.30015983E+03 0.0000E+00 0.0000E+00
       23  2    1    2    0    0 0.10936177E+03 -.77879764E+02 0.21017939E+03 0.26541882E+03 0.90810348E+02 0.0000E+00 0.0000E+00
       23  1    3    3    0    0 0.20241891E+02 0.12739293E+03 0.22789775E+03 0.27729286E+03 0.91188000E+02 0.0000E+00 0.9000E+01
      -13  1    4    4    0    0 -.12292451E+02 -.27593093E+02 0.33788597E+02 0.45322882E+02 0.10565837E+00 0.0000E+00 0.9000E+01
       13  1    4    4    0    0 0.12165422E+03 -.50286671E+02 0.17639079E+03 0.22009593E+03 0.10565837E+00 0.0000E+00 0.9000E+01
       23  1    3    3    0    0 -.12960366E+03 -.49513165E+02 0.35641709E+03 0.39318832E+03 0.91188000E+02 0.0000E+00 0.9000E+01
#aMCatNLO 1  0  0  1  2 0.44139415D+03 0.00000000D+00  -5  7  0 0.00000000D+00 0.00000000D+00 0.00000000D+00 0.00000000D+00 0.00000000D+00
  <mgrwgt>
 0.2127297544D-03    5    2    0
 0.247329599853061D+03 0.000000000000000D+00 0.000000000000000D+00 0.247329599853061D+03
 0.247329599853061D+03 0.000000000000000D+00 0.000000000000000D+00 -.247329599853061D+03
 0.158604018282769D+03 0.202418888430402D+02 0.127392930342333D+03 -.141876885467790D+02
 0.314818160373860D+02 -.122926277130849D+02 -.275930613521027D+02 -.886673616041477D+01
 0.133114655743831D+03 0.121654401960701D+03 -.502867052108088D+02 -.197728434076680D+02
 0.171458709642136D+03 -.129603663090656D+03 -.495131637794212D+02 0.428272681148618D+02
 0.000000000000000D+00 -.000000000000000D+00 0.000000000000000D+00 0.000000000000000D+00
 0.642603165152723D+03 0.000000000000000D+00 0.000000000000000D+00 0.642603165152723D+03
 0.488033103237147D+03 0.000000000000000D+00 0.000000000000000D+00 -.488033103237147D+03
 0.129840127617041D+03 0.833593334548558D+02 0.373247694603886D+02 -.141876885467790D+02
 0.560617911484603D+02 0.686369373151975D+01 -.549290007645786D+02 -.886673616041477D+01
 0.277450374199476D+03 0.211494379319771D+03 -.178487737178636D+03 -.197728434076680D+02
 0.199608127253452D+03 -.484066935630650D+02 -.165380682807090D+03 0.428272681148618D+02
 0.467675848171443D+03 -.253310712943081D+03 0.361472651289916D+03 0.154570061915576D+03
0.101344879717D-05 0.000000000000D+00 0.000000000000D+00 0.148251536468D-06 0.000000000000D+00  7 2 -2 23 -13 13 23 21 0 0.13310725D+00 0.10877367D-01 0.59009477D+05 0.59009477D+05 0.59009477D+05 0.11410198D+01  1  2  2  1  7  1        2 0.207535698270D-03 0.100000000000D+01
-.562805430906D-07 0.000000000000D+00 -.389191022833D-08 0.148251536468D-06 0.000000000000D+00  7 2 -2 23 -13 13 23 21 2 0.13310725D+00 0.10877367D-01 0.59009477D+05 0.59009477D+05 0.59009477D+05 0.11410198D+01  1  2  3  1  7  1        2 -.150049879812D-04 0.100000000000D+01
0.652448678105D-07 0.000000000000D+00 0.000000000000D+00 0.148251536468D-06 0.000000000000D+00  7 2 -2 23 -13 13 23 21 2 0.13310725D+00 0.10877367D-01 0.59009477D+05 0.59009477D+05 0.59009477D+05 0.11410198D+01  1  2 15  1  7  1        2 0.173949717534D-04 0.100000000000D+01
0.175574670530D-06 0.000000000000D+00 -.322823858546D-06 0.148251536468D-06 0.000000000000D+00  7 2 -2 23 -13 13 23 21 2 0.46960160D+00 0.10877367D-01 0.59009477D+05 0.59009477D+05 0.59009477D+05 0.11410198D+01  1  2  5  1  7  1        2 0.276491513449D-05 0.100000000000D+01
0.358873017966D-07 0.000000000000D+00 -.476778629042D-07 0.148251536468D-06 0.000000000000D+00  7 21 -2 23 -13 13 23 -2 2 0.46960160D+00 0.10877367D-01 0.59009477D+05 0.59009477D+05 0.59009477D+05 0.11410198D+01  1  2  5  3  7  1        2 0.391572145974D-07 0.100000000000D+01
  </mgrwgt>
  </event>
  <event>
  8     66 0.55102590E-06 0.62632122E+03 0.75467711E-02 0.85993051E-01
        2 -1    0    0  501    0 0.00000000E+00 0.00000000E+00 0.16410776E+04 0.16410777E+04 0.32000000E+00 0.0000E+00 0.9000E+01
       -2 -1    0    0    0  501 0.00000000E+00 0.00000000E+00 -.70110967E+03 0.70110975E+03 0.32000000E+00 0.0000E+00 0.9000E+01
       25  2    1    2    0    0 -.89549224E+03 -.12938743E+03 0.10593207E+04 0.14249692E+04 0.29954857E+03 0.0000E+00 0.0000E+00
       23  2    1    2    0    0 0.89549224E+03 0.12938743E+03 -.11935273E+03 0.91721824E+03 0.91633921E+02 0.0000E+00 0.0000E+00
       23  1    3    3    0    0 -.34233613E+03 -.16203009E+03 0.47906015E+03 0.61746389E+03 0.91188000E+02 0.0000E+00 0.9000E+01
      -13  1    4    4    0    0 0.32381338E+02 0.22346748E+02 -.10416496E+02 0.40699420E+02 0.10565837E+00 0.0000E+00 0.9000E+01
       13  1    4    4    0    0 0.86311090E+03 0.10704068E+03 -.10893624E+03 0.87651882E+03 0.10565837E+00 0.0000E+00 0.9000E+01
       23  1    3    3    0    0 -.55315611E+03 0.32642669E+02 0.58026054E+03 0.80750528E+03 0.91188000E+02 0.0000E+00 0.9000E+01
#aMCatNLO 1  0  0  2  1 0.40867069D+03 0.00000000D+00  -5  7  0 0.00000000D+00 0.00000000D+00 0.00000000D+00 0.00000000D+00 0.00000000D+00
  <mgrwgt>
 0.3711707714D-03    9    2    0
 0.107264883479621D+04 0.000000000000000D+00 0.000000000000000D+00 0.107264883479621D+04
 0.107264883479621D+04 0.000000000000000D+00 0.000000000000000D+00 -.107264883479621D+04
 0.464231591008184D+03 -.342336125942204D+03 -.162030094509799D+03 0.252483552125715D+03
 0.489974496794010D+02 0.323802337841060D+02 0.223466355967274D+02 -.292044245394284D+02
 0.100469537472881D+04 0.863112003587371D+03 0.107040790048443D+03 -.502983831281544D+03
 0.627373254176022D+03 -.553156111429273D+03 0.326426688646280D+02 0.279704703695257D+03
 0.000000000000000D+00 -.000000000000000D+00 0.000000000000000D+00 -.000000000000000D+00
 0.115717505726683D+04 0.000000000000000D+00 0.000000000000000D+00 0.115717505726683D+04
 0.173195595270175D+04 0.000000000000000D+00 0.000000000000000D+00 -.173195595270175D+04
 0.484234730826644D+03 -.317608659347003D+03 -.248082281931888D+03 0.252483552125715D+03
 0.474907283178913D+02 0.348957771864740D+02 0.135924831446123D+02 -.292044245394284D+02
 0.104857375458080D+04 0.916642785479279D+03 -.792476377805309D+02 -.502983831281544D+03
 0.603576658054707D+03 -.521064014815693D+03 -.790386108138818D+02 0.279704703695257D+03
 0.705255138188541D+03 -.112865888503057D+03 0.392776047381688D+03 -.574780895434922D+03
0.394234837862D-03 0.000000000000D+00 0.000000000000D+00 0.490718360122D-05 0.000000000000D+00  7 2 -2 23 -13 13 23 21 0 0.25247349D+00 0.10786303D+00 0.86509164D+06 0.86509164D+06 0.86509164D+06 0.10520794D+01  1  2  2  2  7  2       -2 0.350631654018D-03 0.100000000000D+01
-.213604976707D-04 0.000000000000D+00 -.151396558181D-05 0.490718360122D-05 0.000000000000D+00  7 2 -2 23 -13 13 23 21 2 0.25247349D+00 0.10786303D+00 0.86509164D+06 0.86509164D+06 0.86509164D+06 0.10520794D+01  1  2  3  2  7  2       -2 -.210283169780D-04 0.100000000000D+01
0.250068646195D-04 0.000000000000D+00 0.000000000000D+00 0.490718360122D-05 0.000000000000D+00  7 2 -2 23 -13 13 23 21 2 0.25247349D+00 0.10786303D+00 0.86509164D+06 0.86509164D+06 0.86509164D+06 0.10520794D+01  1  2 15  2  7  2       -2 0.246179786611D-04 0.100000000000D+01
0.371176281359D-03 0.000000000000D+00 0.000000000000D+00 0.490718360122D-05 0.000000000000D+00  7 2 -2 23 -13 13 23 21 2 0.25247349D+00 0.17622645D+00 0.13389253D+07 0.13389253D+07 0.13389253D+07 0.10395290D+01  1  2 12  2  7  2       -2 0.912129229500D-04 0.100000000000D+01
-.474391543155D-03 0.000000000000D+00 0.000000000000D+00 0.490718360122D-05 0.000000000000D+00  7 2 -2 23 -13 13 23 21 2 0.25247349D+00 0.10786303D+00 0.86509164D+06 0.86509164D+06 0.86509164D+06 0.10520794D+01  1  2  4  2  7  2       -2 -.467014200464D-03 0.100000000000D+01
-.522387848298D-03 0.000000000000D+00 -.131119051471D-03 0.490718360122D-05 0.000000000000D+00  7 2 -2 23 -13 13 23 21 2 0.25247349D+00 0.18055411D+00 0.86509164D+06 0.86509164D+06 0.86509164D+06 0.10520794D+01  1  2  5  2  7  2       -2 -.126130687972D-03 0.100000000000D+01
0.533257289011D-03 0.000000000000D+00 0.115456244766D-03 0.490718360122D-05 0.000000000000D+00  7 2 -2 23 -13 13 23 21 2 0.25247349D+00 0.10786303D+00 0.86509164D+06 0.86509164D+06 0.86509164D+06 0.10520794D+01  1  2  6  2  7  2       -2 0.524964515203D-03 0.100000000000D+01
0.206270188427D-04 0.000000000000D+00 0.000000000000D+00 0.490718360122D-05 0.000000000000D+00  7 2 21 23 -13 13 23 2 2 0.25247349D+00 0.17622645D+00 0.13389253D+07 0.13389253D+07 0.13389253D+07 0.10395290D+01  1  2 12  4  7  2       -2 0.394509911501D-04 0.100000000000D+01
-.240514544954D-04 0.000000000000D+00 -.757133331655D-05 0.490718360122D-05 0.000000000000D+00  7 2 21 23 -13 13 23 2 2 0.25247349D+00 0.18055411D+00 0.86509164D+06 0.86509164D+06 0.86509164D+06 0.10520794D+01  1  2  5  4  7  2       -2 -.455340851331D-04 0.100000000000D+01
  </mgrwgt>
  </event>
  <event>
  8     66 0.55102590E-06 0.27807661E+03 0.75467711E-02 0.89400251E-01
        2 -1    0    0  501    0 0.00000000E+00 0.00000000E+00 0.23615848E+03 0.23615870E+03 0.32000000E+00 0.0000E+00 0.9000E+01
       -2 -1    0    0    0  501 0.00000000E+00 0.00000000E+00 -.40061169E+03 0.40061182E+03 0.32000000E+00 0.0000E+00 0.9000E+01
       25  2    1    2    0    0 -.21596942E+03 -.38342118E+02 -.14662009E+03 0.39930857E+03 0.29972816E+03 0.0000E+00 0.0000E+00
       23  2    1    2    0    0 0.21596942E+03 0.38342118E+02 -.17833114E+02 0.23746195E+03 0.89203405E+02 0.0000E+00 0.0000E+00
       23  1    3    3    0    0 -.15953854E+03 -.86875305E+02 0.98591818E+01 0.20350017E+03 0.91188000E+02 0.0000E+00 0.9000E+01
      -13  1    4    4    0    0 0.25551290E+02 -.23763434E+02 -.12613720E+02 0.37103724E+02 0.10565837E+00 0.0000E+00 0.9000E+01
       13  1    4    4    0    0 0.19041813E+03 0.62105552E+02 -.52193939E+01 0.20035822E+03 0.10565837E+00 0.0000E+00 0.9000E+01
       23  1    3    3    0    0 -.56430884E+02 0.48533188E+02 -.15647928E+03 0.19580840E+03 0.91188000E+02 0.0000E+00 0.9000E+01
#aMCatNLO 1  0  0  2  2 0.72454089D+03 0.00000000D+00  -5  7  0 0.00000000D+00 0.00000000D+00 0.00000000D+00 0.00000000D+00 0.00000000D+00
  <mgrwgt>
 0.2394942868D-03    3    2    0
 0.307584067194287D+03 0.000000000000000D+00 0.000000000000000D+00 0.307584067194287D+03
 0.307584067194287D+03 0.000000000000000D+00 0.000000000000000D+00 -.307584067194287D+03
 0.213281986085493D+03 -.159538537932762D+03 -.868753052361952D+02 0.646072016029710D+02
 0.350343938911714D+02 0.255510585259365D+02 -.237635538925053D+02 -.313778105098360D+01
 0.205998985013971D+03 0.190418363855699D+03 0.621056715901594D+02 0.481592575694465D+02
 0.160852769397938D+03 -.564308844488730D+02 0.485331875385411D+02 -.109628678121434D+03
 0.000000000000000D+00 -.000000000000000D+00 0.000000000000000D+00 0.000000000000000D+00
 0.850062135716474D+03 0.000000000000000D+00 0.000000000000000D+00 0.850062135716474D+03
 0.825368438690017D+03 0.000000000000000D+00 0.000000000000000D+00 -.825368438690017D+03
 0.410705357371843D+03 -.127979984206324D+03 -.373912653401186D+03 0.646072016029710D+02
 0.852398726014136D+02 0.316340054651860D+02 -.790903275338387D+02 -.313778105098360D+01
 0.270080626380352D+03 0.214496390680736D+03 -.156893368378973D+03 0.481592575694465D+02
 0.184443149405873D+03 -.389673254210366D+02 -.110304689390955D+03 -.109628678121434D+03
 0.724961568647010D+03 -.791830865185619D+02 0.720201038704952D+03 0.246936970264576D+02
0.544239051010D-05 0.000000000000D+00 0.000000000000D+00 0.858150679732D-07 0.000000000000D+00  7 2 -2 23 -13 13 23 21 0 0.36332101D-01 0.61632594D-01 0.77326602D+05 0.77326602D+05 0.77326602D+05 0.11310028D+01  1  2  2  2  7  2       -2 0.236595325553D-03 0.100000000000D+01
-.298615939156D-06 0.000000000000D+00 -.209002125731D-07 0.858150679732D-07 0.000000000000D+00  7 2 -2 23 -13 13 23 21 2 0.36332101D-01 0.61632594D-01 0.77326602D+05 0.77326602D+05 0.77326602D+05 0.11310028D+01  1  2  3  2  7  2       -2 -.166056850011D-04 0.100000000000D+01
0.350747244892D-06 0.000000000000D+00 0.000000000000D+00 0.858150679732D-07 0.000000000000D+00  7 2 -2 23 -13 13 23 21 2 0.36332101D-01 0.61632594D-01 0.77326602D+05 0.77326602D+05 0.77326602D+05 0.11310028D+01  1  2 15  2  7  2       -2 0.195046462695D-04 0.100000000000D+01
  </mgrwgt>
  </event>
  <event>
  8     66 0.55102590E-06 0.29155939E+03 0.75467711E-02 0.91662534E-01
        2 -1    0    0  501    0 0.00000000E+00 0.00000000E+00 0.37158269E+03 0.37158283E+03 0.32000000E+00 0.0000E+00 0.9000E+01
       -2 -1    0    0    0  501 0.00000000E+00 0.00000000E+00 -.59765559E+03 0.59765567E+03 0.32000000E+00 0.0000E+00 0.9000E+01
       25  2    1    2    0    0 -.72075822E+02 0.20221556E+03 0.24643560E+03 0.44325964E+03 0.29943705E+03 0.0000E+00 0.0000E+00
       23  2    1    2    0    0 0.72075822E+02 -.20221556E+03 -.47250850E+03 0.52597886E+03 0.85460107E+02 0.0000E+00 0.0000E+00
       23  1    3    3    0    0 0.45798029E+02 0.18925376E+03 0.11346586E+03 0.24311355E+03 0.91188000E+02 0.0000E+00 0.9000E+01
      -11  1    4    4    0    0 0.51518350E+01 0.36813564E+00 -.72027100E+02 0.72212049E+02 0.51099893E-03 0.0000E+00 0.9000E+01
       11  1    4    4    0    0 0.66923987E+02 -.20258369E+03 -.40048140E+03 0.45376681E+03 0.51099893E-03 0.0000E+00 0.9000E+01
       23  1    3    3    0    0 -.11787385E+03 0.12961797E+02 0.13296974E+03 0.20014609E+03 0.91188000E+02 0.0000E+00 0.9000E+01
#aMCatNLO 1  0  0  1  2 0.52412266D+03 0.00000000D+00  -5  7  0 0.00000000D+00 0.00000000D+00 0.00000000D+00 0.00000000D+00 0.00000000D+00
  <mgrwgt>
 0.3321294161D-03    5    2    0
 0.471252138466092D+03 0.000000000000000D+00 0.000000000000000D+00 0.471252138466092D+03
 0.471252138466092D+03 0.000000000000000D+00 0.000000000000000D+00 -.471252138466092D+03
 0.277225870333350D+03 0.457980290071727D+02 0.189253761801683D+03 0.174998531482563D+03
 0.569836380454866D+02 0.515183501768533D+01 0.368135646730700D+00 -.567490799660680D+02
 0.370576860510498D+03 0.669239873367352D+02 -.202583694489093D+03 -.302998739588004D+03
 0.237717908042849D+03 -.117873851361593D+03 0.129617970406791D+02 0.184749288071510D+03
 0.000000000000000D+00 -.000000000000000D+00 0.000000000000000D+00 0.000000000000000D+00
 0.165041583328864D+04 0.000000000000000D+00 0.000000000000000D+00 0.165041583328864D+04
 0.601020399809573D+03 0.000000000000000D+00 0.000000000000000D+00 -.601020399809573D+03
 0.223559949273221D+03 0.827495451472047D+02 0.647443150548566D+02 0.174998531482563D+03
 0.658207396081616D+02 0.142132096917932D+02 -.301644883236454D+02 -.567490799660680D+02
 0.542610550275598D+03 0.134305406752817D+03 -.429627781684831D+03 -.302998739588004D+03
 0.246442290637859D+03 -.821490910040287D+02 -.107414052503000D+03 0.184749288071510D+03
 0.117300270330337D+04 -.149119070587786D+03 0.502462007456620D+03 0.104939543347907D+04
0.313280930264D-04 0.000000000000D+00 0.000000000000D+00 0.362430887885D-07 0.000000000000D+00  7 2 -2 23 -11 11 23 21 0 0.57166585D-01 0.91947031D-01 0.85006877D+05 0.85006877D+05 0.85006877D+05 0.11275575D+01  1  2  2  1  7  1        2 0.345640121144D-03 0.100000000000D+01
-.125258870725D-05 0.000000000000D+00 -.120308126098D-06 0.362430887885D-07 0.000000000000D+00  7 2 -2 23 -11 11 23 21 2 0.57166585D-01 0.91947031D-01 0.85006877D+05 0.85006877D+05 0.85006877D+05 0.11275575D+01  1  2  3  1  7  1        2 -.175701757205D-04 0.100000000000D+01
0.196226930517D-05 0.000000000000D+00 0.000000000000D+00 0.362430887885D-07 0.000000000000D+00  7 2 -2 23 -11 11 23 21 2 0.57166585D-01 0.91947031D-01 0.85006877D+05 0.85006877D+05 0.85006877D+05 0.11275575D+01  1  2 15  1  7  1        2 0.275249300133D-04 0.100000000000D+01
-.932280752596D-05 0.000000000000D+00 -.114626807165D-04 0.362430887885D-07 0.000000000000D+00  7 2 -2 23 -11 11 23 21 2 0.22504624D+00 0.91947031D-01 0.85006877D+05 0.85006877D+05 0.85006877D+05 0.11275575D+01  1  2  5  1  7  1        2 -.222042056630D-04 0.100000000000D+01
-.135768472186D-05 0.000000000000D+00 -.187062316667D-05 0.362430887885D-07 0.000000000000D+00  7 21 -2 23 -11 11 23 -2 2 0.22504624D+00 0.91947031D-01 0.85006877D+05 0.85006877D+05 0.85006877D+05 0.11275575D+01  1  2  5  3  7  1        2 -.126125369956D-05 0.100000000000D+01
  </mgrwgt>
  </event>
  <event>
  8     66 0.55102590E-06 0.21465460E+03 0.75467711E-02 0.88317098E-01
        2 -1    0    0  501    0 0.00000000E+00 0.00000000E+00 0.60971851E+03 0.60971859E+03 0.32000000E+00 0.0000E+00 0.9000E+01
       -2 -1    0    0    0  501 0.00000000E+00 0.00000000E+00 -.20667187E+03 0.20667212E+03 0.32000000E+00 0.0000E+00 0.9000E+01
       25  2    1    2    0    0 0.74201880E+02 0.10116857E+02 -.79269733E+02 0.31911500E+03 0.29990403E+03 0.0000E+00 0.0000E+00
       23  2    1    2    0    0 -.74201880E+02 -.10116857E+02 0.48231637E+03 0.49727571E+03 0.95109307E+02 0.0000E+00 0.0000E+00
       23  1    3    3    0    0 -.78560780E+02 -.35237015E+02 -.36152229E+02 0.13052080E+03 0.91188000E+02 0.0000E+00 0.9000E+01
      -13  1    4    4    0    0 0.22530273E+02 -.66911519E+01 0.73957631E+02 0.77602365E+02 0.10565837E+00 0.0000E+00 0.9000E+01
       13  1    4    4    0    0 -.96732153E+02 -.34257054E+01 0.40835874E+03 0.41967334E+03 0.10565837E+00 0.0000E+00 0.9000E+01
       23  1    3    3    0    0 0.15276266E+03 0.45353872E+02 -.43117504E+02 0.18859421E+03 0.91188000E+02 0.0000E+00 0.9000E+01
#aMCatNLO 1  0  0  1  2 0.87836640D+03 0.00000000D+00  -5  7  0 0.00000000D+00 0.00000000D+00 0.00000000D+00 0.00000000D+00 0.00000000D+00
  <mgrwgt>
 0.2497011006D-03    5    2    0
 0.354981408368637D+03 0.000000000000000D+00 0.000000000000000D+00 0.354981408368637D+03
 0.354981408368637D+03 0.000000000000000D+00 0.000000000000000D+00 -.354981408368637D+03
 0.170610344222442D+03 -.785607798182194D+02 -.352370145169086D+02 -.115668469748625D+03
 0.472493696022598D+02 0.225304130805770D+02 -.669115499297996D+01 0.409891675822946D+02
 0.250759584746751D+03 -.967322937362810D+02 -.342570253115396D+01 0.231325522269051D+03
 0.241343518165822D+03 0.152762660473923D+03 0.453538720410425D+02 -.156646220102721D+03
 0.000000000000000D+00 -.000000000000000D+00 0.000000000000000D+00 0.000000000000000D+00
 0.114950263493743D+04 0.000000000000000D+00 0.000000000000000D+00 0.114950263493743D+04
 0.894534411608555D+03 0.000000000000000D+00 0.000000000000000D+00 -.894534411608555D+03
 0.185429591049118D+03 0.877289795296655D+02 -.706633791248210D+02 -.115668469748625D+03
 0.104152332271818D+03 0.932431339732429D+02 -.217557906180780D+02 0.409891675822946D+02
 0.282742582719817D+03 0.152441852899615D+03 -.565097541540896D+02 0.231325522269051D+03
 0.557088941160828D+03 0.525673472896414D+03 -.340910346021519D+02 -.156646220102721D+03
 0.914623599344406D+03 -.859087439298938D+03 0.183019958499140D+03 0.254968223328877D+03
0.428911855967D-05 0.000000000000D+00 0.000000000000D+00 0.116307583225D-06 0.000000000000D+00  7 2 -2 23 -13 13 23 21 0 0.93802873D-01 0.31795698D-01 0.46076597D+05 0.46076597D+05 0.46076597D+05 0.11504302D+01  1  2  2  1  7  1        2 0.232231233130D-03 0.100000000000D+01
-.164972579970D-06 0.000000000000D+00 -.164713446200D-07 0.116307583225D-06 0.000000000000D+00  7 2 -2 23 -13 13 23 21 2 0.93802873D-01 0.31795698D-01 0.46076597D+05 0.46076597D+05 0.46076597D+05 0.11504302D+01  1  2  3  1  7  1        2 -.118218345328D-04 0.100000000000D+01
0.260327424059D-06 0.000000000000D+00 0.000000000000D+00 0.116307583225D-06 0.000000000000D+00  7 2 -2 23 -13 13 23 21 2 0.93802873D-01 0.31795698D-01 0.46076597D+05 0.46076597D+05 0.46076597D+05 0.11504302D+01  1  2 15  1  7  1        2 0.186549045431D-04 0.100000000000D+01
0.414006046631D-05 0.000000000000D+00 -.177452535666D-05 0.116307583225D-06 0.000000000000D+00  7 2 -2 23 -13 13 23 21 2 0.48064681D+00 0.31795698D-01 0.46076597D+05 0.46076597D+05 0.46076597D+05 0.11504302D+01  1  2  5  1  7  1        2 0.105113227273D-04 0.100000000000D+01
0.766827429195D-06 0.000000000000D+00 -.353852117922D-06 0.116307583225D-06 0.000000000000D+00  7 21 -2 23 -13 13 23 -2 2 0.48064681D+00 0.31795698D-01 0.46076597D+05 0.46076597D+05 0.46076597D+05 0.11504302D+01  1  2  5  3  7  1        2 0.125474745445D-06 0.100000000000D+01
  </mgrwgt>
  </event>
  <event>
  8     66 0.55102590E-06 0.20068508E+03 0.75467711E-02 0.93536753E-01
        2 -1    0    0  501    0 0.00000000E+00 0.00000000E+00 0.71239020E+03 0.71239027E+03 0.32000000E+00 0.0000E+00 0.9000E+01
       -2 -1    0    0    0  501 0.00000000E+00 0.00000000E+00 -.22621913E+03 0.22621936E+03 0.32000000E+00 0.0000E+00 0.9000E+01
       25  2    1    2    0    0 0.33256239E+03 0.56130519E+02 0.19685086E+03 0.48552668E+03 0.28850913E+03 0.0000E+00 0.0000E+00
       23  2    1    2    0    0 -.33256239E+03 -.56130519E+02 0.28932020E+03 0.45308295E+03 0.88485045E+02 0.0000E+00 0.0000E+00
       23  1    3    3    0    0 0.19941112E+03 0.14167268E+03 0.12137560E+03 0.28789448E+03 0.91188000E+02 0.0000E+00 0.9000E+01
      -13  1    4    4    0    0 -.49391587E+02 0.19597555E+02 0.26454372E+02 0.59358554E+02 0.10565837E+00 0.0000E+00 0.9000E+01
       13  1    4    4    0    0 -.28317080E+03 -.75728075E+02 0.26286583E+03 0.39372439E+03 0.10565837E+00 0.0000E+00 0.9000E+01
       23  1    3    3    0    0 0.13315127E+03 -.85542160E+02 0.75475268E+02 0.19763221E+03 0.91188000E+02 0.0000E+00 0.9000E+01
#aMCatNLO 1  0  0  2  1 0.26771756D+03 0.00000000D+00  -5  7  0 0.00000000D+00 0.00000000D+00 0.00000000D+00 0.00000000D+00 0.00000000D+00
  <mgrwgt>
 0.2863719069D-02    9    2    0
 0.401442937458961D+03 0.000000000000000D+00 0.000000000000000D+00 0.401442937458961D+03
 0.401442937458961D+03 0.000000000000000D+00 0.000000000000000D+00 -.401442937458961D+03
 0.263065062180411D+03 0.199411117705846D+03 0.141672678845281D+03 -.324350705269893D+02
 0.533735593924265D+02 -.493912536332855D+02 0.195976911139865D+02 -.501711169400495D+01
 0.301108833736741D+03 -.283171131999169D+03 -.757282106662564D+02 0.688903321656739D+02
 0.185338419608344D+03 0.133151267926608D+03 -.855421592930109D+02 -.314381499446797D+02
 0.000000000000000D+00 0.000000000000000D+00 -.000000000000000D+00 -.000000000000000D+00
 0.516696687637957D+03 0.000000000000000D+00 0.000000000000000D+00 0.516696687637957D+03
 0.614759856132020D+03 0.000000000000000D+00 0.000000000000000D+00 -.614759856132020D+03
 0.242000479182975D+03 0.127676711655316D+03 0.181371453325997D+03 -.324350705269893D+02
 0.738365011172492D+02 -.674588852315140D+02 0.295965587663303D+02 -.501711169400495D+01
 0.387794758854935D+03 -.381016037250950D+03 -.215795386198001D+02 0.688903321656739D+02
 0.142712410831427D+03 0.865582427670309D+02 -.597569594144272D+02 -.314381499446797D+02
 0.285112393783390D+03 0.234239968060117D+03 -.129631514058100D+03 -.980631684940632D+02
0.684608129540D-04 0.000000000000D+00 0.000000000000D+00 0.264274349326D-09 0.000000000000D+00  7 2 -2 23 -13 13 23 21 0 0.10959851D+00 0.34802966D-01 0.15601312D+06 0.15601312D+06 0.15601312D+06 0.11062074D+01  1  2  2  2  7  2       -2 0.259052449767D-02 0.100000000000D+01
-.380216222591D-05 0.000000000000D+00 -.262907547889D-06 0.264274349326D-09 0.000000000000D+00  7 2 -2 23 -13 13 23 21 2 0.10959851D+00 0.34802966D-01 0.15601312D+06 0.15601312D+06 0.15601312D+06 0.11062074D+01  1  2  3  2  7  2       -2 -.176055412567D-03 0.100000000000D+01
0.431798899162D-05 0.000000000000D+00 0.000000000000D+00 0.264274349326D-09 0.000000000000D+00  7 2 -2 23 -13 13 23 21 2 0.10959851D+00 0.34802966D-01 0.15601312D+06 0.15601312D+06 0.15601312D+06 0.11062074D+01  1  2 15  2  7  2       -2 0.199940267724D-03 0.100000000000D+01
0.697561179064D-05 0.000000000000D+00 0.000000000000D+00 0.264274349326D-09 0.000000000000D+00  7 2 -2 23 -13 13 23 21 2 0.10959851D+00 0.56149911D-01 0.30361955D+06 0.30361955D+06 0.30361955D+06 0.10841667D+01  1  2 12  2  7  2       -2 0.122090355595D-03 0.100000000000D+01
-.271946639086D-04 0.000000000000D+00 0.000000000000D+00 0.264274349326D-09 0.000000000000D+00  7 2 -2 23 -13 13 23 21 2 0.10959851D+00 0.34802966D-01 0.15601312D+06 0.15601312D+06 0.15601312D+06 0.11062074D+01  1  2  4  2  7  2       -2 -.125922238178D-02 0.100000000000D+01
-.283859100038D-04 0.000000000000D+00 -.222489762410D-04 0.264274349326D-09 0.000000000000D+00  7 2 -2 23 -13 13 23 21 2 0.10959851D+00 0.66784068D-01 0.15601312D+06 0.15601312D+06 0.15601312D+06 0.11062074D+01  1  2  5  2  7  2       -2 -.367025099136D-03 0.100000000000D+01
0.384414099733D-04 0.000000000000D+00 0.182365246908D-04 0.264274349326D-09 0.000000000000D+00  7 2 -2 23 -13 13 23 21 2 0.10959851D+00 0.34802966D-01 0.15601312D+06 0.15601312D+06 0.15601312D+06 0.11062074D+01  1  2  6  2  7  2       -2 0.177999198624D-02 0.100000000000D+01
0.379864922375D-06 0.000000000000D+00 0.000000000000D+00 0.264274349326D-09 0.000000000000D+00  7 2 21 23 -13 13 23 2 2 0.10959851D+00 0.56149911D-01 0.30361955D+06 0.30361955D+06 0.30361955D+06 0.10841667D+01  1  2 12  4  7  2       -2 0.678736312536D-04 0.100000000000D+01
-.723560969122D-06 0.000000000000D+00 -.157385675294D-05 0.264274349326D-09 0.000000000000D+00  7 2 21 23 -13 13 23 2 2 0.10959851D+00 0.66784068D-01 0.15601312D+06 0.15601312D+06 0.15601312D+06 0.11062074D+01  1  2  5  4  7  2       -2 -.943987762939D-04 0.100000000000D+01
  </mgrwgt>
  </event>
  <event>
  8     66 0.55102590E-06 0.48349969E+03 0.75467711E-02 0.80167289E-01
        2 -1    0    0  501    0 0.00000000E+00 0.00000000E+00 0.32640017E+03 0.32640032E+03 0.32000000E+00 0.0000E+00 0.9000E+01
       -2 -1    0    0    0  501 0.00000000E+00 0.00000000E+00 -.76005545E+03 0.76005552E+03 0.32000000E+00 0.0000E+00 0.9000E+01
       25  2    1    2    0    0 0.41909704E+03 -.15688576E+03 -.20889657E+03 0.57741316E+03 0.29918674E+03 0.0000E+00 0.0000E+00
       23  2    1    2    0    0 -.41909704E+03 0.15688576E+03 -.22475872E+03 0.50904268E+03 0.91391998E+02 0.0000E+00 0.0000E+00
       23  1    3    3    0    0 0.13252177E+03 0.19823471E+02 0.15246648E+02 0.16279650E+03 0.91188000E+02 0.0000E+00 0.9000E+01
      -13  1    4    4    0    0 -.34164226E+03 0.88822517E+02 -.18492590E+03 0.39850530E+03 0.10565837E+00 0.0000E+00 0.9000E+01
       13  1    4    4    0    0 -.77454780E+02 0.68063242E+02 -.39832818E+02 0.11053738E+03 0.10565837E+00 0.0000E+00 0.9000E+01
       23  1    3    3    0    0 0.28657527E+03 -.17670923E+03 -.22414321E+03 0.41461666E+03 0.91188000E+02 0.0000E+00 0.9000E+01
#aMCatNLO 1  0  0  2  1 0.21615201D+04 0.00000000D+00  -5  7  0 0.00000000D+00 0.00000000D+00 0.00000000D+00 0.00000000D+00 0.00000000D+00
  <mgrwgt>
 0.1899193926D-03    3    2    0
 0.498078654530689D+03 0.000000000000000D+00 0.000000000000000D+00 0.498078654530689D+03
 0.498078654530689D+03 0.000000000000000D+00 0.000000000000000D+00 -.498078654530689D+03
 0.184190787103363D+03 0.132521768752082D+03 0.198234709349807D+02 0.874986029412245D+02
 0.354125446133945D+03 -.341642616064204D+03 0.888225443063474D+02 -.282083340755792D+02
 0.103216565657382D+03 -.774544271578524D+02 0.680632143904441D+02 0.467653574712350D+01
 0.354624510166688D+03 0.286575274469974D+03 -.176709229631772D+03 -.639668046127689D+02
 0.000000000000000D+00 0.000000000000000D+00 -.000000000000000D+00 0.000000000000000D+00
 0.571327067998965D+04 0.000000000000000D+00 0.000000000000000D+00 0.571327067998965D+04
 0.144824053989797D+04 0.000000000000000D+00 0.000000000000000D+00 -.144824053989797D+04
 0.384674437683736D+03 0.110035930973130D+02 0.363155733929097D+03 0.874986029412245D+02
 0.127510890921812D+04 -.689671600698574D+03 0.107212877185810D+04 -.282083340755792D+02
 0.441905315915820D+03 -.193900667272217D+03 0.397065447350251D+03 0.467653574712350D+01
 0.278332061468588D+03 0.151366222303703D+03 0.205304651068824D+03 -.639668046127689D+02
 0.478149049560135D+04 0.721202452569776D+03 -.203765460420628D+04 0.426503014009167D+04
0.271705815090D-04 0.000000000000D+00 0.000000000000D+00 0.220818967852D-06 0.000000000000D+00  7 2 -2 23 -13 13 23 21 0 0.50215427D-01 0.11693162D+00 0.23377195D+06 0.23377195D+06 0.23377195D+06 0.10926587D+01  1  2  2  2  7  2       -2 0.188004862402D-03 0.100000000000D+01
-.150785704822D-05 0.000000000000D+00 -.104342187173D-06 0.220818967852D-06 0.000000000000D+00  7 2 -2 23 -13 13 23 21 2 0.50215427D-01 0.11693162D+00 0.23377195D+06 0.23377195D+06 0.23377195D+06 0.10926587D+01  1  2  3  2  7  2       -2 -.124565951695D-04 0.100000000000D+01
0.173960881340D-05 0.000000000000D+00 0.000000000000D+00 0.220818967852D-06 0.000000000000D+00  7 2 -2 23 -13 13 23 21 2 0.50215427D-01 0.11693162D+00 0.23377195D+06 0.23377195D+06 0.23377195D+06 0.10926587D+01  1  2 15  2  7  2       -2 0.143711254110D-04 0.100000000000D+01
  </mgrwgt>
  </event>
  <event>
  8     66 0.55102590E-06 0.29674760E+03 0.75467711E-02 0.98415718E-01
        2 -1    0    0  501    0 0.00000000E+00 0.00000000E+00 0.11008052E+04 0.11008052E+04 0.32000000E+00 0.0000E+00 0.9000E+01
       -2 -1    0    0    0  501 0.00000000E+00 0.00000000E+00 -.85881851E+02 0.85882448E+02 0.32000000E+00 0.0000E+00 0.9000E+01
       25  2    1    2    0    0 -.97750903E+02 -.19091618E+03 0.50138218E+03 0.62239732E+03 0.29998351E+03 0.0000E+00 0.0000E+00
       23  2    1    2    0    0 0.97750903E+02 0.19091618E+03 0.51354116E+03 0.56429037E+03 0.93246275E+02 0.0000E+00 0.0000E+00
       23  1    3    3    0    0 -.16067604E+03 -.17604369E+03 0.31944582E+03 0.40886313E+03 0.91188000E+02 0.0000E+00 0.9000E+01
      -11  1    4    4    0    0 0.48364524E+02 0.16248713E+03 0.43801068E+03 0.46967494E+03 0.51099893E-03 0.0000E+00 0.9000E+01
       11  1    4    4    0    0 0.49386379E+02 0.28429044E+02 0.75530484E+02 0.94615427E+02 0.51099893E-03 0.0000E+00 0.9000E+01
       23  1    3    3    0    0 0.62925136E+02 -.14872488E+02 0.18193636E+03 0.21353419E+03 0.91188000E+02 0.0000E+00 0.9000E+01
#aMCatNLO 1  0  0  2  2 0.12061712D+03 0.00000000D+00  -5  7  0 0.00000000D+00 0.00000000D+00 0.00000000D+00 0.00000000D+00 0.00000000D+00
  <mgrwgt>
 0.2564947161D-03    3    2    0
 0.307472875915201D+03 0.000000000000000D+00 0.000000000000000D+00 0.307472875915201D+03
 0.307472875915201D+03 0.000000000000000D+00 0.000000000000000D+00 -.307472875915201D+03
 0.261778885216598D+03 -.160676038138239D+03 -.176043688226231D+03 -.583503556557240D+02
 0.183447413628694D+03 0.483645235837033D+02 0.162487132836473D+03 0.700839360207520D+02
 0.579259398173549D+02 0.493863789689722D+02 0.284290435847297D+02 -.104014209084349D+02
 0.111793513167755D+03 0.629251355855635D+02 -.148724881949724D+02 -.133215945659308D+01
 0.000000000000000D+00 0.000000000000000D+00 0.000000000000000D+00 0.000000000000000D+00
 0.608520895469302D+03 0.000000000000000D+00 0.000000000000000D+00 0.608520895469302D+03
 0.325652922225260D+03 0.000000000000000D+00 0.000000000000000D+00 -.325652922225260D+03
 0.306266578773773D+03 -.213909411779983D+03 -.190583224541364D+03 -.583503556557240D+02
 0.169394549083505D+03 0.152985645571155D+02 0.153455886474045D+03 0.700839360207520D+02
 0.482159962351382D+02 0.394394755974558D+02 0.257122636232231D+02 -.104014209084349D+02
 0.102786076532583D+03 0.428161897378703D+02 -.203648086775938D+02 -.133215945659308D+01
 0.307510617069562D+03 0.116355181887541D+03 0.317798831216894D+02 0.282867973244042D+03
0.233818411136D-05 0.000000000000D+00 0.000000000000D+00 0.916233378411D-07 0.000000000000D+00  7 2 -2 23 -11 11 23 21 0 0.16935469D+00 0.13212642D-01 0.88059137D+05 0.88059137D+05 0.88059137D+05 0.11262823D+01  1  2  2  2  7  2       -2 0.253708016691D-03 0.100000000000D+01
-.129700020097D-06 0.000000000000D+00 -.897924264564D-08 0.916233378411D-07 0.000000000000D+00  7 2 -2 23 -11 11 23 21 2 0.16935469D+00 0.13212642D-01 0.88059137D+05 0.88059137D+05 0.88059137D+05 0.11262823D+01  1  2  3  2  7  2       -2 -.178521305375D-04 0.100000000000D+01
0.149946061315D-06 0.000000000000D+00 0.000000000000D+00 0.916233378411D-07 0.000000000000D+00  7 2 -2 23 -11 11 23 21 2 0.16935469D+00 0.13212642D-01 0.88059137D+05 0.88059137D+05 0.88059137D+05 0.11262823D+01  1  2 15  2  7  2       -2 0.206388299567D-04 0.100000000000D+01
  </mgrwgt>
  </event>
  <event>
  8     66 0.55102590E-06 0.39956361E+03 0.75467711E-02 0.96913349E-01
        2 -1    0    0  501    0 0.00000000E+00 0.00000000E+00 0.98422053E+03 0.98422058E+03 0.32000000E+00 0.0000E+00 0.9000E+01
       -2 -1    0    0    0  501 0.00000000E+00 0.00000000E+00 -.28901825E+03 0.28901843E+03 0.32000000E+00 0.0000E+00 0.9000E+01
       25  2    1    2    0    0 -.25671006E+03 0.26869881E+03 0.74693439E+03 0.88722313E+03 0.30191852E+03 0.0000E+00 0.0000E+00
       23  2    1    2    0    0 0.25671006E+03 -.26869881E+03 -.51732119E+02 0.38601588E+03 0.90735551E+02 0.0000E+00 0.0000E+00
       23  1    3    3    0    0 -.89776362E+02 0.12336839E+03 0.54756465E+03 0.57569250E+03 0.91188000E+02 0.0000E+00 0.9000E+01
      -11  1    4    4    0    0 0.19276439E+03 -.24938248E+03 -.50408431E+02 0.31920330E+03 0.51099893E-03 0.0000E+00 0.9000E+01
       11  1    4    4    0    0 0.63945670E+02 -.19316327E+02 -.13236882E+01 0.66812584E+02 0.51099893E-03 0.0000E+00 0.9000E+01
       23  1    3    3    0    0 -.16693370E+03 0.14533042E+03 0.19936974E+03 0.31153063E+03 0.91188000E+02 0.0000E+00 0.9000E+01
#aMCatNLO 1  0  0  2  1 0.21711548D+02 0.00000000D+00  -5  7  0 0.00000000D+00 0.00000000D+00 0.00000000D+00 0.00000000D+00 0.00000000D+00
  <mgrwgt>
 0.1104452213D-03    4    2    0
 0.533345895858996D+03 0.000000000000000D+00 0.000000000000000D+00 0.533345895858996D+03
 0.533345895858996D+03 0.000000000000000D+00 0.000000000000000D+00 -.533345895858996D+03
 0.330297804247904D+03 -.897763618935322D+02 0.123368389239861D+03 0.278391511236443D+03
 0.413864760516202D+03 0.192764390477606D+03 -.249382484182645D+03 -.268205716463731D+03
 0.806124314664456D+02 0.639456698760412D+02 -.193163272019175D+02 -.451242164969678D+02
 0.241916795487440D+03 -.166933698460115D+03 0.145330422144701D+03 0.349384217242562D+02
 0.000000000000000D+00 0.000000000000000D+00 -.000000000000000D+00 0.000000000000000D+00
 0.556031448310428D+03 0.000000000000000D+00 0.000000000000000D+00 0.556031448310428D+03
 0.538676625023285D+03 0.000000000000000D+00 0.000000000000000D+00 -.538676625023285D+03
 0.332680264471395D+03 -.963722790749432D+02 0.124785645497179D+03 0.278391511236443D+03
 0.409048162117980D+03 0.184577293888283D+03 -.247623333248611D+03 -.268205716463731D+03
 0.792740213724401D+02 0.623549720066651D+02 -.189745359927692D+02 -.451242164969678D+02
 0.245910280349240D+03 -.171787052051863D+03 0.146373256000510D+03 0.349384217242562D+02
 0.277953450226582D+02 0.212270652318580D+02 -.456103225630916D+01 0.173548232871431D+02
0.137268949611D-04 0.000000000000D+00 0.000000000000D+00 0.146565068180D-06 0.000000000000D+00  7 2 -2 23 -11 11 23 21 0 0.15141856D+00 0.44464365D-01 0.15965108D+06 0.15965108D+06 0.15965108D+06 0.11054212D+01  1  2  2  2  7  2       -2 0.216061805191D-03 0.100000000000D+01
-.685271845823D-06 0.000000000000D+00 -.527148910252D-07 0.146565068180D-06 0.000000000000D+00  7 2 -2 23 -11 11 23 21 2 0.15141856D+00 0.44464365D-01 0.15965108D+06 0.15965108D+06 0.15965108D+06 0.11054212D+01  1  2  3  2  7  2       -2 -.131802649126D-04 0.100000000000D+01
0.862512453657D-06 0.000000000000D+00 0.000000000000D+00 0.146565068180D-06 0.000000000000D+00  7 2 -2 23 -11 11 23 21 2 0.15141856D+00 0.44464365D-01 0.15965108D+06 0.15965108D+06 0.15965108D+06 0.11054212D+01  1  2 15  2  7  2       -2 0.165892451279D-04 0.100000000000D+01
-.566848618463D-05 0.000000000000D+00 0.000000000000D+00 0.146565068180D-06 0.000000000000D+00  7 2 -2 23 -11 11 23 21 2 0.15141856D+00 0.44464365D-01 0.15965108D+06 0.15965108D+06 0.15965108D+06 0.11054212D+01  1  2  4  2  7  2       -2 -.109025564121D-03 0.100000000000D+01
  </mgrwgt>
  </event>
  <event>
  8     66 0.55102590E-06 0.35713423E+03 0.75467711E-02 0.96729420E-01
        2 -1    0    0  501    0 0.00000000E+00 0.00000000E+00 0.11657337E+04 0.11657338E+04 0.32000000E+00 0.0000E+00 0.9000E+01
       -2 -1    0    0    0  501 0.00000000E+00 0.00000000E+00 -.14277894E+03 0.14277930E+03 0.32000000E+00 0.0000E+00 0.9000E+01
       25  2    1    2    0    0 -.17409771E+03 -.23773824E+03 0.28222231E+03 0.50616434E+03 0.29953868E+03 0.0000E+00 0.0000E+00
       23  2    1    2    0    0 0.17409771E+03 0.23773824E+03 0.74073246E+03 0.80234872E+03 0.90826194E+02 0.0000E+00 0.0000E+00
       23  1    3    3    0    0 -.20224188E+03 -.87066715E+02 0.12878300E+03 0.27089242E+03 0.91188000E+02 0.0000E+00 0.9000E+01
      -11  1    4    4    0    0 0.13269771E+03 0.14806885E+03 0.58570610E+03 0.61853431E+03 0.51099893E-03 0.0000E+00 0.9000E+01
       11  1    4    4    0    0 0.41400009E+02 0.89669395E+02 0.15502637E+03 0.18381440E+03 0.51099893E-03 0.0000E+00 0.9000E+01
       23  1    3    3    0    0 0.28144166E+02 -.15067153E+03 0.15343931E+03 0.23527192E+03 0.91188000E+02 0.0000E+00 0.9000E+01
#aMCatNLO 1  0  0  1  2 0.10894345D+03 0.00000000D+00  -5  7  0 0.00000000D+00 0.00000000D+00 0.00000000D+00 0.00000000D+00 0.00000000D+00
  <mgrwgt>
 0.2677623602D-03    4    2    0
 0.407973637680092D+03 0.000000000000000D+00 0.000000000000000D+00 0.407973637680092D+03
 0.407973637680092D+03 0.000000000000000D+00 0.000000000000000D+00 -.407973637680092D+03
 0.272967498464495D+03 -.202241880438332D+03 -.870667152959456D+02 -.133092497002296D+03
 0.257626178117265D+03 0.132697705361779D+03 0.148068846138632D+03 0.163823635187971D+03
 0.100421424624075D+03 0.414000093742763D+02 0.896693953648202D+02 0.181631848046049D+02
 0.184932174154349D+03 0.281441657022766D+02 -.150671526207507D+03 -.488943229902793D+02
 0.000000000000000D+00 0.000000000000000D+00 -.000000000000000D+00 -.000000000000000D+00
 0.428048576695395D+03 0.000000000000000D+00 0.000000000000000D+00 0.428048576695395D+03
 0.591919387055090D+03 0.000000000000000D+00 0.000000000000000D+00 -.591919387055090D+03
 0.271350808001826D+03 -.211846352425579D+03 -.521873534959868D+02 -.133092497002296D+03
 0.274269115510345D+03 0.123312436876213D+03 0.182152153949042D+03 0.163823635187971D+03
 0.111387928148476D+03 0.376626428900448D+02 0.103241922616255D+03 0.181631848046049D+02
 0.166180238768373D+03 0.219488029995533D+02 -.128172600969640D+03 -.488943229902793D+02
 0.196779873321465D+03 0.289224696597677D+02 -.105034122099670D+03 -.163870810359695D+03
0.683083109228D-05 0.000000000000D+00 0.000000000000D+00 0.543947218544D-06 0.000000000000D+00  7 2 -2 23 -11 11 23 21 0 0.17934368D+00 0.21966022D-01 0.12754486D+06 0.12754486D+06 0.12754486D+06 0.11131529D+01  1  2  2  1  7  1        2 0.296353544870D-03 0.100000000000D+01
-.371317665109D-06 0.000000000000D+00 -.262321899935D-07 0.543947218544D-06 0.000000000000D+00  7 2 -2 23 -11 11 23 21 2 0.17934368D+00 0.21966022D-01 0.12754486D+06 0.12754486D+06 0.12754486D+06 0.11131529D+01  1  2  3  1  7  1        2 -.199614401160D-04 0.100000000000D+01
0.430050644953D-06 0.000000000000D+00 0.000000000000D+00 0.543947218544D-06 0.000000000000D+00  7 2 -2 23 -11 11 23 21 2 0.17934368D+00 0.21966022D-01 0.12754486D+06 0.12754486D+06 0.12754486D+06 0.11131529D+01  1  2 15  1  7  1        2 0.231188305936D-04 0.100000000000D+01
-.590578972949D-06 0.000000000000D+00 0.000000000000D+00 0.543947218544D-06 0.000000000000D+00  7 2 -2 23 -11 11 23 21 2 0.17934368D+00 0.21966022D-01 0.12754486D+06 0.12754486D+06 0.12754486D+06 0.11131529D+01  1  2  4  1  7  1        2 -.317485751689D-04 0.100000000000D+01
  </mgrwgt>
  </event>
  <event>
  8     66 0.55102590E-06 0.84271130E+03 0.75467711E-02 0.85763677E-01
        2 -1    0    0  501    0 0.00000000E+00 0.00000000E+00 0.10908098E+04 0.10908098E+04 0.32000000E+00 0.0000E+00 0.9000E+01
       -2 -1    0    0    0  501 0.00000000E+00 0.00000000E+00 -.79636721E+03 0.79636728E+03 0.32000000E+00 0.0000E+00 0.9000E+01
       25  2    1    2    0    0 0.78964638E+03 -.21838021E+03 0.54083233E+03 0.10266740E+04 0.30054711E+03 0.0000E+00 0.0000E+00
       23  2    1    2    0    0 -.78964638E+03 0.21838021E+03 -.24638975E+03 0.86050311E+03 0.92338349E+02 0.0000E+00 0.0000E+00
       23  1    3    3    0    0 0.30959526E+03 -.19011281E+03 0.16371989E+03 0.40879280E+03 0.91188000E+02 0.0000E+00 0.9000E+01
      -13  1    4    4    0    0 -.53907963E+02 -.78052010E-01 -.35579972E+02 0.64591177E+02 0.10565837E+00 0.0000E+00 0.9000E+01
       13  1    4    4    0    0 -.73573842E+03 0.21845826E+03 -.21080978E+03 0.79591193E+03 0.10565837E+00 0.0000E+00 0.9000E+01
       23  1    3    3    0    0 0.48005112E+03 -.28267407E+02 0.37711244E+03 0.61788119E+03 0.91188000E+02 0.0000E+00 0.9000E+01
#aMCatNLO 1  0  0  1  2 0.59304328D+03 0.00000000D+00  -5  7  0 0.00000000D+00 0.00000000D+00 0.00000000D+00 0.00000000D+00 0.00000000D+00
  <mgrwgt>
 0.5207896524D-03    3    2    0
 0.932032858655027D+03 0.000000000000000D+00 0.000000000000000D+00 0.932032858655027D+03
 0.932032858655027D+03 0.000000000000000D+00 0.000000000000000D+00 -.932032858655027D+03
 0.388000436864750D+03 0.309595257281651D+03 -.190112805802065D+03 0.101177988722901D+03
 0.710111088777599D+02 -.539070699507978D+02 -.783381370731497D-01 -.462233626698141D+02
 0.839079874383804D+03 -.735739308738035D+03 0.218458550615100D+03 -.339143873358737D+03
 0.565974297183741D+03 0.480051121407182D+03 -.282674066759614D+02 0.284189247305650D+03
 0.000000000000000D+00 -.000000000000000D+00 -.000000000000000D+00 -.000000000000000D+00
 0.112992672039267D+04 0.000000000000000D+00 0.000000000000000D+00 0.112992672039267D+04
 0.155704422570558D+04 0.000000000000000D+00 0.000000000000000D+00 -.155704422570558D+04
 0.461459512594703D+03 0.423300755040520D+03 -.123325243969980D+03 0.101177988722901D+03
 0.597176493192040D+02 -.364082125512893D+02 0.102000216924484D+02 -.462233626698141D+02
 0.713890554254395D+03 -.527864557602945D+03 0.340558607942198D+03 -.339143873358737D+03
 0.721061455147579D+03 0.652328862041591D+03 0.729239207593471D+02 0.284189247305650D+03
 0.730841774782361D+03 -.511356846927877D+03 -.300357306424014D+03 -.427117505312909D+03
0.383605594945D-03 0.000000000000D+00 0.000000000000D+00 0.181998156384D-05 0.000000000000D+00  7 2 -2 23 -13 13 23 21 0 0.16781690D+00 0.12251804D+00 0.71016233D+06 0.71016233D+06 0.71016233D+06 0.10579043D+01  1  2  2  1  7  1        2 0.516010909684D-03 0.100000000000D+01
-.210484379967D-04 0.000000000000D+00 -.147314649026D-05 0.181998156384D-05 0.000000000000D+00  7 2 -2 23 -13 13 23 21 2 0.16781690D+00 0.12251804D+00 0.71016233D+06 0.71016233D+06 0.71016233D+06 0.10579043D+01  1  2  3  1  7  1        2 -.316873966637D-04 0.100000000000D+01
0.242227306609D-04 0.000000000000D+00 0.000000000000D+00 0.181998156384D-05 0.000000000000D+00  7 2 -2 23 -13 13 23 21 2 0.16781690D+00 0.12251804D+00 0.71016233D+06 0.71016233D+06 0.71016233D+06 0.10579043D+01  1  2 15  1  7  1        2 0.364661394281D-04 0.100000000000D+01
  </mgrwgt>
  </event>
  <event>
  8     66 0.55102590E-06 0.25165340E+03 0.75467711E-02 0.93759445E-01
        4 -1    0    0  501    0 0.00000000E+00 0.00000000E+00 0.32647419E+03 0.32647787E+03 0.15500000E+01 0.0000E+00 0.9000E+01
       -4 -1    0    0    0  501 0.00000000E+00 0.00000000E+00 -.65022337E+03 0.65022521E+03 0.15500000E+01 0.0000E+00 0.9000E+01
       25  2    1    2    0    0 -.10916002E+02 -.38482964E+03 -.42310489E+02 0.48973573E+03 0.29972971E+03 0.0000E+00 0.0000E+00
       23  2    1    2    0    0 0.10916002E+02 0.38482964E+03 -.28143869E+03 0.48696736E+03 0.98572122E+02 0.0000E+00 0.0000E+00
       23  1    3    3    0    0 0.30550241E+02 -.31709545E+03 -.11247881E+03 0.34992796E+03 0.91188000E+02 0.0000E+00 0.9000E+01
      -11  1    4    4    0    0 0.49491141E+02 0.30014053E+03 -.22110493E+03 0.37605997E+03 0.51099893E-03 0.0000E+00 0.9000E+01
       11  1    4    4    0    0 -.38575139E+02 0.84689105E+02 -.60333756E+02 0.11090738E+03 0.51099893E-03 0.0000E+00 0.9000E+01
       23  1    3    3    0    0 -.41466243E+02 -.67734187E+02 0.70168318E+02 0.13980777E+03 0.91188000E+02 0.0000E+00 0.9000E+01
#aMCatNLO 1  0  0  2  1 0.20409707D+03 0.00000000D+00  -5  7  0 0.00000000D+00 0.00000000D+00 0.00000000D+00 0.00000000D+00 0.00000000D+00
  <mgrwgt>
 0.9689931245D-05    9    2    0
 0.460742712162378D+03 0.000000000000000D+00 0.000000000000000D+00 0.460742712162378D+03
 0.460742712162378D+03 0.000000000000000D+00 0.000000000000000D+00 -.460742712162378D+03
 0.331378863791726D+03 0.305502411853421D+02 -.317095448850281D+03 0.372278200430395D+01
 0.320912720777553D+03 0.494911409870550D+02 0.300140531238564D+03 -.102231418010726D+03
 0.963559255143163D+02 -.385751393107664D+02 0.846891047273688D+02 -.249835655852442D+02
 0.172837914241160D+03 -.414662428616307D+02 -.677341871156516D+02 0.123492201591666D+03
 0.000000000000000D+00 0.000000000000000D+00 -.000000000000000D+00 -.000000000000000D+00
 0.542049163254227D+03 0.000000000000000D+00 0.000000000000000D+00 0.542049163254227D+03
 0.620380593071423D+03 0.000000000000000D+00 0.000000000000000D+00 -.620380593071423D+03
 0.300931703808546D+03 -.307934359864265D+02 -.285100936875719D+03 0.372278200430395D+01
 0.349712662511268D+03 -.155696521162316D+02 0.334073748482600D+03 -.102231418010726D+03
 0.114940789665096D+03 -.590741126754106D+02 0.953805839314095D+02 -.249835655852442D+02
 0.178232094389388D+03 -.755253372017030D+02 -.499702682906533D+02 0.123492201591666D+03
 0.218612505951353D+03 0.180962537979772D+03 -.943831272476375D+02 -.783314298171963D+02
0.118061000550D-04 0.000000000000D+00 0.000000000000D+00 0.177623974552D-07 0.000000000000D+00  7 4 -4 23 -11 11 23 21 0 0.50227224D-01 0.10003479D+00 0.18042793D+06 0.18042793D+06 0.18042793D+06 0.11012771D+01  1  2  2  2  7  2       -4 0.752185719741D-05 0.100000000000D+01
-.650623867650D-06 0.000000000000D+00 -.453385328287D-07 0.177623974552D-07 0.000000000000D+00  7 4 -4 23 -11 11 23 21 2 0.50227224D-01 0.10003479D+00 0.18042793D+06 0.18042793D+06 0.18042793D+06 0.11012771D+01  1  2  3  2  7  2       -4 -.502738123350D-06 0.100000000000D+01
0.759213091195D-06 0.000000000000D+00 0.000000000000D+00 0.177623974552D-07 0.000000000000D+00  7 4 -4 23 -11 11 23 21 2 0.50227224D-01 0.10003479D+00 0.18042793D+06 0.18042793D+06 0.18042793D+06 0.11012771D+01  1  2 15  2  7  2       -4 0.586645193434D-06 0.100000000000D+01
0.451906643659D-05 0.000000000000D+00 0.000000000000D+00 0.177623974552D-07 0.000000000000D+00  7 4 -4 23 -11 11 23 21 2 0.50227224D-01 0.14106563D+00 0.29168144D+06 0.29168144D+06 0.29168144D+06 0.10854566D+01  1  2 12  2  7  2       -4 0.122710864565D-05 0.100000000000D+01
-.652626108788D-05 0.000000000000D+00 0.000000000000D+00 0.177623974552D-07 0.000000000000D+00  7 4 -4 23 -11 11 23 21 2 0.50227224D-01 0.10003479D+00 0.18042793D+06 0.18042793D+06 0.18042793D+06 0.11012771D+01  1  2  4  2  7  2       -4 -.504285258343D-05 0.100000000000D+01
-.101415265775D-04 0.000000000000D+00 -.451353586240D-05 0.177623974552D-07 0.000000000000D+00  7 4 -4 23 -11 11 23 21 2 0.50227224D-01 0.15109837D+00 0.18042793D+06 0.18042793D+06 0.18042793D+06 0.11012771D+01  1  2  5  2  7  2       -4 -.227262309244D-05 0.100000000000D+01
0.113798074299D-04 0.000000000000D+00 0.415513672269D-05 0.177623974552D-07 0.000000000000D+00  7 4 -4 23 -11 11 23 21 2 0.50227224D-01 0.10003479D+00 0.18042793D+06 0.18042793D+06 0.18042793D+06 0.11012771D+01  1  2  6  2  7  2       -4 0.879319575543D-05 0.100000000000D+01
0.192680030164D-06 0.000000000000D+00 0.000000000000D+00 0.177623974552D-07 0.000000000000D+00  7 4 21 23 -11 11 23 4 2 0.50227224D-01 0.14106563D+00 0.29168144D+06 0.29168144D+06 0.29168144D+06 0.10854566D+01  1  2 12  4  7  2       -4 0.125803340409D-05 0.100000000000D+01
-.333210528531D-06 0.000000000000D+00 -.219733095700D-06 0.177623974552D-07 0.000000000000D+00  7 4 21 23 -11 11 23 4 2 0.50227224D-01 0.15109837D+00 0.18042793D+06 0.18042793D+06 0.18042793D+06 0.11012771D+01  1  2  5  4  7  2       -4 -.187869515195D-05 0.100000000000D+01
  </mgrwgt>
  </event>
  <event>
  8     66 0.55102590E-06 0.28878501E+03 0.75467711E-02 0.94749847E-01
        2 -1    0    0  501    0 0.00000000E+00 0.00000000E+00 0.10896312E+04 0.10896313E+04 0.32000000E+00 0.0000E+00 0.9000E+01
       -2 -1    0    0    0  501 0.00000000E+00 0.00000000E+00 -.90953135E+02 0.90953698E+02 0.32000000E+00 0.0000E+00 0.9000E+01
       25  2    1    2    0    0 -.73145347E+02 -.21582691E+03 0.68386436E+03 0.78125184E+03 0.30125152E+03 0.0000E+00 0.0000E+00
       23  2    1    2    0    0 0.73145347E+02 0.21582691E+03 0.31481371E+03 0.39933311E+03 0.91802850E+02 0.0000E+00 0.0000E+00
       23  1    3    3    0    0 0.22412186E+02 -.19433578E+03 0.26638283E+03 0.34284656E+03 0.91188000E+02 0.0000E+00 0.9000E+01
      -13  1    4    4    0    0 0.41259587E+02 0.11601155E+03 0.24265084E+03 0.27210379E+03 0.10565837E+00 0.0000E+00 0.9000E+01
       13  1    4    4    0    0 0.31885761E+02 0.99815362E+02 0.72162872E+02 0.12722932E+03 0.10565837E+00 0.0000E+00 0.9000E+01
       23  1    3    3    0    0 -.95557533E+02 -.21491135E+02 0.41748153E+03 0.43840528E+03 0.91188000E+02 0.0000E+00 0.9000E+01
#aMCatNLO 1  0  0  2  2 0.33191506D+03 0.00000000D+00  -5  7  0 0.00000000D+00 0.00000000D+00 0.00000000D+00 0.00000000D+00 0.00000000D+00
  <mgrwgt>
 0.2903433926D-03    5    2    0
 0.314810633195877D+03 0.000000000000000D+00 0.000000000000000D+00 0.314810633195877D+03
 0.314810633195877D+03 0.000000000000000D+00 0.000000000000000D+00 -.314810633195877D+03
 0.220336899570225D+03 0.224121836532970D+02 -.194335776366446D+03 -.443215299393050D+02
 0.125331810239217D+03 0.412595996139972D+02 0.116011572894118D+03 0.233885239415490D+02
 0.124102448565835D+03 0.318857488030535D+02 0.998153418132092D+02 -.664952201441322D+02
 0.159850108016478D+03 -.955575320703478D+02 -.214911383408809D+02 0.874282261418882D+02
 0.000000000000000D+00 -.000000000000000D+00 0.000000000000000D+00 -.000000000000000D+00
 0.514394087225670D+03 0.000000000000000D+00 0.000000000000000D+00 0.514394087225670D+03
 0.529621840719704D+03 0.000000000000000D+00 0.000000000000000D+00 -.529621840719704D+03
 0.339415628064441D+03 0.102680449322595D+03 -.307213353455100D+03 -.443215299393050D+02
 0.104445047066763D+03 0.742094996436233D+02 0.696756411327301D+02 0.233885239415490D+02
 0.107149747649662D+03 0.650472117818313D+02 0.531818987887732D+02 -.664952201441322D+02
 0.160741320003695D+03 -.495848626402273D+02 -.861403928663149D+02 0.874282261418882D+02
 0.332264185160813D+03 -.192352298107822D+03 0.270496206399911D+03 -.152277534940337D+02
0.259109319766D-05 0.000000000000D+00 0.000000000000D+00 0.721632329687D-07 0.000000000000D+00  7 2 -2 23 -13 13 23 21 0 0.16763562D+00 0.13992837D-01 0.83396781D+05 0.83396781D+05 0.83396781D+05 0.11282507D+01  1  2  2  2  7  2       -2 0.260742205085D-03 0.100000000000D+01
-.142646452679D-06 0.000000000000D+00 -.995048012952D-08 0.721632329687D-07 0.000000000000D+00  7 2 -2 23 -13 13 23 21 2 0.16763562D+00 0.13992837D-01 0.83396781D+05 0.83396781D+05 0.83396781D+05 0.11282507D+01  1  2  3  2  7  2       -2 -.182726052397D-04 0.100000000000D+01
0.164609534790D-06 0.000000000000D+00 0.000000000000D+00 0.721632329687D-07 0.000000000000D+00  7 2 -2 23 -13 13 23 21 2 0.16763562D+00 0.13992837D-01 0.83396781D+05 0.83396781D+05 0.83396781D+05 0.11282507D+01  1  2 15  2  7  2       -2 0.210860136471D-04 0.100000000000D+01
0.296318140103D-06 0.000000000000D+00 -.829905415517D-06 0.721632329687D-07 0.000000000000D+00  7 2 -2 23 -13 13 23 21 2 0.16763562D+00 0.39348205D-01 0.83396781D+05 0.83396781D+05 0.83396781D+05 0.11282507D+01  1  2  5  2  7  2       -2 0.657572034180D-05 0.100000000000D+01
0.804760594498D-07 0.000000000000D+00 -.964366018312D-07 0.721632329687D-07 0.000000000000D+00  7 2 21 23 -13 13 23 2 2 0.16763562D+00 0.39348205D-01 0.83396781D+05 0.83396781D+05 0.83396781D+05 0.11282507D+01  1  2  5  4  7  2       -2 0.202120587686D-04 0.100000000000D+01
  </mgrwgt>
  </event>
  <event>
  8     66 0.55102590E-06 0.21505797E+03 0.75467711E-02 0.99835543E-01
        2 -1    0    0  501    0 0.00000000E+00 0.00000000E+00 0.17339150E+04 0.17339151E+04 0.32000000E+00 0.0000E+00 0.9000E+01
       -2 -1    0    0    0  501 0.00000000E+00 0.00000000E+00 -.16679072E+03 0.16679103E+03 0.32000000E+00 0.0000E+00 0.9000E+01
       25  2    1    2    0    0 0.19571918E+03 -.38461055E+02 0.45433445E+02 0.36311440E+03 0.30000436E+03 0.0000E+00 0.0000E+00
       23  2    1    2    0    0 -.19571918E+03 0.38461055E+02 0.15216909E+04 0.15375917E+04 0.94126918E+02 0.0000E+00 0.0000E+00
       23  1    3    3    0    0 0.12489222E+03 -.60066145E+02 -.85980723E+02 0.18685273E+03 0.91188000E+02 0.0000E+00 0.9000E+01
      -11  1    4    4    0    0 -.20139420E+02 0.40205467E+02 0.31153964E+03 0.31476820E+03 0.51099893E-03 0.0000E+00 0.9000E+01
       11  1    4    4    0    0 -.17557976E+03 -.17444118E+01 0.12101512E+04 0.12228235E+04 0.51099893E-03 0.0000E+00 0.9000E+01
       23  1    3    3    0    0 0.70826964E+02 0.21605089E+02 0.13141417E+03 0.17626166E+03 0.91188000E+02 0.0000E+00 0.9000E+01
#aMCatNLO 1  0  0  2  1 0.13279255D+03 0.00000000D+00  -5  7  0 0.00000000D+00 0.00000000D+00 0.00000000D+00 0.00000000D+00 0.00000000D+00
  <mgrwgt>
 0.1215563014D-03    9    2    0
 0.537774359119170D+03 0.000000000000000D+00 0.000000000000000D+00 0.537774359119170D+03
 0.537774359119170D+03 0.000000000000000D+00 0.000000000000000D+00 -.537774359119170D+03
 0.455483425393509D+03 0.124892220401350D+03 -.600661445204230D+02 -.424197938502625D+03
 0.102329629235815D+03 -.201394195773838D+02 0.402054671779909D+02 0.919199499979468D+02
 0.397723175428158D+03 -.175579764545522D+03 -.174441175062053D+01 0.356864718881596D+03
 0.120012488180858D+03 0.708269637215553D+02 0.216050890930526D+02 -.245867303769178D+02
 0.000000000000000D+00 -.000000000000000D+00 -.000000000000000D+00 -.000000000000000D+00
 0.566634365056161D+03 0.000000000000000D+00 0.000000000000000D+00 0.566634365056161D+03
 0.719785502064125D+03 0.000000000000000D+00 0.000000000000000D+00 -.719785502064125D+03
 0.455502305465035D+03 0.138529471951864D+03 -.572654440507843D+01 -.424197938502625D+03
 0.107316020717745D+03 -.170010713376224D+02 0.527106693985150D+02 0.919199499979468D+02
 0.395257442542440D+03 -.163709023000805D+03 0.455562738914382D+02 0.356864718881596D+03
 0.125639556388911D+03 0.745043195924742D+02 0.362580451353584D+02 -.245867303769178D+02
 0.202704542006154D+03 -.323236972059113D+02 -.128798444020233D+03 -.153151137007963D+03
0.156559169114D-04 0.000000000000D+00 0.000000000000D+00 0.466993911661D-06 0.000000000000D+00  7 2 -2 23 -11 11 23 21 0 0.26675619D+00 0.25660137D-01 0.63483395D+05 0.63483395D+05 0.63483395D+05 0.11382850D+01  1  2  2  2  7  2       -2 0.260776767343D-03 0.100000000000D+01
-.261885602272D-06 0.000000000000D+00 -.601228432374D-07 0.466993911661D-06 0.000000000000D+00  7 2 -2 23 -11 11 23 21 2 0.26675619D+00 0.25660137D-01 0.63483395D+05 0.63483395D+05 0.63483395D+05 0.11382850D+01  1  2  3  2  7  2       -2 -.565202472769D-05 0.100000000000D+01
0.959287996498D-06 0.000000000000D+00 0.000000000000D+00 0.466993911661D-06 0.000000000000D+00  7 2 -2 23 -11 11 23 21 2 0.26675619D+00 0.25660137D-01 0.63483395D+05 0.63483395D+05 0.63483395D+05 0.11382850D+01  1  2 15  2  7  2       -2 0.207033889230D-04 0.100000000000D+01
0.142001997128D-04 0.000000000000D+00 0.000000000000D+00 0.466993911661D-06 0.000000000000D+00  7 2 -2 23 -11 11 23 21 2 0.26675619D+00 0.34859685D-01 0.10473770D+06 0.10473770D+06 0.10473770D+06 0.11200761D+01  1  2 12  2  7  2       -2 0.170195272331D-03 0.100000000000D+01
-.255666137901D-04 0.000000000000D+00 0.000000000000D+00 0.466993911661D-06 0.000000000000D+00  7 2 -2 23 -11 11 23 21 2 0.26675619D+00 0.25660137D-01 0.63483395D+05 0.63483395D+05 0.63483395D+05 0.11382850D+01  1  2  4  2  7  2       -2 -.551779601822D-03 0.100000000000D+01
-.238843475227D-04 0.000000000000D+00 -.742253794619D-05 0.466993911661D-06 0.000000000000D+00  7 2 -2 23 -11 11 23 21 2 0.26675619D+00 0.36006169D-01 0.63483395D+05 0.63483395D+05 0.63483395D+05 0.11382850D+01  1  2  5  2  7  2       -2 -.284713793786D-03 0.100000000000D+01
0.253374427113D-04 0.000000000000D+00 0.701611481208D-05 0.466993911661D-06 0.000000000000D+00  7 2 -2 23 -11 11 23 21 2 0.26675619D+00 0.25660137D-01 0.63483395D+05 0.63483395D+05 0.63483395D+05 0.11382850D+01  1  2  6  2  7  2       -2 0.546833623148D-03 0.100000000000D+01
0.557333048484D-06 0.000000000000D+00 0.000000000000D+00 0.466993911661D-06 0.000000000000D+00  7 2 21 23 -11 11 23 2 2 0.26675619D+00 0.34859685D-01 0.10473770D+06 0.10473770D+06 0.10473770D+06 0.11200761D+01  1  2 12  4  7  2       -2 0.768844101453D-04 0.100000000000D+01
-.807673504090D-06 0.000000000000D+00 -.313180362247D-06 0.466993911661D-06 0.000000000000D+00  7 2 21 23 -11 11 23 2 2 0.26675619D+00 0.36006169D-01 0.63483395D+05 0.63483395D+05 0.63483395D+05 0.11382850D+01  1  2  5  4  7  2       -2 -.111691740176D-03 0.100000000000D+01
  </mgrwgt>
  </event>
  <event>
  8     66 0.55102590E-06 0.24525396E+03 0.75467711E-02 0.93285151E-01
        2 -1    0    0  501    0 0.00000000E+00 0.00000000E+00 0.19995586E+04 0.19995587E+04 0.32000000E+00 0.0000E+00 0.9000E+01
       -2 -1    0    0    0  501 0.00000000E+00 0.00000000E+00 -.13162992E+03 0.13163031E+03 0.32000000E+00 0.0000E+00 0.9000E+01
       25  2    1    2    0    0 0.75814958E+02 0.12564298E+03 0.92290503E+02 0.34706275E+03 0.30066750E+03 0.0000E+00 0.0000E+00
       23  2    1    2    0    0 -.75814958E+02 -.12564298E+03 0.17756382E+04 0.17841262E+04 0.93173237E+02 0.0000E+00 0.0000E+00
       23  1    3    3    0    0 -.71549665E+02 0.74623126E+02 -.12163543E+02 0.13838775E+03 0.91188000E+02 0.0000E+00 0.9000E+01
      -13  1    4    4    0    0 0.20827545E+02 -.22615667E+02 0.42865807E+03 0.42975924E+03 0.10565837E+00 0.0000E+00 0.9000E+01
       13  1    4    4    0    0 -.96642503E+02 -.10302732E+03 0.13469801E+04 0.13543670E+04 0.10565837E+00 0.0000E+00 0.9000E+01
       23  1    3    3    0    0 0.14736462E+03 0.51019858E+02 0.10445405E+03 0.20867500E+03 0.91188000E+02 0.0000E+00 0.9000E+01
#aMCatNLO 1  0  0  1  1 0.45273124D+03 0.00000000D+00  -5  7  0 0.00000000D+00 0.00000000D+00 0.00000000D+00 0.00000000D+00 0.00000000D+00
  <mgrwgt>
 0.3390366060D-03    3    2    0
 0.513032346216648D+03 0.000000000000000D+00 0.000000000000000D+00 0.513032346216648D+03
 0.513032346216648D+03 0.000000000000000D+00 0.000000000000000D+00 -.513032346216648D+03
 0.309581913768406D+03 -.715496644251162D+02 0.746231260970652D+02 -.277196220321748D+03
 0.112268860342131D+03 0.208276957848965D+02 -.226155639631345D+02 0.107977036250501D+03
 0.360941583263525D+03 -.966426540309847D+02 -.103027420485669D+03 0.332151132135202D+03
 0.243272335059236D+03 0.147364622671204D+03 0.510198583517385D+02 -.162931948063954D+03
 0.000000000000000D+00 -.000000000000000D+00 0.000000000000000D+00 -.000000000000000D+00
 0.750220038568170D+03 0.000000000000000D+00 0.000000000000000D+00 0.750220038568170D+03
 0.831202427963671D+03 0.000000000000000D+00 0.000000000000000D+00 -.831202427963671D+03
 0.305382650480355D+03 -.712643522725843D+02 -.550178098883654D+02 -.277196220321748D+03
 0.132710570639547D+03 0.209413537301552D+02 -.742597798675745D+02 0.107977036250501D+03
 0.439879921932535D+03 -.962711137492768D+02 -.271848935620780D+03 0.332151132135202D+03
 0.243532241620895D+03 0.147590475134435D+03 -.516036172625000D+02 -.162931948063954D+03
 0.459917081858509D+03 -.996362842728879D+00 0.452730142639219D+03 -.809823893955004D+02
0.179126358988D-04 0.000000000000D+00 0.000000000000D+00 0.298719513542D-06 0.000000000000D+00  7 2 -2 23 -13 13 23 21 0 0.30762444D+00 0.20250789D-01 0.60149507D+05 0.60149507D+05 0.60149507D+05 0.11403018D+01  1  2  2  1  7  1        2 0.321187170053D-03 0.100000000000D+01
-.336073087192D-06 0.000000000000D+00 -.687892383569D-07 0.298719513542D-06 0.000000000000D+00  7 2 -2 23 -13 13 23 21 2 0.30762444D+00 0.20250789D-01 0.60149507D+05 0.60149507D+05 0.60149507D+05 0.11403018D+01  1  2  3  1  7  1        2 -.783559601114D-05 0.100000000000D+01
0.110164535909D-05 0.000000000000D+00 0.000000000000D+00 0.298719513542D-06 0.000000000000D+00  7 2 -2 23 -13 13 23 21 2 0.30762444D+00 0.20250789D-01 0.60149507D+05 0.60149507D+05 0.60149507D+05 0.11403018D+01  1  2 15  1  7  1        2 0.256850319480D-04 0.100000000000D+01
  </mgrwgt>
  </event>
  <event>
  8     66 0.55102590E-06 0.91100825E+02 0.75467711E-02 0.10410366E+00
        2 -1    0    0  501    0 0.00000000E+00 0.00000000E+00 0.31692807E+04 0.31692807E+04 0.32000000E+00 0.0000E+00 0.9000E+01
       -2 -1    0    0    0  501 0.00000000E+00 0.00000000E+00 -.16238777E+02 0.16241930E+02 0.32000000E+00 0.0000E+00 0.9000E+01
       25  2    1    2    0    0 0.70599863E+02 -.71893404E+02 0.23021763E+04 0.23238509E+04 0.30019019E+03 0.0000E+00 0.0000E+00
       23  2    1    2    0    0 -.70599863E+02 0.71893404E+02 0.85086557E+03 0.86167172E+03 0.91394404E+02 0.0000E+00 0.0000E+00
       23  1    3    3    0    0 0.69407577E+02 -.10204947E+03 0.20190952E+04 0.20249178E+04 0.91188000E+02 0.0000E+00 0.9000E+01
      -13  1    4    4    0    0 0.16716503E+02 0.46484121E+01 0.26253081E+03 0.26310357E+03 0.10565837E+00 0.0000E+00 0.9000E+01
       13  1    4    4    0    0 -.87316366E+02 0.67244992E+02 0.58833476E+03 0.59856815E+03 0.10565837E+00 0.0000E+00 0.9000E+01
       23  1    3    3    0    0 0.11922857E+01 0.30156064E+02 0.28308117E+03 0.29893312E+03 0.91188000E+02 0.0000E+00 0.9000E+01
#aMCatNLO 1  0  0  1  2 0.85757834D+02 0.00000000D+00  -5  7  0 0.00000000D+00 0.00000000D+00 0.00000000D+00 0.00000000D+00 0.00000000D+00
  <mgrwgt>
 0.3931718110D-03    9    2    0
 0.226870646739983D+03 0.000000000000000D+00 0.000000000000000D+00 0.226870646739983D+03
 0.226870646739983D+03 0.000000000000000D+00 0.000000000000000D+00 -.226870646739983D+03
 0.185413506170200D+03 0.694075800303795D+02 -.102049470153861D+03 0.104074062099880D+03
 0.228140187527506D+02 0.167166395469625D+02 0.464833019670382D+01 0.148130496620446D+02
 0.113959901360443D+03 -.873165103785750D+02 0.672450824723551D+02 -.289962931540597D+02
 0.131553867196572D+03 0.119229080123294D+01 0.301560574848025D+02 -.898908186078644D+02
 0.000000000000000D+00 0.000000000000000D+00 -.000000000000000D+00 0.000000000000000D+00
 0.299295991556241D+03 0.000000000000000D+00 0.000000000000000D+00 0.299295991556241D+03
 0.257763862708928D+03 0.000000000000000D+00 0.000000000000000D+00 -.257763862708928D+03
 0.165723863442883D+03 0.464725248068581D+02 -.784731903680594D+02 0.104074062099880D+03
 0.216445730945011D+02 0.138127610440841D+02 0.763339613095214D+01 0.148130496620446D+02
 0.136594795656288D+03 -.103681859982132D+03 0.840679790071850D+02 -.289962931540597D+02
 0.137811136374735D+03 -.164016817201178D+02 0.482419271138265D+02 -.898908186078644D+02
 0.952854856967627D+02 0.597982558513072D+02 -.614701118839042D+02 0.415321288473136D+02
0.294474744391D-05 0.000000000000D+00 0.000000000000D+00 0.141974539063D-06 0.000000000000D+00  7 2 -2 23 -13 13 23 21 0 0.48758189D+00 0.24985172D-02 0.35543942D+05 0.35543942D+05 0.35543942D+05 0.11605641D+01  1  2  2  1  7  1        2 0.272528003379D-03 0.100000000000D+01
-.156780727665D-06 0.000000000000D+00 -.113086055544D-07 0.141974539063D-06 0.000000000000D+00  7 2 -2 23 -13 13 23 21 2 0.48758189D+00 0.24985172D-02 0.35543942D+05 0.35543942D+05 0.35543942D+05 0.11605641D+01  1  2  3  1  7  1        2 -.195431263485D-04 0.100000000000D+01
0.191010148766D-06 0.000000000000D+00 0.000000000000D+00 0.141974539063D-06 0.000000000000D+00  7 2 -2 23 -13 13 23 21 2 0.48758189D+00 0.24985172D-02 0.35543942D+05 0.35543942D+05 0.35543942D+05 0.11605641D+01  1  2 15  1  7  1        2 0.238099129068D-04 0.100000000000D+01
0.104399932330D-05 0.000000000000D+00 0.000000000000D+00 0.141974539063D-06 0.000000000000D+00  7 2 -2 23 -13 13 23 21 2 0.66809136D+00 0.24985172D-02 0.54860993D+05 0.54860993D+05 0.54860993D+05 0.11437680D+01  1  2 12  1  7  1        2 0.162507274372D-04 0.100000000000D+01
-.142517311073D-05 0.000000000000D+00 0.000000000000D+00 0.141974539063D-06 0.000000000000D+00  7 2 -2 23 -13 13 23 21 2 0.48758189D+00 0.24985172D-02 0.35543942D+05 0.35543942D+05 0.35543942D+05 0.11605641D+01  1  2  4  1  7  1        2 -.177651542930D-03 0.100000000000D+01
-.241807761401D-05 0.000000000000D+00 -.838749311325D-06 0.141974539063D-06 0.000000000000D+00  7 2 -2 23 -13 13 23 21 2 0.65880620D+00 0.24985172D-02 0.35543942D+05 0.35543942D+05 0.35543942D+05 0.11605641D+01  1  2  5  1  7  1        2 -.449324261270D-04 0.100000000000D+01
0.258897536048D-05 0.000000000000D+00 0.802143687675D-06 0.141974539063D-06 0.000000000000D+00  7 2 -2 23 -13 13 23 21 2 0.48758189D+00 0.24985172D-02 0.35543942D+05 0.35543942D+05 0.35543942D+05 0.11605641D+01  1  2  6  1  7  1        2 0.322722526783D-03 0.100000000000D+01
0.417989298036D-07 0.000000000000D+00 0.000000000000D+00 0.141974539063D-06 0.000000000000D+00  7 21 -2 23 -13 13 23 -2 2 0.66809136D+00 0.24985172D-02 0.54860993D+05 0.54860993D+05 0.54860993D+05 0.11437680D+01  1  2 12  3  7  1        2 0.924472836334D-08 0.100000000000D+01
-.747893887211D-07 0.000000000000D+00 -.324978644827D-07 0.141974539063D-06 0.000000000000D+00  7 21 -2 23 -13 13 23 -2 2 0.65880620D+00 0.24985172D-02 0.35543942D+05 0.35543942D+05 0.35543942D+05 0.11605641D+01  1  2  5  3  7  1        2 -.215088289360D-07 0.100000000000D+01
  </mgrwgt>
  </event>
  <event>
  8     66 0.55102590E-06 0.58707708E+03 0.75467711E-02 0.91729847E-01
        2 -1    0    0  501    0 0.00000000E+00 0.00000000E+00 0.17975684E+04 0.17975684E+04 0.32000000E+00 0.0000E+00 0.9000E+01
       -2 -1    0    0    0  501 0.00000000E+00 0.00000000E+00 -.25378264E+03 0.25378284E+03 0.32000000E+00 0.0000E+00 0.9000E+01
       25  2    1    2    0    0 0.55739762E+03 0.40143357E+02 0.33729832E+03 0.71834719E+03 0.29991487E+03 0.0000E+00 0.0000E+00
       23  2    1    2    0    0 -.55739762E+03 -.40143357E+02 0.12064874E+04 0.13330041E+04 0.94785932E+02 0.0000E+00 0.0000E+00
       23  1    3    3    0    0 0.15966096E+03 0.74584157E+02 0.21138578E+03 0.28992002E+03 0.91188000E+02 0.0000E+00 0.9000E+01
      -11  1    4    4    0    0 -.78857272E+00 0.75404505E+01 0.24521190E+02 0.25666496E+02 0.51099893E-03 0.0000E+00 0.9000E+01
       11  1    4    4    0    0 -.55660904E+03 -.47683808E+02 0.11819662E+04 0.13073376E+04 0.51099893E-03 0.0000E+00 0.9000E+01
       23  1    3    3    0    0 0.39773666E+03 -.34440799E+02 0.12591254E+03 0.42842717E+03 0.91188000E+02 0.0000E+00 0.9000E+01
#aMCatNLO 1  0  0  1  1 0.11998852D+03 0.00000000D+00  -5  7  0 0.00000000D+00 0.00000000D+00 0.00000000D+00 0.00000000D+00 0.00000000D+00
  <mgrwgt>
 0.2014084151D-03    4    2    0
 0.675419785821278D+03 0.000000000000000D+00 0.000000000000000D+00 0.675419785821278D+03
 0.675419785821278D+03 0.000000000000000D+00 0.000000000000000D+00 -.675419785821278D+03
 0.198686392892298D+03 0.159660959275654D+03 0.745841566379614D+02 -.103253589930202D+02
 0.109528436933966D+02 -.788572704649795D+00 0.754045046962001D+01 0.790471661583550D+01
 0.634498706830077D+03 -.556609042545649D+03 -.476838076184009D+02 0.300834235446144D+03
 0.506701628226784D+03 0.397736655974646D+03 -.344407994891805D+02 -.298413593068960D+03
 0.000000000000000D+00 -.000000000000000D+00 0.000000000000000D+00 -.000000000000000D+00
 0.718537749291994D+03 0.000000000000000D+00 0.000000000000000D+00 0.718537749291994D+03
 0.767041649159502D+03 0.000000000000000D+00 0.000000000000000D+00 -.767041649159502D+03
 0.197945521743208D+03 0.165516575705803D+03 0.580071406163195D+02 -.103253589930202D+02
 0.103410985729061D+02 -.474202747023478D+00 0.665048168726218D+01 0.790471661583550D+01
 0.624523357170969D+03 -.538021657083590D+03 -.100303952786814D+03 0.300834235446144D+03
 0.523348122617370D+03 0.412943642660165D+03 -.774911708606404D+02 -.298413593068960D+03
 0.129421298347043D+03 -.399643585353537D+02 0.113137501343873D+03 -.485038998675079D+02
0.598421784777D-04 0.000000000000D+00 0.000000000000D+00 0.522988566326D-06 0.000000000000D+00  7 2 -2 23 -11 11 23 21 0 0.27654900D+00 0.39043501D-01 0.34465949D+06 0.34465949D+06 0.34465949D+06 0.10801209D+01  1  2  2  1  7  1        2 0.407471868886D-03 0.100000000000D+01
-.324513669505D-05 0.000000000000D+00 -.229809722162D-06 0.522988566326D-06 0.000000000000D+00  7 2 -2 23 -11 11 23 21 2 0.27654900D+00 0.39043501D-01 0.34465949D+06 0.34465949D+06 0.34465949D+06 0.10801209D+01  1  2  3  1  7  1        2 -.257791114714D-04 0.100000000000D+01
0.378644029115D-05 0.000000000000D+00 0.000000000000D+00 0.522988566326D-06 0.000000000000D+00  7 2 -2 23 -11 11 23 21 2 0.27654900D+00 0.39043501D-01 0.34465949D+06 0.34465949D+06 0.34465949D+06 0.10801209D+01  1  2 15  1  7  1        2 0.300791847981D-04 0.100000000000D+01
-.264810678911D-04 0.000000000000D+00 0.000000000000D+00 0.522988566326D-06 0.000000000000D+00  7 2 -2 23 -11 11 23 21 2 0.27654900D+00 0.39043501D-01 0.34465949D+06 0.34465949D+06 0.34465949D+06 0.10801209D+01  1  2  4  1  7  1        2 -.210363527086D-03 0.100000000000D+01
  </mgrwgt>
  </event>
  <event>
  8     66 0.55102590E-06 0.10678840E+03 0.75467711E-02 0.10740854E+00
        2 -1    0    0  501    0 0.00000000E+00 0.00000000E+00 0.58561666E+03 0.58561674E+03 0.32000000E+00 0.0000E+00 0.9000E+01
       -2 -1    0    0    0  501 0.00000000E+00 0.00000000E+00 -.13435122E+03 0.13435160E+03 0.32000000E+00 0.0000E+00 0.9000E+01
       25  2    1    2    0    0 -.98919404E+01 0.88608985E+02 0.75891711E+02 0.32178748E+03 0.29973026E+03 0.0000E+00 0.0000E+00
       23  2    1    2    0    0 0.98919404E+01 -.88608985E+02 0.37537373E+03 0.39818086E+03 0.98453840E+02 0.0000E+00 0.0000E+00
       23  1    3    3    0    0 0.25296402E+01 0.10613469E+03 -.63625288E+02 0.15373484E+03 0.91188000E+02 0.0000E+00 0.9000E+01
      -13  1    4    4    0    0 -.69184699E+01 -.10150265E+03 0.23305306E+03 0.25429195E+03 0.10565837E+00 0.0000E+00 0.9000E+01
       13  1    4    4    0    0 0.16810410E+02 0.12893663E+02 0.14232067E+03 0.14388891E+03 0.10565837E+00 0.0000E+00 0.9000E+01
       23  1    3    3    0    0 -.12421581E+02 -.17525709E+02 0.13951700E+03 0.16805264E+03 0.91188000E+02 0.0000E+00 0.9000E+01
#aMCatNLO 1  0  0  2  1 0.14471802D+02 0.00000000D+00  -5  7  0 0.00000000D+00 0.00000000D+00 0.00000000D+00 0.00000000D+00 0.00000000D+00
  <mgrwgt>
 0.8376034273D-04    9    2    0
 0.280496843713354D+03 0.000000000000000D+00 0.000000000000000D+00 0.280496843713354D+03
 0.280496843713354D+03 0.000000000000000D+00 0.000000000000000D+00 -.280496843713354D+03
 0.248480731304177D+03 0.252963911146463D+01 0.106134703641814D+03 -.205320354797786D+03
 0.138884632378411D+03 -.691848490179668D+01 -.101502753332567D+03 0.945424071169021D+02
 0.701808495142197D+02 0.168104268446105D+02 0.128937543285931D+02 0.669067432113792D+02
 0.103447474229900D+03 -.124215810542784D+02 -.175257046378404D+02 0.438712044695046D+02
 0.000000000000000D+00 0.000000000000000D+00 -.000000000000000D+00 -.000000000000000D+00
 0.282989599570365D+03 0.000000000000000D+00 0.000000000000000D+00 0.282989599570365D+03
 0.302411194475303D+03 0.000000000000000D+00 0.000000000000000D+00 -.302411194475303D+03
 0.249727667874428D+03 -.321914487779871D+01 0.109003879609709D+03 -.205320354797786D+03
 0.137921226069503D+03 -.101125239621642D+02 -.999086318401541D+02 0.945424071169021D+02
 0.699647192652900D+02 0.151932991460527D+02 0.137008509143031D+02 0.669067432113792D+02
 0.103566705758715D+03 -.148102999225896D+02 -.163335125527290D+02 0.438712044695046D+02
 0.242204750777323D+02 0.129486696164998D+02 -.646258613112876D+01 -.194215949049384D+02
0.856580240890D-06 0.000000000000D+00 0.000000000000D+00 0.891871984998D-08 0.000000000000D+00  7 2 -2 23 -13 13 23 21 0 0.90094906D-01 0.20669454D-01 0.31783566D+05 0.31783566D+05 0.31783566D+05 0.11650160D+01  1  2  2  2  7  2       -2 0.100717480043D-03 0.100000000000D+01
-.357034171712D-07 0.000000000000D+00 -.328949366777D-08 0.891871984998D-08 0.000000000000D+00  7 2 -2 23 -13 13 23 21 2 0.90094906D-01 0.20669454D-01 0.31783566D+05 0.31783566D+05 0.31783566D+05 0.11650160D+01  1  2  3  2  7  2       -2 -.569784108143D-05 0.100000000000D+01
0.526531484042D-07 0.000000000000D+00 0.000000000000D+00 0.891871984998D-08 0.000000000000D+00  7 2 -2 23 -13 13 23 21 2 0.90094906D-01 0.20669454D-01 0.31783566D+05 0.31783566D+05 0.31783566D+05 0.11650160D+01  1  2 15  2  7  2       -2 0.840281675574D-05 0.100000000000D+01
0.662938712583D-05 0.000000000000D+00 0.000000000000D+00 0.891871984998D-08 0.000000000000D+00  7 2 -2 23 -13 13 23 21 2 0.90094906D-01 0.22371792D-01 0.34469267D+05 0.34469267D+05 0.34469267D+05 0.11617812D+01  1  2 12  2  7  2       -2 0.923854040363D-03 0.100000000000D+01
-.675641944427D-05 0.000000000000D+00 0.000000000000D+00 0.891871984998D-08 0.000000000000D+00  7 2 -2 23 -13 13 23 21 2 0.90094906D-01 0.20669454D-01 0.31783566D+05 0.31783566D+05 0.31783566D+05 0.11650160D+01  1  2  4  2  7  2       -2 -.107824425008D-02 0.100000000000D+01
-.114262891333D-04 0.000000000000D+00 -.140374252624D-05 0.891871984998D-08 0.000000000000D+00  7 2 -2 23 -13 13 23 21 2 0.90094906D-01 0.22448470D-01 0.31783566D+05 0.31783566D+05 0.31783566D+05 0.11650160D+01  1  2  5  2  7  2       -2 -.159187175536D-02 0.100000000000D+01
0.115077142991D-04 0.000000000000D+00 0.139897137891D-05 0.891871984998D-08 0.000000000000D+00  7 2 -2 23 -13 13 23 21 2 0.90094906D-01 0.20669454D-01 0.31783566D+05 0.31783566D+05 0.31783566D+05 0.11650160D+01  1  2  6  2  7  2       -2 0.183649444455D-02 0.100000000000D+01
0.927630660325D-07 0.000000000000D+00 0.000000000000D+00 0.891871984998D-08 0.000000000000D+00  7 2 21 23 -13 13 23 2 2 0.90094906D-01 0.22371792D-01 0.34469267D+05 0.34469267D+05 0.34469267D+05 0.11617812D+01  1  2 12  4  7  2       -2 0.166854351285D-03 0.100000000000D+01
-.153723401671D-06 0.000000000000D+00 -.192819469772D-07 0.891871984998D-08 0.000000000000D+00  7 2 21 23 -13 13 23 2 2 0.90094906D-01 0.22448470D-01 0.31783566D+05 0.31783566D+05 0.31783566D+05 0.11650160D+01  1  2  5  4  7  2       -2 -.276748943754D-03 0.100000000000D+01
  </mgrwgt>
  </event>
  <event>
  9     66 0.55102590E-06 0.48763097E+03 0.75467711E-02 0.93327993E-01
        2 -1    0    0  502    0 0.00000000E+00 0.00000000E+00 0.81876167E+03 0.81876173E+03 0.32000000E+00 0.0000E+00 0.9000E+01
       -2 -1    0    0    0  501 0.00000000E+00 0.00000000E+00 -.44228691E+03 0.44228702E+03 0.32000000E+00 0.0000E+00 0.9000E+01
       25  2    1    2    0    0 0.24146957E+03 0.45457950E+03 0.31544986E+03 0.67403246E+03 0.29976836E+03 0.0000E+00 0.0000E+00
       23  2    1    2    0    0 -.11004126E+03 -.42086292E+03 0.75076508E+02 0.45060434E+03 0.90405266E+02 0.0000E+00 0.0000E+00
       23  1    3    3    0    0 0.14307561E+03 0.29719480E+03 0.31808661E+03 0.46721486E+03 0.91188000E+02 0.0000E+00 0.9000E+01
      -11  1    4    4    0    0 -.39122552E+02 -.25467769E+03 0.77439126E+01 0.25778144E+03 0.51099893E-03 0.0000E+00 0.9000E+01
       11  1    4    4    0    0 -.70918712E+02 -.16618523E+03 0.67332595E+02 0.19282290E+03 0.51099893E-03 0.0000E+00 0.9000E+01
       23  1    3    3    0    0 0.98393969E+02 0.15738470E+03 -.26367577E+01 0.20681760E+03 0.91188000E+02 0.0000E+00 0.9000E+01
       21  1    1    2  502  501 -.13142831E+03 -.33716583E+02 -.14051604E+02 0.13641195E+03 0.75000000E+00 0.0000E+00 0.9000E+01
#aMCatNLO 2  0  0  1  2 0.13568423D+03 0.00000000D+00  -5  7  0 0.00000000D+00 0.00000000D+00 0.00000000D+00 0.00000000D+00 0.00000000D+00
  <mgrwgt>
 0.3698457611D-04    1    2    0
 0.522945239132753D+03 0.000000000000000D+00 0.000000000000000D+00 0.522945239132753D+03
 0.522945239132753D+03 0.000000000000000D+00 0.000000000000000D+00 -.522945239132753D+03
 0.356061412375163D+03 0.969941226351854D+02 0.285373073575926D+03 0.166189130482880D+03
 0.287424897763423D+03 -.741262121392365D+02 -.263657523421017D+03 -.871956814968432D+02
 0.196468472237263D+03 -.945167130424869D+02 -.172239052528356D+03 0.400403574694160D+00
 0.205935695889656D+03 0.716488025465381D+02 0.150523502373447D+03 -.793938525607307D+02
 0.000000000000000D+00 -.000000000000000D+00 -.000000000000000D+00 -.000000000000000D+00
 0.569912073620345D+03 0.000000000000000D+00 0.000000000000000D+00 0.569912073620345D+03
 0.635407713988446D+03 0.000000000000000D+00 0.000000000000000D+00 -.635407713988446D+03
 0.380433252320998D+03 0.143075605960698D+03 0.297194804826490D+03 0.166189130482880D+03
 0.272019096190120D+03 -.391225518078152D+02 -.254677693880787D+03 -.871956814968432D+02
 0.180685234145772D+03 -.709187115022923D+02 -.166185227605057D+03 0.400403574694160D+00
 0.221517385326471D+03 0.983939685045647D+02 0.157384700004046D+03 -.793938525607307D+02
 0.150664819625431D+03 -.131428311155155D+03 -.337165833446934D+02 -.654956403681008D+02
0.377954064207D-05 0.000000000000D+00 0.000000000000D+00 0.946738264921D-06 0.324725957472D-09  7 2 -2 23 -11 11 23 21 2 0.12596315D+00 0.68044045D-01 0.31530988D+06 0.31530988D+06 0.31530988D+06 0.10829562D+01  1  2  1  1  7  1        2 0.369845761087D-04 0.100000000000D+01
  </mgrwgt>
  </event>
  <event>
  8     66 0.55102590E-06 0.25749530E+03 0.75467711E-02 0.85038843E-01
        2 -1    0    0  501    0 0.00000000E+00 0.00000000E+00 0.12616511E+04 0.12616511E+04 0.32000000E+00 0.0000E+00 0.9000E+01
       -2 -1    0    0    0  501 0.00000000E+00 0.00000000E+00 -.13824860E+03 0.13824897E+03 0.32000000E+00 0.0000E+00 0.9000E+01
       25  2    1    2    0    0 -.22409469E+02 0.21254431E+03 0.14577777E+03 0.39567053E+03 0.29937725E+03 0.0000E+00 0.0000E+00
       23  2    1    2    0    0 0.22409469E+02 -.21254431E+03 0.97762468E+03 0.10042295E+04 0.83962457E+02 0.0000E+00 0.0000E+00
       23  1    3    3    0    0 -.25243241E+01 0.17292888E+03 0.20084242E+03 0.28029216E+03 0.91188000E+02 0.0000E+00 0.9000E+01
      -13  1    4    4    0    0 0.17705828E+02 -.25854345E+02 0.58903504E+02 0.66720142E+02 0.10565837E+00 0.0000E+00 0.9000E+01
       13  1    4    4    0    0 0.47036407E+01 -.18668997E+03 0.91872117E+03 0.93750940E+03 0.10565837E+00 0.0000E+00 0.9000E+01
       23  1    3    3    0    0 -.19885144E+02 0.39615436E+02 -.55064641E+02 0.11537837E+03 0.91188000E+02 0.0000E+00 0.9000E+01
#aMCatNLO 1  0  0  1  1 0.12282042D+04 0.00000000D+00  -5  7  0 0.00000000D+00 0.00000000D+00 0.00000000D+00 0.00000000D+00 0.00000000D+00
  <mgrwgt>
 0.3032816538D-03    5    2    0
 0.417638342934789D+03 0.000000000000000D+00 0.000000000000000D+00 0.417638342934789D+03
 0.417638342934789D+03 0.000000000000000D+00 0.000000000000000D+00 -.417638342934789D+03
 0.199639421974815D+03 -.252432414675093D+01 0.172928876502589D+03 -.403717589608504D+02
 0.325985283260416D+02 0.177058482043592D+02 -.258540900197122D+02 0.898515540436255D+01
 0.335608861332506D+03 0.470362032517499D+01 -.186690222861070D+03 0.278851115200965D+03
 0.267429874236216D+03 -.198851443827832D+02 0.396154363781933D+02 -.247464511644477D+03
 0.000000000000000D+00 -.000000000000000D+00 -.000000000000000D+00 0.000000000000000D+00
 0.190396850798837D+04 0.000000000000000D+00 0.000000000000000D+00 0.190396850798837D+04
 0.106739776224003D+04 0.000000000000000D+00 0.000000000000000D+00 -.106739776224003D+04
 0.365190896829994D+03 0.295972740556297D+03 0.189260132382647D+03 -.403717589608504D+02
 0.818871359529394D+02 0.782083276218353D+02 -.225439017814200D+02 0.898515540436255D+01
 0.588701131053244D+03 0.493175663020511D+03 -.159965129508985D+03 0.278851115200965D+03
 0.449539918097112D+03 0.359013387383550D+03 0.603455862073392D+02 -.247464511644477D+03
 0.148604718829512D+04 -.122637011858219D+04 -.670966872995816D+02 0.836570745748342D+03
0.721412784123D-05 0.000000000000D+00 0.000000000000D+00 0.221949535507D-07 0.000000000000D+00  7 2 -2 23 -13 13 23 21 0 0.19410019D+00 0.21269048D-01 0.66303829D+05 0.66303829D+05 0.66303829D+05 0.11366679D+01  1  2  2  1  7  1        2 0.295036894055D-03 0.100000000000D+01
-.286814695761D-06 0.000000000000D+00 -.277041504338D-07 0.221949535507D-07 0.000000000000D+00  7 2 -2 23 -13 13 23 21 2 0.19410019D+00 0.21269048D-01 0.66303829D+05 0.66303829D+05 0.66303829D+05 0.11366679D+01  1  2  3  1  7  1        2 -.151551785525D-04 0.100000000000D+01
0.442777505253D-06 0.000000000000D+00 0.000000000000D+00 0.221949535507D-07 0.000000000000D+00  7 2 -2 23 -13 13 23 21 2 0.19410019D+00 0.21269048D-01 0.66303829D+05 0.66303829D+05 0.66303829D+05 0.11366679D+01  1  2 15  1  7  1        2 0.233961936062D-04 0.100000000000D+01
0.470269788713D-05 0.000000000000D+00 -.253593268050D-05 0.221949535507D-07 0.000000000000D+00  7 2 -2 23 -13 13 23 21 2 0.92894001D+00 0.21269048D-01 0.66303829D+05 0.66303829D+05 0.66303829D+05 0.11366679D+01  1  2  5  1  7  1        2 0.374317446442D-08 0.100000000000D+01
0.843766089675D-06 0.000000000000D+00 -.482520261959D-06 0.221949535507D-07 0.000000000000D+00  7 21 -2 23 -13 13 23 -2 2 0.92894001D+00 0.21269048D-01 0.66303829D+05 0.66303829D+05 0.66303829D+05 0.11366679D+01  1  2  5  3  7  1        2 0.147017731372D-11 0.100000000000D+01
  </mgrwgt>
  </event>
  <event>
  8     66 0.55102590E-06 0.29840214E+03 0.75467711E-02 0.90725632E-01
        2 -1    0    0  501    0 0.00000000E+00 0.00000000E+00 0.15306396E+04 0.15306396E+04 0.32000000E+00 0.0000E+00 0.9000E+01
       -2 -1    0    0    0  501 0.00000000E+00 0.00000000E+00 -.79648189E+02 0.79648832E+02 0.32000000E+00 0.0000E+00 0.9000E+01
       25  2    1    2    0    0 0.26274190E+03 0.32935263E+02 0.10214948E+04 0.10969189E+04 0.29943515E+03 0.0000E+00 0.0000E+00
       23  2    1    2    0    0 -.26274190E+03 -.32935263E+02 0.42949663E+03 0.51336958E+03 0.94672782E+02 0.0000E+00 0.0000E+00
       23  1    3    3    0    0 0.18977141E+03 0.39372019E+02 0.91159796E+03 0.93642374E+03 0.91188000E+02 0.0000E+00 0.9000E+01
      -13  1    4    4    0    0 -.30611166E+02 -.10798920E+02 0.10964258E+02 0.34262024E+02 0.10565837E+00 0.0000E+00 0.9000E+01
       13  1    4    4    0    0 -.23213073E+03 -.22136343E+02 0.41853237E+03 0.47910756E+03 0.10565837E+00 0.0000E+00 0.9000E+01
       23  1    3    3    0    0 0.72970491E+02 -.64367556E+01 0.10989680E+03 0.16049512E+03 0.91188000E+02 0.0000E+00 0.9000E+01
#aMCatNLO 1  0  0  1  2 0.58868381D+03 0.00000000D+00  -5  7  0 0.00000000D+00 0.00000000D+00 0.00000000D+00 0.00000000D+00 0.00000000D+00
  <mgrwgt>
 0.2489268796D-03    5    2    0
 0.349160730040215D+03 0.000000000000000D+00 0.000000000000000D+00 0.349160730040215D+03
 0.349160730040215D+03 0.000000000000000D+00 0.000000000000000D+00 -.349160730040215D+03
 0.265195272826058D+03 0.189771409907596D+03 0.393720193295846D+02 0.156364757732942D+03
 0.562241637523072D+02 -.306109193109732D+02 -.107989056370851D+02 -.459076447405513D+02
 0.235156244380143D+03 -.232130982354840D+03 -.221363581939459D+02 -.303915769228912D+02
 0.141745779121921D+03 0.729704917582169D+02 -.643675549855360D+01 -.800655360694993D+02
 0.000000000000000D+00 -.000000000000000D+00 0.000000000000000D+00 0.000000000000000D+00
 0.883718671131795D+03 0.000000000000000D+00 0.000000000000000D+00 0.883718671131795D+03
 0.659548861666319D+03 0.000000000000000D+00 0.000000000000000D+00 -.659548861666319D+03
 0.486687961533774D+03 0.448776548630338D+03 -.519576028744623D+02 0.156364757732942D+03
 0.522275673104430D+02 0.674801405125973D+01 -.239723016814444D+02 -.459076447405513D+02
 0.129221640183791D+03 -.106611832271204D+03 -.663965478297314D+02 -.303915769228912D+02
 0.245209148447666D+03 0.206266873582639D+03 -.534393294753683D+02 -.800655360694993D+02
 0.629921215322440D+03 -.555179603993033D+03 0.195765781861006D+03 0.224169809465476D+03
0.348084957173D-05 0.000000000000D+00 0.000000000000D+00 0.400826085027D-07 0.000000000000D+00  7 2 -2 23 -13 13 23 21 0 0.23548306D+00 0.12253620D-01 0.89043835D+05 0.89043835D+05 0.89043835D+05 0.11258812D+01  1  2  2  1  7  1        2 0.245523026214D-03 0.100000000000D+01
-.187578325349D-06 0.000000000000D+00 -.133673788842D-07 0.400826085027D-07 0.000000000000D+00  7 2 -2 23 -13 13 23 21 2 0.23548306D+00 0.12253620D-01 0.89043835D+05 0.89043835D+05 0.89043835D+05 0.11258812D+01  1  2  3  1  7  1        2 -.167716114426D-04 0.100000000000D+01
0.222079957123D-06 0.000000000000D+00 0.000000000000D+00 0.400826085027D-07 0.000000000000D+00  7 2 -2 23 -13 13 23 21 2 0.23548306D+00 0.12253620D-01 0.89043835D+05 0.89043835D+05 0.89043835D+05 0.11258812D+01  1  2 15  1  7  1        2 0.198564452643D-04 0.100000000000D+01
0.315595638105D-06 0.000000000000D+00 -.912520868725D-06 0.400826085027D-07 0.000000000000D+00  7 2 -2 23 -13 13 23 21 2 0.68869828D+00 0.12253620D-01 0.89043835D+05 0.89043835D+05 0.89043835D+05 0.11258812D+01  1  2  5  1  7  1        2 0.317971165232D-06 0.100000000000D+01
0.860891891397D-07 0.000000000000D+00 -.110885231532D-06 0.400826085027D-07 0.000000000000D+00  7 21 -2 23 -13 13 23 -2 2 0.68869828D+00 0.12253620D-01 0.89043835D+05 0.89043835D+05 0.89043835D+05 0.11258812D+01  1  2  5  3  7  1        2 0.104839365254D-08 0.100000000000D+01
  </mgrwgt>
  </event>
  <event>
  8     66 0.55102590E-06 0.20445958E+03 0.75467711E-02 0.98682582E-01
        4 -1    0    0  501    0 0.00000000E+00 0.00000000E+00 0.67284740E+03 0.67284918E+03 0.15500000E+01 0.0000E+00 0.9000E+01
       -4 -1    0    0    0  501 0.00000000E+00 0.00000000E+00 -.96676996E+02 0.96689420E+02 0.15500000E+01 0.0000E+00 0.9000E+01
       25  2    1    2    0    0 -.10454467E+03 0.33409791E+02 0.22581327E+03 0.39104047E+03 0.29979196E+03 0.0000E+00 0.0000E+00
       23  2    1    2    0    0 0.10454467E+03 -.33409791E+02 0.35035713E+03 0.37849813E+03 0.92004952E+02 0.0000E+00 0.0000E+00
       23  1    3    3    0    0 -.93303768E+01 -.79486861E+02 0.16972785E+03 0.20863367E+03 0.91188000E+02 0.0000E+00 0.9000E+01
      -13  1    4    4    0    0 0.53227054E+02 -.33143483E+02 0.30041715E+03 0.30689099E+03 0.10565837E+00 0.0000E+00 0.9000E+01
       13  1    4    4    0    0 0.51317612E+02 -.26630787E+00 0.49939988E+02 0.71607135E+02 0.10565837E+00 0.0000E+00 0.9000E+01
       23  1    3    3    0    0 -.95214289E+02 0.11289665E+03 0.56085422E+02 0.18240680E+03 0.91188000E+02 0.0000E+00 0.9000E+01
#aMCatNLO 1  0  0  1  2 0.23242506D+03 0.00000000D+00  -5  7  0 0.00000000D+00 0.00000000D+00 0.00000000D+00 0.00000000D+00 0.00000000D+00
  <mgrwgt>
 0.7423315409D-05    5    2    0
 0.255057508025836D+03 0.000000000000000D+00 0.000000000000000D+00 0.255057508025836D+03
 0.255057508025836D+03 0.000000000000000D+00 0.000000000000000D+00 -.255057508025836D+03
 0.123030105896796D+03 -.933037785231711D+01 -.794868594380286D+02 0.203945786617141D+02
 0.123644759282895D+03 0.532270588724440D+02 -.331435263271984D+02 0.106566473923616D+03
 0.516167178229023D+02 0.513176089393162D+02 -.266265082414813D+00 -.554235279158766D+01
 0.211823433049080D+03 -.952142899594431D+02 0.112896650847642D+03 -.121418699793742D+03
 0.000000000000000D+00 -.000000000000000D+00 -.000000000000000D+00 0.000000000000000D+00
 0.412477171367822D+03 0.000000000000000D+00 0.000000000000000D+00 0.412477171367822D+03
 0.382449548765674D+03 0.000000000000000D+00 0.000000000000000D+00 -.382449548765674D+03
 0.108016987534373D+03 0.282342167139188D+02 -.462526585156293D+02 0.203945786617141D+02
 0.144031662865500D+03 0.967470015976296D+02 0.535949859191378D+01 0.106566473923616D+03
 0.741537906257965D+02 0.717658997535532D+02 0.178247755181094D+02 -.554235279158766D+01
 0.234367570833280D+03 -.226707062638710D+02 0.177077512214812D+03 -.121418699793742D+03
 0.234356708274546D+03 -.174076411801230D+03 -.154009127809206D+03 0.300276226021482D+02
0.115517410733D-05 0.000000000000D+00 0.000000000000D+00 0.195013295630D-06 0.000000000000D+00  7 4 -4 23 -13 13 23 21 0 0.10351608D+00 0.14874477D-01 0.41803720D+05 0.41803720D+05 0.41803720D+05 0.11541981D+01  1  2  2  1  7  1        4 0.704086354555D-05 0.100000000000D+01
-.603612253137D-07 0.000000000000D+00 -.443617273647D-08 0.195013295630D-06 0.000000000000D+00  7 4 -4 23 -13 13 23 21 2 0.10351608D+00 0.14874477D-01 0.41803720D+05 0.41803720D+05 0.41803720D+05 0.11541981D+01  1  2  3  1  7  1        4 -.490114182929D-06 0.100000000000D+01
0.738362582737D-07 0.000000000000D+00 0.000000000000D+00 0.195013295630D-06 0.000000000000D+00  7 4 -4 23 -13 13 23 21 2 0.10351608D+00 0.14874477D-01 0.41803720D+05 0.41803720D+05 0.41803720D+05 0.11541981D+01  1  2 15  1  7  1        4 0.599527216458D-06 0.100000000000D+01
-.783998248744D-07 0.000000000000D+00 -.349984470731D-06 0.195013295630D-06 0.000000000000D+00  7 4 -4 23 -13 13 23 21 2 0.22195477D+00 0.14874477D-01 0.41803720D+05 0.41803720D+05 0.41803720D+05 0.11541981D+01  1  2  5  1  7  1        4 -.520156411527D-07 0.100000000000D+01
0.154022891895D-07 0.000000000000D+00 -.288910949484D-07 0.195013295630D-06 0.000000000000D+00  7 21 -4 23 -13 13 23 -4 2 0.22195477D+00 0.14874477D-01 0.41803720D+05 0.41803720D+05 0.41803720D+05 0.11541981D+01  1  2  5  3  7  1        4 0.325054471216D-06 0.100000000000D+01
  </mgrwgt>
  </event>
  <event>
  8     66 0.55102590E-06 0.35045184E+03 0.75467711E-02 0.94617044E-01
        2 -1    0    0  501    0 0.00000000E+00 0.00000000E+00 0.12887055E+04 0.12887056E+04 0.32000000E+00 0.0000E+00 0.9000E+01
       -2 -1    0    0    0  501 0.00000000E+00 0.00000000E+00 -.15419408E+03 0.15419441E+03 0.32000000E+00 0.0000E+00 0.9000E+01
       25  2    1    2    0    0 0.23135494E+03 -.17721285E+03 0.10433089E+04 0.11241101E+04 0.30033421E+03 0.0000E+00 0.0000E+00
       23  2    1    2    0    0 -.23135494E+03 0.17721285E+03 0.91202551E+02 0.31878984E+03 0.91539927E+02 0.0000E+00 0.0000E+00
       23  1    3    3    0    0 0.18546278E+03 -.10323155E+02 0.68870481E+03 0.71911931E+03 0.91188000E+02 0.0000E+00 0.9000E+01
      -13  1    4    4    0    0 -.90489495E+02 0.10948643E+03 0.93371994E+01 0.14234754E+03 0.10565837E+00 0.0000E+00 0.9000E+01
       13  1    4    4    0    0 -.14086544E+03 0.67726423E+02 0.81865352E+02 0.17644231E+03 0.10565837E+00 0.0000E+00 0.9000E+01
       23  1    3    3    0    0 0.45892154E+02 -.16688970E+03 0.35460410E+03 0.40499084E+03 0.91188000E+02 0.0000E+00 0.9000E+01
#aMCatNLO 1  0  0  1  2 0.24672294D+03 0.00000000D+00  -5  7  0 0.00000000D+00 0.00000000D+00 0.00000000D+00 0.00000000D+00 0.00000000D+00
  <mgrwgt>
 0.1619825392D-03    4    2    0
 0.445770154834994D+03 0.000000000000000D+00 0.000000000000000D+00 0.445770154834994D+03
 0.445770154834994D+03 0.000000000000000D+00 0.000000000000000D+00 -.445770154834994D+03
 0.287450536550205D+03 0.185462782376595D+03 -.103231549258353D+02 0.199523303011226D+03
 0.218498413211619D+03 -.904894279172464D+02 0.109486484117794D+03 -.166029906362465D+03
 0.181384259737677D+03 -.140865508074893D+03 0.677263671489794D+02 -.920342192240956D+02
 0.204207100170488D+03 0.458921536155440D+02 -.166889696340938D+03 0.585408225753346D+02
 0.000000000000000D+00 0.000000000000000D+00 -.000000000000000D+00 -.000000000000000D+00
 0.546037110292992D+03 0.000000000000000D+00 0.000000000000000D+00 0.546037110292992D+03
 0.644749683400740D+03 0.000000000000000D+00 0.000000000000000D+00 -.644749683400740D+03
 0.293011906956044D+03 0.181793325597489D+03 0.684278057350483D+02 0.199523303011226D+03
 0.258142594553871D+03 -.935025661430037D+02 0.174152058388491D+03 -.166029906362465D+03
 0.208738290168108D+03 -.143331710413130D+03 0.120654038739542D+03 -.920342192240956D+02
 0.165156575420909D+03 0.435571807701563D+02 -.116778367672790D+03 0.585408225753346D+02
 0.265737426594801D+03 0.114837701884888D+02 -.246455535190291D+03 -.987125731077481D+02
0.644665721811D-05 0.000000000000D+00 0.000000000000D+00 0.796954242128D-06 0.000000000000D+00  7 2 -2 23 -13 13 23 21 0 0.19826242D+00 0.23722195D-01 0.12281649D+06 0.12281649D+06 0.12281649D+06 0.11144703D+01  1  2  2  1  7  1        2 0.209378298017D-03 0.100000000000D+01
-.332943985548D-06 0.000000000000D+00 -.247568611614D-07 0.796954242128D-06 0.000000000000D+00  7 2 -2 23 -13 13 23 21 2 0.19826242D+00 0.23722195D-01 0.12281649D+06 0.12281649D+06 0.12281649D+06 0.11144703D+01  1  2  3  1  7  1        2 -.134309037002D-04 0.100000000000D+01
0.407825746487D-06 0.000000000000D+00 0.000000000000D+00 0.796954242128D-06 0.000000000000D+00  7 2 -2 23 -13 13 23 21 2 0.19826242D+00 0.23722195D-01 0.12281649D+06 0.12281649D+06 0.12281649D+06 0.11144703D+01  1  2 15  1  7  1        2 0.164516211895D-04 0.100000000000D+01
-.124979397687D-05 0.000000000000D+00 0.000000000000D+00 0.796954242128D-06 0.000000000000D+00  7 2 -2 23 -13 13 23 21 2 0.19826242D+00 0.23722195D-01 0.12281649D+06 0.12281649D+06 0.12281649D+06 0.11144703D+01  1  2  4  1  7  1        2 -.504164762758D-04 0.100000000000D+01
  </mgrwgt>
  </event>
  <event>
  8     66 0.55102590E-06 0.15383098E+03 0.75467711E-02 0.10234288E+00
        2 -1    0    0  501    0 0.00000000E+00 0.00000000E+00 0.76734610E+03 0.76734616E+03 0.32000000E+00 0.0000E+00 0.9000E+01
       -2 -1    0    0    0  501 0.00000000E+00 0.00000000E+00 -.11810342E+03 0.11810386E+03 0.32000000E+00 0.0000E+00 0.9000E+01
       25  2    1    2    0    0 -.12256568E+03 0.93315993E+02 0.17971025E+03 0.38338228E+03 0.30158909E+03 0.0000E+00 0.0000E+00
       23  2    1    2    0    0 0.12256568E+03 -.93315993E+02 0.46953242E+03 0.50206774E+03 0.88775563E+02 0.0000E+00 0.0000E+00
       23  1    3    3    0    0 0.25067799E+02 -.12300421E+02 0.15047354E+03 0.17814946E+03 0.91188000E+02 0.0000E+00 0.9000E+01
      -13  1    4    4    0    0 -.99564973E+01 -.13225306E+02 0.16792723E+02 0.23580655E+02 0.10565837E+00 0.0000E+00 0.9000E+01
       13  1    4    4    0    0 0.13252218E+03 -.80090687E+02 0.45273970E+03 0.47848709E+03 0.10565837E+00 0.0000E+00 0.9000E+01
       23  1    3    3    0    0 -.14763348E+03 0.10561641E+03 0.29236714E+02 0.20523282E+03 0.91188000E+02 0.0000E+00 0.9000E+01
#aMCatNLO 1  0  0  1  2 0.60396333D+02 0.00000000D+00  -5  7  0 0.00000000D+00 0.00000000D+00 0.00000000D+00 0.00000000D+00 0.00000000D+00
  <mgrwgt>
 0.3476373370D-03    9    2    0
 0.301042227468093D+03 0.000000000000000D+00 0.000000000000000D+00 0.301042227468093D+03
 0.301042227468093D+03 0.000000000000000D+00 0.000000000000000D+00 -.301042227468093D+03
 0.997345185942455D+02 0.250677943952984D+02 -.123004172780232D+02 0.291895233631428D+02
 0.165703810147171D+02 -.995669863071169D+01 -.132252113084622D+02 -.731754874670226D+00
 0.215482463979715D+03 0.132522384138150D+03 -.800907845362105D+02 0.149853182206732D+03
 0.270297091347508D+03 -.147633479902737D+03 0.105616413122696D+03 -.178310950695204D+03
 0.000000000000000D+00 -.000000000000000D+00 0.000000000000000D+00 0.000000000000000D+00
 0.380420889516934D+03 0.000000000000000D+00 0.000000000000000D+00 0.380420889516934D+03
 0.314264301471687D+03 0.000000000000000D+00 0.000000000000000D+00 -.314264301471687D+03
 0.102892344099031D+03 0.351138453729576D+02 -.136591624615138D+02 0.291895233631428D+02
 0.158415894381200D+02 -.834974334784540D+01 -.134425546959818D+02 -.731754874670226D+00
 0.230814361510630D+03 0.154649364739090D+03 -.830834956406610D+02 0.149853182206732D+03
 0.255557817921513D+03 -.121562083666565D+03 0.102090213211751D+03 -.178310950695204D+03
 0.895790780193273D+02 -.598513830976375D+02 0.809499958640601D+01 0.661565880452479D+02
0.259244182253D-05 0.000000000000D+00 0.000000000000D+00 0.153774670215D-07 0.000000000000D+00  7 2 -2 23 -13 13 23 21 0 0.11805328D+00 0.18169796D-01 0.55202788D+05 0.55202788D+05 0.55202788D+05 0.11435330D+01  1  2  2  1  7  1        2 0.274421971049D-03 0.100000000000D+01
-.133266025231D-06 0.000000000000D+00 -.995565920412D-08 0.153774670215D-07 0.000000000000D+00  7 2 -2 23 -13 13 23 21 2 0.11805328D+00 0.18169796D-01 0.55202788D+05 0.55202788D+05 0.55202788D+05 0.11435330D+01  1  2  3  1  7  1        2 -.184470411753D-04 0.100000000000D+01
0.163483398081D-06 0.000000000000D+00 0.000000000000D+00 0.153774670215D-07 0.000000000000D+00  7 2 -2 23 -13 13 23 21 2 0.11805328D+00 0.18169796D-01 0.55202788D+05 0.55202788D+05 0.55202788D+05 0.11435330D+01  1  2 15  1  7  1        2 0.226298110913D-04 0.100000000000D+01
0.473626702097D-05 0.000000000000D+00 0.000000000000D+00 0.153774670215D-07 0.000000000000D+00  7 2 -2 23 -13 13 23 21 2 0.15128370D+00 0.18169796D-01 0.71158607D+05 0.71158607D+05 0.71158607D+05 0.11340540D+01  1  2 12  1  7  1        2 0.466977971326D-03 0.100000000000D+01
-.496259063405D-05 0.000000000000D+00 0.000000000000D+00 0.153774670215D-07 0.000000000000D+00  7 2 -2 23 -13 13 23 21 2 0.11805328D+00 0.18169796D-01 0.55202788D+05 0.55202788D+05 0.55202788D+05 0.11435330D+01  1  2  4  1  7  1        2 -.686935125465D-03 0.100000000000D+01
-.682102246152D-05 0.000000000000D+00 -.143997718915D-05 0.153774670215D-07 0.000000000000D+00  7 2 -2 23 -13 13 23 21 2 0.15265373D+00 0.18169796D-01 0.55202788D+05 0.55202788D+05 0.55202788D+05 0.11435330D+01  1  2  5  1  7  1        2 -.676716183664D-03 0.100000000000D+01
0.700477046432D-05 0.000000000000D+00 0.139368449790D-05 0.153774670215D-07 0.000000000000D+00  7 2 -2 23 -13 13 23 21 2 0.11805328D+00 0.18169796D-01 0.55202788D+05 0.55202788D+05 0.55202788D+05 0.11435330D+01  1  2  6  1  7  1        2 0.969619143023D-03 0.100000000000D+01
0.159352928069D-06 0.000000000000D+00 0.000000000000D+00 0.153774670215D-07 0.000000000000D+00  7 21 -2 23 -13 13 23 -2 2 0.15128370D+00 0.18169796D-01 0.71158607D+05 0.71158607D+05 0.71158607D+05 0.11340540D+01  1  2 12  3  7  1        2 0.120001937649D-04 0.100000000000D+01
-.210360003465D-06 0.000000000000D+00 -.497395256676D-07 0.153774670215D-07 0.000000000000D+00  7 21 -2 23 -13 13 23 -2 2 0.15265373D+00 0.18169796D-01 0.55202788D+05 0.55202788D+05 0.55202788D+05 0.11435330D+01  1  2  5  3  7  1        2 -.159134029139D-04 0.100000000000D+01
  </mgrwgt>
  </event>
  <event>
  9     66 0.55102590E-06 0.20059714E+03 0.75467711E-02 0.10229486E+00
        2 -1    0    0  501    0 0.00000000E+00 0.00000000E+00 0.10570530E+04 0.10570531E+04 0.32000000E+00 0.0000E+00 0.9000E+01
       21 -1    0    0  502  501 0.00000000E+00 0.00000000E+00 -.96687644E+02 0.96690553E+02 0.75000000E+00 0.0000E+00 0.9000E+01
       25  2    1    2    0    0 0.53504665E+01 -.83558357E+02 0.29140883E+03 0.42668574E+03 0.30021824E+03 0.0000E+00 0.0000E+00
       23  2    1    2    0    0 0.10530050E+03 0.75706213E+02 0.50333072E+03 0.52771568E+03 0.91227198E+02 0.0000E+00 0.0000E+00
       23  1    3    3    0    0 0.89330754E+02 -.21965587E+02 0.33205726E+02 0.13371740E+03 0.91188000E+02 0.0000E+00 0.9000E+01
      -11  1    4    4    0    0 0.25996768E+02 0.72687820E+02 0.29009120E+03 0.30018704E+03 0.51099893E-03 0.0000E+00 0.9000E+01
       11  1    4    4    0    0 0.79303735E+02 0.30183930E+01 0.21323951E+03 0.22752864E+03 0.51099893E-03 0.0000E+00 0.9000E+01
       23  1    3    3    0    0 -.83980288E+02 -.61592770E+02 0.25820310E+03 0.29296835E+03 0.91188000E+02 0.0000E+00 0.9000E+01
        2  1    1    2  502    0 -.11065097E+03 0.78521438E+01 0.16562582E+03 0.19934218E+03 0.32000000E+00 0.0000E+00 0.9000E+01
#aMCatNLO 2  0  0  2  1 0.11092923D+03 0.00000000D+00  -5  7  0 0.00000000D+00 0.00000000D+00 0.00000000D+00 0.00000000D+00 0.00000000D+00
  <mgrwgt>
 0.4743903081D-04    1    2    0
 0.258343684636269D+03 0.000000000000000D+00 0.000000000000000D+00 0.258343684636269D+03
 0.258343684636269D+03 0.000000000000000D+00 0.000000000000000D+00 -.258343684636269D+03
 0.176457107867608D+03 0.503687632135038D+02 -.192007202469646D+02 -.141124695242684D+03
 0.103827140374350D+03 0.379514803244412D+01 0.742633174916360D+02 0.724612420875003D+02
 0.753501136024001D+02 0.617734455158980D+02 0.426239798031644D+01 0.429361504148471D+02
 0.161053007428180D+03 -.115937356761846D+03 -.593249952249878D+02 0.257273027403363D+02
 0.000000000000000D+00 -.000000000000000D+00 0.000000000000000D+00 -.000000000000000D+00
 0.319363492858960D+03 0.000000000000000D+00 0.000000000000000D+00 0.319363492858960D+03
 0.320028825922410D+03 0.000000000000000D+00 0.000000000000000D+00 -.320028825922410D+03
 0.191556523312046D+03 0.893307543475938D+02 -.219655867153106D+02 -.141124695242684D+03
 0.105877206030898D+03 0.259967682801268D+02 0.726878201009993D+02 0.724612420875003D+02
 0.902314032847256D+02 0.793037352832789D+02 0.301839301682751D+01 0.429361504148471D+02
 0.140795964232475D+03 -.839802878892111D+02 -.615927701918391D+02 0.257273027403363D+02
 0.110931221921226D+03 -.110650970021788D+03 0.785214378932286D+01 -.665333063450072D+00
0.282543382411D-07 0.000000000000D+00 0.000000000000D+00 0.173100755373D-06 0.399199944110D-11  7 2 21 23 -11 11 23 2 2 0.16262365D+00 0.14875239D-01 0.71674408D+05 0.71674408D+05 0.71674408D+05 0.11337879D+01  1  2  1  4  7  2       -2 0.474390308071D-04 0.100000000000D+01
  </mgrwgt>
  </event>
  <event>
  9     66 0.55102590E-06 0.17035765E+03 0.75467711E-02 0.10045633E+00
        2 -1    0    0  501    0 0.00000000E+00 0.00000000E+00 0.22922563E+04 0.22922563E+04 0.32000000E+00 0.0000E+00 0.9000E+01
       21 -1    0    0  502  501 0.00000000E+00 0.00000000E+00 -.58700938E+02 0.58705729E+02 0.75000000E+00 0.0000E+00 0.9000E+01
       25  2    1    2    0    0 -.39820389E+02 0.27671495E+02 0.91328835E+03 0.96258552E+03 0.30020643E+03 0.0000E+00 0.0000E+00
       23  2    1    2    0    0 -.25429024E+02 0.17516010E+03 0.44520682E+03 0.48774976E+03 0.91449539E+02 0.0000E+00 0.0000E+00
       23  1    3    3    0    0 -.32373947E+02 0.75303826E+02 0.80012933E+03 0.80946954E+03 0.91188000E+02 0.0000E+00 0.9000E+01
      -13  1    4    4    0    0 -.89837193E+01 0.11199661E+03 0.16219993E+03 0.19731390E+03 0.10565837E+00 0.0000E+00 0.9000E+01
       13  1    4    4    0    0 -.16445305E+02 0.63163489E+02 0.28300689E+03 0.29043585E+03 0.10565837E+00 0.0000E+00 0.9000E+01
       23  1    3    3    0    0 -.74464423E+01 -.47632332E+02 0.11315902E+03 0.15311598E+03 0.91188000E+02 0.0000E+00 0.9000E+01
        2  1    1    2  502    0 0.65249413E+02 -.20283160E+03 0.87506020E+03 0.90062678E+03 0.32000000E+00 0.0000E+00 0.9000E+01
#aMCatNLO 2  0  0  2  1 0.21306840D+03 0.00000000D+00  -5  7  0 0.00000000D+00 0.00000000D+00 0.00000000D+00 0.00000000D+00 0.00000000D+00
  <mgrwgt>
 0.4089319290D-04    1    2    0
 0.230523942521658D+03 0.000000000000000D+00 0.000000000000000D+00 0.230523942521658D+03
 0.230523942521658D+03 0.000000000000000D+00 0.000000000000000D+00 -.230523942521658D+03
 0.151055945686997D+03 -.106627854650163D+02 0.781341102061312D+01 0.119699218868559D+03
 0.922266192731491D+02 0.595412898949471D+01 0.655615415467261D+02 -.645908810943756D+02
 0.496287819699027D+02 -.822866331238791D+01 0.376214986651601D+02 0.313038006972773D+02
 0.168136538113267D+03 0.129373197879095D+02 -.110996451232499D+03 -.864121384714603D+02
 0.000000000000000D+00 0.000000000000000D+00 -.000000000000000D+00 0.000000000000000D+00
 0.414492741439221D+03 0.000000000000000D+00 0.000000000000000D+00 0.414492741439221D+03
 0.324645417427358D+03 0.000000000000000D+00 0.000000000000000D+00 -.324645417427358D+03
 0.171353119667509D+03 -.323739463329740D+02 0.753038171467709D+02 0.119699218868559D+03
 0.129599182165096D+03 -.898371295484957D+01 0.111996691910336D+03 -.645908810943756D+02
 0.723878076104752D+02 -.164453113214205D+02 0.631634268235810D+02 0.313038006972773D+02
 0.134560761021265D+03 -.744644252528710D+01 -.476323407059617D+02 -.864121384714603D+02
 0.231237288402234D+03 0.652494131345312D+02 -.202831595174727D+03 0.898473240118635D+02
0.495818469380D-07 0.000000000000D+00 0.000000000000D+00 0.244703636016D-06 0.311958016109D-11  7 2 21 23 -13 13 23 2 2 0.35265508D+00 0.90312810D-02 0.95004292D+05 0.95004292D+05 0.95004292D+05 0.11235531D+01  1  2  1  4  7  2       -2 0.408931929030D-04 0.100000000000D+01
  </mgrwgt>
  </event>
  <event>
  8     66 -.55102590E-06 0.22747662E+03 0.75467711E-02 0.10450796E+00
        2 -1    0    0  501    0 0.00000000E+00 0.00000000E+00 0.30610750E+03 0.30610767E+03 0.32000000E+00 0.0000E+00 0.9000E+01
       -2 -1    0    0    0  501 0.00000000E+00 0.00000000E+00 -.16250060E+04 0.16250060E+04 0.32000000E+00 0.0000E+00 0.9000E+01
       25  2    1    2    0    0 -.11257574E+03 -.10191487E+03 0.20570592E+03 0.39638569E+03 0.30289726E+03 0.0000E+00 0.0000E+00
       23  2    1    2    0    0 0.11257574E+03 0.10191487E+03 -.15246044E+04 0.15347280E+04 0.88946538E+02 0.0000E+00 0.0000E+00
       23  1    3    3    0    0 0.38616472E+02 -.12533325E+02 0.16727164E+03 0.19479057E+03 0.91188000E+02 0.0000E+00 0.9000E+01
      -11  1    4    4    0    0 0.11747135E+02 0.33211010E+02 -.72627115E+03 0.72712498E+03 0.51099893E-03 0.0000E+00 0.9000E+01
       11  1    4    4    0    0 0.10082860E+03 0.68703864E+02 -.79833324E+03 0.80760299E+03 0.51099893E-03 0.0000E+00 0.9000E+01
       23  1    3    3    0    0 -.15119221E+03 -.89381549E+02 0.38434287E+02 0.20159512E+03 0.91188000E+02 0.0000E+00 0.9000E+01
#aMCatNLO 1  0  0  2  1 0.21306840D+03 0.00000000D+00  -5  7  0 0.00000000D+00 0.00000000D+00 0.00000000D+00 0.00000000D+00 0.00000000D+00
  <mgrwgt>
 -.2270896576D-04    1    2    0
 0.705284843000318D+03 0.000000000000000D+00 0.000000000000000D+00 0.705284843000318D+03
 0.705284843000318D+03 0.000000000000000D+00 0.000000000000000D+00 -.705284843000318D+03
 0.423075194670385D+03 0.386164723466086D+02 -.125333253214032D+02 0.411131430106329D+03
 0.316385006491138D+03 0.117471349617567D+02 0.332110095266043D+02 -.314417725325421D+03
 0.359183025786192D+03 0.100828602301388D+03 0.687038644166163D+02 -.337825129297831D+03
 0.311926459052921D+03 -.151192209609754D+03 -.893815486218174D+02 0.241111424516922D+03
 0.000000000000000D+00 0.000000000000000D+00 -.000000000000000D+00 0.000000000000000D+00
 0.871427885952424D+03 0.000000000000000D+00 0.000000000000000D+00 0.871427885952424D+03
 0.817434098534298D+03 0.000000000000000D+00 0.000000000000000D+00 -.817434098534298D+03
 0.422687138047745D+03 -.356763588619916D+02 -.687822099590131D+01 0.411131430106329D+03
 0.319701904615316D+03 -.441275424655970D+02 0.374641403450846D+02 -.314417725325421D+03
 0.347875300168495D+03 0.387197061816393D+02 0.734315384247954D+02 -.337825129297831D+03
 0.342370874574704D+03 -.208666513544775D+03 -.850066556543446D+02 0.241111424516922D+03
 0.256226767080461D+03 0.249750708690724D+03 -.190108021196341D+02 0.539937874181263D+02
-.205616259421D-04 0.000000000000D+00 0.000000000000D+00 0.308071296326D-07 0.000000000000D+00  7 2 -2 23 -11 11 23 21 2 0.47093477D-01 0.25000093D+00 0.51745611D+05 0.51745611D+05 0.51745611D+05 0.11459868D+01  1  2 14  2  7  2       -2 -.227089657575D-04 0.100000000000D+01
  </mgrwgt>
  </event>
  <event>
  8     66 0.55102590E-06 0.19022298E+03 0.75467711E-02 0.85374044E-01
        2 -1    0    0  501    0 0.00000000E+00 0.00000000E+00 0.63673604E+03 0.63673612E+03 0.32000000E+00 0.0000E+00 0.9000E+01
       -2 -1    0    0    0  501 0.00000000E+00 0.00000000E+00 -.19448833E+03 0.19448860E+03 0.32000000E+00 0.0000E+00 0.9000E+01
       25  2    1    2    0    0 0.29557271E+02 0.58958997E+02 0.57954521E+03 0.65414258E+03 0.29610821E+03 0.0000E+00 0.0000E+00
       23  2    1    2    0    0 -.29557271E+02 -.58958997E+02 -.13729750E+03 0.17708214E+03 0.90319888E+02 0.0000E+00 0.0000E+00
       23  1    3    3    0    0 0.52410667E+02 -.62068258E+02 0.39928449E+03 0.41754366E+03 0.91188000E+02 0.0000E+00 0.9000E+01
      -11  1    4    4    0    0 -.50463604E+02 -.65937205E+02 -.12924251E+03 0.15361614E+03 0.51099893E-03 0.0000E+00 0.9000E+01
       11  1    4    4    0    0 0.20906333E+02 0.69782083E+01 -.80549898E+01 0.23465997E+02 0.51099893E-03 0.0000E+00 0.9000E+01
       23  1    3    3    0    0 -.22853396E+02 0.12102726E+03 0.18026072E+03 0.23659893E+03 0.91188000E+02 0.0000E+00 0.9000E+01
#aMCatNLO 1  0  0  1  2 0.12056623D+04 0.00000000D+00  -5  7  0 0.00000000D+00 0.00000000D+00 0.00000000D+00 0.00000000D+00 0.00000000D+00
  <mgrwgt>
 0.4300429882D-03    3    2    0
 0.351906058805810D+03 0.000000000000000D+00 0.000000000000000D+00 0.351906058805810D+03
 0.351906058805810D+03 0.000000000000000D+00 0.000000000000000D+00 -.351906058805810D+03
 0.242237881418217D+03 0.524106674613971D+02 -.620682580759186D+02 0.209199887967605D+03
 0.262636479671445D+03 -.504636038222153D+02 -.659372052062071D+02 -.249165868676026D+03
 0.327755329352763D+02 0.209063328015619D+02 0.697820828432377D+01 -.242583061470152D+02
 0.166162223586681D+03 -.228533964407437D+02 0.121027254997802D+03 0.642242868554365D+02
 0.000000000000000D+00 0.000000000000000D+00 0.000000000000000D+00 -.000000000000000D+00
 0.997926779778223D+03 0.000000000000000D+00 0.000000000000000D+00 0.997926779778223D+03
 0.190978884281838D+04 0.000000000000000D+00 0.000000000000000D+00 -.190978884281838D+04
 0.424131038535892D+03 -.314840899111256D+03 -.169359090770741D+03 0.209199887967605D+03
 0.635608929185590D+03 -.545507750827387D+03 -.210562044382695D+03 -.249165868676026D+03
 0.272836468160710D+02 -.121936921099688D+02 -.269180964948661D+01 -.242583061470152D+02
 0.309032649301522D+03 -.284744454486343D+03 0.445170035773172D+02 0.642242868554365D+02
 0.151165935875753D+04 0.115728679653495D+04 0.338095941225606D+03 -.911862063040160D+03
0.719055186891D-05 0.000000000000D+00 0.000000000000D+00 0.161247515375D-07 0.000000000000D+00  7 2 -2 23 -11 11 23 21 0 0.97959417D-01 0.29921309D-01 0.36184784D+05 0.36184784D+05 0.36184784D+05 0.11598576D+01  1  2  2  1  7  1        2 0.412617291844D-03 0.100000000000D+01
-.215669957350D-06 0.000000000000D+00 -.276136124924D-07 0.161247515375D-07 0.000000000000D+00  7 2 -2 23 -11 11 23 21 2 0.97959417D-01 0.29921309D-01 0.36184784D+05 0.36184784D+05 0.36184784D+05 0.11598576D+01  1  2  3  1  7  1        2 -.166488474403D-04 0.100000000000D+01
0.441403251819D-06 0.000000000000D+00 0.000000000000D+00 0.161247515375D-07 0.000000000000D+00  7 2 -2 23 -11 11 23 21 2 0.97959417D-01 0.29921309D-01 0.36184784D+05 0.36184784D+05 0.36184784D+05 0.11598576D+01  1  2 15  1  7  1        2 0.340745437587D-04 0.100000000000D+01
  </mgrwgt>
  </event>
  <event>
  8     66 0.55102590E-06 0.24527484E+03 0.75467711E-02 0.92851116E-01
        2 -1    0    0  501    0 0.00000000E+00 0.00000000E+00 0.20540282E+04 0.20540282E+04 0.32000000E+00 0.0000E+00 0.9000E+01
       -2 -1    0    0    0  501 0.00000000E+00 0.00000000E+00 -.12996080E+03 0.12996120E+03 0.32000000E+00 0.0000E+00 0.9000E+01
       25  2    1    2    0    0 0.29719271E+03 0.34606132E+03 0.12600645E+04 0.13731397E+04 0.29944641E+03 0.0000E+00 0.0000E+00
       23  2    1    2    0    0 -.29719271E+03 -.34606132E+03 0.66400291E+03 0.81084973E+03 0.92170864E+02 0.0000E+00 0.0000E+00
       23  1    3    3    0    0 0.36483654E+02 -.46293096E+01 0.19773193E+03 0.22082947E+03 0.91188000E+02 0.0000E+00 0.9000E+01
      -11  1    4    4    0    0 -.25458841E+03 -.33308459E+03 0.57844698E+03 0.71439591E+03 0.51099893E-03 0.0000E+00 0.9000E+01
       11  1    4    4    0    0 -.42604304E+02 -.12976730E+02 0.85555929E+02 0.96453819E+02 0.51099893E-03 0.0000E+00 0.9000E+01
       23  1    3    3    0    0 0.26070906E+03 0.35069063E+03 0.10623326E+04 0.11523102E+04 0.91188000E+02 0.0000E+00 0.9000E+01
#aMCatNLO 1  0  0  2  1 0.15289358D+03 0.00000000D+00  -5  7  0 0.00000000D+00 0.00000000D+00 0.00000000D+00 0.00000000D+00 0.00000000D+00
  <mgrwgt>
 0.2893027443D-03    9    2    0
 0.516665857926123D+03 0.000000000000000D+00 0.000000000000000D+00 0.516665857926123D+03
 0.516665857926123D+03 0.000000000000000D+00 0.000000000000000D+00 -.516665857926123D+03
 0.985546706797778D+02 0.364836543493679D+02 -.462930959034257D+01 0.672935560303312D+01
 0.432834995017326D+03 -.254588408169581D+03 -.333084594146707D+03 -.107636092828804D+03
 0.445536953695628D+02 -.426043036324655D+02 -.129767299597040D+02 0.122864259628750D+01
 0.457388354785579D+03 0.260709057452678D+03 0.350690633696754D+03 0.996780946294833D+02
 0.000000000000000D+00 0.000000000000000D+00 -.000000000000000D+00 -.000000000000000D+00
 0.550691901687659D+03 0.000000000000000D+00 0.000000000000000D+00 0.550691901687659D+03
 0.728061736105173D+03 0.000000000000000D+00 0.000000000000000D+00 -.728061736105173D+03
 0.947284502829746D+02 0.245600252062467D+02 0.312232029914338D+01 0.672935560303312D+01
 0.442267206712271D+03 -.308573433161822D+03 -.297988573607028D+03 -.107636092828804D+03
 0.492773541585789D+02 -.483927378791321D+02 -.921363070685026D+01 0.122864259628750D+01
 0.458308667458009D+03 0.204219739366817D+03 0.387414711681321D+03 0.996780946294833D+02
 0.234171959180999D+03 0.128186406467890D+03 -.833348276665865D+02 -.177369834417514D+03
0.145180383963D-04 0.000000000000D+00 0.000000000000D+00 0.521439073689D-06 0.000000000000D+00  7 2 -2 23 -11 11 23 21 0 0.31600437D+00 0.19994002D-01 0.25426524D+06 0.25426524D+06 0.25426524D+06 0.10899068D+01  1  2  2  2  7  2       -2 0.235682930523D-03 0.100000000000D+01
-.805977203415D-06 0.000000000000D+00 -.557530901291D-07 0.521439073689D-06 0.000000000000D+00  7 2 -2 23 -11 11 23 21 2 0.31600437D+00 0.19994002D-01 0.25426524D+06 0.25426524D+06 0.25426524D+06 0.10899068D+01  1  2  3  2  7  2       -2 -.155425292218D-04 0.100000000000D+01
0.926714261741D-06 0.000000000000D+00 0.000000000000D+00 0.521439073689D-06 0.000000000000D+00  7 2 -2 23 -11 11 23 21 2 0.31600437D+00 0.19994002D-01 0.25426524D+06 0.25426524D+06 0.25426524D+06 0.10899068D+01  1  2 15  2  7  2       -2 0.178708323664D-04 0.100000000000D+01
0.188124986251D-04 0.000000000000D+00 0.000000000000D+00 0.521439073689D-06 0.000000000000D+00  7 2 -2 23 -11 11 23 21 2 0.31600437D+00 0.28625172D-01 0.34395408D+06 0.34395408D+06 0.34395408D+06 0.10801859D+01  1  2 12  2  7  2       -2 0.190119758069D-03 0.100000000000D+01
-.199942808623D-04 0.000000000000D+00 0.000000000000D+00 0.521439073689D-06 0.000000000000D+00  7 2 -2 23 -11 11 23 21 2 0.31600437D+00 0.19994002D-01 0.25426524D+06 0.25426524D+06 0.25426524D+06 0.10899068D+01  1  2  4  2  7  2       -2 -.385571320446D-03 0.100000000000D+01
-.256440827570D-04 0.000000000000D+00 -.609751614092D-05 0.521439073689D-06 0.000000000000D+00  7 2 -2 23 -11 11 23 21 2 0.31600437D+00 0.30032693D-01 0.25426524D+06 0.25426524D+06 0.25426524D+06 0.10899068D+01  1  2  5  2  7  2       -2 -.245609655906D-03 0.100000000000D+01
0.263830482140D-04 0.000000000000D+00 0.562546544241D-05 0.521439073689D-06 0.000000000000D+00  7 2 -2 23 -11 11 23 21 2 0.31600437D+00 0.19994002D-01 0.25426524D+06 0.25426524D+06 0.25426524D+06 0.10899068D+01  1  2  6  2  7  2       -2 0.508772823955D-03 0.100000000000D+01
0.827470173615D-06 0.000000000000D+00 0.000000000000D+00 0.521439073689D-06 0.000000000000D+00  7 2 21 23 -11 11 23 2 2 0.31600437D+00 0.28625172D-01 0.34395408D+06 0.34395408D+06 0.34395408D+06 0.10801859D+01  1  2 12  4  7  2       -2 0.970479813266D-04 0.100000000000D+01
-.102305172664D-05 0.000000000000D+00 -.293889024936D-06 0.521439073689D-06 0.000000000000D+00  7 2 21 23 -11 11 23 2 2 0.31600437D+00 0.30032693D-01 0.25426524D+06 0.25426524D+06 0.25426524D+06 0.10899068D+01  1  2  5  4  7  2       -2 -.113468076384D-03 0.100000000000D+01
  </mgrwgt>
  </event>
  <event>
  8     66 0.55102590E-06 0.29100952E+03 0.75467711E-02 0.96051397E-01
        2 -1    0    0  501    0 0.00000000E+00 0.00000000E+00 0.96032976E+03 0.96032982E+03 0.32000000E+00 0.0000E+00 0.9000E+01
       -2 -1    0    0    0  501 0.00000000E+00 0.00000000E+00 -.10083110E+03 0.10083161E+03 0.32000000E+00 0.0000E+00 0.9000E+01
       25  2    1    2    0    0 -.15816677E+03 0.14605948E+03 0.39453804E+03 0.54031699E+03 0.29988679E+03 0.0000E+00 0.0000E+00
       23  2    1    2    0    0 0.15816677E+03 -.14605948E+03 0.46496062E+03 0.52084444E+03 0.93490400E+02 0.0000E+00 0.0000E+00
       23  1    3    3    0    0 0.42815256E+02 0.22646682E+02 0.18522991E+03 0.21206459E+03 0.91188000E+02 0.0000E+00 0.9000E+01
      -13  1    4    4    0    0 0.13931255E+03 -.87809079E+02 0.39454896E+03 0.42753633E+03 0.10565837E+00 0.0000E+00 0.9000E+01
       13  1    4    4    0    0 0.18854225E+02 -.58250399E+02 0.70411665E+02 0.93308116E+02 0.10565837E+00 0.0000E+00 0.9000E+01
       23  1    3    3    0    0 -.20098203E+03 0.12341280E+03 0.20930812E+03 0.32825240E+03 0.91188000E+02 0.0000E+00 0.9000E+01
#aMCatNLO 1  0  0  1  1 0.25075551D+03 0.00000000D+00  -5  7  0 0.00000000D+00 0.00000000D+00 0.00000000D+00 0.00000000D+00 0.00000000D+00
  <mgrwgt>
 0.2509570290D-03    6    2    0
 0.311177454479313D+03 0.000000000000000D+00 0.000000000000000D+00 0.311177454479313D+03
 0.311177454479313D+03 0.000000000000000D+00 0.000000000000000D+00 -.311177454479313D+03
 0.105775499623529D+03 0.428152550678542D+02 0.226466828449670D+02 0.229605458602634D+02
 0.184092477233983D+03 0.139312699402904D+03 -.878091193124832D+02 0.822895529504603D+02
 0.618556130939585D+02 0.188540723435656D+02 -.582503603653933D+02 -.880547242315315D+01
 0.270631319007155D+03 -.200982026814324D+03 0.123412796832909D+03 -.964446263875705D+02
 0.000000000000000D+00 0.000000000000000D+00 0.000000000000000D+00 0.000000000000000D+00
 0.516111164858570D+03 0.000000000000000D+00 0.000000000000000D+00 0.516111164858570D+03
 0.422515040479056D+03 0.000000000000000D+00 0.000000000000000D+00 -.422515040479056D+03
 0.950300622945958D+02 0.134162444046528D+02 -.287734523269671D+01 0.229605458602634D+02
 0.179282368814270D+03 0.861126741064559D+02 -.133997032060806D+03 0.822895529504603D+02
 0.763379696730204D+02 -.137820894657578D+01 -.758158941733437D+02 -.880547242315315D+01
 0.320321997170432D+03 -.287500760049625D+03 0.482978005617641D+02 -.964446263875705D+02
 0.267653807385307D+03 0.189350050485092D+03 0.164392470905083D+03 0.935961243795137D+02
0.166146410558D-05 0.000000000000D+00 0.000000000000D+00 0.827588366467D-07 0.000000000000D+00  7 2 -2 23 -13 13 23 21 0 0.14774308D+00 0.15512521D-01 0.84686540D+05 0.84686540D+05 0.84686540D+05 0.11276943D+01  1  2  2  1  7  1        2 0.169632610030D-03 0.100000000000D+01
-.917996605954D-07 0.000000000000D+00 -.638045963899D-08 0.827588366467D-07 0.000000000000D+00  7 2 -2 23 -13 13 23 21 2 0.14774308D+00 0.15512521D-01 0.84686540D+05 0.84686540D+05 0.84686540D+05 0.11276943D+01  1  2  3  1  7  1        2 -.119190656905D-04 0.100000000000D+01
0.107716732494D-06 0.000000000000D+00 0.000000000000D+00 0.827588366467D-07 0.000000000000D+00  7 2 -2 23 -13 13 23 21 2 0.14774308D+00 0.15512521D-01 0.84686540D+05 0.84686540D+05 0.84686540D+05 0.11276943D+01  1  2 15  1  7  1        2 0.139857032395D-04 0.100000000000D+01
-.529963705107D-06 0.000000000000D+00 -.492649154235D-06 0.827588366467D-07 0.000000000000D+00  7 2 -2 23 -13 13 23 21 2 0.29046411D+00 0.15512521D-01 0.84686540D+05 0.84686540D+05 0.84686540D+05 0.11276943D+01  1  2  5  1  7  1        2 -.211231615140D-04 0.100000000000D+01
0.773837850065D-06 0.000000000000D+00 0.398156137484D-06 0.827588366467D-07 0.000000000000D+00  7 2 -2 23 -13 13 23 21 2 0.14774308D+00 0.15512521D-01 0.84686540D+05 0.84686540D+05 0.84686540D+05 0.11276943D+01  1  2  6  1  7  1        2 0.100473401633D-03 0.100000000000D+01
-.967179372886D-08 0.000000000000D+00 -.360691000931D-07 0.827588366467D-07 0.000000000000D+00  7 21 -2 23 -13 13 23 -2 2 0.29046411D+00 0.15512521D-01 0.84686540D+05 0.84686540D+05 0.84686540D+05 0.11276943D+01  1  2  5  3  7  1        2 -.924586498131D-07 0.100000000000D+01
  </mgrwgt>
  </event>
  <event>
  8     66 0.55102590E-06 0.17235210E+03 0.75467711E-02 0.10661576E+00
        2 -1    0    0  501    0 0.00000000E+00 0.00000000E+00 0.12730804E+04 0.12730804E+04 0.32000000E+00 0.0000E+00 0.9000E+01
       -2 -1    0    0    0  501 0.00000000E+00 0.00000000E+00 -.47203713E+02 0.47204797E+02 0.32000000E+00 0.0000E+00 0.9000E+01
       25  2    1    2    0    0 -.24348090E+02 0.72942683E+02 0.52425112E+03 0.60913874E+03 0.30049509E+03 0.0000E+00 0.0000E+00
       23  2    1    2    0    0 0.24348090E+02 -.72942683E+02 0.70162558E+03 0.71114651E+03 0.86818433E+02 0.0000E+00 0.0000E+00
       23  1    3    3    0    0 0.10020080E+03 0.75895615E+02 0.28010720E+03 0.32027432E+03 0.91188000E+02 0.0000E+00 0.9000E+01
      -11  1    4    4    0    0 0.40871895E+01 -.53555678E+02 0.15959152E+03 0.16838755E+03 0.51099893E-03 0.0000E+00 0.9000E+01
       11  1    4    4    0    0 0.20260901E+02 -.19387005E+02 0.54203406E+03 0.54275896E+03 0.51099893E-03 0.0000E+00 0.9000E+01
       23  1    3    3    0    0 -.12454890E+03 -.29529316E+01 0.24414391E+03 0.28886441E+03 0.91188000E+02 0.0000E+00 0.9000E+01
#aMCatNLO 1  0  0  1  1 0.56345852D+00 0.00000000D+00  -5  7  0 0.00000000D+00 0.00000000D+00 0.00000000D+00 0.00000000D+00 0.00000000D+00
  <mgrwgt>
 0.2664879105D-03   10    2    0
 0.245142538580207D+03 0.000000000000000D+00 0.000000000000000D+00 0.245142538580207D+03
 0.245142538580207D+03 0.000000000000000D+00 0.000000000000000D+00 -.245142538580207D+03
 0.162102774095799D+03 0.100200804656267D+03 0.758956149219336D+02 -.464942190751903D+02
 0.544174845053360D+02 0.408718952758935D+01 -.535556783636532D+02 0.873766654565036D+01
 0.106325318639904D+03 0.202609008815798D+02 -.193870050036724D+02 0.102560778645306D+03
 0.167439499919376D+03 -.124548895065436D+03 -.295293155460800D+01 -.648042261157665D+02
 0.000000000000000D+00 -.000000000000000D+00 0.000000000000000D+00 0.000000000000000D+00
 0.246259644248132D+03 0.000000000000000D+00 0.000000000000000D+00 0.246259644248132D+03
 0.245213761677270D+03 0.000000000000000D+00 0.000000000000000D+00 -.245213761677270D+03
 0.162169477509639D+03 0.100369117885640D+03 0.758156702746604D+02 -.464942190751903D+02
 0.544481701165387D+02 0.414369615067078D+01 -.535825176208385D+02 0.873766654565036D+01
 0.106355980844390D+03 0.203712929245815D+02 -.194394385109635D+02 0.102560778645306D+03
 0.167311772466167D+03 -.124375142709466D+03 -.303545965333557D+01 -.648042261157665D+02
 0.118800498866696D+01 -.508964251425830D+00 0.241745510477218D+00 0.104588257086168D+01
0.395573209916D-06 0.000000000000D+00 0.000000000000D+00 0.201627760070D-07 0.000000000000D+00  7 2 -2 23 -11 11 23 21 0 0.19585861D+00 0.72621961D-02 0.38305517D+05 0.38305517D+05 0.38305517D+05 0.11576143D+01  1  2  2  1  7  1        2 0.859082720692D-04 0.100000000000D+01
-.206216039173D-07 0.000000000000D+00 -.151910528290D-08 0.201627760070D-07 0.000000000000D+00  7 2 -2 23 -11 11 23 21 2 0.19585861D+00 0.72621961D-02 0.38305517D+05 0.38305517D+05 0.38305517D+05 0.11576143D+01  1  2  3  1  7  1        2 -.600147952535D-05 0.100000000000D+01
0.243732384666D-07 0.000000000000D+00 0.000000000000D+00 0.201627760070D-07 0.000000000000D+00  7 2 -2 23 -11 11 23 21 2 0.19585861D+00 0.72621961D-02 0.38305517D+05 0.38305517D+05 0.38305517D+05 0.11576143D+01  1  2 15  1  7  1        2 0.709331302309D-05 0.100000000000D+01
-.821871060257D-04 0.000000000000D+00 0.000000000000D+00 0.201627760070D-07 0.000000000000D+00  7 2 -2 23 -11 11 23 21 2 0.19585861D+00 0.72621961D-02 0.38305517D+05 0.38305517D+05 0.38305517D+05 0.11576143D+01  1  2  4  1  7  1        2 -.239188103912D-01 0.100000000000D+01
-.168909341303D-03 0.000000000000D+00 -.942867123792D-05 0.201627760070D-07 0.000000000000D+00  7 2 -2 23 -11 11 23 21 2 0.19677583D+00 0.72621961D-02 0.38305517D+05 0.38305517D+05 0.38305517D+05 0.11576143D+01  1  2  5  1  7  1        2 -.487898368338D-01 0.100000000000D+01
0.168951652195D-03 0.000000000000D+00 0.942856833049D-05 0.201627760070D-07 0.000000000000D+00  7 2 -2 23 -11 11 23 21 2 0.19585861D+00 0.72621961D-02 0.38305517D+05 0.38305517D+05 0.38305517D+05 0.11576143D+01  1  2  6  1  7  1        2 0.491697874465D-01 0.100000000000D+01
0.821878432328D-04 0.000000000000D+00 0.000000000000D+00 0.201627760070D-07 0.453795636591D-06  7 2 -2 23 -11 11 23 21 2 0.19675113D+00 0.72643061D-02 0.38431208D+05 0.38431208D+05 0.38431208D+05 0.11574857D+01  1  2 11  1  7  1        2 0.237296510289D-01 0.100000000000D+01
0.144529228735D-15 0.000000000000D+00 0.000000000000D+00 0.201627760070D-07 0.000000000000D+00  7 21 -2 23 -11 11 23 -2 2 0.19677951D+00 0.72621961D-02 0.38431208D+05 0.38431208D+05 0.38431208D+05 0.11574857D+01  1  2 12  3  7  1        2 0.214442562675D-13 0.100000000000D+01
-.146860408366D-06 0.000000000000D+00 -.820216319464D-08 0.201627760070D-07 0.000000000000D+00  7 21 -2 23 -11 11 23 -2 2 0.19677583D+00 0.72621961D-02 0.38305517D+05 0.38305517D+05 0.38305517D+05 0.11576143D+01  1  2  5  3  7  1        2 -.217998180710D-04 0.100000000000D+01
0.707400300324D-07 0.000000000000D+00 0.000000000000D+00 0.201627760070D-07 0.384379412226D-09  7 21 -2 23 -11 11 23 -2 2 0.19675113D+00 0.72643061D-02 0.38431208D+05 0.38431208D+05 0.38431208D+05 0.11574857D+01  1  2 11  3  7  1        2 0.104963726237D-04 0.100000000000D+01
  </mgrwgt>
  </event>
  <event>
  8     66 0.55102590E-06 0.22676000E+03 0.75467711E-02 0.78622812E-01
        2 -1    0    0  501    0 0.00000000E+00 0.00000000E+00 0.35086841E+03 0.35086856E+03 0.32000000E+00 0.0000E+00 0.9000E+01
       -2 -1    0    0    0  501 0.00000000E+00 0.00000000E+00 -.25564587E+03 0.25564607E+03 0.32000000E+00 0.0000E+00 0.9000E+01
       25  2    1    2    0    0 -.11637351E+03 -.28292316E+02 0.23696622E+03 0.39946241E+03 0.29845264E+03 0.0000E+00 0.0000E+00
       23  2    1    2    0    0 0.11637351E+03 0.28292316E+02 -.14174367E+03 0.20705221E+03 0.91848255E+02 0.0000E+00 0.0000E+00
       23  1    3    3    0    0 -.16745268E+03 -.61959980E+02 0.20105111E+03 0.28392999E+03 0.91188000E+02 0.0000E+00 0.9000E+01
      -13  1    4    4    0    0 0.95675595E+02 -.13466455E+02 -.12396306E+03 0.15716875E+03 0.10565837E+00 0.0000E+00 0.9000E+01
       13  1    4    4    0    0 0.20697917E+02 0.41758771E+02 -.17780612E+02 0.49883465E+02 0.10565837E+00 0.0000E+00 0.9000E+01
       23  1    3    3    0    0 0.51079171E+02 0.33667663E+02 0.35915103E+02 0.11553242E+03 0.91188000E+02 0.0000E+00 0.9000E+01
#aMCatNLO 1  0  0  2  2 0.27307625D+04 0.00000000D+00  -5  7  0 0.00000000D+00 0.00000000D+00 0.00000000D+00 0.00000000D+00 0.00000000D+00
  <mgrwgt>
 0.2349037968D-03    3    2    0
 0.299496518296259D+03 0.000000000000000D+00 0.000000000000000D+00 0.299496518296259D+03
 0.299496518296259D+03 0.000000000000000D+00 0.000000000000000D+00 -.299496518296259D+03
 0.255534014735578D+03 -.167452682874687D+03 -.619599797766908D+02 0.158439077398930D+03
 0.178849029552191D+03 0.956756944126093D+02 -.134665270923489D+02 -.150505114592483D+03
 0.533362903264433D+02 0.206978178095784D+02 0.417588437109131D+02 -.259337458851529D+02
 0.111273701978305D+03 0.510791706524997D+02 0.336676631581267D+02 0.179997830787060D+02
 0.000000000000000D+00 -.000000000000000D+00 0.000000000000000D+00 0.000000000000000D+00
 0.277227361792702D+04 0.000000000000000D+00 0.000000000000000D+00 0.277227361792702D+04
 0.275423379873035D+04 0.000000000000000D+00 0.000000000000000D+00 -.275423379873035D+04
 0.631181400479248D+03 0.473205998881867D+03 -.375563377264258D+03 0.158439077398930D+03
 0.125349599479574D+04 0.113055594953594D+04 -.520041983323813D+03 -.150505114592483D+03
 0.249988438796327D+03 0.239852258760487D+03 -.655175878957832D+02 -.259337458851529D+02
 0.661019498408388D+03 0.609066925460415D+03 -.239468190061631D+03 0.179997830787060D+02
 0.273082208417767D+04 -.245268113263871D+04 0.120059113854548D+04 0.180398191966689D+02
0.342009496547D-05 0.000000000000D+00 0.000000000000D+00 0.513375758247D-07 0.000000000000D+00  7 2 -2 23 -13 13 23 21 0 0.53979783D-01 0.39330160D-01 0.51420096D+05 0.51420096D+05 0.51420096D+05 0.11462271D+01  1  2  2  2  7  2       -2 0.231727275891D-03 0.100000000000D+01
-.172124162569D-06 0.000000000000D+00 -.131340651991D-07 0.513375758247D-07 0.000000000000D+00  7 2 -2 23 -13 13 23 21 2 0.53979783D-01 0.39330160D-01 0.51420096D+05 0.51420096D+05 0.51420096D+05 0.11462271D+01  1  2  3  2  7  2       -2 -.153222365116D-04 0.100000000000D+01
0.207807986843D-06 0.000000000000D+00 0.000000000000D+00 0.513375758247D-07 0.000000000000D+00  7 2 -2 23 -13 13 23 21 2 0.53979783D-01 0.39330160D-01 0.51420096D+05 0.51420096D+05 0.51420096D+05 0.11462271D+01  1  2 15  2  7  2       -2 0.184987573847D-04 0.100000000000D+01
  </mgrwgt>
  </event>
  <event>
  8     66 0.55102590E-06 0.34525076E+03 0.75467711E-02 0.88544000E-01
        2 -1    0    0  501    0 0.00000000E+00 0.00000000E+00 0.20513772E+04 0.20513772E+04 0.32000000E+00 0.0000E+00 0.9000E+01
       -2 -1    0    0    0  501 0.00000000E+00 0.00000000E+00 -.77916076E+02 0.77916733E+02 0.32000000E+00 0.0000E+00 0.9000E+01
       25  2    1    2    0    0 0.26677365E+03 0.11450523E+03 0.15721190E+04 0.16264907E+04 0.29938974E+03 0.0000E+00 0.0000E+00
       23  2    1    2    0    0 -.26677365E+03 -.11450523E+03 0.40134207E+03 0.50280321E+03 0.86348010E+02 0.0000E+00 0.0000E+00
       23  1    3    3    0    0 0.12101714E+03 -.41513571E+02 0.94093922E+03 0.95396562E+03 0.91188000E+02 0.0000E+00 0.9000E+01
      -13  1    4    4    0    0 -.25520221E+03 -.84120365E+02 0.37274062E+03 0.45949972E+03 0.10565837E+00 0.0000E+00 0.9000E+01
       13  1    4    4    0    0 -.11571437E+02 -.30384870E+02 0.28601447E+02 0.43303492E+02 0.10565837E+00 0.0000E+00 0.9000E+01
       23  1    3    3    0    0 0.14575651E+03 0.15601881E+03 0.63117982E+03 0.67252513E+03 0.91188000E+02 0.0000E+00 0.9000E+01
#aMCatNLO 1  0  0  2  2 0.76591755D+03 0.00000000D+00  -5  7  0 0.00000000D+00 0.00000000D+00 0.00000000D+00 0.00000000D+00 0.00000000D+00
  <mgrwgt>
 0.3451477144D-03    5    2    0
 0.399794932040101D+03 0.000000000000000D+00 0.000000000000000D+00 0.399794932040101D+03
 0.399794932040101D+03 0.000000000000000D+00 0.000000000000000D+00 -.399794932040101D+03
 0.218069606798375D+03 0.121017141116818D+03 -.415135704742278D+02 0.151230212218297D+03
 0.303682122046398D+03 -.255202576155849D+03 -.841204459624583D+02 -.141485783544137D+03
 0.447250653080316D+02 -.115710721319705D+02 -.303847890155621D+02 -.307116647709662D+02
 0.233113069927398D+03 0.145756507171001D+03 0.156018805452248D+03 0.209672360968063D+02
 0.000000000000000D+00 0.000000000000000D+00 -.000000000000000D+00 -.000000000000000D+00
 0.591110766329860D+03 0.000000000000000D+00 0.000000000000000D+00 0.591110766329860D+03
 0.446528683197547D+04 0.000000000000000D+00 0.000000000000000D+00 -.446528683197547D+04
 0.232486103974747D+03 0.723265141340961D+02 0.132788687255264D+03 0.151230212218297D+03
 0.408688527145933D+03 -.332187003883433D+03 0.191467698911754D+03 -.141485783544137D+03
 0.368833135302044D+02 -.203903214227161D+02 0.118627831535663D+01 -.307116647709662D+02
 0.429178998011536D+03 0.741839684980450D+02 0.412233519765834D+03 0.209672360968063D+02
 0.394916065564291D+04 0.206066842674008D+03 -.737676184248208D+03 -.387417606564561D+04
0.949648089020D-05 0.000000000000D+00 0.000000000000D+00 0.265003866000D-07 0.000000000000D+00  7 2 -2 23 -13 13 23 21 0 0.31559654D+00 0.11987141D-01 0.11919809D+06 0.11919809D+06 0.11919809D+06 0.11155165D+01  1  2  2  2  7  2       -2 0.362469549621D-03 0.100000000000D+01
-.513781039383D-06 0.000000000000D+00 -.364689870992D-07 0.265003866000D-07 0.000000000000D+00  7 2 -2 23 -13 13 23 21 2 0.31559654D+00 0.11987141D-01 0.11919809D+06 0.11919809D+06 0.11919809D+06 0.11155165D+01  1  2  3  2  7  2       -2 -.244027566376D-04 0.100000000000D+01
0.613488579179D-06 0.000000000000D+00 0.000000000000D+00 0.265003866000D-07 0.000000000000D+00  7 2 -2 23 -13 13 23 21 2 0.31559654D+00 0.11987141D-01 0.11919809D+06 0.11919809D+06 0.11919809D+06 0.11155165D+01  1  2 15  2  7  2       -2 0.291385071657D-04 0.100000000000D+01
-.303745332968D-04 0.000000000000D+00 -.103435581981D-04 0.265003866000D-07 0.000000000000D+00  7 2 -2 23 -13 13 23 21 2 0.31559654D+00 0.18634421D+00 0.11919809D+06 0.11919809D+06 0.11919809D+06 0.11155165D+01  1  2  5  2  7  2       -2 -.524354145227D-05 0.100000000000D+01
-.116729411863D-04 0.000000000000D+00 -.317926459551D-05 0.265003866000D-07 0.000000000000D+00  7 2 21 23 -13 13 23 2 2 0.31559654D+00 0.18634421D+00 0.11919809D+06 0.11919809D+06 0.11919809D+06 0.11155165D+01  1  2  5  4  7  2       -2 -.168140442933D-04 0.100000000000D+01
  </mgrwgt>
  </event>
  <event>
  9     66 0.55102590E-06 0.35402992E+03 0.75467711E-02 0.90297581E-01
        2 -1    0    0  501    0 0.00000000E+00 0.00000000E+00 0.30736863E+04 0.30736863E+04 0.32000000E+00 0.0000E+00 0.9000E+01
       21 -1    0    0  502  501 0.00000000E+00 0.00000000E+00 -.40502992E+03 0.40503061E+03 0.75000000E+00 0.0000E+00 0.9000E+01
       25  2    1    2    0    0 -.46650668E+03 -.17351873E+03 0.18992005E+04 0.19861057E+04 0.29986020E+03 0.0000E+00 0.0000E+00
       23  2    1    2    0    0 0.16729873E+03 -.31899557E+03 0.83381649E+03 0.91275081E+03 0.90094777E+02 0.0000E+00 0.0000E+00
       23  1    3    3    0    0 -.34542988E+03 -.16711698E+03 0.16305849E+04 0.16776091E+04 0.91188000E+02 0.0000E+00 0.9000E+01
      -11  1    4    4    0    0 0.28722736E+02 -.87101008E+01 0.92715292E+02 0.97452484E+02 0.51099893E-03 0.0000E+00 0.9000E+01
       11  1    4    4    0    0 0.13857600E+03 -.31028547E+03 0.74110120E+03 0.81529833E+03 0.51099893E-03 0.0000E+00 0.9000E+01
       23  1    3    3    0    0 -.12107680E+03 -.64017580E+01 0.26861554E+03 0.30849657E+03 0.91188000E+02 0.0000E+00 0.9000E+01
        2  1    1    2  502    0 0.29920794E+03 0.49251430E+03 -.64360581E+02 0.57986043E+03 0.32000000E+00 0.0000E+00 0.9000E+01
#aMCatNLO 2  0  0  2  2 0.57627748D+03 0.00000000D+00  -5  7  0 0.00000000D+00 0.00000000D+00 0.00000000D+00 0.00000000D+00 0.00000000D+00
  <mgrwgt>
 0.2809016118D-04    1    2    0
 0.387908355646923D+03 0.000000000000000D+00 0.000000000000000D+00 0.387908355646923D+03
 0.387908355646923D+03 0.000000000000000D+00 0.000000000000000D+00 -.387908355646923D+03
 0.284949985635259D+03 -.224216314622142D+03 0.324078575551208D+02 0.146826489420287D+03
 0.430675493733431D+02 0.412916306753591D+02 0.119790577720807D+02 0.251340806242185D+01
 0.292122766995748D+03 0.248805945751921D+03 -.128840333348086D+03 -.826527728421634D+02
 0.155676409289497D+03 -.658812618051377D+02 0.844534180208848D+02 -.666871246405452D+02
 0.000000000000000D+00 0.000000000000000D+00 0.000000000000000D+00 -.000000000000000D+00
 0.527444999242701D+03 0.000000000000000D+00 0.000000000000000D+00 0.527444999242701D+03
 0.236031452561746D+04 0.000000000000000D+00 0.000000000000000D+00 -.236031452561746D+04
 0.420860019662562D+03 -.345429881397178D+03 -.167116976542834D+03 0.146826489420287D+03
 0.301194059781453D+02 0.287227356002377D+02 -.871010080463642D+01 0.251340806242185D+01
 0.349731124966914D+03 0.138575998585893D+03 -.310285467800294D+03 -.826527728421634D+02
 0.165719634139226D+03 -.121076796692662D+03 -.640175796630821D+01 -.666871246405452D+02
 0.192132934011331D+04 0.299207943903709D+03 0.492514303114073D+03 -.183286952637475D+04
0.534948349191D-05 0.000000000000D+00 0.000000000000D+00 0.351466528400D-06 0.681775528204D-11  7 2 21 23 -11 11 23 2 2 0.47287486D+00 0.62312349D-01 0.55669730D+06 0.55669730D+06 0.55669730D+06 0.10652290D+01  1  2  1  4  7  2       -2 0.280901611770D-04 0.100000000000D+01
  </mgrwgt>
  </event>
  <event>
  8     66 0.55102590E-06 0.30994157E+03 0.75467711E-02 0.84076378E-01
        2 -1    0    0  501    0 0.00000000E+00 0.00000000E+00 0.44827320E+03 0.44827332E+03 0.32000000E+00 0.0000E+00 0.9000E+01
       -2 -1    0    0    0  501 0.00000000E+00 0.00000000E+00 -.27858066E+03 0.27858084E+03 0.32000000E+00 0.0000E+00 0.9000E+01
       25  2    1    2    0    0 -.10665271E+03 0.24921233E+03 0.14749847E+03 0.43026419E+03 0.29981642E+03 0.0000E+00 0.0000E+00
       23  2    1    2    0    0 0.10665271E+03 -.24921233E+03 0.22194072E+02 0.29658997E+03 0.11828546E+03 0.0000E+00 0.0000E+00
       23  1    3    3    0    0 0.12338403E+02 0.10296080E+03 -.45571638E+02 0.14541385E+03 0.91188000E+02 0.0000E+00 0.9000E+01
      -11  1    4    4    0    0 0.54825770E+02 -.95188405E+02 0.66165662E+02 0.12823647E+03 0.51099893E-03 0.0000E+00 0.9000E+01
       11  1    4    4    0    0 0.51826941E+02 -.15402392E+03 -.43971590E+02 0.16835350E+03 0.51099893E-03 0.0000E+00 0.9000E+01
       23  1    3    3    0    0 -.11899111E+03 0.14625153E+03 0.19307011E+03 0.28485033E+03 0.91188000E+02 0.0000E+00 0.9000E+01
#aMCatNLO 1  0  0  2  1 0.13678698D+04 0.00000000D+00  -5  7  0 0.00000000D+00 0.00000000D+00 0.00000000D+00 0.00000000D+00 0.00000000D+00
  <mgrwgt>
 0.1927627842D-03    3    2    0
 0.353384141407556D+03 0.000000000000000D+00 0.000000000000000D+00 0.353384141407556D+03
 0.353384141407556D+03 0.000000000000000D+00 0.000000000000000D+00 -.353384141407556D+03
 0.160488003332911D+03 0.123384029810294D+02 0.102960802308060D+03 -.817801006953582D+02
 0.115994724081468D+03 0.548257694959064D+02 -.951884055650581D+02 0.372569249925402D+02
 0.183695413869920D+03 0.518269411062292D+02 -.154023922089690D+03 -.856423065810469D+02
 0.246590141530812D+03 -.118991113583165D+03 0.146251525346688D+03 0.130165482283865D+03
 0.000000000000000D+00 0.000000000000000D+00 -.000000000000000D+00 0.000000000000000D+00
 0.151728979986030D+04 0.000000000000000D+00 0.000000000000000D+00 0.151728979986030D+04
 0.139564973734288D+04 0.000000000000000D+00 0.000000000000000D+00 -.139564973734288D+04
 0.427111920979993D+03 -.298922954959841D+03 0.279403693296194D+03 -.817801006953582D+02
 0.695314714216013D+02 -.434505119610972D+02 -.394791092664431D+02 0.372569249925402D+02
 0.165910436110291D+03 -.133365035792266D+03 -.490452379126916D+02 -.856423065810469D+02
 0.877117993306640D+03 -.714237820579765D+03 0.483675516967255D+03 0.130165482283865D+03
 0.137326771538466D+04 0.118997632329297D+04 -.674554863084315D+03 0.121640062517418D+03
0.432606901508D-05 0.000000000000D+00 0.000000000000D+00 0.186453733754D-08 0.000000000000D+00  7 2 -2 23 -11 11 23 21 0 0.68965131D-01 0.42858586D-01 0.96063776D+05 0.96063776D+05 0.96063776D+05 0.11231560D+01  1  2  2  2  7  2       -2 0.190661455651D-03 0.100000000000D+01
-.235309297905D-06 0.000000000000D+00 -.166132440980D-07 0.186453733754D-08 0.000000000000D+00  7 2 -2 23 -11 11 23 21 2 0.68965131D-01 0.42858586D-01 0.96063776D+05 0.96063776D+05 0.96063776D+05 0.11231560D+01  1  2  3  2  7  2       -2 -.130824397630D-04 0.100000000000D+01
0.273105164539D-06 0.000000000000D+00 0.000000000000D+00 0.186453733754D-08 0.000000000000D+00  7 2 -2 23 -11 11 23 21 2 0.68965131D-01 0.42858586D-01 0.96063776D+05 0.96063776D+05 0.96063776D+05 0.11231560D+01  1  2 15  2  7  2       -2 0.151837683247D-04 0.100000000000D+01
  </mgrwgt>
  </event>
  <event>
  8     66 0.55102590E-06 0.50856954E+03 0.75467711E-02 0.83150082E-01
        2 -1    0    0  501    0 0.00000000E+00 0.00000000E+00 0.10600420E+04 0.10600421E+04 0.32000000E+00 0.0000E+00 0.9000E+01
       -2 -1    0    0    0  501 0.00000000E+00 0.00000000E+00 -.41924047E+03 0.41924060E+03 0.32000000E+00 0.0000E+00 0.9000E+01
       25  2    1    2    0    0 -.46761911E+03 0.35821994E+02 -.13074491E+03 0.57183549E+03 0.29991790E+03 0.0000E+00 0.0000E+00
       23  2    1    2    0    0 0.46761911E+03 -.35821994E+02 0.77154645E+03 0.90744717E+03 0.90695106E+02 0.0000E+00 0.0000E+00
       23  1    3    3    0    0 -.40174364E+03 -.32824231E+02 -.47566766E+02 0.41599667E+03 0.91188000E+02 0.0000E+00 0.9000E+01
      -13  1    4    4    0    0 0.31146882E+02 -.16356145E+02 0.27686043E+02 0.44768068E+02 0.10565837E+00 0.0000E+00 0.9000E+01
       13  1    4    4    0    0 0.43647223E+03 -.19465849E+02 0.74386041E+03 0.86267911E+03 0.10565837E+00 0.0000E+00 0.9000E+01
       23  1    3    3    0    0 -.65875473E+02 0.68646224E+02 -.83178142E+02 0.15583882E+03 0.91188000E+02 0.0000E+00 0.9000E+01
#aMCatNLO 1  0  0  2  1 0.14181557D+04 0.00000000D+00  -5  7  0 0.00000000D+00 0.00000000D+00 0.00000000D+00 0.00000000D+00 0.00000000D+00
  <mgrwgt>
 0.2927440234D-03    5    2    0
 0.666642816071699D+03 0.000000000000000D+00 0.000000000000000D+00 0.666642816071699D+03
 0.666642816071699D+03 0.000000000000000D+00 0.000000000000000D+00 -.666642816071699D+03
 0.484410469493259D+03 -.401743638903064D+03 -.328242305062752D+02 -.252711040722947D+03
 0.363630619574364D+02 0.311463319488972D+02 -.163561406700154D+02 0.920081210720727D+01
 0.599631729476383D+03 0.436472780208808D+03 -.194658530428852D+02 0.410695512146096D+03
 0.212880371216320D+03 -.658754732546409D+02 0.686462242191758D+02 -.167185283530357D+03
 0.000000000000000D+00 -.000000000000000D+00 -.000000000000000D+00 -.000000000000000D+00
 0.140687308653067D+04 0.000000000000000D+00 0.000000000000000D+00 0.140687308653067D+04
 0.213274071454406D+04 0.000000000000000D+00 0.000000000000000D+00 -.213274071454406D+04
 0.543324141896285D+03 -.265891804480026D+03 0.390287778479438D+03 -.252711040722947D+03
 0.466504241222583D+02 0.421195289598747D+02 0.178200002119171D+02 0.920081210720727D+01
 0.997625779702394D+03 0.647607406077376D+03 0.638115224879956D+03 0.410695512146096D+03
 0.358887802231394D+03 0.970411155914731D+01 0.304039659314706D+03 -.167185283530357D+03
 0.159312565312240D+04 -.433539242116372D+03 -.135026266288602D+04 -.725867628013393D+03
0.431950027433D-04 0.000000000000D+00 0.000000000000D+00 0.464562761938D-05 0.000000000000D+00  7 2 -2 23 -13 13 23 21 0 0.16308340D+00 0.64498548D-01 0.25864297D+06 0.25864297D+06 0.25864297D+06 0.10893504D+01  1  2  2  2  7  2       -2 0.284765596329D-03 0.100000000000D+01
-.218599192912D-05 0.000000000000D+00 -.165880184040D-06 0.464562761938D-05 0.000000000000D+00  7 2 -2 23 -13 13 23 21 2 0.16308340D+00 0.64498548D-01 0.25864297D+06 0.25864297D+06 0.25864297D+06 0.10893504D+01  1  2  3  2  7  2       -2 -.171016401437D-04 0.100000000000D+01
0.270150771899D-05 0.000000000000D+00 0.000000000000D+00 0.464562761938D-05 0.000000000000D+00  7 2 -2 23 -13 13 23 21 2 0.16308340D+00 0.64498548D-01 0.25864297D+06 0.25864297D+06 0.25864297D+06 0.10893504D+01  1  2 15  2  7  2       -2 0.211346676263D-04 0.100000000000D+01
0.308314867447D-04 0.000000000000D+00 -.179354662640D-04 0.464562761938D-05 0.000000000000D+00  7 2 -2 23 -13 13 23 21 2 0.16308340D+00 0.33833998D+00 0.25864297D+06 0.25864297D+06 0.25864297D+06 0.10893504D+01  1  2  5  2  7  2       -2 0.171498143301D-05 0.100000000000D+01
0.556843059763D-05 0.000000000000D+00 -.363184304577D-05 0.464562761938D-05 0.000000000000D+00  7 2 21 23 -13 13 23 2 2 0.16308340D+00 0.33833998D+00 0.25864297D+06 0.25864297D+06 0.25864297D+06 0.10893504D+01  1  2  5  4  7  2       -2 0.223041817527D-05 0.100000000000D+01
  </mgrwgt>
  </event>
  <event>
  8     66 0.55102590E-06 0.66260071E+03 0.75467711E-02 0.83765569E-01
        2 -1    0    0  501    0 0.00000000E+00 0.00000000E+00 0.18777383E+04 0.18777383E+04 0.32000000E+00 0.0000E+00 0.9000E+01
       -2 -1    0    0    0  501 0.00000000E+00 0.00000000E+00 -.24383342E+03 0.24383363E+03 0.32000000E+00 0.0000E+00 0.9000E+01
       25  2    1    2    0    0 0.58626044E+03 0.26200772E+03 0.87155764E+03 0.11206046E+04 0.28946956E+03 0.0000E+00 0.0000E+00
       23  2    1    2    0    0 -.58626044E+03 -.26200772E+03 0.76234720E+03 0.10009673E+04 0.91722082E+02 0.0000E+00 0.0000E+00
       23  1    3    3    0    0 0.47204982E+03 0.23151144E+03 0.55127121E+03 0.76723125E+03 0.91188000E+02 0.0000E+00 0.9000E+01
      -13  1    4    4    0    0 -.43828840E+03 -.20237957E+03 0.62990871E+03 0.79362410E+03 0.10565837E+00 0.0000E+00 0.9000E+01
       13  1    4    4    0    0 -.14797204E+03 -.59628146E+02 0.13243849E+03 0.20734320E+03 0.10565837E+00 0.0000E+00 0.9000E+01
       23  1    3    3    0    0 0.11421062E+03 0.30496275E+02 0.32028643E+03 0.35337336E+03 0.91188000E+02 0.0000E+00 0.9000E+01
#aMCatNLO 1  0  0  2  1 0.11873024D+04 0.00000000D+00  -5  7  0 0.00000000D+00 0.00000000D+00 0.00000000D+00 0.00000000D+00 0.00000000D+00
  <mgrwgt>
 0.3944933252D-02    3    2    0
 0.676650271842863D+03 0.000000000000000D+00 0.000000000000000D+00 0.676650271842863D+03
 0.676650271842863D+03 0.000000000000000D+00 0.000000000000000D+00 -.676650271842863D+03
 0.537213677336947D+03 0.472049824458465D+03 0.231511441478712D+03 -.620862260655832D+02
 0.483647392590976D+03 -.438288788873887D+03 -.202379759616351D+03 0.293286686561038D+02
 0.165152567482281D+03 -.147971653127971D+03 -.596279566964540D+02 -.427114410523745D+02
 0.167286906275522D+03 0.114210617543393D+03 0.304962748340937D+02 0.754689984618539D+02
 0.000000000000000D+00 0.000000000000000D+00 -.000000000000000D+00 0.000000000000000D+00
 0.168655693947306D+04 0.000000000000000D+00 0.000000000000000D+00 0.168655693947306D+04
 0.134829804647578D+04 0.000000000000000D+00 0.000000000000000D+00 -.134829804647578D+04
 0.397304714111285D+03 0.142285847520658D+03 0.354169200579767D+03 -.620862260655832D+02
 0.941904681348226D+03 -.941324069437620D+03 -.152726630933283D+02 0.293286686561038D+02
 0.323142950037200D+03 -.320276739097003D+03 0.446199006768891D+01 -.427114410523745D+02
 0.137955761345245D+03 0.649948320205763D+01 0.705601001531116D+02 0.754689984618539D+02
 0.123454687910688D+04 0.111281547781191D+04 -.413918627707239D+03 0.338258892997278D+03
0.595861832296D-03 0.000000000000D+00 0.000000000000D+00 0.628639489906D-08 0.000000000000D+00  7 2 -2 23 -13 13 23 21 0 0.28888283D+00 0.37512852D-01 0.43903970D+06 0.43903970D+06 0.43903970D+06 0.10725242D+01  1  2  2  2  7  2       -2 0.390909418845D-02 0.100000000000D+01
-.330857157725D-04 0.000000000000D+00 -.228826633004D-05 0.628639489906D-08 0.000000000000D+00  7 2 -2 23 -13 13 23 21 2 0.28888283D+00 0.37512852D-01 0.43903970D+06 0.43903970D+06 0.43903970D+06 0.10725242D+01  1  2  3  2  7  2       -2 -.249680866224D-03 0.100000000000D+01
0.378348225087D-04 0.000000000000D+00 0.000000000000D+00 0.628639489906D-08 0.000000000000D+00  7 2 -2 23 -13 13 23 21 2 0.28888283D+00 0.37512852D-01 0.43903970D+06 0.43903970D+06 0.43903970D+06 0.10725242D+01  1  2 15  2  7  2       -2 0.285519930183D-03 0.100000000000D+01
  </mgrwgt>
  </event>
  <event>
  8     66 0.55102590E-06 0.18291716E+03 0.75467711E-02 0.10231057E+00
        2 -1    0    0  501    0 0.00000000E+00 0.00000000E+00 0.19710848E+04 0.19710849E+04 0.32000000E+00 0.0000E+00 0.9000E+01
       -2 -1    0    0    0  501 0.00000000E+00 0.00000000E+00 -.40548663E+03 0.40548676E+03 0.32000000E+00 0.0000E+00 0.9000E+01
       25  2    1    2    0    0 -.13590497E+02 -.92917491E+02 0.19475809E+04 0.19728810E+04 0.30061614E+03 0.0000E+00 0.0000E+00
       23  2    1    2    0    0 0.13590497E+02 0.92917491E+02 -.38198266E+03 0.40369057E+03 0.90757720E+02 0.0000E+00 0.0000E+00
       23  1    3    3    0    0 -.87724898E+02 -.37354010E+02 0.43104014E+03 0.45077914E+03 0.91188000E+02 0.0000E+00 0.9000E+01
      -13  1    4    4    0    0 -.14459301E+02 0.13891464E+02 -.10063419E+02 0.22434966E+02 0.10565837E+00 0.0000E+00 0.9000E+01
       13  1    4    4    0    0 0.28049797E+02 0.79026027E+02 -.37191924E+03 0.38125560E+03 0.10565837E+00 0.0000E+00 0.9000E+01
       23  1    3    3    0    0 0.74134402E+02 -.55563481E+02 0.15165407E+04 0.15221019E+04 0.91188000E+02 0.0000E+00 0.9000E+01
#aMCatNLO 1  0  0  2  1 0.14506734D+03 0.00000000D+00  -5  7  0 0.00000000D+00 0.00000000D+00 0.00000000D+00 0.00000000D+00 0.00000000D+00
  <mgrwgt>
 0.5534707465D-03    4    2    0
 0.894007117525037D+03 0.000000000000000D+00 0.000000000000000D+00 0.894007117525037D+03
 0.894007117525037D+03 0.000000000000000D+00 0.000000000000000D+00 -.894007117525037D+03
 0.221739419481384D+03 -.877248982968962D+02 -.373540102983690D+02 0.178219356247771D+03
 0.386303696532781D+02 -.144593582552642D+02 0.138913756022554D+02 -.330191172242975D+02
 0.832409062126348D+03 0.280498549261704D+02 0.790261157497208D+02 -.828174453468711D+03
 0.695235383789064D+03 0.741344016259899D+02 -.555634810536072D+02 0.682974214445238D+03
 0.000000000000000D+00 0.000000000000000D+00 -.000000000000000D+00 0.000000000000000D+00
 0.108520056192234D+04 0.000000000000000D+00 0.000000000000000D+00 0.108520056192234D+04
 0.924891457423576D+03 0.000000000000000D+00 0.000000000000000D+00 -.924891457423576D+03
 0.225077555252445D+03 -.100015303483854D+03 -.240718645326908D+02 0.178219356247771D+03
 0.403812979119178D+02 -.166326987140772D+02 0.162400878158310D+02 -.330191172242975D+02
 0.838304631706863D+03 -.179057586913316D+02 0.128689991719130D+03 -.828174453468711D+03
 0.690125987000155D+03 0.360278534414641D+02 -.143820293508748D+02 0.682974214445238D+03
 0.216202547474537D+03 0.985259074477987D+02 -.106476185651395D+03 0.160309104498768D+03
0.211556612779D-03 0.000000000000D+00 0.000000000000D+00 0.401725991546D-05 0.000000000000D+00  7 2 -2 23 -13 13 23 21 0 0.30324383D+00 0.62382570D-01 0.33458689D+05 0.33458689D+05 0.33458689D+05 0.11629646D+01  1  2  2  2  7  2       -2 0.524942983892D-03 0.100000000000D+01
0.242229878802D-04 0.000000000000D+00 -.812433097206D-06 0.401725991546D-05 0.000000000000D+00  7 2 -2 23 -13 13 23 21 2 0.30324383D+00 0.62382570D-01 0.33458689D+05 0.33458689D+05 0.33458689D+05 0.11629646D+01  1  2  3  2  7  2       -2 0.812917027226D-04 0.100000000000D+01
0.124665691756D-04 0.000000000000D+00 0.000000000000D+00 0.401725991546D-05 0.000000000000D+00  7 2 -2 23 -13 13 23 21 2 0.30324383D+00 0.62382570D-01 0.33458689D+05 0.33458689D+05 0.33458689D+05 0.11629646D+01  1  2 15  2  7  2       -2 0.418374744026D-04 0.100000000000D+01
-.281889644408D-04 0.000000000000D+00 0.000000000000D+00 0.401725991546D-05 0.000000000000D+00  7 2 -2 23 -13 13 23 21 2 0.30324383D+00 0.62382570D-01 0.33458689D+05 0.33458689D+05 0.33458689D+05 0.11629646D+01  1  2  4  2  7  2       -2 -.946014145204D-04 0.100000000000D+01
  </mgrwgt>
  </event>
  <event>
  8     66 0.55102590E-06 0.12923411E+03 0.75467711E-02 0.95436684E-01
        2 -1    0    0  501    0 0.00000000E+00 0.00000000E+00 0.19665586E+04 0.19665586E+04 0.32000000E+00 0.0000E+00 0.9000E+01
       -2 -1    0    0    0  501 0.00000000E+00 0.00000000E+00 -.23791810E+03 0.23791832E+03 0.32000000E+00 0.0000E+00 0.9000E+01
       25  2    1    2    0    0 0.35406936E+03 0.13965343E+03 0.57339141E+02 0.48797220E+03 0.29993482E+03 0.0000E+00 0.0000E+00
       23  2    1    2    0    0 -.35406936E+03 -.13965343E+03 0.16713013E+04 0.17165047E+04 0.90951118E+02 0.0000E+00 0.0000E+00
       23  1    3    3    0    0 0.21429644E+02 -.42951839E+01 -.39709723E+02 0.10183217E+03 0.91188000E+02 0.0000E+00 0.9000E+01
      -11  1    4    4    0    0 -.28549556E+03 -.70803327E+02 0.12624415E+04 0.12962559E+04 0.51099893E-03 0.0000E+00 0.9000E+01
       11  1    4    4    0    0 -.68573806E+02 -.68850103E+02 0.40885986E+03 0.42024884E+03 0.51099893E-03 0.0000E+00 0.9000E+01
       23  1    3    3    0    0 0.33263972E+03 0.14394861E+03 0.97048864E+02 0.38614003E+03 0.91188000E+02 0.0000E+00 0.9000E+01
#aMCatNLO 1  0  0  2  1 0.68814551D+02 0.00000000D+00  -5  7  0 0.00000000D+00 0.00000000D+00 0.00000000D+00 0.00000000D+00 0.00000000D+00
  <mgrwgt>
 0.2939889250D-03    6    2    0
 0.684017651521287D+03 0.000000000000000D+00 0.000000000000000D+00 0.684017651521287D+03
 0.684017651521287D+03 0.000000000000000D+00 0.000000000000000D+00 -.684017651521287D+03
 0.214271160068557D+03 0.214296442825634D+02 -.429518394523619D+01 -.192663438238615D+03
 0.493597447201587D+03 -.285495558058723D+03 -.708033265412442D+02 0.396380644284450D+03
 0.160563960768391D+03 -.685738058480988D+02 -.688501026414764D+02 0.127820507022147D+03
 0.499602735004038D+03 0.332639719624259D+03 0.143948613127957D+03 -.331537713067982D+03
 0.000000000000000D+00 0.000000000000000D+00 -.000000000000000D+00 0.000000000000000D+00
 0.722953236212207D+03 0.000000000000000D+00 0.000000000000000D+00 0.722953236212207D+03
 0.715978801145931D+03 0.000000000000000D+00 0.000000000000000D+00 -.715978801145931D+03
 0.213687084906345D+03 0.145562767596867D+02 0.397910602297617D+01 -.192663438238615D+03
 0.500658309361895D+03 -.301464137486367D+03 -.515800482682596D+02 0.396380644284450D+03
 0.160307039427538D+03 -.737272626109402D+02 -.626462738119439D+02 0.127820507022147D+03
 0.495112521638525D+03 0.316663760240843D+03 0.163180775531436D+03 -.331537713067982D+03
 0.691670820238353D+02 0.439713630967776D+02 -.529335594742088D+02 0.697443506627646D+01
0.308573113369D-04 0.000000000000D+00 0.000000000000D+00 0.289374295336D-05 0.000000000000D+00  7 2 -2 23 -11 11 23 21 0 0.30254749D+00 0.36602803D-01 0.18439889D+06 0.18439889D+06 0.18439889D+06 0.11005447D+01  1  2  2  2  7  2       -2 0.197209289657D-03 0.100000000000D+01
-.126253288142D-05 0.000000000000D+00 -.118500200450D-06 0.289374295336D-05 0.000000000000D+00  7 2 -2 23 -11 11 23 21 2 0.30254749D+00 0.36602803D-01 0.18439889D+06 0.18439889D+06 0.18439889D+06 0.11005447D+01  1  2  3  2  7  2       -2 -.977298707846D-05 0.100000000000D+01
0.190428918511D-05 0.000000000000D+00 0.000000000000D+00 0.289374295336D-05 0.000000000000D+00  7 2 -2 23 -11 11 23 21 2 0.30254749D+00 0.36602803D-01 0.18439889D+06 0.18439889D+06 0.18439889D+06 0.11005447D+01  1  2 15  2  7  2       -2 0.147406803210D-04 0.100000000000D+01
0.456882478564D-04 0.000000000000D+00 0.000000000000D+00 0.289374295336D-05 0.000000000000D+00  7 2 -2 23 -11 11 23 21 2 0.30254749D+00 0.39302759D-01 0.21694994D+06 0.21694994D+06 0.21694994D+06 0.10951222D+01  1  2 12  2  7  2       -2 0.304568857372D-03 0.100000000000D+01
-.327117550124D-04 0.000000000000D+00 0.000000000000D+00 0.289374295336D-05 0.000000000000D+00  7 2 -2 23 -11 11 23 21 2 0.30254749D+00 0.36602803D-01 0.18439889D+06 0.18439889D+06 0.18439889D+06 0.11005447D+01  1  2  4  2  7  2       -2 -.253214441980D-03 0.100000000000D+01
0.550561869513D-06 0.000000000000D+00 0.000000000000D+00 0.289374295336D-05 0.000000000000D+00  7 2 21 23 -11 11 23 2 2 0.30254749D+00 0.39302759D-01 0.21694994D+06 0.21694994D+06 0.21694994D+06 0.10951222D+01  1  2 12  4  7  2       -2 0.404575267077D-04 0.100000000000D+01
  </mgrwgt>
  </event>
  <event>
  8     66 0.55102590E-06 0.34014257E+03 0.75467711E-02 0.99040711E-01
        2 -1    0    0  501    0 0.00000000E+00 0.00000000E+00 0.93157187E+03 0.93157192E+03 0.32000000E+00 0.0000E+00 0.9000E+01
       -2 -1    0    0    0  501 0.00000000E+00 0.00000000E+00 -.33044442E+03 0.33044458E+03 0.32000000E+00 0.0000E+00 0.9000E+01
       25  2    1    2    0    0 0.95515353E+02 0.28136911E+03 -.15066255E+03 0.44847313E+03 0.30022855E+03 0.0000E+00 0.0000E+00
       23  2    1    2    0    0 -.95515353E+02 -.28136911E+03 0.75178999E+03 0.81354337E+03 0.91503400E+02 0.0000E+00 0.0000E+00
       23  1    3    3    0    0 0.15237646E+01 0.48114512E+02 0.49493709E+02 0.11437747E+03 0.91188000E+02 0.0000E+00 0.9000E+01
      -13  1    4    4    0    0 -.50751295E+02 -.24977265E+03 0.64462259E+03 0.69318134E+03 0.10565837E+00 0.0000E+00 0.9000E+01
       13  1    4    4    0    0 -.44764057E+02 -.31596464E+02 0.10716740E+03 0.12036204E+03 0.10565837E+00 0.0000E+00 0.9000E+01
       23  1    3    3    0    0 0.93991588E+02 0.23325460E+03 -.20015626E+03 0.33409565E+03 0.91188000E+02 0.0000E+00 0.9000E+01
#aMCatNLO 1  0  0  1  2 0.90994924D+01 0.00000000D+00  -5  7  0 0.00000000D+00 0.00000000D+00 0.00000000D+00 0.00000000D+00 0.00000000D+00
  <mgrwgt>
 0.1512832565D-03    6    2    0
 0.554826875409231D+03 0.000000000000000D+00 0.000000000000000D+00 0.554826875409231D+03
 0.554826875409231D+03 0.000000000000000D+00 0.000000000000000D+00 -.554826875409231D+03
 0.103270261829765D+03 0.152376456606276D+01 0.481145116081245D+02 -.567164426309331D+01
 0.439151842921165D+03 -.507513034546132D+02 -.249772940672830D+03 0.357620083952733D+03
 0.788327693729132D+02 -.447640491619750D+02 -.315961733281599D+02 0.566786314288205D+02
 0.488398876694618D+03 0.939915880505254D+02 0.233254602392865D+03 -.408627071118461D+03
 0.000000000000000D+00 -.000000000000000D+00 0.000000000000000D+00 -.000000000000000D+00
 0.557191907937217D+03 0.000000000000000D+00 0.000000000000000D+00 0.557191907937217D+03
 0.563667718141066D+03 0.000000000000000D+00 0.000000000000000D+00 -.563667718141066D+03
 0.103060638940333D+03 0.222107550185023D+01 0.476355248712310D+02 -.567164426309331D+01
 0.439983256465422D+03 -.477801996764160D+02 -.251813808283896D+03 0.357620083952733D+03
 0.786795480896870D+02 -.442317243328875D+02 -.319618301962313D+02 0.566786314288205D+02
 0.487967615974610D+03 0.972912927003554D+02 0.230988017026397D+03 -.408627071118461D+03
 0.111685666082320D+02 -.750044419290215D+01 0.515209658249954D+01 -.647581020384880D+01
0.135516141109D-04 0.000000000000D+00 0.000000000000D+00 0.193146072658D-05 0.000000000000D+00  7 2 -2 23 -13 13 23 21 0 0.14331876D+00 0.50837620D-01 0.11569697D+06 0.11569697D+06 0.11569697D+06 0.11165625D+01  1  2  2  1  7  1        2 0.178993553780D-03 0.100000000000D+01
-.533720746307D-06 0.000000000000D+00 -.520417664077D-07 0.193146072658D-05 0.000000000000D+00  7 2 -2 23 -13 13 23 21 2 0.14331876D+00 0.50837620D-01 0.11569697D+06 0.11569697D+06 0.11569697D+06 0.11165625D+01  1  2  3  1  7  1        2 -.878873794254D-05 0.100000000000D+01
0.831905487545D-06 0.000000000000D+00 0.000000000000D+00 0.193146072658D-05 0.000000000000D+00  7 2 -2 23 -13 13 23 21 2 0.14331876D+00 0.50837620D-01 0.11569697D+06 0.11569697D+06 0.11569697D+06 0.11165625D+01  1  2 15  1  7  1        2 0.136989228423D-04 0.100000000000D+01
-.198494768635D-05 0.000000000000D+00 0.000000000000D+00 0.193146072658D-05 0.000000000000D+00  7 2 -2 23 -13 13 23 21 2 0.14331876D+00 0.50837620D-01 0.11569697D+06 0.11569697D+06 0.11569697D+06 0.11165625D+01  1  2  4  1  7  1        2 -.326859788863D-04 0.100000000000D+01
0.411598466515D-08 0.000000000000D+00 0.000000000000D+00 0.193146072658D-05 0.154861852873D-06  7 2 -2 23 -13 13 23 21 2 0.14392968D+00 0.51647688D-01 0.11888555D+06 0.11888555D+06 0.11888555D+06 0.11156085D+01  1  2 11  1  7  1        2 0.651531449251D-07 0.100000000000D+01
0.269367386766D-10 0.000000000000D+00 0.000000000000D+00 0.193146072658D-05 0.124119124201D-09  7 21 -2 23 -13 13 23 -2 2 0.14392968D+00 0.51647688D-01 0.11888555D+06 0.11888555D+06 0.11888555D+06 0.11156085D+01  1  2 11  3  7  1        2 0.343582199421D-09 0.100000000000D+01
  </mgrwgt>
  </event>
  <event>
  7     66 0.55102590E-06 0.20472069E+03 0.75467711E-02 0.94057310E-01
        2 -1    0    0  501    0 0.00000000E+00 0.00000000E+00 0.10160667E+04 0.10160667E+04 0.32000000E+00 0.0000E+00 0.9000E+01
       -2 -1    0    0    0  501 0.00000000E+00 0.00000000E+00 -.53214920E+03 0.53214930E+03 0.32000000E+00 0.0000E+00 0.9000E+01
       23  2    1    2    0    0 0.60305314E+02 0.28392972E+03 0.89121701E+03 0.94171101E+03 0.91099142E+02 0.0000E+00 0.0000E+00
       23  1    1    2    0    0 -.16222238E+03 -.79809878E+02 -.16198524E+03 0.25930713E+03 0.91188000E+02 0.0000E+00 0.9000E+01
      -13  1    3    3    0    0 0.39180644E+02 0.30429110E+02 0.13222092E+03 0.14122123E+03 0.10565837E+00 0.0000E+00 0.9000E+01
       13  1    3    3    0    0 0.21124670E+02 0.25350061E+03 0.75899609E+03 0.80048978E+03 0.10565837E+00 0.0000E+00 0.9000E+01
       23  1    1    2    0    0 0.10191706E+03 -.20411984E+03 -.24531431E+03 0.34719787E+03 0.91188000E+02 0.0000E+00 0.9000E+01
#aMCatNLO 1  0  0  1  2 0.28337471D+03 0.00000000D+00  -5  7  0 0.00000000D+00 0.00000000D+00 0.00000000D+00 0.00000000D+00 0.00000000D+00
  <mgrwgt>
 0.3182851911D-03    9    2    0
 0.735322498140353D+03 0.000000000000000D+00 0.000000000000000D+00 0.735322498140353D+03
 0.735322498140353D+03 0.000000000000000D+00 0.000000000000000D+00 -.735322498140353D+03
 0.326286042210573D+03 -.162222376476233D+03 -.798098778919335D+02 -.255854673513535D+03
 0.105162018765958D+03 0.391806685708400D+02 0.304288100827405D+02 0.927254707090893D+02
 0.592964720764404D+03 0.211246455533244D+02 0.253500905330237D+03 0.535628789758546D+03
 0.446232214539771D+03 0.101917062352069D+03 -.204119837521044D+03 -.372499586954100D+03
 0.000000000000000D+00 -.000000000000000D+00 0.000000000000000D+00 0.000000000000000D+00
 0.953731414451008D+03 0.000000000000000D+00 0.000000000000000D+00 0.953731414451008D+03
 0.846833189455387D+03 0.000000000000000D+00 0.000000000000000D+00 -.846833189455387D+03
 0.328164596674502D+03 -.128200087169252D+03 -.132211477783199D+03 -.255854673513535D+03
 0.106289975674359D+03 0.501732178968556D+02 0.134979337866333D+02 0.927254707090893D+02
 0.565120085461857D+03 0.813288748387781D+02 0.160773519870876D+03 0.535628789758546D+03
 0.498122885425903D+03 0.151010333120801D+03 -.279733971213359D+03 -.372499586954100D+03
 0.302867060669774D+03 -.154312338687182D+03 0.237673995339049D+03 0.106898224995622D+03
0.931438364826D-04 0.000000000000D+00 0.000000000000D+00 0.185478402599D-08 0.000000000000D+00  7 2 -2 23 -13 13 23 21 0 0.15631796D+00 0.81869119D-01 0.14144099D+06 0.14144099D+06 0.14144099D+06 0.11095711D+01  1  2  2  1  7  1        2 0.397571000398D-03 0.100000000000D+01
-.234621066775D-05 0.000000000000D+00 -.357696857429D-06 0.185478402599D-08 0.000000000000D+00  7 2 -2 23 -13 13 23 21 2 0.15631796D+00 0.81869119D-01 0.14144099D+06 0.14144099D+06 0.14144099D+06 0.11095711D+01  1  2  3  1  7  1        2 -.123292842684D-04 0.100000000000D+01
0.565781409115D-05 0.000000000000D+00 0.000000000000D+00 0.185478402599D-08 0.000000000000D+00  7 2 -2 23 -13 13 23 21 2 0.15631796D+00 0.81869119D-01 0.14144099D+06 0.14144099D+06 0.14144099D+06 0.11095711D+01  1  2 15  1  7  1        2 0.297316857462D-04 0.100000000000D+01
0.776546526283D-05 0.000000000000D+00 0.000000000000D+00 0.185478402599D-08 0.000000000000D+00  7 2 -2 23 -13 13 23 21 2 0.21178457D+00 0.81869119D-01 0.27652759D+06 0.27652759D+06 0.27652759D+06 0.10871794D+01  1  2 12  1  7  1        2 0.234999041895D-04 0.100000000000D+01
-.586861087876D-04 0.000000000000D+00 0.000000000000D+00 0.185478402599D-08 0.000000000000D+00  7 2 -2 23 -13 13 23 21 2 0.15631796D+00 0.81869119D-01 0.14144099D+06 0.14144099D+06 0.14144099D+06 0.11095711D+01  1  2  4  1  7  1        2 -.308394181221D-03 0.100000000000D+01
-.576363948037D-04 0.000000000000D+00 -.394929091661D-04 0.185478402599D-08 0.000000000000D+00  7 2 -2 23 -13 13 23 21 2 0.22059711D+00 0.81869119D-01 0.14144099D+06 0.14144099D+06 0.14144099D+06 0.11095711D+01  1  2  5  1  7  1        2 -.174802518743D-03 0.100000000000D+01
0.693189403647D-04 0.000000000000D+00 0.372606140851D-04 0.185478402599D-08 0.000000000000D+00  7 2 -2 23 -13 13 23 21 2 0.15631796D+00 0.81869119D-01 0.14144099D+06 0.14144099D+06 0.14144099D+06 0.11095711D+01  1  2  6  1  7  1        2 0.364269471916D-03 0.100000000000D+01
0.302829203534D-06 0.000000000000D+00 0.000000000000D+00 0.185478402599D-08 0.000000000000D+00  7 21 -2 23 -13 13 23 -2 2 0.21178457D+00 0.81869119D-01 0.27652759D+06 0.27652759D+06 0.27652759D+06 0.10871794D+01  1  2 12  3  7  1        2 0.375602096541D-06 0.100000000000D+01
-.137020818349D-05 0.000000000000D+00 -.168647251890D-05 0.185478402599D-08 0.000000000000D+00  7 21 -2 23 -13 13 23 -2 2 0.22059711D+00 0.81869119D-01 0.14144099D+06 0.14144099D+06 0.14144099D+06 0.11095711D+01  1  2  5  3  7  1        2 -.163648903128D-05 0.100000000000D+01
  </mgrwgt>
  </event>
  <event>
  7     66 0.55102590E-06 0.56358732E+03 0.75467711E-02 0.87975992E-01
        2 -1    0    0  501    0 0.00000000E+00 0.00000000E+00 0.24499687E+04 0.24499687E+04 0.32000000E+00 0.0000E+00 0.9000E+01
       -2 -1    0    0    0  501 0.00000000E+00 0.00000000E+00 -.27568700E+03 0.27568719E+03 0.32000000E+00 0.0000E+00 0.9000E+01
       25  2    1    2    0    0 -.13710070E+03 0.51375301E+03 0.14776677E+03 0.62642204E+03 0.29636261E+03 0.0000E+00 0.0000E+00
       23  1    3    3    0    0 -.15411005E+03 0.22370150E+03 0.14666282E+03 0.32189673E+03 0.91188000E+02 0.0000E+00 0.9000E+01
      -11  1    1    2    0    0 0.68430140E+02 -.13691421E+03 0.40156167E+03 0.42974407E+03 0.51099893E-03 0.0000E+00 0.9000E+01
       11  1    1    2    0    0 0.68670559E+02 -.37683880E+03 0.16249532E+04 0.16694898E+04 0.51099893E-03 0.0000E+00 0.9000E+01
       23  1    3    3    0    0 0.17009354E+02 0.29005151E+03 0.11039504E+01 0.30452531E+03 0.91188000E+02 0.0000E+00 0.9000E+01
#aMCatNLO 1  0  0  2  2 0.60909161D+03 0.00000000D+00  -5  7  0 0.00000000D+00 0.00000000D+00 0.00000000D+00 0.00000000D+00 0.00000000D+00
  <mgrwgt>
 0.2588183473D-03    5    2    0
 0.821842319958519D+03 0.000000000000000D+00 0.000000000000000D+00 0.821842319958519D+03
 0.821842319958519D+03 0.000000000000000D+00 0.000000000000000D+00 -.821842319958519D+03
 0.339781375009020D+03 -.154110052051557D+03 0.223701500850114D+03 -.182603017042691D+03
 0.181437637645495D+03 0.684301394602517D+02 -.136914211793706D+03 0.974239753691893D+02
 0.618943915135389D+03 0.686705589789877D+02 -.376838797480767D+03 0.486177380310815D+03
 0.503521712127134D+03 0.170093536123176D+02 0.290051508424360D+03 -.400998338637313D+03
 0.000000000000000D+00 0.000000000000000D+00 0.000000000000000D+00 -.000000000000000D+00
 0.116814276792121D+04 0.000000000000000D+00 0.000000000000000D+00 0.116814276792121D+04
 0.119442514190714D+04 0.000000000000000D+00 0.000000000000000D+00 -.119442514190714D+04
 0.385903689991958D+03 -.275569052172859D+03 0.176986559537351D+03 -.182603017042691D+03
 0.188039792520992D+03 0.659014660419222D+01 -.160698794526706D+03 0.974239753691893D+02
 0.686451683757138D+03 -.149815464574523D+03 -.460871777809667D+03 0.486177380310815D+03
 0.492514353581416D+03 -.149698699867538D+03 0.225933106931685D+03 -.400998338637313D+03
 0.609658389976850D+03 0.568493070010727D+03 0.218650905867338D+03 -.262823739859330D+02
0.929418970541D-04 0.000000000000D+00 0.000000000000D+00 0.186338104923D-09 0.000000000000D+00  7 2 -2 23 -11 11 23 21 0 0.37691827D+00 0.42413401D-01 0.31763067D+06 0.31763067D+06 0.31763067D+06 0.10827217D+01  1  2  2  2  7  2       -2 0.235461117938D-03 0.100000000000D+01
-.427008308572D-05 0.000000000000D+00 -.356921356851D-06 0.186338104923D-09 0.000000000000D+00  7 2 -2 23 -11 11 23 21 2 0.37691827D+00 0.42413401D-01 0.31763067D+06 0.31763067D+06 0.31763067D+06 0.10827217D+01  1  2  3  2  7  2       -2 -.126817064011D-04 0.100000000000D+01
0.581016239596D-05 0.000000000000D+00 0.000000000000D+00 0.186338104923D-09 0.000000000000D+00  7 2 -2 23 -11 11 23 21 2 0.37691827D+00 0.42413401D-01 0.31763067D+06 0.31763067D+06 0.31763067D+06 0.10827217D+01  1  2 15  2  7  2       -2 0.172555831278D-04 0.100000000000D+01
0.118775761203D-04 0.000000000000D+00 -.284260457326D-04 0.186338104923D-09 0.000000000000D+00  7 2 -2 23 -11 11 23 21 2 0.37691827D+00 0.98943886D-01 0.31763067D+06 0.31763067D+06 0.31763067D+06 0.10827217D+01  1  2  5  2  7  2       -2 0.579112004779D-05 0.100000000000D+01
0.289305607126D-05 0.000000000000D+00 -.262484369883D-05 0.186338104923D-09 0.000000000000D+00  7 2 21 23 -11 11 23 2 2 0.37691827D+00 0.98943886D-01 0.31763067D+06 0.31763067D+06 0.31763067D+06 0.10827217D+01  1  2  5  4  7  2       -2 0.129922325463D-04 0.100000000000D+01
  </mgrwgt>
  </event>
  <event>
  8     66 0.55102590E-06 0.27752339E+03 0.75467711E-02 0.98874538E-01
        4 -1    0    0  501    0 0.00000000E+00 0.00000000E+00 0.70042170E+02 0.70059318E+02 0.15500000E+01 0.0000E+00 0.9000E+01
       -4 -1    0    0    0  501 0.00000000E+00 0.00000000E+00 -.14712171E+04 0.14712179E+04 0.15500000E+01 0.0000E+00 0.9000E+01
       25  2    1    2    0    0 -.18736155E+02 0.23095772E+03 -.68427584E+03 0.78246937E+03 0.30055346E+03 0.0000E+00 0.0000E+00
       23  2    1    2    0    0 0.18736155E+02 -.23095772E+03 -.71689911E+03 0.75880788E+03 0.90291501E+02 0.0000E+00 0.0000E+00
       23  1    3    3    0    0 -.39453364E+02 0.17882795E+03 -.63010760E+03 0.66248535E+03 0.91188000E+02 0.0000E+00 0.9000E+01
      -11  1    4    4    0    0 -.21989104E+02 -.24274913E+02 -.53145740E+02 0.62428053E+02 0.51099893E-03 0.0000E+00 0.9000E+01
       11  1    4    4    0    0 0.40725259E+02 -.20668280E+03 -.66375337E+03 0.69637983E+03 0.51099893E-03 0.0000E+00 0.9000E+01
       23  1    3    3    0    0 0.20717209E+02 0.52129764E+02 -.54168236E+02 0.11998402E+03 0.91188000E+02 0.0000E+00 0.9000E+01
#aMCatNLO 1  0  0  2  2 0.13003950D+03 0.00000000D+00  -5  7  0 0.00000000D+00 0.00000000D+00 0.00000000D+00 0.00000000D+00 0.00000000D+00
  <mgrwgt>
 0.2462367192D-04    4    2    0
 0.321031281411298D+03 0.000000000000000D+00 0.000000000000000D+00 0.321031281411298D+03
 0.321031281411298D+03 0.000000000000000D+00 0.000000000000000D+00 -.321031281411298D+03
 0.215216756470559D+03 -.394533638711000D+02 0.178827953849927D+03 -.668355887444023D+02
 0.338790322766276D+02 -.219891043383567D+02 -.242749127766150D+02 0.866006513170498D+01
 0.223155503380761D+03 0.407252594909439D+02 -.206682804613191D+03 -.736345720822871D+02
 0.169811270694648D+03 0.207172087185127D+02 0.521297635398799D+02 0.131810095694984D+03
 0.000000000000000D+00 -.000000000000000D+00 0.000000000000000D+00 0.000000000000000D+00
 0.413551453000602D+03 0.000000000000000D+00 0.000000000000000D+00 0.413551453000602D+03
 0.376706094573858D+03 0.000000000000000D+00 0.000000000000000D+00 -.376706094573858D+03
 0.191678233868170D+03 -.660489946471369D+01 0.154643698142120D+03 -.668355887444023D+02
 0.338954302261184D+02 -.165176999906892D+02 -.283031632356857D+02 0.866006513170498D+01
 0.259146913713429D+03 0.796613342945284D+02 -.235348984488714D+03 -.736345720822871D+02
 0.170378350900438D+03 0.481805762745634D+02 0.319102155160799D+02 0.131810095694984D+03
 0.135158618866306D+03 -.104719311113689D+03 0.770982340662002D+02 0.368453584267439D+02
0.451539961508D-04 0.000000000000D+00 0.000000000000D+00 0.144173931302D-06 0.000000000000D+00  7 4 -4 23 -11 11 23 21 0 0.10777100D-01 0.22634248D+00 0.77019230D+05 0.77019230D+05 0.77019230D+05 0.11311484D+01  1  2  2  2  7  2       -4 0.365904487399D-04 0.100000000000D+01
-.244386686045D-05 0.000000000000D+00 -.173403234539D-06 0.144173931302D-06 0.000000000000D+00  7 4 -4 23 -11 11 23 21 2 0.10777100D-01 0.22634248D+00 0.77019230D+05 0.77019230D+05 0.77019230D+05 0.11311484D+01  1  2  3  2  7  2       -4 -.253389295662D-05 0.100000000000D+01
0.284841230277D-05 0.000000000000D+00 0.000000000000D+00 0.144173931302D-06 0.000000000000D+00  7 4 -4 23 -11 11 23 21 2 0.10777100D-01 0.22634248D+00 0.77019230D+05 0.77019230D+05 0.77019230D+05 0.11311484D+01  1  2 15  2  7  2       -4 0.295334086662D-05 0.100000000000D+01
-.119461574194D-04 0.000000000000D+00 0.000000000000D+00 0.144173931302D-06 0.000000000000D+00  7 4 -4 23 -11 11 23 21 2 0.10777100D-01 0.22634248D+00 0.77019230D+05 0.77019230D+05 0.77019230D+05 0.11311484D+01  1  2  4  2  7  2       -4 -.123862247300D-04 0.100000000000D+01
  </mgrwgt>
  </event>
  <event>
  8     66 0.55102590E-06 0.14201148E+03 0.75467711E-02 0.10367969E+00
        2 -1    0    0  501    0 0.00000000E+00 0.00000000E+00 0.69089166E+03 0.69089173E+03 0.32000000E+00 0.0000E+00 0.9000E+01
       -2 -1    0    0    0  501 0.00000000E+00 0.00000000E+00 -.12368509E+03 0.12368550E+03 0.32000000E+00 0.0000E+00 0.9000E+01
       25  2    1    2    0    0 -.14208056E+03 0.13172504E+03 0.43339786E+03 0.56162991E+03 0.30009345E+03 0.0000E+00 0.0000E+00
       23  2    1    2    0    0 0.14208056E+03 -.13172504E+03 0.13380871E+03 0.25294732E+03 0.92407801E+02 0.0000E+00 0.0000E+00
       23  1    3    3    0    0 -.97920649E+02 0.97302572E+02 0.42290038E+03 0.45411036E+03 0.91188000E+02 0.0000E+00 0.9000E+01
      -13  1    4    4    0    0 0.14326463E+03 -.10233116E+03 0.13737753E+03 0.22331373E+03 0.10565837E+00 0.0000E+00 0.9000E+01
       13  1    4    4    0    0 -.11840677E+01 -.29393881E+02 -.35688248E+01 0.29633594E+02 0.10565837E+00 0.0000E+00 0.9000E+01
       23  1    3    3    0    0 -.44159915E+02 0.34422472E+02 0.10497486E+02 0.10751955E+03 0.91188000E+02 0.0000E+00 0.9000E+01
#aMCatNLO 1  0  0  1  2 0.55549522D+01 0.00000000D+00  -5  7  0 0.00000000D+00 0.00000000D+00 0.00000000D+00 0.00000000D+00 0.00000000D+00
  <mgrwgt>
 0.3636110943D-03   11    2    0
 0.292323781581489D+03 0.000000000000000D+00 0.000000000000000D+00 0.292323781581489D+03
 0.292323781581489D+03 0.000000000000000D+00 0.000000000000000D+00 -.292323781581489D+03
 0.222417915949605D+03 -.979206499694729D+02 0.973025731577694D+02 0.148654746166406D+03
 0.177859183271801D+03 0.143264819262277D+03 -.102331261023079D+03 -.252466562793138D+02
 0.447500527671945D+02 -.118425320689364D+01 -.293937852020076D+02 -.337219536579199D+02
 0.139620411174378D+03 -.441599160859105D+02 0.344224730673168D+02 -.896861362291719D+02
 0.000000000000000D+00 -.000000000000000D+00 0.000000000000000D+00 0.000000000000000D+00
 0.313116032493400D+03 0.000000000000000D+00 0.000000000000000D+00 0.313116032493400D+03
 0.292708233365273D+03 0.000000000000000D+00 0.000000000000000D+00 -.292708233365273D+03
 0.221314783938267D+03 -.974374063594714D+02 0.952507245630319D+02 0.148654746166406D+03
 0.179125655240168D+03 0.143653590795504D+03 -.103981981917501D+03 -.252466562793138D+02
 0.450213368365710D+02 -.108648838046110D+01 -.298088938916594D+02 -.337219536579199D+02
 0.139212176377994D+03 -.438562556474778D+02 0.331331332168147D+02 -.896861362291719D+02
 0.211503134656735D+02 -.127344040809376D+01 0.540701802931381D+01 0.204077991281264D+02
0.203802312061D-05 0.000000000000D+00 0.000000000000D+00 0.606311861694D-06 0.000000000000D+00  7 2 -2 23 -13 13 23 21 0 0.10629106D+00 0.19028512D-01 0.57103088D+05 0.57103088D+05 0.57103088D+05 0.11422553D+01  1  2  2  1  7  1        2 0.227066583319D-03 0.100000000000D+01
-.107631000048D-06 0.000000000000D+00 -.782654540695D-08 0.606311861694D-06 0.000000000000D+00  7 2 -2 23 -13 13 23 21 2 0.10629106D+00 0.19028512D-01 0.57103088D+05 0.57103088D+05 0.57103088D+05 0.11422553D+01  1  2  3  1  7  1        2 -.156461646076D-04 0.100000000000D+01
0.129429608740D-06 0.000000000000D+00 0.000000000000D+00 0.606311861694D-06 0.000000000000D+00  7 2 -2 23 -13 13 23 21 2 0.10629106D+00 0.19028512D-01 0.57103088D+05 0.57103088D+05 0.57103088D+05 0.11422553D+01  1  2 15  1  7  1        2 0.188149971897D-04 0.100000000000D+01
0.515953789094D-04 0.000000000000D+00 0.000000000000D+00 0.606311861694D-06 0.000000000000D+00  7 2 -2 23 -13 13 23 21 2 0.11391839D+00 0.19028512D-01 0.58358761D+05 0.58358761D+05 0.58358761D+05 0.11414365D+01  1  2 12  1  7  1        2 0.689339119312D-02 0.100000000000D+01
-.899707850217D-04 0.000000000000D+00 0.000000000000D+00 0.606311861694D-06 0.000000000000D+00  7 2 -2 23 -13 13 23 21 2 0.10629106D+00 0.19028512D-01 0.57103088D+05 0.57103088D+05 0.57103088D+05 0.11422553D+01  1  2  4  1  7  1        2 -.130789243962D-01 0.100000000000D+01
-.107804944557D-03 0.000000000000D+00 -.376753824610D-05 0.606311861694D-06 0.000000000000D+00  7 2 -2 23 -13 13 23 21 2 0.11391836D+00 0.19028512D-01 0.57103088D+05 0.57103088D+05 0.57103088D+05 0.11422553D+01  1  2  5  1  7  1        2 -.144243323440D-01 0.100000000000D+01
0.107816064323D-03 0.000000000000D+00 0.375850931011D-05 0.606311861694D-06 0.000000000000D+00  7 2 -2 23 -13 13 23 21 2 0.10629106D+00 0.19028512D-01 0.57103088D+05 0.57103088D+05 0.57103088D+05 0.11422553D+01  1  2  6  1  7  1        2 0.156730671367D-01 0.100000000000D+01
0.382097241936D-04 0.000000000000D+00 0.000000000000D+00 0.606311861694D-06 0.136887084170D-06  7 2 -2 23 -13 13 23 21 2 0.11385128D+00 0.19053538D-01 0.58358761D+05 0.58358761D+05 0.58358761D+05 0.11414365D+01  1  2 11  1  7  1        2 0.509769855980D-02 0.100000000000D+01
0.744838343755D-06 0.000000000000D+00 0.000000000000D+00 0.606311861694D-06 0.000000000000D+00  7 21 -2 23 -13 13 23 -2 2 0.11391839D+00 0.19028512D-01 0.58358761D+05 0.58358761D+05 0.58358761D+05 0.11414365D+01  1  2 12  3  7  1        2 0.117492041941D-03 0.100000000000D+01
-.136117148537D-05 0.000000000000D+00 -.442514473026D-07 0.606311861694D-06 0.000000000000D+00  7 21 -2 23 -13 13 23 -2 2 0.11391836D+00 0.19028512D-01 0.57103088D+05 0.57103088D+05 0.57103088D+05 0.11422553D+01  1  2  5  3  7  1        2 -.215242710756D-03 0.100000000000D+01
0.445459576082D-06 0.000000000000D+00 0.000000000000D+00 0.606311861694D-06 0.159166202371D-08  7 21 -2 23 -13 13 23 -2 2 0.11385128D+00 0.19053538D-01 0.58358761D+05 0.58358761D+05 0.58358761D+05 0.11414365D+01  1  2 11  3  7  1        2 0.702261978259D-04 0.100000000000D+01
  </mgrwgt>
  </event>
  <event>
  8     66 0.55102590E-06 0.35367851E+03 0.75467711E-02 0.92751640E-01
        2 -1    0    0  501    0 0.00000000E+00 0.00000000E+00 0.17302621E+04 0.17302621E+04 0.32000000E+00 0.0000E+00 0.9000E+01
       -2 -1    0    0    0  501 0.00000000E+00 0.00000000E+00 -.92198698E+02 0.92199254E+02 0.32000000E+00 0.0000E+00 0.9000E+01
       25  2    1    2    0    0 -.15356031E+03 0.28694097E+03 0.11278107E+04 0.12106881E+04 0.29646709E+03 0.0000E+00 0.0000E+00
       23  2    1    2    0    0 0.15356031E+03 -.28694097E+03 0.51025263E+03 0.61177325E+03 0.89402869E+02 0.0000E+00 0.0000E+00
       23  1    3    3    0    0 -.98545242E+02 0.18840399E+03 0.35060402E+03 0.42005435E+03 0.91188000E+02 0.0000E+00 0.9000E+01
      -13  1    4    4    0    0 0.12390922E+03 -.17056103E+03 0.26444057E+03 0.33819135E+03 0.10565837E+00 0.0000E+00 0.9000E+01
       13  1    4    4    0    0 0.29651083E+02 -.11637994E+03 0.24581206E+03 0.27358190E+03 0.10565837E+00 0.0000E+00 0.9000E+01
       23  1    3    3    0    0 -.55015063E+02 0.98536978E+02 0.77720672E+03 0.79063375E+03 0.91188000E+02 0.0000E+00 0.9000E+01
#aMCatNLO 1  0  0  2  2 0.38465899D+03 0.00000000D+00  -5  7  0 0.00000000D+00 0.00000000D+00 0.00000000D+00 0.00000000D+00 0.00000000D+00
  <mgrwgt>
 0.1936353968D-03    5    2    0
 0.399410118547353D+03 0.000000000000000D+00 0.000000000000000D+00 0.399410118547353D+03
 0.399410118547353D+03 0.000000000000000D+00 0.000000000000000D+00 -.399410118547353D+03
 0.239379537417564D+03 -.985452419284367D+02 0.188403990173834D+03 -.614823825993315D+02
 0.229301109572515D+03 0.123909353668414D+03 -.170561104937390D+03 -.901908000141855D+02
 0.120097844471785D+03 0.296509513914376D+02 -.116379862943064D+03 -.202063617011277D+00
 0.210041745632844D+03 -.550150631314151D+02 0.985369777066201D+02 0.151875246230528D+03
 0.000000000000000D+00 0.000000000000000D+00 0.000000000000000D+00 -.000000000000000D+00
 0.598388319415462D+03 0.000000000000000D+00 0.000000000000000D+00 0.598388319415462D+03
 0.681825341385271D+03 0.000000000000000D+00 0.000000000000000D+00 -.681825341385271D+03
 0.223028788168682D+03 -.163176240233300D+03 0.104976284279947D+03 -.614823825993315D+02
 0.282887071738670D+03 0.523206048366843D+02 -.262970091948123D+03 -.901908000141855D+02
 0.168854396716520D+03 -.107360199866214D+02 -.168512623668500D+03 -.202063617011277D+00
 0.211839190442094D+03 -.113981531846581D+03 0.224212230595237D+02 0.151875246230528D+03
 0.393604213734767D+03 0.235573187229819D+03 0.304085208277152D+03 -.834370219698093D+02
0.408406508974D-05 0.000000000000D+00 0.000000000000D+00 0.536788643912D-08 0.000000000000D+00  7 2 -2 23 -13 13 23 21 0 0.26619421D+00 0.14184460D-01 0.12508849D+06 0.12508849D+06 0.12508849D+06 0.11138305D+01  1  2  2  2  7  2       -2 0.177536735467D-03 0.100000000000D+01
-.222813334750D-06 0.000000000000D+00 -.156838853036D-07 0.536788643912D-08 0.000000000000D+00  7 2 -2 23 -13 13 23 21 2 0.26619421D+00 0.14184460D-01 0.12508849D+06 0.12508849D+06 0.12508849D+06 0.11138305D+01  1  2  3  2  7  2       -2 -.120164158384D-04 0.100000000000D+01
0.257025364319D-06 0.000000000000D+00 0.000000000000D+00 0.536788643912D-08 0.000000000000D+00  7 2 -2 23 -13 13 23 21 2 0.26619421D+00 0.14184460D-01 0.12508849D+06 0.12508849D+06 0.12508849D+06 0.11138305D+01  1  2 15  2  7  2       -2 0.138614848260D-04 0.100000000000D+01
0.279564026635D-06 0.000000000000D+00 -.130062673412D-05 0.536788643912D-08 0.000000000000D+00  7 2 -2 23 -13 13 23 21 2 0.26619421D+00 0.38833320D-01 0.12508849D+06 0.12508849D+06 0.12508849D+06 0.11138305D+01  1  2  5  2  7  2       -2 0.271192731430D-05 0.100000000000D+01
0.106069333054D-06 0.000000000000D+00 -.146487077582D-06 0.536788643912D-08 0.000000000000D+00  7 2 21 23 -13 13 23 2 2 0.26619421D+00 0.38833320D-01 0.12508849D+06 0.12508849D+06 0.12508849D+06 0.11138305D+01  1  2  5  4  7  2       -2 0.115416650298D-04 0.100000000000D+01
  </mgrwgt>
  </event>
  <event>
  7     66 0.55102590E-06 0.32285723E+03 0.75467711E-02 0.93378704E-01
        2 -1    0    0  501    0 0.00000000E+00 0.00000000E+00 0.17795307E+04 0.17795307E+04 0.32000000E+00 0.0000E+00 0.9000E+01
       -2 -1    0    0    0  501 0.00000000E+00 0.00000000E+00 -.11795844E+03 0.11795887E+03 0.32000000E+00 0.0000E+00 0.9000E+01
       25  2    1    2    0    0 0.84812613E+02 0.21555395E+03 0.23733584E+03 0.44760788E+03 0.30061242E+03 0.0000E+00 0.0000E+00
       23  1    3    3    0    0 0.66558164E+02 0.25466929E+03 0.17113027E+03 0.32693616E+03 0.91188000E+02 0.0000E+00 0.9000E+01
      -13  1    1    2    0    0 0.12037906E+02 0.13187221E+02 0.19389160E+03 0.19471204E+03 0.10565837E+00 0.0000E+00 0.9000E+01
       13  1    1    2    0    0 -.96850519E+02 -.22874117E+03 0.12303448E+04 0.12551697E+04 0.10565837E+00 0.0000E+00 0.9000E+01
       23  1    3    3    0    0 0.18254449E+02 -.39115333E+02 0.66205568E+02 0.12067171E+03 0.91188000E+02 0.0000E+00 0.9000E+01
#aMCatNLO 1  0  0  2  1 0.38606825D+03 0.00000000D+00  -5  7  0 0.00000000D+00 0.00000000D+00 0.00000000D+00 0.00000000D+00 0.00000000D+00
  <mgrwgt>
 0.4826504809D-03    5    2    0
 0.458160566065614D+03 0.000000000000000D+00 0.000000000000000D+00 0.458160566065614D+03
 0.458160566065614D+03 0.000000000000000D+00 0.000000000000000D+00 -.458160566065614D+03
 0.366697617025661D+03 0.665581921344208D+02 0.254669357149419D+03 -.238464707194163D+03
 0.516182269966708D+02 0.120378171487600D+02 0.131870875242148D+02 0.484317358681428D+02
 0.368173069326059D+03 -.968504677715315D+02 -.228741136552200D+03 0.271751519440489D+03
 0.129832218782837D+03 0.182544584883507D+02 -.391153081214339D+02 -.817185481144689D+02
 0.000000000000000D+00 0.000000000000000D+00 -.000000000000000D+00 -.000000000000000D+00
 0.610165955627675D+03 0.000000000000000D+00 0.000000000000000D+00 0.610165955627675D+03
 0.826916916213123D+03 0.000000000000000D+00 0.000000000000000D+00 -.826916916213123D+03
 0.482983548726349D+03 -.671471224901977D+01 0.409935791385081D+03 -.238464707194163D+03
 0.588727275716143D+02 0.250954527968586D+01 0.333776451387627D+02 0.484317358681428D+02
 0.329775323673953D+03 -.157038580591008D+03 -.101201580975831D+03 0.271751519440489D+03
 0.122698885351109D+03 -.352275418020905D+01 0.703094726575013D+01 -.817185481144689D+02
 0.442752386517773D+03 0.164766501740550D+03 -.349142802813763D+03 -.216750960585448D+03
0.163129304654D-04 0.000000000000D+00 0.000000000000D+00 0.873424548014D-09 0.000000000000D+00  7 2 -2 23 -13 13 23 21 0 0.27377399D+00 0.18147488D-01 0.10423679D+06 0.10423679D+06 0.10423679D+06 0.11202462D+01  1  2  2  2  7  2       -2 0.450593062761D-03 0.100000000000D+01
-.771284219162D-06 0.000000000000D+00 -.626459482805D-07 0.873424548014D-09 0.000000000000D+00  7 2 -2 23 -13 13 23 21 2 0.27377399D+00 0.18147488D-01 0.10423679D+06 0.10423679D+06 0.10423679D+06 0.11202462D+01  1  2  3  2  7  2       -2 -.267358455312D-04 0.100000000000D+01
0.100631323496D-05 0.000000000000D+00 0.000000000000D+00 0.873424548014D-09 0.000000000000D+00  7 2 -2 23 -13 13 23 21 2 0.27377399D+00 0.18147488D-01 0.10423679D+06 0.10423679D+06 0.10423679D+06 0.11202462D+01  1  2 15  2  7  2       -2 0.348829063755D-04 0.100000000000D+01
-.574729309070D-07 0.000000000000D+00 -.511279311724D-05 0.873424548014D-09 0.000000000000D+00  7 2 -2 23 -13 13 23 21 2 0.27377399D+00 0.44849246D-01 0.10423679D+06 0.10423679D+06 0.10423679D+06 0.11202462D+01  1  2  5  2  7  2       -2 -.408140098938D-06 0.100000000000D+01
0.312070997035D-06 0.000000000000D+00 -.508289957549D-06 0.873424548014D-09 0.000000000000D+00  7 2 21 23 -13 13 23 2 2 0.27377399D+00 0.44849246D-01 0.10423679D+06 0.10423679D+06 0.10423679D+06 0.11202462D+01  1  2  5  4  7  2       -2 0.243184974017D-04 0.100000000000D+01
  </mgrwgt>
  </event>
  <event>
  8     66 0.55102590E-06 0.22004354E+03 0.75467711E-02 0.99609796E-01
        2 -1    0    0  501    0 0.00000000E+00 0.00000000E+00 0.51211032E+03 0.51211042E+03 0.32000000E+00 0.0000E+00 0.9000E+01
       -2 -1    0    0    0  501 0.00000000E+00 0.00000000E+00 -.25065602E+03 0.25065623E+03 0.32000000E+00 0.0000E+00 0.9000E+01
       25  2    1    2    0    0 0.21566887E+02 0.27357165E+03 0.60356746E+02 0.41065563E+03 0.29948044E+03 0.0000E+00 0.0000E+00
       23  2    1    2    0    0 -.21566887E+02 -.27357165E+03 0.20109755E+03 0.35211102E+03 0.90748913E+02 0.0000E+00 0.0000E+00
       23  1    3    3    0    0 0.12428851E+02 0.26410144E+03 -.30406312E+02 0.28132515E+03 0.91188000E+02 0.0000E+00 0.9000E+01
      -11  1    4    4    0    0 0.42665761E+01 -.22738886E+03 0.19358741E+03 0.29866366E+03 0.51099893E-03 0.0000E+00 0.9000E+01
       11  1    4    4    0    0 -.25833463E+02 -.46182787E+02 0.75101456E+01 0.53447357E+02 0.51099893E-03 0.0000E+00 0.9000E+01
       23  1    3    3    0    0 0.91380356E+01 0.94702091E+01 0.90763058E+02 0.12933048E+03 0.91188000E+02 0.0000E+00 0.9000E+01
#aMCatNLO 1  0  0  2  1 0.67635245D+01 0.00000000D+00  -5  7  0 0.00000000D+00 0.00000000D+00 0.00000000D+00 0.00000000D+00 0.00000000D+00
  <mgrwgt>
 0.2623227924D-03   11    2    0
 0.358278736278127D+03 0.000000000000000D+00 0.000000000000000D+00 0.358278736278127D+03
 0.358278736278127D+03 0.000000000000000D+00 0.000000000000000D+00 -.358278736278127D+03
 0.310561698803773D+03 0.124288513498492D+02 0.264101440402648D+03 -.135015814819061D+03
 0.247288496689318D+03 0.426657607442160D+01 -.227388862042030D+03 0.970963559702158D+02
 0.541537879959055D+02 -.258334629796644D+02 -.461827874646765D+02 -.115071754473593D+02
 0.104553489067257D+03 0.913803555539356D+01 0.947020910405783D+01 0.494266342962047D+02
 0.000000000000000D+00 0.000000000000000D+00 -.000000000000000D+00 -.000000000000000D+00
 0.359024669102142D+03 0.000000000000000D+00 0.000000000000000D+00 0.359024669102142D+03
 0.373961459692775D+03 0.000000000000000D+00 0.000000000000000D+00 -.373961459692775D+03
 0.310859303481321D+03 0.953406547445945D+01 0.264571515022245D+03 -.135015814819061D+03
 0.246915736359533D+03 0.196440825562086D+01 -.227015020691321D+03 0.970963559702158D+02
 0.543270158065639D+02 -.263388026727928D+02 -.461007270380199D+02 -.115071754473593D+02
 0.104487336361893D+03 0.816425380903008D+01 0.962833827274108D+01 0.494266342962047D+02
 0.163967367856063D+02 0.667607513368241D+01 -.108410556564499D+01 -.149367905906329D+02
0.208068982017D-05 0.000000000000D+00 0.000000000000D+00 0.303925054298D-06 0.000000000000D+00  7 2 -2 23 -11 11 23 21 0 0.78786227D-01 0.38562489D-01 0.10632681D+06 0.10632681D+06 0.10632681D+06 0.11195422D+01  1  2  2  2  7  2       -2 0.962536823996D-04 0.100000000000D+01
-.114347394516D-06 0.000000000000D+00 -.799039676767D-08 0.303925054298D-06 0.000000000000D+00  7 2 -2 23 -11 11 23 21 2 0.78786227D-01 0.38562489D-01 0.10632681D+06 0.10632681D+06 0.10632681D+06 0.11195422D+01  1  2  3  2  7  2       -2 -.663005676157D-05 0.100000000000D+01
0.131479853493D-06 0.000000000000D+00 0.000000000000D+00 0.303925054298D-06 0.000000000000D+00  7 2 -2 23 -11 11 23 21 2 0.78786227D-01 0.38562489D-01 0.10632681D+06 0.10632681D+06 0.10632681D+06 0.11195422D+01  1  2 15  2  7  2       -2 0.762342592374D-05 0.100000000000D+01
0.240496629199D-04 0.000000000000D+00 0.000000000000D+00 0.303925054298D-06 0.000000000000D+00  7 2 -2 23 -11 11 23 21 2 0.78786227D-01 0.40289631D-01 0.10855266D+06 0.10855266D+06 0.10855266D+06 0.11188090D+01  1  2 12  2  7  2       -2 0.128363834241D-02 0.100000000000D+01
-.289436195632D-04 0.000000000000D+00 0.000000000000D+00 0.303925054298D-06 0.000000000000D+00  7 2 -2 23 -11 11 23 21 2 0.78786227D-01 0.38562489D-01 0.10632681D+06 0.10632681D+06 0.10632681D+06 0.11195422D+01  1  2  4  2  7  2       -2 -.167820037703D-02 0.100000000000D+01
-.988688944169D-04 0.000000000000D+00 -.613259062336D-05 0.303925054298D-06 0.000000000000D+00  7 2 -2 23 -11 11 23 21 2 0.78786227D-01 0.40301626D-01 0.10632681D+06 0.10632681D+06 0.10632681D+06 0.11195422D+01  1  2  5  2  7  2       -2 -.528225711950D-02 0.100000000000D+01
0.990489928760D-04 0.000000000000D+00 0.612662889803D-05 0.303925054298D-06 0.000000000000D+00  7 2 -2 23 -11 11 23 21 2 0.78786227D-01 0.38562489D-01 0.10632681D+06 0.10632681D+06 0.10632681D+06 0.11195422D+01  1  2  6  2  7  2       -2 0.574302936875D-02 0.100000000000D+01
0.457186627919D-05 0.000000000000D+00 0.000000000000D+00 0.303925054298D-06 0.443823331069D-07  7 2 -2 23 -11 11 23 21 2 0.78950259D-01 0.40250462D-01 0.10855266D+06 0.10855266D+06 0.10855266D+06 0.11188090D+01  1  2 11  2  7  2       -2 0.243894536429D-03 0.100000000000D+01
0.487002994087D-06 0.000000000000D+00 0.000000000000D+00 0.303925054298D-06 0.000000000000D+00  7 2 21 23 -11 11 23 2 2 0.78786227D-01 0.40289631D-01 0.10855266D+06 0.10855266D+06 0.10855266D+06 0.11188090D+01  1  2 12  4  7  2       -2 0.290679854710D-03 0.100000000000D+01
-.763925753564D-06 0.000000000000D+00 -.475290561653D-07 0.303925054298D-06 0.000000000000D+00  7 2 21 23 -11 11 23 2 2 0.78786227D-01 0.40301626D-01 0.10632681D+06 0.10632681D+06 0.10632681D+06 0.11195422D+01  1  2  5  4  7  2       -2 -.456654250892D-03 0.100000000000D+01
0.351035017239D-07 0.000000000000D+00 0.000000000000D+00 0.303925054298D-06 0.337169566996D-09  7 2 21 23 -11 11 23 2 2 0.78950259D-01 0.40250462D-01 0.10855266D+06 0.10855266D+06 0.10855266D+06 0.11188090D+01  1  2 11  4  7  2       -2 0.209453859847D-04 0.100000000000D+01
  </mgrwgt>
  </event>
  <event>
  8     66 0.55102590E-06 0.90396517E+02 0.75467711E-02 0.10400150E+00
        2 -1    0    0  501    0 0.00000000E+00 0.00000000E+00 0.40265554E+03 0.40265567E+03 0.32000000E+00 0.0000E+00 0.9000E+01
       -2 -1    0    0    0  501 0.00000000E+00 0.00000000E+00 -.13922716E+03 0.13922753E+03 0.32000000E+00 0.0000E+00 0.9000E+01
       25  2    1    2    0    0 0.11384988E+03 -.16303180E+02 0.13626413E+03 0.34947057E+03 0.30055644E+03 0.0000E+00 0.0000E+00
       23  2    1    2    0    0 -.11384988E+03 0.16303180E+02 0.12716425E+03 0.19241264E+03 0.87317167E+02 0.0000E+00 0.0000E+00
       23  1    3    3    0    0 -.16574636E+02 0.83908571E+02 0.15521330E+02 0.12598226E+03 0.91188000E+02 0.0000E+00 0.9000E+01
      -11  1    4    4    0    0 -.32239801E+02 -.14020562E+02 0.92052195E+02 0.98537239E+02 0.51099893E-03 0.0000E+00 0.9000E+01
       11  1    4    4    0    0 -.81610075E+02 0.30323742E+02 0.35112058E+02 0.93875398E+02 0.51099893E-03 0.0000E+00 0.9000E+01
       23  1    3    3    0    0 0.13042451E+03 -.10021175E+03 0.12074280E+03 0.22348831E+03 0.91188000E+02 0.0000E+00 0.9000E+01
#aMCatNLO 1  0  0  2  1 0.36823349D+02 0.00000000D+00  -5  7  0 0.00000000D+00 0.00000000D+00 0.00000000D+00 0.00000000D+00 0.00000000D+00
  <mgrwgt>
 0.1713946520D-03    9    2    0
 0.236771458286700D+03 0.000000000000000D+00 0.000000000000000D+00 0.236771458286700D+03
 0.236771458286700D+03 0.000000000000000D+00 0.000000000000000D+00 -.236771458286700D+03
 0.135529240117133D+03 -.165746364220100D+02 0.839085706143229D+02 -.523216665222619D+02
 0.615498894227903D+02 -.322398007052806D+02 -.140205617869377D+02 0.505213616762272D+02
 0.878906370692989D+02 -.816100750433008D+02 0.303237422454437D+02 -.120428564761821D+02
 0.188573149964178D+03 0.130424512170591D+03 -.100211751072829D+03 0.138431613222168D+02
 0.000000000000000D+00 -.000000000000000D+00 0.000000000000000D+00 -.000000000000000D+00
 0.245958582463693D+03 0.000000000000000D+00 0.000000000000000D+00 0.245958582463693D+03
 0.277497567097485D+03 0.000000000000000D+00 0.000000000000000D+00 -.277497567097485D+03
 0.131915655753734D+03 -.724610243021690D+01 0.793500226896106D+02 -.523216665222619D+02
 0.599619201789724D+02 -.280014433323224D+02 -.160917077165860D+02 0.505213616762272D+02
 0.814189347862351D+02 -.757045217103522D+02 0.274378924523385D+02 -.120428564761821D+02
 0.201675965213744D+03 0.144036483056595D+03 -.106863473807422D+03 0.138431613222168D+02
 0.484836736284927D+02 -.330844155837033D+02 0.161672663820589D+02 -.315389846337918D+02
0.820260181592D-06 0.000000000000D+00 0.000000000000D+00 0.784426400843D-08 0.000000000000D+00  7 2 -2 23 -11 11 23 21 0 0.61947045D-01 0.21419602D-01 0.47372612D+05 0.47372612D+05 0.47372612D+05 0.11493631D+01  1  2  2  2  7  2       -2 0.137507811069D-03 0.100000000000D+01
-.451772391303D-07 0.000000000000D+00 -.315001507678D-08 0.784426400843D-08 0.000000000000D+00  7 2 -2 23 -11 11 23 21 2 0.61947045D-01 0.21419602D-01 0.47372612D+05 0.47372612D+05 0.47372612D+05 0.11493631D+01  1  2  3  2  7  2       -2 -.100048352307D-04 0.100000000000D+01
0.531002703786D-07 0.000000000000D+00 0.000000000000D+00 0.784426400843D-08 0.000000000000D+00  7 2 -2 23 -11 11 23 21 2 0.61947045D-01 0.21419602D-01 0.47372612D+05 0.47372612D+05 0.47372612D+05 0.11493631D+01  1  2 15  2  7  2       -2 0.117594493615D-04 0.100000000000D+01
0.171790980428D-05 0.000000000000D+00 0.000000000000D+00 0.784426400843D-08 0.000000000000D+00  7 2 -2 23 -11 11 23 21 2 0.61947045D-01 0.25469705D-01 0.55681525D+05 0.55681525D+05 0.55681525D+05 0.11432066D+01  1  2 12  2  7  2       -2 0.281959024632D-03 0.100000000000D+01
-.174232558421D-05 0.000000000000D+00 0.000000000000D+00 0.784426400843D-08 0.000000000000D+00  7 2 -2 23 -11 11 23 21 2 0.61947045D-01 0.21419602D-01 0.47372612D+05 0.47372612D+05 0.47372612D+05 0.11493631D+01  1  2  4  2  7  2       -2 -.385850944499D-03 0.100000000000D+01
-.308791599685D-05 0.000000000000D+00 -.616975816626D-06 0.784426400843D-08 0.000000000000D+00  7 2 -2 23 -11 11 23 21 2 0.61947045D-01 0.25967562D-01 0.47372612D+05 0.47372612D+05 0.47372612D+05 0.11493631D+01  1  2  5  2  7  2       -2 -.495300731277D-03 0.100000000000D+01
0.315923077190D-05 0.000000000000D+00 0.605713492214D-06 0.784426400843D-08 0.000000000000D+00  7 2 -2 23 -11 11 23 21 2 0.61947045D-01 0.21419602D-01 0.47372612D+05 0.47372612D+05 0.47372612D+05 0.11493631D+01  1  2  6  2  7  2       -2 0.699635124615D-03 0.100000000000D+01
0.439548620199D-07 0.000000000000D+00 0.000000000000D+00 0.784426400843D-08 0.000000000000D+00  7 2 21 23 -11 11 23 2 2 0.61947045D-01 0.25469705D-01 0.55681525D+05 0.55681525D+05 0.55681525D+05 0.11432066D+01  1  2 12  4  7  2       -2 0.897311316344D-04 0.100000000000D+01
-.791643832060D-07 0.000000000000D+00 -.171468723445D-07 0.784426400843D-08 0.000000000000D+00  7 2 21 23 -11 11 23 2 2 0.61947045D-01 0.25967562D-01 0.47372612D+05 0.47372612D+05 0.47372612D+05 0.11493631D+01  1  2  5  4  7  2       -2 -.158041378268D-03 0.100000000000D+01
  </mgrwgt>
  </event>
  <event>
  8     66 0.55102590E-06 0.25556197E+03 0.75467711E-02 0.10164826E+00
        2 -1    0    0  501    0 0.00000000E+00 0.00000000E+00 0.69939092E+03 0.69939100E+03 0.32000000E+00 0.0000E+00 0.9000E+01
       -2 -1    0    0    0  501 0.00000000E+00 0.00000000E+00 -.16245783E+03 0.16245814E+03 0.32000000E+00 0.0000E+00 0.9000E+01
       25  2    1    2    0    0 0.11751434E+03 -.16989158E+03 0.52003168E+03 0.63504602E+03 0.30029606E+03 0.0000E+00 0.0000E+00
       23  2    1    2    0    0 -.11751434E+03 0.16989158E+03 0.16901414E+02 0.22680312E+03 0.92093579E+02 0.0000E+00 0.0000E+00
       23  1    3    3    0    0 0.84237684E+02 -.58125660E+02 0.56174581E+02 0.14813985E+03 0.91188000E+02 0.0000E+00 0.9000E+01
      -13  1    4    4    0    0 -.12302832E+03 0.10749690E+03 0.16018889E+02 0.16415897E+03 0.10565837E+00 0.0000E+00 0.9000E+01
       13  1    4    4    0    0 0.55139730E+01 0.62394679E+02 0.88252433E+00 0.62644153E+02 0.10565837E+00 0.0000E+00 0.9000E+01
       23  1    3    3    0    0 0.33276659E+02 -.11176592E+03 0.46385710E+03 0.48690617E+03 0.91188000E+02 0.0000E+00 0.9000E+01
#aMCatNLO 1  0  0  1  1 0.51247037D+02 0.00000000D+00  -5  7  0 0.00000000D+00 0.00000000D+00 0.00000000D+00 0.00000000D+00 0.00000000D+00
  <mgrwgt>
 0.7743248472D-04    4    2    0
 0.337078177388689D+03 0.000000000000000D+00 0.000000000000000D+00 0.337078177388689D+03
 0.337078177388689D+03 0.000000000000000D+00 0.000000000000000D+00 -.337078177388689D+03
 0.144643313569950D+03 0.842376834930090D+02 -.581256606301052D+02 -.461720377776466D+02
 0.197104569252082D+03 -.123028484565519D+03 0.107496962965790D+03 -.110266069843320D+03
 0.793819537038067D+02 0.551414163068150D+01 0.623946199426299D+02 -.487647435974482D+02
 0.253026518251540D+03 0.332766594418286D+02 -.111765922278315D+03 0.205202851218415D+03
 0.000000000000000D+00 0.000000000000000D+00 -.000000000000000D+00 -.000000000000000D+00
 0.352804959773141D+03 0.000000000000000D+00 0.000000000000000D+00 0.352804959773141D+03
 0.382550629971004D+03 0.000000000000000D+00 0.000000000000000D+00 -.382550629971004D+03
 0.137281303433987D+03 0.755084122064640D+02 -.519377275403216D+02 -.461720377776466D+02
 0.210028607184470D+03 -.135634605962920D+03 0.116433085256896D+03 -.110266069843320D+03
 0.820119520933998D+02 0.516879587121729D+00 0.659370374185682D+02 -.487647435974482D+02
 0.246779497655262D+03 0.178010959743192D+02 -.100795733803218D+03 0.205202851218415D+03
 0.592542293770262D+02 0.418082181950152D+02 -.296366613319247D+02 -.297456701978631D+02
0.219894149105D-05 0.000000000000D+00 0.000000000000D+00 0.241705058704D-06 0.000000000000D+00  7 2 -2 23 -13 13 23 21 0 0.10759863D+00 0.24993542D-01 0.65311923D+05 0.65311923D+05 0.65311923D+05 0.11372278D+01  1  2  2  1  7  1        2 0.153389017871D-03 0.100000000000D+01
-.110778979584D-06 0.000000000000D+00 -.844451432022D-08 0.241705058704D-06 0.000000000000D+00  7 2 -2 23 -13 13 23 21 2 0.10759863D+00 0.24993542D-01 0.65311923D+05 0.65311923D+05 0.65311923D+05 0.11372278D+01  1  2  3  1  7  1        2 -.999385168126D-05 0.100000000000D+01
0.140856334422D-06 0.000000000000D+00 0.000000000000D+00 0.241705058704D-06 0.000000000000D+00  7 2 -2 23 -13 13 23 21 2 0.10759863D+00 0.24993542D-01 0.65311923D+05 0.65311923D+05 0.65311923D+05 0.11372278D+01  1  2 15  1  7  1        2 0.127072601668D-04 0.100000000000D+01
-.872033739936D-06 0.000000000000D+00 0.000000000000D+00 0.241705058704D-06 0.000000000000D+00  7 2 -2 23 -13 13 23 21 2 0.10759863D+00 0.24993542D-01 0.65311923D+05 0.65311923D+05 0.65311923D+05 0.11372278D+01  1  2  4  1  7  1        2 -.786699416326D-04 0.100000000000D+01
  </mgrwgt>
  </event>
  <event>
  8     66 0.55102590E-06 0.21834832E+03 0.75467711E-02 0.94759555E-01
        2 -1    0    0  501    0 0.00000000E+00 0.00000000E+00 0.97701440E+03 0.97701445E+03 0.32000000E+00 0.0000E+00 0.9000E+01
       -2 -1    0    0    0  501 0.00000000E+00 0.00000000E+00 -.60608305E+02 0.60609150E+02 0.32000000E+00 0.0000E+00 0.9000E+01
       25  2    1    2    0    0 -.40495729E+02 -.10582180E+03 0.47576132E+03 0.57351595E+03 0.29955560E+03 0.0000E+00 0.0000E+00
       23  2    1    2    0    0 0.40495729E+02 0.10582180E+03 0.44064478E+03 0.46410765E+03 0.91596592E+02 0.0000E+00 0.0000E+00
       23  1    3    3    0    0 -.10915961E+03 0.21505094E+02 0.27036221E+03 0.30625033E+03 0.91188000E+02 0.0000E+00 0.9000E+01
      -13  1    4    4    0    0 -.83575349E+01 0.48284912E+01 0.25871184E+00 0.96561282E+01 0.10565837E+00 0.0000E+00 0.9000E+01
       13  1    4    4    0    0 0.48853264E+02 0.10099331E+03 0.44038607E+03 0.45445152E+03 0.10565837E+00 0.0000E+00 0.9000E+01
       23  1    3    3    0    0 0.68663882E+02 -.12732689E+03 0.20539911E+03 0.26726562E+03 0.91188000E+02 0.0000E+00 0.9000E+01
#aMCatNLO 1  0  0  2  1 0.40193491D+03 0.00000000D+00  -5  7  0 0.00000000D+00 0.00000000D+00 0.00000000D+00 0.00000000D+00 0.00000000D+00
  <mgrwgt>
 0.3751287921D-03    3    2    0
 0.243342664947719D+03 0.000000000000000D+00 0.000000000000000D+00 0.243342664947719D+03
 0.243342664947719D+03 0.000000000000000D+00 0.000000000000000D+00 -.243342664947719D+03
 0.143852693407703D+03 -.109159611842414D+03 0.215050904809508D+02 -.237239268291926D+00
 0.200997655156884D+02 -.835760770630761D+01 0.482836606747227D+01 -.176305941003588D+02
 0.139673886702399D+03 0.488533396171118D+02 0.100993440698064D+03 0.832013868320502D+02
 0.183058984269647D+03 0.686638799316093D+02 -.127326897246487D+03 -.653335534633995D+02
 0.000000000000000D+00 -.000000000000000D+00 0.000000000000000D+00 0.000000000000000D+00
 0.827509908769764D+03 0.000000000000000D+00 0.000000000000000D+00 0.827509908769764D+03
 0.394496920863359D+03 0.000000000000000D+00 0.000000000000000D+00 -.394496920863359D+03
 0.112365899507685D+03 -.466688591760835D+02 -.461823053658386D+02 -.237239268291926D+00
 0.184562368150936D+02 0.104605647762225D+01 -.535729361607459D+01 -.176305941003588D+02
 0.147233773482642D+03 0.118829040547683D+03 0.251986588071410D+02 0.832013868320502D+02
 0.353144758186321D+03 0.199441959177567D+03 -.268980297794716D+03 -.653335534633995D+02
 0.590806161641382D+03 -.272648197026788D+03 0.295321237969488D+03 0.433012987906405D+03
0.168049562410D-05 0.000000000000D+00 0.000000000000D+00 0.192913649960D-06 0.000000000000D+00  7 2 -2 23 -13 13 23 21 0 0.15030998D+00 0.93244237D-02 0.47675989D+05 0.47675989D+05 0.47675989D+05 0.11491180D+01  1  2  2  2  7  2       -2 0.370491864166D-03 0.100000000000D+01
-.920275407890D-07 0.000000000000D+00 -.645354568122D-08 0.192913649960D-06 0.000000000000D+00  7 2 -2 23 -13 13 23 21 2 0.15030998D+00 0.93244237D-02 0.47675989D+05 0.47675989D+05 0.47675989D+05 0.11491180D+01  1  2  3  2  7  2       -2 -.267909646620D-04 0.100000000000D+01
0.107955488061D-06 0.000000000000D+00 0.000000000000D+00 0.192913649960D-06 0.000000000000D+00  7 2 -2 23 -13 13 23 21 2 0.15030998D+00 0.93244237D-02 0.47675989D+05 0.47675989D+05 0.47675989D+05 0.11491180D+01  1  2 15  2  7  2       -2 0.314278925734D-04 0.100000000000D+01
  </mgrwgt>
  </event>
  <event>
  9     66 0.55102590E-06 0.20502802E+03 0.75467711E-02 0.10001556E+00
        2 -1    0    0  502    0 0.00000000E+00 0.00000000E+00 0.22633556E+04 0.22633556E+04 0.32000000E+00 0.0000E+00 0.9000E+01
       -2 -1    0    0    0  501 0.00000000E+00 0.00000000E+00 -.50015977E+02 0.50017001E+02 0.32000000E+00 0.0000E+00 0.9000E+01
       25  2    1    2    0    0 0.22084896E+03 -.38702059E+02 0.10577215E+04 0.11220403E+04 0.29987935E+03 0.0000E+00 0.0000E+00
       23  2    1    2    0    0 -.32287088E+02 0.84884702E+01 0.33969788E+03 0.35336162E+03 0.91407182E+02 0.0000E+00 0.0000E+00
       23  1    3    3    0    0 0.22263122E+03 0.40599280E+02 0.81744592E+03 0.85308033E+03 0.91188000E+02 0.0000E+00 0.9000E+01
      -11  1    4    4    0    0 -.17262094E+02 -.33522651E+02 0.25361986E+03 0.25640745E+03 0.51099893E-03 0.0000E+00 0.9000E+01
       11  1    4    4    0    0 -.15024995E+02 0.42011121E+02 0.86078023E+02 0.96954169E+02 0.51099893E-03 0.0000E+00 0.9000E+01
       23  1    3    3    0    0 -.17822573E+01 -.79301339E+02 0.24027557E+03 0.26895999E+03 0.91188000E+02 0.0000E+00 0.9000E+01
       21  1    1    2  502  501 -.18856188E+03 0.30213589E+02 0.81592025E+03 0.83797068E+03 0.75000000E+00 0.0000E+00 0.9000E+01
#aMCatNLO 2  0  0  1  1 0.19096712D+03 0.00000000D+00  -5  7  0 0.00000000D+00 0.00000000D+00 0.00000000D+00 0.00000000D+00 0.00000000D+00
  <mgrwgt>
 0.1713697743D-04    1    2    0
 0.216541885558694D+03 0.000000000000000D+00 0.000000000000000D+00 0.216541885558694D+03
 0.216541885558694D+03 0.000000000000000D+00 0.000000000000000D+00 -.216541885558694D+03
 0.174489334768814D+03 0.135205771216323D+03 0.546076080053378D+02 0.294734657242365D+02
 0.603413986766217D+02 -.403156161256197D+02 -.298287461218391D+02 0.335556462530757D+02
 0.620243049779922D+02 -.379313101237136D+02 0.456814389284228D+02 -.179286434994516D+02
 0.136228732693961D+03 -.569588449669899D+02 -.704603008119215D+02 -.451004684778606D+02
 0.000000000000000D+00 -.000000000000000D+00 0.000000000000000D+00 0.000000000000000D+00
 0.372903483953941D+03 0.000000000000000D+00 0.000000000000000D+00 0.372903483953941D+03
 0.303576333103167D+03 0.000000000000000D+00 0.000000000000000D+00 -.303576333103167D+03
 0.245757805235953D+03 0.222631221446891D+03 0.405992801125862D+02 0.294734657242365D+02
 0.504750374932817D+02 -.172620937982793D+02 -.335226510315943D+02 0.335556462530757D+02
 0.480845196325097D+02 -.150249946498650D+02 0.420111212220087D+02 -.179286434994516D+02
 0.129000706927919D+03 -.178225727365995D+01 -.793013388663194D+02 -.451004684778606D+02
 0.203161747767445D+03 -.188561875725087D+03 0.302135885633187D+02 0.693271508507749D+02
0.234583555021D-06 0.000000000000D+00 0.000000000000D+00 0.925066028426D-07 0.218541944433D-10  7 2 -2 23 -11 11 23 21 2 0.34820789D+00 0.76948299D-02 0.10180384D+06 0.10180384D+06 0.10180384D+06 0.11210855D+01  1  2  1  1  7  1        2 0.171369774279D-04 0.100000000000D+01
  </mgrwgt>
  </event>
  <event>
  8     66 0.55102590E-06 0.18344845E+03 0.75467711E-02 0.10093258E+00
        2 -1    0    0  501    0 0.00000000E+00 0.00000000E+00 0.23788016E+03 0.23788038E+03 0.32000000E+00 0.0000E+00 0.9000E+01
       -2 -1    0    0    0  501 0.00000000E+00 0.00000000E+00 -.20750926E+03 0.20750951E+03 0.32000000E+00 0.0000E+00 0.9000E+01
       25  2    1    2    0    0 -.38340955E+02 -.62551657E+01 0.99330267E+02 0.31804385E+03 0.29962682E+03 0.0000E+00 0.0000E+00
       23  2    1    2    0    0 0.38340955E+02 0.62551657E+01 -.68959363E+02 0.12734604E+03 0.99762033E+02 0.0000E+00 0.0000E+00
       23  1    3    3    0    0 -.11412252E+02 -.10546874E+03 0.11316395E+03 0.17993117E+03 0.91188000E+02 0.0000E+00 0.9000E+01
      -13  1    4    4    0    0 0.15451141E+02 0.43339726E+02 -.28693845E+00 0.46012641E+02 0.10565837E+00 0.0000E+00 0.9000E+01
       13  1    4    4    0    0 0.22889814E+02 -.37084560E+02 -.68672425E+02 0.81333396E+02 0.10565837E+00 0.0000E+00 0.9000E+01
       23  1    3    3    0    0 -.26928703E+02 0.99213577E+02 -.13833686E+02 0.13811268E+03 0.91188000E+02 0.0000E+00 0.9000E+01
#aMCatNLO 1  0  0  2  1 0.19777884D+03 0.00000000D+00  -5  7  0 0.00000000D+00 0.00000000D+00 0.00000000D+00 0.00000000D+00 0.00000000D+00
  <mgrwgt>
 0.1518419541D-03    3    2    0
 0.222176594451783D+03 0.000000000000000D+00 0.000000000000000D+00 0.222176594451783D+03
 0.222176594451783D+03 0.000000000000000D+00 0.000000000000000D+00 -.222176594451783D+03
 0.172617700973406D+03 -.114132379524158D+02 -.105468903064493D+03 0.101131932796513D+03
 0.461380617305457D+02 0.154516489711789D+02 0.433378458521455D+02 -.343488008797728D+01
 0.862172247892778D+02 0.228910880462384D+02 -.370823893936151D+02 -.743929051407762D+02
 0.139380201410337D+03 -.269294990650015D+02 0.992134466059626D+02 -.233041475677593D+02
 0.000000000000000D+00 0.000000000000000D+00 -.000000000000000D+00 0.000000000000000D+00
 0.352120048612373D+03 0.000000000000000D+00 0.000000000000000D+00 0.352120048612373D+03
 0.332964962390234D+03 0.000000000000000D+00 0.000000000000000D+00 -.332964962390234D+03
 0.171351118788226D+03 -.759190655197457D+02 -.710955851331649D+02 0.101131932796513D+03
 0.535036242743848D+02 -.323454886618976D+01 0.532951883654424D+02 -.343488008797728D+01
 0.776181482682839D+02 -.783360476517395D+01 -.207100758495912D+02 -.743929051407762D+02
 0.183907850298334D+03 -.875569807435708D+02 0.131520104495717D+03 -.233041475677593D+02
 0.198704269373378D+03 0.174544199894680D+03 -.930096318784037D+02 0.191550862221394D+02
0.100128204600D-05 0.000000000000D+00 0.000000000000D+00 0.249649229908D-08 0.000000000000D+00  7 2 -2 23 -13 13 23 21 0 0.36596984D-01 0.31924537D-01 0.33653334D+05 0.33653334D+05 0.33653334D+05 0.11627336D+01  1  2  2  2  7  2       -2 0.149926060582D-03 0.100000000000D+01
-.531454815108D-07 0.000000000000D+00 -.384518670025D-08 0.249649229908D-08 0.000000000000D+00  7 2 -2 23 -13 13 23 21 2 0.36596984D-01 0.31924537D-01 0.33653334D+05 0.33653334D+05 0.33653334D+05 0.11627336D+01  1  2  3  2  7  2       -2 -.107583953272D-04 0.100000000000D+01
0.626098190318D-07 0.000000000000D+00 0.000000000000D+00 0.249649229908D-08 0.000000000000D+00  7 2 -2 23 -13 13 23 21 2 0.36596984D-01 0.31924537D-01 0.33653334D+05 0.33653334D+05 0.33653334D+05 0.11627336D+01  1  2 15  2  7  2       -2 0.126742888644D-04 0.100000000000D+01
  </mgrwgt>
  </event>
  <event>
  9     66 0.55102590E-06 0.24195667E+03 0.75467711E-02 0.10286907E+00
        2 -1    0    0  502    0 0.00000000E+00 0.00000000E+00 0.55507143E+03 0.55507152E+03 0.32000000E+00 0.0000E+00 0.9000E+01
       -2 -1    0    0    0  501 0.00000000E+00 0.00000000E+00 -.38042179E+03 0.38042193E+03 0.32000000E+00 0.0000E+00 0.9000E+01
       25  2    1    2    0    0 -.15488836E+03 0.48354910E+02 -.24237812E+03 0.41908211E+03 0.30092202E+03 0.0000E+00 0.0000E+00
       23  2    1    2    0    0 0.14953699E+03 -.20651851E+02 0.44480503E+03 0.47681037E+03 0.81907286E+02 0.0000E+00 0.0000E+00
       23  1    3    3    0    0 -.46784548E+02 0.12139539E+03 -.19795466E+03 0.25382461E+03 0.91188000E+02 0.0000E+00 0.9000E+01
      -13  1    4    4    0    0 0.18829583E+02 -.30223227E+02 0.15030180E+03 0.15446242E+03 0.10565837E+00 0.0000E+00 0.9000E+01
       13  1    4    4    0    0 0.13070741E+03 0.95713761E+01 0.29450323E+03 0.32234795E+03 0.10565837E+00 0.0000E+00 0.9000E+01
       23  1    3    3    0    0 -.10810381E+03 -.73040482E+02 -.44423464E+02 0.16525750E+03 0.91188000E+02 0.0000E+00 0.9000E+01
       21  1    1    2  502  501 0.53513690E+01 -.27703059E+02 -.27777276E+02 0.39600962E+02 0.75000000E+00 0.0000E+00 0.9000E+01
#aMCatNLO 2  0  0  1  1 0.28215185D+02 0.00000000D+00  -5  7  0 0.00000000D+00 0.00000000D+00 0.00000000D+00 0.00000000D+00 0.00000000D+00
  <mgrwgt>
 0.7235637490D-04    2    2    0
 0.436133748597534D+03 0.000000000000000D+00 0.000000000000000D+00 0.436133748597534D+03
 0.436133748597534D+03 0.000000000000000D+00 0.000000000000000D+00 -.436133748597534D+03
 0.302496110157201D+03 -.449170046413758D+02 0.111727460548855D+03 -.262084113539124D+03
 0.124840639907838D+03 0.195915985728069D+02 -.341690728582281D+02 0.118464463439336D+03
 0.263231443540017D+03 0.132320148345480D+03 0.122352947854530D+01 0.227553673197350D+03
 0.181699303590011D+03 -.106994742276911D+03 -.787819171691719D+02 -.839340230975614D+02
 0.000000000000000D+00 0.000000000000000D+00 -.000000000000000D+00 -.000000000000000D+00
 0.441056442559930D+03 0.000000000000000D+00 0.000000000000000D+00 0.441056442559930D+03
 0.478756268759624D+03 0.000000000000000D+00 0.000000000000000D+00 -.478756268759624D+03
 0.306478333684276D+03 -.467845481196472D+02 0.121395391846406D+03 -.262084113539124D+03
 0.123700536482119D+03 0.188293967140212D+02 -.302232931260065D+02 0.118464463439336D+03
 0.262596194064737D+03 0.130707591389709D+03 0.957144214733976D+01 0.227553673197350D+03
 0.179948651105045D+03 -.108103808980861D+03 -.730404815223227D+02 -.839340230975614D+02
 0.470889959833767D+02 0.535136899677825D+01 -.277030593454163D+02 -.376998261996939D+02
-.193525140773D-09 0.000000000000D+00 0.000000000000D+00 0.573032247014D-08 0.000000000000D+00  7 2 -2 23 -13 13 23 21 2 0.84441942D-01 0.53315620D-01 0.58543029D+05 0.58543029D+05 0.58543029D+05 0.11413180D+01  1  2  8  1  7  1        2 -.585760286345D-08 0.100000000000D+01
0.294729083815D-05 0.000000000000D+00 0.000000000000D+00 0.573032247014D-08 0.497597059276D-10  7 2 -2 23 -13 13 23 21 2 0.85395048D-01 0.58526054D-01 0.65774347D+05 0.65774347D+05 0.65774347D+05 0.11369656D+01  1  2  1  1  7  1        2 0.723622325077D-04 0.100000000000D+01
  </mgrwgt>
  </event>
  <event>
  8     66 0.55102590E-06 0.11961164E+03 0.75467711E-02 0.10512463E+00
        2 -1    0    0  501    0 0.00000000E+00 0.00000000E+00 0.31310300E+04 0.31310300E+04 0.32000000E+00 0.0000E+00 0.9000E+01
       -2 -1    0    0    0  501 0.00000000E+00 0.00000000E+00 -.29752180E+02 0.29753901E+02 0.32000000E+00 0.0000E+00 0.9000E+01
       25  2    1    2    0    0 0.12420081E+02 -.41856407E+02 0.30117984E+04 0.30264553E+04 0.29427157E+03 0.0000E+00 0.0000E+00
       23  2    1    2    0    0 -.12420081E+02 0.41856407E+02 0.89479415E+02 0.13432863E+03 0.90174265E+02 0.0000E+00 0.0000E+00
       23  1    3    3    0    0 0.11385956E+03 -.51306678E+02 0.12895926E+04 0.12988305E+04 0.91188000E+02 0.0000E+00 0.9000E+01
      -13  1    4    4    0    0 -.37069981E+02 0.55621722E+02 0.41557537E+02 0.78708319E+02 0.10565837E+00 0.0000E+00 0.9000E+01
       13  1    4    4    0    0 0.24649900E+02 -.13765315E+02 0.47921878E+02 0.55620311E+02 0.10565837E+00 0.0000E+00 0.9000E+01
       23  1    3    3    0    0 -.10143948E+03 0.94502712E+01 0.17222058E+04 0.17276247E+04 0.91188000E+02 0.0000E+00 0.9000E+01
#aMCatNLO 1  0  0  2  1 0.43090046D+02 0.00000000D+00  -5  7  0 0.00000000D+00 0.00000000D+00 0.00000000D+00 0.00000000D+00 0.00000000D+00
  <mgrwgt>
 0.2428346729D-03    9    2    0
 0.305217486446798D+03 0.000000000000000D+00 0.000000000000000D+00 0.305217486446798D+03
 0.305217486446798D+03 0.000000000000000D+00 0.000000000000000D+00 -.305217486446798D+03
 0.173544561029174D+03 0.113859562904239D+03 -.513066783973493D+02 0.787787281307286D+02
 0.196415102516623D+03 -.370700653140676D+02 0.556218169341378D+02 -.184691408124936D+03
 0.445331640884022D+02 0.246499845533482D+02 -.137654097258076D+02 -.344397221290314D+02
 0.195942145259397D+03 -.101439482143520D+03 0.945027118901907D+01 0.140352402123239D+03
 0.000000000000000D+00 0.000000000000000D+00 0.000000000000000D+00 -.000000000000000D+00
 0.313292154331859D+03 0.000000000000000D+00 0.000000000000000D+00 0.313292154331859D+03
 0.369432315135505D+03 0.000000000000000D+00 0.000000000000000D+00 -.369432315135505D+03
 0.167733912622307D+03 0.102602978355674D+03 -.555513719563933D+02 0.787787281307286D+02
 0.197966966023334D+03 -.500781963322916D+02 0.507166407938941D+02 -.184691408124936D+03
 0.433587081888792D+02 0.217509962848082D+02 -.148585758436586D+02 -.344397221290314D+02
 0.202894339716506D+03 -.114594535745783D+03 0.448969268907585D+01 0.140352402123239D+03
 0.707705429163371D+02 0.403187574375920D+02 0.152036143170819D+02 -.561401608036453D+02
0.618240209483D-05 0.000000000000D+00 0.000000000000D+00 0.363081124771D-08 0.000000000000D+00  7 2 -2 23 -13 13 23 21 0 0.48169705D+00 0.45773922D-02 0.37333545D+05 0.37333545D+05 0.37333545D+05 0.11586249D+01  1  2  2  2  7  2       -2 0.248882435004D-03 0.100000000000D+01
-.256173612978D-06 0.000000000000D+00 -.237420519080D-07 0.363081124771D-08 0.000000000000D+00  7 2 -2 23 -13 13 23 21 2 0.48169705D+00 0.45773922D-02 0.37333545D+05 0.37333545D+05 0.37333545D+05 0.11586249D+01  1  2  3  2  7  2       -2 -.138438582995D-04 0.100000000000D+01
0.379171785141D-06 0.000000000000D+00 0.000000000000D+00 0.363081124771D-08 0.000000000000D+00  7 2 -2 23 -13 13 23 21 2 0.48169705D+00 0.45773922D-02 0.37333545D+05 0.37333545D+05 0.37333545D+05 0.11586249D+01  1  2 15  2  7  2       -2 0.204907929574D-04 0.100000000000D+01
0.175402910051D-04 0.000000000000D+00 0.000000000000D+00 0.363081124771D-08 0.000000000000D+00  7 2 -2 23 -13 13 23 21 2 0.48169705D+00 0.55922946D-02 0.47372861D+05 0.47372861D+05 0.47372861D+05 0.11493629D+01  1  2 12  2  7  2       -2 0.688345878730D-03 0.100000000000D+01
-.181547671993D-04 0.000000000000D+00 0.000000000000D+00 0.363081124771D-08 0.000000000000D+00  7 2 -2 23 -13 13 23 21 2 0.48169705D+00 0.45773922D-02 0.37333545D+05 0.37333545D+05 0.37333545D+05 0.11586249D+01  1  2  4  2  7  2       -2 -.981100362552D-03 0.100000000000D+01
-.227166516917D-04 0.000000000000D+00 -.412016261347D-05 0.363081124771D-08 0.000000000000D+00  7 2 -2 23 -13 13 23 21 2 0.48169705D+00 0.57395139D-02 0.37333545D+05 0.37333545D+05 0.37333545D+05 0.11586249D+01  1  2  5  2  7  2       -2 -.879350716352D-03 0.100000000000D+01
0.231568683382D-04 0.000000000000D+00 0.401691669996D-05 0.363081124771D-08 0.000000000000D+00  7 2 -2 23 -13 13 23 21 2 0.48169705D+00 0.45773922D-02 0.37333545D+05 0.37333545D+05 0.37333545D+05 0.11586249D+01  1  2  6  2  7  2       -2 0.125141852125D-02 0.100000000000D+01
0.502448111240D-06 0.000000000000D+00 0.000000000000D+00 0.363081124771D-08 0.000000000000D+00  7 2 21 23 -13 13 23 2 2 0.48169705D+00 0.55922946D-02 0.47372861D+05 0.47372861D+05 0.47372861D+05 0.11493629D+01  1  2 12  4  7  2       -2 0.320724037869D-03 0.100000000000D+01
-.655280187142D-06 0.000000000000D+00 -.129461777615D-06 0.363081124771D-08 0.000000000000D+00  7 2 21 23 -13 13 23 2 2 0.48169705D+00 0.57395139D-02 0.37333545D+05 0.37333545D+05 0.37333545D+05 0.11586249D+01  1  2  5  4  7  2       -2 -.412732055755D-03 0.100000000000D+01
  </mgrwgt>
  </event>
  <event>
  9     66 0.55102590E-06 0.49888874E+03 0.75467711E-02 0.94147330E-01
        2 -1    0    0  502    0 0.00000000E+00 0.00000000E+00 0.17073874E+04 0.17073875E+04 0.32000000E+00 0.0000E+00 0.9000E+01
       -2 -1    0    0    0  501 0.00000000E+00 0.00000000E+00 -.34199587E+03 0.34199602E+03 0.32000000E+00 0.0000E+00 0.9000E+01
       25  2    1    2    0    0 0.46054620E+03 0.13117753E+03 -.15614168E+02 0.56543465E+03 0.30027021E+03 0.0000E+00 0.0000E+00
       23  2    1    2    0    0 -.42017488E+03 -.15466819E+03 0.13567776E+04 0.14313255E+04 0.85894838E+02 0.0000E+00 0.0000E+00
       23  1    3    3    0    0 0.23742057E+03 0.16752483E+03 -.76856081E+02 0.31409426E+03 0.91188000E+02 0.0000E+00 0.9000E+01
      -11  1    4    4    0    0 -.25489293E+03 -.82215018E+02 0.93404080E+03 0.97167995E+03 0.51099893E-03 0.0000E+00 0.9000E+01
       11  1    4    4    0    0 -.16528195E+03 -.72453173E+02 0.42273680E+03 0.45964550E+03 0.51099893E-03 0.0000E+00 0.9000E+01
       23  1    3    3    0    0 0.22312562E+03 -.36347294E+02 0.61241913E+02 0.25134039E+03 0.91188000E+02 0.0000E+00 0.9000E+01
       21  1    1    2  502  501 -.40371320E+02 0.23490657E+02 0.24228139E+02 0.52623375E+02 0.75000000E+00 0.0000E+00 0.9000E+01
#aMCatNLO 2  0  0  1  1 0.46708183D+02 0.00000000D+00  -5  7  0 0.00000000D+00 0.00000000D+00 0.00000000D+00 0.00000000D+00 0.00000000D+00
  <mgrwgt>
 0.1986694793D-03    2    2    0
 0.739281733004515D+03 0.000000000000000D+00 0.000000000000000D+00 0.739281733004515D+03
 0.739281733004515D+03 0.000000000000000D+00 0.000000000000000D+00 -.739281733004515D+03
 0.490068745421028D+03 0.223994073898140D+03 0.175337237703337D+03 -.388504352392117D+03
 0.470638896756764D+03 -.267659915281271D+03 -.747863534312135D+02 0.379823830522136D+03
 0.240648002149158D+03 -.171803567802706D+03 -.686584731657206D+02 0.153886351218016D+03
 0.277207821682080D+03 0.215469409185836D+03 -.318924111064033D+02 -.145205829348034D+03
 0.000000000000000D+00 -.000000000000000D+00 0.000000000000000D+00 -.000000000000000D+00
 0.756677203052926D+03 0.000000000000000D+00 0.000000000000000D+00 0.756677203052926D+03
 0.771683399444759D+03 0.000000000000000D+00 0.000000000000000D+00 -.771683399444759D+03
 0.493643575528560D+03 0.237420572770807D+03 0.167524828351456D+03 -.388504352392117D+03
 0.464753541842867D+03 -.254892925120738D+03 -.822150177666779D+02 0.379823830522136D+03
 0.237167862347482D+03 -.165281951645846D+03 -.724531731494187D+02 0.153886351218016D+03
 0.283736063818826D+03 0.223125623595184D+03 -.363472940672447D+02 -.145205829348034D+03
 0.490595589599502D+02 -.403713195994063D+02 0.234906566318855D+02 -.150061963918336D+02
-.129040428111D-04 0.000000000000D+00 0.000000000000D+00 0.166465806287D-06 0.000000000000D+00  7 2 -2 23 -11 11 23 21 2 0.25663533D+00 0.50405369D-01 0.24888998D+06 0.24888998D+06 0.24888998D+06 0.10906045D+01  1  2  8  1  7  1        2 -.762457299631D-04 0.100000000000D+01
0.537469717701D-04 0.000000000000D+00 0.000000000000D+00 0.166465806287D-06 0.481600326407D-09  7 2 -2 23 -11 11 23 21 2 0.26267402D+00 0.52614565D-01 0.27212308D+06 0.27212308D+06 0.27212308D+06 0.10876995D+01  1  2  1  1  7  1        2 0.274915209218D-03 0.100000000000D+01
  </mgrwgt>
  </event>
  <event>
  9     66 -.55102590E-06 0.20711962E+03 0.75467711E-02 0.10477849E+00
        2 -1    0    0  502    0 0.00000000E+00 0.00000000E+00 0.47407643E+03 0.47407653E+03 0.32000000E+00 0.0000E+00 0.9000E+01
       -2 -1    0    0    0  501 0.00000000E+00 0.00000000E+00 -.32920034E+03 0.32920049E+03 0.32000000E+00 0.0000E+00 0.9000E+01
       25  2    1    2    0    0 0.59674731E+02 -.48108525E+02 0.38923278E+03 0.49735764E+03 0.29997826E+03 0.0000E+00 0.0000E+00
       23  2    1    2    0    0 -.66677423E+02 0.72039412E+02 -.24667085E+03 0.28086659E+03 0.91673204E+02 0.0000E+00 0.0000E+00
       23  1    3    3    0    0 0.47267963E+02 -.13003320E+03 0.13098376E+03 0.21122237E+03 0.91188000E+02 0.0000E+00 0.9000E+01
      -11  1    4    4    0    0 -.12393138E+02 0.76857748E+02 -.16802458E+03 0.18518359E+03 0.51099893E-03 0.0000E+00 0.9000E+01
       11  1    4    4    0    0 -.54284285E+02 -.48183358E+01 -.78646273E+02 0.95682998E+02 0.51099893E-03 0.0000E+00 0.9000E+01
       23  1    3    3    0    0 0.12406769E+02 0.81924675E+02 0.25824903E+03 0.28613527E+03 0.91188000E+02 0.0000E+00 0.9000E+01
       21  1    1    2  502  501 0.70026912E+01 -.23930887E+02 0.23141566E+01 0.25052802E+02 0.75000000E+00 0.0000E+00 0.9000E+01
#aMCatNLO 2  0  0  1  2 0.24934415D+02 0.00000000D+00  -5  7  0 0.00000000D+00 0.00000000D+00 0.00000000D+00 0.00000000D+00 0.00000000D+00
  <mgrwgt>
 -.1194950090D-03    3    2    0
 0.382324245378049D+03 0.000000000000000D+00 0.000000000000000D+00 0.382324245378049D+03
 0.382324245378049D+03 0.000000000000000D+00 0.000000000000000D+00 -.382324245378049D+03
 0.195054175172742D+03 0.490327297571476D+02 -.136064087361599D+03 0.938788338835581D+02
 0.217279189989821D+03 -.103928160832415D+02 0.700218790901828D+02 -.205424371059455D+03
 0.111698334405266D+03 -.532603040801152D+02 -.831767055733821D+01 -.978298230331829D+02
 0.240616791188268D+03 0.146203904062091D+02 0.743598788287539D+02 0.209375360209080D+03
 0.000000000000000D+00 0.000000000000000D+00 -.000000000000000D+00 -.000000000000000D+00
 0.393891075431668D+03 0.000000000000000D+00 0.000000000000000D+00 0.393891075431668D+03
 0.396205442517993D+03 0.000000000000000D+00 0.000000000000000D+00 -.396205442517993D+03
 0.190450466961637D+03 0.472679628555791D+02 -.130033200599126D+03 0.938788338835581D+02
 0.219681304507333D+03 -.123931380864011D+02 0.768577481666124D+02 -.205424371059455D+03
 0.111985151608419D+03 -.542842845187394D+02 -.481833584812486D+01 -.978298230331829D+02
 0.242938002701800D+03 0.124067685659447D+02 0.819246754269369D+02 0.209375360209080D+03
 0.250415921704721D+02 0.700269118361671D+01 -.239308871462987D+02 -.231436708632516D+01
-.806308032934D-05 0.000000000000D+00 0.000000000000D+00 0.979343314929D-06 0.000000000000D+00  7 2 -2 23 -11 11 23 21 2 0.74177158D-01 0.48871123D-01 0.49773197D+05 0.49773197D+05 0.49773197D+05 0.11474691D+01  1  2 13  1  7  1        2 -.338503404167D-03 0.100000000000D+01
-.190913744079D-05 0.000000000000D+00 0.000000000000D+00 0.979343314929D-06 0.000000000000D+00  7 2 -2 23 -11 11 23 21 2 0.70792076D-01 0.48871123D-01 0.42898537D+05 0.42898537D+05 0.42898537D+05 0.11531935D+01  1  2  8  1  7  1        2 -.853391540730D-04 0.100000000000D+01
0.762660295852D-05 0.000000000000D+00 0.000000000000D+00 0.979343314929D-06 0.110653110063D-07  7 2 -2 23 -11 11 23 21 2 0.72933818D-01 0.50645506D-01 0.49773197D+05 0.49773197D+05 0.49773197D+05 0.11474691D+01  1  2  1  1  7  1        2 0.304347549274D-03 0.100000000000D+01
  </mgrwgt>
  </event>
  <event>
  8     66 0.55102590E-06 0.18637136E+03 0.75467711E-02 0.96721419E-01
        2 -1    0    0  501    0 0.00000000E+00 0.00000000E+00 0.12904342E+03 0.12904381E+03 0.32000000E+00 0.0000E+00 0.9000E+01
       -2 -1    0    0    0  501 0.00000000E+00 0.00000000E+00 -.57148773E+03 0.57148782E+03 0.32000000E+00 0.0000E+00 0.9000E+01
       25  2    1    2    0    0 0.57606908E+02 0.60643477E+02 -.84451695E+02 0.32167166E+03 0.29890530E+03 0.0000E+00 0.0000E+00
       23  2    1    2    0    0 -.57606908E+02 -.60643477E+02 -.35799262E+03 0.37885997E+03 0.91542220E+02 0.0000E+00 0.0000E+00
       23  1    3    3    0    0 -.44895536E+02 -.13375844E+00 0.56081321E+02 0.11608614E+03 0.91188000E+02 0.0000E+00 0.9000E+01
      -13  1    4    4    0    0 0.23182361E+02 -.19973480E+02 -.58677258E+02 0.66176987E+02 0.10565837E+00 0.0000E+00 0.9000E+01
       13  1    4    4    0    0 -.80789269E+02 -.40669997E+02 -.29931536E+03 0.31268299E+03 0.10565837E+00 0.0000E+00 0.9000E+01
       23  1    3    3    0    0 0.10250244E+03 0.60777235E+02 -.14053302E+03 0.20558551E+03 0.91188000E+02 0.0000E+00 0.9000E+01
#aMCatNLO 1  0  0  2  1 0.32172986D+03 0.00000000D+00  -5  7  0 0.00000000D+00 0.00000000D+00 0.00000000D+00 0.00000000D+00 0.00000000D+00
  <mgrwgt>
 0.2441735778D-03    3    2    0
 0.271563803116582D+03 0.000000000000000D+00 0.000000000000000D+00 0.271563803116582D+03
 0.271563803116582D+03 0.000000000000000D+00 0.000000000000000D+00 -.271563803116582D+03
 0.195414257917668D+03 -.448955359267488D+02 -.133757997684988D+00 0.166900730424288D+03
 0.375557494233131D+02 0.231824968536811D+02 -.199734520631846D+02 -.217730881377772D+02
 0.159472712444322D+03 -.807894057047089D+02 -.406700256131755D+02 -.131341413715754D+03
 0.150684886447861D+03 0.102502444777777D+03 0.607772356740450D+02 -.137862285707561D+02
 0.000000000000000D+00 0.000000000000000D+00 0.000000000000000D+00 0.000000000000000D+00
 0.100288723339907D+04 0.000000000000000D+00 0.000000000000000D+00 0.100288723339907D+04
 0.353286891376505D+03 0.000000000000000D+00 0.000000000000000D+00 -.353286891376505D+03
 0.234739563865128D+03 -.782940791151254D+02 -.113144133117648D+03 0.166900730424288D+03
 0.511047378735652D+02 0.162986079652487D+02 -.432664101176135D+02 -.217730881377772D+02
 0.222019184763509D+03 -.110409678638946D+03 -.140895898836854D+03 -.131341413715754D+03
 0.123403257836720D+03 0.812213488982359D+02 -.112314329300331D+02 -.137862285707561D+02
 0.724907380436652D+03 0.911838008905864D+02 0.308537875002149D+03 0.649600342022565D+03
0.593765596391D-05 0.000000000000D+00 0.000000000000D+00 0.102459134981D-06 0.000000000000D+00  7 2 -2 23 -13 13 23 21 0 0.19852871D-01 0.87921226D-01 0.34734283D+05 0.34734283D+05 0.34734283D+05 0.11614772D+01  1  2  2  2  7  2       -2 0.239243745176D-03 0.100000000000D+01
-.273030018660D-06 0.000000000000D+00 -.228021623221D-07 0.102459134981D-06 0.000000000000D+00  7 2 -2 23 -13 13 23 21 2 0.19852871D-01 0.87921226D-01 0.34734283D+05 0.34734283D+05 0.34734283D+05 0.11614772D+01  1  2  3  2  7  2       -2 -.148408012477D-04 0.100000000000D+01
0.363725411441D-06 0.000000000000D+00 0.000000000000D+00 0.102459134981D-06 0.000000000000D+00  7 2 -2 23 -13 13 23 21 2 0.19852871D-01 0.87921226D-01 0.34734283D+05 0.34734283D+05 0.34734283D+05 0.11614772D+01  1  2 15  2  7  2       -2 0.197706338901D-04 0.100000000000D+01
  </mgrwgt>
  </event>
  <event>
  9     66 0.55102590E-06 0.32604690E+03 0.75467711E-02 0.95234763E-01
        2 -1    0    0  502    0 0.00000000E+00 0.00000000E+00 0.14593774E+04 0.14593775E+04 0.32000000E+00 0.0000E+00 0.9000E+01
       -2 -1    0    0    0  501 0.00000000E+00 0.00000000E+00 -.30010385E+03 0.30010402E+03 0.32000000E+00 0.0000E+00 0.9000E+01
       25  2    1    2    0    0 0.14306007E+03 0.14593404E+03 0.95061259E+03 0.10174602E+04 0.29966323E+03 0.0000E+00 0.0000E+00
       23  2    1    2    0    0 -.39224849E+03 -.63119727E+02 0.23101576E+01 0.40805376E+03 0.93056741E+02 0.0000E+00 0.0000E+00
       23  1    3    3    0    0 0.61130017E+02 0.18568792E+02 0.71116494E+03 0.71982810E+03 0.91188000E+02 0.0000E+00 0.9000E+01
      -11  1    4    4    0    0 -.12842473E+03 -.18100629E+02 -.42941070E+02 0.13661801E+03 0.51099893E-03 0.0000E+00 0.9000E+01
       11  1    4    4    0    0 -.26382376E+03 -.45019098E+02 0.45251227E+02 0.27143575E+03 0.51099893E-03 0.0000E+00 0.9000E+01
       23  1    3    3    0    0 0.81930055E+02 0.12736525E+03 0.23944765E+03 0.29763210E+03 0.91188000E+02 0.0000E+00 0.9000E+01
       21  1    1    2  502  501 0.24918842E+03 -.82814312E+02 0.20635083E+03 0.33396752E+03 0.75000000E+00 0.0000E+00 0.9000E+01
#aMCatNLO 2  0  0  1  1 0.26258918D+03 0.00000000D+00  -5  7  0 0.00000000D+00 0.00000000D+00 0.00000000D+00 0.00000000D+00 0.00000000D+00
  <mgrwgt>
 0.4222685253D-04    1    2    0
 0.513584275362905D+03 0.000000000000000D+00 0.000000000000000D+00 0.513584275362905D+03
 0.513584275362905D+03 0.000000000000000D+00 0.000000000000000D+00 -.513584275362905D+03
 0.352556452685060D+03 0.142452322421228D+03 -.845754795178855D+01 0.309219350470366D+03
 0.199740768755684D+03 -.780432940116544D+02 -.348442005748548D+02 -.180531162543261D+03
 0.274347313663009D+03 -.192358790989125D+03 -.687694872907390D+02 -.183126463573893D+03
 0.200524015622056D+03 0.127949762579551D+03 0.112071235817382D+03 0.544382756467888D+02
 0.000000000000000D+00 0.000000000000000D+00 -.000000000000000D+00 -.000000000000000D+00
 0.650525508414639D+03 0.000000000000000D+00 0.000000000000000D+00 0.650525508414639D+03
 0.673246869950260D+03 0.000000000000000D+00 0.000000000000000D+00 -.673246869950260D+03
 0.328654129842076D+03 0.611300171024363D+02 0.185687916137051D+02 0.309219350470366D+03
 0.222288203176380D+03 -.128424732276331D+03 -.181006287712594D+02 -.180531162543261D+03
 0.324291528162658D+03 -.263823756330728D+03 -.450190978645298D+02 -.183126463573893D+03
 0.184968151992429D+03 0.819300550811007D+02 0.127365246933794D+03 0.544382756467888D+02
 0.263570365191356D+03 0.249188416423522D+03 -.828143119117100D+02 -.227213615356213D+02
0.457946100618D-05 0.000000000000D+00 0.000000000000D+00 0.438883486872D-06 0.426442193703D-10  7 2 -2 23 -11 11 23 21 2 0.22451944D+00 0.46169802D-01 0.22469391D+06 0.22469391D+06 0.22469391D+06 0.10939631D+01  1  2  1  1  7  1        2 0.422268525275D-04 0.100000000000D+01
  </mgrwgt>
  </event>
  <event>
  8     66 0.55102590E-06 0.13559391E+03 0.75467711E-02 0.99436616E-01
        2 -1    0    0  501    0 0.00000000E+00 0.00000000E+00 0.16519940E+03 0.16519971E+03 0.32000000E+00 0.0000E+00 0.9000E+01
       -2 -1    0    0    0  501 0.00000000E+00 0.00000000E+00 -.74754153E+03 0.74754159E+03 0.32000000E+00 0.0000E+00 0.9000E+01
       25  2    1    2    0    0 0.23217718E+03 0.51944256E+02 -.15559605E+03 0.41525105E+03 0.30268608E+03 0.0000E+00 0.0000E+00
       23  2    1    2    0    0 -.23217718E+03 -.51944256E+02 -.42674608E+03 0.49749025E+03 0.93701006E+02 0.0000E+00 0.0000E+00
       23  1    3    3    0    0 0.15568225E+03 -.31638961E+02 0.23346959E+02 0.18465730E+03 0.91188000E+02 0.0000E+00 0.9000E+01
      -13  1    4    4    0    0 -.16892033E+03 -.30774757E+02 -.37706247E+03 0.41431544E+03 0.10565837E+00 0.0000E+00 0.9000E+01
       13  1    4    4    0    0 -.63256844E+02 -.21169499E+02 -.49683609E+02 0.83174805E+02 0.10565837E+00 0.0000E+00 0.9000E+01
       23  1    3    3    0    0 0.76494928E+02 0.83583217E+02 -.17894301E+03 0.23059375E+03 0.91188000E+02 0.0000E+00 0.9000E+01
#aMCatNLO 1  0  0  2  1 0.96811430D+02 0.00000000D+00  -5  7  0 0.00000000D+00 0.00000000D+00 0.00000000D+00 0.00000000D+00 0.00000000D+00
  <mgrwgt>
 0.1535396043D-03    7    2    0
 0.351416536263971D+03 0.000000000000000D+00 0.000000000000000D+00 0.351416536263971D+03
 0.351416536263971D+03 0.000000000000000D+00 0.000000000000000D+00 -.351416536263971D+03
 0.259151527561015D+03 0.155682252190515D+03 -.316389610778210D+02 0.183320144523215D+03
 0.225634791289844D+03 -.168920471354796D+03 -.307747701762280D+02 -.146389367504220D+03
 0.668495556391058D+02 -.632567094500429D+02 -.211694857363314D+02 0.439370826956193D+01
 0.151197198037978D+03 0.764949286143237D+02 0.835832169903803D+02 -.413244852885568D+02
 0.000000000000000D+00 0.000000000000000D+00 -.000000000000000D+00 -.000000000000000D+00
 0.356082992787422D+03 0.000000000000000D+00 0.000000000000000D+00 0.356082992787422D+03
 0.209254964183935D+04 0.000000000000000D+00 0.000000000000000D+00 -.209254964183935D+04
 0.246090445756594D+03 0.136495824821050D+03 -.280545309853628D+01 0.183320144523215D+03
 0.237126132417539D+03 -.186493692347970D+03 -.436560092490332D+01 -.146389367504220D+03
 0.698801195218374D+02 -.684489819061494D+02 -.133664994684431D+02 0.439370826956193D+01
 0.156372667940062D+03 0.648150460901653D+02 0.101135832673976D+03 -.413244852885568D+02
 0.173916326899074D+04 0.536318033429040D+02 -.805982791820930D+02 -.173646664905192D+04
0.956457446557D-05 0.000000000000D+00 0.000000000000D+00 0.853364361979D-08 0.000000000000D+00  7 2 -2 23 -13 13 23 21 0 0.25415321D-01 0.11500642D+00 0.80378395D+05 0.80378395D+05 0.80378395D+05 0.11295906D+01  1  2  2  2  7  2       -2 0.151463218431D-03 0.100000000000D+01
-.501578214534D-06 0.000000000000D+00 -.367304843581D-07 0.853364361979D-08 0.000000000000D+00  7 2 -2 23 -13 13 23 21 2 0.25415321D-01 0.11500642D+00 0.80378395D+05 0.80378395D+05 0.80378395D+05 0.11295906D+01  1  2  3  2  7  2       -2 -.101349666272D-04 0.100000000000D+01
0.614542187360D-06 0.000000000000D+00 0.000000000000D+00 0.853364361979D-08 0.000000000000D+00  7 2 -2 23 -13 13 23 21 2 0.25415321D-01 0.11500642D+00 0.80378395D+05 0.80378395D+05 0.80378395D+05 0.11295906D+01  1  2 15  2  7  2       -2 0.124175340544D-04 0.100000000000D+01
0.396928559692D-03 0.000000000000D+00 0.000000000000D+00 0.853364361979D-08 0.000000000000D+00  7 2 -2 23 -13 13 23 21 2 0.25415321D-01 0.67972427D+00 0.11158572D+06 0.11158572D+06 0.11158572D+06 0.11178360D+01  1  2 12  2  7  2       -2 0.103289673169D-05 0.100000000000D+01
-.440391296434D-03 0.000000000000D+00 -.411775781556D-05 0.853364361979D-08 0.000000000000D+00  7 2 -2 23 -13 13 23 21 2 0.25415321D-01 0.68525213D+00 0.80378395D+05 0.80378395D+05 0.80378395D+05 0.11295906D+01  1  2  5  2  7  2       -2 -.119126734270D-05 0.100000000000D+01
0.864232269668D-04 0.000000000000D+00 0.000000000000D+00 0.853364361979D-08 0.000000000000D+00  7 2 21 23 -13 13 23 2 2 0.25415321D-01 0.67972427D+00 0.11158572D+06 0.11158572D+06 0.11158572D+06 0.11178360D+01  1  2 12  4  7  2       -2 0.768644111679D-06 0.100000000000D+01
-.965863110573D-04 0.000000000000D+00 -.900695646708D-06 0.853364361979D-08 0.000000000000D+00  7 2 21 23 -13 13 23 2 2 0.25415321D-01 0.68525213D+00 0.80378395D+05 0.80378395D+05 0.80378395D+05 0.11295906D+01  1  2  5  4  7  2       -2 -.816455102133D-06 0.100000000000D+01
  </mgrwgt>
  </event>
  <event>
  9     66 0.55102590E-06 0.63435458E+03 0.75467711E-02 0.84954976E-01
        2 -1    0    0  501    0 0.00000000E+00 0.00000000E+00 0.13799108E+04 0.13799108E+04 0.32000000E+00 0.0000E+00 0.9000E+01
       21 -1    0    0  502  501 0.00000000E+00 0.00000000E+00 -.17590022E+04 0.17590024E+04 0.75000000E+00 0.0000E+00 0.9000E+01
       25  2    1    2    0    0 -.17893898E+03 0.11303455E+04 0.58483616E+03 0.13197653E+04 0.30007826E+03 0.0000E+00 0.0000E+00
       23  2    1    2    0    0 -.32509302E+03 -.28661478E+03 -.10898799E+01 0.44328948E+03 0.93117509E+02 0.0000E+00 0.0000E+00
       23  1    3    3    0    0 -.14280973E+03 0.55304377E+03 0.40881920E+03 0.70830814E+03 0.91188000E+02 0.0000E+00 0.9000E+01
      -13  1    4    4    0    0 -.17318051E+03 -.91256844E+02 -.42055789E+01 0.19579837E+03 0.10565837E+00 0.0000E+00 0.9000E+01
       13  1    4    4    0    0 -.15191251E+03 -.19535793E+03 0.31156990E+01 0.24749111E+03 0.10565837E+00 0.0000E+00 0.9000E+01
       23  1    3    3    0    0 -.36129242E+02 0.57730178E+03 0.17601696E+03 0.61145718E+03 0.91188000E+02 0.0000E+00 0.9000E+01
        2  1    1    2  502    0 0.50403200E+03 -.84373076E+03 -.96283766E+03 0.13758584E+04 0.32000000E+00 0.0000E+00 0.9000E+01
#aMCatNLO 2  0  0  2  1 0.98281731D+03 0.00000000D+00  -5  7  0 0.00000000D+00 0.00000000D+00 0.00000000D+00 0.00000000D+00 0.00000000D+00
  <mgrwgt>
 0.6209959954D-05    1    2    0
 0.671132001327506D+03 0.000000000000000D+00 0.000000000000000D+00 0.671132001327506D+03
 0.671132001327506D+03 0.000000000000000D+00 0.000000000000000D+00 -.671132001327506D+03
 0.351300981818915D+03 0.179133459203697D+02 0.283999328946430D+03 0.184717681013075D+03
 0.251340784387762D+03 -.959932443543232D+02 -.220465365401316D+03 -.731608474079616D+02
 0.389478219211537D+03 -.428066443038927D+02 -.377997171897379D+03 -.835404840853426D+02
 0.350144017236798D+03 0.120886542737846D+03 0.314463208352265D+03 -.280163495197706D+02
 0.000000000000000D+00 0.000000000000000D+00 -.000000000000000D+00 -.000000000000000D+00
 0.978197661200229D+03 0.000000000000000D+00 0.000000000000000D+00 0.978197661200229D+03
 0.248136596520663D+04 0.000000000000000D+00 0.000000000000000D+00 -.248136596520663D+04
 0.607196757148121D+03 -.142809732732421D+03 0.553043767802551D+03 0.184717681013075D+03
 0.208977980786326D+03 -.173180540779416D+03 -.912567101939782D+02 -.731608474079616D+02
 0.261191863901704D+03 -.151912482214298D+03 -.195358068773019D+03 -.835404840853426D+02
 0.586244684273730D+03 -.361292422807520D+02 0.577301775943059D+03 -.280163495197706D+02
 0.179595234029698D+04 0.504031998006887D+03 -.843730764778613D+03 -.150316830400641D+04
0.117268733012D-04 0.000000000000D+00 0.000000000000D+00 0.192554226021D-06 0.236823205207D-11  7 2 21 23 -13 13 23 2 2 0.21229398D+00 0.27061573D+00 0.16770700D+07 0.16770700D+07 0.16770700D+07 0.10332356D+01  1  2  1  4  7  2       -2 0.620995995417D-05 0.100000000000D+01
  </mgrwgt>
  </event>
  <event>
  8     66 0.55102590E-06 0.30701231E+03 0.75467711E-02 0.93695207E-01
        2 -1    0    0  501    0 0.00000000E+00 0.00000000E+00 0.51742870E+03 0.51742880E+03 0.32000000E+00 0.0000E+00 0.9000E+01
       -2 -1    0    0    0  501 0.00000000E+00 0.00000000E+00 -.55528417E+03 0.55528427E+03 0.32000000E+00 0.0000E+00 0.9000E+01
       25  2    1    2    0    0 0.47801859E+03 -.10644743E+03 -.21030972E+02 0.57411163E+03 0.29887963E+03 0.0000E+00 0.0000E+00
       23  2    1    2    0    0 -.47801859E+03 0.10644743E+03 -.16824506E+02 0.49860144E+03 0.92127644E+02 0.0000E+00 0.0000E+00
       23  1    3    3    0    0 0.17742827E+03 -.13098930E+03 -.83627410E+02 0.25287899E+03 0.91188000E+02 0.0000E+00 0.9000E+01
      -13  1    4    4    0    0 -.40562452E+03 0.73778905E+02 0.16170388E+02 0.41259674E+03 0.10565837E+00 0.0000E+00 0.9000E+01
       13  1    4    4    0    0 -.72394071E+02 0.32668524E+02 -.32994894E+02 0.86004698E+02 0.10565837E+00 0.0000E+00 0.9000E+01
       23  1    3    3    0    0 0.30059032E+03 0.24541871E+02 0.62596438E+02 0.32123264E+03 0.91188000E+02 0.0000E+00 0.9000E+01
#aMCatNLO 1  0  0  2  1 0.39848718D+02 0.00000000D+00  -5  7  0 0.00000000D+00 0.00000000D+00 0.00000000D+00 0.00000000D+00 0.00000000D+00
  <mgrwgt>
 0.2932854915D-03    6    2    0
 0.536022452627810D+03 0.000000000000000D+00 0.000000000000000D+00 0.536022452627810D+03
 0.536022452627810D+03 0.000000000000000D+00 0.000000000000000D+00 -.536022452627810D+03
 0.250083590622596D+03 0.177428271210087D+03 -.130989299461149D+03 -.747500030552989D+02
 0.413425323754022D+03 -.405624955652238D+03 0.737789587274384D+02 0.307499418265044D+02
 0.848927710139062D+02 -.723936327501412D+02 0.326684696567538D+02 -.299785856561470D+02
 0.323643219865096D+03 0.300590317192291D+03 0.245418710769566D+02 0.739786468849416D+02
 0.000000000000000D+00 -.000000000000000D+00 0.000000000000000D+00 0.000000000000000D+00
 0.559388728865905D+03 0.000000000000000D+00 0.000000000000000D+00 0.559388728865905D+03
 0.553655555338322D+03 0.000000000000000D+00 0.000000000000000D+00 -.553655555338322D+03
 0.258380411792060D+03 0.185710240937078D+03 -.135533498841283D+03 -.747500030552989D+02
 0.399173262278481D+03 -.392389177194458D+03 0.665166747242225D+02 0.307499418265044D+02
 0.820081322564989D+02 -.696751153689136D+02 0.311768577086443D+02 -.299785856561470D+02
 0.333223446738125D+03 0.311289501051211D+03 0.186713805701868D+02 0.739786468849416D+02
 0.402590311390613D+02 -.349354494249172D+02 0.191685858382297D+02 0.573317352758263D+01
0.202066203999D-04 0.000000000000D+00 0.000000000000D+00 0.222304926396D-06 0.000000000000D+00  7 2 -2 23 -13 13 23 21 0 0.79604430D-01 0.85428349D-01 0.27323052D+06 0.27323052D+06 0.27323052D+06 0.10875679D+01  1  2  2  2  7  2       -2 0.177642310059D-03 0.100000000000D+01
-.112172734057D-05 0.000000000000D+00 -.775987428611D-07 0.222304926396D-06 0.000000000000D+00  7 2 -2 23 -13 13 23 21 2 0.79604430D-01 0.85428349D-01 0.27323052D+06 0.27323052D+06 0.27323052D+06 0.10875679D+01  1  2  3  2  7  2       -2 -.116641414958D-04 0.100000000000D+01
0.128441019150D-05 0.000000000000D+00 0.000000000000D+00 0.222304926396D-06 0.000000000000D+00  7 2 -2 23 -13 13 23 21 2 0.79604430D-01 0.85428349D-01 0.27323052D+06 0.27323052D+06 0.27323052D+06 0.10875679D+01  1  2 15  2  7  2       -2 0.133557787800D-04 0.100000000000D+01
0.381575094230D-04 0.000000000000D+00 0.000000000000D+00 0.222304926396D-06 0.000000000000D+00  7 2 -2 23 -13 13 23 21 2 0.79604430D-01 0.90031528D-01 0.29507022D+06 0.29507022D+06 0.29507022D+06 0.10850846D+01  1  2 12  2  7  2       -2 0.349037643121D-03 0.100000000000D+01
-.259005571059D-04 0.000000000000D+00 0.000000000000D+00 0.222304926396D-06 0.000000000000D+00  7 2 -2 23 -13 13 23 21 2 0.79604430D-01 0.85428349D-01 0.27323052D+06 0.27323052D+06 0.27323052D+06 0.10875679D+01  1  2  4  2  7  2       -2 -.269323704590D-03 0.100000000000D+01
0.398708116625D-06 0.000000000000D+00 0.000000000000D+00 0.222304926396D-06 0.000000000000D+00  7 2 21 23 -13 13 23 2 2 0.79604430D-01 0.90031528D-01 0.29507022D+06 0.29507022D+06 0.29507022D+06 0.10850846D+01  1  2 12  4  7  2       -2 0.342376056194D-04 0.100000000000D+01
  </mgrwgt>
  </event>
  <event>
  8     66 0.55102590E-06 0.31010414E+03 0.75467711E-02 0.10016219E+00
        2 -1    0    0  501    0 0.00000000E+00 0.00000000E+00 0.56770550E+03 0.56770559E+03 0.32000000E+00 0.0000E+00 0.9000E+01
       -2 -1    0    0    0  501 0.00000000E+00 0.00000000E+00 -.39331637E+03 0.39331650E+03 0.32000000E+00 0.0000E+00 0.9000E+01
       25  2    1    2    0    0 -.15787111E+03 -.18555191E+03 0.44247871E+03 0.58786464E+03 0.30074013E+03 0.0000E+00 0.0000E+00
       23  2    1    2    0    0 0.15787111E+03 0.18555191E+03 -.26808958E+03 0.37315746E+03 0.89563744E+02 0.0000E+00 0.0000E+00
       23  1    3    3    0    0 -.14643389E+03 -.20384120E+03 0.40880360E+03 0.48829269E+03 0.91188000E+02 0.0000E+00 0.9000E+01
      -11  1    4    4    0    0 0.24844286E+02 0.95857631E+02 -.10738251E+03 0.14607166E+03 0.51099893E-03 0.0000E+00 0.9000E+01
       11  1    4    4    0    0 0.13302682E+03 0.89694279E+02 -.16070707E+03 0.22708580E+03 0.51099893E-03 0.0000E+00 0.9000E+01
       23  1    3    3    0    0 -.11437214E+02 0.18289286E+02 0.33675104E+02 0.99571943E+02 0.91188000E+02 0.0000E+00 0.9000E+01
#aMCatNLO 1  0  0  1  1 0.10409294D+02 0.00000000D+00  -5  7  0 0.00000000D+00 0.00000000D+00 0.00000000D+00 0.00000000D+00 0.00000000D+00
  <mgrwgt>
 0.8812677318D-04    4    2    0
 0.472533569413423D+03 0.000000000000000D+00 0.000000000000000D+00 0.472533569413423D+03
 0.472533569413423D+03 0.000000000000000D+00 0.000000000000000D+00 -.472533569413423D+03
 0.421101473761526D+03 -.146433893816941D+03 -.203841195884343D+03 0.325602643512272D+03
 0.168352515847662D+03 0.248442862407991D+02 0.958576309812414D+02 -.136149350406408D+03
 0.260574118146060D+03 0.133026821972009D+03 0.896942791312292D+02 -.205323335192942D+03
 0.950390310715965D+02 -.114372143958677D+02 0.182892857718722D+02 0.158700420870786D+02
 0.000000000000000D+00 -.000000000000000D+00 -.000000000000000D+00 -.000000000000000D+00
 0.474402847616573D+03 0.000000000000000D+00 0.000000000000000D+00 0.474402847616573D+03
 0.487279233777645D+03 0.000000000000000D+00 0.000000000000000D+00 -.487279233777645D+03
 0.418364075032112D+03 -.143614178064918D+03 -.200177756831356D+03 0.325602643512272D+03
 0.169366306900566D+03 0.259786640429928D+02 0.973314405091756D+02 -.136149350406408D+03
 0.262266487142958D+03 0.134783013030295D+03 0.919759626317083D+02 -.205323335192942D+03
 0.951275937869174D+02 -.107984558090583D+02 0.191191755047892D+02 0.158700420870786D+02
 0.165576185316646D+02 -.634904319931209D+01 -.824882181431720D+01 -.128763861610717D+02
0.647977181545D-05 0.000000000000D+00 0.000000000000D+00 0.139176858285D-06 0.000000000000D+00  7 2 -2 23 -11 11 23 21 0 0.87339324D-01 0.60510228D-01 0.96164580D+05 0.96164580D+05 0.96164580D+05 0.11231185D+01  1  2  2  1  7  1        2 0.111199846916D-03 0.100000000000D+01
-.282336390218D-06 0.000000000000D+00 -.248840299344D-07 0.139176858285D-06 0.000000000000D+00  7 2 -2 23 -11 11 23 21 2 0.87339324D-01 0.60510228D-01 0.96164580D+05 0.96164580D+05 0.96164580D+05 0.11231185D+01  1  2  3  1  7  1        2 -.611170679060D-05 0.100000000000D+01
0.396167633442D-06 0.000000000000D+00 0.000000000000D+00 0.139176858285D-06 0.000000000000D+00  7 2 -2 23 -11 11 23 21 2 0.87339324D-01 0.60510228D-01 0.96164580D+05 0.96164580D+05 0.96164580D+05 0.11231185D+01  1  2 15  1  7  1        2 0.857580000103D-05 0.100000000000D+01
-.117971489444D-05 0.000000000000D+00 0.000000000000D+00 0.139176858285D-06 0.000000000000D+00  7 2 -2 23 -11 11 23 21 2 0.87339324D-01 0.60510228D-01 0.96164580D+05 0.96164580D+05 0.96164580D+05 0.11231185D+01  1  2  4  1  7  1        2 -.255371669438D-04 0.100000000000D+01
  </mgrwgt>
  </event>
  <event>
  9     66 0.55102590E-06 0.20327685E+03 0.75467711E-02 0.10077661E+00
        2 -1    0    0  501    0 0.00000000E+00 0.00000000E+00 0.19158807E+04 0.19158808E+04 0.32000000E+00 0.0000E+00 0.9000E+01
       21 -1    0    0  502  501 0.00000000E+00 0.00000000E+00 -.90333687E+02 0.90336800E+02 0.75000000E+00 0.0000E+00 0.9000E+01
       25  2    1    2    0    0 -.10705829E+03 -.28880866E+02 0.15192863E+04 0.15527512E+04 0.30084850E+03 0.0000E+00 0.0000E+00
       23  2    1    2    0    0 0.43334988E+02 -.11492195E+03 0.23543808E+03 0.28096749E+03 0.91796890E+02 0.0000E+00 0.0000E+00
       23  1    3    3    0    0 -.88634329E+02 0.98785038E+02 0.84526677E+03 0.86046830E+03 0.91188000E+02 0.0000E+00 0.9000E+01
      -13  1    4    4    0    0 0.44181331E+01 -.42975668E+02 0.14819608E+02 0.45673404E+02 0.10565837E+00 0.0000E+00 0.9000E+01
       13  1    4    4    0    0 0.38916855E+02 -.71946286E+02 0.22061847E+03 0.23529409E+03 0.10565837E+00 0.0000E+00 0.9000E+01
       23  1    3    3    0    0 -.18423959E+02 -.12766590E+03 0.67401951E+03 0.69228287E+03 0.91188000E+02 0.0000E+00 0.9000E+01
        2  1    1    2  502    0 0.63723300E+02 0.14380282E+03 0.70822680E+02 0.17249888E+03 0.32000000E+00 0.0000E+00 0.9000E+01
#aMCatNLO 2  0  0  2  1 0.15728926D+03 0.00000000D+00  -5  7  0 0.00000000D+00 0.00000000D+00 0.00000000D+00 0.00000000D+00 0.00000000D+00
  <mgrwgt>
 0.9762663159D-04    2    2    0
 0.254325909732672D+03 0.000000000000000D+00 0.000000000000000D+00 0.254325909732672D+03
 0.254325909732672D+03 0.000000000000000D+00 0.000000000000000D+00 -.254325909732672D+03
 0.202897315100790D+03 -.653339593182275D+02 0.151366420601924D+03 0.753110191477643D+02
 0.101934920661934D+03 0.172965104086007D+02 -.139132229831605D+02 -.994885973579931D+02
 0.717040153526326D+02 0.484032832819330D+02 -.505386264500984D+02 -.156344242540914D+02
 0.132115568349986D+03 -.365834372306210D+00 -.869145711686648D+02 0.398120024643202D+02
 0.000000000000000D+00 0.000000000000000D+00 0.000000000000000D+00 -.000000000000000D+00
 0.284258592060974D+03 0.000000000000000D+00 0.000000000000000D+00 0.284258592060974D+03
 0.608852791612859D+03 0.000000000000000D+00 0.000000000000000D+00 -.608852791612859D+03
 0.177768190419385D+03 -.886343306325091D+02 0.987850393998754D+02 0.753110191477643D+02
 0.108463845319847D+03 0.441809274177505D+01 -.429756348857337D+02 -.994885973579931D+02
 0.832780482360453D+02 0.389168980531605D+02 -.719463212552808D+02 -.156344242540914D+02
 0.162905715495585D+03 -.184239598381913D+02 -.127665903673573D+03 0.398120024643202D+02
 0.360695584202971D+03 0.637232996757648D+02 0.143802820414712D+03 -.324594199551885D+03
-.156224367151D-07 0.000000000000D+00 0.000000000000D+00 0.860642618013D-07 0.000000000000D+00  7 2 21 23 -13 13 23 2 2 0.26371351D+00 0.13753534D-01 0.90385017D+05 0.90385017D+05 0.90385017D+05 0.11253427D+01  1  2 13  4  7  2       -2 -.128073867348D-04 0.100000000000D+01
0.175773961433D-06 0.000000000000D+00 0.000000000000D+00 0.860642618013D-07 0.319978562895D-11  7 2 21 23 -13 13 23 2 2 0.29475105D+00 0.13897729D-01 0.90385017D+05 0.90385017D+05 0.90385017D+05 0.11253427D+01  1  2  1  4  7  2       -2 0.110434018323D-03 0.100000000000D+01
  </mgrwgt>
  </event>
  <event>
  8     66 0.55102590E-06 0.30563929E+03 0.75467711E-02 0.92467590E-01
        2 -1    0    0  501    0 0.00000000E+00 0.00000000E+00 0.38193903E+03 0.38193916E+03 0.32000000E+00 0.0000E+00 0.9000E+01
       -2 -1    0    0    0  501 0.00000000E+00 0.00000000E+00 -.31439866E+03 0.31439883E+03 0.32000000E+00 0.0000E+00 0.9000E+01
       25  2    1    2    0    0 -.63469177E+02 0.21149052E+03 -.12130835E+03 0.39203224E+03 0.30036141E+03 0.0000E+00 0.0000E+00
       23  2    1    2    0    0 0.63469177E+02 -.21149052E+03 0.18884872E+03 0.30430575E+03 0.90452058E+02 0.0000E+00 0.0000E+00
       23  1    3    3    0    0 0.33867553E+02 -.25672025E+02 -.36618895E+02 0.10706194E+03 0.91188000E+02 0.0000E+00 0.9000E+01
      -13  1    4    4    0    0 0.12041906E+02 -.17525378E+03 0.13662813E+03 0.22254472E+03 0.10565837E+00 0.0000E+00 0.9000E+01
       13  1    4    4    0    0 0.51427271E+02 -.36236747E+02 0.52220589E+02 0.81761036E+02 0.10565837E+00 0.0000E+00 0.9000E+01
       23  1    3    3    0    0 -.97336730E+02 0.23716255E+03 -.84689460E+02 0.28497030E+03 0.91188000E+02 0.0000E+00 0.9000E+01
#aMCatNLO 1  0  0  1  1 0.46347170D+03 0.00000000D+00  -5  7  0 0.00000000D+00 0.00000000D+00 0.00000000D+00 0.00000000D+00 0.00000000D+00
  <mgrwgt>
 0.1478557403D-03    5    2    0
 0.346527377694220D+03 0.000000000000000D+00 0.000000000000000D+00 0.346527377694220D+03
 0.346527377694220D+03 0.000000000000000D+00 0.000000000000000D+00 -.346527377694220D+03
 0.111137753866571D+03 0.338675528110995D+02 -.256720246180362D+02 -.472258934177511D+02
 0.210284327610327D+03 0.120418523081596D+02 -.175253967300262D+03 0.115587798564703D+03
 0.770591236651981D+02 0.514273247156037D+02 -.362365571454142D+02 0.445000083021486D+02
 0.294573550246344D+03 -.973367298348628D+02 0.237162549063713D+03 -.112861913449101D+03
 0.000000000000000D+00 -.000000000000000D+00 -.000000000000000D+00 0.000000000000000D+00
 0.698753582799416D+03 0.000000000000000D+00 0.000000000000000D+00 0.698753582799416D+03
 0.607383798077149D+03 0.000000000000000D+00 0.000000000000000D+00 -.607383798077149D+03
 0.133550802662190D+03 0.784279843173345D+02 0.337539896090868D+02 -.472258934177511D+02
 0.164037197040625D+03 0.802098487896690D+02 -.843447864011090D+02 0.115587798564703D+03
 0.939466730124631D+02 0.825693290582890D+02 0.529457553382382D+01 0.445000083021486D+02
 0.442210439405993D+03 0.368396001560108D+02 0.416100773525591D+03 -.112861913449101D+03
 0.472392268755294D+03 -.278046762321303D+03 -.370804552267392D+03 0.913697847222665D+02
0.329445159104D-05 0.000000000000D+00 0.000000000000D+00 0.201250877488D-06 0.000000000000D+00  7 2 -2 23 -13 13 23 21 0 0.58759873D-01 0.48369048D-01 0.93415375D+05 0.93415375D+05 0.93415375D+05 0.11241577D+01  1  2  2  1  7  1        2 0.137259843441D-03 0.100000000000D+01
-.179517015970D-06 0.000000000000D+00 -.126515615586D-07 0.201250877488D-06 0.000000000000D+00  7 2 -2 23 -13 13 23 21 2 0.58759873D-01 0.48369048D-01 0.93415375D+05 0.93415375D+05 0.93415375D+05 0.11241577D+01  1  2  3  1  7  1        2 -.945192891333D-05 0.100000000000D+01
0.208661528650D-06 0.000000000000D+00 0.000000000000D+00 0.201250877488D-06 0.000000000000D+00  7 2 -2 23 -13 13 23 21 2 0.58759873D-01 0.48369048D-01 0.93415375D+05 0.93415375D+05 0.93415375D+05 0.11241577D+01  1  2 15  1  7  1        2 0.109864456308D-04 0.100000000000D+01
0.620671277169D-06 0.000000000000D+00 -.108285386797D-05 0.201250877488D-06 0.000000000000D+00  7 2 -2 23 -13 13 23 21 2 0.18244631D+00 0.48369048D-01 0.93415375D+05 0.93415375D+05 0.93415375D+05 0.11241577D+01  1  2  5  1  7  1        2 0.810807365753D-05 0.100000000000D+01
0.130943189021D-06 0.000000000000D+00 -.140501859085D-06 0.201250877488D-06 0.000000000000D+00  7 21 -2 23 -13 13 23 -2 2 0.18244631D+00 0.48369048D-01 0.93415375D+05 0.93415375D+05 0.93415375D+05 0.11241577D+01  1  2  5  3  7  1        2 0.953306518256D-06 0.100000000000D+01
  </mgrwgt>
  </event>
  <event>
  8     66 0.55102590E-06 0.10232956E+03 0.75467711E-02 0.10442359E+00
        2 -1    0    0  501    0 0.00000000E+00 0.00000000E+00 0.20990970E+04 0.20990970E+04 0.32000000E+00 0.0000E+00 0.9000E+01
       -2 -1    0    0    0  501 0.00000000E+00 0.00000000E+00 -.36828946E+02 0.36830336E+02 0.32000000E+00 0.0000E+00 0.9000E+01
       25  2    1    2    0    0 0.22529939E+02 -.11151212E+03 0.18534902E+04 0.18816293E+04 0.30357953E+03 0.0000E+00 0.0000E+00
       23  2    1    2    0    0 -.22529939E+02 0.11151212E+03 0.20877787E+03 0.25429803E+03 0.90203863E+02 0.0000E+00 0.0000E+00
       23  1    3    3    0    0 0.32849770E+02 -.92433345E+02 0.34282113E+03 0.36805517E+03 0.91188000E+02 0.0000E+00 0.9000E+01
      -11  1    4    4    0    0 0.14312900E+02 0.36438542E+02 0.14194967E+03 0.14724923E+03 0.51099893E-03 0.0000E+00 0.9000E+01
       11  1    4    4    0    0 -.36842839E+02 0.75073580E+02 0.66828200E+02 0.10704880E+03 0.51099893E-03 0.0000E+00 0.9000E+01
       23  1    3    3    0    0 -.10319831E+02 -.19078777E+02 0.15106690E+04 0.15135741E+04 0.91188000E+02 0.0000E+00 0.9000E+01
#aMCatNLO 1  0  0  2  1 0.10069124D+03 0.00000000D+00  -5  7  0 0.00000000D+00 0.00000000D+00 0.00000000D+00 0.00000000D+00 0.00000000D+00
  <mgrwgt>
 0.1694908251D-03    9    2    0
 0.278045031496453D+03 0.000000000000000D+00 0.000000000000000D+00 0.278045031496453D+03
 0.278045031496453D+03 0.000000000000000D+00 0.000000000000000D+00 -.278045031496453D+03
 0.142333140533485D+03 0.328497696708656D+02 -.924333445772479D+02 -.481709559066409D+02
 0.391580202332516D+02 0.143129002434612D+02 0.364385420744950D+02 -.850932837378608D+00
 0.163338284920125D+03 -.368428390547459D+02 0.750735798338680D+02 -.140306657511189D+03
 0.211260617306045D+03 -.103198308595810D+02 -.190787773311151D+02 0.189328546255208D+03
 0.000000000000000D+00 -.000000000000000D+00 0.000000000000000D+00 -.000000000000000D+00
 0.314588066700228D+03 0.000000000000000D+00 0.000000000000000D+00 0.314588066700228D+03
 0.361721301931700D+03 0.000000000000000D+00 0.000000000000000D+00 -.361721301931700D+03
 0.151781071903345D+03 0.591946016586083D+02 -.943281537275454D+02 -.481709559066409D+02
 0.419064048785108D+02 0.215741224811013D+02 0.359162904866076D+02 -.850932837378608D+00
 0.158365201055709D+03 -.802673996968451D+01 0.730010288209157D+02 -.140306657511189D+03
 0.213079947740040D+03 0.276898280382323D+02 -.218125601661232D+02 0.189328546255208D+03
 0.111176743054324D+03 -.100431812208257D+03 0.722339458614529D+01 -.471332352314722D+02
0.159314084659D-05 0.000000000000D+00 0.000000000000D+00 0.569979795882D-08 0.000000000000D+00  7 2 -2 23 -11 11 23 21 0 0.32293811D+00 0.56661005D-02 0.30702355D+05 0.30702355D+05 0.30702355D+05 0.11664046D+01  1  2  2  2  7  2       -2 0.183385324214D-03 0.100000000000D+01
-.655648251756D-07 0.000000000000D+00 -.611808033452D-08 0.569979795882D-08 0.000000000000D+00  7 2 -2 23 -11 11 23 21 2 0.32293811D+00 0.56661005D-02 0.30702355D+05 0.30702355D+05 0.30702355D+05 0.11664046D+01  1  2  3  2  7  2       -2 -.102678552498D-04 0.100000000000D+01
0.974250944502D-07 0.000000000000D+00 0.000000000000D+00 0.569979795882D-08 0.000000000000D+00  7 2 -2 23 -11 11 23 21 2 0.32293811D+00 0.56661005D-02 0.30702355D+05 0.30702355D+05 0.30702355D+05 0.11664046D+01  1  2 15  2  7  2       -2 0.152573695550D-04 0.100000000000D+01
0.506730221498D-06 0.000000000000D+00 0.000000000000D+00 0.569979795882D-08 0.000000000000D+00  7 2 -2 23 -11 11 23 21 2 0.32293811D+00 0.76555067D-02 0.52378735D+05 0.52378735D+05 0.52378735D+05 0.11455241D+01  1  2 12  2  7  2       -2 0.485171294061D-04 0.100000000000D+01
-.108973976442D-05 0.000000000000D+00 0.000000000000D+00 0.569979795882D-08 0.000000000000D+00  7 2 -2 23 -11 11 23 21 2 0.32293811D+00 0.56661005D-02 0.30702355D+05 0.30702355D+05 0.30702355D+05 0.11664046D+01  1  2  4  2  7  2       -2 -.170659955717D-03 0.100000000000D+01
-.111231256814D-05 0.000000000000D+00 -.675186058737D-06 0.569979795882D-08 0.000000000000D+00  7 2 -2 23 -11 11 23 21 2 0.32293811D+00 0.85402621D-02 0.30702355D+05 0.30702355D+05 0.30702355D+05 0.11664046D+01  1  2  5  2  7  2       -2 -.946568405632D-04 0.100000000000D+01
0.132899572908D-05 0.000000000000D+00 0.622086862738D-06 0.569979795882D-08 0.000000000000D+00  7 2 -2 23 -11 11 23 21 2 0.32293811D+00 0.56661005D-02 0.30702355D+05 0.30702355D+05 0.30702355D+05 0.11664046D+01  1  2  6  2  7  2       -2 0.208128912680D-03 0.100000000000D+01
0.196313592891D-07 0.000000000000D+00 0.000000000000D+00 0.569979795882D-08 0.000000000000D+00  7 2 21 23 -11 11 23 2 2 0.32293811D+00 0.76555067D-02 0.52378735D+05 0.52378735D+05 0.52378735D+05 0.11455241D+01  1  2 12  4  7  2       -2 0.290470611639D-04 0.100000000000D+01
-.300983288259D-07 0.000000000000D+00 -.327451628599D-07 0.569979795882D-08 0.000000000000D+00  7 2 21 23 -11 11 23 2 2 0.32293811D+00 0.85402621D-02 0.30702355D+05 0.30702355D+05 0.30702355D+05 0.11664046D+01  1  2  5  4  7  2       -2 -.392603204312D-04 0.100000000000D+01
  </mgrwgt>
  </event>
  <event>
  8     66 0.55102590E-06 0.43612854E+03 0.75467711E-02 0.90257022E-01
        2 -1    0    0  501    0 0.00000000E+00 0.00000000E+00 0.19814194E+04 0.19814195E+04 0.32000000E+00 0.0000E+00 0.9000E+01
       -2 -1    0    0    0  501 0.00000000E+00 0.00000000E+00 -.10855656E+03 0.10855703E+03 0.32000000E+00 0.0000E+00 0.9000E+01
       25  2    1    2    0    0 0.27209173E+03 -.28725419E+03 0.77720666E+03 0.92152248E+03 0.29766529E+03 0.0000E+00 0.0000E+00
       23  2    1    2    0    0 -.27209173E+03 0.28725419E+03 0.10956562E+04 0.11684540E+04 0.90957946E+02 0.0000E+00 0.0000E+00
       23  1    3    3    0    0 0.17718985E+03 -.28069357E+03 0.66344436E+03 0.74743480E+03 0.91188000E+02 0.0000E+00 0.9000E+01
      -13  1    4    4    0    0 -.13890259E+03 0.13106241E+03 0.40187875E+03 0.44494699E+03 0.10565837E+00 0.0000E+00 0.9000E+01
       13  1    4    4    0    0 -.13318913E+03 0.15619178E+03 0.69377747E+03 0.72350702E+03 0.10565837E+00 0.0000E+00 0.9000E+01
       23  1    3    3    0    0 0.94901878E+02 -.65606223E+01 0.11376230E+03 0.17408768E+03 0.91188000E+02 0.0000E+00 0.9000E+01
#aMCatNLO 1  0  0  1  1 0.49190055D+03 0.00000000D+00  -5  7  0 0.00000000D+00 0.00000000D+00 0.00000000D+00 0.00000000D+00 0.00000000D+00
  <mgrwgt>
 0.2456039189D-03    5    2    0
 0.463785082419376D+03 0.000000000000000D+00 0.000000000000000D+00 0.463785082419376D+03
 0.463785082419376D+03 0.000000000000000D+00 0.000000000000000D+00 -.463785082419376D+03
 0.344535523304620D+03 0.177189850773399D+03 -.280693569427596D+03 -.142951858918910D+02
 0.191106748915766D+03 -.138902602616605D+03 0.131062373793931D+03 0.710708400029543D+01
 0.229376338461280D+03 -.133189125698652D+03 0.156191818097848D+03 0.102363457350859D+03
 0.162551554157087D+03 0.949018775418571D+02 -.656062246418290D+01 -.951753554592633D+02
 0.000000000000000D+00 -.000000000000000D+00 -.000000000000000D+00 0.000000000000000D+00
 0.112688669254978D+04 0.000000000000000D+00 0.000000000000000D+00 0.112688669254978D+04
 0.625462232627696D+03 0.000000000000000D+00 0.000000000000000D+00 -.625462232627696D+03
 0.381892413585574D+03 0.325394553737842D+03 -.177314963464119D+03 -.142951858918910D+02
 0.195664386111193D+03 -.599941544816381D+02 0.186104118109504D+03 0.710708400029543D+01
 0.249091489270753D+03 -.355728602909147D+02 0.224283000329993D+03 0.102363457350859D+03
 0.223281500811311D+03 0.173618940035695D+03 0.483476228436955D+02 -.951753554592633D+02
 0.702419135398646D+03 -.403446479000984D+03 -.281419777819073D+03 0.501424459922084D+03
0.100646638913D-04 0.000000000000D+00 0.000000000000D+00 0.767087735711D-07 0.000000000000D+00  7 2 -2 23 -13 13 23 21 0 0.30483380D+00 0.16701048D-01 0.19020811D+06 0.19020811D+06 0.19020811D+06 0.10995037D+01  1  2  2  1  7  1        2 0.243338270418D-03 0.100000000000D+01
-.556577978033D-06 0.000000000000D+00 -.386509594295D-07 0.767087735711D-07 0.000000000000D+00  7 2 -2 23 -13 13 23 21 2 0.30483380D+00 0.16701048D-01 0.19020811D+06 0.19020811D+06 0.19020811D+06 0.10995037D+01  1  2  3  1  7  1        2 -.162678643119D-04 0.100000000000D+01
0.647815777211D-06 0.000000000000D+00 0.000000000000D+00 0.767087735711D-07 0.000000000000D+00  7 2 -2 23 -13 13 23 21 2 0.30483380D+00 0.16701048D-01 0.19020811D+06 0.19020811D+06 0.19020811D+06 0.10995037D+01  1  2 15  1  7  1        2 0.189345960113D-04 0.100000000000D+01
-.263463132681D-05 0.000000000000D+00 -.233679310283D-05 0.767087735711D-07 0.000000000000D+00  7 2 -2 23 -13 13 23 21 2 0.76576387D+00 0.16701048D-01 0.19020811D+06 0.19020811D+06 0.19020811D+06 0.10995037D+01  1  2  5  1  7  1        2 -.400953489205D-06 0.100000000000D+01
-.123298725630D-06 0.000000000000D+00 -.237115232037D-06 0.767087735711D-07 0.000000000000D+00  7 21 -2 23 -13 13 23 -2 2 0.76576387D+00 0.16701048D-01 0.19020811D+06 0.19020811D+06 0.19020811D+06 0.10995037D+01  1  2  5  3  7  1        2 -.129777335650D-09 0.100000000000D+01
  </mgrwgt>
  </event>
  <event>
  8     66 0.55102590E-06 0.23575189E+03 0.75467711E-02 0.81558548E-01
        2 -1    0    0  501    0 0.00000000E+00 0.00000000E+00 0.49162440E+03 0.49162451E+03 0.32000000E+00 0.0000E+00 0.9000E+01
       -2 -1    0    0    0  501 0.00000000E+00 0.00000000E+00 -.14296083E+03 0.14296119E+03 0.32000000E+00 0.0000E+00 0.9000E+01
       25  2    1    2    0    0 0.63913345E+02 0.12696094E+03 0.12584323E+03 0.35494165E+03 0.29990508E+03 0.0000E+00 0.0000E+00
       23  2    1    2    0    0 -.63913345E+02 -.12696094E+03 0.22282034E+03 0.27964405E+03 0.91366819E+02 0.0000E+00 0.0000E+00
       23  1    3    3    0    0 0.13178548E+03 0.45212418E+02 0.13537596E+03 0.21460074E+03 0.91188000E+02 0.0000E+00 0.9000E+01
      -11  1    4    4    0    0 0.47462651E+01 0.10386994E+02 0.35601130E+01 0.11962068E+02 0.51099893E-03 0.0000E+00 0.9000E+01
       11  1    4    4    0    0 -.68659610E+02 -.13734793E+03 0.21926023E+03 0.26768198E+03 0.51099893E-03 0.0000E+00 0.9000E+01
       23  1    3    3    0    0 -.67872135E+02 0.81748520E+02 -.95327248E+01 0.14034091E+03 0.91188000E+02 0.0000E+00 0.9000E+01
#aMCatNLO 1  0  0  1  1 0.18800261D+04 0.00000000D+00  -5  7  0 0.00000000D+00 0.00000000D+00 0.00000000D+00 0.00000000D+00 0.00000000D+00
  <mgrwgt>
 0.2653694031D-03    5    2    0
 0.265109752285668D+03 0.000000000000000D+00 0.000000000000000D+00 0.265109752285668D+03
 0.265109752285668D+03 0.000000000000000D+00 0.000000000000000D+00 -.265109752285668D+03
 0.167820861284430D+03 0.131785479140372D+03 0.452124179933729D+02 0.209049009847670D+02
 0.119755605176942D+02 0.474626507426075D+01 0.103869938723380D+02 -.360518735349801D+01
 0.176189489982281D+03 -.686596096402387D+02 -.137347932309791D+03 0.863952537729452D+02
 0.174233592786930D+03 -.678721345743943D+02 0.817485204440798D+02 -.103694967404214D+03
 0.000000000000000D+00 0.000000000000000D+00 0.000000000000000D+00 0.000000000000000D+00
 0.350484075645881D+04 0.000000000000000D+00 0.000000000000000D+00 0.350484075645881D+04
 0.132619504267920D+04 0.000000000000000D+00 0.000000000000000D+00 -.132619504267920D+04
 0.124251185610512D+03 -.771860103765734D+02 -.269890848044623D+02 0.209049009847670D+02
 0.161850266286229D+02 -.154020507409613D+02 0.342557208189581D+01 -.360518735349801D+01
 0.103823455726274D+04 -.937554818051860D+03 -.437558932222628D+03 0.863952537729452D+02
 0.774693193644310D+03 -.746809561525056D+03 -.152830381418790D+03 -.103694967404214D+03
 0.287767183599182D+04 0.177695244069445D+04 0.613952826363984D+03 0.217864571377961D+04
0.202881805666D-05 0.000000000000D+00 0.000000000000D+00 0.424134156309D-06 0.000000000000D+00  7 2 -2 23 -11 11 23 21 0 0.75634559D-01 0.21994010D-01 0.55578952D+05 0.55578952D+05 0.55578952D+05 0.11432763D+01  1  2  2  1  7  1        2 0.262186647358D-03 0.100000000000D+01
-.110824463042D-06 0.000000000000D+00 -.779119553762D-08 0.424134156309D-06 0.000000000000D+00  7 2 -2 23 -11 11 23 21 2 0.75634559D-01 0.21994010D-01 0.55578952D+05 0.55578952D+05 0.55578952D+05 0.11432763D+01  1  2  3  1  7  1        2 -.187199850501D-04 0.100000000000D+01
0.129666740972D-06 0.000000000000D+00 0.000000000000D+00 0.424134156309D-06 0.000000000000D+00  7 2 -2 23 -11 11 23 21 2 0.75634559D-01 0.21994010D-01 0.55578952D+05 0.55578952D+05 0.55578952D+05 0.11432763D+01  1  2 15  1  7  1        2 0.219027404768D-04 0.100000000000D+01
0.434855425383D-05 0.000000000000D+00 -.186356846239D-05 0.424134156309D-06 0.000000000000D+00  7 2 -2 23 -11 11 23 21 2 0.99996898D+00 0.21994010D-01 0.55578952D+05 0.55578952D+05 0.55578952D+05 0.11432763D+01  1  2  5  1  7  1        2 0.296637530899D-12 0.100000000000D+01
0.909638734122D-06 0.000000000000D+00 -.552490789830D-06 0.424134156309D-06 0.000000000000D+00  7 21 -2 23 -11 11 23 -2 2 0.99996898D+00 0.21994010D-01 0.55578952D+05 0.55578952D+05 0.55578952D+05 0.11432763D+01  1  2  5  3  7  1        2 -.379190098259D-17 0.100000000000D+01
  </mgrwgt>
  </event>
  <event>
  8     66 0.55102590E-06 0.45801583E+03 0.75467711E-02 0.91152922E-01
        2 -1    0    0  501    0 0.00000000E+00 0.00000000E+00 0.37025520E+03 0.37025534E+03 0.32000000E+00 0.0000E+00 0.9000E+01
       -2 -1    0    0    0  501 0.00000000E+00 0.00000000E+00 -.64486504E+03 0.64486512E+03 0.32000000E+00 0.0000E+00 0.9000E+01
       25  2    1    2    0    0 0.39548722E+03 0.13334096E+03 -.12782522E+02 0.51386795E+03 0.29951114E+03 0.0000E+00 0.0000E+00
       23  2    1    2    0    0 -.39548722E+03 -.13334096E+03 -.26182732E+03 0.50125251E+03 0.92252760E+02 0.0000E+00 0.0000E+00
       23  1    3    3    0    0 0.35854356E+03 0.12854386E+03 -.73024460E+02 0.39840286E+03 0.91188000E+02 0.0000E+00 0.9000E+01
      -11  1    4    4    0    0 -.36399775E+03 -.14566072E+03 -.22856414E+03 0.45382042E+03 0.51099893E-03 0.0000E+00 0.9000E+01
       11  1    4    4    0    0 -.31489472E+02 0.12319759E+02 -.33263184E+02 0.47432085E+02 0.51099893E-03 0.0000E+00 0.9000E+01
       23  1    3    3    0    0 0.36943660E+02 0.47970958E+01 0.60241938E+02 0.11546510E+03 0.91188000E+02 0.0000E+00 0.9000E+01
#aMCatNLO 1  0  0  1  1 0.38221082D+03 0.00000000D+00  -5  7  0 0.00000000D+00 0.00000000D+00 0.00000000D+00 0.00000000D+00 0.00000000D+00
  <mgrwgt>
 0.2950309917D-03    5    2    0
 0.488635594830870D+03 0.000000000000000D+00 0.000000000000000D+00 0.488635594830870D+03
 0.488635594830870D+03 0.000000000000000D+00 0.000000000000000D+00 -.488635594830870D+03
 0.393313194294086D+03 0.358543563348777D+03 0.128543864273893D+03 0.360971688711738D+02
 0.407170941712032D+03 -.363997751549738D+03 -.145660719363550D+03 -.109894346878676D+03
 0.399222681593386D+02 -.314894722506844D+02 0.123197593056370D+02 -.212231986988457D+02
 0.136864785496284D+03 0.369436604516457D+02 0.479709578401999D+01 0.950203767063476D+02
 0.000000000000000D+00 0.000000000000000D+00 0.000000000000000D+00 0.000000000000000D+00
 0.778241995088253D+03 0.000000000000000D+00 0.000000000000000D+00 0.778241995088253D+03
 0.668708332398438D+03 0.000000000000000D+00 0.000000000000000D+00 -.668708332398438D+03
 0.275987273809692D+03 0.249788699011614D+03 0.644695603093203D+02 0.360971688711738D+02
 0.588776140542555D+03 -.525829537092126D+03 -.241005962826184D+03 -.109894346878676D+03
 0.510319750441930D+02 -.462686586578208D+02 0.361241469193637D+01 -.212231986988457D+02
 0.133558740945122D+03 -.699755180394176D+01 -.210914252287751D+02 0.950203767063476D+02
 0.397596197145129D+03 0.329307048542274D+03 0.194015413053702D+03 0.109533662689815D+03
0.374687260701D-04 0.000000000000D+00 0.000000000000D+00 0.507641753876D-06 0.000000000000D+00  7 2 -2 23 -11 11 23 21 0 0.56962355D-01 0.99210023D-01 0.20977850D+06 0.20977850D+06 0.20977850D+06 0.10962367D+01  1  2  2  1  7  1        2 0.339328073612D-03 0.100000000000D+01
-.207099690525D-05 0.000000000000D+00 -.143889773851D-06 0.507641753876D-06 0.000000000000D+00  7 2 -2 23 -11 11 23 21 2 0.56962355D-01 0.99210023D-01 0.20977850D+06 0.20977850D+06 0.20977850D+06 0.10962367D+01  1  2  3  1  7  1        2 -.225392267645D-04 0.100000000000D+01
0.239849364185D-05 0.000000000000D+00 0.000000000000D+00 0.507641753876D-06 0.000000000000D+00  7 2 -2 23 -11 11 23 21 2 0.56962355D-01 0.99210023D-01 0.20977850D+06 0.20977850D+06 0.20977850D+06 0.10962367D+01  1  2 15  1  7  1        2 0.261034634816D-04 0.100000000000D+01
-.100445615889D-04 0.000000000000D+00 -.120814820542D-04 0.507641753876D-06 0.000000000000D+00  7 2 -2 23 -11 11 23 21 2 0.11714330D+00 0.99210023D-01 0.20977850D+06 0.20977850D+06 0.20977850D+06 0.10962367D+01  1  2  5  1  7  1        2 -.476393906578D-04 0.100000000000D+01
-.436721532379D-07 0.000000000000D+00 -.941919673644D-06 0.507641753876D-06 0.000000000000D+00  7 21 -2 23 -11 11 23 -2 2 0.11714330D+00 0.99210023D-01 0.20977850D+06 0.20977850D+06 0.20977850D+06 0.10962367D+01  1  2  5  3  7  1        2 -.221927996913D-06 0.100000000000D+01
  </mgrwgt>
  </event>
  <event>
  8     66 0.55102590E-06 0.90687907E+02 0.75467711E-02 0.99032777E-01
        2 -1    0    0  501    0 0.00000000E+00 0.00000000E+00 0.55945548E+03 0.55945557E+03 0.32000000E+00 0.0000E+00 0.9000E+01
       -2 -1    0    0    0  501 0.00000000E+00 0.00000000E+00 -.23184839E+03 0.23184861E+03 0.32000000E+00 0.0000E+00 0.9000E+01
       25  2    1    2    0    0 0.70837830E+02 -.26609569E+03 0.92633998E+02 0.41799723E+03 0.30052573E+03 0.0000E+00 0.0000E+00
       23  2    1    2    0    0 -.70837830E+02 0.26609569E+03 0.23497309E+03 0.37330695E+03 0.91218490E+02 0.0000E+00 0.0000E+00
       23  1    3    3    0    0 -.36297638E+02 -.95048272E+02 0.13548780E+03 0.19241592E+03 0.91188000E+02 0.0000E+00 0.9000E+01
      -11  1    4    4    0    0 -.38968428E+00 -.61623403E+01 -.92544080E+00 0.62436154E+01 0.51099893E-03 0.0000E+00 0.9000E+01
       11  1    4    4    0    0 -.70448146E+02 0.27225803E+03 0.23589853E+03 0.36706333E+03 0.51099893E-03 0.0000E+00 0.9000E+01
       23  1    3    3    0    0 0.10713547E+03 -.17104741E+03 -.42853800E+02 0.22558131E+03 0.91188000E+02 0.0000E+00 0.9000E+01
#aMCatNLO 1  0  0  2  1 0.45313295D+02 0.00000000D+00  -5  7  0 0.00000000D+00 0.00000000D+00 0.00000000D+00 0.00000000D+00 0.00000000D+00
  <mgrwgt>
 0.2933925807D-03    9    2    0
 0.360151322664277D+03 0.000000000000000D+00 0.000000000000000D+00 0.360151322664277D+03
 0.360151322664277D+03 0.000000000000000D+00 0.000000000000000D+00 -.360151322664277D+03
 0.149760328704055D+03 -.362976377441792D+02 -.950482722535510D+02 0.613287220260933D+02
 0.727996758679668D+01 -.389684280615919D+00 -.616234033122350D+01 -.385637600195146D+01
 0.295954376225369D+03 -.704481462187879D+02 0.272258027085025D+03 0.922042200175967D+02
 0.267307972812334D+03 0.107135468243583D+03 -.171047414500251D+03 -.149676566041739D+03
 0.000000000000000D+00 0.000000000000000D+00 -.000000000000000D+00 -.000000000000000D+00
 0.366165280753463D+03 0.000000000000000D+00 0.000000000000000D+00 0.366165280753463D+03
 0.457680042169131D+03 0.000000000000000D+00 0.000000000000000D+00 -.457680042169131D+03
 0.146579196459380D+03 -.417963828874165D+02 -.875331921207735D+02 0.613287220260933D+02
 0.699597544866239D+01 -.654582364623001D+00 -.580030676238629D+01 -.385637600195146D+01
 0.312978821419524D+03 -.817472412728788D+02 0.287700387577727D+03 0.922042200175967D+02
 0.255172544606249D+03 0.974405508814558D+02 -.157797467656170D+03 -.149676566041739D+03
 0.102118784988778D+03 0.267576556434625D+02 -.365694210383977D+02 -.915147614156676D+02
0.485710839803D-05 0.000000000000D+00 0.000000000000D+00 0.511250948985D-06 0.000000000000D+00  7 2 -2 23 -11 11 23 21 0 0.86070098D-01 0.35669007D-01 0.10416752D+06 0.10416752D+06 0.10416752D+06 0.11202698D+01  1  2  2  2  7  2       -2 0.234589162333D-03 0.100000000000D+01
-.265895001066D-06 0.000000000000D+00 -.186525751545D-07 0.511250948985D-06 0.000000000000D+00  7 2 -2 23 -11 11 23 21 2 0.86070098D-01 0.35669007D-01 0.10416752D+06 0.10416752D+06 0.10416752D+06 0.11202698D+01  1  2  3  2  7  2       -2 -.161170509184D-04 0.100000000000D+01
0.309401902184D-06 0.000000000000D+00 0.000000000000D+00 0.511250948985D-06 0.000000000000D+00  7 2 -2 23 -11 11 23 21 2 0.86070098D-01 0.35669007D-01 0.10416752D+06 0.10416752D+06 0.10416752D+06 0.11202698D+01  1  2 15  2  7  2       -2 0.187541931655D-04 0.100000000000D+01
0.230039949215D-04 0.000000000000D+00 0.000000000000D+00 0.511250948985D-06 0.000000000000D+00  7 2 -2 23 -11 11 23 21 2 0.86070098D-01 0.45569948D-01 0.11903727D+06 0.11903727D+06 0.11903727D+06 0.11155638D+01  1  2 12  2  7  2       -2 0.873923604229D-03 0.100000000000D+01
-.229125253836D-04 0.000000000000D+00 0.000000000000D+00 0.511250948985D-06 0.000000000000D+00  7 2 -2 23 -11 11 23 21 2 0.86070098D-01 0.35669007D-01 0.10416752D+06 0.10416752D+06 0.10416752D+06 0.11202698D+01  1  2  4  2  7  2       -2 -.138882768309D-02 0.100000000000D+01
-.277748467472D-04 0.000000000000D+00 -.288488087336D-05 0.511250948985D-06 0.000000000000D+00  7 2 -2 23 -11 11 23 21 2 0.86070098D-01 0.45807310D-01 0.10416752D+06 0.10416752D+06 0.10416752D+06 0.11202698D+01  1  2  5  2  7  2       -2 -.105567532361D-02 0.100000000000D+01
0.277128296256D-04 0.000000000000D+00 0.279690719300D-05 0.511250948985D-06 0.000000000000D+00  7 2 -2 23 -11 11 23 21 2 0.86070098D-01 0.35669007D-01 0.10416752D+06 0.10416752D+06 0.10416752D+06 0.11202698D+01  1  2  6  2  7  2       -2 0.167979497312D-02 0.100000000000D+01
0.766916859188D-06 0.000000000000D+00 0.000000000000D+00 0.511250948985D-06 0.000000000000D+00  7 2 21 23 -11 11 23 2 2 0.86070098D-01 0.45569948D-01 0.11903727D+06 0.11903727D+06 0.11903727D+06 0.11155638D+01  1  2 12  4  7  2       -2 0.317555517643D-03 0.100000000000D+01
-.892040160452D-06 0.000000000000D+00 -.976802275387D-07 0.511250948985D-06 0.000000000000D+00  7 2 21 23 -11 11 23 2 2 0.86070098D-01 0.45807310D-01 0.10416752D+06 0.10416752D+06 0.10416752D+06 0.11202698D+01  1  2  5  4  7  2       -2 -.370604812155D-03 0.100000000000D+01
  </mgrwgt>
  </event>
  <event>
  9     66 0.55102590E-06 0.36466689E+03 0.75467711E-02 0.96957522E-01
        2 -1    0    0  501    0 0.00000000E+00 0.00000000E+00 0.97069087E+03 0.97069092E+03 0.32000000E+00 0.0000E+00 0.9000E+01
       -2 -1    0    0    0  502 0.00000000E+00 0.00000000E+00 -.22173492E+03 0.22173515E+03 0.32000000E+00 0.0000E+00 0.9000E+01
       25  2    1    2    0    0 0.80120617E+02 0.33548372E+03 0.48567080E+03 0.66651092E+03 0.29898501E+03 0.0000E+00 0.0000E+00
       23  2    1    2    0    0 -.14806403E+03 -.28688634E+03 0.11260129E+03 0.35362413E+03 0.90245473E+02 0.0000E+00 0.0000E+00
       23  1    3    3    0    0 -.51263140E+01 0.69510958E+02 0.20903139E+02 0.11666295E+03 0.91188000E+02 0.0000E+00 0.9000E+01
      -13  1    4    4    0    0 -.19358182E+01 -.34044049E+02 0.40270301E+02 0.52767916E+02 0.10565837E+00 0.0000E+00 0.9000E+01
       13  1    4    4    0    0 -.14612821E+03 -.25284229E+03 0.72330993E+02 0.30085621E+03 0.10565837E+00 0.0000E+00 0.9000E+01
       23  1    3    3    0    0 0.85246931E+02 0.26597277E+03 0.46476767E+03 0.54984797E+03 0.91188000E+02 0.0000E+00 0.9000E+01
       21  1    1    2  501  502 0.67943411E+02 -.48597384E+02 0.15068385E+03 0.17229102E+03 0.75000000E+00 0.0000E+00 0.9000E+01
#aMCatNLO 2  0  0  2  1 0.83534501D+02 0.00000000D+00  -5  7  0 0.00000000D+00 0.00000000D+00 0.00000000D+00 0.00000000D+00 0.00000000D+00
  <mgrwgt>
 0.5771664926D-04    1    2    0
 0.411025547618923D+03 0.000000000000000D+00 0.000000000000000D+00 0.411025547618923D+03
 0.411025547618923D+03 0.000000000000000D+00 0.000000000000000D+00 -.411025547618923D+03
 0.125028547144994D+03 0.534037660103908D+01 0.620245249954608D+02 -.586628070759870D+02
 0.380273285927470D+02 0.111530493010687D+01 -.362259622527517D+02 0.115114496774227D+02
 0.323580494361207D+03 -.119638831633216D+03 -.271789594229214D+03 -.128535219940689D+03
 0.335414725138900D+03 0.113183150102070D+03 0.245991031486505D+03 0.175686577339253D+03
 0.000000000000000D+00 0.000000000000000D+00 -.000000000000000D+00 0.000000000000000D+00
 0.495588805284828D+03 0.000000000000000D+00 0.000000000000000D+00 0.495588805284828D+03
 0.434301428229036D+03 0.000000000000000D+00 0.000000000000000D+00 -.434301428229036D+03
 0.128897744920550D+03 -.512631401914833D+01 0.695109579285572D+02 -.586628070759870D+02
 0.359894006284874D+02 -.193562059310314D+01 -.340437491595959D+02 0.115114496774227D+02
 0.319067687959802D+03 -.146128407199671D+03 -.252842590051794D+03 -.128535219940689D+03
 0.342329630826770D+03 0.852469311474777D+02 0.265972765656088D+03 0.175686577339253D+03
 0.103605769178256D+03 0.679434106644444D+02 -.485973843732552D+02 0.612873770557925D+02
0.180528795765D-05 0.000000000000D+00 0.000000000000D+00 0.143269540496D-06 0.136090596744D-09  7 2 -2 23 -13 13 23 21 2 0.14933662D+00 0.34112983D-01 0.16738315D+06 0.16738315D+06 0.16738315D+06 0.11038135D+01  1  2  1  2  7  2       -2 0.577166492617D-04 0.100000000000D+01
  </mgrwgt>
  </event>
  <event>
  8     66 0.55102590E-06 0.53928917E+03 0.75467711E-02 0.91497845E-01
        2 -1    0    0  501    0 0.00000000E+00 0.00000000E+00 0.40315206E+03 0.40315218E+03 0.32000000E+00 0.0000E+00 0.9000E+01
       -2 -1    0    0    0  501 0.00000000E+00 0.00000000E+00 -.75076262E+03 0.75076269E+03 0.32000000E+00 0.0000E+00 0.9000E+01
       25  2    1    2    0    0 0.45736260E+03 0.20061263E+03 -.26509975E+03 0.63922109E+03 0.29816060E+03 0.0000E+00 0.0000E+00
       23  2    1    2    0    0 -.45736260E+03 -.20061263E+03 -.82510812E+02 0.51469378E+03 0.93143308E+02 0.0000E+00 0.0000E+00
       23  1    3    3    0    0 0.11696527E+03 0.16698134E+03 -.65103307E+02 0.23263132E+03 0.91188000E+02 0.0000E+00 0.9000E+01
      -11  1    4    4    0    0 -.28278606E+03 -.10123044E+03 -.90364055E+02 0.31365781E+03 0.51099893E-03 0.0000E+00 0.9000E+01
       11  1    4    4    0    0 -.17457654E+03 -.99382192E+02 0.78532425E+01 0.20103597E+03 0.51099893E-03 0.0000E+00 0.9000E+01
       23  1    3    3    0    0 0.34039733E+03 0.33631297E+02 -.19999644E+03 0.40658976E+03 0.91188000E+02 0.0000E+00 0.9000E+01
#aMCatNLO 1  0  0  1  2 0.22809662D+03 0.00000000D+00  -5  7  0 0.00000000D+00 0.00000000D+00 0.00000000D+00 0.00000000D+00 0.00000000D+00
  <mgrwgt>
 0.1486089280D-03    4    2    0
 0.550155982501712D+03 0.000000000000000D+00 0.000000000000000D+00 0.550155982501712D+03
 0.550155982501712D+03 0.000000000000000D+00 0.000000000000000D+00 -.550155982501712D+03
 0.223396777005562D+03 0.116965271800732D+03 0.166981335081551D+03 0.521800339557513D+01
 0.300390178766560D+03 -.282786060179499D+03 -.101230440305348D+03 0.432453733343304D+01
 0.213310657644240D+03 -.174576542349050D+03 -.993821918690665D+02 0.717471077143095D+02
 0.363214351587061D+03 0.340397330727817D+03 0.336312970928636D+02 -.812896484433176D+02
 0.000000000000000D+00 0.000000000000000D+00 0.000000000000000D+00 -.000000000000000D+00
 0.656113513193301D+03 0.000000000000000D+00 0.000000000000000D+00 0.656113513193301D+03
 0.699842715707833D+03 0.000000000000000D+00 0.000000000000000D+00 -.699842715707833D+03
 0.197125690302564D+03 0.748121965674113D+02 0.157858145556652D+03 0.521800339557513D+01
 0.368511325453775D+03 -.349836592845620D+03 -.115742186218844D+03 0.432453733343304D+01
 0.257574949149603D+03 -.221778007080600D+03 -.109598004267455D+03 0.717471077143095D+02
 0.300493729614348D+03 0.273867385588533D+03 0.192322219310346D+02 -.812896484433176D+02
 0.232250534380844D+03 0.222935017770276D+03 0.482498229986129D+02 -.437292025145321D+02
0.412934062806D-04 0.000000000000D+00 0.000000000000D+00 0.444598100995D-07 0.000000000000D+00  7 2 -2 23 -11 11 23 21 0 0.62023408D-01 0.11550196D+00 0.29083280D+06 0.29083280D+06 0.29083280D+06 0.10855504D+01  1  2  2  1  7  1        2 0.231884980496D-03 0.100000000000D+01
-.229296800036D-05 0.000000000000D+00 -.158577552921D-06 0.444598100995D-07 0.000000000000D+00  7 2 -2 23 -11 11 23 21 2 0.62023408D-01 0.11550196D+00 0.29083280D+06 0.29083280D+06 0.29083280D+06 0.10855504D+01  1  2  3  1  7  1        2 -.151736446782D-04 0.100000000000D+01
0.263199358015D-05 0.000000000000D+00 0.000000000000D+00 0.444598100995D-07 0.000000000000D+00  7 2 -2 23 -11 11 23 21 2 0.62023408D-01 0.11550196D+00 0.29083280D+06 0.29083280D+06 0.29083280D+06 0.10855504D+01  1  2 15  1  7  1        2 0.174171359453D-04 0.100000000000D+01
-.129233009924D-04 0.000000000000D+00 0.000000000000D+00 0.444598100995D-07 0.000000000000D+00  7 2 -2 23 -11 11 23 21 2 0.62023408D-01 0.11550196D+00 0.29083280D+06 0.29083280D+06 0.29083280D+06 0.10855504D+01  1  2  4  1  7  1        2 -.855195437952D-04 0.100000000000D+01
  </mgrwgt>
  </event>
  <event>
  8     66 0.55102590E-06 0.22008968E+03 0.75467711E-02 0.97384728E-01
        2 -1    0    0  501    0 0.00000000E+00 0.00000000E+00 0.57978420E+03 0.57978429E+03 0.32000000E+00 0.0000E+00 0.9000E+01
       -2 -1    0    0    0  501 0.00000000E+00 0.00000000E+00 -.21858096E+03 0.21858120E+03 0.32000000E+00 0.0000E+00 0.9000E+01
       25  2    1    2    0    0 0.65041031E+02 0.26642733E+03 0.12695265E+03 0.42558779E+03 0.29965669E+03 0.0000E+00 0.0000E+00
       23  2    1    2    0    0 -.65041031E+02 -.26642733E+03 0.23425058E+03 0.37277770E+03 0.94212631E+02 0.0000E+00 0.0000E+00
       23  1    3    3    0    0 -.16789223E+02 0.59758505E+02 -.55898225E+02 0.12366414E+03 0.91188000E+02 0.0000E+00 0.9000E+01
      -11  1    4    4    0    0 -.42330075E+02 -.11348210E+03 0.16156334E+03 0.20192260E+03 0.51099893E-03 0.0000E+00 0.9000E+01
       11  1    4    4    0    0 -.22710956E+02 -.15294523E+03 0.72687243E+02 0.17085510E+03 0.51099893E-03 0.0000E+00 0.9000E+01
       23  1    3    3    0    0 0.81830254E+02 0.20666882E+03 0.18285088E+03 0.30192365E+03 0.91188000E+02 0.0000E+00 0.9000E+01
#aMCatNLO 1  0  0  2  1 0.14430156D+03 0.00000000D+00  -5  7  0 0.00000000D+00 0.00000000D+00 0.00000000D+00 0.00000000D+00 0.00000000D+00
  <mgrwgt>
 0.2203949858D-03    9    2    0
 0.355991456479346D+03 0.000000000000000D+00 0.000000000000000D+00 0.355991456479346D+03
 0.355991456479346D+03 0.000000000000000D+00 0.000000000000000D+00 -.355991456479346D+03
 0.167026201660185D+03 -.167892229444808D+02 0.597585046347029D+02 -.125417478103228D+03
 0.144456879599385D+03 -.423300747092442D+02 -.113482098960098D+03 0.787259045950657D+02
 0.154708696471865D+03 -.227109560017024D+02 -.152945228338898D+03 -.517207597340730D+01
 0.245791135227257D+03 0.818302536554273D+02 0.206668822664293D+03 0.518636494815694D+02
 0.000000000000000D+00 0.000000000000000D+00 -.000000000000000D+00 -.000000000000000D+00
 0.425989232136305D+03 0.000000000000000D+00 0.000000000000000D+00 0.425989232136305D+03
 0.446176498171836D+03 0.000000000000000D+00 0.000000000000000D+00 -.446176498171836D+03
 0.182824773133319D+03 -.318102620006187D+02 0.914779194392179D+02 -.125417478103228D+03
 0.130278841343379D+03 -.541260000938548D+02 -.885730464718363D+02 0.787259045950657D+02
 0.131808620851116D+03 -.350127305395856D+02 -.126967991481952D+03 -.517207597340730D+01
 0.281546716064018D+03 0.591887204577523D+02 0.254480174503751D+03 0.518636494815694D+02
 0.145706778916309D+03 0.617602721763069D+02 -.130417055989181D+03 -.201872660355314D+02
0.321039560220D-05 0.000000000000D+00 0.000000000000D+00 0.750684674235D-07 0.000000000000D+00  7 2 -2 23 -11 11 23 21 0 0.89197594D-01 0.33627865D-01 0.98065654D+05 0.98065654D+05 0.98065654D+05 0.11224188D+01  1  2  2  2  7  2       -2 0.165658686284D-03 0.100000000000D+01
-.174790679285D-06 0.000000000000D+00 -.123287644290D-07 0.750684674235D-07 0.000000000000D+00  7 2 -2 23 -11 11 23 21 2 0.89197594D-01 0.33627865D-01 0.98065654D+05 0.98065654D+05 0.98065654D+05 0.11224188D+01  1  2  3  2  7  2       -2 -.113627598847D-04 0.100000000000D+01
0.203833462793D-06 0.000000000000D+00 0.000000000000D+00 0.750684674235D-07 0.000000000000D+00  7 2 -2 23 -11 11 23 21 2 0.89197594D-01 0.33627865D-01 0.98065654D+05 0.98065654D+05 0.98065654D+05 0.11224188D+01  1  2 15  2  7  2       -2 0.132507677391D-04 0.100000000000D+01
0.118400380310D-05 0.000000000000D+00 0.000000000000D+00 0.750684674235D-07 0.000000000000D+00  7 2 -2 23 -11 11 23 21 2 0.89197594D-01 0.44737419D-01 0.15585240D+06 0.15585240D+06 0.15585240D+06 0.11062426D+01  1  2 12  2  7  2       -2 0.438052273001D-04 0.100000000000D+01
-.150384823989D-05 0.000000000000D+00 0.000000000000D+00 0.750684674235D-07 0.000000000000D+00  7 2 -2 23 -11 11 23 21 2 0.89197594D-01 0.33627865D-01 0.98065654D+05 0.98065654D+05 0.98065654D+05 0.11224188D+01  1  2  4  2  7  2       -2 -.977618859465D-04 0.100000000000D+01
-.268764781840D-05 0.000000000000D+00 -.136349531385D-05 0.750684674235D-07 0.000000000000D+00  7 2 -2 23 -11 11 23 21 2 0.89197594D-01 0.49751019D-01 0.98065654D+05 0.98065654D+05 0.98065654D+05 0.11224188D+01  1  2  5  2  7  2       -2 -.839744661279D-04 0.100000000000D+01
0.308065248144D-05 0.000000000000D+00 0.126520103210D-05 0.750684674235D-07 0.000000000000D+00  7 2 -2 23 -11 11 23 21 2 0.89197594D-01 0.33627865D-01 0.98065654D+05 0.98065654D+05 0.98065654D+05 0.11224188D+01  1  2  6  2  7  2       -2 0.200266482044D-03 0.100000000000D+01
0.441506270133D-07 0.000000000000D+00 0.000000000000D+00 0.750684674235D-07 0.000000000000D+00  7 2 21 23 -11 11 23 2 2 0.89197594D-01 0.44737419D-01 0.15585240D+06 0.15585240D+06 0.15585240D+06 0.11062426D+01  1  2 12  4  7  2       -2 0.177276080364D-04 0.100000000000D+01
-.807536799073D-07 0.000000000000D+00 -.639100151049D-07 0.750684674235D-07 0.000000000000D+00  7 2 21 23 -11 11 23 2 2 0.89197594D-01 0.49751019D-01 0.98065654D+05 0.98065654D+05 0.98065654D+05 0.11224188D+01  1  2  5  4  7  2       -2 -.272146736931D-04 0.100000000000D+01
  </mgrwgt>
  </event>
  <event>
  8     66 0.55102590E-06 0.41042386E+03 0.75467711E-02 0.89353956E-01
        2 -1    0    0  501    0 0.00000000E+00 0.00000000E+00 0.35603968E+03 0.35603983E+03 0.32000000E+00 0.0000E+00 0.9000E+01
       -2 -1    0    0    0  501 0.00000000E+00 0.00000000E+00 -.15180690E+04 0.15180690E+04 0.32000000E+00 0.0000E+00 0.9000E+01
       25  2    1    2    0    0 -.16690523E+03 -.34889319E+03 -.13495423E+04 0.14354442E+04 0.29941900E+03 0.0000E+00 0.0000E+00
       23  2    1    2    0    0 0.16690523E+03 0.34889319E+03 0.18751302E+03 0.43866465E+03 0.87645487E+02 0.0000E+00 0.0000E+00
       23  1    3    3    0    0 -.76060090E+02 -.19200456E+03 -.10475584E+04 0.10716085E+04 0.91188000E+02 0.0000E+00 0.9000E+01
      -13  1    4    4    0    0 0.70949948E+02 0.81436480E+02 0.81801379E+02 0.13548901E+03 0.10565837E+00 0.0000E+00 0.9000E+01
       13  1    4    4    0    0 0.95955278E+02 0.26745671E+03 0.10571165E+03 0.30317564E+03 0.10565837E+00 0.0000E+00 0.9000E+01
       23  1    3    3    0    0 -.90845136E+02 -.15688862E+03 -.30198390E+03 0.36383568E+03 0.91188000E+02 0.0000E+00 0.9000E+01
#aMCatNLO 1  0  0  1  1 0.70249619D+03 0.00000000D+00  -5  7  0 0.00000000D+00 0.00000000D+00 0.00000000D+00 0.00000000D+00 0.00000000D+00
  <mgrwgt>
 0.3377367654D-03    3    2    0
 0.735182266380905D+03 0.000000000000000D+00 0.000000000000000D+00 0.735182266380905D+03
 0.735182266380905D+03 0.000000000000000D+00 0.000000000000000D+00 -.735182266380905D+03
 0.537973666976909D+03 -.760600904786419D+02 -.192004564482305D+03 -.488312937439633D+03
 0.237339957295537D+03 0.709499113824114D+02 0.814362093468598D+02 0.211339795616182D+03
 0.469968267478010D+03 0.959553147886947D+02 0.267456976148443D+03 0.374338771582128D+03
 0.225082641011353D+03 -.908451356924642D+02 -.156888621012997D+03 -.973656297586769D+02
 0.000000000000000D+00 0.000000000000000D+00 0.000000000000000D+00 -.000000000000000D+00
 0.112290636580039D+04 0.000000000000000D+00 0.000000000000000D+00 0.112290636580039D+04
 0.121518708183436D+04 0.000000000000000D+00 0.000000000000000D+00 -.121518708183436D+04
 0.690550731396219D+03 -.250000461470682D+03 -.409384056457229D+03 -.488312937439633D+03
 0.211479101772299D+03 0.740395841156381D+01 0.202056308209794D+01 0.211339795616182D+03
 0.392436073342108D+03 -.261480241324072D+02 0.114860073935754D+03 0.374338771582128D+03
 0.335096228021103D+03 -.170157944156373D+03 -.256008669525358D+03 -.973656297586769D+02
 0.708531313103021D+03 0.438902471347898D+03 0.548512088964735D+03 -.922807160339621D+02
0.381872565610D-03 0.000000000000D+00 0.000000000000D+00 0.205548733991D-06 0.000000000000D+00  7 2 -2 23 -13 13 23 21 0 0.54775349D-01 0.23354909D+00 0.16844774D+06 0.16844774D+06 0.16844774D+06 0.11035985D+01  1  2  2  1  7  1        2 0.326635587010D-03 0.100000000000D+01
-.124500333595D-04 0.000000000000D+00 -.146649120130D-05 0.205548733991D-06 0.000000000000D+00  7 2 -2 23 -13 13 23 21 2 0.54775349D-01 0.23354909D+00 0.16844774D+06 0.16844774D+06 0.16844774D+06 0.11035985D+01  1  2  3  1  7  1        2 -.129699334903D-04 0.100000000000D+01
0.231062207536D-04 0.000000000000D+00 0.000000000000D+00 0.205548733991D-06 0.000000000000D+00  7 2 -2 23 -13 13 23 21 2 0.54775349D-01 0.23354909D+00 0.16844774D+06 0.16844774D+06 0.16844774D+06 0.11035985D+01  1  2 15  1  7  1        2 0.240711119187D-04 0.100000000000D+01
  </mgrwgt>
  </event>
  <event>
  9     66 0.55102590E-06 0.20004882E+03 0.75467711E-02 0.10309125E+00
        2 -1    0    0  501    0 0.00000000E+00 0.00000000E+00 0.22252272E+03 0.22252295E+03 0.32000000E+00 0.0000E+00 0.9000E+01
       21 -1    0    0  502  501 0.00000000E+00 0.00000000E+00 -.35109036E+03 0.35109116E+03 0.75000000E+00 0.0000E+00 0.9000E+01
       25  2    1    2    0    0 0.79080728E+02 -.12711633E+03 -.10335199E+03 0.35124354E+03 0.30046309E+03 0.0000E+00 0.0000E+00
       23  2    1    2    0    0 -.72126283E+02 0.32863864E+02 -.26959009E+02 0.12784527E+03 0.96619829E+02 0.0000E+00 0.0000E+00
       23  1    3    3    0    0 0.22058765E+01 0.23146696E+02 -.12687229E+03 0.15796350E+03 0.91188000E+02 0.0000E+00 0.9000E+01
      -11  1    4    4    0    0 -.91681035E+02 0.43878806E+02 -.16081866E+02 0.10290475E+03 0.51099893E-03 0.0000E+00 0.9000E+01
       11  1    4    4    0    0 0.19554752E+02 -.11014942E+02 -.10877143E+02 0.24940520E+02 0.51099893E-03 0.0000E+00 0.9000E+01
       23  1    3    3    0    0 0.76874852E+02 -.15026302E+03 0.23520303E+02 0.19328004E+03 0.91188000E+02 0.0000E+00 0.9000E+01
        2  1    1    2  502    0 -.69544458E+01 0.94252465E+02 0.17433650E+01 0.94525304E+02 0.32000000E+00 0.0000E+00 0.9000E+01
#aMCatNLO 2  0  0  2  1 0.94508684D+02 0.00000000D+00  -5  7  0 0.00000000D+00 0.00000000D+00 0.00000000D+00 0.00000000D+00 0.00000000D+00
  <mgrwgt>
 0.5148167951D-04    1    2    0
 0.225617619881960D+03 0.000000000000000D+00 0.000000000000000D+00 0.225617619881960D+03
 0.225617619881960D+03 0.000000000000000D+00 0.000000000000000D+00 -.225617619881960D+03
 0.135875868296492D+03 0.192051122810234D+00 0.504397645448304D+02 -.871939992795029D+02
 0.115190801955473D+03 -.933397270063821D+02 0.663587776509552D+02 0.123745240793383D+02
 0.207367072215627D+02 0.192225261693291D+02 -.651237784874630D+01 -.425375702378807D+01
 0.179431862290393D+03 0.739251497142428D+02 -.110286164347039D+03 0.790732322239527D+02
 0.000000000000000D+00 -.000000000000000D+00 0.000000000000000D+00 0.000000000000000D+00
 0.294138383270630D+03 0.000000000000000D+00 0.000000000000000D+00 0.294138383270630D+03
 0.265608763876735D+03 0.000000000000000D+00 0.000000000000000D+00 -.265608763876735D+03
 0.128291387886456D+03 0.220587834540241D+01 0.231466941960304D+02 -.871939992795029D+02
 0.102390873338526D+03 -.916810358151437D+02 0.438788077401643D+02 0.123745240793383D+02
 0.228431947669268D+02 0.195547489975873D+02 -.110149393999096D+02 -.425375702378807D+01
 0.207500717872428D+03 0.768748542858801D+02 -.150263027048421D+03 0.790732322239527D+02
 0.987209732830269D+02 -.695444581372607D+01 0.942524645121364D+02 0.285296193938953D+02
0.607760981467D-07 0.000000000000D+00 0.000000000000D+00 0.699985846826D-08 0.185416842841D-12  7 2 21 23 -11 11 23 2 2 0.34234312D-01 0.54013930D-01 0.63640662D+05 0.63640662D+05 0.63640662D+05 0.11381928D+01  1  2  1  4  7  2       -2 0.514816795119D-04 0.100000000000D+01
  </mgrwgt>
  </event>
  <event>
  8     66 0.55102590E-06 0.11447165E+03 0.75467711E-02 0.10558271E+00
        2 -1    0    0  501    0 0.00000000E+00 0.00000000E+00 0.18961598E+03 0.18961625E+03 0.32000000E+00 0.0000E+00 0.9000E+01
       -2 -1    0    0    0  501 0.00000000E+00 0.00000000E+00 -.27937167E+03 0.27937185E+03 0.32000000E+00 0.0000E+00 0.9000E+01
       25  2    1    2    0    0 -.62096203E+02 -.80248044E+02 -.23950367E+02 0.31734017E+03 0.29972567E+03 0.0000E+00 0.0000E+00
       23  2    1    2    0    0 0.62096203E+02 0.80248044E+02 -.65805324E+02 0.15164793E+03 0.91493538E+02 0.0000E+00 0.0000E+00
       23  1    3    3    0    0 0.51766584E+02 0.43725691E+02 0.31748446E+02 0.11796156E+03 0.91188000E+02 0.0000E+00 0.9000E+01
      -13  1    4    4    0    0 0.47044737E+02 0.74584132E+02 -.45307396E+01 0.88298011E+02 0.10565837E+00 0.0000E+00 0.9000E+01
       13  1    4    4    0    0 0.15051465E+02 0.56639124E+01 -.61274584E+02 0.63349920E+02 0.10565837E+00 0.0000E+00 0.9000E+01
       23  1    3    3    0    0 -.11386279E+03 -.12397373E+03 -.55698813E+02 0.19937861E+03 0.91188000E+02 0.0000E+00 0.9000E+01
#aMCatNLO 1  0  0  2  1 0.12631972D+02 0.00000000D+00  -5  7  0 0.00000000D+00 0.00000000D+00 0.00000000D+00 0.00000000D+00 0.00000000D+00
  <mgrwgt>
 0.1223291768D-03    9    2    0
 0.230159596012925D+03 0.000000000000000D+00 0.000000000000000D+00 0.230159596012925D+03
 0.230159596012925D+03 0.000000000000000D+00 0.000000000000000D+00 -.230159596012925D+03
 0.126373554223705D+03 0.517665792701885D+02 0.437256842010423D+02 0.553471740466103D+02
 0.890774933187319D+02 0.470447846667439D+02 0.745842241223846D+02 0.126008556721490D+02
 0.525952230134147D+02 0.150514303567384D+02 0.566383604434788D+01 -.500762707208696D+02
 0.192272921469998D+03 -.113862794293671D+03 -.123973744367775D+03 -.178717589978897D+02
 0.000000000000000D+00 0.000000000000000D+00 0.000000000000000D+00 -.000000000000000D+00
 0.232669202253929D+03 0.000000000000000D+00 0.000000000000000D+00 0.232669202253929D+03
 0.246710256119896D+03 0.000000000000000D+00 0.000000000000000D+00 -.246710256119896D+03
 0.124915698676109D+03 0.509402994254534D+02 0.403789134479862D+02 0.553471740466103D+02
 0.868145279371923D+02 0.464664231557109D+02 0.722416238494236D+02 0.126008556721490D+02
 0.523651261311883D+02 0.147063036949582D+02 0.426593214398580D+01 -.500762707208696D+02
 0.196397128475010D+03 -.115140804494329D+03 -.129150207510285D+03 -.178717589978897D+02
 0.188869771543244D+02 0.302777821820650D+01 0.122637380688896D+02 -.140410538659673D+02
0.902184050500D-06 0.000000000000D+00 0.000000000000D+00 0.138425902748D-06 0.000000000000D+00  7 2 -2 23 -13 13 23 21 0 0.29171724D-01 0.42980292D-01 0.41884263D+05 0.41884263D+05 0.41884263D+05 0.11541232D+01  1  2  2  2  7  2       -2 0.101646547087D-03 0.100000000000D+01
-.492808355493D-07 0.000000000000D+00 -.346462430443D-08 0.138425902748D-06 0.000000000000D+00  7 2 -2 23 -13 13 23 21 2 0.29171724D-01 0.42980292D-01 0.41884263D+05 0.41884263D+05 0.41884263D+05 0.11541232D+01  1  2  3  2  7  2       -2 -.739571091024D-05 0.100000000000D+01
0.574879542716D-07 0.000000000000D+00 0.000000000000D+00 0.138425902748D-06 0.000000000000D+00  7 2 -2 23 -13 13 23 21 2 0.29171724D-01 0.42980292D-01 0.41884263D+05 0.41884263D+05 0.41884263D+05 0.11541232D+01  1  2 15  2  7  2       -2 0.862737585260D-05 0.100000000000D+01
0.556544309160D-05 0.000000000000D+00 0.000000000000D+00 0.138425902748D-06 0.000000000000D+00  7 2 -2 23 -13 13 23 21 2 0.29171724D-01 0.46294884D-01 0.44395940D+05 0.44395940D+05 0.44395940D+05 0.11518643D+01  1  2 12  2  7  2       -2 0.723314933334D-03 0.100000000000D+01
-.566758881645D-05 0.000000000000D+00 0.000000000000D+00 0.138425902748D-06 0.000000000000D+00  7 2 -2 23 -13 13 23 21 2 0.29171724D-01 0.42980292D-01 0.41884263D+05 0.41884263D+05 0.41884263D+05 0.11541232D+01  1  2  4  2  7  2       -2 -.850550685218D-03 0.100000000000D+01
-.120880548251D-04 0.000000000000D+00 -.153301209267D-05 0.138425902748D-06 0.000000000000D+00  7 2 -2 23 -13 13 23 21 2 0.29171724D-01 0.46448048D-01 0.41884263D+05 0.41884263D+05 0.41884263D+05 0.11541232D+01  1  2  5  2  7  2       -2 -.156684026901D-02 0.100000000000D+01
0.121749399368D-04 0.000000000000D+00 0.152840878668D-05 0.138425902748D-06 0.000000000000D+00  7 2 -2 23 -13 13 23 21 2 0.29171724D-01 0.42980292D-01 0.41884263D+05 0.41884263D+05 0.41884263D+05 0.11541232D+01  1  2  6  2  7  2       -2 0.182712681549D-02 0.100000000000D+01
0.756898566278D-07 0.000000000000D+00 0.000000000000D+00 0.138425902748D-06 0.000000000000D+00  7 2 21 23 -13 13 23 2 2 0.29171724D-01 0.46294884D-01 0.44395940D+05 0.44395940D+05 0.44395940D+05 0.11518643D+01  1  2 12  4  7  2       -2 0.110119544016D-03 0.100000000000D+01
-.153992752384D-06 0.000000000000D+00 -.199269917006D-07 0.138425902748D-06 0.000000000000D+00  7 2 21 23 -13 13 23 2 2 0.29171724D-01 0.46448048D-01 0.41884263D+05 0.41884263D+05 0.41884263D+05 0.11541232D+01  1  2  5  4  7  2       -2 -.223719373870D-03 0.100000000000D+01
  </mgrwgt>
  </event>
  <event>
  9     66 -.55102590E-06 0.25675194E+03 0.75467711E-02 0.10259604E+00
        2 -1    0    0  501    0 0.00000000E+00 0.00000000E+00 0.10370711E+04 0.10370711E+04 0.32000000E+00 0.0000E+00 0.9000E+01
       -2 -1    0    0    0  502 0.00000000E+00 0.00000000E+00 -.81733174E+02 0.81733800E+02 0.32000000E+00 0.0000E+00 0.9000E+01
       25  2    1    2    0    0 0.97567220E+02 0.15144464E+03 0.43098374E+03 0.55467217E+03 0.29909763E+03 0.0000E+00 0.0000E+00
       23  2    1    2    0    0 -.87552712E+02 -.15155754E+03 0.50444656E+03 0.54183526E+03 0.92108392E+02 0.0000E+00 0.0000E+00
       23  1    3    3    0    0 0.89678961E+02 0.19756830E+03 0.23006416E+03 0.32912052E+03 0.91188000E+02 0.0000E+00 0.9000E+01
      -11  1    4    4    0    0 -.15746103E+02 -.39584091E+02 0.26066964E+03 0.26412781E+03 0.51099893E-03 0.0000E+00 0.9000E+01
       11  1    4    4    0    0 -.71806609E+02 -.11197344E+03 0.24377692E+03 0.27770745E+03 0.51099893E-03 0.0000E+00 0.9000E+01
       23  1    3    3    0    0 0.78882589E+01 -.46123657E+02 0.20091958E+03 0.22555165E+03 0.91188000E+02 0.0000E+00 0.9000E+01
       21  1    1    2  501  502 -.10014508E+02 0.11289142E+00 0.19907614E+02 0.22297505E+02 0.75000000E+00 0.0000E+00 0.9000E+01
#aMCatNLO 2  0  0  2  1 0.10015145D+02 0.00000000D+00  -5  7  0 0.00000000D+00 0.00000000D+00 0.00000000D+00 0.00000000D+00 0.00000000D+00
  <mgrwgt>
 -.9067530286D-04    3    2    0
 0.286006294221736D+03 0.000000000000000D+00 0.000000000000000D+00 0.286006294221736D+03
 0.286006294221736D+03 0.000000000000000D+00 0.000000000000000D+00 -.286006294221736D+03
 0.253138358145498D+03 0.852344220669526D+02 0.197618403527569D+03 -.971896954554635D+02
 0.803007684307290D+02 -.171494087029974D+02 -.395682722768188D+02 0.677381946964241D+02
 0.134924361055551D+03 -.741576257180740D+02 -.111946941252318D+03 0.131572070880126D+02
 0.103649100811693D+03 0.607261235411876D+01 -.461031899984321D+02 0.162942936710268D+02
 0.000000000000000D+00 -.000000000000000D+00 0.000000000000000D+00 0.000000000000000D+00
 0.291977767344900D+03 0.000000000000000D+00 0.000000000000000D+00 0.291977767344900D+03
 0.290280444069137D+03 0.000000000000000D+00 0.000000000000000D+00 -.290280444069137D+03
 0.254630394859485D+03 0.896789613428216D+02 0.197568301182259D+03 -.971896954554635D+02
 0.800206415546305D+02 -.157461029674126D+02 -.395840914437055D+02 0.677381946964241D+02
 0.133668819368774D+03 -.718066087786469D+02 -.111973443765901D+03 0.131572070880126D+02
 0.103780401569111D+03 0.788825887598420D+01 -.461236573952426D+02 0.162942936710268D+02
 0.101579540620368D+02 -.100145084727463D+02 0.112891422589885D+00 0.169732327576320D+01
-.112013309679D-05 0.000000000000D+00 0.000000000000D+00 0.676663243508D-07 0.000000000000D+00  7 2 -2 23 -11 11 23 21 2 0.15627895D+00 0.12700838D-01 0.68508233D+05 0.68508233D+05 0.68508233D+05 0.11354558D+01  1  2 13  2  7  2       -2 -.187378433661D-03 0.100000000000D+01
-.254188576292D-05 0.000000000000D+00 0.000000000000D+00 0.676663243508D-07 0.000000000000D+00  7 2 -2 23 -11 11 23 21 2 0.15627895D+00 0.12388650D-01 0.65921560D+05 0.65921560D+05 0.65921560D+05 0.11368826D+01  1  2  8  2  7  2       -2 -.443235166767D-03 0.100000000000D+01
0.327131708512D-05 0.000000000000D+00 0.000000000000D+00 0.676663243508D-07 0.463942519868D-08  7 2 -2 23 -11 11 23 21 2 0.15954187D+00 0.12573789D-01 0.68508233D+05 0.68508233D+05 0.68508233D+05 0.11354558D+01  1  2  1  2  7  2       -2 0.539938297567D-03 0.100000000000D+01
  </mgrwgt>
  </event>
  <event>
  8     66 0.55102590E-06 0.36963114E+03 0.75467711E-02 0.90615519E-01
        2 -1    0    0  501    0 0.00000000E+00 0.00000000E+00 0.39576404E+03 0.39576416E+03 0.32000000E+00 0.0000E+00 0.9000E+01
       -2 -1    0    0    0  501 0.00000000E+00 0.00000000E+00 -.35354204E+03 0.35354219E+03 0.32000000E+00 0.0000E+00 0.9000E+01
       25  2    1    2    0    0 0.16714997E+03 0.25335943E+03 0.68658159E+02 0.43174316E+03 0.29926259E+03 0.0000E+00 0.0000E+00
       23  2    1    2    0    0 -.16714997E+03 -.25335943E+03 -.26436166E+02 0.31756319E+03 0.89539930E+02 0.0000E+00 0.0000E+00
       23  1    3    3    0    0 -.13880741E+01 -.17814443E+02 0.28962783E+02 0.97331266E+02 0.91188000E+02 0.0000E+00 0.9000E+01
      -13  1    4    4    0    0 -.12335449E+03 -.23766379E+03 -.91285760E+01 0.26792489E+03 0.10565837E+00 0.0000E+00 0.9000E+01
       13  1    4    4    0    0 -.43795478E+02 -.15695641E+02 -.17307590E+02 0.49638300E+02 0.10565837E+00 0.0000E+00 0.9000E+01
       23  1    3    3    0    0 0.16853804E+03 0.27117387E+03 0.39695376E+02 0.33441189E+03 0.91188000E+02 0.0000E+00 0.9000E+01
#aMCatNLO 1  0  0  1  2 0.53544109D+03 0.00000000D+00  -5  7  0 0.00000000D+00 0.00000000D+00 0.00000000D+00 0.00000000D+00 0.00000000D+00
  <mgrwgt>
 0.2316305837D-03    5    2    0
 0.374057920575941D+03 0.000000000000000D+00 0.000000000000000D+00 0.374057920575941D+03
 0.374057920575941D+03 0.000000000000000D+00 0.000000000000000D+00 -.374057920575941D+03
 0.958515582588390D+02 -.138807405542345D+01 -.178144427363018D+02 0.235157129821591D+02
 0.268866753762769D+03 -.123354598956800D+03 -.237664097228946D+03 -.242641934439720D+02
 0.506937900499156D+02 -.437953671313742D+02 -.156953323776130D+02 -.201366012278467D+02
 0.332703739080358D+03 0.168538040143598D+03 0.271173872342861D+03 0.208850816896597D+02
 0.000000000000000D+00 -.000000000000000D+00 0.000000000000000D+00 0.000000000000000D+00
 0.745086357138863D+03 0.000000000000000D+00 0.000000000000000D+00 0.745086357138863D+03
 0.711399501671164D+03 0.000000000000000D+00 0.000000000000000D+00 -.711399501671164D+03
 0.125153812518332D+03 0.536165361572235D+02 -.626139260653391D+02 0.235157129821591D+02
 0.369601091204420D+03 0.355495707574160D+02 -.367086425184826D+03 -.242641934439720D+02
 0.451300856333294D+02 -.199463768897015D+02 -.351195667575257D+02 -.201366012278467D+02
 0.380101136240148D+03 0.345943476883910D+03 0.126682858316897D+03 0.208850816896597D+02
 0.536499733213797D+03 -.415163206908848D+03 0.338137059690793D+03 0.336868554676985D+02
0.685478451724D-05 0.000000000000D+00 0.000000000000D+00 0.716866239770D-07 0.000000000000D+00  7 2 -2 23 -13 13 23 21 0 0.60886796D-01 0.54391104D-01 0.13662718D+06 0.13662718D+06 0.13662718D+06 0.11107665D+01  1  2  2  1  7  1        2 0.216976620843D-03 0.100000000000D+01
-.380755737402D-06 0.000000000000D+00 -.263241774524D-07 0.716866239770D-07 0.000000000000D+00  7 2 -2 23 -13 13 23 21 2 0.60886796D-01 0.54391104D-01 0.13662718D+06 0.13662718D+06 0.13662718D+06 0.11107665D+01  1  2  3  1  7  1        2 -.148700053430D-04 0.100000000000D+01
0.437700347168D-06 0.000000000000D+00 0.000000000000D+00 0.716866239770D-07 0.000000000000D+00  7 2 -2 23 -13 13 23 21 2 0.60886796D-01 0.54391104D-01 0.13662718D+06 0.13662718D+06 0.13662718D+06 0.11107665D+01  1  2 15  1  7  1        2 0.170939157619D-04 0.100000000000D+01
0.130441091564D-05 0.000000000000D+00 -.229012805195D-05 0.716866239770D-07 0.000000000000D+00  7 2 -2 23 -13 13 23 21 2 0.19897493D+00 0.54391104D-01 0.13662718D+06 0.13662718D+06 0.13662718D+06 0.11107665D+01  1  2  5  1  7  1        2 0.113152302521D-04 0.100000000000D+01
0.271966967509D-06 0.000000000000D+00 -.313507199139D-06 0.716866239770D-07 0.000000000000D+00  7 21 -2 23 -13 13 23 -2 2 0.19897493D+00 0.54391104D-01 0.13662718D+06 0.13662718D+06 0.13662718D+06 0.11107665D+01  1  2  5  3  7  1        2 0.111482219842D-05 0.100000000000D+01
  </mgrwgt>
  </event>
  <event>
  8     66 0.55102590E-06 0.17436614E+03 0.75467711E-02 0.10216129E+00
        2 -1    0    0  501    0 0.00000000E+00 0.00000000E+00 0.45019730E+03 0.45019741E+03 0.32000000E+00 0.0000E+00 0.9000E+01
       -2 -1    0    0    0  501 0.00000000E+00 0.00000000E+00 -.22965105E+03 0.22965128E+03 0.32000000E+00 0.0000E+00 0.9000E+01
       25  2    1    2    0    0 0.69239687E+02 -.14336393E+03 0.32353613E+03 0.46947967E+03 0.30064628E+03 0.0000E+00 0.0000E+00
       23  2    1    2    0    0 -.69239687E+02 0.14336393E+03 -.10298988E+03 0.21036902E+03 0.91109054E+02 0.0000E+00 0.0000E+00
       23  1    3    3    0    0 0.94606910E+02 0.24745965E+02 0.70106928E+02 0.15097372E+03 0.91188000E+02 0.0000E+00 0.9000E+01
      -13  1    4    4    0    0 0.96892226E+01 0.49255633E+02 -.18937998E+00 0.50200054E+02 0.10565837E+00 0.0000E+00 0.9000E+01
       13  1    4    4    0    0 -.78928910E+02 0.94108294E+02 -.10280050E+03 0.16016897E+03 0.10565837E+00 0.0000E+00 0.9000E+01
       23  1    3    3    0    0 -.25367223E+02 -.16810989E+03 0.25342920E+03 0.31850595E+03 0.91188000E+02 0.0000E+00 0.9000E+01
#aMCatNLO 1  0  0  1  2 0.36608234D+02 0.00000000D+00  -5  7  0 0.00000000D+00 0.00000000D+00 0.00000000D+00 0.00000000D+00 0.00000000D+00
  <mgrwgt>
 0.1597478296D-03    9    2    0
 0.321540664902017D+03 0.000000000000000D+00 0.000000000000000D+00 0.321540664902017D+03
 0.321540664902017D+03 0.000000000000000D+00 0.000000000000000D+00 -.321540664902017D+03
 0.135562112253008D+03 0.946069100335119D+02 0.247459649206251D+02 0.223384137430420D+02
 0.531349232866778D+02 0.968934138569732D+01 0.492555724079998D+02 -.174162373362571D+02
 0.204582301982210D+03 -.789290284496849D+02 0.941083543468145D+02 -.163608509541721D+03
 0.249801992282138D+03 -.253672229695243D+02 -.168109891675439D+03 0.158686333134936D+03
 0.000000000000000D+00 0.000000000000000D+00 -.000000000000000D+00 0.000000000000000D+00
 0.461795484476502D+03 0.000000000000000D+00 0.000000000000000D+00 0.461795484476502D+03
 0.324458935390777D+03 0.000000000000000D+00 0.000000000000000D+00 -.324458935390777D+03
 0.130696628481196D+03 0.871352182051072D+02 0.259770354764529D+02 0.223384137430420D+02
 0.531325514572624D+02 0.670728783703233D+01 0.497469093640701D+02 -.174162373362571D+02
 0.210217822200567D+03 -.905690545751431D+02 0.960262189698765D+02 -.163608509541721D+03
 0.250075470304155D+03 -.393946698886778D+02 -.165798664543459D+03 0.158686333134936D+03
 0.142131947424099D+03 0.361212184216815D+02 -.595149926694073D+01 0.137336549085725D+03
0.236504599806D-05 0.000000000000D+00 0.000000000000D+00 0.240659040582D-06 0.000000000000D+00  7 2 -2 23 -13 13 23 21 0 0.69261149D-01 0.35330957D-01 0.62414608D+05 0.62414608D+05 0.62414608D+05 0.11389186D+01  1  2  2  1  7  1        2 0.148541817793D-03 0.100000000000D+01
-.121218565382D-06 0.000000000000D+00 -.908239936347D-08 0.240659040582D-06 0.000000000000D+00  7 2 -2 23 -13 13 23 21 2 0.69261149D-01 0.35330957D-01 0.62414608D+05 0.62414608D+05 0.62414608D+05 0.11389186D+01  1  2  3  1  7  1        2 -.987560378545D-05 0.100000000000D+01
0.143364311597D-06 0.000000000000D+00 0.000000000000D+00 0.240659040582D-06 0.000000000000D+00  7 2 -2 23 -13 13 23 21 2 0.69261149D-01 0.35330957D-01 0.62414608D+05 0.62414608D+05 0.62414608D+05 0.11389186D+01  1  2 15  1  7  1        2 0.116798044412D-04 0.100000000000D+01
0.223348518909D-04 0.000000000000D+00 0.000000000000D+00 0.240659040582D-06 0.000000000000D+00  7 2 -2 23 -13 13 23 21 2 0.99681319D-01 0.35330957D-01 0.73131287D+05 0.73131287D+05 0.73131287D+05 0.11330475D+01  1  2 12  1  7  1        2 0.119430097884D-02 0.100000000000D+01
-.212500822038D-04 0.000000000000D+00 0.000000000000D+00 0.240659040582D-06 0.000000000000D+00  7 2 -2 23 -13 13 23 21 2 0.69261149D-01 0.35330957D-01 0.62414608D+05 0.62414608D+05 0.62414608D+05 0.11389186D+01  1  2  4  1  7  1        2 -.173123144620D-02 0.100000000000D+01
-.230146289862D-04 0.000000000000D+00 -.105996793528D-05 0.240659040582D-06 0.000000000000D+00  7 2 -2 23 -13 13 23 21 2 0.99847037D-01 0.35330957D-01 0.62414608D+05 0.62414608D+05 0.62414608D+05 0.11389186D+01  1  2  5  1  7  1        2 -.124331356184D-02 0.100000000000D+01
0.219826206641D-04 0.000000000000D+00 0.992816353221D-06 0.240659040582D-06 0.000000000000D+00  7 2 -2 23 -13 13 23 21 2 0.69261149D-01 0.35330957D-01 0.62414608D+05 0.62414608D+05 0.62414608D+05 0.11389186D+01  1  2  6  1  7  1        2 0.179091091501D-02 0.100000000000D+01
0.992755744072D-06 0.000000000000D+00 0.000000000000D+00 0.240659040582D-06 0.000000000000D+00  7 21 -2 23 -13 13 23 -2 2 0.99681319D-01 0.35330957D-01 0.73131287D+05 0.73131287D+05 0.73131287D+05 0.11330475D+01  1  2 12  3  7  1        2 0.749176036287D-04 0.100000000000D+01
-.994406123672D-06 0.000000000000D+00 -.472697304956D-07 0.240659040582D-06 0.000000000000D+00  7 21 -2 23 -13 13 23 -2 2 0.99847037D-01 0.35330957D-01 0.62414608D+05 0.62414608D+05 0.62414608D+05 0.11389186D+01  1  2  5  3  7  1        2 -.761826782785D-04 0.100000000000D+01
  </mgrwgt>
  </event>
  <event>
  8     66 0.55102590E-06 0.20835531E+03 0.75467711E-02 0.92591980E-01
        2 -1    0    0  501    0 0.00000000E+00 0.00000000E+00 0.26514677E+04 0.26514677E+04 0.32000000E+00 0.0000E+00 0.9000E+01
       -2 -1    0    0    0  501 0.00000000E+00 0.00000000E+00 -.74490046E+02 0.74490733E+02 0.32000000E+00 0.0000E+00 0.9000E+01
       25  2    1    2    0    0 0.32942383E+03 0.15441507E+03 0.10086214E+04 0.11134653E+04 0.30020640E+03 0.0000E+00 0.0000E+00
       23  2    1    2    0    0 -.32942383E+03 -.15441507E+03 0.15683563E+04 0.16124931E+04 0.89602382E+02 0.0000E+00 0.0000E+00
       23  1    3    3    0    0 0.13815898E+03 0.11272704E+03 0.75129134E+03 0.77752763E+03 0.91188000E+02 0.0000E+00 0.9000E+01
      -13  1    4    4    0    0 -.24020272E+03 -.11624404E+03 0.95805987E+03 0.99452941E+03 0.10565837E+00 0.0000E+00 0.9000E+01
       13  1    4    4    0    0 -.89221109E+02 -.38171023E+02 0.61029638E+03 0.61796369E+03 0.10565837E+00 0.0000E+00 0.9000E+01
       23  1    3    3    0    0 0.19126485E+03 0.41688022E+02 0.25733003E+03 0.33593769E+03 0.91188000E+02 0.0000E+00 0.9000E+01
#aMCatNLO 1  0  0  2  1 0.34420182D+03 0.00000000D+00  -5  7  0 0.00000000D+00 0.00000000D+00 0.00000000D+00 0.00000000D+00 0.00000000D+00
  <mgrwgt>
 0.2033506213D-03    7    2    0
 0.444419745664779D+03 0.000000000000000D+00 0.000000000000000D+00 0.444419745664779D+03
 0.444419745664779D+03 0.000000000000000D+00 0.000000000000000D+00 -.444419745664779D+03
 0.206389372548044D+03 0.138158978646405D+03 0.112727044920512D+03 0.498601215366207D+02
 0.272430693552983D+03 -.240202931215019D+03 -.116244152094257D+03 0.548482609510976D+02
 0.125807883364529D+03 -.892208994842612D+02 -.381709145883894D+02 0.800639487620251D+02
 0.284211541864002D+03 0.191264852052875D+03 0.416880217621349D+02 -.184772331249743D+03
 0.000000000000000D+00 -.000000000000000D+00 0.000000000000000D+00 -.000000000000000D+00
 0.567708225559542D+03 0.000000000000000D+00 0.000000000000000D+00 0.567708225559542D+03
 0.801598364873052D+03 0.000000000000000D+00 0.000000000000000D+00 -.801598364873052D+03
 0.246950143198361D+03 0.212247475656494D+03 0.716526289782211D+02 0.498601215366207D+02
 0.232618439441353D+03 -.157663620433360D+03 -.162003671040554D+03 0.548482609510976D+02
 0.111861237033677D+03 -.503790440880440D+02 -.597047098318976D+02 0.800639487620251D+02
 0.361728370362184D+03 0.296829700457658D+03 -.168367785408385D+02 -.184772331249743D+03
 0.416148400397019D+03 -.301034511592748D+03 0.166892530435069D+03 -.233890139313510D+03
0.111525169766D-04 0.000000000000D+00 0.000000000000D+00 0.460819175196D-06 0.000000000000D+00  7 2 -2 23 -13 13 23 21 0 0.40791816D+00 0.11460061D-01 0.15214835D+06 0.15214835D+06 0.15214835D+06 0.11070649D+01  1  2  2  2  7  2       -2 0.208533322759D-03 0.100000000000D+01
-.606762088699D-06 0.000000000000D+00 -.428286017153D-07 0.460819175196D-06 0.000000000000D+00  7 2 -2 23 -13 13 23 21 2 0.40791816D+00 0.11460061D-01 0.15214835D+06 0.15214835D+06 0.15214835D+06 0.11070649D+01  1  2  3  2  7  2       -2 -.139048764730D-04 0.100000000000D+01
0.707432067513D-06 0.000000000000D+00 0.000000000000D+00 0.460819175196D-06 0.000000000000D+00  7 2 -2 23 -13 13 23 21 2 0.40791816D+00 0.11460061D-01 0.15214835D+06 0.15214835D+06 0.15214835D+06 0.11070649D+01  1  2 15  2  7  2       -2 0.162118822106D-04 0.100000000000D+01
0.114905671962D-06 0.000000000000D+00 0.000000000000D+00 0.460819175196D-06 0.000000000000D+00  7 2 -2 23 -13 13 23 21 2 0.40791816D+00 0.21202319D-01 0.36073387D+06 0.36073387D+06 0.36073387D+06 0.10786775D+01  1  2 12  2  7  2       -2 0.885160701828D-06 0.100000000000D+01
-.198628821519D-05 0.000000000000D+00 -.352465136473D-05 0.460819175196D-06 0.000000000000D+00  7 2 -2 23 -13 13 23 21 2 0.40791816D+00 0.29063639D-01 0.15214835D+06 0.15214835D+06 0.15214835D+06 0.11070649D+01  1  2  5  2  7  2       -2 -.981177977117D-05 0.100000000000D+01
0.771164882831D-08 0.000000000000D+00 0.000000000000D+00 0.460819175196D-06 0.000000000000D+00  7 2 21 23 -13 13 23 2 2 0.40791816D+00 0.21202319D-01 0.36073387D+06 0.36073387D+06 0.36073387D+06 0.10786775D+01  1  2 12  4  7  2       -2 0.731406028741D-06 0.100000000000D+01
0.120944573698D-07 0.000000000000D+00 -.361901357194D-06 0.460819175196D-06 0.000000000000D+00  7 2 21 23 -13 13 23 2 2 0.40791816D+00 0.29063639D-01 0.15214835D+06 0.15214835D+06 0.15214835D+06 0.11070649D+01  1  2  5  4  7  2       -2 0.705505885871D-06 0.100000000000D+01
  </mgrwgt>
  </event>
  <event>
  8     66 0.55102590E-06 0.46084888E+03 0.75467711E-02 0.86020292E-01
        2 -1    0    0  501    0 0.00000000E+00 0.00000000E+00 0.89367612E+03 0.89367618E+03 0.32000000E+00 0.0000E+00 0.9000E+01
       -2 -1    0    0    0  501 0.00000000E+00 0.00000000E+00 -.49878120E+03 0.49878131E+03 0.32000000E+00 0.0000E+00 0.9000E+01
       25  2    1    2    0    0 -.37310409E+03 0.18273867E+03 -.28820776E+03 0.58738832E+03 0.29893352E+03 0.0000E+00 0.0000E+00
       23  2    1    2    0    0 0.37310409E+03 -.18273867E+03 0.68310268E+03 0.80506916E+03 0.94376968E+02 0.0000E+00 0.0000E+00
       23  1    3    3    0    0 -.28563467E+03 0.26607931E+02 -.22827176E+03 0.37778088E+03 0.91188000E+02 0.0000E+00 0.9000E+01
      -13  1    4    4    0    0 0.31497093E+00 -.81910432E+01 0.44844865E+02 0.45587997E+02 0.10565837E+00 0.0000E+00 0.9000E+01
       13  1    4    4    0    0 0.37278912E+03 -.17454762E+03 0.63825781E+03 0.75948117E+03 0.10565837E+00 0.0000E+00 0.9000E+01
       23  1    3    3    0    0 -.87469420E+02 0.15613073E+03 -.59935999E+02 0.20960745E+03 0.91188000E+02 0.0000E+00 0.9000E+01
#aMCatNLO 1  0  0  2  1 0.10864287D+04 0.00000000D+00  -5  7  0 0.00000000D+00 0.00000000D+00 0.00000000D+00 0.00000000D+00 0.00000000D+00
  <mgrwgt>
 0.3382129510D-03    5    2    0
 0.667644338520688D+03 0.000000000000000D+00 0.000000000000000D+00 0.667644338520688D+03
 0.667644338520688D+03 0.000000000000000D+00 0.000000000000000D+00 -.667644338520688D+03
 0.461463635791986D+03 -.285634666693949D+03 0.266079307204103D+02 -.349768910882276D+03
 0.342767723189245D+02 0.314504234891437D+00 -.819083474042899D+01 0.332822540394219D+02
 0.603241406652778D+03 0.372789582061926D+03 -.174547830824431D+03 0.440977524326357D+03
 0.236306862277687D+03 -.874694196028690D+02 0.156130734844450D+03 -.124490867483503D+03
 0.000000000000000D+00 0.000000000000000D+00 -.000000000000000D+00 -.000000000000000D+00
 0.106726095595028D+04 0.000000000000000D+00 0.000000000000000D+00 0.106726095595028D+04
 0.228936719063596D+04 0.000000000000000D+00 0.000000000000000D+00 -.228936719063596D+04
 0.803675710412347D+03 -.667436296099581D+03 0.264139917074056D+03 -.349768910882276D+03
 0.404513341616774D+02 -.222374090403466D+02 0.583948976259003D+01 0.332822540394219D+02
 0.445128572874383D+03 0.564059618668016D+02 0.222853515579926D+02 0.440977524326357D+03
 0.432174968835835D+03 -.289208028960752D+03 0.281639294563271D+03 -.124490867483503D+03
 0.163519756030200D+04 0.922475772233878D+03 -.573904052957909D+03 -.122210623468568D+04
0.567572906879D-04 0.000000000000D+00 0.000000000000D+00 0.152411014421D-06 0.000000000000D+00  7 2 -2 23 -13 13 23 21 0 0.13748865D+00 0.76735582D-01 0.21238169D+06 0.21238169D+06 0.21238169D+06 0.10958274D+01  1  2  2  2  7  2       -2 0.328977438967D-03 0.100000000000D+01
-.262638775488D-05 0.000000000000D+00 -.217962940779D-06 0.152411014421D-06 0.000000000000D+00  7 2 -2 23 -13 13 23 21 2 0.13748865D+00 0.76735582D-01 0.21238169D+06 0.21238169D+06 0.21238169D+06 0.10958274D+01  1  2  3  2  7  2       -2 -.182804818888D-04 0.100000000000D+01
0.351229529855D-05 0.000000000000D+00 0.000000000000D+00 0.152411014421D-06 0.000000000000D+00  7 2 -2 23 -13 13 23 21 2 0.13748865D+00 0.76735582D-01 0.21238169D+06 0.21238169D+06 0.21238169D+06 0.10958274D+01  1  2 15  2  7  2       -2 0.244466760378D-04 0.100000000000D+01
0.168465472406D-04 0.000000000000D+00 -.205175058571D-04 0.152411014421D-06 0.000000000000D+00  7 2 -2 23 -13 13 23 21 2 0.13748865D+00 0.33175820D+00 0.21238169D+06 0.21238169D+06 0.21238169D+06 0.10958274D+01  1  2  5  2  7  2       -2 0.135492302661D-05 0.100000000000D+01
0.293765689747D-05 0.000000000000D+00 -.361771059049D-05 0.152411014421D-06 0.000000000000D+00  7 2 21 23 -13 13 23 2 2 0.13748865D+00 0.33175820D+00 0.21238169D+06 0.21238169D+06 0.21238169D+06 0.10958274D+01  1  2  5  4  7  2       -2 0.171439482286D-05 0.100000000000D+01
  </mgrwgt>
  </event>
  <event>
  8     66 0.55102590E-06 0.25045425E+03 0.75467711E-02 0.10316445E+00
        2 -1    0    0  501    0 0.00000000E+00 0.00000000E+00 0.26773799E+04 0.26773799E+04 0.32000000E+00 0.0000E+00 0.9000E+01
       -2 -1    0    0    0  501 0.00000000E+00 0.00000000E+00 -.44166655E+02 0.44167815E+02 0.32000000E+00 0.0000E+00 0.9000E+01
       25  2    1    2    0    0 -.18566783E+03 -.79497283E+02 0.22525571E+04 0.22814034E+04 0.29999299E+03 0.0000E+00 0.0000E+00
       23  2    1    2    0    0 0.18566783E+03 0.79497283E+02 0.38065613E+03 0.44014428E+03 0.89641178E+02 0.0000E+00 0.0000E+00
       23  1    3    3    0    0 -.16055272E+03 -.42471944E+02 0.68972119E+03 0.71527030E+03 0.91188000E+02 0.0000E+00 0.9000E+01
      -11  1    4    4    0    0 0.78198408E+02 0.64491049E+02 0.11564951E+03 0.15378197E+03 0.51099893E-03 0.0000E+00 0.9000E+01
       11  1    4    4    0    0 0.10746942E+03 0.15006234E+02 0.26500662E+03 0.28636231E+03 0.51099893E-03 0.0000E+00 0.9000E+01
       23  1    3    3    0    0 -.25115105E+02 -.37025339E+02 0.15628359E+04 0.15661331E+04 0.91188000E+02 0.0000E+00 0.9000E+01
#aMCatNLO 1  0  0  2  2 0.94960692D+00 0.00000000D+00  -5  7  0 0.00000000D+00 0.00000000D+00 0.00000000D+00 0.00000000D+00 0.00000000D+00
  <mgrwgt>
 0.1343785033D-03    6    2    0
 0.343878638044986D+03 0.000000000000000D+00 0.000000000000000D+00 0.343878638044986D+03
 0.343878638044986D+03 0.000000000000000D+00 0.000000000000000D+00 -.343878638044986D+03
 0.189688014404466D+03 -.160552720281434D+03 -.424719437753638D+02 -.923306378635947D+01
 0.165749117722887D+03 0.781984078399723D+02 0.644910490698290D+02 -.131143751765312D+03
 0.118544362287235D+03 0.107469417800217D+03 0.150062335718238D+02 -.477273823057317D+02
 0.213775781675385D+03 -.251151053587554D+02 -.370253388662890D+02 0.188104197857403D+03
 0.000000000000000D+00 0.000000000000000D+00 0.000000000000000D+00 0.000000000000000D+00
 0.345151530202845D+03 0.000000000000000D+00 0.000000000000000D+00 0.345151530202845D+03
 0.344056118619787D+03 0.000000000000000D+00 0.000000000000000D+00 -.344056118619787D+03
 0.189917373571869D+03 -.160803701989313D+03 -.425473547954059D+02 -.923306378635947D+01
 0.165620248477824D+03 0.779793180901898D+02 0.644252204417130D+02 -.131143751765312D+03
 0.118396403061693D+03 0.107312760914311D+03 0.149591637846962D+02 -.477273823057317D+02
 0.213823906553528D+03 -.253978192069763D+02 -.371102842587424D+02 0.188104197857403D+03
 0.144971715771889D+01 0.909442191788168D+00 0.273254827739047D+00 0.109541158305789D+01
0.291196821117D-05 0.000000000000D+00 0.000000000000D+00 0.263420590796D-06 0.000000000000D+00  7 2 -2 23 -11 11 23 21 0 0.41190469D+00 0.67949607D-02 0.62727331D+05 0.62727331D+05 0.62727331D+05 0.11387320D+01  1  2  2  2  7  2       -2 0.120687056666D-03 0.100000000000D+01
-.142008660327D-06 0.000000000000D+00 -.111827246697D-07 0.263420590796D-06 0.000000000000D+00  7 2 -2 23 -11 11 23 21 2 0.41190469D+00 0.67949607D-02 0.62727331D+05 0.62727331D+05 0.62727331D+05 0.11387320D+01  1  2  3  2  7  2       -2 -.763188715607D-05 0.100000000000D+01
0.180743526459D-06 0.000000000000D+00 0.000000000000D+00 0.263420590796D-06 0.000000000000D+00  7 2 -2 23 -11 11 23 21 2 0.41190469D+00 0.67949607D-02 0.62727331D+05 0.62727331D+05 0.62727331D+05 0.11387320D+01  1  2 15  2  7  2       -2 0.971359207914D-05 0.100000000000D+01
-.135623970338D-04 0.000000000000D+00 0.000000000000D+00 0.263420590796D-06 0.000000000000D+00  7 2 -2 23 -11 11 23 21 2 0.41190469D+00 0.67949607D-02 0.62727331D+05 0.62727331D+05 0.62727331D+05 0.11387320D+01  1  2  4  2  7  2       -2 -.728875855103D-03 0.100000000000D+01
0.135624743205D-04 0.000000000000D+00 0.000000000000D+00 0.263420590796D-06 0.201977554020D-05  7 2 -2 23 -11 11 23 21 2 0.41342938D+00 0.67984677D-02 0.62954940D+05 0.62954940D+05 0.62954940D+05 0.11385968D+01  1  2 11  2  7  2       -2 0.718466902615D-03 0.100000000000D+01
0.264725039889D-07 0.000000000000D+00 0.000000000000D+00 0.263420590796D-06 0.195541461561D-09  7 2 21 23 -11 11 23 2 2 0.41342938D+00 0.67984677D-02 0.62954940D+05 0.62954940D+05 0.62954940D+05 0.11385968D+01  1  2 11  4  7  2       -2 0.220186942147D-04 0.100000000000D+01
  </mgrwgt>
  </event>
  <event>
  8     66 0.55102590E-06 0.34959017E+03 0.75467711E-02 0.94486371E-01
        2 -1    0    0  501    0 0.00000000E+00 0.00000000E+00 0.17072828E+04 0.17072828E+04 0.32000000E+00 0.0000E+00 0.9000E+01
       -2 -1    0    0    0  501 0.00000000E+00 0.00000000E+00 -.17020866E+03 0.17020896E+03 0.32000000E+00 0.0000E+00 0.9000E+01
       25  2    1    2    0    0 0.38348306E+03 -.24657863E+03 0.50608251E+03 0.74579507E+03 0.30369474E+03 0.0000E+00 0.0000E+00
       23  2    1    2    0    0 -.38348306E+03 0.24657863E+03 0.10309916E+04 0.11316967E+04 0.99666600E+02 0.0000E+00 0.0000E+00
       23  1    3    3    0    0 0.34331888E+03 -.23659792E+03 0.31636525E+03 0.53127079E+03 0.91188000E+02 0.0000E+00 0.9000E+01
      -13  1    4    4    0    0 -.71988268E+02 0.41373155E+02 0.29662187E+03 0.30802369E+03 0.10565837E+00 0.0000E+00 0.9000E+01
       13  1    4    4    0    0 -.31149479E+03 0.20520547E+03 0.73436973E+03 0.82367300E+03 0.10565837E+00 0.0000E+00 0.9000E+01
       23  1    3    3    0    0 0.40164186E+02 -.99807054E+01 0.18971726E+03 0.21452428E+03 0.91188000E+02 0.0000E+00 0.9000E+01
#aMCatNLO 1  0  0  2  1 0.29059058D+02 0.00000000D+00  -5  7  0 0.00000000D+00 0.00000000D+00 0.00000000D+00 0.00000000D+00 0.00000000D+00
  <mgrwgt>
 0.2073607459D-03    9    2    0
 0.539068284656847D+03 0.000000000000000D+00 0.000000000000000D+00 0.539068284656847D+03
 0.539068284656847D+03 0.000000000000000D+00 0.000000000000000D+00 -.539068284656847D+03
 0.474132594322851D+03 0.343318876432937D+03 -.236597922929490D+03 -.206494643043335D+03
 0.113512342804270D+03 -.719880006934301D+02 0.413729731573741D+02 0.774019173999970D+02
 0.387389594928017D+03 -.311495061828820D+03 0.205205655265531D+03 0.104556988105996D+03
 0.103102037258556D+03 0.401641860893128D+02 -.998070549341507D+01 0.245357375373420D+02
 0.000000000000000D+00 -.000000000000000D+00 -.000000000000000D+00 -.000000000000000D+00
 0.544285410291619D+03 0.000000000000000D+00 0.000000000000000D+00 0.544285410291619D+03
 0.581305948352997D+03 0.000000000000000D+00 0.000000000000000D+00 -.581305948352997D+03
 0.469195420671841D+03 0.344984588090941D+03 -.223997070984320D+03 -.206494643043335D+03
 0.114404800575215D+03 -.715855486971450D+02 0.444174604765671D+02 0.774019173999970D+02
 0.391913233572720D+03 -.310118982897721D+03 0.215615480274751D+03 0.104556988105996D+03
 0.103014658363422D+03 0.405281432466848D+02 -.722742569712416D+01 0.245357375373420D+02
 0.470632454614182D+02 -.380819974276041D+01 -.288084440698733D+02 -.370205380613779D+02
0.132898060172D-04 0.000000000000D+00 0.000000000000D+00 0.114771617240D-08 0.000000000000D+00  7 2 -2 23 -13 13 23 21 0 0.26265891D+00 0.26185972D-01 0.24156583D+06 0.24156583D+06 0.24156583D+06 0.10915821D+01  1  2  2  2  7  2       -2 0.210928790160D-03 0.100000000000D+01
-.730659334190D-06 0.000000000000D+00 -.510363543923D-07 0.114771617240D-08 0.000000000000D+00  7 2 -2 23 -13 13 23 21 2 0.26265891D+00 0.26185972D-01 0.24156583D+06 0.24156583D+06 0.24156583D+06 0.10915821D+01  1  2  3  2  7  2       -2 -.138179940421D-04 0.100000000000D+01
0.844240710081D-06 0.000000000000D+00 0.000000000000D+00 0.114771617240D-08 0.000000000000D+00  7 2 -2 23 -13 13 23 21 2 0.26265891D+00 0.26185972D-01 0.24156583D+06 0.24156583D+06 0.24156583D+06 0.10915821D+01  1  2 15  2  7  2       -2 0.159660084477D-04 0.100000000000D+01
0.949123104145D-04 0.000000000000D+00 0.000000000000D+00 0.114771617240D-08 0.000000000000D+00  7 2 -2 23 -13 13 23 21 2 0.26265891D+00 0.28358381D-01 0.25622652D+06 0.25622652D+06 0.25622652D+06 0.10896563D+01  1  2 12  2  7  2       -2 0.155293058605D-02 0.100000000000D+01
-.967360570221D-04 0.000000000000D+00 0.000000000000D+00 0.114771617240D-08 0.000000000000D+00  7 2 -2 23 -13 13 23 21 2 0.26265891D+00 0.26185972D-01 0.24156583D+06 0.24156583D+06 0.24156583D+06 0.10915821D+01  1  2  4  2  7  2       -2 -.182944115957D-02 0.100000000000D+01
-.182019833409D-03 0.000000000000D+00 -.214092365260D-04 0.114771617240D-08 0.000000000000D+00  7 2 -2 23 -13 13 23 21 2 0.26265891D+00 0.28468279D-01 0.24156583D+06 0.24156583D+06 0.24156583D+06 0.10915821D+01  1  2  5  2  7  2       -2 -.297478057618D-02 0.100000000000D+01
0.183243267047D-03 0.000000000000D+00 0.213346990765D-04 0.114771617240D-08 0.000000000000D+00  7 2 -2 23 -13 13 23 21 2 0.26265891D+00 0.26185972D-01 0.24156583D+06 0.24156583D+06 0.24156583D+06 0.10915821D+01  1  2  6  2  7  2       -2 0.346543765862D-02 0.100000000000D+01
0.132817372591D-05 0.000000000000D+00 0.000000000000D+00 0.114771617240D-08 0.000000000000D+00  7 2 21 23 -13 13 23 2 2 0.26265891D+00 0.28358381D-01 0.25622652D+06 0.25622652D+06 0.25622652D+06 0.10896563D+01  1  2 12  4  7  2       -2 0.254508340396D-03 0.100000000000D+01
-.247665396538D-05 0.000000000000D+00 -.297231384203D-06 0.114771617240D-08 0.000000000000D+00  7 2 21 23 -13 13 23 2 2 0.26265891D+00 0.28468279D-01 0.24156583D+06 0.24156583D+06 0.24156583D+06 0.10915821D+01  1  2  5  4  7  2       -2 -.474370907953D-03 0.100000000000D+01
  </mgrwgt>
  </event>
  <event>
  8     66 0.55102590E-06 0.49531864E+03 0.75467711E-02 0.92214550E-01
        2 -1    0    0  501    0 0.00000000E+00 0.00000000E+00 0.15507358E+04 0.15507358E+04 0.32000000E+00 0.0000E+00 0.9000E+01
       -2 -1    0    0    0  501 0.00000000E+00 0.00000000E+00 -.47399422E+03 0.47399433E+03 0.32000000E+00 0.0000E+00 0.9000E+01
       25  2    1    2    0    0 0.53272124E+03 -.16729000E+03 -.16946049E+03 0.65618032E+03 0.30012979E+03 0.0000E+00 0.0000E+00
       23  2    1    2    0    0 -.53272124E+03 0.16729000E+03 0.12462021E+04 0.13685498E+04 0.90173103E+02 0.0000E+00 0.0000E+00
       23  1    3    3    0    0 0.33115956E+03 -.88666178E+02 0.18794262E+02 0.35524192E+03 0.91188000E+02 0.0000E+00 0.9000E+01
      -11  1    4    4    0    0 -.36582593E+03 0.10235402E+03 0.74391920E+03 0.83529679E+03 0.51099893E-03 0.0000E+00 0.9000E+01
       11  1    4    4    0    0 -.16689531E+03 0.64935982E+02 0.50228286E+03 0.53325304E+03 0.51099893E-03 0.0000E+00 0.9000E+01
       23  1    3    3    0    0 0.20156168E+03 -.78623819E+02 -.18825476E+03 0.30093840E+03 0.91188000E+02 0.0000E+00 0.9000E+01
#aMCatNLO 1  0  0  2  1 0.91878795D+02 0.00000000D+00  -5  7  0 0.00000000D+00 0.00000000D+00 0.00000000D+00 0.00000000D+00 0.00000000D+00
  <mgrwgt>
 0.2427963751D-03    9    2    0
 0.857344705321240D+03 0.000000000000000D+00 0.000000000000000D+00 0.857344705321240D+03
 0.857344705321240D+03 0.000000000000000D+00 0.000000000000000D+00 -.857344705321240D+03
 0.407672936009682D+03 0.331159563374513D+03 -.886661783646772D+02 -.200882114212688D+03
 0.519185496977998D+03 -.365825930479230D+03 0.102354015663114D+03 0.353904823842416D+03
 0.314263714665646D+03 -.166895314303895D+03 0.649359821222042D+02 0.258245918931315D+03
 0.473567262989153D+03 0.201561681408612D+03 -.786238194206410D+02 -.411268628561043D+03
 0.000000000000000D+00 -.000000000000000D+00 0.000000000000000D+00 -.000000000000000D+00
 0.869528300563473D+03 0.000000000000000D+00 0.000000000000000D+00 0.869528300563473D+03
 0.105124296660517D+04 0.000000000000000D+00 0.000000000000000D+00 -.105124296660517D+04
 0.416634837942881D+03 0.335801402868039D+03 -.110241239402449D+03 -.200882114212688D+03
 0.510445488794878D+03 -.360027875523857D+03 0.754049171996689D+02 0.353904823842416D+03
 0.309431906736149D+03 -.163383161369221D+03 0.486116533630422D+02 0.258245918931315D+03
 0.480636999401479D+03 0.206934993622832D+03 -.103598732740777D+03 -.411268628561043D+03
 0.203622034293252D+03 -.193253595977934D+02 0.898234015805151D+02 -.181714666041693D+03
0.761246190162D-04 0.000000000000D+00 0.000000000000D+00 0.325061762927D-05 0.000000000000D+00  7 2 -2 23 -11 11 23 21 0 0.23857475D+00 0.72922199D-01 0.32975589D+06 0.32975589D+06 0.32975589D+06 0.10815262D+01  1  2  2  2  7  2       -2 0.200289178777D-03 0.100000000000D+01
-.340318472284D-05 0.000000000000D+00 -.292338581095D-06 0.325061762927D-05 0.000000000000D+00  7 2 -2 23 -11 11 23 21 2 0.23857475D+00 0.72922199D-01 0.32975589D+06 0.32975589D+06 0.32975589D+06 0.10815262D+01  1  2  3  2  7  2       -2 -.104735040377D-04 0.100000000000D+01
0.479479129789D-05 0.000000000000D+00 0.000000000000D+00 0.325061762927D-05 0.000000000000D+00  7 2 -2 23 -11 11 23 21 2 0.23857475D+00 0.72922199D-01 0.32975589D+06 0.32975589D+06 0.32975589D+06 0.10815262D+01  1  2 15  2  7  2       -2 0.147562563035D-04 0.100000000000D+01
0.397398196205D-03 0.000000000000D+00 0.000000000000D+00 0.325061762927D-05 0.000000000000D+00  7 2 -2 23 -11 11 23 21 2 0.23857475D+00 0.89853881D-01 0.38683737D+06 0.38683737D+06 0.38683737D+06 0.10764768D+01  1  2 12  2  7  2       -2 0.748811202606D-03 0.100000000000D+01
-.399782824075D-03 0.000000000000D+00 0.000000000000D+00 0.325061762927D-05 0.000000000000D+00  7 2 -2 23 -11 11 23 21 2 0.23857475D+00 0.72922199D-01 0.32975589D+06 0.32975589D+06 0.32975589D+06 0.10815262D+01  1  2  4  2  7  2       -2 -.123035549439D-02 0.100000000000D+01
-.468927161373D-03 0.000000000000D+00 -.500793527232D-04 0.325061762927D-05 0.000000000000D+00  7 2 -2 23 -11 11 23 21 2 0.23857475D+00 0.90073753D-01 0.32975589D+06 0.32975589D+06 0.32975589D+06 0.10815262D+01  1  2  5  2  7  2       -2 -.894735094905D-03 0.100000000000D+01
0.470076016368D-03 0.000000000000D+00 0.489824713875D-04 0.325061762927D-05 0.000000000000D+00  7 2 -2 23 -11 11 23 21 2 0.23857475D+00 0.72922199D-01 0.32975589D+06 0.32975589D+06 0.32975589D+06 0.10815262D+01  1  2  6  2  7  2       -2 0.144668698776D-02 0.100000000000D+01
0.117521990889D-04 0.000000000000D+00 0.000000000000D+00 0.325061762927D-05 0.000000000000D+00  7 2 21 23 -11 11 23 2 2 0.23857475D+00 0.89853881D-01 0.38683737D+06 0.38683737D+06 0.38683737D+06 0.10764768D+01  1  2 12  4  7  2       -2 0.206238019510D-03 0.100000000000D+01
-.133574254098D-04 0.000000000000D+00 -.149414632380D-05 0.325061762927D-05 0.000000000000D+00  7 2 21 23 -11 11 23 2 2 0.23857475D+00 0.90073753D-01 0.32975589D+06 0.32975589D+06 0.32975589D+06 0.10815262D+01  1  2  5  4  7  2       -2 -.238421176530D-03 0.100000000000D+01
  </mgrwgt>
  </event>
  <event>
  8     66 0.55102590E-06 0.27716400E+03 0.75467711E-02 0.93002887E-01
        2 -1    0    0  501    0 0.00000000E+00 0.00000000E+00 0.94300022E+03 0.94300028E+03 0.32000000E+00 0.0000E+00 0.9000E+01
       -2 -1    0    0    0  501 0.00000000E+00 0.00000000E+00 -.89993891E+02 0.89994460E+02 0.32000000E+00 0.0000E+00 0.9000E+01
       25  2    1    2    0    0 0.80928897E+02 0.18452360E+03 0.53795135E+03 0.64792004E+03 0.29968364E+03 0.0000E+00 0.0000E+00
       23  2    1    2    0    0 -.80928897E+02 -.18452360E+03 0.31505498E+03 0.38507470E+03 0.91784724E+02 0.0000E+00 0.0000E+00
       23  1    3    3    0    0 -.42290059E+02 0.17143018E+03 0.23209137E+03 0.30554609E+03 0.91188000E+02 0.0000E+00 0.9000E+01
      -13  1    4    4    0    0 -.39272339E+02 -.10229659E+03 0.24787481E+03 0.27101447E+03 0.10565837E+00 0.0000E+00 0.9000E+01
       13  1    4    4    0    0 -.41656558E+02 -.82227004E+02 0.67180175E+02 0.11406023E+03 0.10565837E+00 0.0000E+00 0.9000E+01
       23  1    3    3    0    0 0.12321896E+03 0.13093419E+02 0.30585998E+03 0.34237395E+03 0.91188000E+02 0.0000E+00 0.9000E+01
#aMCatNLO 1  0  0  2  2 0.44410616D+03 0.00000000D+00  -5  7  0 0.00000000D+00 0.00000000D+00 0.00000000D+00 0.00000000D+00 0.00000000D+00
  <mgrwgt>
 0.2608950807D-03    5    2    0
 0.291315261681831D+03 0.000000000000000D+00 0.000000000000000D+00 0.291315261681831D+03
 0.291315261681831D+03 0.000000000000000D+00 0.000000000000000D+00 -.291315261681831D+03
 0.201932588843072D+03 -.422900582308288D+02 0.171430177902224D+03 -.358436071302812D+02
 0.117600682753878D+03 -.392723366041370D+02 -.102296619233530D+03 0.426966726481107D+02
 0.103871131741129D+03 -.416565608976956D+02 -.822269780364040D+02 -.478818026640637D+02
 0.159226120025582D+03 0.123218955732661D+03 0.130934193677095D+02 0.410287371462342D+02
 0.000000000000000D+00 0.000000000000000D+00 0.000000000000000D+00 -.000000000000000D+00
 0.528742541807394D+03 0.000000000000000D+00 0.000000000000000D+00 0.528742541807394D+03
 0.669824665931154D+03 0.000000000000000D+00 0.000000000000000D+00 -.669824665931154D+03
 0.160224510766235D+03 -.107148058766560D+03 0.677581864923145D+02 -.358436071302812D+02
 0.229850393395863D+03 -.101496664409310D+03 -.201758827818752D+03 0.426966726481107D+02
 0.200581856200000D+03 -.961804459086282D+02 -.169380447027084D+03 -.478818026640637D+02
 0.141933577975023D+03 0.692848595204499D+02 -.731173042597209D+02 0.410287371462342D+02
 0.465976869401427D+03 0.235540309564048D+03 0.376498392613242D+03 -.141082124123760D+03
0.185528390954D-05 0.000000000000D+00 0.000000000000D+00 0.272384810153D-06 0.000000000000D+00  7 2 -2 23 -13 13 23 21 0 0.14507701D+00 0.13845262D-01 0.76819885D+05 0.76819885D+05 0.76819885D+05 0.11312432D+01  1  2  2  2  7  2       -2 0.232760280181D-03 0.100000000000D+01
-.102760572222D-06 0.000000000000D+00 -.712477872009D-08 0.272384810153D-06 0.000000000000D+00  7 2 -2 23 -13 13 23 21 2 0.14507701D+00 0.13845262D-01 0.76819885D+05 0.76819885D+05 0.76819885D+05 0.11312432D+01  1  2  3  2  7  2       -2 -.164982152311D-04 0.100000000000D+01
0.117616159736D-06 0.000000000000D+00 0.000000000000D+00 0.272384810153D-06 0.000000000000D+00  7 2 -2 23 -13 13 23 21 2 0.14507701D+00 0.13845262D-01 0.76819885D+05 0.76819885D+05 0.76819885D+05 0.11312432D+01  1  2 15  2  7  2       -2 0.188832805815D-04 0.100000000000D+01
0.693110410926D-06 0.000000000000D+00 -.702422238097D-06 0.272384810153D-06 0.000000000000D+00  7 2 -2 23 -13 13 23 21 2 0.14507701D+00 0.57889815D-01 0.76819885D+05 0.76819885D+05 0.76819885D+05 0.11312432D+01  1  2  5  2  7  2       -2 0.900027162087D-05 0.100000000000D+01
0.121946241596D-06 0.000000000000D+00 -.120577570896D-06 0.272384810153D-06 0.000000000000D+00  7 2 21 23 -13 13 23 2 2 0.14507701D+00 0.57889815D-01 0.76819885D+05 0.76819885D+05 0.76819885D+05 0.11312432D+01  1  2  5  4  7  2       -2 0.167494635824D-04 0.100000000000D+01
  </mgrwgt>
  </event>
  <event>
  7     66 0.55102590E-06 0.19189723E+03 0.75467711E-02 0.97427813E-01
        2 -1    0    0  501    0 0.00000000E+00 0.00000000E+00 0.87591343E+03 0.87591349E+03 0.32000000E+00 0.0000E+00 0.9000E+01
       -2 -1    0    0    0  501 0.00000000E+00 0.00000000E+00 -.18126118E+03 0.18126146E+03 0.32000000E+00 0.0000E+00 0.9000E+01
       25  2    1    2    0    0 -.21055156E+03 -.24043546E+03 0.34930250E+03 0.56076686E+03 0.30050967E+03 0.0000E+00 0.0000E+00
       23  1    3    3    0    0 -.24301188E+03 -.12555458E+03 0.23626375E+03 0.37276606E+03 0.91188000E+02 0.0000E+00 0.9000E+01
      -13  1    1    2    0    0 0.76109110E+02 0.11113876E+03 0.25668041E+03 0.28987801E+03 0.10565837E+00 0.0000E+00 0.9000E+01
       13  1    1    2    0    0 0.13444245E+03 0.12929670E+03 0.88669340E+02 0.20653008E+03 0.10565837E+00 0.0000E+00 0.9000E+01
       23  1    3    3    0    0 0.32460318E+02 -.11488088E+03 0.11303876E+03 0.18800080E+03 0.91188000E+02 0.0000E+00 0.9000E+01
#aMCatNLO 1  0  0  1  2 0.25719824D+02 0.00000000D+00  -5  7  0 0.00000000D+00 0.00000000D+00 0.00000000D+00 0.00000000D+00 0.00000000D+00
  <mgrwgt>
 0.5490012166D-03    9    2    0
 0.398458633177415D+03 0.000000000000000D+00 0.000000000000000D+00 0.398458633177415D+03
 0.398458633177415D+03 0.000000000000000D+00 0.000000000000000D+00 -.398458633177415D+03
 0.288559449136946D+03 -.243012076754574D+03 -.125554799576499D+03 -.115077016363853D+02
 0.160804631669919D+03 0.761094148328353D+02 0.111138871830898D+03 0.878273175524386D+02
 0.196687881490802D+03 0.134442446498740D+03 0.129296927472461D+03 -.623991654668109D+02
 0.150865304057162D+03 0.324602154229981D+02 -.114880999726860D+03 -.139204504492423D+02
 0.000000000000000D+00 0.000000000000000D+00 -.000000000000000D+00 0.000000000000000D+00
 0.412807081134363D+03 0.000000000000000D+00 0.000000000000000D+00 0.412807081134363D+03
 0.410360999449210D+03 0.000000000000000D+00 0.000000000000000D+00 -.410360999449210D+03
 0.285490276633424D+03 -.243969748442979D+03 -.116343376932021D+03 -.115077016363853D+02
 0.164202032599465D+03 0.755672149728907D+02 0.116354053743648D+03 0.878273175524386D+02
 0.200492178397570D+03 0.133779841707764D+03 0.135670231444832D+03 -.623991654668109D+02
 0.147147713382416D+03 0.319630483366536D+02 -.110098968251263D+03 -.139204504492423D+02
 0.258358795706979D+02 0.265964342567122D+01 -.255819400051961D+02 0.244608168515229D+01
0.501396281642D-05 0.000000000000D+00 0.000000000000D+00 0.327437224983D-09 0.000000000000D+00  7 2 -2 23 -13 13 23 21 0 0.13475594D+00 0.27886362D-01 0.14431660D+06 0.14431660D+06 0.14431660D+06 0.11088781D+01  1  2  2  1  7  1        2 0.216847855906D-03 0.100000000000D+01
-.277782204768D-06 0.000000000000D+00 -.192549374218D-07 0.327437224983D-09 0.000000000000D+00  7 2 -2 23 -13 13 23 21 2 0.13475594D+00 0.27886362D-01 0.14431660D+06 0.14431660D+06 0.14431660D+06 0.11088781D+01  1  2  3  1  7  1        2 -.147722303543D-04 0.100000000000D+01
0.316651189733D-06 0.000000000000D+00 0.000000000000D+00 0.327437224983D-09 0.000000000000D+00  7 2 -2 23 -13 13 23 21 2 0.13475594D+00 0.27886362D-01 0.14431660D+06 0.14431660D+06 0.14431660D+06 0.11088781D+01  1  2 15  1  7  1        2 0.168392511701D-04 0.100000000000D+01
0.111782878650D-04 0.000000000000D+00 0.000000000000D+00 0.327437224983D-09 0.000000000000D+00  7 2 -2 23 -13 13 23 21 2 0.14155538D+00 0.27886362D-01 0.15474000D+06 0.15474000D+06 0.15474000D+06 0.11064872D+01  1  2 12  1  7  1        2 0.553612028933D-03 0.100000000000D+01
-.915865526975D-05 0.000000000000D+00 0.000000000000D+00 0.327437224983D-09 0.000000000000D+00  7 2 -2 23 -13 13 23 21 2 0.13475594D+00 0.27886362D-01 0.14431660D+06 0.14431660D+06 0.14431660D+06 0.11088781D+01  1  2  4  1  7  1        2 -.487049793174D-03 0.100000000000D+01
-.652980917325D-04 0.000000000000D+00 -.108173535012D-04 0.327437224983D-09 0.000000000000D+00  7 2 -2 23 -13 13 23 21 2 0.14267438D+00 0.27886362D-01 0.14431660D+06 0.14431660D+06 0.14431660D+06 0.11088781D+01  1  2  5  1  7  1        2 -.321714612624D-02 0.100000000000D+01
0.658260317397D-04 0.000000000000D+00 0.107997431126D-04 0.327437224983D-09 0.000000000000D+00  7 2 -2 23 -13 13 23 21 2 0.13475594D+00 0.27886362D-01 0.14431660D+06 0.14431660D+06 0.14431660D+06 0.11088781D+01  1  2  6  1  7  1        2 0.350057450576D-02 0.100000000000D+01
0.129771695710D-06 0.000000000000D+00 0.000000000000D+00 0.327437224983D-09 0.000000000000D+00  7 21 -2 23 -13 13 23 -2 2 0.14155538D+00 0.27886362D-01 0.15474000D+06 0.15474000D+06 0.15474000D+06 0.11064872D+01  1  2 12  3  7  1        2 0.525049780904D-05 0.100000000000D+01
-.630662840223D-06 0.000000000000D+00 -.106514153894D-06 0.327437224983D-09 0.000000000000D+00  7 21 -2 23 -13 13 23 -2 2 0.14267438D+00 0.27886362D-01 0.14431660D+06 0.14431660D+06 0.14431660D+06 0.11088781D+01  1  2  5  3  7  1        2 -.251547731755D-04 0.100000000000D+01
  </mgrwgt>
  </event>
  <event>
  8     66 0.55102590E-06 0.20038072E+03 0.75467711E-02 0.10357411E+00
        2 -1    0    0  501    0 0.00000000E+00 0.00000000E+00 0.13884444E+04 0.13884444E+04 0.32000000E+00 0.0000E+00 0.9000E+01
       -2 -1    0    0    0  501 0.00000000E+00 0.00000000E+00 -.66608826E+02 0.66609594E+02 0.32000000E+00 0.0000E+00 0.9000E+01
       25  2    1    2    0    0 0.19275453E+02 -.10496033E+03 0.12706247E+04 0.13096919E+04 0.29902764E+03 0.0000E+00 0.0000E+00
       23  2    1    2    0    0 -.19275453E+02 0.10496033E+03 0.51210840E+02 0.14536210E+03 0.84376388E+02 0.0000E+00 0.0000E+00
       23  1    3    3    0    0 -.57180030E+02 -.11832893E+03 0.39882804E+03 0.42970961E+03 0.91188000E+02 0.0000E+00 0.9000E+01
      -11  1    4    4    0    0 0.13274070E+02 0.77031766E+02 -.51406324E+00 0.78168781E+02 0.51099893E-03 0.0000E+00 0.9000E+01
       11  1    4    4    0    0 -.32549524E+02 0.27928566E+02 0.51724903E+02 0.67193317E+02 0.51099893E-03 0.0000E+00 0.9000E+01
       23  1    3    3    0    0 0.76455483E+02 0.13368601E+02 0.87179668E+03 0.87998231E+03 0.91188000E+02 0.0000E+00 0.9000E+01
#aMCatNLO 1  0  0  2  2 0.69351440D+02 0.00000000D+00  -5  7  0 0.00000000D+00 0.00000000D+00 0.00000000D+00 0.00000000D+00 0.00000000D+00
  <mgrwgt>
 0.2370529490D-03    4    2    0
 0.304110565969729D+03 0.000000000000000D+00 0.000000000000000D+00 0.304110565969729D+03
 0.304110565969729D+03 0.000000000000000D+00 0.000000000000000D+00 -.304110565969729D+03
 0.161233478799249D+03 -.571800297002915D+02 -.118328933631065D+03 0.202408253516658D+02
 0.188121226550151D+03 0.132740704476866D+02 0.770317664801834D+02 -.171112541578417D+03
 0.483345429777712D+02 -.325495238936896D+02 0.279285663482440D+02 -.222879276940651D+02
 0.210531883612287D+03 0.764554831462945D+02 0.133686008026374D+02 0.173159643920816D+03
 0.000000000000000D+00 -.000000000000000D+00 -.000000000000000D+00 0.000000000000000D+00
 0.386804303251152D+03 0.000000000000000D+00 0.000000000000000D+00 0.386804303251152D+03
 0.320976518483768D+03 0.000000000000000D+00 0.000000000000000D+00 -.320976518483768D+03
 0.152473554299895D+03 -.399663445492963D+02 -.113692276383637D+03 0.202408253516658D+02
 0.193086125562801D+03 0.341916229542097D+02 0.826660929231890D+02 -.171112541578417D+03
 0.458923120344682D+02 -.273791220734774D+02 0.293212594794074D+02 -.222879276940651D+02
 0.220710215028695D+03 0.100118534741042D+03 0.197424515330666D+02 0.173159643920816D+03
 0.956186148090614D+02 -.669646910724782D+02 -.180375275520262D+02 0.658277847673846D+02
0.254652825128D-05 0.000000000000D+00 0.000000000000D+00 0.491587462045D-08 0.000000000000D+00  7 2 -2 23 -11 11 23 21 0 0.21360689D+00 0.10247574D-01 0.40152432D+05 0.40152432D+05 0.40152432D+05 0.11557697D+01  1  2  2  2  7  2       -2 0.284781037107D-03 0.100000000000D+01
-.111538174836D-06 0.000000000000D+00 -.977933900121D-08 0.491587462045D-08 0.000000000000D+00  7 2 -2 23 -11 11 23 21 2 0.21360689D+00 0.10247574D-01 0.40152432D+05 0.40152432D+05 0.40152432D+05 0.11557697D+01  1  2  3  2  7  2       -2 -.166620610719D-04 0.100000000000D+01
0.157017577761D-06 0.000000000000D+00 0.000000000000D+00 0.491587462045D-08 0.000000000000D+00  7 2 -2 23 -11 11 23 21 2 0.21360689D+00 0.10247574D-01 0.40152432D+05 0.40152432D+05 0.40152432D+05 0.11557697D+01  1  2 15  2  7  2       -2 0.234559734717D-04 0.100000000000D+01
-.364977921760D-06 0.000000000000D+00 0.000000000000D+00 0.491587462045D-08 0.000000000000D+00  7 2 -2 23 -11 11 23 21 2 0.21360689D+00 0.10247574D-01 0.40152432D+05 0.40152432D+05 0.40152432D+05 0.11557697D+01  1  2  4  2  7  2       -2 -.545220004830D-04 0.100000000000D+01
  </mgrwgt>
  </event>
  <event>
  8     66 0.55102590E-06 0.18991522E+03 0.75467711E-02 0.10442952E+00
        2 -1    0    0  501    0 0.00000000E+00 0.00000000E+00 0.95261897E+03 0.95261902E+03 0.32000000E+00 0.0000E+00 0.9000E+01
       -2 -1    0    0    0  501 0.00000000E+00 0.00000000E+00 -.40325483E+02 0.40326753E+02 0.32000000E+00 0.0000E+00 0.9000E+01
       25  2    1    2    0    0 0.14029590E+01 -.88427371E+01 0.69295468E+03 0.75474014E+03 0.29894202E+03 0.0000E+00 0.0000E+00
       23  2    1    2    0    0 -.14029590E+01 0.88427371E+01 0.21933880E+03 0.23820563E+03 0.92478378E+02 0.0000E+00 0.0000E+00
       23  1    3    3    0    0 -.65610781E+02 -.93213597E+02 0.24626140E+03 0.28627518E+03 0.91188000E+02 0.0000E+00 0.9000E+01
      -11  1    4    4    0    0 -.45852209E+02 0.14027818E+02 0.12143779E+03 0.13056164E+03 0.51099893E-03 0.0000E+00 0.9000E+01
       11  1    4    4    0    0 0.44449250E+02 -.51850813E+01 0.97901015E+02 0.10764399E+03 0.51099893E-03 0.0000E+00 0.9000E+01
       23  1    3    3    0    0 0.67013740E+02 0.84370860E+02 0.44669328E+03 0.46846496E+03 0.91188000E+02 0.0000E+00 0.9000E+01
#aMCatNLO 1  0  0  2  2 0.71285100D+02 0.00000000D+00  -5  7  0 0.00000000D+00 0.00000000D+00 0.00000000D+00 0.00000000D+00 0.00000000D+00
  <mgrwgt>
 0.1232172678D-04    4    2    0
 0.195998665668468D+03 0.000000000000000D+00 0.000000000000000D+00 0.195998665668468D+03
 0.195998665668468D+03 0.000000000000000D+00 0.000000000000000D+00 -.195998665668468D+03
 0.152026868028485D+03 -.656092822522529D+02 -.932188784093791D+02 -.424568021522094D+02
 0.480993369504868D+02 -.458531799572706D+02 0.140339391721060D+02 0.375241977879006D+01
 0.448206211823322D+02 0.444483449177934D+02 -.517937742467252D+01 -.253115916761216D+01
 0.147050505175633D+03 0.670141172917301D+02 0.843643166619457D+02 0.412355415410315D+02
 0.000000000000000D+00 -.000000000000000D+00 -.000000000000000D+00 0.000000000000000D+00
 0.239796754068342D+03 0.000000000000000D+00 0.000000000000000D+00 0.239796754068342D+03
 0.230516171254888D+03 0.000000000000000D+00 0.000000000000000D+00 -.230516171254888D+03
 0.136902524298456D+03 -.640926366182236D+02 -.672056820337524D+02 -.424568021522094D+02
 0.509506129072308D+02 -.453332478285499D+02 0.229517089285633D+02 0.375241977879006D+01
 0.450858815623587D+02 0.449202813440615D+02 0.291517983898251D+01 -.253115916761216D+01
 0.165487226934696D+03 0.686546876160471D+02 0.112503044033024D+03 0.412355415410315D+02
 0.718866796204876D+02 -.414908451333511D+01 -.711642507668172D+02 0.928058281345407D+01
0.553108098132D-07 0.000000000000D+00 0.000000000000D+00 0.720486494664D-08 0.000000000000D+00  7 2 -2 23 -11 11 23 21 0 0.14655687D+00 0.62040223D-02 0.36067791D+05 0.36067791D+05 0.36067791D+05 0.11599855D+01  1  2  2  2  7  2       -2 0.231673086163D-04 0.100000000000D+01
-.306910853169D-08 0.000000000000D+00 -.212408073353D-09 0.720486494664D-08 0.000000000000D+00  7 2 -2 23 -11 11 23 21 2 0.14655687D+00 0.62040223D-02 0.36067791D+05 0.36067791D+05 0.36067791D+05 0.11599855D+01  1  2  3  2  7  2       -2 -.172974844864D-05 0.100000000000D+01
0.357513664642D-08 0.000000000000D+00 0.000000000000D+00 0.720486494664D-08 0.000000000000D+00  7 2 -2 23 -11 11 23 21 2 0.14655687D+00 0.62040223D-02 0.36067791D+05 0.36067791D+05 0.36067791D+05 0.11599855D+01  1  2 15  2  7  2       -2 0.201494570947D-05 0.100000000000D+01
-.197494434048D-07 0.000000000000D+00 0.000000000000D+00 0.720486494664D-08 0.000000000000D+00  7 2 -2 23 -11 11 23 21 2 0.14655687D+00 0.62040223D-02 0.36067791D+05 0.36067791D+05 0.36067791D+05 0.11599855D+01  1  2  4  2  7  2       -2 -.111307790970D-04 0.100000000000D+01
  </mgrwgt>
  </event>
  <event>
  8     66 0.55102590E-06 0.65859729E+03 0.75467711E-02 0.87081949E-01
        2 -1    0    0  501    0 0.00000000E+00 0.00000000E+00 0.11025978E+04 0.11025978E+04 0.32000000E+00 0.0000E+00 0.9000E+01
       -2 -1    0    0    0  501 0.00000000E+00 0.00000000E+00 -.46755736E+03 0.46755747E+03 0.32000000E+00 0.0000E+00 0.9000E+01
       25  2    1    2    0    0 0.58182883E+03 -.27626084E+03 0.58310242E+03 0.91781286E+03 0.29584993E+03 0.0000E+00 0.0000E+00
       23  2    1    2    0    0 -.58182883E+03 0.27626084E+03 0.51938016E+02 0.65234244E+03 0.89488938E+02 0.0000E+00 0.0000E+00
       23  1    3    3    0    0 0.23932736E+03 -.11911968E+03 0.39837178E+03 0.48834661E+03 0.91188000E+02 0.0000E+00 0.9000E+01
      -11  1    4    4    0    0 -.10868080E+03 0.79244076E+02 -.15514609E+02 0.13539513E+03 0.51099893E-03 0.0000E+00 0.9000E+01
       11  1    4    4    0    0 -.47314803E+03 0.19701676E+03 0.67452625E+02 0.51694731E+03 0.51099893E-03 0.0000E+00 0.9000E+01
       23  1    3    3    0    0 0.34250147E+03 -.15714116E+03 0.18473063E+03 0.42946625E+03 0.91188000E+02 0.0000E+00 0.9000E+01
#aMCatNLO 1  0  0  2  2 0.62085158D+03 0.00000000D+00  -5  7  0 0.00000000D+00 0.00000000D+00 0.00000000D+00 0.00000000D+00 0.00000000D+00
  <mgrwgt>
 0.1689073653D-03    5    2    0
 0.718002668709645D+03 0.000000000000000D+00 0.000000000000000D+00 0.718002668709645D+03
 0.718002668709645D+03 0.000000000000000D+00 0.000000000000000D+00 -.718002668709645D+03
 0.357796600849599D+03 0.239327355859694D+03 -.119119679436563D+03 0.219627127066910D+03
 0.154904571519936D+03 -.108680796616468D+03 0.792440762945997D+02 -.768393590342918D+02
 0.535410556956915D+03 -.473148032904480D+03 0.197016760947432D+03 -.154854122855406D+03
 0.387893608092841D+03 0.342501473661253D+03 -.157141157805468D+03 0.120663548227873D+02
 0.000000000000000D+00 0.000000000000000D+00 0.000000000000000D+00 -.000000000000000D+00
 0.998152572423732D+03 0.000000000000000D+00 0.000000000000000D+00 0.998152572423732D+03
 0.122853654092962D+04 0.000000000000000D+00 0.000000000000000D+00 -.122853654092962D+04
 0.310285734039746D+03 0.109481653886704D+03 -.166552327882715D+03 0.219627127066910D+03
 0.201141794099302D+03 -.177880486331987D+03 0.539654224386429D+02 -.768393590342918D+02
 0.746226247164734D+03 -.722241627832655D+03 0.106022844792442D+03 -.154854122855406D+03
 0.306816747746935D+03 0.207480460365246D+03 -.206464348016606D+03 0.120663548227873D+02
 0.662218590302639D+03 0.583159999912691D+03 0.213028408668236D+03 -.230383968505891D+03
0.357020823212D-04 0.000000000000D+00 0.000000000000D+00 0.148779601902D-07 0.000000000000D+00  7 2 -2 23 -11 11 23 21 0 0.16963044D+00 0.71931913D-01 0.43375039D+06 0.43375039D+06 0.43375039D+06 0.10729007D+01  1  2  2  2  7  2       -2 0.171953164886D-03 0.100000000000D+01
-.196546286872D-05 0.000000000000D+00 -.137105396688D-06 0.148779601902D-07 0.000000000000D+00  7 2 -2 23 -11 11 23 21 2 0.16963044D+00 0.71931913D-01 0.43375039D+06 0.43375039D+06 0.43375039D+06 0.10729007D+01  1  2  3  2  7  2       -2 -.108968385649D-04 0.100000000000D+01
0.225969253285D-05 0.000000000000D+00 0.000000000000D+00 0.148779601902D-07 0.000000000000D+00  7 2 -2 23 -11 11 23 21 2 0.16963044D+00 0.71931913D-01 0.43375039D+06 0.43375039D+06 0.43375039D+06 0.10729007D+01  1  2 15  2  7  2       -2 0.125280945921D-04 0.100000000000D+01
-.678364385804D-05 0.000000000000D+00 -.106475783717D-04 0.148779601902D-07 0.000000000000D+00  7 2 -2 23 -11 11 23 21 2 0.16963044D+00 0.15895155D+00 0.43375039D+06 0.43375039D+06 0.43375039D+06 0.10729007D+01  1  2  5  2  7  2       -2 -.524178473760D-05 0.100000000000D+01
0.881185500226D-07 0.000000000000D+00 -.915351324718D-06 0.148779601902D-07 0.000000000000D+00  7 2 21 23 -11 11 23 2 2 0.16963044D+00 0.15895155D+00 0.43375039D+06 0.43375039D+06 0.43375039D+06 0.10729007D+01  1  2  5  4  7  2       -2 0.564729125117D-06 0.100000000000D+01
  </mgrwgt>
  </event>
  <event>
  8     66 0.55102590E-06 0.33906418E+03 0.75467711E-02 0.86898096E-01
        2 -1    0    0  501    0 0.00000000E+00 0.00000000E+00 0.12969836E+04 0.12969836E+04 0.32000000E+00 0.0000E+00 0.9000E+01
       -2 -1    0    0    0  501 0.00000000E+00 0.00000000E+00 -.16936189E+03 0.16936219E+03 0.32000000E+00 0.0000E+00 0.9000E+01
       25  2    1    2    0    0 -.66463177E+02 0.26504106E+03 0.12889233E+03 0.42677463E+03 0.30142866E+03 0.0000E+00 0.0000E+00
       23  2    1    2    0    0 0.66463177E+02 -.26504106E+03 0.99872937E+03 0.10395712E+04 0.92648719E+02 0.0000E+00 0.0000E+00
       23  1    3    3    0    0 0.73760750E+02 0.14794096E+03 0.11729681E+03 0.22226329E+03 0.91188000E+02 0.0000E+00 0.9000E+01
      -13  1    4    4    0    0 -.19339539E+02 -.52332722E+02 0.26577706E+03 0.27156985E+03 0.10565837E+00 0.0000E+00 0.9000E+01
       13  1    4    4    0    0 0.85802716E+02 -.21270834E+03 0.73295232E+03 0.76800134E+03 0.10565837E+00 0.0000E+00 0.9000E+01
       23  1    3    3    0    0 -.14022393E+03 0.11710010E+03 0.11595516E+02 0.20451135E+03 0.91188000E+02 0.0000E+00 0.9000E+01
#aMCatNLO 1  0  0  2  1 0.96462278D+03 0.00000000D+00  -5  7  0 0.00000000D+00 0.00000000D+00 0.00000000D+00 0.00000000D+00 0.00000000D+00
  <mgrwgt>
 0.2842299453D-03    5    2    0
 0.468678830324803D+03 0.000000000000000D+00 0.000000000000000D+00 0.468678830324803D+03
 0.468678830324803D+03 0.000000000000000D+00 0.000000000000000D+00 -.468678830324803D+03
 0.206589672050610D+03 0.737607491391144D+02 0.147940957175263D+03 -.838860317960163D+02
 0.105102982824690D+03 -.193396752105531D+02 -.523325133257117D+02 0.890725659808431D+02
 0.319688942980709D+03 0.858028524801204D+02 -.212708549186781D+03 0.222697022596291D+03
 0.305976062793596D+03 -.140223926408682D+03 0.117100105337229D+03 -.227883556781118D+03
 0.000000000000000D+00 -.000000000000000D+00 0.000000000000000D+00 -.000000000000000D+00
 0.793259537690595D+03 0.000000000000000D+00 0.000000000000000D+00 0.793259537690595D+03
 0.259919427838379D+04 0.000000000000000D+00 0.000000000000000D+00 -.259919427838379D+04
 0.342924583214070D+03 0.302009797164723D+03 0.105048724478616D+03 -.838860317960163D+02
 0.141201652369427D+03 0.829666762057054D+02 -.715577756838655D+02 0.890725659808431D+02
 0.585937464675563D+03 0.461968463169933D+03 -.283397049514606D+03 0.222697022596291D+03
 0.274977748395618D+03 0.101084016161284D+03 0.717538639671490D+02 -.227883556781118D+03
 0.204741236741971D+04 -.948028952701646D+03 0.178152236752707D+03 -.180593474069320D+04
0.100652579312D-04 0.000000000000D+00 0.000000000000D+00 0.857207142031D-07 0.000000000000D+00  7 2 -2 23 -13 13 23 21 0 0.19953596D+00 0.26055702D-01 0.11496452D+06 0.11496452D+06 0.11496452D+06 0.11167857D+01  1  2  2  2  7  2       -2 0.276002195838D-03 0.100000000000D+01
-.487929289961D-06 0.000000000000D+00 -.386532406990D-07 0.857207142031D-07 0.000000000000D+00  7 2 -2 23 -13 13 23 21 2 0.19953596D+00 0.26055702D-01 0.11496452D+06 0.11496452D+06 0.11496452D+06 0.11167857D+01  1  2  3  2  7  2       -2 -.166872284540D-04 0.100000000000D+01
0.619995532242D-06 0.000000000000D+00 0.000000000000D+00 0.857207142031D-07 0.000000000000D+00  7 2 -2 23 -13 13 23 21 2 0.19953596D+00 0.26055702D-01 0.11496452D+06 0.11496452D+06 0.11496452D+06 0.11167857D+01  1  2 15  2  7  2       -2 0.212039065903D-04 0.100000000000D+01
0.614858425144D-05 0.000000000000D+00 -.612267051300D-05 0.857207142031D-07 0.000000000000D+00  7 2 -2 23 -13 13 23 21 2 0.19953596D+00 0.21294833D+00 0.11496452D+06 0.11496452D+06 0.11496452D+06 0.11167857D+01  1  2  5  2  7  2       -2 0.180162009218D-05 0.100000000000D+01
0.808863519271D-06 0.000000000000D+00 -.155895100757D-05 0.857207142031D-07 0.000000000000D+00  7 2 21 23 -13 13 23 2 2 0.19953596D+00 0.21294833D+00 0.11496452D+06 0.11496452D+06 0.11496452D+06 0.11167857D+01  1  2  5  4  7  2       -2 0.190945125520D-05 0.100000000000D+01
  </mgrwgt>
  </event>
  <event>
  8     66 0.55102590E-06 0.46106976E+03 0.75467711E-02 0.91773068E-01
        2 -1    0    0  501    0 0.00000000E+00 0.00000000E+00 0.61875060E+03 0.61875069E+03 0.32000000E+00 0.0000E+00 0.9000E+01
       -2 -1    0    0    0  501 0.00000000E+00 0.00000000E+00 -.18753235E+04 0.18753235E+04 0.32000000E+00 0.0000E+00 0.9000E+01
       25  2    1    2    0    0 -.21277564E+03 0.34777096E+03 0.48597788E+03 0.70232496E+03 0.30144275E+03 0.0000E+00 0.0000E+00
       23  2    1    2    0    0 0.21277564E+03 -.34777096E+03 -.17425507E+04 0.17917492E+04 0.87544673E+02 0.0000E+00 0.0000E+00
       23  1    3    3    0    0 0.35177137E+02 0.60704407E+02 0.13681338E+03 0.17876131E+03 0.91188000E+02 0.0000E+00 0.9000E+01
      -11  1    4    4    0    0 0.10065235E+03 -.86784364E+02 -.54397483E+03 0.55997414E+03 0.51099893E-03 0.0000E+00 0.9000E+01
       11  1    4    4    0    0 0.11212330E+03 -.26098660E+03 -.11985759E+04 0.12317751E+04 0.51099893E-03 0.0000E+00 0.9000E+01
       23  1    3    3    0    0 -.24795278E+03 0.28706655E+03 0.34916450E+03 0.52356365E+03 0.91188000E+02 0.0000E+00 0.9000E+01
#aMCatNLO 1  0  0  1  1 0.31825184D+03 0.00000000D+00  -5  7  0 0.00000000D+00 0.00000000D+00 0.00000000D+00 0.00000000D+00 0.00000000D+00
  <mgrwgt>
 0.4153510116D-03    4    2    0
 0.107719899031296D+04 0.000000000000000D+00 0.000000000000000D+00 0.107719899031296D+04
 0.107719899031296D+04 0.000000000000000D+00 0.000000000000000D+00 -.107719899031296D+04
 0.286743654029910D+03 0.351771365175118D+02 0.607044065404791D+02 0.262648464445200D+03
 0.330984823134295D+03 0.100652348259213D+03 -.867843640957958D+02 -.303131212651609D+03
 0.726903978903315D+03 0.112123296310437D+03 -.260986596421513D+03 -.669106686155704D+03
 0.809765524558395D+03 -.247952781087161D+03 0.287066553976829D+03 0.709589434362113D+03
 0.000000000000000D+00 -.000000000000000D+00 0.000000000000000D+00 -.000000000000000D+00
 0.111496885868813D+04 0.000000000000000D+00 0.000000000000000D+00 0.111496885868813D+04
 0.205978444923532D+04 0.000000000000000D+00 0.000000000000000D+00 -.205978444923532D+04
 0.294624187473326D+03 0.778384985373943D+02 0.586950830167256D+02 0.262648464445200D+03
 0.350031909905514D+03 0.150626047036027D+03 -.891380941167554D+02 -.303131212651609D+03
 0.753150904848801D+03 0.220731225228178D+03 -.266101962085151D+03 -.669106686155704D+03
 0.779970510507576D+03 -.131296338012085D+03 0.281572108319916D+03 0.709589434362113D+03
 0.996975795188236D+03 -.317899432789514D+03 0.149728648652653D+02 -.944815590547196D+03
0.199144823536D-02 0.000000000000D+00 0.000000000000D+00 0.104354929391D-06 0.000000000000D+00  7 2 -2 23 -11 11 23 21 0 0.95192409D-01 0.28851131D+00 0.21258533D+06 0.21258533D+06 0.21258533D+06 0.10957956D+01  1  2  2  1  7  1        2 0.401384126679D-03 0.100000000000D+01
-.137740147009D-04 0.000000000000D+00 -.764768558414D-05 0.104354929391D-06 0.000000000000D+00  7 2 -2 23 -11 11 23 21 2 0.95192409D-01 0.28851131D+00 0.21258533D+06 0.21258533D+06 0.21258533D+06 0.10957956D+01  1  2  3  1  7  1        2 -.333357978384D-05 0.100000000000D+01
0.120981852133D-03 0.000000000000D+00 0.000000000000D+00 0.104354929391D-06 0.000000000000D+00  7 2 -2 23 -11 11 23 21 2 0.95192409D-01 0.28851131D+00 0.21258533D+06 0.21258533D+06 0.21258533D+06 0.10957956D+01  1  2 15  1  7  1        2 0.292799641382D-04 0.100000000000D+01
-.494980806737D-04 0.000000000000D+00 0.000000000000D+00 0.104354929391D-06 0.000000000000D+00  7 2 -2 23 -11 11 23 21 2 0.95192409D-01 0.28851131D+00 0.21258533D+06 0.21258533D+06 0.21258533D+06 0.10957956D+01  1  2  4  1  7  1        2 -.119794994165D-04 0.100000000000D+01
  </mgrwgt>
  </event>
  <event>
  8     66 0.55102590E-06 0.26218002E+03 0.75467711E-02 0.10114234E+00
        2 -1    0    0  501    0 0.00000000E+00 0.00000000E+00 0.11273020E+04 0.11273021E+04 0.32000000E+00 0.0000E+00 0.9000E+01
       -2 -1    0    0    0  501 0.00000000E+00 0.00000000E+00 -.16898691E+03 0.16898722E+03 0.32000000E+00 0.0000E+00 0.9000E+01
       25  2    1    2    0    0 0.24418298E+03 0.85799235E+02 0.12102344E+03 0.41517547E+03 0.30122609E+03 0.0000E+00 0.0000E+00
       23  2    1    2    0    0 -.24418298E+03 -.85799235E+02 0.83729168E+03 0.88111383E+03 0.91199664E+02 0.0000E+00 0.0000E+00
       23  1    3    3    0    0 0.12610405E+03 0.32524383E+02 -.64192133E+02 0.17145247E+03 0.91188000E+02 0.0000E+00 0.9000E+01
      -13  1    4    4    0    0 -.15100864E+02 -.24224526E+02 0.39048604E+02 0.48370119E+02 0.10565837E+00 0.0000E+00 0.9000E+01
       13  1    4    4    0    0 -.22908212E+03 -.61574709E+02 0.79824308E+03 0.83274371E+03 0.10565837E+00 0.0000E+00 0.9000E+01
       23  1    3    3    0    0 0.11807893E+03 0.53274852E+02 0.18521557E+03 0.24372300E+03 0.91188000E+02 0.0000E+00 0.9000E+01
#aMCatNLO 1  0  0  1  1 0.13701195D+01 0.00000000D+00  -5  7  0 0.00000000D+00 0.00000000D+00 0.00000000D+00 0.00000000D+00 0.00000000D+00
  <mgrwgt>
 0.3607290029D-03   10    2    0
 0.436462505038672D+03 0.000000000000000D+00 0.000000000000000D+00 0.436462505038672D+03
 0.436462505038672D+03 0.000000000000000D+00 0.000000000000000D+00 -.436462505038672D+03
 0.325077506757645D+03 0.126104049025353D+03 0.325243829798589D+02 -.283549056402869D+03
 0.289605764206805D+02 -.151005768609361D+02 -.242244758079756D+02 0.488490909985432D+01
 0.360292958857866D+03 -.229082405174107D+03 -.615747591048743D+02 0.271184101457624D+03
 0.158593968041152D+03 0.118078933009690D+03 0.532748519329910D+02 0.748004584539051D+01
 0.000000000000000D+00 0.000000000000000D+00 -.000000000000000D+00 0.000000000000000D+00
 0.438610532341125D+03 0.000000000000000D+00 0.000000000000000D+00 0.438610532341125D+03
 0.436681580078874D+03 0.000000000000000D+00 0.000000000000000D+00 -.436681580078874D+03
 0.325068624362940D+03 0.125954317793720D+03 0.330121438772959D+02 -.283549056402869D+03
 0.289312195325090D+02 -.151139095710679D+02 -.241810434886912D+02 0.488490909985432D+01
 0.360306529042045D+03 -.229248362093134D+03 -.610341417942631D+02 0.271184101457624D+03
 0.158619712390412D+03 0.118005877441428D+03 0.535128360138620D+02 0.748004584539051D+01
 0.236602709209372D+01 0.402076429053851D+00 -.130979460820365D+01 0.192895226225053D+01
0.376615826316D-05 0.000000000000D+00 0.000000000000D+00 0.355148379451D-06 0.000000000000D+00  7 2 -2 23 -13 13 23 21 0 0.17343111D+00 0.25998014D-01 0.85018498D+05 0.85018498D+05 0.85018498D+05 0.11275526D+01  1  2  2  1  7  1        2 0.130223114638D-03 0.100000000000D+01
-.167834984500D-06 0.000000000000D+00 -.144630393828D-07 0.355148379451D-06 0.000000000000D+00  7 2 -2 23 -13 13 23 21 2 0.17343111D+00 0.25998014D-01 0.85018498D+05 0.85018498D+05 0.85018498D+05 0.11275526D+01  1  2  3  1  7  1        2 -.737811832909D-05 0.100000000000D+01
0.236407467896D-06 0.000000000000D+00 0.000000000000D+00 0.355148379451D-06 0.000000000000D+00  7 2 -2 23 -13 13 23 21 2 0.17343111D+00 0.25998014D-01 0.85018498D+05 0.85018498D+05 0.85018498D+05 0.11275526D+01  1  2 15  1  7  1        2 0.103926024554D-04 0.100000000000D+01
-.482244530794D-03 0.000000000000D+00 0.000000000000D+00 0.355148379451D-06 0.000000000000D+00  7 2 -2 23 -13 13 23 21 2 0.17343111D+00 0.25998014D-01 0.85018498D+05 0.85018498D+05 0.85018498D+05 0.11275526D+01  1  2  4  1  7  1        2 -.211997350991D-01 0.100000000000D+01
-.120946189232D-02 0.000000000000D+00 -.838089575872D-04 0.355148379451D-06 0.000000000000D+00  7 2 -2 23 -13 13 23 21 2 0.17432574D+00 0.25998014D-01 0.85018498D+05 0.85018498D+05 0.85018498D+05 0.11275526D+01  1  2  5  1  7  1        2 -.527588921806D-01 0.100000000000D+01
0.120987819610D-02 0.000000000000D+00 0.838078482850D-04 0.355148379451D-06 0.000000000000D+00  7 2 -2 23 -13 13 23 21 2 0.17343111D+00 0.25998014D-01 0.85018498D+05 0.85018498D+05 0.85018498D+05 0.11275526D+01  1  2  6  1  7  1        2 0.531869116633D-01 0.100000000000D+01
0.482249474268D-03 0.000000000000D+00 0.000000000000D+00 0.355148379451D-06 0.128244572752D-05  7 2 -2 23 -13 13 23 21 2 0.17428464D+00 0.26011063D-01 0.85418008D+05 0.85418008D+05 0.85418008D+05 0.11273829D+01  1  2 11  1  7  1        2 0.210176917824D-01 0.100000000000D+01
0.469825097312D-10 0.000000000000D+00 0.000000000000D+00 0.355148379451D-06 0.000000000000D+00  7 21 -2 23 -13 13 23 -2 2 0.17432805D+00 0.25998014D-01 0.85418008D+05 0.85418008D+05 0.85418008D+05 0.11273829D+01  1  2 12  3  7  1        2 0.123628897222D-08 0.100000000000D+01
-.115700415586D-05 0.000000000000D+00 -.802312111720D-07 0.355148379451D-06 0.000000000000D+00  7 21 -2 23 -13 13 23 -2 2 0.17432574D+00 0.25998014D-01 0.85018498D+05 0.85018498D+05 0.85018498D+05 0.11275526D+01  1  2  5  3  7  1        2 -.304654358094D-04 0.100000000000D+01
0.455287132013D-06 0.000000000000D+00 0.000000000000D+00 0.355148379451D-06 0.117243137961D-08  7 21 -2 23 -13 13 23 -2 2 0.17428464D+00 0.26011063D-01 0.85418008D+05 0.85418008D+05 0.85418008D+05 0.11273829D+01  1  2 11  3  7  1        2 0.119794375837D-04 0.100000000000D+01
  </mgrwgt>
  </event>
  <event>
  8     66 0.55102590E-06 0.23012261E+03 0.75467711E-02 0.10262747E+00
        2 -1    0    0  501    0 0.00000000E+00 0.00000000E+00 0.85031814E+03 0.85031820E+03 0.32000000E+00 0.0000E+00 0.9000E+01
       -2 -1    0    0    0  501 0.00000000E+00 0.00000000E+00 -.18657743E+03 0.18657770E+03 0.32000000E+00 0.0000E+00 0.9000E+01
       25  2    1    2    0    0 -.25108869E+02 0.13270275E+03 0.77259097E+03 0.84007934E+03 0.30099172E+03 0.0000E+00 0.0000E+00
       23  2    1    2    0    0 0.25108869E+02 -.13270275E+03 -.10885026E+03 0.19681656E+03 0.92994117E+02 0.0000E+00 0.0000E+00
       23  1    3    3    0    0 -.10653742E+03 0.41836706E+02 0.20157024E+03 0.24909104E+03 0.91188000E+02 0.0000E+00 0.9000E+01
      -11  1    4    4    0    0 -.32351706E+02 -.66269034E+02 -.66517446E+02 0.99311572E+02 0.51099893E-03 0.0000E+00 0.9000E+01
       11  1    4    4    0    0 0.57460575E+02 -.66433716E+02 -.42332811E+02 0.97504990E+02 0.51099893E-03 0.0000E+00 0.9000E+01
       23  1    3    3    0    0 0.81428555E+02 0.90866043E+02 0.57102074E+03 0.59098831E+03 0.91188000E+02 0.0000E+00 0.9000E+01
#aMCatNLO 1  0  0  2  2 0.61036162D+02 0.00000000D+00  -5  7  0 0.00000000D+00 0.00000000D+00 0.00000000D+00 0.00000000D+00 0.00000000D+00
  <mgrwgt>
 0.2229049600D-03    4    2    0
 0.398309358978015D+03 0.000000000000000D+00 0.000000000000000D+00 0.398309358978015D+03
 0.398309358978015D+03 0.000000000000000D+00 0.000000000000000D+00 -.398309358978015D+03
 0.156274387607544D+03 -.106537423381445D+03 0.418367063224701D+02 0.548260914295659D+02
 0.184688228757849D+03 -.323517059813987D+02 -.662690338208775D+02 -.169326678696100D+03
 0.162186165343159D+03 0.574605747785227D+02 -.664337157078520D+02 -.136342201801528D+03
 0.293469936247477D+03 0.814285545843206D+02 0.908660432062593D+02 0.250842789068063D+03
 0.000000000000000D+00 0.000000000000000D+00 0.000000000000000D+00 0.000000000000000D+00
 0.489495343642955D+03 0.000000000000000D+00 0.000000000000000D+00 0.489495343642955D+03
 0.409823017086759D+03 0.000000000000000D+00 0.000000000000000D+00 -.409823017086759D+03
 0.162227933352561D+03 -.117114691575529D+03 0.357896595620629D+02 0.548260914295659D+02
 0.189901488852879D+03 -.447916024756269D+02 -.733809491486265D+02 -.169326678696100D+03
 0.161365771377753D+03 0.467156119189229D+02 -.725766338657915D+02 -.136342201801528D+03
 0.285458368845242D+03 0.622026979888213D+02 0.798745800317806D+02 0.250842789068063D+03
 0.100364798301279D+03 0.529879841434121D+02 0.302933434205745D+02 0.796723265561955D+02
0.599033956904D-05 0.000000000000D+00 0.000000000000D+00 0.721906222403D-07 0.000000000000D+00  7 2 -2 23 -11 11 23 21 0 0.13081820D+00 0.28704245D-01 0.52956417D+05 0.52956417D+05 0.52956417D+05 0.11451074D+01  1  2  2  2  7  2       -2 0.259714286507D-03 0.100000000000D+01
-.211010319795D-06 0.000000000000D+00 -.230044812378D-07 0.721906222403D-07 0.000000000000D+00  7 2 -2 23 -11 11 23 21 2 0.13081820D+00 0.28704245D-01 0.52956417D+05 0.52956417D+05 0.52956417D+05 0.11451074D+01  1  2  3  2  7  2       -2 -.119961120077D-04 0.100000000000D+01
0.357833374032D-06 0.000000000000D+00 0.000000000000D+00 0.721906222403D-07 0.000000000000D+00  7 2 -2 23 -11 11 23 21 2 0.13081820D+00 0.28704245D-01 0.52956417D+05 0.52956417D+05 0.52956417D+05 0.11451074D+01  1  2 15  2  7  2       -2 0.203431246355D-04 0.100000000000D+01
-.794295148780D-06 0.000000000000D+00 0.000000000000D+00 0.721906222403D-07 0.000000000000D+00  7 2 -2 23 -11 11 23 21 2 0.13081820D+00 0.28704245D-01 0.52956417D+05 0.52956417D+05 0.52956417D+05 0.11451074D+01  1  2  4  2  7  2       -2 -.451563391836D-04 0.100000000000D+01
  </mgrwgt>
  </event>
  <event>
  9     66 -.55102590E-06 0.23225907E+03 0.75467711E-02 0.10365757E+00
        2 -1    0    0  501    0 0.00000000E+00 0.00000000E+00 0.21688952E+04 0.21688952E+04 0.32000000E+00 0.0000E+00 0.9000E+01
       -2 -1    0    0    0  502 0.00000000E+00 0.00000000E+00 -.35484100E+02 0.35485543E+02 0.32000000E+00 0.0000E+00 0.9000E+01
       25  2    1    2    0    0 -.14657161E+03 -.55141453E+02 0.13924847E+04 0.14331030E+04 0.30041102E+03 0.0000E+00 0.0000E+00
       23  2    1    2    0    0 0.16462679E+03 0.50197271E+02 0.65552248E+03 0.68384306E+03 0.91158427E+02 0.0000E+00 0.0000E+00
       23  1    3    3    0    0 -.17057680E+03 -.35288158E+02 0.12180962E+04 0.12338619E+04 0.91188000E+02 0.0000E+00 0.9000E+01
      -13  1    4    4    0    0 0.26072317E+02 0.54343322E+01 0.24327193E+02 0.36071057E+02 0.10565837E+00 0.0000E+00 0.9000E+01
       13  1    4    4    0    0 0.13855448E+03 0.44762939E+02 0.63119529E+03 0.64777200E+03 0.10565837E+00 0.0000E+00 0.9000E+01
       23  1    3    3    0    0 0.24005188E+02 -.19853294E+02 0.17438853E+03 0.19924110E+03 0.91188000E+02 0.0000E+00 0.9000E+01
       21  1    1    2  501  502 -.18055182E+02 0.49441814E+01 0.85403878E+02 0.87434657E+02 0.75000000E+00 0.0000E+00 0.9000E+01
#aMCatNLO 2  0  0  2  1 0.18719896D+02 0.00000000D+00  -5  7  0 0.00000000D+00 0.00000000D+00 0.00000000D+00 0.00000000D+00 0.00000000D+00
  <mgrwgt>
 -.1902687989D-03    3    2    0
 0.267757729712473D+03 0.000000000000000D+00 0.000000000000000D+00 0.267757729712473D+03
 0.267757729712473D+03 0.000000000000000D+00 0.000000000000000D+00 -.267757729712473D+03
 0.224558883601311D+03 -.178051922374796D+03 -.332411916650722D+02 0.964571250639006D+02
 0.487274012244885D+02 0.244163396735522D+02 0.588770669488923D+01 -.417556810136413D+02
 0.142527477635055D+03 0.133680456535693D+03 0.460977222051026D+02 0.178498579524009D+02
 0.119701696964091D+03 0.199551261655506D+02 -.187442372349197D+02 -.725513020026602D+02
 0.000000000000000D+00 -.000000000000000D+00 0.000000000000000D+00 0.000000000000000D+00
 0.279032107113140D+03 0.000000000000000D+00 0.000000000000000D+00 0.279032107113140D+03
 0.275806252170738D+03 0.000000000000000D+00 0.000000000000000D+00 -.275806252170738D+03
 0.218999833087219D+03 -.170576799164889D+03 -.352881589105771D+02 0.964571250639006D+02
 0.495260149261578D+02 0.260721664308383D+02 0.543427963539901D+01 -.417556810136413D+02
 0.146696039374325D+03 0.138554628417577D+03 0.447629923403220D+02 0.178498579524009D+02
 0.120620665786960D+03 0.240051858398859D+02 -.198532944722261D+02 -.725513020026602D+02
 0.189958061092163D+02 -.180551815234126D+02 0.494418140708205D+01 0.322585494240215D+01
-.295514886067D-05 0.000000000000D+00 0.000000000000D+00 0.244265263438D-06 0.000000000000D+00  7 2 -2 23 -13 13 23 21 2 0.32018545D+00 0.55667325D-02 0.58548077D+05 0.58548077D+05 0.58548077D+05 0.11413148D+01  1  2 13  2  7  2       -2 -.461295645340D-03 0.100000000000D+01
-.415692207732D-06 0.000000000000D+00 0.000000000000D+00 0.244265263438D-06 0.000000000000D+00  7 2 -2 23 -13 13 23 21 2 0.32018545D+00 0.52997542D-02 0.53944275D+05 0.53944275D+05 0.53944275D+05 0.11444061D+01  1  2  8  2  7  2       -2 -.702456639387D-04 0.100000000000D+01
0.236737984073D-05 0.000000000000D+00 0.000000000000D+00 0.244265263438D-06 0.484776430331D-08  7 2 -2 23 -13 13 23 21 2 0.33366739D+00 0.54590593D-02 0.58548077D+05 0.58548077D+05 0.58548077D+05 0.11413148D+01  1  2  1  2  7  2       -2 0.341272510385D-03 0.100000000000D+01
  </mgrwgt>
  </event>
  <event>
  7     66 0.55102590E-06 0.24834357E+03 0.75467711E-02 0.95931269E-01
        2 -1    0    0  501    0 0.00000000E+00 0.00000000E+00 0.62118867E+03 0.62118875E+03 0.32000000E+00 0.0000E+00 0.9000E+01
       -2 -1    0    0    0  501 0.00000000E+00 0.00000000E+00 -.13321726E+03 0.13321765E+03 0.32000000E+00 0.0000E+00 0.9000E+01
       25  2    1    2    0    0 0.32572375E+01 -.15237557E+03 0.36264672E+03 0.49470337E+03 0.29998310E+03 0.0000E+00 0.0000E+00
       23  1    3    3    0    0 -.59914271E+02 -.58198275E+01 0.26484172E+03 0.28649604E+03 0.91188000E+02 0.0000E+00 0.9000E+01
      -11  1    1    2    0    0 0.46771523E+02 0.14584770E+03 0.36348260E+02 0.15741767E+03 0.51099893E-03 0.0000E+00 0.9000E+01
       11  1    1    2    0    0 -.50028760E+02 0.65278720E+01 0.88976425E+02 0.10228536E+03 0.51099893E-03 0.0000E+00 0.9000E+01
       23  1    3    3    0    0 0.63171509E+02 -.14655574E+03 0.97804998E+02 0.20820733E+03 0.91188000E+02 0.0000E+00 0.9000E+01
#aMCatNLO 1  0  0  2  1 0.31810030D+03 0.00000000D+00  -5  7  0 0.00000000D+00 0.00000000D+00 0.00000000D+00 0.00000000D+00 0.00000000D+00
  <mgrwgt>
 0.3827946902D-03    5    2    0
 0.287668608830347D+03 0.000000000000000D+00 0.000000000000000D+00 0.287668608830347D+03
 0.287668608830347D+03 0.000000000000000D+00 0.000000000000000D+00 -.287668608830347D+03
 0.151040569957364D+03 -.599142703317978D+02 -.581986565493570D+01 0.104280447848156D+03
 0.175583963236600D+03 0.467714778874621D+02 0.145847732354981D+03 -.858521750976884D+02
 0.586555904109646D+02 -.500287172510792D+02 0.652792144069403D+01 0.299164165356504D+02
 0.190057094055766D+03 0.631715096954149D+02 -.146555788140739D+03 -.483446892861180D+02
 0.000000000000000D+00 -.000000000000000D+00 0.000000000000000D+00 -.000000000000000D+00
 0.428066520345309D+03 0.000000000000000D+00 0.000000000000000D+00 0.428066520345309D+03
 0.583317377501596D+03 0.000000000000000D+00 0.000000000000000D+00 -.583317377501596D+03
 0.142015012895509D+03 0.121164030178583D+02 -.288408307475442D+02 0.104280447848156D+03
 0.200717807937340D+03 0.139263385724397D+03 0.116287367545855D+03 -.858521750976884D+02
 0.395774893138436D+02 -.258838270261393D+02 -.118877270063401D+01 0.299164165356504D+02
 0.275109427814708D+03 0.177505648850408D+03 -.183096918522843D+03 -.483446892861180D+02
 0.353964159885504D+03 -.303001610566524D+03 0.968391544251667D+02 -.155250857156287D+03
0.320426871682D-05 0.000000000000D+00 0.000000000000D+00 0.258597708176D-09 0.000000000000D+00  7 2 -2 23 -11 11 23 21 0 0.95567523D-01 0.20494999D-01 0.61674529D+05 0.61674529D+05 0.61674529D+05 0.11393644D+01  1  2  2  2  7  2       -2 0.357877856563D-03 0.100000000000D+01
-.173338126799D-06 0.000000000000D+00 -.123052355759D-07 0.258597708176D-09 0.000000000000D+00  7 2 -2 23 -11 11 23 21 2 0.95567523D-01 0.20494999D-01 0.61674529D+05 0.61674529D+05 0.61674529D+05 0.11393644D+01  1  2  3  2  7  2       -2 -.251318966219D-04 0.100000000000D+01
0.206378207413D-06 0.000000000000D+00 0.000000000000D+00 0.258597708176D-09 0.000000000000D+00  7 2 -2 23 -11 11 23 21 2 0.95567523D-01 0.20494999D-01 0.61674529D+05 0.61674529D+05 0.61674529D+05 0.11393644D+01  1  2 15  2  7  2       -2 0.299223019741D-04 0.100000000000D+01
0.176146325455D-06 0.000000000000D+00 -.102951460015D-05 0.258597708176D-09 0.000000000000D+00  7 2 -2 23 -11 11 23 21 2 0.95567523D-01 0.59944794D-01 0.61674529D+05 0.61674529D+05 0.61674529D+05 0.11393644D+01  1  2  5  2  7  2       -2 0.364384438041D-05 0.100000000000D+01
0.752594491994D-07 0.000000000000D+00 -.125112826658D-06 0.258597708176D-09 0.000000000000D+00  7 2 21 23 -11 11 23 2 2 0.95567523D-01 0.59944794D-01 0.61674529D+05 0.61674529D+05 0.61674529D+05 0.11393644D+01  1  2  5  4  7  2       -2 0.164825839068D-04 0.100000000000D+01
  </mgrwgt>
  </event>
  <event>
  8     66 0.55102590E-06 0.23709566E+03 0.75467711E-02 0.97927096E-01
        2 -1    0    0  501    0 0.00000000E+00 0.00000000E+00 0.20158885E+04 0.20158885E+04 0.32000000E+00 0.0000E+00 0.9000E+01
       -2 -1    0    0    0  501 0.00000000E+00 0.00000000E+00 -.85419438E+02 0.85420038E+02 0.32000000E+00 0.0000E+00 0.9000E+01
       25  2    1    2    0    0 -.23853312E+03 0.15360686E+03 0.16106425E+04 0.16637684E+04 0.30571735E+03 0.0000E+00 0.0000E+00
       23  2    1    2    0    0 0.23853312E+03 -.15360686E+03 0.31982657E+03 0.43754012E+03 0.93054808E+02 0.0000E+00 0.0000E+00
       23  1    3    3    0    0 -.20094466E+03 -.14349675E+02 0.91825834E+03 0.94450955E+03 0.91188000E+02 0.0000E+00 0.9000E+01
      -11  1    4    4    0    0 0.27026338E+02 0.11735223E+02 0.23509376E+02 0.37693888E+02 0.51099893E-03 0.0000E+00 0.9000E+01
       11  1    4    4    0    0 0.21150679E+03 -.16534208E+03 0.29631720E+03 0.39984623E+03 0.51099893E-03 0.0000E+00 0.9000E+01
       23  1    3    3    0    0 -.37588462E+02 0.16795654E+03 0.69238412E+03 0.71925886E+03 0.91188000E+02 0.0000E+00 0.9000E+01
#aMCatNLO 1  0  0  1  2 0.41144719D+02 0.00000000D+00  -5  7  0 0.00000000D+00 0.00000000D+00 0.00000000D+00 0.00000000D+00 0.00000000D+00
  <mgrwgt>
 0.4935488378D-03    9    2    0
 0.414965923087978D+03 0.000000000000000D+00 0.000000000000000D+00 0.414965923087978D+03
 0.414965923087978D+03 0.000000000000000D+00 0.000000000000000D+00 -.414965923087978D+03
 0.255486882904205D+03 -.200944662335114D+03 -.143496752561071D+02 0.127959468157608D+03
 0.407531844979489D+02 0.270263383700335D+02 0.117352225174076D+02 -.281546378683734D+02
 0.323121857006064D+03 0.211506786347607D+03 -.165342083231946D+03 -.179818267471564D+03
 0.210569921767740D+03 -.375884623825262D+02 0.167956535970646D+03 0.800134371823289D+02
 0.000000000000000D+00 0.000000000000000D+00 -.000000000000000D+00 0.000000000000000D+00
 0.438229705634484D+03 0.000000000000000D+00 0.000000000000000D+00 0.438229705634484D+03
 0.434075330385325D+03 0.000000000000000D+00 0.000000000000000D+00 -.434075330385325D+03
 0.257849079490893D+03 -.204432809979476D+03 -.212065155515437D+01 0.127959468157608D+03
 0.409951899402223D+02 0.264708534233011D+02 0.136826855469884D+02 -.281546378683734D+02
 0.312759916868685D+03 0.207185932805056D+03 -.150193693379351D+03 -.179818267471564D+03
 0.219346929690273D+03 -.405097723287215D+02 0.178198295268765D+03 0.800134371823289D+02
 0.413539200297362D+02 0.112857960798397D+02 -.395666358812481D+02 0.415437524915860D+01
0.549812747576D-05 0.000000000000D+00 0.000000000000D+00 0.296813992589D-08 0.000000000000D+00  7 2 -2 23 -11 11 23 21 0 0.31013674D+00 0.13141500D-01 0.12739098D+06 0.12739098D+06 0.12739098D+06 0.11131950D+01  1  2  2  1  7  1        2 0.189401348831D-03 0.100000000000D+01
-.297018511847D-06 0.000000000000D+00 -.211142571971D-07 0.296813992589D-08 0.000000000000D+00  7 2 -2 23 -11 11 23 21 2 0.31013674D+00 0.13141500D-01 0.12739098D+06 0.12739098D+06 0.12739098D+06 0.11131950D+01  1  2  3  1  7  1        2 -.126792699879D-04 0.100000000000D+01
0.352415212439D-06 0.000000000000D+00 0.000000000000D+00 0.296813992589D-08 0.000000000000D+00  7 2 -2 23 -11 11 23 21 2 0.31013674D+00 0.13141500D-01 0.12739098D+06 0.12739098D+06 0.12739098D+06 0.11131950D+01  1  2 15  1  7  1        2 0.150440711543D-04 0.100000000000D+01
0.987841885714D-05 0.000000000000D+00 0.000000000000D+00 0.296813992589D-08 0.000000000000D+00  7 2 -2 23 -11 11 23 21 2 0.33430434D+00 0.13141500D-01 0.14248068D+06 0.14248068D+06 0.14248068D+06 0.11093188D+01  1  2 12  1  7  1        2 0.342673162985D-03 0.100000000000D+01
-.818528988716D-05 0.000000000000D+00 0.000000000000D+00 0.296813992589D-08 0.000000000000D+00  7 2 -2 23 -11 11 23 21 2 0.31013674D+00 0.13141500D-01 0.12739098D+06 0.12739098D+06 0.12739098D+06 0.11131950D+01  1  2  4  1  7  1        2 -.349417616307D-03 0.100000000000D+01
-.374668705489D-04 0.000000000000D+00 -.713759474632D-05 0.296813992589D-08 0.000000000000D+00  7 2 -2 23 -11 11 23 21 2 0.33478881D+00 0.13141500D-01 0.12739098D+06 0.12739098D+06 0.12739098D+06 0.11131950D+01  1  2  5  1  7  1        2 -.130826869644D-02 0.100000000000D+01
0.379226467742D-04 0.000000000000D+00 0.711676732957D-05 0.296813992589D-08 0.000000000000D+00  7 2 -2 23 -11 11 23 21 2 0.31013674D+00 0.13141500D-01 0.12739098D+06 0.12739098D+06 0.12739098D+06 0.11131950D+01  1  2  6  1  7  1        2 0.161886029970D-02 0.100000000000D+01
0.125002496822D-06 0.000000000000D+00 0.000000000000D+00 0.296813992589D-08 0.000000000000D+00  7 21 -2 23 -11 11 23 -2 2 0.33430434D+00 0.13141500D-01 0.14248068D+06 0.14248068D+06 0.14248068D+06 0.11093188D+01  1  2 12  3  7  1        2 0.745367605661D-06 0.100000000000D+01
-.466613793028D-06 0.000000000000D+00 -.915976125179D-07 0.296813992589D-08 0.000000000000D+00  7 21 -2 23 -11 11 23 -2 2 0.33478881D+00 0.13141500D-01 0.12739098D+06 0.12739098D+06 0.12739098D+06 0.11131950D+01  1  2  5  3  7  1        2 -.280982976419D-05 0.100000000000D+01
  </mgrwgt>
  </event>
  <event>
  8     66 0.55102590E-06 0.18332875E+03 0.75467711E-02 0.10488448E+00
        2 -1    0    0  501    0 0.00000000E+00 0.00000000E+00 0.25172700E+03 0.25172720E+03 0.32000000E+00 0.0000E+00 0.9000E+01
       -2 -1    0    0    0  501 0.00000000E+00 0.00000000E+00 -.29961995E+03 0.29962012E+03 0.32000000E+00 0.0000E+00 0.9000E+01
       25  2    1    2    0    0 -.41667506E+02 0.59262395E+02 -.19542224E+03 0.36401060E+03 0.29843868E+03 0.0000E+00 0.0000E+00
       23  2    1    2    0    0 0.41667506E+02 -.59262395E+02 0.14752929E+03 0.18733673E+03 0.89899642E+02 0.0000E+00 0.0000E+00
       23  1    3    3    0    0 0.70720943E+02 0.66711287E+02 -.17345732E+02 0.13441716E+03 0.91188000E+02 0.0000E+00 0.9000E+01
      -11  1    4    4    0    0 0.22741552E+01 0.91891436E+01 0.87819163E+02 0.88327898E+02 0.51099893E-03 0.0000E+00 0.9000E+01
       11  1    4    4    0    0 0.39393351E+02 -.68451538E+02 0.59710130E+02 0.99008832E+02 0.51099893E-03 0.0000E+00 0.9000E+01
       23  1    3    3    0    0 -.11238845E+03 -.74488925E+01 -.17807651E+03 0.22959343E+03 0.91188000E+02 0.0000E+00 0.9000E+01
#aMCatNLO 1  0  0  1  2 0.64961328D+02 0.00000000D+00  -5  7  0 0.00000000D+00 0.00000000D+00 0.00000000D+00 0.00000000D+00 0.00000000D+00
  <mgrwgt>
 0.1782024723D-03    4    2    0
 0.274631634023548D+03 0.000000000000000D+00 0.000000000000000D+00 0.274631634023548D+03
 0.274631634023548D+03 0.000000000000000D+00 0.000000000000000D+00 -.274631634023548D+03
 0.133414718382729D+03 0.707209427446696D+02 0.667112874001335D+02 -.569105683198897D+01
 0.963204204029544D+02 0.227415519161652D+01 0.918914355218183D+01 0.958541143902739D+02
 0.104590917015494D+03 0.393933510798858D+02 -.684515384257908D+02 0.685697506192140D+02
 0.214937212245919D+03 -.112388449016172D+03 -.744889252652454D+01 -.158732808177499D+03
 0.000000000000000D+00 0.000000000000000D+00 -.000000000000000D+00 -.000000000000000D+00
 0.292781687375056D+03 0.000000000000000D+00 0.000000000000000D+00 0.292781687375056D+03
 0.341524444414519D+03 0.000000000000000D+00 0.000000000000000D+00 -.341524444414519D+03
 0.141682877254770D+03 0.696831464759133D+02 0.828894283521237D+02 -.569105683198897D+01
 0.980590872614495D+02 0.154086514846169D+01 0.206203560492805D+02 0.958541143902739D+02
 0.969424651129879D+02 0.386330732900414D+02 -.565996156379879D+02 0.685697506192140D+02
 0.216406983903422D+03 -.114015680240335D+03 0.179179129810104D+02 -.158732808177499D+03
 0.812147182569452D+02 0.415859532591846D+01 -.648280817444267D+02 -.487427570394634D+02
0.337739186692D-05 0.000000000000D+00 0.000000000000D+00 0.169313653079D-07 0.000000000000D+00  7 2 -2 23 -11 11 23 21 0 0.38727260D-01 0.46095406D-01 0.33609431D+05 0.33609431D+05 0.33609431D+05 0.11627856D+01  1  2  2  1  7  1        2 0.243605788182D-03 0.100000000000D+01
-.150370126079D-06 0.000000000000D+00 -.129700740567D-07 0.169313653079D-07 0.000000000000D+00  7 2 -2 23 -11 11 23 21 2 0.38727260D-01 0.46095406D-01 0.33609431D+05 0.33609431D+05 0.33609431D+05 0.11627856D+01  1  2  3  1  7  1        2 -.146644907716D-04 0.100000000000D+01
0.213205764502D-06 0.000000000000D+00 0.000000000000D+00 0.169313653079D-07 0.000000000000D+00  7 2 -2 23 -11 11 23 21 2 0.38727260D-01 0.46095406D-01 0.33609431D+05 0.33609431D+05 0.33609431D+05 0.11627856D+01  1  2 15  1  7  1        2 0.207923877404D-04 0.100000000000D+01
-.733483191161D-06 0.000000000000D+00 0.000000000000D+00 0.169313653079D-07 0.000000000000D+00  7 2 -2 23 -11 11 23 21 2 0.38727260D-01 0.46095406D-01 0.33609431D+05 0.33609431D+05 0.33609431D+05 0.11627856D+01  1  2  4  1  7  1        2 -.715312128040D-04 0.100000000000D+01
  </mgrwgt>
  </event>
  <event>
  9     66 0.55102590E-06 0.29818025E+03 0.75467711E-02 0.97837379E-01
        2 -1    0    0  501    0 0.00000000E+00 0.00000000E+00 0.16513951E+03 0.16513982E+03 0.32000000E+00 0.0000E+00 0.9000E+01
       -2 -1    0    0    0  502 0.00000000E+00 0.00000000E+00 -.13854373E+04 0.13854374E+04 0.32000000E+00 0.0000E+00 0.9000E+01
       25  2    1    2    0    0 0.25880826E+03 0.84219134E+02 -.22706732E+03 0.47273244E+03 0.31279676E+03 0.0000E+00 0.0000E+00
       23  2    1    2    0    0 -.17453104E+03 0.44767596E+02 -.82704748E+03 0.85122262E+03 0.90039983E+02 0.0000E+00 0.0000E+00
       23  1    3    3    0    0 0.96939130E+01 -.62592665E+02 -.70234497E+02 0.13137713E+03 0.91188000E+02 0.0000E+00 0.9000E+01
      -13  1    4    4    0    0 -.15872983E+03 0.16166138E+02 -.76085704E+03 0.77740591E+03 0.10565837E+00 0.0000E+00 0.9000E+01
       13  1    4    4    0    0 -.15801214E+02 0.28601458E+02 -.66190442E+02 0.73816716E+02 0.10565837E+00 0.0000E+00 0.9000E+01
       23  1    3    3    0    0 0.24911435E+03 0.14681180E+03 -.15683282E+03 0.34135531E+03 0.91188000E+02 0.0000E+00 0.9000E+01
       21  1    1    2  501  502 -.84277218E+02 -.12898673E+03 -.16618302E+03 0.22662212E+03 0.75000000E+00 0.0000E+00 0.9000E+01
#aMCatNLO 2  0  0  2  1 0.15407864D+03 0.00000000D+00  -5  7  0 0.00000000D+00 0.00000000D+00 0.00000000D+00 0.00000000D+00 0.00000000D+00
  <mgrwgt>
 0.5448928307D-04    1    2    0
 0.393051769253077D+03 0.000000000000000D+00 0.000000000000000D+00 0.393051769253077D+03
 0.393051769253077D+03 0.000000000000000D+00 0.000000000000000D+00 -.393051769253077D+03
 0.136316411545491D+03 -.416642435808618D+01 -.838060410785050D+02 0.567987772707815D+02
 0.303410748273447D+03 -.189902478642079D+03 -.315434170715885D+02 -.234521094174693D+03
 0.325655249677466D+02 -.193834138486086D+02 0.231186042470478D+02 -.122607838928381D+02
 0.313810853719470D+03 0.213452316848774D+03 0.922308539030458D+02 0.189983100796750D+03
 0.000000000000000D+00 -.000000000000000D+00 -.000000000000000D+00 0.000000000000000D+00
 0.490240906098365D+03 0.000000000000000D+00 0.000000000000000D+00 0.490240906098365D+03
 0.466688597406720D+03 0.000000000000000D+00 0.000000000000000D+00 -.466688597406720D+03
 0.124712302595955D+03 0.969399831907055D+01 -.625925903915071D+02 0.567987772707815D+02
 0.283648938797943D+03 -.158730063659720D+03 0.161661299909813D+02 -.234521094174693D+03
 0.349004796323035D+02 -.158010212249796D+02 0.286014752267378D+02 -.122607838928381D+02
 0.357799449660930D+03 0.249114304112526D+03 0.146811715240468D+03 0.189983100796750D+03
 0.155868332817953D+03 -.842772175468973D+02 -.128986730066680D+03 0.235523086916451D+02
0.160208687470D-04 0.000000000000D+00 0.000000000000D+00 0.190126887637D-08 0.539556911264D-12  7 2 -2 23 -13 13 23 21 2 0.25406057D-01 0.21314383D+00 0.14460051D+06 0.14460051D+06 0.14460051D+06 0.11088105D+01  1  2  1  2  7  2       -2 0.544892830702D-04 0.100000000000D+01
  </mgrwgt>
  </event>
  <event>
  8     66 0.55102590E-06 0.96261185E+02 0.75467711E-02 0.10749535E+00
        2 -1    0    0  501    0 0.00000000E+00 0.00000000E+00 0.12118950E+04 0.12118950E+04 0.32000000E+00 0.0000E+00 0.9000E+01
       -2 -1    0    0    0  501 0.00000000E+00 0.00000000E+00 -.66520151E+02 0.66520921E+02 0.32000000E+00 0.0000E+00 0.9000E+01
       25  2    1    2    0    0 -.35763877E+02 -.39845495E+02 0.30474362E+03 0.43101287E+03 0.30006117E+03 0.0000E+00 0.0000E+00
       23  2    1    2    0    0 0.35763877E+02 0.39845495E+02 0.84063122E+03 0.84740308E+03 0.92544114E+02 0.0000E+00 0.0000E+00
       23  1    3    3    0    0 -.33192759E+02 0.63555633E+02 0.26219118E+03 0.28670637E+03 0.91188000E+02 0.0000E+00 0.9000E+01
      -11  1    4    4    0    0 0.48934315E+02 0.46333797E+02 0.34311438E+03 0.34966965E+03 0.51099893E-03 0.0000E+00 0.9000E+01
       11  1    4    4    0    0 -.13170439E+02 -.64883018E+01 0.49751685E+03 0.49773343E+03 0.51099893E-03 0.0000E+00 0.9000E+01
       23  1    3    3    0    0 -.25711174E+01 -.10340113E+03 0.42552434E+02 0.14430650E+03 0.91188000E+02 0.0000E+00 0.9000E+01
#aMCatNLO 1  0  0  1  2 0.38894691D+02 0.00000000D+00  -5  7  0 0.00000000D+00 0.00000000D+00 0.00000000D+00 0.00000000D+00 0.00000000D+00
  <mgrwgt>
 0.2818543780D-03    9    2    0
 0.283929492906382D+03 0.000000000000000D+00 0.000000000000000D+00 0.283929492906382D+03
 0.283929492906382D+03 0.000000000000000D+00 0.000000000000000D+00 -.283929492906382D+03
 0.116618423683091D+03 -.331927591633212D+02 0.635556329491890D+02 0.119803029128126D+02
 0.951445430620461D+02 0.489343154082728D+02 0.463337970463378D+02 0.671646938597801D+02
 0.117048573480369D+03 -.131704388186936D+02 -.648830174782188D+01 0.116124114789054D+03
 0.239047445587258D+03 -.257111742625795D+01 -.103401128247705D+03 -.195269111561647D+03
 0.000000000000000D+00 -.000000000000000D+00 -.000000000000000D+00 0.000000000000000D+00
 0.307770653611853D+03 0.000000000000000D+00 0.000000000000000D+00 0.307770653611853D+03
 0.300913344230825D+03 0.000000000000000D+00 0.000000000000000D+00 -.300913344230825D+03
 0.116312136745122D+03 -.257442454514639D+02 0.663849981431651D+02 0.119803029128126D+02
 0.996276466529428D+02 0.551626236350402D+02 0.486996594446466D+02 0.671646938597801D+02
 0.116321702652608D+03 -.570786414184218D+01 -.365359540707654D+01 0.116124114789054D+03
 0.236927959344596D+03 0.126493385054332D+02 -.976195414888568D+02 -.195269111561647D+03
 0.394945524474080D+02 -.363598525471673D+02 -.138115206918783D+02 0.685730938102739D+01
0.104902633945D-05 0.000000000000D+00 0.000000000000D+00 0.207737267372D-06 0.000000000000D+00  7 2 -2 23 -11 11 23 21 0 0.18644545D+00 0.10233932D-01 0.28217812D+05 0.28217812D+05 0.28217812D+05 0.11698118D+01  1  2  2  1  7  1        2 0.146771044882D-03 0.100000000000D+01
-.387582642476D-07 0.000000000000D+00 -.402853735846D-08 0.207737267372D-06 0.000000000000D+00  7 2 -2 23 -11 11 23 21 2 0.18644545D+00 0.10233932D-01 0.28217812D+05 0.28217812D+05 0.28217812D+05 0.11698118D+01  1  2  3  1  7  1        2 -.742079267022D-05 0.100000000000D+01
0.645008565296D-07 0.000000000000D+00 0.000000000000D+00 0.207737267372D-06 0.000000000000D+00  7 2 -2 23 -11 11 23 21 2 0.18644545D+00 0.10233932D-01 0.28217812D+05 0.28217812D+05 0.28217812D+05 0.11698118D+01  1  2 15  1  7  1        2 0.123495593172D-04 0.100000000000D+01
0.151866248596D-05 0.000000000000D+00 0.000000000000D+00 0.207737267372D-06 0.000000000000D+00  7 2 -2 23 -11 11 23 21 2 0.20727811D+00 0.10233932D-01 0.34064443D+05 0.34064443D+05 0.34064443D+05 0.11622506D+01  1  2 12  1  7  1        2 0.242100786463D-03 0.100000000000D+01
-.135986882908D-05 0.000000000000D+00 0.000000000000D+00 0.207737267372D-06 0.000000000000D+00  7 2 -2 23 -11 11 23 21 2 0.18644545D+00 0.10233932D-01 0.28217812D+05 0.28217812D+05 0.28217812D+05 0.11698118D+01  1  2  4  1  7  1        2 -.260365236555D-03 0.100000000000D+01
-.400721980765D-05 0.000000000000D+00 -.107381391967D-05 0.207737267372D-06 0.000000000000D+00  7 2 -2 23 -11 11 23 21 2 0.20962161D+00 0.10233932D-01 0.28217812D+05 0.28217812D+05 0.28217812D+05 0.11698118D+01  1  2  5  1  7  1        2 -.635667317854D-03 0.100000000000D+01
0.411210499010D-05 0.000000000000D+00 0.106648533086D-05 0.207737267372D-06 0.000000000000D+00  7 2 -2 23 -11 11 23 21 2 0.18644545D+00 0.10233932D-01 0.28217812D+05 0.28217812D+05 0.28217812D+05 0.11698118D+01  1  2  6  1  7  1        2 0.787317986554D-03 0.100000000000D+01
0.259184474844D-07 0.000000000000D+00 0.000000000000D+00 0.207737267372D-06 0.000000000000D+00  7 21 -2 23 -11 11 23 -2 2 0.20727811D+00 0.10233932D-01 0.34064443D+05 0.34064443D+05 0.34064443D+05 0.11622506D+01  1  2 12  3  7  1        2 0.195496717604D-05 0.100000000000D+01
-.697637731241D-07 0.000000000000D+00 -.199681021596D-07 0.207737267372D-06 0.000000000000D+00  7 21 -2 23 -11 11 23 -2 2 0.20962161D+00 0.10233932D-01 0.28217812D+05 0.28217812D+05 0.28217812D+05 0.11698118D+01  1  2  5  3  7  1        2 -.518661928435D-05 0.100000000000D+01
  </mgrwgt>
  </event>
  <event>
  9     66 0.55102590E-06 0.20905707E+03 0.75467711E-02 0.95557597E-01
        2 -1    0    0  502    0 0.00000000E+00 0.00000000E+00 0.67921746E+03 0.67921754E+03 0.32000000E+00 0.0000E+00 0.9000E+01
       -2 -1    0    0    0  501 0.00000000E+00 0.00000000E+00 -.38130749E+03 0.38130762E+03 0.32000000E+00 0.0000E+00 0.9000E+01
       25  2    1    2    0    0 -.50583892E+02 0.14477085E+03 0.24949994E+03 0.41959086E+03 0.30048118E+03 0.0000E+00 0.0000E+00
       23  2    1    2    0    0 -.26472563E+02 0.20577171E+03 -.10483758E+03 0.25067390E+03 0.93827995E+02 0.0000E+00 0.0000E+00
       23  1    3    3    0    0 -.31502484E+01 -.57882018E+02 0.10265245E+03 0.14904036E+03 0.91188000E+02 0.0000E+00 0.9000E+01
      -13  1    4    4    0    0 -.61866329E+02 0.12466748E+03 -.66174513E+02 0.15410549E+03 0.10565837E+00 0.0000E+00 0.9000E+01
       13  1    4    4    0    0 0.35393766E+02 0.81104227E+02 -.38663068E+02 0.96568413E+02 0.10565837E+00 0.0000E+00 0.9000E+01
       23  1    3    3    0    0 -.47433644E+02 0.20265287E+03 0.14684749E+03 0.27055050E+03 0.91188000E+02 0.0000E+00 0.9000E+01
       21  1    1    2  502  501 0.77056455E+02 -.35054256E+03 0.15324762E+03 0.39026040E+03 0.75000000E+00 0.0000E+00 0.9000E+01
#aMCatNLO 2  0  0  1  2 0.35891195D+03 0.00000000D+00  -5  7  0 0.00000000D+00 0.00000000D+00 0.00000000D+00 0.00000000D+00 0.00000000D+00
  <mgrwgt>
 0.8829505654D-05    1    2    0
 0.273637472446471D+03 0.000000000000000D+00 0.000000000000000D+00 0.273637472446471D+03
 0.273637472446471D+03 0.000000000000000D+00 0.000000000000000D+00 -.273637472446471D+03
 0.192031302710889D+03 0.174952424608523D+02 -.151801773057423D+03 0.721866197068387D+02
 0.117666642078919D+03 -.432638353633352D+02 0.400411860742079D+02 -.101835075615199D+03
 0.815244769215930D+02 0.475107395880024D+02 0.259825895632148D+02 -.609415703828667D+02
 0.156052523181541D+03 -.217421466855195D+02 0.857779974200003D+02 0.905900262912265D+02
 0.000000000000000D+00 0.000000000000000D+00 -.000000000000000D+00 0.000000000000000D+00
 0.545478784604349D+03 0.000000000000000D+00 0.000000000000000D+00 0.545478784604349D+03
 0.474794670947168D+03 0.000000000000000D+00 0.000000000000000D+00 -.474794670947168D+03
 0.129947725342665D+03 -.315024898644035D+01 -.578820165885422D+02 0.721866197068387D+02
 0.172452414494615D+03 -.618664460283666D+02 0.124667539862181D+03 -.101835075615199D+03
 0.107445283066361D+03 0.353938834461193D+02 0.811041729326121D+02 -.609415703828667D+02
 0.244622032963475D+03 -.474336433399656D+02 0.202652866456991D+03 0.905900262912265D+02
 0.365805999684401D+03 0.770564549086532D+02 -.350542562663242D+03 0.706841136571813D+02
0.505096214111D-06 0.000000000000D+00 0.000000000000D+00 0.362274942560D-07 0.225201518478D-11  7 2 -2 23 -13 13 23 21 2 0.10449493D+00 0.58662662D-01 0.21245644D+06 0.21245644D+06 0.21245644D+06 0.10958158D+01  1  2  1  1  7  1        2 0.882950565382D-05 0.100000000000D+01
  </mgrwgt>
  </event>
  <event>
  8     66 0.55102590E-06 0.90675522E+02 0.75467711E-02 0.10703732E+00
        2 -1    0    0  501    0 0.00000000E+00 0.00000000E+00 0.49499623E+03 0.49499633E+03 0.32000000E+00 0.0000E+00 0.9000E+01
       -2 -1    0    0    0  501 0.00000000E+00 0.00000000E+00 -.94669385E+02 0.94669926E+02 0.32000000E+00 0.0000E+00 0.9000E+01
       25  2    1    2    0    0 0.41577625E+02 -.60990921E+02 0.33562856E+03 0.45605703E+03 0.29982142E+03 0.0000E+00 0.0000E+00
       23  2    1    2    0    0 -.41577625E+02 0.60990921E+02 0.64698282E+02 0.13360923E+03 0.90647496E+02 0.0000E+00 0.0000E+00
       23  1    3    3    0    0 -.82051583E+00 -.11632171E+03 0.30235968E+03 0.33655318E+03 0.91188000E+02 0.0000E+00 0.9000E+01
      -13  1    4    4    0    0 -.47679879E+02 0.41448549E+02 -.26350509E+01 0.63232174E+02 0.10565837E+00 0.0000E+00 0.9000E+01
       13  1    4    4    0    0 0.61022545E+01 0.19542371E+02 0.67333333E+02 0.70377061E+02 0.10565837E+00 0.0000E+00 0.9000E+01
       23  1    3    3    0    0 0.42398141E+02 0.55330793E+02 0.33268881E+02 0.11950384E+03 0.91188000E+02 0.0000E+00 0.9000E+01
#aMCatNLO 1  0  0  2  1 0.33289013D+02 0.00000000D+00  -5  7  0 0.00000000D+00 0.00000000D+00 0.00000000D+00 0.00000000D+00 0.00000000D+00
  <mgrwgt>
 0.1704837672D-03    9    2    0
 0.216474429556052D+03 0.000000000000000D+00 0.000000000000000D+00 0.216474429556052D+03
 0.216474429556052D+03 0.000000000000000D+00 0.000000000000000D+00 -.216474429556052D+03
 0.178800234071870D+03 -.820508671229302D+00 -.116321715572191D+03 0.100612412812824D+03
 0.885573370356609D+02 -.476799584594516D+02 0.414485890172918D+02 -.620567318880736D+02
 0.335919682890395D+02 0.610232418837474D+01 0.195423452311649D+02 0.266322870947610D+02
 0.131999319715535D+03 0.423981429423062D+02 0.553307813237343D+02 -.651879680195113D+02
 0.000000000000000D+00 -.000000000000000D+00 -.000000000000000D+00 -.000000000000000D+00
 0.225954500622822D+03 0.000000000000000D+00 0.000000000000000D+00 0.225954500622822D+03
 0.248448713633814D+03 0.000000000000000D+00 0.000000000000000D+00 -.248448713633814D+03
 0.175116801799998D+03 0.112102819223611D+02 -.110009612742991D+03 0.100612412812824D+03
 0.870529970982336D+02 -.417103923128810D+02 0.445805956023737D+02 -.620567318880736D+02
 0.348047098196779D+02 0.842734962716458D+01 0.207621985347347D+02 0.266322870947610D+02
 0.137252244288069D+03 0.515508789092089D+02 0.601328772576781D+02 -.651879680195113D+02
 0.401764612506576D+02 -.294781181458536D+02 -.154660586517957D+02 -.224942130109924D+02
0.582281933730D-06 0.000000000000D+00 0.000000000000D+00 0.171440429892D-06 0.000000000000D+00  7 2 -2 23 -13 13 23 21 0 0.76153316D-01 0.14564570D-01 0.29969831D+05 0.29969831D+05 0.29969831D+05 0.11673765D+01  1  2  2  2  7  2       -2 0.144335682630D-03 0.100000000000D+01
-.303843057871D-07 0.000000000000D+00 -.223611594388D-08 0.171440429892D-06 0.000000000000D+00  7 2 -2 23 -13 13 23 21 2 0.76153316D-01 0.14564570D-01 0.29969831D+05 0.29969831D+05 0.29969831D+05 0.11673765D+01  1  2  3  2  7  2       -2 -.102638802805D-04 0.100000000000D+01
0.374892772743D-07 0.000000000000D+00 0.000000000000D+00 0.171440429892D-06 0.000000000000D+00  7 2 -2 23 -13 13 23 21 2 0.76153316D-01 0.14564570D-01 0.29969831D+05 0.29969831D+05 0.29969831D+05 0.11673765D+01  1  2 15  2  7  2       -2 0.126639540967D-04 0.100000000000D+01
0.108694164686D-05 0.000000000000D+00 0.000000000000D+00 0.171440429892D-06 0.000000000000D+00  7 2 -2 23 -13 13 23 21 2 0.76153316D-01 0.17001262D-01 0.36263430D+05 0.36263430D+05 0.36263430D+05 0.11597718D+01  1  2 12  2  7  2       -2 0.284343029997D-03 0.100000000000D+01
-.109663364666D-05 0.000000000000D+00 0.000000000000D+00 0.171440429892D-06 0.000000000000D+00  7 2 -2 23 -13 13 23 21 2 0.76153316D-01 0.14564570D-01 0.29969831D+05 0.29969831D+05 0.29969831D+05 0.11673765D+01  1  2  4  2  7  2       -2 -.370445075816D-03 0.100000000000D+01
-.207975679032D-05 0.000000000000D+00 -.472233706589D-06 0.171440429892D-06 0.000000000000D+00  7 2 -2 23 -13 13 23 21 2 0.76153316D-01 0.17403833D-01 0.29969831D+05 0.29969831D+05 0.29969831D+05 0.11673765D+01  1  2  5  2  7  2       -2 -.529790574683D-03 0.100000000000D+01
0.213726685429D-05 0.000000000000D+00 0.464842011329D-06 0.171440429892D-06 0.000000000000D+00  7 2 -2 23 -13 13 23 21 2 0.76153316D-01 0.14564570D-01 0.29969831D+05 0.29969831D+05 0.29969831D+05 0.11673765D+01  1  2  6  2  7  2       -2 0.721973089454D-03 0.100000000000D+01
0.254188890117D-07 0.000000000000D+00 0.000000000000D+00 0.171440429892D-06 0.000000000000D+00  7 2 21 23 -13 13 23 2 2 0.76153316D-01 0.17001262D-01 0.36263430D+05 0.36263430D+05 0.36263430D+05 0.11597718D+01  1  2 12  4  7  2       -2 0.901651374880D-04 0.100000000000D+01
-.499508824029D-07 0.000000000000D+00 -.123514702980D-07 0.171440429892D-06 0.000000000000D+00  7 2 21 23 -13 13 23 2 2 0.76153316D-01 0.17403833D-01 0.29969831D+05 0.29969831D+05 0.29969831D+05 0.11673765D+01  1  2  5  4  7  2       -2 -.172497595734D-03 0.100000000000D+01
  </mgrwgt>
  </event>
  <event>
  8     66 0.55102590E-06 0.35794801E+03 0.75467711E-02 0.88039167E-01
        2 -1    0    0  501    0 0.00000000E+00 0.00000000E+00 0.91332291E+03 0.91332296E+03 0.32000000E+00 0.0000E+00 0.9000E+01
       -2 -1    0    0    0  501 0.00000000E+00 0.00000000E+00 -.25729039E+03 0.25729059E+03 0.32000000E+00 0.0000E+00 0.9000E+01
       25  2    1    2    0    0 -.10401133E+03 0.27582204E+03 0.73910824E+03 0.85014365E+03 0.29927759E+03 0.0000E+00 0.0000E+00
       23  2    1    2    0    0 0.10401133E+03 -.27582204E+03 -.83075721E+02 0.32046990E+03 0.94356887E+02 0.0000E+00 0.0000E+00
       23  1    3    3    0    0 -.34629197E+02 0.28657484E+03 0.57320667E+03 0.64823257E+03 0.91188000E+02 0.0000E+00 0.9000E+01
      -11  1    4    4    0    0 0.10396449E+03 -.23156209E+03 -.36882961E+02 0.25649555E+03 0.51099893E-03 0.0000E+00 0.9000E+01
       11  1    4    4    0    0 0.46846251E-01 -.44259960E+02 -.46192760E+02 0.63974349E+02 0.51099893E-03 0.0000E+00 0.9000E+01
       23  1    3    3    0    0 -.69382135E+02 -.10752800E+02 0.16590157E+03 0.20191109E+03 0.91188000E+02 0.0000E+00 0.9000E+01
#aMCatNLO 1  0  0  1  1 0.81744826D+03 0.00000000D+00  -5  7  0 0.00000000D+00 0.00000000D+00 0.00000000D+00 0.00000000D+00 0.00000000D+00
  <mgrwgt>
 0.3028088643D-03    5    2    0
 0.484757004412415D+03 0.000000000000000D+00 0.000000000000000D+00 0.484757004412415D+03
 0.484757004412415D+03 0.000000000000000D+00 0.000000000000000D+00 -.484757004412415D+03
 0.394824215892949D+03 -.346291967272581D+02 0.286574844345690D+03 0.253469105481813D+03
 0.334655902833422D+03 0.103964485478445D+03 -.231562085111137D+03 -.218093924260713D+03
 0.108500952030970D+03 0.468462512511998D-01 -.442599595796716D+02 -.990631635627567D+02
 0.131532938067489D+03 -.693821350024385D+02 -.107527996548816D+02 0.636879823416566D+02
 0.000000000000000D+00 0.000000000000000D+00 0.000000000000000D+00 0.000000000000000D+00
 0.183181068342849D+04 0.000000000000000D+00 0.000000000000000D+00 0.183181068342849D+04
 0.773545447286996D+03 0.000000000000000D+00 0.000000000000000D+00 -.773545447286996D+03
 0.306618361659625D+03 -.137046309712955D+03 0.516845230522944D+02 0.253469105481813D+03
 0.581669773382586D+03 -.298275501293106D+02 -.538409772126021D+03 -.218093924260713D+03
 0.176112833343565D+03 -.415094024664935D+02 -.139567865929487D+03 -.990631635627567D+02
 0.203739036206241D+03 -.118334948488524D+03 -.123024487000415D+03 0.636879823416566D+02
 0.133721612612347D+04 0.326718210797284D+03 0.749317602003629D+03 0.105826523614149D+04
0.135882834061D-04 0.000000000000D+00 0.000000000000D+00 0.921405917197D-07 0.000000000000D+00  7 2 -2 23 -11 11 23 21 0 0.14051124D+00 0.39583156D-01 0.12812678D+06 0.12812678D+06 0.12812678D+06 0.11129945D+01  1  2  2  1  7  1        2 0.296833964120D-03 0.100000000000D+01
-.670492706683D-06 0.000000000000D+00 -.521825861566D-07 0.921405917197D-07 0.000000000000D+00  7 2 -2 23 -11 11 23 21 2 0.14051124D+00 0.39583156D-01 0.12812678D+06 0.12812678D+06 0.12812678D+06 0.11129945D+01  1  2  3  1  7  1        2 -.181438361378D-04 0.100000000000D+01
0.856410683176D-06 0.000000000000D+00 0.000000000000D+00 0.921405917197D-07 0.000000000000D+00  7 2 -2 23 -11 11 23 21 2 0.14051124D+00 0.39583156D-01 0.12812678D+06 0.12812678D+06 0.12812678D+06 0.11129945D+01  1  2 15  1  7  1        2 0.231748607365D-04 0.100000000000D+01
0.203649308679D-05 0.000000000000D+00 -.470709770137D-05 0.921405917197D-07 0.000000000000D+00  7 2 -2 23 -11 11 23 21 2 0.59177497D+00 0.39583156D-01 0.12812678D+06 0.12812678D+06 0.12812678D+06 0.11129945D+01  1  2  5  1  7  1        2 0.939918327055D-06 0.100000000000D+01
0.365658627633D-06 0.000000000000D+00 -.812783188711D-06 0.921405917197D-07 0.000000000000D+00  7 21 -2 23 -11 11 23 -2 2 0.59177497D+00 0.39583156D-01 0.12812678D+06 0.12812678D+06 0.12812678D+06 0.11129945D+01  1  2  5  3  7  1        2 0.395727666110D-08 0.100000000000D+01
  </mgrwgt>
  </event>
  <event>
  7     66 0.55102590E-06 0.19728834E+03 0.75467711E-02 0.10207835E+00
        2 -1    0    0  501    0 0.00000000E+00 0.00000000E+00 0.18768399E+04 0.18768399E+04 0.32000000E+00 0.0000E+00 0.9000E+01
       -2 -1    0    0    0  501 0.00000000E+00 0.00000000E+00 -.92487696E+02 0.92488250E+02 0.32000000E+00 0.0000E+00 0.9000E+01
       25  2    1    2    0    0 0.55988881E+02 0.27010200E+02 0.16143969E+04 0.16431092E+04 0.29944335E+03 0.0000E+00 0.0000E+00
       23  1    3    3    0    0 0.13635413E+03 0.62866702E+02 0.10560775E+04 0.10705885E+04 0.91188000E+02 0.0000E+00 0.9000E+01
      -13  1    1    2    0    0 0.15169093E+02 -.12293435E+02 -.71473302E+02 0.74092334E+02 0.10565837E+00 0.0000E+00 0.9000E+01
       13  1    1    2    0    0 -.71157974E+02 -.14716765E+02 0.24142857E+03 0.25212657E+03 0.10565837E+00 0.0000E+00 0.9000E+01
       23  1    3    3    0    0 -.80365254E+02 -.35856502E+02 0.55831939E+03 0.57252079E+03 0.91188000E+02 0.0000E+00 0.9000E+01
#aMCatNLO 1  0  0  1  2 0.12989107D+03 0.00000000D+00  -5  7  0 0.00000000D+00 0.00000000D+00 0.00000000D+00 0.00000000D+00 0.00000000D+00
  <mgrwgt>
 0.9353500344D-03    4    2    0
 0.416635533856347D+03 0.000000000000000D+00 0.000000000000000D+00 0.416635533856347D+03
 0.416635533856347D+03 0.000000000000000D+00 0.000000000000000D+00 -.416635533856347D+03
 0.268736718637655D+03 0.136355367904018D+03 0.628672966665165D+02 0.203369341971050D+03
 0.328159932513653D+03 0.151623839690969D+02 -.122950046029783D+02 -.327578809268169D+03
 0.788693523270104D+02 -.711532207510615D+02 -.147161392471786D+02 0.306761985730056D+02
 0.157505064234375D+03 -.803645311220534D+02 -.358561528163596D+02 0.935332687241128D+02
 0.000000000000000D+00 0.000000000000000D+00 -.000000000000000D+00 -.000000000000000D+00
 0.467787647729668D+03 0.000000000000000D+00 0.000000000000000D+00 0.467787647729668D+03
 0.513121218934306D+03 0.000000000000000D+00 0.000000000000000D+00 -.513121218934306D+03
 0.262233184654191D+03 0.105137429394211D+03 0.896550248258182D+02 0.203369341971050D+03
 0.329081203611877D+03 -.234795677620255D+02 0.208631777732536D+02 -.327578809268169D+03
 0.867452889721051D+02 -.808903972959959D+02 -.636078810050072D+01 0.306761985730056D+02
 0.165274398197223D+03 -.993420839888861D+02 -.195717486695004D+02 0.935332687241128D+02
 0.137574791228578D+03 0.985746196526962D+02 -.845856658290707D+02 -.453335712046382D+02
0.383430438762D-04 0.000000000000D+00 0.000000000000D+00 0.149092491299D-09 0.000000000000D+00  7 2 -2 23 -13 13 23 21 0 0.28874464D+00 0.14228921D-01 0.38922687D+05 0.38922687D+05 0.38922687D+05 0.11569872D+01  1  2  2  1  7  1        2 0.142635878333D-02 0.100000000000D+01
-.682828059222D-06 0.000000000000D+00 -.147247384440D-06 0.149092491299D-09 0.000000000000D+00  7 2 -2 23 -13 13 23 21 2 0.28874464D+00 0.14228921D-01 0.38922687D+05 0.38922687D+05 0.38922687D+05 0.11569872D+01  1  2  3  1  7  1        2 -.340024845411D-04 0.100000000000D+01
0.239142165051D-05 0.000000000000D+00 0.000000000000D+00 0.149092491299D-09 0.000000000000D+00  7 2 -2 23 -13 13 23 21 2 0.28874464D+00 0.14228921D-01 0.38922687D+05 0.38922687D+05 0.38922687D+05 0.11569872D+01  1  2 15  1  7  1        2 0.119084558117D-03 0.100000000000D+01
-.115688892618D-04 0.000000000000D+00 0.000000000000D+00 0.149092491299D-09 0.000000000000D+00  7 2 -2 23 -13 13 23 21 2 0.28874464D+00 0.14228921D-01 0.38922687D+05 0.38922687D+05 0.38922687D+05 0.11569872D+01  1  2  4  1  7  1        2 -.576090822527D-03 0.100000000000D+01
  </mgrwgt>
  </event>
  <event>
  8     66 0.55102590E-06 0.26451972E+03 0.75467711E-02 0.93891668E-01
        2 -1    0    0  501    0 0.00000000E+00 0.00000000E+00 0.29179054E+04 0.29179054E+04 0.32000000E+00 0.0000E+00 0.9000E+01
       -2 -1    0    0    0  501 0.00000000E+00 0.00000000E+00 -.78411266E+02 0.78411919E+02 0.32000000E+00 0.0000E+00 0.9000E+01
       25  2    1    2    0    0 -.33349424E+03 -.26416367E+03 0.16101656E+04 0.16921913E+04 0.29979521E+03 0.0000E+00 0.0000E+00
       23  2    1    2    0    0 0.33349424E+03 0.26416367E+03 0.12293286E+04 0.13041261E+04 0.92170021E+02 0.0000E+00 0.0000E+00
       23  1    3    3    0    0 -.98526700E+02 -.52344732E+01 0.70272915E+03 0.71545679E+03 0.91188000E+02 0.0000E+00 0.9000E+01
      -11  1    4    4    0    0 0.30816384E+03 0.22638394E+03 0.11582757E+04 0.12197611E+04 0.51099893E-03 0.0000E+00 0.9000E+01
       11  1    4    4    0    0 0.25330405E+02 0.37779728E+02 0.71052871E+02 0.84364967E+02 0.51099893E-03 0.0000E+00 0.9000E+01
       23  1    3    3    0    0 -.23496754E+03 -.25892919E+03 0.90743646E+03 0.97673448E+03 0.91188000E+02 0.0000E+00 0.9000E+01
#aMCatNLO 1  0  0  1  2 0.13604445D+03 0.00000000D+00  -5  7  0 0.00000000D+00 0.00000000D+00 0.00000000D+00 0.00000000D+00 0.00000000D+00
  <mgrwgt>
 0.2734178474D-03    7    2    0
 0.478327987331291D+03 0.000000000000000D+00 0.000000000000000D+00 0.478327987331291D+03
 0.478327987331291D+03 0.000000000000000D+00 0.000000000000000D+00 -.478327987331291D+03
 0.155061267179440D+03 -.985266998924739D+02 -.523447315906961D+01 0.774198613686373D+02
 0.382451375528990D+03 0.308163837747153D+03 0.226383939785083D+03 0.737669006719215D+01
 0.533420647727643D+02 0.253304050612517D+02 0.377797280601470D+02 -.278646478778405D+02
 0.365801267181388D+03 -.234967542915931D+03 -.258929194686160D+03 -.569319035579889D+02
 0.000000000000000D+00 -.000000000000000D+00 0.000000000000000D+00 0.000000000000000D+00
 0.966886127053697D+03 0.000000000000000D+00 0.000000000000000D+00 0.966886127053697D+03
 0.492705433337888D+03 0.000000000000000D+00 0.000000000000000D+00 -.492705433337888D+03
 0.143327624107183D+03 -.781954837600269D+02 -.109173198820153D+02 0.774198613686373D+02
 0.419838577464253D+03 0.362829178554120D+03 0.211104246192735D+03 0.737669006719215D+01
 0.559016842291991D+02 0.327739069372790D+02 0.356991697714613D+02 -.278646478778405D+02
 0.347212998275726D+03 -.186385147391689D+03 -.272508623747325D+03 -.569319035579889D+02
 0.493310676315225D+03 -.131022454339683D+03 0.366225276651441D+02 0.474180693715809D+03
0.231034516876D-04 0.000000000000D+00 0.000000000000D+00 0.825091743535D-06 0.000000000000D+00  7 2 -2 23 -11 11 23 21 0 0.44890858D+00 0.12063323D-01 0.21324098D+06 0.21324098D+06 0.21324098D+06 0.10956935D+01  1  2  2  1  7  1        2 0.271351464491D-03 0.100000000000D+01
-.128159064179D-05 0.000000000000D+00 -.887233377590D-07 0.825091743535D-06 0.000000000000D+00  7 2 -2 23 -11 11 23 21 2 0.44890858D+00 0.12063323D-01 0.21324098D+06 0.21324098D+06 0.21324098D+06 0.10956935D+01  1  2  3  1  7  1        2 -.180710263976D-04 0.100000000000D+01
0.142916433135D-05 0.000000000000D+00 0.000000000000D+00 0.825091743535D-06 0.000000000000D+00  7 2 -2 23 -11 11 23 21 2 0.44890858D+00 0.12063323D-01 0.21324098D+06 0.21324098D+06 0.21324098D+06 0.10956935D+01  1  2 15  1  7  1        2 0.201518843194D-04 0.100000000000D+01
0.548882040456D-04 0.000000000000D+00 0.000000000000D+00 0.825091743535D-06 0.000000000000D+00  7 2 -2 23 -11 11 23 21 2 0.90736239D+00 0.12063323D-01 0.28484261D+06 0.28484261D+06 0.28484261D+06 0.10862217D+01  1  2 12  1  7  1        2 0.236350289708D-06 0.100000000000D+01
-.572465855862D-04 0.000000000000D+00 -.437817473514D-05 0.825091743535D-06 0.000000000000D+00  7 2 -2 23 -11 11 23 21 2 0.90827041D+00 0.12063323D-01 0.21324098D+06 0.21324098D+06 0.21324098D+06 0.10956935D+01  1  2  5  1  7  1        2 -.250825589789D-06 0.100000000000D+01
0.417786906427D-05 0.000000000000D+00 0.000000000000D+00 0.825091743535D-06 0.000000000000D+00  7 21 -2 23 -11 11 23 -2 2 0.90736239D+00 0.12063323D-01 0.28484261D+06 0.28484261D+06 0.28484261D+06 0.10862217D+01  1  2 12  3  7  1        2 0.432109814519D-10 0.100000000000D+01
-.409843135447D-05 0.000000000000D+00 -.333713657097D-06 0.825091743535D-06 0.000000000000D+00  7 21 -2 23 -11 11 23 -2 2 0.90827041D+00 0.12063323D-01 0.21324098D+06 0.21324098D+06 0.21324098D+06 0.10956935D+01  1  2  5  3  7  1        2 -.429200918410D-10 0.100000000000D+01
  </mgrwgt>
  </event>
  <event>
  8     66 0.55102590E-06 0.29450679E+03 0.75467711E-02 0.94962486E-01
        2 -1    0    0  501    0 0.00000000E+00 0.00000000E+00 0.53314321E+02 0.53315281E+02 0.32000000E+00 0.0000E+00 0.9000E+01
       -2 -1    0    0    0  501 0.00000000E+00 0.00000000E+00 -.19346908E+04 0.19346908E+04 0.32000000E+00 0.0000E+00 0.9000E+01
       25  2    1    2    0    0 -.20603749E+03 -.49618978E+02 -.14859538E+04 0.15302329E+04 0.29772550E+03 0.0000E+00 0.0000E+00
       23  2    1    2    0    0 0.20603749E+03 0.49618978E+02 -.39542266E+03 0.45777321E+03 0.91015066E+02 0.0000E+00 0.0000E+00
       23  1    3    3    0    0 -.15675632E+03 0.79591397E+02 -.88314057E+03 0.90507450E+03 0.91188000E+02 0.0000E+00 0.9000E+01
      -11  1    4    4    0    0 0.17871096E+03 0.12393647E+02 -.34901669E+03 0.39230583E+03 0.51099893E-03 0.0000E+00 0.9000E+01
       11  1    4    4    0    0 0.27326525E+02 0.37225332E+02 -.46405966E+02 0.65467381E+02 0.51099893E-03 0.0000E+00 0.9000E+01
       23  1    3    3    0    0 -.49281170E+02 -.12921038E+03 -.60281321E+03 0.62515836E+03 0.91188000E+02 0.0000E+00 0.9000E+01
#aMCatNLO 1  0  0  1  2 0.30864236D+03 0.00000000D+00  -5  7  0 0.00000000D+00 0.00000000D+00 0.00000000D+00 0.00000000D+00 0.00000000D+00
  <mgrwgt>
 0.1723193622D-03    3    2    0
 0.321166164682353D+03 0.000000000000000D+00 0.000000000000000D+00 0.321166164682353D+03
 0.321166164682353D+03 0.000000000000000D+00 0.000000000000000D+00 -.321166164682353D+03
 0.214489808671071D+03 -.156756318843641D+03 0.795913972830357D+02 -.823607470879005D+02
 0.191917142486893D+03 0.178710964633581D+03 0.123936465938606D+02 0.688547618119186D+02
 0.666982762962928D+02 0.273265245323952D+02 0.372253316129268D+02 0.481268719551213D+02
 0.169227101910450D+03 -.492811703223343D+02 -.129210375489823D+03 -.346208866791395D+02
 0.000000000000000D+00 0.000000000000000D+00 -.000000000000000D+00 -.000000000000000D+00
 0.478326014740075D+03 0.000000000000000D+00 0.000000000000000D+00 0.478326014740075D+03
 0.551511095475712D+03 0.000000000000000D+00 0.000000000000000D+00 -.551511095475712D+03
 0.322261421971483D+03 -.261937203099317D+03 0.141925268076944D+03 -.823607470879005D+02
 0.142086104073755D+03 0.113260240327910D+03 0.511820350078634D+02 0.688547618119186D+02
 0.718219386378411D+02 0.182332097816552D+00 0.533119294390971D+02 0.481268719551213D+02
 0.176467137902962D+03 -.117022842348201D+03 -.890642913291373D+02 -.346208866791395D+02
 0.317200507629745D+03 0.265517473021791D+03 -.157354941194767D+03 -.731850807356377D+02
0.521980355359D-04 0.000000000000D+00 0.000000000000D+00 0.204815289249D-07 0.000000000000D+00  7 2 -2 23 -11 11 23 21 0 0.82022792D-02 0.29764481D+00 0.86734249D+05 0.86734249D+05 0.86734249D+05 0.11268298D+01  1  2  2  1  7  1        2 0.170150033461D-03 0.100000000000D+01
-.287341401694D-05 0.000000000000D+00 -.200454200516D-06 0.204815289249D-07 0.000000000000D+00  7 2 -2 23 -11 11 23 21 2 0.82022792D-02 0.29764481D+00 0.86734249D+05 0.86734249D+05 0.86734249D+05 0.11268298D+01  1  2  3  1  7  1        2 -.118930356595D-04 0.100000000000D+01
0.339753415385D-05 0.000000000000D+00 0.000000000000D+00 0.204815289249D-07 0.000000000000D+00  7 2 -2 23 -11 11 23 21 2 0.82022792D-02 0.29764481D+00 0.86734249D+05 0.86734249D+05 0.86734249D+05 0.11268298D+01  1  2 15  1  7  1        2 0.140623643540D-04 0.100000000000D+01
  </mgrwgt>
  </event>
  <event>
  8     66 0.55102590E-06 0.21692068E+03 0.75467711E-02 0.98757676E-01
        2 -1    0    0  501    0 0.00000000E+00 0.00000000E+00 0.56313388E+03 0.56313397E+03 0.32000000E+00 0.0000E+00 0.9000E+01
       -2 -1    0    0    0  501 0.00000000E+00 0.00000000E+00 -.37228209E+03 0.37228223E+03 0.32000000E+00 0.0000E+00 0.9000E+01
       25  2    1    2    0    0 -.48885168E+02 -.21421006E+03 0.45135063E+03 0.58457244E+03 0.29955274E+03 0.0000E+00 0.0000E+00
       23  2    1    2    0    0 0.48885168E+02 0.21421006E+03 -.26049883E+03 0.35084376E+03 0.83402584E+02 0.0000E+00 0.0000E+00
       23  1    3    3    0    0 -.13742821E+03 -.74244453E+02 0.19397723E+03 0.26521910E+03 0.91188000E+02 0.0000E+00 0.9000E+01
      -13  1    4    4    0    0 0.29896191E+02 0.54046158E+02 -.12796026E+03 0.14208662E+03 0.10565837E+00 0.0000E+00 0.9000E+01
       13  1    4    4    0    0 0.18988977E+02 0.16016390E+03 -.13253858E+03 0.20875714E+03 0.10565837E+00 0.0000E+00 0.9000E+01
       23  1    3    3    0    0 0.88543047E+02 -.13996561E+03 0.25737340E+03 0.31935334E+03 0.91188000E+02 0.0000E+00 0.9000E+01
#aMCatNLO 1  0  0  1  2 0.10937404D+03 0.00000000D+00  -5  7  0 0.00000000D+00 0.00000000D+00 0.00000000D+00 0.00000000D+00 0.00000000D+00
  <mgrwgt>
 0.2948793080D-03    9    2    0
 0.457869813161582D+03 0.000000000000000D+00 0.000000000000000D+00 0.457869813161582D+03
 0.457869813161582D+03 0.000000000000000D+00 0.000000000000000D+00 -.457869813161582D+03
 0.230490560364647D+03 -.137428214855246D+03 -.742444529373362D+02 0.142870199982169D+03
 0.171808083096884D+03 0.298962082118904D+02 0.540459879649585D+02 -.160322379401220D+03
 0.240865557169593D+03 0.189889598855501D+02 0.160164073696362D+03 -.178894118209823D+03
 0.272575425692039D+03 0.885430467578055D+02 -.139965608723984D+03 0.196346297628874D+03
 0.000000000000000D+00 0.000000000000000D+00 -.000000000000000D+00 0.000000000000000D+00
 0.516585648256178D+03 0.000000000000000D+00 0.000000000000000D+00 0.516585648256178D+03
 0.515047405126440D+03 0.000000000000000D+00 0.000000000000000D+00 -.515047405126440D+03
 0.247768769261559D+03 -.165794273103430D+03 -.719338351580668D+02 0.142870199982169D+03
 0.169994328776956D+03 0.962355167602927D+01 0.556973404445643D+02 -.160322379401220D+03
 0.241870085937012D+03 -.964259317069461D+01 0.162496317921521D+03 -.178894118209823D+03
 0.262615016399054D+03 0.568003450187872D+02 -.137379939246804D+03 0.196346297628874D+03
 0.109384853008038D+03 0.109012969579309D+03 -.887988396121380D+01 0.153824312973829D+01
0.102989000130D-04 0.000000000000D+00 0.000000000000D+00 0.184089620878D-07 0.000000000000D+00  7 2 -2 23 -13 13 23 21 0 0.86636000D-01 0.57274185D-01 0.87907626D+05 0.87907626D+05 0.87907626D+05 0.11263445D+01  1  2  2  1  7  1        2 0.199909802554D-03 0.100000000000D+01
-.440787760721D-06 0.000000000000D+00 -.395504878124D-07 0.184089620878D-07 0.000000000000D+00  7 2 -2 23 -13 13 23 21 2 0.86636000D-01 0.57274185D-01 0.87907626D+05 0.87907626D+05 0.87907626D+05 0.11263445D+01  1  2  3  1  7  1        2 -.108546350860D-04 0.100000000000D+01
0.633273985061D-06 0.000000000000D+00 0.000000000000D+00 0.184089620878D-07 0.000000000000D+00  7 2 -2 23 -13 13 23 21 2 0.86636000D-01 0.57274185D-01 0.87907626D+05 0.87907626D+05 0.87907626D+05 0.11263445D+01  1  2 15  1  7  1        2 0.155947116274D-04 0.100000000000D+01
0.712755142439D-05 0.000000000000D+00 0.000000000000D+00 0.184089620878D-07 0.000000000000D+00  7 2 -2 23 -13 13 23 21 2 0.10250588D+00 0.57274185D-01 0.12443471D+06 0.12443471D+06 0.12443471D+06 0.11140133D+01  1  2 12  1  7  1        2 0.140189920522D-03 0.100000000000D+01
-.678502995028D-05 0.000000000000D+00 0.000000000000D+00 0.184089620878D-07 0.000000000000D+00  7 2 -2 23 -13 13 23 21 2 0.86636000D-01 0.57274185D-01 0.87907626D+05 0.87907626D+05 0.87907626D+05 0.11263445D+01  1  2  4  1  7  1        2 -.167085002627D-03 0.100000000000D+01
-.168885375675D-04 0.000000000000D+00 -.681600064625D-05 0.184089620878D-07 0.000000000000D+00  7 2 -2 23 -13 13 23 21 2 0.10764744D+00 0.57274185D-01 0.87907626D+05 0.87907626D+05 0.87907626D+05 0.11263445D+01  1  2  5  1  7  1        2 -.323000003518D-03 0.100000000000D+01
0.180978448480D-04 0.000000000000D+00 0.665840308550D-05 0.184089620878D-07 0.000000000000D+00  7 2 -2 23 -13 13 23 21 2 0.86636000D-01 0.57274185D-01 0.87907626D+05 0.87907626D+05 0.87907626D+05 0.11263445D+01  1  2  6  1  7  1        2 0.445669138696D-03 0.100000000000D+01
0.178210974739D-06 0.000000000000D+00 0.000000000000D+00 0.184089620878D-07 0.000000000000D+00  7 21 -2 23 -13 13 23 -2 2 0.10250588D+00 0.57274185D-01 0.12443471D+06 0.12443471D+06 0.12443471D+06 0.11140133D+01  1  2 12  3  7  1        2 0.464838975590D-05 0.100000000000D+01
-.424193745475D-06 0.000000000000D+00 -.207653698658D-06 0.184089620878D-07 0.000000000000D+00  7 21 -2 23 -13 13 23 -2 2 0.10764744D+00 0.57274185D-01 0.87907626D+05 0.87907626D+05 0.87907626D+05 0.11263445D+01  1  2  5  3  7  1        2 -.101930139359D-04 0.100000000000D+01
  </mgrwgt>
  </event>
  <event>
  8     66 0.55102590E-06 0.21990626E+03 0.75467711E-02 0.93046194E-01
        2 -1    0    0  501    0 0.00000000E+00 0.00000000E+00 0.11526265E+03 0.11526310E+03 0.32000000E+00 0.0000E+00 0.9000E+01
       -2 -1    0    0    0  501 0.00000000E+00 0.00000000E+00 -.75846601E+03 0.75846607E+03 0.32000000E+00 0.0000E+00 0.9000E+01
       25  2    1    2    0    0 0.80581112E+02 -.70958475E+02 -.66758832E+03 0.73968477E+03 0.29988493E+03 0.0000E+00 0.0000E+00
       23  2    1    2    0    0 -.80581112E+02 0.70958475E+02 0.24384963E+02 0.13404441E+03 0.76451654E+02 0.0000E+00 0.0000E+00
       23  1    3    3    0    0 0.11780860E+03 -.13421628E+03 -.44852318E+03 0.49130558E+03 0.91188000E+02 0.0000E+00 0.9000E+01
      -11  1    4    4    0    0 -.58039027E+02 0.79237825E+02 0.39282793E+02 0.10578421E+03 0.51099893E-03 0.0000E+00 0.9000E+01
       11  1    4    4    0    0 -.22542085E+02 -.82793493E+01 -.14897830E+02 0.28260194E+02 0.51099893E-03 0.0000E+00 0.9000E+01
       23  1    3    3    0    0 -.37227487E+02 0.63257804E+02 -.21906514E+03 0.24837919E+03 0.91188000E+02 0.0000E+00 0.9000E+01
#aMCatNLO 1  0  0  1  2 0.49741412D+03 0.00000000D+00  -5  7  0 0.00000000D+00 0.00000000D+00 0.00000000D+00 0.00000000D+00 0.00000000D+00
  <mgrwgt>
 0.1694923908D-02    5    2    0
 0.295673852894667D+03 0.000000000000000D+00 0.000000000000000D+00 0.295673852894667D+03
 0.295673852894667D+03 0.000000000000000D+00 0.000000000000000D+00 -.295673852894667D+03
 0.238060280237012D+03 0.117808599303472D+03 -.134216278980036D+03 -.128314340856476D+03
 0.199026011775753D+03 -.580390266685013D+02 0.792378246577882D+02 0.173101680783974D+03
 0.255508251915096D+02 -.225420854836566D+02 -.827934928869542D+01 0.872647840599945D+01
 0.128710588585060D+03 -.372274871513137D+02 0.632578036109428D+02 -.535138183334981D+02
 0.000000000000000D+00 0.000000000000000D+00 -.000000000000000D+00 0.000000000000000D+00
 0.148243376414004D+04 0.000000000000000D+00 0.000000000000000D+00 0.148243376414004D+04
 0.442799116333504D+03 0.000000000000000D+00 0.000000000000000D+00 -.442799116333504D+03
 0.161100394706185D+03 0.281012324949869D+02 -.195917455403900D+02 -.128314340856476D+03
 0.342649039902368D+03 -.179775073333943D+03 0.234787341361397D+03 0.173101680783974D+03
 0.395898068118794D+02 -.371817905851076D+02 0.104266882046390D+02 0.872647840599945D+01
 0.229391575317724D+03 -.117707364525784D+03 0.166091815170136D+03 -.535138183334981D+02
 0.115250206373539D+04 0.306562995949848D+03 -.391714099195782D+03 0.103963464780653D+04
0.701820483394D-04 0.000000000000D+00 0.000000000000D+00 0.307577433404D-08 0.000000000000D+00  7 2 -2 23 -11 11 23 21 0 0.17732755D-01 0.11668712D+00 0.48358764D+05 0.48358764D+05 0.48358764D+05 0.11485725D+01  1  2  2  1  7  1        2 0.164417111987D-02 0.100000000000D+01
-.348349248980D-05 0.000000000000D+00 -.269517544981D-06 0.307577433404D-08 0.000000000000D+00  7 2 -2 23 -11 11 23 21 2 0.17732755D-01 0.11668712D+00 0.48358764D+05 0.48358764D+05 0.48358764D+05 0.11485725D+01  1  2  3  1  7  1        2 -.107659586108D-03 0.100000000000D+01
0.442583272270D-05 0.000000000000D+00 0.000000000000D+00 0.307577433404D-08 0.000000000000D+00  7 2 -2 23 -11 11 23 21 2 0.17732755D-01 0.11668712D+00 0.48358764D+05 0.48358764D+05 0.48358764D+05 0.11485725D+01  1  2 15  1  7  1        2 0.136783219858D-03 0.100000000000D+01
0.783395440093D-05 0.000000000000D+00 -.388992794906D-04 0.307577433404D-08 0.000000000000D+00  7 2 -2 23 -11 11 23 21 2 0.12102401D+00 0.11668712D+00 0.48358764D+05 0.48358764D+05 0.48358764D+05 0.11485725D+01  1  2  5  1  7  1        2 0.279751999372D-04 0.100000000000D+01
-.162870815157D-05 0.000000000000D+00 -.913984268138D-05 0.307577433404D-08 0.000000000000D+00  7 21 -2 23 -11 11 23 -2 2 0.12102401D+00 0.11668712D+00 0.48358764D+05 0.48358764D+05 0.48358764D+05 0.11485725D+01  1  2  5  3  7  1        2 -.634604521613D-05 0.100000000000D+01
  </mgrwgt>
  </event>
  <event>
  9     66 0.55102590E-06 0.18259491E+03 0.75467711E-02 0.10167386E+00
        2 -1    0    0  501    0 0.00000000E+00 0.00000000E+00 0.99521894E+03 0.99521899E+03 0.32000000E+00 0.0000E+00 0.9000E+01
       -2 -1    0    0    0  502 0.00000000E+00 0.00000000E+00 -.59348113E+03 0.59348122E+03 0.32000000E+00 0.0000E+00 0.9000E+01
       25  2    1    2    0    0 -.78676259E+02 -.21393244E+03 -.64041882E+02 0.38207733E+03 0.29987444E+03 0.0000E+00 0.0000E+00
       23  2    1    2    0    0 -.10311975E+02 0.42832331E+02 0.80801782E+03 0.81378493E+03 0.86094016E+02 0.0000E+00 0.0000E+00
       23  1    3    3    0    0 -.42270381E+02 -.14300587E+03 -.15259850E+03 0.23203236E+03 0.91188000E+02 0.0000E+00 0.9000E+01
      -11  1    4    4    0    0 -.77543306E+01 -.13755949E+02 0.31819069E+02 0.35521950E+02 0.51099893E-03 0.0000E+00 0.9000E+01
       11  1    4    4    0    0 -.25576448E+01 0.56588280E+02 0.77619875E+03 0.77826298E+03 0.51099893E-03 0.0000E+00 0.9000E+01
       23  1    3    3    0    0 -.36405878E+02 -.70926572E+02 0.88556619E+02 0.15004497E+03 0.91188000E+02 0.0000E+00 0.9000E+01
       21  1    1    2  501  502 0.88988234E+02 0.17110011E+03 -.34223813E+03 0.39283795E+03 0.75000000E+00 0.0000E+00 0.9000E+01
#aMCatNLO 2  0  0  2  2 0.19285786D+03 0.00000000D+00  -5  7  0 0.00000000D+00 0.00000000D+00 0.00000000D+00 0.00000000D+00 0.00000000D+00
  <mgrwgt>
 0.2235425494D-03    1    2    0
 0.458091751998380D+03 0.000000000000000D+00 0.000000000000000D+00 0.458091751998380D+03
 0.458091751998380D+03 0.000000000000000D+00 0.000000000000000D+00 -.458091751998380D+03
 0.395967044320397D+03 -.318674217302540D+01 -.678586895114932D+02 -.379288401847376D+03
 0.172051222024506D+02 -.596288002552848D+01 -.103114776539091D+02 0.124150602252001D+02
 0.395856075158870D+03 0.345819070402806D+02 0.127997511586967D+03 0.372991636599518D+03
 0.107155262315043D+03 -.254322848417267D+02 -.498273444215646D+02 -.611829497734151D+01
 0.000000000000000D+00 0.000000000000000D+00 0.000000000000000D+00 -.000000000000000D+00
 0.480341766693240D+03 0.000000000000000D+00 0.000000000000000D+00 0.480341766693240D+03
 0.122963143998412D+04 0.000000000000000D+00 0.000000000000000D+00 -.122963143998412D+04
 0.417627115087103D+03 -.422703810139193D+02 -.143005870596204D+03 -.379288401847376D+03
 0.200870476890501D+02 -.775433056973359D+01 -.137559485998648D+02 0.124150602252001D+02
 0.377268519662272D+03 -.255764477878252D+01 0.565882797773656D+02 0.372991636599518D+03
 0.121279229019124D+03 -.364058778240187D+02 -.709265717055753D+02 -.611829497734151D+01
 0.773711295219808D+03 0.889882341864541D+02 0.171100111124278D+03 -.749289673290878D+03
0.497983038882D-04 0.000000000000D+00 0.000000000000D+00 0.151521870995D-06 0.399146409442D-10  7 2 -2 23 -11 11 23 21 2 0.15311056D+00 0.91304767D-01 0.78740026D+05 0.78740026D+05 0.78740026D+05 0.11303413D+01  1  2  1  2  7  2       -2 0.223542549416D-03 0.100000000000D+01
  </mgrwgt>
  </event>
  <event>
  8     66 0.55102590E-06 0.29425080E+03 0.75467711E-02 0.10028599E+00
        2 -1    0    0  501    0 0.00000000E+00 0.00000000E+00 0.17510249E+04 0.17510249E+04 0.32000000E+00 0.0000E+00 0.9000E+01
       -2 -1    0    0    0  501 0.00000000E+00 0.00000000E+00 -.68347219E+02 0.68347968E+02 0.32000000E+00 0.0000E+00 0.9000E+01
       25  2    1    2    0    0 0.12319649E+03 -.18961632E+03 0.58608661E+03 0.69602878E+03 0.29971123E+03 0.0000E+00 0.0000E+00
       23  2    1    2    0    0 -.12319649E+03 0.18961632E+03 0.10965911E+04 0.11233441E+04 0.90875262E+02 0.0000E+00 0.0000E+00
       23  1    3    3    0    0 -.55829279E+02 -.58484231E+02 0.29254011E+03 0.31691053E+03 0.91188000E+02 0.0000E+00 0.9000E+01
      -13  1    4    4    0    0 -.99661030E+02 0.14061364E+03 0.97552924E+03 0.99063708E+03 0.10565837E+00 0.0000E+00 0.9000E+01
       13  1    4    4    0    0 -.23535456E+02 0.49002681E+02 0.12106184E+03 0.13270705E+03 0.10565837E+00 0.0000E+00 0.9000E+01
       23  1    3    3    0    0 0.17902577E+03 -.13113209E+03 0.29354650E+03 0.37911825E+03 0.91188000E+02 0.0000E+00 0.9000E+01
#aMCatNLO 1  0  0  1  2 0.34169376D+02 0.00000000D+00  -5  7  0 0.00000000D+00 0.00000000D+00 0.00000000D+00 0.00000000D+00 0.00000000D+00
  <mgrwgt>
 0.2000267279D-03    4    2    0
 0.345945646778173D+03 0.000000000000000D+00 0.000000000000000D+00 0.345945646778173D+03
 0.345945646778173D+03 0.000000000000000D+00 0.000000000000000D+00 -.345945646778173D+03
 0.121879993862290D+03 -.558292789314641D+02 -.584842312008569D+02 -.147237043887569D+01
 0.232460134034310D+03 -.996611333848028D+02 0.140613763386592D+03 0.155990839327074D+03
 0.545394704118165D+02 -.235353529428120D+02 0.490025572765883D+02 -.440345035323052D+01
 0.283011695247931D+03 0.179025765259079D+03 -.131132089462324D+03 -.150115018534968D+03
 0.000000000000000D+00 -.000000000000000D+00 -.000000000000000D+00 -.000000000000000D+00
 0.350701318069898D+03 0.000000000000000D+00 0.000000000000000D+00 0.350701318069898D+03
 0.413714392991439D+03 0.000000000000000D+00 0.000000000000000D+00 -.413714392991439D+03
 0.118256919791288D+03 -.533717009816728D+02 -.530918204070724D+02 -.147237043887569D+01
 0.237021288773556D+03 -.948564277068007D+02 0.151156235401047D+03 0.155990839327074D+03
 0.563260218679297D+02 -.224007477499905D+02 0.514921048772957D+02 -.440345035323052D+01
 0.281130284622500D+03 0.184799233690847D+03 -.118463960871862D+03 -.150115018534968D+03
 0.716811960060631D+02 -.141703572523829D+02 -.310925589994090D+02 -.630130749215411D+02
0.342114929975D-05 0.000000000000D+00 0.000000000000D+00 0.590300197537D-06 0.000000000000D+00  7 2 -2 23 -13 13 23 21 0 0.26938851D+00 0.10515017D-01 0.86583535D+05 0.86583535D+05 0.86583535D+05 0.11268926D+01  1  2  2  1  7  1        2 0.233699002101D-03 0.100000000000D+01
-.184010411538D-06 0.000000000000D+00 -.131381141203D-07 0.590300197537D-06 0.000000000000D+00  7 2 -2 23 -13 13 23 21 2 0.26938851D+00 0.10515017D-01 0.86583535D+05 0.86583535D+05 0.86583535D+05 0.11268926D+01  1  2  3  1  7  1        2 -.159621840796D-04 0.100000000000D+01
0.214905790953D-06 0.000000000000D+00 0.000000000000D+00 0.590300197537D-06 0.000000000000D+00  7 2 -2 23 -13 13 23 21 2 0.26938851D+00 0.10515017D-01 0.86583535D+05 0.86583535D+05 0.86583535D+05 0.11268926D+01  1  2 15  1  7  1        2 0.186422375032D-04 0.100000000000D+01
-.419065882930D-06 0.000000000000D+00 0.000000000000D+00 0.590300197537D-06 0.000000000000D+00  7 2 -2 23 -13 13 23 21 2 0.26938851D+00 0.10515017D-01 0.86583535D+05 0.86583535D+05 0.86583535D+05 0.11268926D+01  1  2  4  1  7  1        2 -.363523276150D-04 0.100000000000D+01
  </mgrwgt>
  </event>
  <event>
  9     66 0.55102590E-06 0.25851191E+03 0.75467711E-02 0.99577471E-01
        2 -1    0    0  501    0 0.00000000E+00 0.00000000E+00 0.50598397E+03 0.50598407E+03 0.32000000E+00 0.0000E+00 0.9000E+01
       -2 -1    0    0    0  502 0.00000000E+00 0.00000000E+00 -.24743270E+03 0.24743291E+03 0.32000000E+00 0.0000E+00 0.9000E+01
       25  2    1    2    0    0 -.13515795E+03 -.36595631E+02 0.22763451E+03 0.40189147E+03 0.30015391E+03 0.0000E+00 0.0000E+00
       23  2    1    2    0    0 0.12594086E+03 0.16380455E+03 -.55711784E+01 0.21886431E+03 0.71954959E+02 0.0000E+00 0.0000E+00
       23  1    3    3    0    0 -.18695569E+02 0.87173970E+02 0.42176352E+02 0.13432394E+03 0.91188000E+02 0.0000E+00 0.9000E+01
      -13  1    4    4    0    0 0.18121633E+02 0.61335721E+02 -.25376514E+02 0.68807288E+02 0.10565837E+00 0.0000E+00 0.9000E+01
       13  1    4    4    0    0 0.10781923E+03 0.10246883E+03 0.19805335E+02 0.15005702E+03 0.10565837E+00 0.0000E+00 0.9000E+01
       23  1    3    3    0    0 -.11646238E+03 -.12376960E+03 0.18545816E+03 0.26756752E+03 0.91188000E+02 0.0000E+00 0.9000E+01
       21  1    1    2  501  502 0.92170941E+01 -.12720892E+03 0.36487937E+02 0.13266121E+03 0.75000000E+00 0.0000E+00 0.9000E+01
#aMCatNLO 2  0  0  2  1 0.12754240D+03 0.00000000D+00  -5  7  0 0.00000000D+00 0.00000000D+00 0.00000000D+00 0.00000000D+00 0.00000000D+00
  <mgrwgt>
 0.5082673088D-04    2    2    0
 0.282735982974551D+03 0.000000000000000D+00 0.000000000000000D+00 0.282735982974551D+03
 0.282735982974551D+03 0.000000000000000D+00 0.000000000000000D+00 -.282735982974551D+03
 0.110977943044795D+03 -.167746090007119D+02 0.606620009744351D+02 -.629179061194694D+01
 0.719968736800554D+02 0.193722434371125D+02 0.440728772084527D+02 -.535336109232672D+02
 0.135655939470286D+03 0.110143589300936D+03 0.703920318001213D+02 -.362751362302536D+02
 0.246841209753966D+03 -.112741223737336D+03 -.175126909983009D+03 0.961005377654678D+02
 0.000000000000000D+00 0.000000000000000D+00 -.000000000000000D+00 -.000000000000000D+00
 0.348006502470846D+03 0.000000000000000D+00 0.000000000000000D+00 0.348006502470846D+03
 0.359752818521715D+03 0.000000000000000D+00 0.000000000000000D+00 -.359752818521715D+03
 0.127685798569515D+03 -.186955694326641D+02 0.871739689747955D+02 -.629179061194694D+01
 0.834044008771599D+02 0.181214472437730D+02 0.613356318707600D+02 -.535336109232672D+02
 0.153103858998633D+03 0.107819414948161D+03 0.102468921590822D+03 -.362751362302536D+02
 0.215483100475536D+03 -.116462386829280D+03 -.123769601848616D+03 0.961005377654678D+02
 0.128082162071718D+03 0.921709407001043D+01 -.127208920587761D+03 -.117463160508686D+02
-.274046648829D-05 0.000000000000D+00 0.000000000000D+00 0.902818205153D-09 0.000000000000D+00  7 2 -2 23 -13 13 23 21 2 0.63243502D-01 0.40705769D-01 0.10911165D+06 0.10911165D+06 0.10911165D+06 0.11186275D+01  1  2 13  2  7  2       -2 -.182925855444D-03 0.100000000000D+01
0.389108467016D-05 0.000000000000D+00 0.000000000000D+00 0.902818205153D-09 0.380025240935D-12  7 2 -2 23 -13 13 23 21 2 0.77843470D-01 0.38066475D-01 0.10911165D+06 0.10911165D+06 0.10911165D+06 0.11186275D+01  1  2  1  2  7  2       -2 0.233752586326D-03 0.100000000000D+01
  </mgrwgt>
  </event>
  <event>
  8     66 0.55102590E-06 0.10518436E+03 0.75467711E-02 0.10297633E+00
        2 -1    0    0  501    0 0.00000000E+00 0.00000000E+00 0.28652171E+03 0.28652188E+03 0.32000000E+00 0.0000E+00 0.9000E+01
       -2 -1    0    0    0  501 0.00000000E+00 0.00000000E+00 -.42646037E+03 0.42646049E+03 0.32000000E+00 0.0000E+00 0.9000E+01
       25  2    1    2    0    0 0.10023144E+02 -.93363368E+02 -.34723131E+03 0.46803502E+03 0.29944952E+03 0.0000E+00 0.0000E+00
       23  2    1    2    0    0 -.10023144E+02 0.93363368E+02 0.20729264E+03 0.24494736E+03 0.90618908E+02 0.0000E+00 0.0000E+00
       23  1    3    3    0    0 -.10499462E+03 -.90885838E+02 -.16664767E+03 0.23531002E+03 0.91188000E+02 0.0000E+00 0.9000E+01
      -11  1    4    4    0    0 0.26655493E+02 0.41612324E+02 0.32875111E+02 0.59353801E+02 0.51099893E-03 0.0000E+00 0.9000E+01
       11  1    4    4    0    0 -.36678636E+02 0.51751045E+02 0.17441753E+03 0.18559356E+03 0.51099893E-03 0.0000E+00 0.9000E+01
       23  1    3    3    0    0 0.11501777E+03 -.24775298E+01 -.18058364E+03 0.23272501E+03 0.91188000E+02 0.0000E+00 0.9000E+01
#aMCatNLO 1  0  0  1  2 0.94952676D+02 0.00000000D+00  -5  7  0 0.00000000D+00 0.00000000D+00 0.00000000D+00 0.00000000D+00 0.00000000D+00
  <mgrwgt>
 0.1590662147D-03    9    2    0
 0.349557235184234D+03 0.000000000000000D+00 0.000000000000000D+00 0.349557235184234D+03
 0.349557235184234D+03 0.000000000000000D+00 0.000000000000000D+00 -.349557235184234D+03
 0.206620586198464D+03 -.104994623601343D+03 -.908858382752165D+02 -.122852385865397D+03
 0.671116322447016D+02 0.266554926095743D+02 0.416123235718646D+02 0.454078233704220D+02
 0.224187454503452D+03 -.366786363951203D+02 0.517510445190839D+02 0.215026793168004D+03
 0.201194797421850D+03 0.115017767386889D+03 -.247752981573199D+01 -.137582230673030D+03
 0.000000000000000D+00 -.000000000000000D+00 0.000000000000000D+00 0.000000000000000D+00
 0.446376831637462D+03 0.000000000000000D+00 0.000000000000000D+00 0.446376831637462D+03
 0.376845174111904D+03 0.000000000000000D+00 0.000000000000000D+00 -.376845174111904D+03
 0.206922763907809D+03 -.849768424106971D+02 -.110399304437728D+03 -.122852385865397D+03
 0.663751212034137D+02 0.331169884157272D+02 0.353136145105681D+02 0.454078233704220D+02
 0.217772291516943D+03 -.152853447640583D+02 0.308967216362596D+02 0.215026793168004D+03
 0.214462992989267D+03 0.135137899161464D+03 -.220907680077793D+02 -.137582230673030D+03
 0.117688836131934D+03 -.679927004024357D+02 0.662797362986792D+02 0.695316575255578D+02
0.547899161828D-05 0.000000000000D+00 0.000000000000D+00 0.435676900393D-06 0.000000000000D+00  7 2 -2 23 -11 11 23 21 0 0.44080285D-01 0.65609311D-01 0.45322147D+05 0.45322147D+05 0.45322147D+05 0.11510667D+01  1  2  2  1  7  1        2 0.170058667375D-03 0.100000000000D+01
-.213379614115D-06 0.000000000000D+00 -.210407704658D-07 0.435676900393D-06 0.000000000000D+00  7 2 -2 23 -11 11 23 21 2 0.44080285D-01 0.65609311D-01 0.45322147D+05 0.45322147D+05 0.45322147D+05 0.11510667D+01  1  2  3  1  7  1        2 -.877509946967D-05 0.100000000000D+01
0.335127673571D-06 0.000000000000D+00 0.000000000000D+00 0.435676900393D-06 0.000000000000D+00  7 2 -2 23 -11 11 23 21 2 0.44080285D-01 0.65609311D-01 0.45322147D+05 0.45322147D+05 0.45322147D+05 0.11510667D+01  1  2 15  1  7  1        2 0.137819101549D-04 0.100000000000D+01
0.477840014601D-05 0.000000000000D+00 0.000000000000D+00 0.435676900393D-06 0.000000000000D+00  7 2 -2 23 -11 11 23 21 2 0.57653071D-01 0.65609311D-01 0.64734250D+05 0.64734250D+05 0.64734250D+05 0.11375583D+01  1  2 12  1  7  1        2 0.142923380959D-03 0.100000000000D+01
-.657442593895D-05 0.000000000000D+00 0.000000000000D+00 0.435676900393D-06 0.000000000000D+00  7 2 -2 23 -11 11 23 21 2 0.44080285D-01 0.65609311D-01 0.45322147D+05 0.45322147D+05 0.45322147D+05 0.11510667D+01  1  2  4  1  7  1        2 -.270369040686D-03 0.100000000000D+01
-.798968787102D-05 0.000000000000D+00 -.287861717539D-05 0.435676900393D-06 0.000000000000D+00  7 2 -2 23 -11 11 23 21 2 0.59826145D-01 0.65609311D-01 0.45322147D+05 0.45322147D+05 0.45322147D+05 0.11510667D+01  1  2  5  1  7  1        2 -.236373688261D-03 0.100000000000D+01
0.859415568624D-05 0.000000000000D+00 0.274937584339D-05 0.435676900393D-06 0.000000000000D+00  7 2 -2 23 -11 11 23 21 2 0.44080285D-01 0.65609311D-01 0.45322147D+05 0.45322147D+05 0.45322147D+05 0.11510667D+01  1  2  6  1  7  1        2 0.353429128257D-03 0.100000000000D+01
0.170383840034D-06 0.000000000000D+00 0.000000000000D+00 0.435676900393D-06 0.000000000000D+00  7 21 -2 23 -11 11 23 -2 2 0.57653071D-01 0.65609311D-01 0.64734250D+05 0.64734250D+05 0.64734250D+05 0.11375583D+01  1  2 12  3  7  1        2 0.142992267766D-04 0.100000000000D+01
-.246511900171D-06 0.000000000000D+00 -.112724525427D-06 0.435676900393D-06 0.000000000000D+00  7 21 -2 23 -11 11 23 -2 2 0.59826145D-01 0.65609311D-01 0.45322147D+05 0.45322147D+05 0.45322147D+05 0.11510667D+01  1  2  5  3  7  1        2 -.199082704457D-04 0.100000000000D+01
  </mgrwgt>
  </event>
  <event>
  8     66 0.55102590E-06 0.13100786E+03 0.75467711E-02 0.10234209E+00
        2 -1    0    0  501    0 0.00000000E+00 0.00000000E+00 0.69063429E+02 0.69064170E+02 0.32000000E+00 0.0000E+00 0.9000E+01
       -2 -1    0    0    0  501 0.00000000E+00 0.00000000E+00 -.10039462E+04 0.10039463E+04 0.32000000E+00 0.0000E+00 0.9000E+01
       25  2    1    2    0    0 0.13336309E+03 0.65556229E+02 -.74819630E+03 0.81966388E+03 0.29994639E+03 0.0000E+00 0.0000E+00
       23  2    1    2    0    0 -.13336309E+03 -.65556229E+02 -.18668651E+03 0.25334658E+03 0.85142847E+02 0.0000E+00 0.0000E+00
       23  1    3    3    0    0 -.58675829E+02 0.54730978E+02 -.25253577E+03 0.28022830E+03 0.91188000E+02 0.0000E+00 0.9000E+01
      -13  1    4    4    0    0 -.29452661E+02 0.15513505E+01 -.94727071E+02 0.99212373E+02 0.10565837E+00 0.0000E+00 0.9000E+01
       13  1    4    4    0    0 -.10391043E+03 -.67107579E+02 -.91959440E+02 0.15413421E+03 0.10565837E+00 0.0000E+00 0.9000E+01
       23  1    3    3    0    0 0.19203892E+03 0.10825251E+02 -.49566053E+03 0.53943558E+03 0.91188000E+02 0.0000E+00 0.9000E+01
#aMCatNLO 1  0  0  2  1 0.46261048D+02 0.00000000D+00  -5  7  0 0.00000000D+00 0.00000000D+00 0.00000000D+00 0.00000000D+00 0.00000000D+00
  <mgrwgt>
 0.2335300836D-03    9    2    0
 0.263318049553634D+03 0.000000000000000D+00 0.000000000000000D+00 0.263318049553634D+03
 0.263318049553634D+03 0.000000000000000D+00 0.000000000000000D+00 -.263318049553634D+03
 0.122658787931918D+03 -.586758276162872D+02 0.547309791002325D+02 -.170761264108997D+02
 0.339838222388639D+02 -.294525461703815D+02 0.155145273949846D+01 -.168831481792156D+02
 0.150799412460145D+03 -.103910550164663D+03 -.671076840421782D+02 0.862532266370202D+02
 0.219194076476341D+03 0.192038923951331D+03 0.108252522024473D+02 -.522939520469050D+02
 0.000000000000000D+00 -.000000000000000D+00 -.000000000000000D+00 -.000000000000000D+00
 0.280953202625220D+03 0.000000000000000D+00 0.000000000000000D+00 0.280953202625220D+03
 0.296521130738765D+03 0.000000000000000D+00 0.000000000000000D+00 -.296521130738765D+03
 0.119207480680868D+03 -.483518884285868D+02 0.571460663429066D+02 -.170761264108997D+02
 0.316265529149725D+02 -.266520005339215D+02 0.220658659065475D+01 -.168831481792156D+02
 0.141149534122037D+03 -.914488572311474D+02 -.641925103784559D+02 0.862532266370202D+02
 0.236680470590557D+03 0.211497698124897D+03 0.153772586033221D+02 -.522939520469050D+02
 0.488102950555510D+02 -.450449519312411D+02 -.105374011584276D+02 -.155679281135448D+02
0.590359104363D-05 0.000000000000D+00 0.000000000000D+00 0.154480075497D-07 0.000000000000D+00  7 2 -2 23 -13 13 23 21 0 0.10625204D-01 0.15445333D+00 0.59418695D+05 0.59418695D+05 0.59418695D+05 0.11407603D+01  1  2  2  2  7  2       -2 0.124219559494D-03 0.100000000000D+01
-.325601858669D-06 0.000000000000D+00 -.226713440587D-07 0.154480075497D-07 0.000000000000D+00  7 2 -2 23 -13 13 23 21 2 0.10625204D-01 0.15445333D+00 0.59418695D+05 0.59418695D+05 0.59418695D+05 0.11407603D+01  1  2  3  2  7  2       -2 -.891557621805D-05 0.100000000000D+01
0.377396228758D-06 0.000000000000D+00 0.000000000000D+00 0.154480075497D-07 0.000000000000D+00  7 2 -2 23 -13 13 23 21 2 0.10625204D-01 0.15445333D+00 0.59418695D+05 0.59418695D+05 0.59418695D+05 0.11407603D+01  1  2 15  2  7  2       -2 0.103338010896D-04 0.100000000000D+01
0.737658352262D-05 0.000000000000D+00 0.000000000000D+00 0.154480075497D-07 0.000000000000D+00  7 2 -2 23 -13 13 23 21 2 0.10625204D-01 0.17858761D+00 0.71167116D+05 0.71167116D+05 0.71167116D+05 0.11340496D+01  1  2 12  2  7  2       -2 0.132122593249D-03 0.100000000000D+01
-.696289170409D-05 0.000000000000D+00 0.000000000000D+00 0.154480075497D-07 0.000000000000D+00  7 2 -2 23 -13 13 23 21 2 0.10625204D-01 0.15445333D+00 0.59418695D+05 0.59418695D+05 0.59418695D+05 0.11407603D+01  1  2  4  2  7  2       -2 -.190656748520D-03 0.100000000000D+01
-.190511133770D-04 0.000000000000D+00 -.451586912053D-05 0.154480075497D-07 0.000000000000D+00  7 2 -2 23 -13 13 23 21 2 0.10625204D-01 0.18127598D+00 0.59418695D+05 0.59418695D+05 0.59418695D+05 0.11407603D+01  1  2  5  2  7  2       -2 -.331420802553D-03 0.100000000000D+01
0.195799538533D-04 0.000000000000D+00 0.445858518904D-05 0.154480075497D-07 0.000000000000D+00  7 2 -2 23 -13 13 23 21 2 0.10625204D-01 0.15445333D+00 0.59418695D+05 0.59418695D+05 0.59418695D+05 0.11407603D+01  1  2  6  2  7  2       -2 0.536135056595D-03 0.100000000000D+01
0.163870429947D-06 0.000000000000D+00 0.000000000000D+00 0.154480075497D-07 0.000000000000D+00  7 2 21 23 -13 13 23 2 2 0.10625204D-01 0.17858761D+00 0.71167116D+05 0.71167116D+05 0.71167116D+05 0.11340496D+01  1  2 12  4  7  2       -2 0.252754382330D-04 0.100000000000D+01
-.422807523037D-06 0.000000000000D+00 -.108572731759D-06 0.154480075497D-07 0.000000000000D+00  7 2 21 23 -13 13 23 2 2 0.10625204D-01 0.18127598D+00 0.59418695D+05 0.59418695D+05 0.59418695D+05 0.11407603D+01  1  2  5  4  7  2       -2 -.635632377442D-04 0.100000000000D+01
  </mgrwgt>
  </event>
  <event>
  8     66 0.55102590E-06 0.15835576E+03 0.75467711E-02 0.99046522E-01
        2 -1    0    0  501    0 0.00000000E+00 0.00000000E+00 0.41208820E+03 0.41208833E+03 0.32000000E+00 0.0000E+00 0.9000E+01
       -2 -1    0    0    0  501 0.00000000E+00 0.00000000E+00 -.32347678E+03 0.32347693E+03 0.32000000E+00 0.0000E+00 0.9000E+01
       25  2    1    2    0    0 -.19583701E+03 0.17766024E+03 0.18371769E+03 0.44013875E+03 0.30009105E+03 0.0000E+00 0.0000E+00
       23  2    1    2    0    0 0.19583701E+03 -.17766024E+03 -.95106260E+02 0.29542651E+03 0.91193895E+02 0.0000E+00 0.0000E+00
       23  1    3    3    0    0 -.53432943E+02 -.42294433E+02 0.96713854E+02 0.14937443E+03 0.91188000E+02 0.0000E+00 0.9000E+01
      -11  1    4    4    0    0 0.10222268E+03 -.14713634E+03 -.43981759E+02 0.18448028E+03 0.51099893E-03 0.0000E+00 0.9000E+01
       11  1    4    4    0    0 0.93614329E+02 -.30523900E+02 -.51124502E+02 0.11094623E+03 0.51099893E-03 0.0000E+00 0.9000E+01
       23  1    3    3    0    0 -.14240407E+03 0.21995467E+03 0.87003834E+02 0.29076433E+03 0.91188000E+02 0.0000E+00 0.9000E+01
#aMCatNLO 1  0  0  1  2 0.20256503D+02 0.00000000D+00  -5  7  0 0.00000000D+00 0.00000000D+00 0.00000000D+00 0.00000000D+00 0.00000000D+00
  <mgrwgt>
 0.9717519451D-04    9    2    0
 0.365104185906503D+03 0.000000000000000D+00 0.000000000000000D+00 0.365104185906503D+03
 0.365104185906503D+03 0.000000000000000D+00 0.000000000000000D+00 -.365104185906503D+03
 0.138733942568842D+03 -.534329431418943D+02 -.422944334944059D+02 0.792966390162732D+02
 0.191170870281358D+03 0.102222680685232D+03 -.147136336097959D+03 -.666912572780383D+02
 0.117964146051085D+03 0.936143293905816D+02 -.305238995239794D+02 -.649629790277776D+02
 0.282339412911720D+03 -.142404066933920D+03 0.219954669116344D+03 0.523575972895426D+02
 0.000000000000000D+00 0.000000000000000D+00 0.000000000000000D+00 0.000000000000000D+00
 0.529666740414550D+03 0.000000000000000D+00 0.000000000000000D+00 0.529666740414550D+03
 0.365868532465154D+03 0.000000000000000D+00 0.000000000000000D+00 -.365868532465154D+03
 0.140486209347211D+03 -.572154935147862D+02 -.431225464847653D+02 0.792966390162732D+02
 0.189347216311233D+03 0.970678635258834D+02 -.148264879179150D+03 -.666912572780383D+02
 0.115653773299402D+03 0.904495451087541D+02 -.312167651085989D+02 -.649629790277776D+02
 0.285002083783026D+03 -.150089750704069D+03 0.218272043918417D+03 0.523575972895426D+02
 0.165045990138831D+03 0.197878355842173D+02 0.433214685409670D+01 0.163798207949396D+03
0.257506879360D-05 0.000000000000D+00 0.000000000000D+00 0.360821347941D-06 0.000000000000D+00  7 2 -2 23 -11 11 23 21 0 0.63398207D-01 0.49765679D-01 0.11185891D+06 0.11185891D+06 0.11185891D+06 0.11177498D+01  1  2  2  1  7  1        2 0.932360132887D-04 0.100000000000D+01
-.141721987777D-06 0.000000000000D+00 -.988894219861D-08 0.360821347941D-06 0.000000000000D+00  7 2 -2 23 -11 11 23 21 2 0.63398207D-01 0.49765679D-01 0.11185891D+06 0.11185891D+06 0.11185891D+06 0.11177498D+01  1  2  3  1  7  1        2 -.641093396846D-05 0.100000000000D+01
0.166257051560D-06 0.000000000000D+00 0.000000000000D+00 0.360821347941D-06 0.000000000000D+00  7 2 -2 23 -11 11 23 21 2 0.63398207D-01 0.49765679D-01 0.11185891D+06 0.11185891D+06 0.11185891D+06 0.11177498D+01  1  2 15  1  7  1        2 0.752080178991D-05 0.100000000000D+01
0.105059714236D-03 0.000000000000D+00 0.000000000000D+00 0.360821347941D-06 0.000000000000D+00  7 2 -2 23 -11 11 23 21 2 0.92016679D-01 0.49765679D-01 0.11877460D+06 0.11877460D+06 0.11877460D+06 0.11156412D+01  1  2 12  1  7  1        2 0.311649692985D-02 0.100000000000D+01
-.984825300596D-04 0.000000000000D+00 0.000000000000D+00 0.360821347941D-06 0.000000000000D+00  7 2 -2 23 -11 11 23 21 2 0.63398207D-01 0.49765679D-01 0.11185891D+06 0.11185891D+06 0.11185891D+06 0.11177498D+01  1  2  4  1  7  1        2 -.445495442988D-02 0.100000000000D+01
-.106052108478D-03 0.000000000000D+00 -.114590548652D-05 0.360821347941D-06 0.000000000000D+00  7 2 -2 23 -11 11 23 21 2 0.92047057D-01 0.49765679D-01 0.11185891D+06 0.11185891D+06 0.11185891D+06 0.11177498D+01  1  2  5  1  7  1        2 -.316012173291D-02 0.100000000000D+01
0.995537446432D-04 0.000000000000D+00 0.107061649927D-05 0.360821347941D-06 0.000000000000D+00  7 2 -2 23 -11 11 23 21 2 0.63398207D-01 0.49765679D-01 0.11185891D+06 0.11185891D+06 0.11185891D+06 0.11177498D+01  1  2  6  1  7  1        2 0.450341187865D-02 0.100000000000D+01
0.474796279077D-05 0.000000000000D+00 0.000000000000D+00 0.360821347941D-06 0.000000000000D+00  7 21 -2 23 -11 11 23 -2 2 0.92016679D-01 0.49765679D-01 0.11877460D+06 0.11877460D+06 0.11877460D+06 0.11156412D+01  1  2 12  3  7  1        2 0.217072302451D-03 0.100000000000D+01
-.476040584968D-05 0.000000000000D+00 -.518201879831D-07 0.360821347941D-06 0.000000000000D+00  7 21 -2 23 -11 11 23 -2 2 0.92047057D-01 0.49765679D-01 0.11185891D+06 0.11185891D+06 0.11185891D+06 0.11177498D+01  1  2  5  3  7  1        2 -.219075634750D-03 0.100000000000D+01
  </mgrwgt>
  </event>
  <event>
  8     66 0.55102590E-06 0.41777905E+03 0.75467711E-02 0.88871563E-01
        2 -1    0    0  501    0 0.00000000E+00 0.00000000E+00 0.13326602E+04 0.13326602E+04 0.32000000E+00 0.0000E+00 0.9000E+01
       -2 -1    0    0    0  501 0.00000000E+00 0.00000000E+00 -.26051828E+03 0.26051848E+03 0.32000000E+00 0.0000E+00 0.9000E+01
       25  2    1    2    0    0 -.62117803E+02 -.36121881E+03 0.18993759E+02 0.47413983E+03 0.30018357E+03 0.0000E+00 0.0000E+00
       23  2    1    2    0    0 0.62117803E+02 0.36121881E+03 0.10531481E+04 0.11190388E+04 0.93751441E+02 0.0000E+00 0.0000E+00
       23  1    3    3    0    0 -.32646938E+02 -.16015687E+01 -.23141880E+02 0.99595108E+02 0.91188000E+02 0.0000E+00 0.9000E+01
      -13  1    4    4    0    0 0.30040602E+02 0.17698906E+03 0.37786441E+03 0.41834087E+03 0.10565837E+00 0.0000E+00 0.9000E+01
       13  1    4    4    0    0 0.32077201E+02 0.18422974E+03 0.67528371E+03 0.70069797E+03 0.10565837E+00 0.0000E+00 0.9000E+01
       23  1    3    3    0    0 -.29470865E+02 -.35961724E+03 0.42135638E+02 0.37454473E+03 0.91188000E+02 0.0000E+00 0.9000E+01
#aMCatNLO 1  0  0  1  1 0.68712272D+03 0.00000000D+00  -5  7  0 0.00000000D+00 0.00000000D+00 0.00000000D+00 0.00000000D+00 0.00000000D+00
  <mgrwgt>
 0.2449618323D-03    5    2    0
 0.589221966515493D+03 0.000000000000000D+00 0.000000000000000D+00 0.589221966515493D+03
 0.589221966515493D+03 0.000000000000000D+00 0.000000000000000D+00 -.589221966515493D+03
 0.155700390833391D+03 -.326469380659764D+02 -.160156871573106D+01 -.121897386248581D+03
 0.221790221992915D+03 0.300405998711390D+02 0.176989053780792D+03 0.130243386675979D+03
 0.332928261482523D+03 0.320772031841250D+02 0.184229752063515D+03 0.275448141733205D+03
 0.468025058722158D+03 -.294708649892877D+02 -.359617237128576D+03 -.283794142160603D+03
 0.000000000000000D+00 0.000000000000000D+00 0.000000000000000D+00 0.000000000000000D+00
 0.122540934036461D+04 0.000000000000000D+00 0.000000000000000D+00 0.122540934036461D+04
 0.899306226872956D+03 0.000000000000000D+00 0.000000000000000D+00 -.899306226872956D+03
 0.195912563205286D+03 -.108072095226880D+03 -.593963848790612D+02 -.121897386248581D+03
 0.180067390969891D+03 -.561626337295527D+02 0.110935495178212D+03 0.130243386675979D+03
 0.305207470395821D+03 -.104810494820364D+03 0.793390280798237D+02 0.275448141733205D+03
 0.682948837645718D+03 -.276368443774442D+03 -.548803454488634D+03 -.283794142160603D+03
 0.760579305020854D+03 0.545413667551239D+03 0.417925316109659D+03 0.326103113491658D+03
0.200537973450D-04 0.000000000000D+00 0.000000000000D+00 0.542433109857D-06 0.000000000000D+00  7 2 -2 23 -13 13 23 21 0 0.20502466D+00 0.40079754D-01 0.17453934D+06 0.17453934D+06 0.17453934D+06 0.11023963D+01  1  2  2  1  7  1        2 0.240044433290D-03 0.100000000000D+01
-.953943446252D-06 0.000000000000D+00 -.770118620907D-07 0.542433109857D-06 0.000000000000D+00  7 2 -2 23 -13 13 23 21 2 0.20502466D+00 0.40079754D-01 0.17453934D+06 0.17453934D+06 0.17453934D+06 0.11023963D+01  1  2  3  1  7  1        2 -.138769223110D-04 0.100000000000D+01
0.125961014367D-05 0.000000000000D+00 0.000000000000D+00 0.542433109857D-06 0.000000000000D+00  7 2 -2 23 -13 13 23 21 2 0.20502466D+00 0.40079754D-01 0.17453934D+06 0.17453934D+06 0.17453934D+06 0.11023963D+01  1  2 15  1  7  1        2 0.183234259584D-04 0.100000000000D+01
0.371326548821D-06 0.000000000000D+00 -.531757419569D-05 0.542433109857D-06 0.000000000000D+00  7 2 -2 23 -13 13 23 21 2 0.49532749D+00 0.40079754D-01 0.17453934D+06 0.17453934D+06 0.17453934D+06 0.11023963D+01  1  2  5  1  7  1        2 0.447506500376D-06 0.100000000000D+01
0.369328138027D-06 0.000000000000D+00 -.513666292081D-06 0.542433109857D-06 0.000000000000D+00  7 21 -2 23 -13 13 23 -2 2 0.49532749D+00 0.40079754D-01 0.17453934D+06 0.17453934D+06 0.17453934D+06 0.11023963D+01  1  2  5  3  7  1        2 0.233888268202D-07 0.100000000000D+01
  </mgrwgt>
  </event>
  <event>
  8     66 0.55102590E-06 0.23563526E+03 0.75467711E-02 0.10290455E+00
        2 -1    0    0  501    0 0.00000000E+00 0.00000000E+00 0.11831904E+04 0.11831905E+04 0.32000000E+00 0.0000E+00 0.9000E+01
       -2 -1    0    0    0  501 0.00000000E+00 0.00000000E+00 -.51745814E+02 0.51746804E+02 0.32000000E+00 0.0000E+00 0.9000E+01
       25  2    1    2    0    0 -.11216113E+02 -.13750003E+03 0.75165179E+03 0.82095039E+03 0.29991177E+03 0.0000E+00 0.0000E+00
       23  2    1    2    0    0 0.11216113E+02 0.13750003E+03 0.37979283E+03 0.41398689E+03 0.90058269E+02 0.0000E+00 0.0000E+00
       23  1    3    3    0    0 0.97521800E+02 -.59136945E+02 0.21161466E+03 0.25710639E+03 0.91188000E+02 0.0000E+00 0.9000E+01
      -13  1    4    4    0    0 -.31085174E+02 0.17007890E+02 0.10853320E+03 0.11417103E+03 0.10565837E+00 0.0000E+00 0.9000E+01
       13  1    4    4    0    0 0.42301286E+02 0.12049214E+03 0.27125963E+03 0.29981586E+03 0.10565837E+00 0.0000E+00 0.9000E+01
       23  1    3    3    0    0 -.10873791E+03 -.78363084E+02 0.54003712E+03 0.56384400E+03 0.91188000E+02 0.0000E+00 0.9000E+01
#aMCatNLO 1  0  0  1  1 0.39287632D+02 0.00000000D+00  -5  7  0 0.00000000D+00 0.00000000D+00 0.00000000D+00 0.00000000D+00 0.00000000D+00
  <mgrwgt>
 0.3250447711D-03    4    2    0
 0.247438456743636D+03 0.000000000000000D+00 0.000000000000000D+00 0.247438456743636D+03
 0.247438456743636D+03 0.000000000000000D+00 0.000000000000000D+00 -.247438456743636D+03
 0.157776598930132D+03 0.975217993216675D+02 -.591369477417939D+02 -.597538609196802D+02
 0.367660853386570D+02 -.310852701393841D+02 0.170077504802583D+02 0.980751931388335D+01
 0.127988596496308D+03 0.423013831932793D+02 0.120492283695188D+03 -.856057141483050D+01
 0.172345632722175D+03 -.108737912375563D+03 -.783630864336525D+02 0.585069130206274D+02
 0.000000000000000D+00 -.000000000000000D+00 -.000000000000000D+00 -.000000000000000D+00
 0.250065594382640D+03 0.000000000000000D+00 0.000000000000000D+00 0.250065594382640D+03
 0.456956886105853D+03 0.000000000000000D+00 0.000000000000000D+00 -.456956886105853D+03
 0.158906991710035D+03 0.104764999497121D+03 -.488871318026843D+02 -.597538609196802D+02
 0.365602409382834D+02 -.294081473737845D+02 0.193810384245766D+02 0.980751931388335D+01
 0.138141376601831D+03 0.483883189386430D+02 0.129105875686557D+03 -.856057141483050D+01
 0.162825351621138D+03 -.101071867767142D+03 -.675149054757932D+02 0.585069130206274D+02
 0.210588519617205D+03 -.226733032948367D+02 -.320848768326561D+02 -.206891291723213D+03
0.155021989575D-05 0.000000000000D+00 0.000000000000D+00 0.748244038986D-07 0.000000000000D+00  7 2 -2 23 -13 13 23 21 0 0.18202938D+00 0.79609739D-02 0.55523974D+05 0.55523974D+05 0.55523974D+05 0.11433137D+01  1  2  2  1  7  1        2 0.329496344111D-03 0.100000000000D+01
-.858731733040D-07 0.000000000000D+00 -.595325258197D-08 0.748244038986D-07 0.000000000000D+00  7 2 -2 23 -13 13 23 21 2 0.18202938D+00 0.79609739D-02 0.55523974D+05 0.55523974D+05 0.55523974D+05 0.11433137D+01  1  2  3  1  7  1        2 -.238586360957D-04 0.100000000000D+01
0.999956420482D-07 0.000000000000D+00 0.000000000000D+00 0.748244038986D-07 0.000000000000D+00  7 2 -2 23 -13 13 23 21 2 0.18202938D+00 0.79609739D-02 0.55523974D+05 0.55523974D+05 0.55523974D+05 0.11433137D+01  1  2 15  1  7  1        2 0.277823625585D-04 0.100000000000D+01
-.301447888459D-07 0.000000000000D+00 0.000000000000D+00 0.748244038986D-07 0.000000000000D+00  7 2 -2 23 -13 13 23 21 2 0.18202938D+00 0.79609739D-02 0.55523974D+05 0.55523974D+05 0.55523974D+05 0.11433137D+01  1  2  4  1  7  1        2 -.837529952119D-05 0.100000000000D+01
  </mgrwgt>
  </event>
  <event>
  8     66 0.55102590E-06 0.18517328E+03 0.75467711E-02 0.10318371E+00
        2 -1    0    0  501    0 0.00000000E+00 0.00000000E+00 0.93355774E+03 0.93355779E+03 0.32000000E+00 0.0000E+00 0.9000E+01
       -2 -1    0    0    0  501 0.00000000E+00 0.00000000E+00 -.86798947E+02 0.86799537E+02 0.32000000E+00 0.0000E+00 0.9000E+01
       25  2    1    2    0    0 -.19489993E+02 -.10831488E+03 0.81244799E+03 0.87284229E+03 0.29944940E+03 0.0000E+00 0.0000E+00
       23  2    1    2    0    0 0.19489993E+02 0.10831488E+03 0.34310797E+02 0.14751504E+03 0.92040668E+02 0.0000E+00 0.0000E+00
       23  1    3    3    0    0 0.39408143E+02 -.61982373E+02 0.70032662E+03 0.71004749E+03 0.91188000E+02 0.0000E+00 0.9000E+01
      -11  1    4    4    0    0 0.34484490E+02 0.11406815E+03 0.11642743E+02 0.11973419E+03 0.51099893E-03 0.0000E+00 0.9000E+01
       11  1    4    4    0    0 -.14994497E+02 -.57532730E+01 0.22668054E+02 0.27780852E+02 0.51099893E-03 0.0000E+00 0.9000E+01
       23  1    3    3    0    0 -.58898136E+02 -.46332503E+02 0.11212137E+03 0.16279479E+03 0.91188000E+02 0.0000E+00 0.9000E+01
#aMCatNLO 1  0  0  1  1 0.12152571D+03 0.00000000D+00  -5  7  0 0.00000000D+00 0.00000000D+00 0.00000000D+00 0.00000000D+00 0.00000000D+00
  <mgrwgt>
 0.1668115350D-03    4    2    0
 0.284661478755164D+03 0.000000000000000D+00 0.000000000000000D+00 0.284661478755164D+03
 0.284661478755164D+03 0.000000000000000D+00 0.000000000000000D+00 -.284661478755164D+03
 0.230966343909448D+03 0.394081425893067D+02 -.619823729445351D+02 0.199086374261833D+03
 0.197274782808121D+03 0.344844900092306D+02 0.114068149117598D+03 -.157215194042051D+03
 0.160752735942843D+02 -.149944967747603D+02 -.575327304129299D+01 -.692341617360519D+00
 0.125006557198476D+03 -.588981358237770D+02 -.463325031317699D+02 -.411788386024215D+02
 0.000000000000000D+00 0.000000000000000D+00 -.000000000000000D+00 -.000000000000000D+00
 0.350234128573582D+03 0.000000000000000D+00 0.000000000000000D+00 0.350234128573582D+03
 0.353483738610771D+03 0.000000000000000D+00 0.000000000000000D+00 -.353483738610771D+03
 0.223902749013723D+03 -.597382172708102D+01 -.463262205360249D+02 0.199086374261833D+03
 0.202701191099326D+03 -.542082705381750D+01 0.127834933681910D+03 -.157215194042051D+03
 0.190625958716477D+02 -.185001768991431D+02 -.454386170025496D+01 -.692341617360519D+00
 0.136482180698922D+03 -.849866803237687D+02 -.373323147318029D+02 -.411788386024215D+02
 0.121569150500734D+03 0.114881506003810D+03 -.396325367138270D+02 -.324961003718819D+01
0.242218824168D-05 0.000000000000D+00 0.000000000000D+00 0.237312512277D-06 0.000000000000D+00  7 2 -2 23 -11 11 23 21 0 0.14362432D+00 0.13353734D-01 0.34289143D+05 0.34289143D+05 0.34289143D+05 0.11619893D+01  1  2  2  1  7  1        2 0.326003814649D-03 0.100000000000D+01
-.104312815423D-06 0.000000000000D+00 -.930184062487D-08 0.237312512277D-06 0.000000000000D+00  7 2 -2 23 -11 11 23 21 2 0.14362432D+00 0.13353734D-01 0.34289143D+05 0.34289143D+05 0.34289143D+05 0.11619893D+01  1  2  3  1  7  1        2 -.189564370420D-04 0.100000000000D+01
0.146811310896D-06 0.000000000000D+00 0.000000000000D+00 0.237312512277D-06 0.000000000000D+00  7 2 -2 23 -11 11 23 21 2 0.14362432D+00 0.13353734D-01 0.34289143D+05 0.34289143D+05 0.34289143D+05 0.11619893D+01  1  2 15  1  7  1        2 0.266795538091D-04 0.100000000000D+01
-.918496176476D-06 0.000000000000D+00 0.000000000000D+00 0.237312512277D-06 0.000000000000D+00  7 2 -2 23 -11 11 23 21 2 0.14362432D+00 0.13353734D-01 0.34289143D+05 0.34289143D+05 0.34289143D+05 0.11619893D+01  1  2  4  1  7  1        2 -.166915396465D-03 0.100000000000D+01
  </mgrwgt>
  </event>
  <event>
  8     66 0.55102590E-06 0.21257074E+03 0.75467711E-02 0.92490590E-01
        2 -1    0    0  501    0 0.00000000E+00 0.00000000E+00 0.70024408E+03 0.70024415E+03 0.32000000E+00 0.0000E+00 0.9000E+01
       -2 -1    0    0    0  501 0.00000000E+00 0.00000000E+00 -.19864336E+03 0.19864362E+03 0.32000000E+00 0.0000E+00 0.9000E+01
       25  2    1    2    0    0 -.76823437E+02 -.83714258E+02 0.62836443E+03 0.70537820E+03 0.29967756E+03 0.0000E+00 0.0000E+00
       23  2    1    2    0    0 0.76823437E+02 0.83714258E+02 -.12676370E+03 0.19350957E+03 0.92016291E+02 0.0000E+00 0.0000E+00
       23  1    3    3    0    0 -.13149407E+02 -.12963237E+03 0.17566958E+03 0.23696521E+03 0.91188000E+02 0.0000E+00 0.9000E+01
      -11  1    4    4    0    0 0.26652318E+02 -.18139584E+02 -.22086654E+02 0.39079546E+02 0.51099893E-03 0.0000E+00 0.9000E+01
       11  1    4    4    0    0 0.50171118E+02 0.10185384E+03 -.10467705E+03 0.15443002E+03 0.51099893E-03 0.0000E+00 0.9000E+01
       23  1    3    3    0    0 -.63674029E+02 0.45918117E+02 0.45269485E+03 0.46841299E+03 0.91188000E+02 0.0000E+00 0.9000E+01
#aMCatNLO 1  0  0  1  2 0.53003458D+03 0.00000000D+00  -5  7  0 0.00000000D+00 0.00000000D+00 0.00000000D+00 0.00000000D+00 0.00000000D+00
  <mgrwgt>
 0.2050097006D-03    5    2    0
 0.372959762309115D+03 0.000000000000000D+00 0.000000000000000D+00 0.372959762309115D+03
 0.372959762309115D+03 0.000000000000000D+00 0.000000000000000D+00 -.372959762309115D+03
 0.167429782417176D+03 -.131494074104712D+02 -.129632374725528D+03 0.523452118539662D+02
 0.619461027380127D+02 0.266523184673391D+02 -.181395839637830D+02 -.528954540425246D+02
 0.256490590370513D+03 0.501711183662346D+02 0.101853841839121D+03 -.229991471000790D+03
 0.260053049092529D+03 -.636740294231024D+02 0.459181168501897D+02 0.230541713189348D+03
 0.000000000000000D+00 0.000000000000000D+00 -.000000000000000D+00 0.000000000000000D+00
 0.895019996459379D+03 0.000000000000000D+00 0.000000000000000D+00 0.895019996459379D+03
 0.618068078714394D+03 0.000000000000000D+00 0.000000000000000D+00 -.618068078714394D+03
 0.164379613268683D+03 -.102858437610839D+03 -.733861466666721D+02 0.523452118539662D+02
 0.530999458546914D+02 -.445189250987817D+01 0.136229383277506D+01 -.528954540425246D+02
 0.322892176156062D+03 -.106472625830550D+03 0.200067140326537D+03 -.229991471000790D+03
 0.374687057771692D+03 -.235284357992511D+03 0.153515241202232D+03 0.230541713189348D+03
 0.598029282122645D+03 0.449067313943779D+03 -.281558528694872D+03 0.276951917744985D+03
0.374281462198D-05 0.000000000000D+00 0.000000000000D+00 0.501102617647D-06 0.000000000000D+00  7 2 -2 23 -11 11 23 21 0 0.10772988D+00 0.30560542D-01 0.45186318D+05 0.45186318D+05 0.45186318D+05 0.11511825D+01  1  2  2  1  7  1        2 0.184996277802D-03 0.100000000000D+01
-.128027592826D-06 0.000000000000D+00 -.143733936541D-07 0.501102617647D-06 0.000000000000D+00  7 2 -2 23 -11 11 23 21 2 0.10772988D+00 0.30560542D-01 0.45186318D+05 0.45186318D+05 0.45186318D+05 0.11511825D+01  1  2  3  1  7  1        2 -.838603456137D-05 0.100000000000D+01
0.230781872252D-06 0.000000000000D+00 0.000000000000D+00 0.501102617647D-06 0.000000000000D+00  7 2 -2 23 -11 11 23 21 2 0.10772988D+00 0.30560542D-01 0.45186318D+05 0.45186318D+05 0.45186318D+05 0.11511825D+01  1  2 15  1  7  1        2 0.151166222384D-04 0.100000000000D+01
0.138544790845D-05 0.000000000000D+00 -.117184062499D-05 0.501102617647D-06 0.000000000000D+00  7 2 -2 23 -11 11 23 21 2 0.33919999D+00 0.30560542D-01 0.45186318D+05 0.45186318D+05 0.45186318D+05 0.11511825D+01  1  2  5  1  7  1        2 0.128926518711D-04 0.100000000000D+01
0.235248827800D-06 0.000000000000D+00 -.154323919386D-06 0.501102617647D-06 0.000000000000D+00  7 21 -2 23 -11 11 23 -2 2 0.33919999D+00 0.30560542D-01 0.45186318D+05 0.45186318D+05 0.45186318D+05 0.11511825D+01  1  2  5  3  7  1        2 0.390183243840D-06 0.100000000000D+01
  </mgrwgt>
  </event>
  <event>
  8     66 0.55102590E-06 0.18904254E+03 0.75467711E-02 0.10695439E+00
        2 -1    0    0  501    0 0.00000000E+00 0.00000000E+00 0.33436612E+03 0.33436627E+03 0.32000000E+00 0.0000E+00 0.9000E+01
       -2 -1    0    0    0  501 0.00000000E+00 0.00000000E+00 -.14880623E+03 0.14880657E+03 0.32000000E+00 0.0000E+00 0.9000E+01
       25  2    1    2    0    0 0.99211460E+01 -.29537705E+02 0.22772025E+03 0.37817444E+03 0.30031399E+03 0.0000E+00 0.0000E+00
       23  2    1    2    0    0 -.99211460E+01 0.29537705E+02 -.42160363E+02 0.10499840E+03 0.90973972E+02 0.0000E+00 0.0000E+00
       23  1    3    3    0    0 0.32509921E+02 0.88444162E+02 0.17443050E+03 0.21822125E+03 0.91188000E+02 0.0000E+00 0.9000E+01
      -11  1    4    4    0    0 -.43280394E+02 0.42211265E+02 -.27548641E+02 0.66437271E+02 0.51099893E-03 0.0000E+00 0.9000E+01
       11  1    4    4    0    0 0.33359248E+02 -.12673560E+02 -.14611721E+02 0.38561133E+02 0.51099893E-03 0.0000E+00 0.9000E+01
       23  1    3    3    0    0 -.22588775E+02 -.11798187E+03 0.53289754E+02 0.15995319E+03 0.91188000E+02 0.0000E+00 0.9000E+01
#aMCatNLO 1  0  0  2  2 0.51937301D+01 0.00000000D+00  -5  7  0 0.00000000D+00 0.00000000D+00 0.00000000D+00 0.00000000D+00 0.00000000D+00
  <mgrwgt>
 0.1167596080D-03    6    2    0
 0.223060264441494D+03 0.000000000000000D+00 0.000000000000000D+00 0.223060264441494D+03
 0.223060264441494D+03 0.000000000000000D+00 0.000000000000000D+00 -.223060264441494D+03
 0.163792685470184D+03 0.325099208004817D+02 0.884441615164262D+02 0.981505364872615D+02
 0.834137994899999D+02 -.432803939362983D+02 0.422112648121187D+02 -.574706757315236D+02
 0.478414246784695D+02 0.333592479377974D+02 -.126735600035296D+02 -.318644530649306D+02
 0.151072619244334D+03 -.225887748019808D+02 -.117981866325015D+03 -.881540769080726D+01
 0.000000000000000D+00 0.000000000000000D+00 0.000000000000000D+00 0.000000000000000D+00
 0.234664112792924D+03 0.000000000000000D+00 0.000000000000000D+00 0.234664112792924D+03
 0.223657299647068D+03 0.000000000000000D+00 0.000000000000000D+00 -.223657299647068D+03
 0.162849006992517D+03 0.310601799246815D+02 0.872140191985093D+02 0.981505364872615D+02
 0.834857011841902D+02 -.440211475934747D+02 0.415827163342112D+02 -.574706757315236D+02
 0.476439997511927D+02 0.329354529170359D+02 -.130331609486802D+02 -.318644530649306D+02
 0.152172052603873D+03 -.239346721760497D+02 -.119123894768203D+03 -.881540769080726D+01
 0.121706519082198D+02 0.396018692780692D+01 0.336032018416259D+01 0.110068131458561D+02
0.636496014481D-06 0.000000000000D+00 0.000000000000D+00 0.121422875806D-06 0.000000000000D+00  7 2 -2 23 -11 11 23 21 0 0.51440980D-01 0.22893304D-01 0.35737080D+05 0.35737080D+05 0.35737080D+05 0.11603497D+01  1  2  2  2  7  2       -2 0.116345536548D-03 0.100000000000D+01
-.341837097356D-07 0.000000000000D+00 -.244431228886D-08 0.121422875806D-06 0.000000000000D+00  7 2 -2 23 -11 11 23 21 2 0.51440980D-01 0.22893304D-01 0.35737080D+05 0.35737080D+05 0.35737080D+05 0.11603497D+01  1  2  3  2  7  2       -2 -.841300263772D-05 0.100000000000D+01
0.390055067651D-07 0.000000000000D+00 0.000000000000D+00 0.121422875806D-06 0.000000000000D+00  7 2 -2 23 -11 11 23 21 2 0.51440980D-01 0.22893304D-01 0.35737080D+05 0.35737080D+05 0.35737080D+05 0.11603497D+01  1  2 15  2  7  2       -2 0.959970213411D-05 0.100000000000D+01
-.153748036043D-06 0.000000000000D+00 0.000000000000D+00 0.121422875806D-06 0.000000000000D+00  7 2 -2 23 -11 11 23 21 2 0.51440980D-01 0.22893304D-01 0.35737080D+05 0.35737080D+05 0.35737080D+05 0.11603497D+01  1  2  4  2  7  2       -2 -.378391532920D-04 0.100000000000D+01
0.103249850147D-06 0.000000000000D+00 0.000000000000D+00 0.121422875806D-06 0.323047743213D-07  7 2 -2 23 -11 11 23 21 2 0.54116998D-01 0.22954580D-01 0.36678661D+05 0.36678661D+05 0.36678661D+05 0.11593224D+01  1  2 11  2  7  2       -2 0.239226326148D-04 0.100000000000D+01
0.442318471735D-08 0.000000000000D+00 0.000000000000D+00 0.121422875806D-06 0.165358925635D-10  7 2 21 23 -11 11 23 2 2 0.54116998D-01 0.22954580D-01 0.36678661D+05 0.36678661D+05 0.36678661D+05 0.11593224D+01  1  2 11  4  7  2       -2 0.131438926193D-04 0.100000000000D+01
  </mgrwgt>
  </event>
  <event>
  8     66 0.55102590E-06 0.97236831E+02 0.75467711E-02 0.10471769E+00
        2 -1    0    0  501    0 0.00000000E+00 0.00000000E+00 0.14127039E+04 0.14127040E+04 0.32000000E+00 0.0000E+00 0.9000E+01
       -2 -1    0    0    0  501 0.00000000E+00 0.00000000E+00 -.59878047E+02 0.59878902E+02 0.32000000E+00 0.0000E+00 0.9000E+01
       25  2    1    2    0    0 -.61060242E+02 -.71016740E+02 0.12899748E+04 0.13276423E+04 0.29971235E+03 0.0000E+00 0.0000E+00
       23  2    1    2    0    0 0.61060242E+02 0.71016740E+02 0.62851122E+02 0.14494056E+03 0.91026211E+02 0.0000E+00 0.0000E+00
       23  1    3    3    0    0 0.68070110E+02 -.23653845E+02 0.84681290E+03 0.85475165E+03 0.91188000E+02 0.0000E+00 0.9000E+01
      -11  1    4    4    0    0 0.16070316E+02 0.82045543E+02 0.33283052E+02 0.89986042E+02 0.51099893E-03 0.0000E+00 0.9000E+01
       11  1    4    4    0    0 0.44989926E+02 -.11028804E+02 0.29568070E+02 0.54954515E+02 0.51099893E-03 0.0000E+00 0.9000E+01
       23  1    3    3    0    0 -.12913035E+03 -.47362894E+02 0.44316187E+03 0.47289067E+03 0.91188000E+02 0.0000E+00 0.9000E+01
#aMCatNLO 1  0  0  1  2 0.32940023D+02 0.00000000D+00  -5  7  0 0.00000000D+00 0.00000000D+00 0.00000000D+00 0.00000000D+00 0.00000000D+00
  <mgrwgt>
 0.2882431100D-03    9    2    0
 0.290844646716694D+03 0.000000000000000D+00 0.000000000000000D+00 0.290844646716694D+03
 0.290844646716694D+03 0.000000000000000D+00 0.000000000000000D+00 -.290844646716694D+03
 0.194437524696333D+03 0.680701099738691D+02 -.236538453893122D+02 0.155877052167665D+03
 0.150399415863651D+03 0.160703161448269D+02 0.820455433096098D+02 -.125021030447536D+03
 0.703547873920204D+02 0.449899256444726D+02 -.110288036897243D+02 -.529534530380668D+02
 0.166497565481382D+03 -.129130351763169D+03 -.473628942305732D+02 0.220974313179378D+02
 0.000000000000000D+00 -.000000000000000D+00 -.000000000000000D+00 0.000000000000000D+00
 0.343109541064638D+03 0.000000000000000D+00 0.000000000000000D+00 0.343109541064638D+03
 0.296547419018585D+03 0.000000000000000D+00 0.000000000000000D+00 -.296547419018585D+03
 0.193828785165472D+03 0.692429546989616D+02 -.127320244579971D+02 0.155877052167665D+03
 0.155357068638275D+03 0.169939215952678D+02 0.906463863070541D+02 -.125021030447536D+03
 0.701185529737170D+02 0.454142566051545D+02 -.707732855492744D+01 -.529534530380668D+02
 0.163316807389843D+03 -.128134074111318D+03 -.380853096717800D+02 0.220974313179378D+02
 0.570357459159170D+02 -.351705878806574D+01 -.327517236223496D+02 0.465621220460533D+02
0.155535169136D-05 0.000000000000D+00 0.000000000000D+00 0.355561833038D-06 0.000000000000D+00  7 2 -2 23 -11 11 23 21 0 0.21733914D+00 0.92120757D-02 0.42266519D+05 0.42266519D+05 0.42266519D+05 0.11537700D+01  1  2  2  1  7  1        2 0.198505033662D-03 0.100000000000D+01
-.737645215109D-07 0.000000000000D+00 -.597296002834D-08 0.355561833038D-06 0.000000000000D+00  7 2 -2 23 -11 11 23 21 2 0.21733914D+00 0.92120757D-02 0.42266519D+05 0.42266519D+05 0.42266519D+05 0.11537700D+01  1  2  3  1  7  1        2 -.125322457135D-04 0.100000000000D+01
0.953227143186D-07 0.000000000000D+00 0.000000000000D+00 0.355561833038D-06 0.000000000000D+00  7 2 -2 23 -11 11 23 21 2 0.21733914D+00 0.92120757D-02 0.42266519D+05 0.42266519D+05 0.42266519D+05 0.11537700D+01  1  2 15  1  7  1        2 0.161948814070D-04 0.100000000000D+01
0.533876005830D-05 0.000000000000D+00 0.000000000000D+00 0.355561833038D-06 0.000000000000D+00  7 2 -2 23 -11 11 23 21 2 0.25827277D+00 0.92120757D-02 0.50208914D+05 0.50208914D+05 0.50208914D+05 0.11471361D+01  1  2 12  1  7  1        2 0.647223709804D-03 0.100000000000D+01
-.543258122570D-05 0.000000000000D+00 0.000000000000D+00 0.355561833038D-06 0.000000000000D+00  7 2 -2 23 -11 11 23 21 2 0.21733914D+00 0.92120757D-02 0.42266519D+05 0.42266519D+05 0.42266519D+05 0.11537700D+01  1  2  4  1  7  1        2 -.922970031992D-03 0.100000000000D+01
-.739883243247D-05 0.000000000000D+00 -.107529792863D-05 0.355561833038D-06 0.000000000000D+00  7 2 -2 23 -11 11 23 21 2 0.25835308D+00 0.92120757D-02 0.42266519D+05 0.42266519D+05 0.42266519D+05 0.11537700D+01  1  2  5  1  7  1        2 -.908640612884D-03 0.100000000000D+01
0.748841772431D-05 0.000000000000D+00 0.105942879614D-05 0.355561833038D-06 0.000000000000D+00  7 2 -2 23 -11 11 23 21 2 0.21733914D+00 0.92120757D-02 0.42266519D+05 0.42266519D+05 0.42266519D+05 0.11537700D+01  1  2  6  1  7  1        2 0.127224699630D-02 0.100000000000D+01
0.136209385901D-06 0.000000000000D+00 0.000000000000D+00 0.355561833038D-06 0.000000000000D+00  7 21 -2 23 -11 11 23 -2 2 0.25827277D+00 0.92120757D-02 0.50208914D+05 0.50208914D+05 0.50208914D+05 0.11471361D+01  1  2 12  3  7  1        2 0.514059288765D-05 0.100000000000D+01
-.179429827691D-06 0.000000000000D+00 -.274733712571D-07 0.355561833038D-06 0.000000000000D+00  7 21 -2 23 -11 11 23 -2 2 0.25835308D+00 0.92120757D-02 0.42266519D+05 0.42266519D+05 0.42266519D+05 0.11537700D+01  1  2  5  3  7  1        2 -.692521349395D-05 0.100000000000D+01
  </mgrwgt>
  </event>
  <event>
  8     66 0.55102590E-06 0.27447016E+03 0.75467711E-02 0.93838172E-01
        2 -1    0    0  501    0 0.00000000E+00 0.00000000E+00 0.18276881E+04 0.18276881E+04 0.32000000E+00 0.0000E+00 0.9000E+01
       -2 -1    0    0    0  501 0.00000000E+00 0.00000000E+00 -.15336491E+03 0.15336525E+03 0.32000000E+00 0.0000E+00 0.9000E+01
       25  2    1    2    0    0 0.36444688E+03 0.60716696E-02 0.14883791E+04 0.15614512E+04 0.30006015E+03 0.0000E+00 0.0000E+00
       23  2    1    2    0    0 -.36444688E+03 -.60716696E-02 0.18594410E+03 0.41960215E+03 0.93108665E+02 0.0000E+00 0.0000E+00
       23  1    3    3    0    0 0.13319488E+03 -.26075014E+01 0.10050972E+04 0.10179801E+04 0.91188000E+02 0.0000E+00 0.9000E+01
      -11  1    4    4    0    0 -.18426704E+03 0.29117440E+02 0.13446446E+03 0.22996273E+03 0.51099893E-03 0.0000E+00 0.9000E+01
       11  1    4    4    0    0 -.18017984E+03 -.29123512E+02 0.51479641E+02 0.18963941E+03 0.51099893E-03 0.0000E+00 0.9000E+01
       23  1    3    3    0    0 0.23125200E+03 0.26135731E+01 0.48328182E+03 0.54347114E+03 0.91188000E+02 0.0000E+00 0.9000E+01
#aMCatNLO 1  0  0  1  2 0.25383216D+03 0.00000000D+00  -5  7  0 0.00000000D+00 0.00000000D+00 0.00000000D+00 0.00000000D+00 0.00000000D+00
  <mgrwgt>
 0.3622878813D-03    8    2    0
 0.529437038184806D+03 0.000000000000000D+00 0.000000000000000D+00 0.529437038184806D+03
 0.529437038184806D+03 0.000000000000000D+00 0.000000000000000D+00 -.529437038184806D+03
 0.315254864376902D+03 0.133194884434460D+03 -.260750140190031D+01 0.270781649795972D+03
 0.217619347222696D+03 -.184267042595678D+03 0.291174399238043D+02 -.112053612128117D+03
 0.273396282111201D+03 -.180179838200090D+03 -.291235115933726D+02 -.203549930117618D+03
 0.252603582658814D+03 0.231251996361308D+03 0.261357307146863D+01 0.448218924497629D+02
 0.000000000000000D+00 0.000000000000000D+00 -.000000000000000D+00 0.000000000000000D+00
 0.100748850892229D+04 0.000000000000000D+00 0.000000000000000D+00 0.100748850892229D+04
 0.579222585196250D+03 0.000000000000000D+00 0.000000000000000D+00 -.579222585196250D+03
 0.318290762086817D+03 0.120814907972068D+03 0.712377289873740D+02 0.270781649795972D+03
 0.237972165427717D+03 -.193169656657682D+03 0.822205769509752D+02 -.112053612128117D+03
 0.281398032547886D+03 -.191020952509860D+03 0.355425712795173D+02 -.203549930117618D+03
 0.251212344343740D+03 0.221407039570297D+03 0.613376833000475D+02 0.448218924497629D+02
 0.497837789712378D+03 0.419686616251775D+02 -.250338560517914D+03 0.428265923726037D+03
0.105174253662D-04 0.000000000000D+00 0.000000000000D+00 0.484871954077D-06 0.000000000000D+00  7 2 -2 23 -11 11 23 21 0 0.28118281D+00 0.23594630D-01 0.15175197D+06 0.15175197D+06 0.15175197D+06 0.11071541D+01  1  2  2  1  7  1        2 0.174680425399D-03 0.100000000000D+01
-.517426123705D-06 0.000000000000D+00 -.403896827079D-07 0.484871954077D-06 0.000000000000D+00  7 2 -2 23 -11 11 23 21 2 0.28118281D+00 0.23594630D-01 0.15175197D+06 0.15175197D+06 0.15175197D+06 0.11071541D+01  1  2  3  1  7  1        2 -.105341460526D-04 0.100000000000D+01
0.661815564684D-06 0.000000000000D+00 0.000000000000D+00 0.484871954077D-06 0.000000000000D+00  7 2 -2 23 -11 11 23 21 2 0.28118281D+00 0.23594630D-01 0.15175197D+06 0.15175197D+06 0.15175197D+06 0.11071541D+01  1  2 15  1  7  1        2 0.134737337349D-04 0.100000000000D+01
0.331947935155D-05 0.000000000000D+00 0.000000000000D+00 0.484871954077D-06 0.000000000000D+00  7 2 -2 23 -11 11 23 21 2 0.53735454D+00 0.23594630D-01 0.28758762D+06 0.28758762D+06 0.28758762D+06 0.10859122D+01  1  2 12  1  7  1        2 0.626909971018D-05 0.100000000000D+01
-.961170893842D-05 0.000000000000D+00 -.264926839477D-05 0.484871954077D-06 0.000000000000D+00  7 2 -2 23 -11 11 23 21 2 0.54437756D+00 0.23594630D-01 0.15175197D+06 0.15175197D+06 0.15175197D+06 0.11071541D+01  1  2  5  1  7  1        2 -.183294855325D-04 0.100000000000D+01
0.966403931692D-05 0.000000000000D+00 0.216042047928D-05 0.484871954077D-06 0.000000000000D+00  7 2 -2 23 -11 11 23 21 2 0.28118281D+00 0.23594630D-01 0.15175197D+06 0.15175197D+06 0.15175197D+06 0.11071541D+01  1  2  6  1  7  1        2 0.196747703602D-03 0.100000000000D+01
0.233440037301D-06 0.000000000000D+00 0.000000000000D+00 0.484871954077D-06 0.000000000000D+00  7 21 -2 23 -11 11 23 -2 2 0.53735454D+00 0.23594630D-01 0.28758762D+06 0.28758762D+06 0.28758762D+06 0.10859122D+01  1  2 12  3  7  1        2 0.157324549528D-07 0.100000000000D+01
-.534212529212D-06 0.000000000000D+00 -.189789402393D-06 0.484871954077D-06 0.000000000000D+00  7 21 -2 23 -11 11 23 -2 2 0.54437756D+00 0.23594630D-01 0.15175197D+06 0.15175197D+06 0.15175197D+06 0.11071541D+01  1  2  5  3  7  1        2 -.351820040543D-07 0.100000000000D+01
  </mgrwgt>
  </event>
  <event>
  8     66 0.55102590E-06 0.17628691E+03 0.75467711E-02 0.99702587E-01
        2 -1    0    0  501    0 0.00000000E+00 0.00000000E+00 0.37764281E+03 0.37764295E+03 0.32000000E+00 0.0000E+00 0.9000E+01
       -2 -1    0    0    0  501 0.00000000E+00 0.00000000E+00 -.45365822E+03 0.45365833E+03 0.32000000E+00 0.0000E+00 0.9000E+01
       25  2    1    2    0    0 0.23605031E+03 0.13469589E+03 -.27024745E+03 0.48551390E+03 0.29803915E+03 0.0000E+00 0.0000E+00
       23  2    1    2    0    0 -.23605031E+03 -.13469589E+03 0.19423205E+03 0.34578737E+03 0.89331330E+02 0.0000E+00 0.0000E+00
       23  1    3    3    0    0 -.70612607E+01 0.55993742E+02 -.69857035E+01 0.10746726E+03 0.91188000E+02 0.0000E+00 0.9000E+01
      -13  1    4    4    0    0 -.15516648E+03 -.10341768E+03 0.81362605E+02 0.20344959E+03 0.10565837E+00 0.0000E+00 0.9000E+01
       13  1    4    4    0    0 -.80883830E+02 -.31278212E+02 0.11286945E+03 0.14233778E+03 0.10565837E+00 0.0000E+00 0.9000E+01
       23  1    3    3    0    0 0.24311157E+03 0.78702150E+02 -.26326175E+03 0.37804664E+03 0.91188000E+02 0.0000E+00 0.9000E+01
#aMCatNLO 1  0  0  2  1 0.23824878D+01 0.00000000D+00  -5  7  0 0.00000000D+00 0.00000000D+00 0.00000000D+00 0.00000000D+00 0.00000000D+00
  <mgrwgt>
 0.1300161320D-03   11    2    0
 0.413909251474834D+03 0.000000000000000D+00 0.000000000000000D+00 0.413909251474834D+03
 0.413909251474834D+03 0.000000000000000D+00 0.000000000000000D+00 -.413909251474834D+03
 0.107277923024150D+03 -.706126072963107D+01 0.559937424691886D+02 0.285321320230229D+01
 0.211776840315832D+03 -.155166583574324D+03 -.103417780623623D+03 0.100386872084522D+03
 0.153300906873605D+03 -.808837265882853D+02 -.312781116645929D+02 0.126414676964973D+03
 0.355462832736081D+03 0.243111570892240D+03 0.787021498190270D+02 -.229654762251798D+03
 0.000000000000000D+00 0.000000000000000D+00 -.000000000000000D+00 -.000000000000000D+00
 0.414027433725059D+03 0.000000000000000D+00 0.000000000000000D+00 0.414027433725059D+03
 0.426095099063752D+03 0.000000000000000D+00 0.000000000000000D+00 -.426095099063752D+03
 0.107429214213492D+03 -.721083616430897D+01 0.562640892467122D+02 0.285321320230229D+01
 0.211733475135866D+03 -.155461621458669D+03 -.102884520991440D+03 0.100386872084522D+03
 0.153335469750084D+03 -.810973444023535D+02 -.308920129193055D+02 0.126414676964973D+03
 0.355323772280801D+03 0.242616402372104D+03 0.795971310974580D+02 -.229654762251798D+03
 0.123006014085675D+02 0.115339965322671D+01 -.208468643342462D+01 -.120676653386926D+02
0.508175884247D-05 0.000000000000D+00 0.000000000000D+00 0.221841948755D-07 0.000000000000D+00  7 2 -2 23 -13 13 23 21 0 0.58098914D-01 0.69793591D-01 0.10619429D+06 0.10619429D+06 0.10619429D+06 0.11195864D+01  1  2  2  2  7  2       -2 0.101374401199D-03 0.100000000000D+01
-.262690604915D-06 0.000000000000D+00 -.195152920129D-07 0.221841948755D-07 0.000000000000D+00  7 2 -2 23 -13 13 23 21 2 0.58098914D-01 0.69793591D-01 0.10619429D+06 0.10619429D+06 0.10619429D+06 0.11195864D+01  1  2  3  2  7  2       -2 -.656861838101D-05 0.100000000000D+01
0.324808347700D-06 0.000000000000D+00 0.000000000000D+00 0.221841948755D-07 0.000000000000D+00  7 2 -2 23 -13 13 23 21 2 0.58098914D-01 0.69793591D-01 0.10619429D+06 0.10619429D+06 0.10619429D+06 0.11195864D+01  1  2 15  2  7  2       -2 0.812188195196D-05 0.100000000000D+01
0.589899110196D-06 0.000000000000D+00 0.000000000000D+00 0.221841948755D-07 0.000000000000D+00  7 2 -2 23 -13 13 23 21 2 0.58098914D-01 0.71858184D-01 0.10696587D+06 0.10696587D+06 0.10696587D+06 0.11193300D+01  1  2 12  2  7  2       -2 0.138460023099D-04 0.100000000000D+01
-.112235540102D-02 0.000000000000D+00 0.000000000000D+00 0.221841948755D-07 0.000000000000D+00  7 2 -2 23 -13 13 23 21 2 0.58098914D-01 0.69793591D-01 0.10619429D+06 0.10619429D+06 0.10619429D+06 0.11195864D+01  1  2  4  2  7  2       -2 -.280646668713D-01 0.100000000000D+01
-.124149537909D-02 0.000000000000D+00 -.217541701604D-04 0.221841948755D-07 0.000000000000D+00  7 2 -2 23 -13 13 23 21 2 0.58098914D-01 0.71858094D-01 0.10619429D+06 0.10619429D+06 0.10619429D+06 0.11195864D+01  1  2  5  2  7  2       -2 -.291573903906D-01 0.100000000000D+01
0.124161118762D-02 0.000000000000D+00 0.217449302428D-04 0.221841948755D-07 0.000000000000D+00  7 2 -2 23 -13 13 23 21 2 0.58098914D-01 0.69793591D-01 0.10619429D+06 0.10619429D+06 0.10619429D+06 0.11195864D+01  1  2  6  2  7  2       -2 0.310466758858D-01 0.100000000000D+01
0.112226556870D-02 0.000000000000D+00 0.000000000000D+00 0.221841948755D-07 0.261271297171D-07  7 2 -2 23 -13 13 23 21 2 0.58115502D-01 0.71848375D-01 0.10696587D+06 0.10696587D+06 0.10696587D+06 0.11193300D+01  1  2 11  2  7  2       -2 0.263411721195D-01 0.100000000000D+01
0.218216338657D-07 0.000000000000D+00 0.000000000000D+00 0.221841948755D-07 0.000000000000D+00  7 2 21 23 -13 13 23 2 2 0.58098914D-01 0.71858184D-01 0.10696587D+06 0.10696587D+06 0.10696587D+06 0.11193300D+01  1  2 12  4  7  2       -2 0.516344498290D-05 0.100000000000D+01
-.650955613735D-05 0.000000000000D+00 -.113872520673D-06 0.221841948755D-07 0.000000000000D+00  7 2 21 23 -13 13 23 2 2 0.58098914D-01 0.71858094D-01 0.10619429D+06 0.10619429D+06 0.10619429D+06 0.11195864D+01  1  2  5  4  7  2       -2 -.154155658026D-02 0.100000000000D+01
0.584833343077D-05 0.000000000000D+00 0.000000000000D+00 0.221841948755D-07 0.136020584140D-09  7 2 21 23 -13 13 23 2 2 0.58115502D-01 0.71848375D-01 0.10696587D+06 0.10696587D+06 0.10696587D+06 0.11193300D+01  1  2 11  4  7  2       -2 0.138384485690D-02 0.100000000000D+01
  </mgrwgt>
  </event>
  <event>
  8     66 0.55102590E-06 0.43832447E+03 0.75467711E-02 0.94129697E-01
        2 -1    0    0  501    0 0.00000000E+00 0.00000000E+00 0.76582791E+03 0.76582798E+03 0.32000000E+00 0.0000E+00 0.9000E+01
       -2 -1    0    0    0  501 0.00000000E+00 0.00000000E+00 -.61798861E+03 0.61798869E+03 0.32000000E+00 0.0000E+00 0.9000E+01
       25  2    1    2    0    0 -.21597918E+03 0.32794084E+03 0.60069537E+03 0.77744251E+03 0.29898114E+03 0.0000E+00 0.0000E+00
       23  2    1    2    0    0 0.21597918E+03 -.32794084E+03 -.45285607E+03 0.60637416E+03 0.91754048E+02 0.0000E+00 0.0000E+00
       23  1    3    3    0    0 -.16905576E+03 0.85185500E+02 0.37775437E+03 0.43226153E+03 0.91188000E+02 0.0000E+00 0.9000E+01
      -11  1    4    4    0    0 -.49337249E+01 -.38851902E+02 -.50606673E+02 0.63990994E+02 0.51099893E-03 0.0000E+00 0.9000E+01
       11  1    4    4    0    0 0.22091290E+03 -.28908894E+03 -.40224940E+03 0.54238317E+03 0.51099893E-03 0.0000E+00 0.9000E+01
       23  1    3    3    0    0 -.46923418E+02 0.24275534E+03 0.22294100E+03 0.34518097E+03 0.91188000E+02 0.0000E+00 0.9000E+01
#aMCatNLO 1  0  0  1  1 0.16052861D+03 0.00000000D+00  -5  7  0 0.00000000D+00 0.00000000D+00 0.00000000D+00 0.00000000D+00 0.00000000D+00
  <mgrwgt>
 0.1121837122D-03    4    2    0
 0.687948419428359D+03 0.000000000000000D+00 0.000000000000000D+00 0.687948419428359D+03
 0.687948419428359D+03 0.000000000000000D+00 0.000000000000000D+00 -.687948419428359D+03
 0.394160200974808D+03 -.169055759061569D+03 0.851854995681807D+02 0.333482523799880D+03
 0.697969907146833D+02 -.493372491848501D+01 -.388519023360507D+02 -.577737652929449D+02
 0.588726650978159D+03 0.220912902252979D+03 -.289088935670423D+03 -.462843544259901D+03
 0.323212996189068D+03 -.469234182729258D+02 0.242755338438293D+03 0.187134785752966D+03
 0.000000000000000D+00 -.000000000000000D+00 -.000000000000000D+00 -.000000000000000D+00
 0.757792800055964D+03 0.000000000000000D+00 0.000000000000000D+00 0.757792800055964D+03
 0.791457557667904D+03 0.000000000000000D+00 0.000000000000000D+00 -.791457557667904D+03
 0.378777495219603D+03 -.124602346710828D+03 0.917649227921714D+02 0.333482523799880D+03
 0.690373353050024D+02 0.305095427800992D+01 -.376701126608952D+02 -.577737652929449D+02
 0.613278401668191D+03 0.290042958292479D+03 -.278857192545882D+03 -.462843544259901D+03
 0.324136548384536D+03 -.969286737383180D+01 0.248265726466432D+03 0.187134785752966D+03
 0.164020577146535D+03 -.158798698485830D+03 -.235033440518265D+02 -.336647576119398D+02
0.593207383651D-04 0.000000000000D+00 0.000000000000D+00 0.740708548603D-06 0.000000000000D+00  7 2 -2 23 -11 11 23 21 0 0.11781969D+00 0.95075182D-01 0.19212834D+06 0.19212834D+06 0.19212834D+06 0.10991672D+01  1  2  2  1  7  1        2 0.258113634661D-03 0.100000000000D+01
-.248146321664D-05 0.000000000000D+00 -.227807254831D-06 0.740708548603D-06 0.000000000000D+00  7 2 -2 23 -11 11 23 21 2 0.11781969D+00 0.95075182D-01 0.19212834D+06 0.19212834D+06 0.19212834D+06 0.10991672D+01  1  2  3  1  7  1        2 -.130448707880D-04 0.100000000000D+01
0.360271553420D-05 0.000000000000D+00 0.000000000000D+00 0.740708548603D-06 0.000000000000D+00  7 2 -2 23 -11 11 23 21 2 0.11781969D+00 0.95075182D-01 0.19212834D+06 0.19212834D+06 0.19212834D+06 0.10991672D+01  1  2 15  1  7  1        2 0.189392122819D-04 0.100000000000D+01
-.288808017038D-04 0.000000000000D+00 0.000000000000D+00 0.740708548603D-06 0.000000000000D+00  7 2 -2 23 -11 11 23 21 2 0.11781969D+00 0.95075182D-01 0.19212834D+06 0.19212834D+06 0.19212834D+06 0.10991672D+01  1  2  4  1  7  1        2 -.151824263988D-03 0.100000000000D+01
  </mgrwgt>
  </event>
  <event>
  8     66 0.55102590E-06 0.17871784E+03 0.75467711E-02 0.10305019E+00
        4 -1    0    0  501    0 0.00000000E+00 0.00000000E+00 0.60056200E+02 0.60076199E+02 0.15500000E+01 0.0000E+00 0.9000E+01
       -4 -1    0    0    0  501 0.00000000E+00 0.00000000E+00 -.85102665E+03 0.85102806E+03 0.15500000E+01 0.0000E+00 0.9000E+01
       25  2    1    2    0    0 0.71843641E+02 0.18013268E+02 -.69661468E+03 0.76208472E+03 0.30002520E+03 0.0000E+00 0.0000E+00
       23  2    1    2    0    0 -.71843641E+02 -.18013268E+02 -.94355764E+02 0.14901953E+03 0.88418465E+02 0.0000E+00 0.0000E+00
       23  1    3    3    0    0 0.12253969E+03 -.44262067E+02 -.22805921E+03 0.27803122E+03 0.91188000E+02 0.0000E+00 0.9000E+01
      -13  1    4    4    0    0 0.89156968E+00 0.13631199E+01 0.15645182E+02 0.15730095E+02 0.10565837E+00 0.0000E+00 0.9000E+01
       13  1    4    4    0    0 -.72735211E+02 -.19376388E+02 -.11000095E+03 0.13328944E+03 0.10565837E+00 0.0000E+00 0.9000E+01
       23  1    3    3    0    0 -.50696051E+02 0.62275335E+02 -.46855547E+03 0.48405350E+03 0.91188000E+02 0.0000E+00 0.9000E+01
#aMCatNLO 1  0  0  1  1 0.12351006D+03 0.00000000D+00  -5  7  0 0.00000000D+00 0.00000000D+00 0.00000000D+00 0.00000000D+00 0.00000000D+00
  <mgrwgt>
 0.3484782152D-04    7    2    0
 0.226095510367373D+03 0.000000000000000D+00 0.000000000000000D+00 0.226095510367373D+03
 0.226095510367373D+03 0.000000000000000D+00 0.000000000000000D+00 -.226095510367373D+03
 0.161275505559949D+03 0.122539692384096D+03 -.442620636966464D+02 0.268222082860843D+02
 0.590604894893538D+02 0.891669704502185D+00 0.136314813394636D+01 0.590380230955023D+02
 0.761472223649908D+02 -.727353176365171D+02 -.193764183105078D+02 0.115120569697403D+02
 0.155707803320453D+03 -.506960444520813D+02 0.622753338732079D+02 -.973722883513269D+02
 0.000000000000000D+00 0.000000000000000D+00 0.000000000000000D+00 0.000000000000000D+00
 0.297941629324936D+03 0.000000000000000D+00 0.000000000000000D+00 0.297941629324936D+03
 0.294375126984317D+03 0.000000000000000D+00 0.000000000000000D+00 -.294375126984317D+03
 0.175271564384737D+03 0.117256063472978D+03 -.890867816196761D+02 0.268222082860843D+02
 0.608256560434511D+02 -.990485753525642D+00 -.146044924616782D+02 0.590380230955023D+02
 0.865182452098521D+02 -.752890881015527D+02 -.410418385474407D+02 0.115120569697403D+02
 0.146139751215029D+03 -.554349074769656D+02 0.220722458177001D+02 -.973722883513269D+02
 0.123561539456184D+03 0.144584178590661D+02 0.122660866811095D+03 0.356650234061887D+01
0.483744626276D-05 0.000000000000D+00 0.000000000000D+00 0.264310710231D-07 0.000000000000D+00  7 4 -4 23 -13 13 23 21 0 0.92410623D-02 0.13092882D+00 0.31940065D+05 0.31940065D+05 0.31940065D+05 0.11648193D+01  1  2  2  1  7  1        4 0.330964967163D-04 0.100000000000D+01
-.250678913090D-06 0.000000000000D+00 -.185770673779D-07 0.264310710231D-07 0.000000000000D+00  7 4 -4 23 -13 13 23 21 2 0.92410623D-02 0.13092882D+00 0.31940065D+05 0.31940065D+05 0.31940065D+05 0.11648193D+01  1  2  3  1  7  1        4 -.232702362065D-05 0.100000000000D+01
0.308310702061D-06 0.000000000000D+00 0.000000000000D+00 0.264310710231D-07 0.000000000000D+00  7 4 -4 23 -13 13 23 21 2 0.92410623D-02 0.13092882D+00 0.31940065D+05 0.31940065D+05 0.31940065D+05 0.11648193D+01  1  2 15  1  7  1        4 0.286201291266D-05 0.100000000000D+01
-.163072183822D-05 0.000000000000D+00 0.000000000000D+00 0.264310710231D-07 0.000000000000D+00  7 4 -4 23 -13 13 23 21 2 0.92410623D-02 0.13092882D+00 0.31940065D+05 0.31940065D+05 0.31940065D+05 0.11648193D+01  1  2  4  1  7  1        4 -.151378039320D-04 0.100000000000D+01
-.166476863344D-05 0.000000000000D+00 -.181581946497D-05 0.264310710231D-07 0.000000000000D+00  7 4 -4 23 -13 13 23 21 2 0.15938184D-01 0.13092882D+00 0.31940065D+05 0.31940065D+05 0.31940065D+05 0.11648193D+01  1  2  5  1  7  1        4 -.610948057670D-05 0.100000000000D+01
0.251197110856D-05 0.000000000000D+00 0.157587659770D-05 0.264310710231D-07 0.000000000000D+00  7 4 -4 23 -13 13 23 21 2 0.92410623D-02 0.13092882D+00 0.31940065D+05 0.31940065D+05 0.31940065D+05 0.11648193D+01  1  2  6  1  7  1        4 0.233183399112D-04 0.100000000000D+01
-.108303576579D-07 0.000000000000D+00 -.109795715558D-06 0.264310710231D-07 0.000000000000D+00  7 21 -4 23 -13 13 23 -4 2 0.15938184D-01 0.13092882D+00 0.31940065D+05 0.31940065D+05 0.31940065D+05 0.11648193D+01  1  2  5  3  7  1        4 -.854719894238D-06 0.100000000000D+01
  </mgrwgt>
  </event>
  <event>
  9     66 0.55102590E-06 0.39541833E+03 0.75467711E-02 0.96903410E-01
        2 -1    0    0  502    0 0.00000000E+00 0.00000000E+00 0.13515337E+04 0.13515337E+04 0.32000000E+00 0.0000E+00 0.9000E+01
       -2 -1    0    0    0  501 0.00000000E+00 0.00000000E+00 -.15773556E+03 0.15773588E+03 0.32000000E+00 0.0000E+00 0.9000E+01
       25  2    1    2    0    0 -.30418941E+03 -.18509562E+03 0.39455611E+03 0.60863876E+03 0.29660586E+03 0.0000E+00 0.0000E+00
       23  2    1    2    0    0 0.30341420E+03 0.15477258E+03 0.79551118E+03 0.87006011E+03 0.90287415E+02 0.0000E+00 0.0000E+00
       23  1    3    3    0    0 -.18756778E+03 0.67715169E+01 0.25312464E+03 0.32804705E+03 0.91188000E+02 0.0000E+00 0.9000E+01
      -13  1    4    4    0    0 0.22536044E+03 0.11693452E+03 0.67817631E+03 0.72414372E+03 0.10565837E+00 0.0000E+00 0.9000E+01
       13  1    4    4    0    0 0.78053759E+02 0.37838054E+02 0.11733488E+03 0.14591639E+03 0.10565837E+00 0.0000E+00 0.9000E+01
       23  1    3    3    0    0 -.11662162E+03 -.19186714E+03 0.14143147E+03 0.28059172E+03 0.91188000E+02 0.0000E+00 0.9000E+01
       21  1    1    2  502  501 0.77520255E+00 0.30323047E+02 0.37308301E+01 0.30570732E+02 0.75000000E+00 0.0000E+00 0.9000E+01
#aMCatNLO 2  0  0  1  2 0.30332954D+02 0.00000000D+00  -5  7  0 0.00000000D+00 0.00000000D+00 0.00000000D+00 0.00000000D+00 0.00000000D+00
  <mgrwgt>
 0.1007139487D-03    2    2    0
 0.438568723939897D+03 0.000000000000000D+00 0.000000000000000D+00 0.438568723939897D+03
 0.438568723939897D+03 0.000000000000000D+00 0.000000000000000D+00 -.438568723939897D+03
 0.209667670701315D+03 -.187382623486797D+03 0.140143149116872D+02 -.183475389651154D+02
 0.304896149819146D+03 0.225628075493483D+03 0.127395482817389D+03 0.160698552206828D+03
 0.881704577137569D+02 0.781308264768499D+02 0.408604368423172D+02 -.168132545229341D+00
 0.274403169645576D+03 -.116376278483536D+03 -.182270234571394D+03 -.142182880696484D+03
 0.000000000000000D+00 0.000000000000000D+00 0.000000000000000D+00 -.000000000000000D+00
 0.444468167027894D+03 0.000000000000000D+00 0.000000000000000D+00 0.444468167027894D+03
 0.479634614069160D+03 0.000000000000000D+00 0.000000000000000D+00 -.479634614069160D+03
 0.209474128768092D+03 -.187567784151869D+03 0.677151692256713D+01 -.183475389651154D+02
 0.300474879895550D+03 0.225360645944296D+03 0.116934631424759D+03 0.160698552206828D+03
 0.867415482305989D+02 0.780535571055040D+02 0.378379458224990D+02 -.168132545229341D+00
 0.280971217687368D+03 -.116621621446354D+03 -.191867140680200D+03 -.142182880696484D+03
 0.464410065154444D+02 0.775202548423383D+00 0.303230465103743D+02 -.351664470412657D+02
-.151896077087D-08 0.000000000000D+00 0.000000000000D+00 0.210467850625D-07 0.000000000000D+00  7 2 -2 23 -13 13 23 21 2 0.20516706D+00 0.22189165D-01 0.15635565D+06 0.15635565D+06 0.15635565D+06 0.11061325D+01  1  2  8  1  7  1        2 -.634495293270D-07 0.100000000000D+01
0.289238184468D-05 0.000000000000D+00 0.000000000000D+00 0.210467850625D-07 0.149022475394D-09  7 2 -2 23 -13 13 23 21 2 0.20792688D+00 0.24266873D-01 0.16891103D+06 0.16891103D+06 0.16891103D+06 0.11035054D+01  1  2  1  1  7  1        2 0.100777398243D-03 0.100000000000D+01
  </mgrwgt>
  </event>
  <event>
  8     66 0.55102590E-06 0.14931283E+03 0.75467711E-02 0.10801107E+00
        2 -1    0    0  501    0 0.00000000E+00 0.00000000E+00 0.14950800E+03 0.14950834E+03 0.32000000E+00 0.0000E+00 0.9000E+01
       -2 -1    0    0    0  501 0.00000000E+00 0.00000000E+00 -.50779713E+03 0.50779723E+03 0.32000000E+00 0.0000E+00 0.9000E+01
       25  2    1    2    0    0 0.73147575E+00 0.51162073E+02 -.26752875E+02 0.31003392E+03 0.30460995E+03 0.0000E+00 0.0000E+00
       23  2    1    2    0    0 -.73147575E+00 -.51162073E+02 -.33153625E+03 0.34727165E+03 0.89795428E+02 0.0000E+00 0.0000E+00
       23  1    3    3    0    0 0.20807315E+02 0.10105276E+03 0.80363610E+02 0.15943075E+03 0.91188000E+02 0.0000E+00 0.9000E+01
      -11  1    4    4    0    0 -.10281755E+02 -.20226059E+02 -.30377944E+03 0.30462560E+03 0.51099893E-03 0.0000E+00 0.9000E+01
       11  1    4    4    0    0 0.95502788E+01 -.30936013E+02 -.27756808E+02 0.42646045E+02 0.51099893E-03 0.0000E+00 0.9000E+01
       23  1    3    3    0    0 -.20075839E+02 -.49890687E+02 -.10711648E+03 0.15060316E+03 0.91188000E+02 0.0000E+00 0.9000E+01
#aMCatNLO 1  0  0  2  2 0.48893385D+02 0.00000000D+00  -5  7  0 0.00000000D+00 0.00000000D+00 0.00000000D+00 0.00000000D+00 0.00000000D+00
  <mgrwgt>
 0.9247513682D-04    4    2    0
 0.275535618928369D+03 0.000000000000000D+00 0.000000000000000D+00 0.275535618928369D+03
 0.275535618928369D+03 0.000000000000000D+00 0.000000000000000D+00 -.275535618928369D+03
 0.242415356066087D+03 0.208073149807014D+02 0.101052759094624D+03 0.199512779127818D+03
 0.165842866048742D+03 -.102817545279287D+02 -.202260592180647D+02 -.164283438823260D+03
 0.328206569922646D+02 0.955027877601563D+01 -.309360133005629D+02 -.538059306876725D+01
 0.109992358749645D+03 -.200758392287884D+02 -.498906865759964D+02 -.298487472357905D+02
 0.000000000000000D+00 0.000000000000000D+00 0.000000000000000D+00 0.000000000000000D+00
 0.316140373860488D+03 0.000000000000000D+00 0.000000000000000D+00 0.316140373860488D+03
 0.291739581169126D+03 0.000000000000000D+00 0.000000000000000D+00 -.291739581169126D+03
 0.236443016645431D+03 0.399119609030127D+01 0.881406268122403D+02 0.199512779127818D+03
 0.168310802486944D+03 -.220162633889540D+02 -.292363148941743D+02 -.164283438823260D+03
 0.339491314403044D+02 0.720551722530684D+01 -.327364210825680D+02 -.538059306876725D+01
 0.114533049949028D+03 -.279605211760061D+02 -.559448811835950D+02 -.298487472357905D+02
 0.546439545079079D+02 0.387800712493519D+02 0.297769903480971D+02 0.244007926913620D+02
0.405193882914D-05 0.000000000000D+00 0.000000000000D+00 0.397163085300D-08 0.000000000000D+00  7 2 -2 23 -11 11 23 21 0 0.23001265D-01 0.78122669D-01 0.22294320D+05 0.22294320D+05 0.22294320D+05 0.11794904D+01  1  2  2  2  7  2       -2 0.179296254279D-03 0.100000000000D+01
-.122370026157D-06 0.000000000000D+00 -.155605120039D-07 0.397163085300D-08 0.000000000000D+00  7 2 -2 23 -11 11 23 21 2 0.23001265D-01 0.78122669D-01 0.22294320D+05 0.22294320D+05 0.22294320D+05 0.11794904D+01  1  2  3  2  7  2       -2 -.753307327651D-05 0.100000000000D+01
0.247901409104D-06 0.000000000000D+00 0.000000000000D+00 0.397163085300D-08 0.000000000000D+00  7 2 -2 23 -11 11 23 21 2 0.23001265D-01 0.78122669D-01 0.22294320D+05 0.22294320D+05 0.22294320D+05 0.11794904D+01  1  2 15  2  7  2       -2 0.152607590173D-04 0.100000000000D+01
-.153588569985D-05 0.000000000000D+00 0.000000000000D+00 0.397163085300D-08 0.000000000000D+00  7 2 -2 23 -11 11 23 21 2 0.23001265D-01 0.78122669D-01 0.22294320D+05 0.22294320D+05 0.22294320D+05 0.11794904D+01  1  2  4  2  7  2       -2 -.945488032052D-04 0.100000000000D+01
  </mgrwgt>
  </event>
  <event>
  8     66 0.55102590E-06 0.16126920E+03 0.75467711E-02 0.98562347E-01
        2 -1    0    0  501    0 0.00000000E+00 0.00000000E+00 0.13280684E+04 0.13280684E+04 0.32000000E+00 0.0000E+00 0.9000E+01
       -2 -1    0    0    0  501 0.00000000E+00 0.00000000E+00 -.71390840E+02 0.71391558E+02 0.32000000E+00 0.0000E+00 0.9000E+01
       25  2    1    2    0    0 -.19011127E+03 0.10863519E+03 0.84690412E+03 0.92617438E+03 0.30431644E+03 0.0000E+00 0.0000E+00
       23  2    1    2    0    0 0.19011127E+03 -.10863519E+03 0.40977339E+03 0.47328557E+03 0.90228018E+02 0.0000E+00 0.0000E+00
       23  1    3    3    0    0 -.17494551E+03 0.16399609E+03 0.48636960E+03 0.54988298E+03 0.91188000E+02 0.0000E+00 0.9000E+01
      -11  1    4    4    0    0 0.66710723E+02 -.61554077E+02 0.92396931E+02 0.12952381E+03 0.51099893E-03 0.0000E+00 0.9000E+01
       11  1    4    4    0    0 0.12340055E+03 -.47081117E+02 0.31737646E+03 0.34376176E+03 0.51099893E-03 0.0000E+00 0.9000E+01
       23  1    3    3    0    0 -.15165758E+02 -.55360897E+02 0.36053451E+03 0.37629140E+03 0.91188000E+02 0.0000E+00 0.9000E+01
#aMCatNLO 1  0  0  1  2 0.11558551D+03 0.00000000D+00  -5  7  0 0.00000000D+00 0.00000000D+00 0.00000000D+00 0.00000000D+00 0.00000000D+00
  <mgrwgt>
 0.2617891882D-03    9    2    0
 0.307916294794915D+03 0.000000000000000D+00 0.000000000000000D+00 0.307916294794915D+03
 0.307916294794915D+03 0.000000000000000D+00 0.000000000000000D+00 -.307916294794915D+03
 0.257098223507171D+03 -.174945512353604D+03 0.163996090595887D+03 -.168402839389295D+02
 0.105792130266824D+03 0.667107232563324D+02 -.615540766142187D+02 -.543392112675607D+02
 0.133544325402775D+03 0.123400547420999D+03 -.470811173852175D+02 0.197423435599554D+02
 0.119397910413061D+03 -.151657583237268D+02 -.553608965964513D+02 0.514371516465348D+02
 0.000000000000000D+00 -.000000000000000D+00 0.000000000000000D+00 0.000000000000000D+00
 0.376560485731626D+03 0.000000000000000D+00 0.000000000000000D+00 0.376560485731626D+03
 0.366084605557130D+03 0.000000000000000D+00 0.000000000000000D+00 -.366084605557130D+03
 0.228302767143722D+03 -.171368328995553D+03 0.118979841971692D+03 -.168402839389295D+02
 0.120148005993580D+03 0.683757987524967D+02 -.825078396760624D+02 -.543392112675607D+02
 0.146519750213539D+03 0.125464491602776D+03 -.730543525072632D+02 0.197423435599554D+02
 0.131615295950636D+03 -.133159057652238D+02 -.786399444831739D+02 0.514371516465348D+02
 0.116059271987278D+03 -.915605559449669D+01 0.115222294694808D+03 0.104758801744959D+02
0.160464975796D-05 0.000000000000D+00 0.000000000000D+00 0.482933744840D-08 0.000000000000D+00  7 2 -2 23 -11 11 23 21 0 0.20431827D+00 0.10983264D-01 0.86184323D+05 0.86184323D+05 0.86184323D+05 0.11270597D+01  1  2  2  1  7  1        2 0.172988127204D-03 0.100000000000D+01
-.889005260758D-07 0.000000000000D+00 -.616227758455D-08 0.482933744840D-08 0.000000000000D+00  7 2 -2 23 -11 11 23 21 2 0.20431827D+00 0.10983264D-01 0.86184323D+05 0.86184323D+05 0.86184323D+05 0.11270597D+01  1  2  3  1  7  1        2 -.121740263720D-04 0.100000000000D+01
0.103169058618D-06 0.000000000000D+00 0.000000000000D+00 0.482933744840D-08 0.000000000000D+00  7 2 -2 23 -11 11 23 21 2 0.20431827D+00 0.10983264D-01 0.86184323D+05 0.86184323D+05 0.86184323D+05 0.11270597D+01  1  2 15  1  7  1        2 0.141279573454D-04 0.100000000000D+01
0.716146984816D-06 0.000000000000D+00 0.000000000000D+00 0.482933744840D-08 0.000000000000D+00  7 2 -2 23 -11 11 23 21 2 0.26539911D+00 0.10983264D-01 0.12843465D+06 0.12843465D+06 0.12843465D+06 0.11129110D+01  1  2 12  1  7  1        2 0.580487979596D-04 0.100000000000D+01
-.757564620872D-06 0.000000000000D+00 0.000000000000D+00 0.482933744840D-08 0.000000000000D+00  7 2 -2 23 -11 11 23 21 2 0.20431827D+00 0.10983264D-01 0.86184323D+05 0.86184323D+05 0.86184323D+05 0.11270597D+01  1  2  4  1  7  1        2 -.103740799746D-03 0.100000000000D+01
-.186300753460D-05 0.000000000000D+00 -.707164308283D-06 0.482933744840D-08 0.000000000000D+00  7 2 -2 23 -11 11 23 21 2 0.27645813D+00 0.10983264D-01 0.86184323D+05 0.86184323D+05 0.86184323D+05 0.11270597D+01  1  2  5  1  7  1        2 -.142841299843D-03 0.100000000000D+01
0.201515139111D-05 0.000000000000D+00 0.676022402775D-06 0.482933744840D-08 0.000000000000D+00  7 2 -2 23 -11 11 23 21 2 0.20431827D+00 0.10983264D-01 0.86184323D+05 0.86184323D+05 0.86184323D+05 0.11270597D+01  1  2  6  1  7  1        2 0.275954566995D-03 0.100000000000D+01
0.250555210827D-07 0.000000000000D+00 0.000000000000D+00 0.482933744840D-08 0.000000000000D+00  7 21 -2 23 -11 11 23 -2 2 0.26539911D+00 0.10983264D-01 0.12843465D+06 0.12843465D+06 0.12843465D+06 0.11129110D+01  1  2 12  3  7  1        2 0.569909766354D-06 0.100000000000D+01
-.563763277538D-07 0.000000000000D+00 -.274921311660D-07 0.482933744840D-08 0.000000000000D+00  7 21 -2 23 -11 11 23 -2 2 0.27645813D+00 0.10983264D-01 0.86184323D+05 0.86184323D+05 0.86184323D+05 0.11270597D+01  1  2  5  3  7  1        2 -.114404515859D-05 0.100000000000D+01
  </mgrwgt>
  </event>
  <event>
  9     66 0.55102590E-06 0.22484982E+03 0.75467711E-02 0.10094881E+00
        2 -1    0    0  502    0 0.00000000E+00 0.00000000E+00 0.18811516E+04 0.18811516E+04 0.32000000E+00 0.0000E+00 0.9000E+01
       -2 -1    0    0    0  501 0.00000000E+00 0.00000000E+00 -.72932661E+02 0.72933363E+02 0.32000000E+00 0.0000E+00 0.9000E+01
       25  2    1    2    0    0 0.94036242E+02 0.13947079E+03 0.12322100E+04 0.12820418E+04 0.31144004E+03 0.0000E+00 0.0000E+00
       23  2    1    2    0    0 0.25048461E+02 -.14491871E+03 0.14769182E+03 0.22744561E+03 0.91048197E+02 0.0000E+00 0.0000E+00
       23  1    3    3    0    0 0.14385012E+03 0.10569940E+03 0.10548767E+04 0.10737529E+04 0.91188000E+02 0.0000E+00 0.9000E+01
      -11  1    4    4    0    0 -.26104416E+02 -.41576705E+02 0.79633254E+02 0.93549549E+02 0.51099893E-03 0.0000E+00 0.9000E+01
       11  1    4    4    0    0 0.51152878E+02 -.10334201E+03 0.68058565E+02 0.13389606E+03 0.51099893E-03 0.0000E+00 0.9000E+01
       23  1    3    3    0    0 -.49813880E+02 0.33771383E+02 0.17733331E+03 0.20828894E+03 0.91188000E+02 0.0000E+00 0.9000E+01
       21  1    1    2  502  501 -.11908470E+03 0.54479252E+01 0.42831711E+03 0.44459752E+03 0.75000000E+00 0.0000E+00 0.9000E+01
#aMCatNLO 2  0  0  1  2 0.11920925D+03 0.00000000D+00  -5  7  0 0.00000000D+00 0.00000000D+00 0.00000000D+00 0.00000000D+00 0.00000000D+00
  <mgrwgt>
 0.2539796708D-04    2    2    0
 0.300088529920962D+03 0.000000000000000D+00 0.000000000000000D+00 0.300088529920962D+03
 0.300088529920962D+03 0.000000000000000D+00 0.000000000000000D+00 -.300088529920962D+03
 0.247653203555597D+03 0.929952601667463D+02 0.108025928009275D+03 0.180829030721299D+03
 0.569963941125586D+02 -.367339618724903D+02 -.410904214858057D+02 -.145183418165907D+02
 0.169193007935538D+03 0.171570501822468D+02 -.101786755092852D+03 -.134057323749905D+03
 0.126334454238229D+03 -.734183484765028D+02 0.348512485693832D+02 -.322533651548032D+02
 0.000000000000000D+00 -.000000000000000D+00 0.000000000000000D+00 0.000000000000000D+00
 0.398380424204140D+03 0.000000000000000D+00 0.000000000000000D+00 0.398380424204140D+03
 0.344387610111354D+03 0.000000000000000D+00 0.000000000000000D+00 -.344387610111354D+03
 0.269962239285309D+03 0.143850120032928D+03 0.105699403550098D+03 0.180829030721299D+03
 0.511941912348238D+02 -.261044160720719D+02 -.415767053603397D+02 -.145183418165907D+02
 0.176826336779001D+03 0.511528776441689D+02 -.103342007123990D+03 -.134057323749905D+03
 0.113918654135513D+03 -.498138785408627D+02 0.337713836991295D+02 -.322533651548032D+02
 0.130866612880845D+03 -.119084703064162D+03 0.544792523510202D+01 0.539928140927859D+02
-.525452570250D-06 0.000000000000D+00 0.000000000000D+00 0.112781900575D-08 0.000000000000D+00  7 2 -2 23 -11 11 23 21 2 0.30132232D+00 0.97771315D-02 0.88006805D+05 0.88006805D+05 0.88006805D+05 0.11263038D+01  1  2 13  1  7  1        2 -.394687012814D-04 0.100000000000D+01
0.971446041871D-06 0.000000000000D+00 0.000000000000D+00 0.112781900575D-08 0.566503614178D-12  7 2 -2 23 -11 11 23 21 2 0.28940712D+00 0.11220432D-01 0.88006805D+05 0.88006805D+05 0.88006805D+05 0.11263038D+01  1  2  1  1  7  1        2 0.648666683631D-04 0.100000000000D+01
  </mgrwgt>
  </event>
  <event>
  8     66 0.55102590E-06 0.19189358E+03 0.75467711E-02 0.93767656E-01
        2 -1    0    0  501    0 0.00000000E+00 0.00000000E+00 0.18250651E+04 0.18250651E+04 0.32000000E+00 0.0000E+00 0.9000E+01
       -2 -1    0    0    0  501 0.00000000E+00 0.00000000E+00 -.85309045E+02 0.85309645E+02 0.32000000E+00 0.0000E+00 0.9000E+01
       25  2    1    2    0    0 -.25831936E+03 -.20619753E+03 0.99945457E+03 0.10944713E+04 0.29951910E+03 0.0000E+00 0.0000E+00
       23  2    1    2    0    0 0.25831936E+03 0.20619753E+03 0.74030146E+03 0.81590344E+03 0.91683460E+02 0.0000E+00 0.0000E+00
       23  1    3    3    0    0 -.13607591E+03 -.19579362E+03 0.38985299E+03 0.46599614E+03 0.91188000E+02 0.0000E+00 0.9000E+01
      -13  1    4    4    0    0 0.11540435E+03 0.41370368E+02 0.31252052E+03 0.33570636E+03 0.10565837E+00 0.0000E+00 0.9000E+01
       13  1    4    4    0    0 0.14291501E+03 0.16482717E+03 0.42778093E+03 0.48019708E+03 0.10565837E+00 0.0000E+00 0.9000E+01
       23  1    3    3    0    0 -.12224345E+03 -.10403909E+02 0.60960158E+03 0.62847517E+03 0.91188000E+02 0.0000E+00 0.9000E+01
#aMCatNLO 1  0  0  2  1 0.28712256D+03 0.00000000D+00  -5  7  0 0.00000000D+00 0.00000000D+00 0.00000000D+00 0.00000000D+00 0.00000000D+00
  <mgrwgt>
 0.8573495178D-04    7    2    0
 0.394582257775211D+03 0.000000000000000D+00 0.000000000000000D+00 0.394582257775211D+03
 0.394582257775211D+03 0.000000000000000D+00 0.000000000000000D+00 -.394582257775211D+03
 0.268610865230600D+03 -.136075905729650D+03 -.195793623849639D+03 -.835748186693428D+02
 0.123694598650904D+03 0.115404314785364D+03 0.413702041458294D+02 0.164530870435009D+02
 0.219373788808305D+03 0.142915043739937D+03 0.164827329271714D+03 -.230673148432332D+02
 0.177485262860613D+03 -.122243452795652D+03 -.104039095679047D+02 0.901890464690751D+02
 0.000000000000000D+00 -.000000000000000D+00 0.000000000000000D+00 -.000000000000000D+00
 0.472370733913649D+03 0.000000000000000D+00 0.000000000000000D+00 0.472370733913649D+03
 0.812576145751163D+03 0.000000000000000D+00 0.000000000000000D+00 -.812576145751163D+03
 0.248468385485105D+03 -.461273891021514D+02 -.210496557930480D+03 -.835748186693428D+02
 0.170636763906149D+03 0.166604724436908D+03 0.330010138996326D+02 0.164530870435009D+02
 0.275084008091708D+03 0.228928445562766D+03 0.150767626849858D+03 -.230673148432332D+02
 0.145584621524813D+03 -.660438338257085D+02 -.195902677655104D+02 0.901890464690751D+02
 0.445173100657037D+03 -.283361947071813D+03 0.463181849465001D+02 -.340205411837514D+03
0.239732137776D-05 0.000000000000D+00 0.000000000000D+00 0.138649028196D-06 0.000000000000D+00  7 2 -2 23 -13 13 23 21 0 0.28077929D+00 0.13124517D-01 0.14021056D+06 0.14021056D+06 0.14021056D+06 0.11098724D+01  1  2  2  2  7  2       -2 0.104597727848D-03 0.100000000000D+01
-.132740276591D-06 0.000000000000D+00 -.920634531981D-08 0.138649028196D-06 0.000000000000D+00  7 2 -2 23 -13 13 23 21 2 0.28077929D+00 0.13124517D-01 0.14021056D+06 0.14021056D+06 0.14021056D+06 0.11098724D+01  1  2  3  2  7  2       -2 -.713419190245D-05 0.100000000000D+01
0.154371353521D-06 0.000000000000D+00 0.000000000000D+00 0.138649028196D-06 0.000000000000D+00  7 2 -2 23 -13 13 23 21 2 0.28077929D+00 0.13124517D-01 0.14021056D+06 0.14021056D+06 0.14021056D+06 0.11098724D+01  1  2 15  2  7  2       -2 0.829676484442D-05 0.100000000000D+01
0.197623806431D-06 0.000000000000D+00 0.000000000000D+00 0.138649028196D-06 0.000000000000D+00  7 2 -2 23 -13 13 23 21 2 0.28077929D+00 0.27084537D-01 0.29125145D+06 0.29125145D+06 0.29125145D+06 0.10855041D+01  1  2 12  2  7  2       -2 0.298719729942D-05 0.100000000000D+01
-.127219761152D-05 0.000000000000D+00 -.755456687919D-06 0.138649028196D-06 0.000000000000D+00  7 2 -2 23 -13 13 23 21 2 0.28077929D+00 0.32671300D-01 0.14021056D+06 0.14021056D+06 0.14021056D+06 0.11098724D+01  1  2  5  2  7  2       -2 -.148539695998D-04 0.100000000000D+01
0.154816318277D-07 0.000000000000D+00 0.000000000000D+00 0.138649028196D-06 0.000000000000D+00  7 2 21 23 -13 13 23 2 2 0.28077929D+00 0.27084537D-01 0.29125145D+06 0.29125145D+06 0.29125145D+06 0.10855041D+01  1  2 12  4  7  2       -2 0.275729014089D-05 0.100000000000D+01
-.808398129159D-07 0.000000000000D+00 -.757901696477D-07 0.138649028196D-06 0.000000000000D+00  7 2 21 23 -13 13 23 2 2 0.28077929D+00 0.32671300D-01 0.14021056D+06 0.14021056D+06 0.14021056D+06 0.11098724D+01  1  2  5  4  7  2       -2 -.109158668532D-04 0.100000000000D+01
  </mgrwgt>
  </event>
  <event>
  8     66 0.55102590E-06 0.90993104E+03 0.75467711E-02 0.86613847E-01
        2 -1    0    0  501    0 0.00000000E+00 0.00000000E+00 0.14206689E+04 0.14206689E+04 0.32000000E+00 0.0000E+00 0.9000E+01
       -2 -1    0    0    0  501 0.00000000E+00 0.00000000E+00 -.74373805E+03 0.74373812E+03 0.32000000E+00 0.0000E+00 0.9000E+01
       25  2    1    2    0    0 -.30882798E+03 -.83194090E+03 0.83960946E+03 0.12580742E+04 0.30050996E+03 0.0000E+00 0.0000E+00
       23  2    1    2    0    0 0.30882798E+03 0.83194090E+03 -.16267863E+03 0.90633284E+03 0.86455181E+02 0.0000E+00 0.0000E+00
       23  1    3    3    0    0 -.16359722E+03 -.18897454E+03 0.18084746E+03 0.32170869E+03 0.91188000E+02 0.0000E+00 0.9000E+01
      -11  1    4    4    0    0 0.44592367E+02 0.83857847E+02 0.62038646E+01 0.95179334E+02 0.51099893E-03 0.0000E+00 0.9000E+01
       11  1    4    4    0    0 0.26423561E+03 0.74808305E+03 -.16888250E+03 0.81115351E+03 0.51099893E-03 0.0000E+00 0.9000E+01
       23  1    3    3    0    0 -.14523075E+03 -.64296636E+03 0.65876200E+03 0.93636549E+03 0.91188000E+02 0.0000E+00 0.9000E+01
#aMCatNLO 1  0  0  1  1 0.32008509D+03 0.00000000D+00  -5  7  0 0.00000000D+00 0.00000000D+00 0.00000000D+00 0.00000000D+00 0.00000000D+00
  <mgrwgt>
 0.4604643717D-03    4    2    0
 0.102791323017966D+04 0.000000000000000D+00 0.000000000000000D+00 0.102791323017966D+04
 0.102791323017966D+04 0.000000000000000D+00 0.000000000000000D+00 -.102791323017966D+04
 0.279151643728712D+03 -.163597224085646D+03 -.188974539637740D+03 0.844686953410355D+02
 0.981635536982268D+02 0.445923665781438D+02 0.838578465916155D+02 -.248085808268461D+02
 0.909604071605206D+03 0.264235609218824D+03 0.748083054237971D+03 -.444894205248296D+03
 0.768907191327181D+03 -.145230751711322D+03 -.642966361191846D+03 0.385234090734107D+03
 0.000000000000000D+00 0.000000000000000D+00 -.000000000000000D+00 -.000000000000000D+00
 0.108020716172715D+04 0.000000000000000D+00 0.000000000000000D+00 0.108020716172715D+04
 0.168209010438710D+04 0.000000000000000D+00 0.000000000000000D+00 -.168209010438710D+04
 0.302975100183538D+03 -.208068407423818D+03 -.181799992647757D+03 0.844686953410355D+02
 0.945714899831841D+02 0.298685017963211D+02 0.862332513328848D+02 -.248085808268461D+02
 0.898498594316990D+03 0.126106815117955D+03 0.770367406700789D+03 -.444894205248296D+03
 0.784550138444756D+03 -.263906085636076D+03 -.623820440263219D+03 0.385234090734107D+03
 0.681701943185784D+03 0.315999176145618D+03 -.509802251226983D+02 -.601882942659953D+03
0.475869858072D-03 0.000000000000D+00 0.000000000000D+00 0.275171077758D-06 0.000000000000D+00  7 2 -2 23 -11 11 23 21 0 0.21856445D+00 0.11442125D+00 0.82797450D+06 0.82797450D+06 0.82797450D+06 0.10533653D+01  1  2  2  1  7  1        2 0.485849749061D-03 0.100000000000D+01
-.259594350879D-04 0.000000000000D+00 -.182746555441D-05 0.275171077758D-06 0.000000000000D+00  7 2 -2 23 -11 11 23 21 2 0.21856445D+00 0.11442125D+00 0.82797450D+06 0.82797450D+06 0.82797450D+06 0.10533653D+01  1  2  3  1  7  1        2 -.294081038922D-04 0.100000000000D+01
0.299222266711D-04 0.000000000000D+00 0.000000000000D+00 0.275171077758D-06 0.000000000000D+00  7 2 -2 23 -11 11 23 21 2 0.21856445D+00 0.11442125D+00 0.82797450D+06 0.82797450D+06 0.82797450D+06 0.10533653D+01  1  2 15  1  7  1        2 0.338973459034D-04 0.100000000000D+01
-.263712425662D-04 0.000000000000D+00 0.000000000000D+00 0.275171077758D-06 0.000000000000D+00  7 2 -2 23 -11 11 23 21 2 0.21856445D+00 0.11442125D+00 0.82797450D+06 0.82797450D+06 0.82797450D+06 0.10533653D+01  1  2  4  1  7  1        2 -.298746193254D-04 0.100000000000D+01
  </mgrwgt>
  </event>
  <event>
  8     66 0.55102590E-06 0.33083893E+03 0.75467711E-02 0.89764581E-01
        2 -1    0    0  501    0 0.00000000E+00 0.00000000E+00 0.23526884E+04 0.23526884E+04 0.32000000E+00 0.0000E+00 0.9000E+01
       -2 -1    0    0    0  501 0.00000000E+00 0.00000000E+00 -.80783728E+02 0.80784362E+02 0.32000000E+00 0.0000E+00 0.9000E+01
       25  2    1    2    0    0 -.24436423E+03 -.11662940E+03 0.19946670E+04 0.20354204E+04 0.30153507E+03 0.0000E+00 0.0000E+00
       23  2    1    2    0    0 0.24436423E+03 0.11662940E+03 0.27723761E+03 0.39805234E+03 0.90932269E+02 0.0000E+00 0.0000E+00
       23  1    3    3    0    0 -.18805078E+03 -.16340647E+03 0.16564157E+04 0.16775259E+04 0.91188000E+02 0.0000E+00 0.9000E+01
      -11  1    4    4    0    0 0.19169940E+03 0.12085123E+03 0.18844124E+03 0.29472662E+03 0.51099893E-03 0.0000E+00 0.9000E+01
       11  1    4    4    0    0 0.52664832E+02 -.42218330E+01 0.88796376E+02 0.10332572E+03 0.51099893E-03 0.0000E+00 0.9000E+01
       23  1    3    3    0    0 -.56313453E+02 0.46777071E+02 0.33825127E+03 0.35789450E+03 0.91188000E+02 0.0000E+00 0.9000E+01
#aMCatNLO 1  0  0  2  1 0.64209995D+03 0.00000000D+00  -5  7  0 0.00000000D+00 0.00000000D+00 0.00000000D+00 0.00000000D+00 0.00000000D+00
  <mgrwgt>
 0.2837270492D-03    5    2    0
 0.435958407707468D+03 0.000000000000000D+00 0.000000000000000D+00 0.435958407707468D+03
 0.435958407707468D+03 0.000000000000000D+00 0.000000000000000D+00 -.435958407707468D+03
 0.365854794614104D+03 -.188050778795516D+03 -.163406470248122D+03 0.251931954054220D+03
 0.331555339127462D+03 0.191699400180077D+03 0.120851232351637D+03 -.242023268537585D+03
 0.570047835889755D+02 0.526648317371569D+02 -.422183296170078D+01 -.214041345670964D+02
 0.117501898084394D+03 -.563134531217175D+02 0.467770708581859D+02 0.114954490504618D+02
 0.000000000000000D+00 -.000000000000000D+00 0.000000000000000D+00 -.000000000000000D+00
 0.677643280012965D+03 0.000000000000000D+00 0.000000000000000D+00 0.677643280012965D+03
 0.129805116163812D+04 0.000000000000000D+00 0.000000000000000D+00 -.129805116163812D+04
 0.437922107326105D+03 0.228299111999490D+01 -.346389375153027D+03 0.251931954054220D+03
 0.451848828042757D+03 0.377208921721567D+03 -.574937410823949D+02 -.242023268537585D+03
 0.100907794869037D+03 0.900584123469520D+02 -.401712391433435D+02 -.214041345670964D+02
 0.921561024136530D+02 -.666659522941409D+01 -.952379783007835D+00 0.114954490504618D+02
 0.892859608999537D+03 -.462883729959099D+03 0.445006735161773D+03 -.620407881625159D+03
0.103539307206D-04 0.000000000000D+00 0.000000000000D+00 0.191363279874D-06 0.000000000000D+00  7 2 -2 23 -11 11 23 21 0 0.36195210D+00 0.12428316D-01 0.10945439D+06 0.10945439D+06 0.10945439D+06 0.11185167D+01  1  2  2  2  7  2       -2 0.255730470782D-03 0.100000000000D+01
-.521975001257D-06 0.000000000000D+00 -.397618202197D-07 0.191363279874D-06 0.000000000000D+00  7 2 -2 23 -11 11 23 21 2 0.36195210D+00 0.12428316D-01 0.10945439D+06 0.10945439D+06 0.10945439D+06 0.11185167D+01  1  2  3  2  7  2       -2 -.161291632704D-04 0.100000000000D+01
0.663352796039D-06 0.000000000000D+00 0.000000000000D+00 0.191363279874D-06 0.000000000000D+00  7 2 -2 23 -11 11 23 21 2 0.36195210D+00 0.12428316D-01 0.10945439D+06 0.10945439D+06 0.10945439D+06 0.11185167D+01  1  2 15  2  7  2       -2 0.204977738922D-04 0.100000000000D+01
0.568512322130D-05 0.000000000000D+00 -.464834338215D-05 0.191363279874D-06 0.000000000000D+00  7 2 -2 23 -11 11 23 21 2 0.36195210D+00 0.67456961D-01 0.10945439D+06 0.10945439D+06 0.10945439D+06 0.11185167D+01  1  2  5  2  7  2       -2 0.862648341873D-05 0.100000000000D+01
0.970745380449D-06 0.000000000000D+00 -.961888578306D-06 0.191363279874D-06 0.000000000000D+00  7 2 21 23 -11 11 23 2 2 0.36195210D+00 0.67456961D-01 0.10945439D+06 0.10945439D+06 0.10945439D+06 0.11185167D+01  1  2  5  4  7  2       -2 0.150014844156D-04 0.100000000000D+01
  </mgrwgt>
  </event>
  <event>
  7     66 0.55102590E-06 0.19130110E+03 0.75467711E-02 0.10681208E+00
        2 -1    0    0  501    0 0.00000000E+00 0.00000000E+00 0.17958303E+04 0.17958303E+04 0.32000000E+00 0.0000E+00 0.9000E+01
       -2 -1    0    0    0  501 0.00000000E+00 0.00000000E+00 -.23168387E+02 0.23170596E+02 0.32000000E+00 0.0000E+00 0.9000E+01
       23  2    1    2    0    0 0.11156607E+02 0.52634808E+02 0.47050578E+03 0.48525171E+03 0.10582365E+03 0.0000E+00 0.0000E+00
       23  1    1    2    0    0 0.19919279E+02 -.11681873E+03 0.98176324E+03 0.99308495E+03 0.91188000E+02 0.0000E+00 0.9000E+01
      -13  1    3    3    0    0 -.24735093E+02 0.72269341E+02 0.26900774E+03 0.27964237E+03 0.10565837E+00 0.0000E+00 0.9000E+01
       13  1    3    3    0    0 0.35891700E+02 -.19634533E+02 0.20149804E+03 0.20560934E+03 0.10565837E+00 0.0000E+00 0.9000E+01
       23  1    1    2    0    0 -.31075886E+02 0.64183918E+02 0.32039288E+03 0.34066426E+03 0.91188000E+02 0.0000E+00 0.9000E+01
#aMCatNLO 1  0  0  2  1 0.42050119D+01 0.00000000D+00  -5  7  0 0.00000000D+00 0.00000000D+00 0.00000000D+00 0.00000000D+00 0.00000000D+00
  <mgrwgt>
 0.6777195662D-02    6    2    0
 0.203981681538383D+03 0.000000000000000D+00 0.000000000000000D+00 0.203981681538383D+03
 0.203981681538383D+03 0.000000000000000D+00 0.000000000000000D+00 -.203981681538383D+03
 0.162004038337898D+03 0.198920176770953D+02 -.116843141519502D+03 0.623060591465626D+02
 0.780433675801686D+02 -.247176759476382D+02 0.723482721469788D+02 -.156694363761926D+02
 0.412043815981148D+02 0.359000566585265D+02 -.195918667830029D+02 0.501455389388863D+01
 0.126711575560584D+03 -.310743983879836D+02 0.640867361555259D+02 -.516511766642586D+02
 0.000000000000000D+00 -.000000000000000D+00 -.000000000000000D+00 0.000000000000000D+00
 0.207120422655522D+03 0.000000000000000D+00 0.000000000000000D+00 0.207120422655522D+03
 0.205405772758577D+03 0.000000000000000D+00 0.000000000000000D+00 -.205405772758577D+03
 0.161043050094981D+03 0.206687069248788D+02 -.115370586318928D+03 0.623060591465626D+02
 0.785882466698461D+02 -.243410927961196D+02 0.730622507166575D+02 -.156694363761926D+02
 0.412005839468370D+02 0.360981796350040D+02 -.192162377650940D+02 0.501455389388863D+01
 0.127153153006709D+03 -.304640415324980D+02 0.652439353369442D+02 -.516511766642586D+02
 0.454116169572581D+01 -.196175223126522D+01 -.371936196958012D+01 0.171464989694524D+01
0.182535109985D-04 0.000000000000D+00 0.000000000000D+00 0.155392917235D-11 0.000000000000D+00  7 2 -2 23 -13 13 23 21 0 0.27628176D+00 0.35645394D-02 0.36596112D+05 0.36596112D+05 0.36596112D+05 0.11594113D+01  1  2  2  2  7  2       -2 0.599161234739D-02 0.100000000000D+01
-.100900497177D-05 0.000000000000D+00 -.700982884942D-07 0.155392917235D-11 0.000000000000D+00  7 2 -2 23 -13 13 23 21 2 0.27628176D+00 0.35645394D-02 0.36596112D+05 0.36596112D+05 0.36596112D+05 0.11594113D+01  1  2  3  2  7  2       -2 -.445210772124D-03 0.100000000000D+01
0.119484908600D-05 0.000000000000D+00 0.000000000000D+00 0.155392917235D-11 0.000000000000D+00  7 2 -2 23 -13 13 23 21 2 0.27628176D+00 0.35645394D-02 0.36596112D+05 0.36596112D+05 0.36596112D+05 0.11594113D+01  1  2 15  2  7  2       -2 0.527212153587D-03 0.100000000000D+01
-.449312527729D-04 0.000000000000D+00 0.000000000000D+00 0.155392917235D-11 0.000000000000D+00  7 2 -2 23 -13 13 23 21 2 0.27628176D+00 0.35645394D-02 0.36596112D+05 0.36596112D+05 0.36596112D+05 0.11594113D+01  1  2  4  2  7  2       -2 -.198253510133D-01 0.100000000000D+01
0.443944125971D-04 0.000000000000D+00 0.000000000000D+00 0.155392917235D-11 0.629231036730D-12  7 2 -2 23 -13 13 23 21 2 0.28053300D+00 0.35894251D-02 0.37403816D+05 0.37403816D+05 0.37403816D+05 0.11585509D+01  1  2 11  2  7  2       -2 0.187275205704D-01 0.100000000000D+01
0.246633508662D-06 0.000000000000D+00 0.000000000000D+00 0.155392917235D-11 0.822154419290D-15  7 2 21 23 -13 13 23 2 2 0.28053300D+00 0.35894251D-02 0.37403816D+05 0.37403816D+05 0.37403816D+05 0.11585509D+01  1  2 11  4  7  2       -2 0.180141237567D-02 0.100000000000D+01
  </mgrwgt>
  </event>
  <event>
  8     66 0.55102590E-06 0.13573758E+03 0.75467711E-02 0.10154176E+00
        2 -1    0    0  501    0 0.00000000E+00 0.00000000E+00 0.16284144E+04 0.16284144E+04 0.32000000E+00 0.0000E+00 0.9000E+01
       -2 -1    0    0    0  501 0.00000000E+00 0.00000000E+00 -.33352043E+02 0.33353578E+02 0.32000000E+00 0.0000E+00 0.9000E+01
       25  2    1    2    0    0 0.10026147E+03 -.19001145E+02 0.10285555E+04 0.10787606E+04 0.30884418E+03 0.0000E+00 0.0000E+00
       23  2    1    2    0    0 -.10026147E+03 0.19001145E+02 0.56650684E+03 0.58300734E+03 0.92488651E+02 0.0000E+00 0.0000E+00
       23  1    3    3    0    0 0.14016608E+03 -.56825862E+02 0.87015433E+03 0.88789612E+03 0.91188000E+02 0.0000E+00 0.9000E+01
      -13  1    4    4    0    0 -.63203124E+02 0.45847011E+02 0.21904810E+03 0.23254820E+03 0.10565837E+00 0.0000E+00 0.9000E+01
       13  1    4    4    0    0 -.37058348E+02 -.26845866E+02 0.34745874E+03 0.35045914E+03 0.10565837E+00 0.0000E+00 0.9000E+01
       23  1    3    3    0    0 -.39904611E+02 0.37824716E+02 0.15840114E+03 0.19086451E+03 0.91188000E+02 0.0000E+00 0.9000E+01
#aMCatNLO 1  0  0  1  2 0.14209358D+03 0.00000000D+00  -5  7  0 0.00000000D+00 0.00000000D+00 0.00000000D+00 0.00000000D+00 0.00000000D+00
  <mgrwgt>
 0.2326549182D-03    7    2    0
 0.233049882495047D+03 0.000000000000000D+00 0.000000000000000D+00 0.233049882495047D+03
 0.233049882495047D+03 0.000000000000000D+00 0.000000000000000D+00 -.233049882495047D+03
 0.187785897040856D+03 0.140166119716672D+03 -.568258686338609D+02 0.638167009568627D+02
 0.794803816521197D+02 -.632031870375609D+02 0.458470721613182D+02 -.148503936007291D+02
 0.604235690995988D+02 -.370583488507408D+02 -.268459146217936D+02 0.394586283505922D+02
 0.138409917197519D+03 -.399045838283704D+02 0.378247110943364D+02 -.884249357067258D+02
 0.000000000000000D+00 -.000000000000000D+00 -.000000000000000D+00 0.000000000000000D+00
 0.561260555681262D+03 0.000000000000000D+00 0.000000000000000D+00 0.561260555681262D+03
 0.259530869103588D+03 0.000000000000000D+00 0.000000000000000D+00 -.259530869103588D+03
 0.237889926540352D+03 0.203487259588838D+03 -.528841154731860D+02 0.638167009568627D+02
 0.647293872009669D+02 -.417513534153093D+02 0.471824529386303D+02 -.148503936007291D+02
 0.513848696778942D+02 -.204263547403976D+02 -.258105697830064D+02 0.394586283505922D+02
 0.133273537818907D+03 0.509517943529971D+00 0.403404967184869D+02 -.884249357067258D+02
 0.333513703546730D+03 -.141819069376661D+03 -.882826440092475D+01 0.301729686577674D+03
0.101119318268D-05 0.000000000000D+00 0.000000000000D+00 0.758639848067D-09 0.000000000000D+00  7 2 -2 23 -13 13 23 21 0 0.25052541D+00 0.51312041D-02 0.41398515D+05 0.41398515D+05 0.41398515D+05 0.11545774D+01  1  2  2  1  7  1        2 0.237659447907D-03 0.100000000000D+01
-.549186533401D-07 0.000000000000D+00 -.388324807476D-08 0.758639848067D-09 0.000000000000D+00  7 2 -2 23 -13 13 23 21 2 0.25052541D+00 0.51312041D-02 0.41398515D+05 0.41398515D+05 0.41398515D+05 0.11545774D+01  1  2  3  1  7  1        2 -.172062767157D-04 0.100000000000D+01
0.651987076307D-07 0.000000000000D+00 0.000000000000D+00 0.758639848067D-09 0.000000000000D+00  7 2 -2 23 -13 13 23 21 2 0.25052541D+00 0.51312041D-02 0.41398515D+05 0.41398515D+05 0.41398515D+05 0.11545774D+01  1  2 15  1  7  1        2 0.204270668848D-04 0.100000000000D+01
0.260363961791D-06 0.000000000000D+00 0.000000000000D+00 0.758639848067D-09 0.000000000000D+00  7 2 -2 23 -13 13 23 21 2 0.59701113D+00 0.51312041D-02 0.80342789D+05 0.80342789D+05 0.80342789D+05 0.11296067D+01  1  2 12  1  7  1        2 0.327720708541D-05 0.100000000000D+01
-.101477419048D-05 0.000000000000D+00 -.252823014097D-06 0.758639848067D-09 0.000000000000D+00  7 2 -2 23 -13 13 23 21 2 0.61276099D+00 0.51312041D-02 0.41398515D+05 0.41398515D+05 0.41398515D+05 0.11545774D+01  1  2  5  1  7  1        2 -.114894285536D-04 0.100000000000D+01
0.247127837414D-07 0.000000000000D+00 0.000000000000D+00 0.758639848067D-09 0.000000000000D+00  7 21 -2 23 -13 13 23 -2 2 0.59701113D+00 0.51312041D-02 0.80342789D+05 0.80342789D+05 0.80342789D+05 0.11296067D+01  1  2 12  3  7  1        2 0.718592204029D-08 0.100000000000D+01
-.837888578840D-07 0.000000000000D+00 -.248078095059D-07 0.758639848067D-09 0.000000000000D+00  7 21 -2 23 -13 13 23 -2 2 0.61276099D+00 0.51312041D-02 0.41398515D+05 0.41398515D+05 0.41398515D+05 0.11545774D+01  1  2  5  3  7  1        2 -.202843387403D-07 0.100000000000D+01
  </mgrwgt>
  </event>
  <event>
  8     66 0.55102590E-06 0.71339995E+02 0.75467711E-02 0.10594492E+00
        2 -1    0    0  501    0 0.00000000E+00 0.00000000E+00 0.11298359E+04 0.11298359E+04 0.32000000E+00 0.0000E+00 0.9000E+01
       -2 -1    0    0    0  501 0.00000000E+00 0.00000000E+00 -.38246993E+02 0.38248332E+02 0.32000000E+00 0.0000E+00 0.9000E+01
       25  2    1    2    0    0 0.35722825E+02 0.69151067E+01 0.94179490E+03 0.98926390E+03 0.30056864E+03 0.0000E+00 0.0000E+00
       23  2    1    2    0    0 -.35722825E+02 -.69151067E+01 0.14979400E+03 0.17882036E+03 0.90634103E+02 0.0000E+00 0.0000E+00
       23  1    3    3    0    0 0.49921764E+02 -.75494735E+02 0.75067791E+03 0.76159321E+03 0.91188000E+02 0.0000E+00 0.9000E+01
      -13  1    4    4    0    0 -.45331477E+02 0.32739882E+02 0.74123464E+02 0.92850103E+02 0.10565837E+00 0.0000E+00 0.9000E+01
       13  1    4    4    0    0 0.96086515E+01 -.39654988E+02 0.75670532E+02 0.85970256E+02 0.10565837E+00 0.0000E+00 0.9000E+01
       23  1    3    3    0    0 -.14198939E+02 0.82409841E+02 0.19111698E+03 0.22767069E+03 0.91188000E+02 0.0000E+00 0.9000E+01
#aMCatNLO 1  0  0  2  1 0.57761651D+02 0.00000000D+00  -5  7  0 0.00000000D+00 0.00000000D+00 0.00000000D+00 0.00000000D+00 0.00000000D+00
  <mgrwgt>
 0.5171867132D-03    9    2    0
 0.207878891745639D+03 0.000000000000000D+00 0.000000000000000D+00 0.207878891745639D+03
 0.207878891745639D+03 0.000000000000000D+00 0.000000000000000D+00 -.207878891745639D+03
 0.168784257706237D+03 0.499218054222737D+02 -.754946580064362D+02 0.109458870181075D+03
 0.662511876352855D+02 -.453316228964130D+02 0.327399636730577D+02 -.355296862827420D+02
 0.428600120873720D+02 0.960867748789656D+01 -.396550936464012D+02 -.131197370765734D+02
 0.137862326062383D+03 -.141988600137573D+02 0.824097879797797D+02 -.608094468217594D+02
 0.000000000000000D+00 -.000000000000000D+00 -.000000000000000D+00 -.000000000000000D+00
 0.231711792953416D+03 0.000000000000000D+00 0.000000000000000D+00 0.231711792953416D+03
 0.248073537452526D+03 0.000000000000000D+00 0.000000000000000D+00 -.248073537452526D+03
 0.166618424686397D+03 0.645133009797340D+02 -.574738013042241D+02 0.109458870181075D+03
 0.664593912497675D+02 -.395581275611480D+02 0.398703727320870D+02 -.355296862827420D+02
 0.398300053538686D+02 0.132060578473289D+02 -.352122402250097D+02 -.131197370765734D+02
 0.146843227353405D+03 -.181291310297018D+01 0.977067377353090D+02 -.608094468217594D+02
 0.600342817625035D+02 -.363483181629447D+02 -.448910689381622D+02 -.163617444991105D+02
0.113403714996D-05 0.000000000000D+00 0.000000000000D+00 0.410993366184D-07 0.000000000000D+00  7 2 -2 23 -13 13 23 21 0 0.17382101D+00 0.58842592D-02 0.30437427D+05 0.30437427D+05 0.30437427D+05 0.11667531D+01  1  2  2  2  7  2       -2 0.403497482050D-03 0.100000000000D+01
-.606496684828D-07 0.000000000000D+00 -.435500125467D-08 0.410993366184D-07 0.000000000000D+00  7 2 -2 23 -13 13 23 21 2 0.17382101D+00 0.58842592D-02 0.30437427D+05 0.30437427D+05 0.30437427D+05 0.11667531D+01  1  2  3  2  7  2       -2 -.293764890792D-04 0.100000000000D+01
0.706328566386D-07 0.000000000000D+00 0.000000000000D+00 0.410993366184D-07 0.000000000000D+00  7 2 -2 23 -13 13 23 21 2 0.17382101D+00 0.58842592D-02 0.30437427D+05 0.30437427D+05 0.30437427D+05 0.11667531D+01  1  2 15  2  7  2       -2 0.342119815917D-04 0.100000000000D+01
0.826402281411D-06 0.000000000000D+00 0.000000000000D+00 0.410993366184D-07 0.000000000000D+00  7 2 -2 23 -13 13 23 21 2 0.17382101D+00 0.73062987D-02 0.42192151D+05 0.42192151D+05 0.42192151D+05 0.11538384D+01  1  2 12  2  7  2       -2 0.284760270722D-03 0.100000000000D+01
-.850495864875D-06 0.000000000000D+00 0.000000000000D+00 0.410993366184D-07 0.000000000000D+00  7 2 -2 23 -13 13 23 21 2 0.17382101D+00 0.58842592D-02 0.30437427D+05 0.30437427D+05 0.30437427D+05 0.11667531D+01  1  2  4  2  7  2       -2 -.411949201231D-03 0.100000000000D+01
-.166947305758D-05 0.000000000000D+00 -.617461773682D-06 0.410993366184D-07 0.000000000000D+00  7 2 -2 23 -13 13 23 21 2 0.17382101D+00 0.78613600D-02 0.30437427D+05 0.30437427D+05 0.30437427D+05 0.11667531D+01  1  2  5  2  7  2       -2 -.526001159108D-03 0.100000000000D+01
0.179742622909D-05 0.000000000000D+00 0.592430908964D-06 0.410993366184D-07 0.000000000000D+00  7 2 -2 23 -13 13 23 21 2 0.17382101D+00 0.58842592D-02 0.30437427D+05 0.30437427D+05 0.30437427D+05 0.11667531D+01  1  2  6  2  7  2       -2 0.870607759457D-03 0.100000000000D+01
0.251163838852D-07 0.000000000000D+00 0.000000000000D+00 0.410993366184D-07 0.000000000000D+00  7 2 21 23 -13 13 23 2 2 0.17382101D+00 0.73062987D-02 0.42192151D+05 0.42192151D+05 0.42192151D+05 0.11538384D+01  1  2 12  4  7  2       -2 0.135330685272D-03 0.100000000000D+01
-.498114481153D-07 0.000000000000D+00 -.232711764801D-07 0.410993366184D-07 0.000000000000D+00  7 2 21 23 -13 13 23 2 2 0.17382101D+00 0.78613600D-02 0.30437427D+05 0.30437427D+05 0.30437427D+05 0.11667531D+01  1  2  5  4  7  2       -2 -.243894616498D-03 0.100000000000D+01
  </mgrwgt>
  </event>
  <event>
  8     66 0.55102590E-06 0.19548023E+03 0.75467711E-02 0.10512946E+00
        2 -1    0    0  501    0 0.00000000E+00 0.00000000E+00 0.32635087E+04 0.32635087E+04 0.32000000E+00 0.0000E+00 0.9000E+01
       -2 -1    0    0    0  501 0.00000000E+00 0.00000000E+00 -.30116677E+02 0.30118377E+02 0.32000000E+00 0.0000E+00 0.9000E+01
       25  2    1    2    0    0 0.91945313E+02 0.17973372E+01 0.30652541E+04 0.30812313E+04 0.29957727E+03 0.0000E+00 0.0000E+00
       23  2    1    2    0    0 -.91945313E+02 -.17973372E+01 0.16813793E+03 0.21239579E+03 0.91566563E+02 0.0000E+00 0.0000E+00
       23  1    3    3    0    0 0.12875154E+03 -.87604493E+02 0.17523349E+04 0.17616028E+04 0.91188000E+02 0.0000E+00 0.9000E+01
      -11  1    4    4    0    0 -.17109712E+02 -.35065368E+02 0.21784994E+02 0.44686779E+02 0.51099893E-03 0.0000E+00 0.9000E+01
       11  1    4    4    0    0 -.74835601E+02 0.33268031E+02 0.14635294E+03 0.16770901E+03 0.51099893E-03 0.0000E+00 0.9000E+01
       23  1    3    3    0    0 -.36806229E+02 0.89401830E+02 0.13129192E+04 0.13196285E+04 0.91188000E+02 0.0000E+00 0.9000E+01
#aMCatNLO 1  0  0  1  1 0.98601616D+00 0.00000000D+00  -5  7  0 0.00000000D+00 0.00000000D+00 0.00000000D+00 0.00000000D+00 0.00000000D+00
  <mgrwgt>
 0.3644668928D-03   10    2    0
 0.313510544457735D+03 0.000000000000000D+00 0.000000000000000D+00 0.313510544457735D+03
 0.313510544457735D+03 0.000000000000000D+00 0.000000000000000D+00 -.313510544457735D+03
 0.217021342570022D+03 0.128751541825732D+03 -.876044928359926D+02 0.120546692610541D+03
 0.122391673288607D+03 -.171097118504201D+02 -.350653677562130D+02 -.116006031890166D+03
 0.126238992872410D+03 -.748356013395935D+02 0.332680305896988D+02 -.960684872071201D+02
 0.161369080184432D+03 -.368062286357181D+02 0.894018300025069D+02 0.915278264867455D+02
 0.000000000000000D+00 -.000000000000000D+00 -.000000000000000D+00 0.000000000000000D+00
 0.316102004624179D+03 0.000000000000000D+00 0.000000000000000D+00 0.316102004624179D+03
 0.313604737638428D+03 0.000000000000000D+00 0.000000000000000D+00 -.313604737638428D+03
 0.216938961036217D+03 0.128837016994975D+03 -.872741624077241D+02 0.120546692610541D+03
 0.122331701047879D+03 -.170615098105901D+02 -.348790844109851D+02 -.116006031890166D+03
 0.126260316148788D+03 -.747858677095980D+02 0.334602329736342D+02 -.960684872071201D+02
 0.161490885957359D+03 -.367426363900256D+02 0.896475908935379D+02 0.915278264867455D+02
 0.268487807236326D+01 -.247003084760955D+00 -.954577048462986D+00 0.249726698575128D+01
0.253731917334D-05 0.000000000000D+00 0.000000000000D+00 0.295337135253D-06 0.000000000000D+00  7 2 -2 23 -11 11 23 21 0 0.50207839D+00 0.46334669D-02 0.47149234D+05 0.47149234D+05 0.47149234D+05 0.11495447D+01  1  2  2  1  7  1        2 0.818376588843D-04 0.100000000000D+01
-.117840591072D-06 0.000000000000D+00 -.974397371711D-08 0.295337135253D-06 0.000000000000D+00  7 2 -2 23 -11 11 23 21 2 0.50207839D+00 0.46334669D-02 0.47149234D+05 0.47149234D+05 0.47149234D+05 0.11495447D+01  1  2  3  1  7  1        2 -.502255557783D-05 0.100000000000D+01
0.155937742715D-06 0.000000000000D+00 0.000000000000D+00 0.295337135253D-06 0.000000000000D+00  7 2 -2 23 -11 11 23 21 2 0.50207839D+00 0.46334669D-02 0.47149234D+05 0.47149234D+05 0.47149234D+05 0.11495447D+01  1  2 15  1  7  1        2 0.664631747297D-05 0.100000000000D+01
-.308445006042D-03 0.000000000000D+00 0.000000000000D+00 0.295337135253D-06 0.000000000000D+00  7 2 -2 23 -11 11 23 21 2 0.50207839D+00 0.46334669D-02 0.47149234D+05 0.47149234D+05 0.47149234D+05 0.11495447D+01  1  2  4  1  7  1        2 -.131464223954D-01 0.100000000000D+01
-.471721962158D-03 0.000000000000D+00 -.211011085503D-04 0.295337135253D-06 0.000000000000D+00  7 2 -2 23 -11 11 23 21 2 0.50626645D+00 0.46334669D-02 0.47149234D+05 0.47149234D+05 0.47149234D+05 0.11495447D+01  1  2  5  1  7  1        2 -.192973049945D-01 0.100000000000D+01
0.471902376338D-03 0.000000000000D+00 0.211018407847D-04 0.295337135253D-06 0.000000000000D+00  7 2 -2 23 -11 11 23 21 2 0.50207839D+00 0.46334669D-02 0.47149234D+05 0.47149234D+05 0.47149234D+05 0.11495447D+01  1  2  6  1  7  1        2 0.201132384937D-01 0.100000000000D+01
0.308452958070D-03 0.000000000000D+00 0.000000000000D+00 0.295337135253D-06 0.214039647342D-05  7 2 -2 23 -11 11 23 21 2 0.50622854D+00 0.46348590D-02 0.47340322D+05 0.47340322D+05 0.47340322D+05 0.11493893D+01  1  2 11  1  7  1        2 0.126120281688D-01 0.100000000000D+01
0.399986496118D-11 0.000000000000D+00 0.000000000000D+00 0.295337135253D-06 0.000000000000D+00  7 21 -2 23 -11 11 23 -2 2 0.50630364D+00 0.46334669D-02 0.47340322D+05 0.47340322D+05 0.47340322D+05 0.11493893D+01  1  2 12  3  7  1        2 0.848474118827D-11 0.100000000000D+01
-.725111853100D-06 0.000000000000D+00 -.324599131649D-07 0.295337135253D-06 0.000000000000D+00  7 21 -2 23 -11 11 23 -2 2 0.50626645D+00 0.46334669D-02 0.47149234D+05 0.47149234D+05 0.47149234D+05 0.11495447D+01  1  2  5  3  7  1        2 -.154029395263D-05 0.100000000000D+01
0.474027724853D-06 0.000000000000D+00 0.000000000000D+00 0.295337135253D-06 0.326657098355D-08  7 21 -2 23 -11 11 23 -2 2 0.50622854D+00 0.46348590D-02 0.47340322D+05 0.47340322D+05 0.47340322D+05 0.11493893D+01  1  2 11  3  7  1        2 0.100648483256D-05 0.100000000000D+01
  </mgrwgt>
  </event>
  <event>
  8     66 0.55102590E-06 0.39369351E+03 0.75467711E-02 0.92822842E-01
        2 -1    0    0  501    0 0.00000000E+00 0.00000000E+00 0.18727026E+04 0.18727026E+04 0.32000000E+00 0.0000E+00 0.9000E+01
       -2 -1    0    0    0  501 0.00000000E+00 0.00000000E+00 -.14791408E+03 0.14791443E+03 0.32000000E+00 0.0000E+00 0.9000E+01
       25  2    1    2    0    0 0.27403491E+03 0.19300688E+03 0.27201563E+03 0.52692177E+03 0.30217092E+03 0.0000E+00 0.0000E+00
       23  2    1    2    0    0 -.27403491E+03 -.19300688E+03 0.14527729E+04 0.14936952E+04 0.90717840E+02 0.0000E+00 0.0000E+00
       23  1    3    3    0    0 0.19985688E+03 -.50352198E+01 0.11327948E+03 0.24721573E+03 0.91188000E+02 0.0000E+00 0.9000E+01
      -13  1    4    4    0    0 -.10432851E+02 -.18443261E+02 0.22028834E+03 0.22130514E+03 0.10565837E+00 0.0000E+00 0.9000E+01
       13  1    4    4    0    0 -.26360206E+03 -.17456362E+03 0.12324845E+04 0.12723901E+04 0.10565837E+00 0.0000E+00 0.9000E+01
       23  1    3    3    0    0 0.74178025E+02 0.19804210E+03 0.15873615E+03 0.27970604E+03 0.91188000E+02 0.0000E+00 0.9000E+01
#aMCatNLO 1  0  0  1  2 0.33606501D+03 0.00000000D+00  -5  7  0 0.00000000D+00 0.00000000D+00 0.00000000D+00 0.00000000D+00 0.00000000D+00
  <mgrwgt>
 0.5841382828D-03    3    2    0
 0.526307376052977D+03 0.000000000000000D+00 0.000000000000000D+00 0.526307376052977D+03
 0.526307376052977D+03 0.000000000000000D+00 0.000000000000000D+00 -.526307376052977D+03
 0.288942539710845D+03 0.199856883071641D+03 -.503521979727846D+01 -.187628390072065D+03
 0.638615550102895D+02 -.104325076024208D+02 -.184430496932134D+02 0.602437956263658D+02
 0.422983358178341D+03 -.263602400344521D+03 -.174563829818563D+03 0.280991396927929D+03
 0.276827299206478D+03 0.741780248753017D+02 0.198042099309055D+03 -.153606802482230D+03
 0.000000000000000D+00 0.000000000000000D+00 -.000000000000000D+00 -.000000000000000D+00
 0.575353305360623D+03 0.000000000000000D+00 0.000000000000000D+00 0.575353305360623D+03
 0.178689626381713D+04 0.000000000000000D+00 0.000000000000000D+00 -.178689626381713D+04
 0.288179767338348D+03 0.180752312561711D+03 0.828040802240001D+02 -.187628390072065D+03
 0.619914690374477D+02 -.145986400537922D+02 0.712060762380283D+00 0.602437956263658D+02
 0.407444791513037D+03 -.291092194007717D+03 -.481708165943514D+02 0.280991396927929D+03
 0.347344381747969D+03 0.535159715402547D+02 0.293042418788077D+03 -.153606802482230D+03
 0.125728915954095D+04 0.714225499595440D+02 -.328387743180106D+03 -.121154295845651D+04
0.344032787647D-04 0.000000000000D+00 0.000000000000D+00 0.142516329410D-06 0.000000000000D+00  7 2 -2 23 -13 13 23 21 0 0.28810811D+00 0.22756041D-01 0.15499458D+06 0.15499458D+06 0.15499458D+06 0.11064311D+01  1  2  2  1  7  1        2 0.574119398899D-03 0.100000000000D+01
-.171543547478D-05 0.000000000000D+00 -.132117649048D-06 0.142516329410D-06 0.000000000000D+00  7 2 -2 23 -13 13 23 21 2 0.28810811D+00 0.22756041D-01 0.15499458D+06 0.15499458D+06 0.15499458D+06 0.11064311D+01  1  2  3  1  7  1        2 -.350449544524D-04 0.100000000000D+01
0.220585554019D-05 0.000000000000D+00 0.000000000000D+00 0.142516329410D-06 0.000000000000D+00  7 2 -2 23 -13 13 23 21 2 0.28810811D+00 0.22756041D-01 0.15499458D+06 0.15499458D+06 0.15499458D+06 0.11064311D+01  1  2 15  1  7  1        2 0.450638383495D-04 0.100000000000D+01
  </mgrwgt>
  </event>
  <event>
  8     66 0.55102590E-06 0.15998819E+03 0.75467711E-02 0.10847615E+00
        2 -1    0    0  501    0 0.00000000E+00 0.00000000E+00 0.14104088E+04 0.14104089E+04 0.32000000E+00 0.0000E+00 0.9000E+01
       -2 -1    0    0    0  501 0.00000000E+00 0.00000000E+00 -.34639981E+02 0.34641459E+02 0.32000000E+00 0.0000E+00 0.9000E+01
       25  2    1    2    0    0 0.43007793E+02 -.24284693E+02 0.12154183E+04 0.12526020E+04 0.29888230E+03 0.0000E+00 0.0000E+00
       23  2    1    2    0    0 -.43007793E+02 0.24284693E+02 0.16035052E+03 0.19244833E+03 0.94258439E+02 0.0000E+00 0.0000E+00
       23  1    3    3    0    0 -.12435812E+01 -.61405032E+02 0.17547728E+03 0.20707402E+03 0.91188000E+02 0.0000E+00 0.9000E+01
      -11  1    4    4    0    0 -.20841269E+02 0.58063075E+02 0.68965836E+02 0.92530890E+02 0.51099893E-03 0.0000E+00 0.9000E+01
       11  1    4    4    0    0 -.22166524E+02 -.33778382E+02 0.91384687E+02 0.99917440E+02 0.51099893E-03 0.0000E+00 0.9000E+01
       23  1    3    3    0    0 0.44251375E+02 0.37120340E+02 0.10399411E+04 0.10455280E+04 0.91188000E+02 0.0000E+00 0.9000E+01
#aMCatNLO 1  0  0  2  1 0.25538182D+02 0.00000000D+00  -5  7  0 0.00000000D+00 0.00000000D+00 0.00000000D+00 0.00000000D+00 0.00000000D+00
  <mgrwgt>
 0.3768726669D-03    4    2    0
 0.221037619166229D+03 0.000000000000000D+00 0.000000000000000D+00 0.221037619166229D+03
 0.221037619166229D+03 0.000000000000000D+00 0.000000000000000D+00 -.221037619166229D+03
 0.130783644900691D+03 -.124358110627602D+01 -.614050321570351D+02 -.708306851677698D+02
 0.878374119682731D+02 -.208412690977316D+02 0.580630749391987D+02 -.625278479742031D+02
 0.422134579136112D+02 -.221665244667019D+02 -.337783823525768D+02 -.122328290977374D+02
 0.181240723549882D+03 0.442513746707096D+02 0.371203395704132D+02 0.145591362239710D+03
 0.000000000000000D+00 0.000000000000000D+00 -.000000000000000D+00 0.000000000000000D+00
 0.412124925818907D+03 0.000000000000000D+00 0.000000000000000D+00 0.412124925818907D+03
 0.222261061820740D+03 0.000000000000000D+00 0.000000000000000D+00 -.222261061820740D+03
 0.130775064932593D+03 -.876554051479416D+01 -.607704336192501D+02 -.708306851677698D+02
 0.894655537664654D+02 -.259401844124488D+02 0.584932506457233D+02 -.625278479742031D+02
 0.433957951746595D+02 -.246284930516287D+02 -.335706756129874D+02 -.122328290977374D+02
 0.179175865838120D+03 0.338864399405257D+02 0.379947889082497D+02 0.145591362239710D+03
 0.191573707927810D+03 0.254477780383460D+02 -.214693032173546D+01 0.189863863998167D+03
0.129892376882D-05 0.000000000000D+00 0.000000000000D+00 0.657802900473D-08 0.000000000000D+00  7 2 -2 23 -11 11 23 21 0 0.21698609D+00 0.53293443D-02 0.25596222D+05 0.25596222D+05 0.25596222D+05 0.11737873D+01  1  2  2  2  7  2       -2 0.375375184436D-03 0.100000000000D+01
-.629955048207D-07 0.000000000000D+00 -.498820928674D-08 0.657802900473D-08 0.000000000000D+00  7 2 -2 23 -11 11 23 21 2 0.21698609D+00 0.53293443D-02 0.25596222D+05 0.25596222D+05 0.25596222D+05 0.11737873D+01  1  2  3  2  7  2       -2 -.250824696993D-04 0.100000000000D+01
0.801640327381D-07 0.000000000000D+00 0.000000000000D+00 0.657802900473D-08 0.000000000000D+00  7 2 -2 23 -11 11 23 21 2 0.21698609D+00 0.53293443D-02 0.25596222D+05 0.25596222D+05 0.25596222D+05 0.11737873D+01  1  2 15  2  7  2       -2 0.319183396951D-04 0.100000000000D+01
-.134075480467D-07 0.000000000000D+00 0.000000000000D+00 0.657802900473D-08 0.000000000000D+00  7 2 -2 23 -11 11 23 21 2 0.21698609D+00 0.53293443D-02 0.25596222D+05 0.25596222D+05 0.25596222D+05 0.11737873D+01  1  2  4  2  7  2       -2 -.533838753383D-05 0.100000000000D+01
  </mgrwgt>
  </event>
  <event>
  8     66 0.55102590E-06 0.91802729E+02 0.75467711E-02 0.10498055E+00
        2 -1    0    0  501    0 0.00000000E+00 0.00000000E+00 0.72891871E+03 0.72891878E+03 0.32000000E+00 0.0000E+00 0.9000E+01
       -2 -1    0    0    0  501 0.00000000E+00 0.00000000E+00 -.12380606E+03 0.12380648E+03 0.32000000E+00 0.0000E+00 0.9000E+01
       25  2    1    2    0    0 0.78169857E+02 -.18339630E+02 0.65585280E+03 0.72536472E+03 0.29927281E+03 0.0000E+00 0.0000E+00
       23  2    1    2    0    0 -.78169857E+02 0.18339630E+02 -.50740160E+02 0.12736053E+03 0.84848529E+02 0.0000E+00 0.0000E+00
       23  1    3    3    0    0 0.96751740E+02 -.11439036E+03 0.34728076E+03 0.38905685E+03 0.91188000E+02 0.0000E+00 0.9000E+01
      -13  1    4    4    0    0 -.51474548E+02 0.39242621E+02 -.63933384E+02 0.90978575E+02 0.10565837E+00 0.0000E+00 0.9000E+01
       13  1    4    4    0    0 -.26695310E+02 -.20902990E+02 0.13193224E+02 0.36381958E+02 0.10565837E+00 0.0000E+00 0.9000E+01
       23  1    3    3    0    0 -.18581882E+02 0.96050732E+02 0.30857204E+03 0.33630787E+03 0.91188000E+02 0.0000E+00 0.9000E+01
#aMCatNLO 1  0  0  2  1 0.34416684D+02 0.00000000D+00  -5  7  0 0.00000000D+00 0.00000000D+00 0.00000000D+00 0.00000000D+00 0.00000000D+00
  <mgrwgt>
 0.1918377079D-03    9    2    0
 0.300407660947674D+03 0.000000000000000D+00 0.000000000000000D+00 0.300407660947674D+03
 0.300407660947674D+03 0.000000000000000D+00 0.000000000000000D+00 -.300407660947674D+03
 0.202415982198875D+03 0.967517399646497D+02 -.114390362690972D+03 0.101049117971291D+03
 0.193514990447952D+03 -.514745877346771D+02 0.392427119392989D+02 -.182368933498184D+03
 0.383483609631642D+02 -.266952703778949D+02 -.209030813292315D+02 -.179170454862334D+02
 0.166535988285358D+03 -.185818818520777D+02 0.960507320809043D+02 0.992368610131263D+02
 0.000000000000000D+00 -.000000000000000D+00 -.000000000000000D+00 -.000000000000000D+00
 0.312242694002511D+03 0.000000000000000D+00 0.000000000000000D+00 0.312242694002511D+03
 0.327007731096810D+03 0.000000000000000D+00 0.000000000000000D+00 -.327007731096810D+03
 0.206122529554923D+03 0.107928354629983D+03 -.110958514185297D+03 0.101049117971291D+03
 0.191673323919613D+03 -.409367773706206D+02 0.424784116421025D+02 -.182368933498184D+03
 0.365979228444848D+02 -.246449233221893D+02 -.202735096127561D+02 -.179170454862334D+02
 0.167406488869646D+03 -.944603228057521D+01 0.988559510706290D+02 0.992368610131263D+02
 0.374501599106547D+02 -.329006216565974D+02 -.101023389146782D+02 -.147650370942989D+02
0.147284322495D-05 0.000000000000D+00 0.000000000000D+00 0.927021186854D-08 0.000000000000D+00  7 2 -2 23 -13 13 23 21 0 0.11214138D+00 0.19047124D-01 0.41567323D+05 0.41567323D+05 0.41567323D+05 0.11544189D+01  1  2  2  2  7  2       -2 0.153700282205D-03 0.100000000000D+01
-.668779132268D-07 0.000000000000D+00 -.565610579232D-08 0.927021186854D-08 0.000000000000D+00  7 2 -2 23 -13 13 23 21 2 0.11214138D+00 0.19047124D-01 0.41567323D+05 0.41567323D+05 0.41567323D+05 0.11544189D+01  1  2  3  2  7  2       -2 -.930095834782D-05 0.100000000000D+01
0.922558819866D-07 0.000000000000D+00 0.000000000000D+00 0.927021186854D-08 0.000000000000D+00  7 2 -2 23 -13 13 23 21 2 0.11214138D+00 0.19047124D-01 0.41567323D+05 0.41567323D+05 0.41567323D+05 0.11544189D+01  1  2 15  2  7  2       -2 0.128303661747D-04 0.100000000000D+01
0.308309125318D-05 0.000000000000D+00 0.000000000000D+00 0.927021186854D-08 0.000000000000D+00  7 2 -2 23 -13 13 23 21 2 0.11214138D+00 0.21084037D-01 0.48355668D+05 0.48355668D+05 0.48355668D+05 0.11485750D+01  1  2 12  2  7  2       -2 0.359348244366D-03 0.100000000000D+01
-.296558910825D-05 0.000000000000D+00 0.000000000000D+00 0.927021186854D-08 0.000000000000D+00  7 2 -2 23 -13 13 23 21 2 0.11214138D+00 0.19047124D-01 0.41567323D+05 0.41567323D+05 0.41567323D+05 0.11544189D+01  1  2  4  2  7  2       -2 -.412435428106D-03 0.100000000000D+01
-.727367284858D-05 0.000000000000D+00 -.167834917052D-05 0.927021186854D-08 0.000000000000D+00  7 2 -2 23 -13 13 23 21 2 0.11214138D+00 0.21512786D-01 0.41567323D+05 0.41567323D+05 0.41567323D+05 0.11544189D+01  1  2  5  2  7  2       -2 -.828726965998D-03 0.100000000000D+01
0.743518227103D-05 0.000000000000D+00 0.166599017009D-05 0.927021186854D-08 0.000000000000D+00  7 2 -2 23 -13 13 23 21 2 0.11214138D+00 0.19047124D-01 0.41567323D+05 0.41567323D+05 0.41567323D+05 0.11544189D+01  1  2  6  2  7  2       -2 0.103403825381D-02 0.100000000000D+01
0.507671505918D-07 0.000000000000D+00 0.000000000000D+00 0.927021186854D-08 0.000000000000D+00  7 2 21 23 -13 13 23 2 2 0.11214138D+00 0.21084037D-01 0.48355668D+05 0.48355668D+05 0.48355668D+05 0.11485750D+01  1  2 12  4  7  2       -2 0.765488324997D-04 0.100000000000D+01
-.131709788143D-06 0.000000000000D+00 -.322300267339D-07 0.927021186854D-08 0.000000000000D+00  7 2 21 23 -13 13 23 2 2 0.11214138D+00 0.21512786D-01 0.41567323D+05 0.41567323D+05 0.41567323D+05 0.11544189D+01  1  2  5  4  7  2       -2 -.194164918742D-03 0.100000000000D+01
  </mgrwgt>
  </event>
  <event>
  7     66 0.55102590E-06 0.41307091E+03 0.75467711E-02 0.94179436E-01
        2 -1    0    0  501    0 0.00000000E+00 0.00000000E+00 0.25058318E+03 0.25058338E+03 0.32000000E+00 0.0000E+00 0.9000E+01
       -2 -1    0    0    0  501 0.00000000E+00 0.00000000E+00 -.90933002E+03 0.90933008E+03 0.32000000E+00 0.0000E+00 0.9000E+01
       25  2    1    2    0    0 0.20088373E+03 0.11130350E+02 -.33843405E+03 0.49539917E+03 0.30067352E+03 0.0000E+00 0.0000E+00
       23  1    3    3    0    0 0.15529870E+03 0.10521289E+03 -.26864831E+03 0.34010969E+03 0.91188000E+02 0.0000E+00 0.9000E+01
      -11  1    1    2    0    0 -.22652819E+03 -.19152030E+03 -.37136192E+03 0.47529435E+03 0.51099893E-03 0.0000E+00 0.9000E+01
       11  1    1    2    0    0 0.25644457E+02 0.18038995E+03 0.51049125E+02 0.18921994E+03 0.51099893E-03 0.0000E+00 0.9000E+01
       23  1    3    3    0    0 0.45585035E+02 -.94082538E+02 -.69785741E+02 0.15528947E+03 0.91188000E+02 0.0000E+00 0.9000E+01
#aMCatNLO 1  0  0  1  1 0.19817484D+03 0.00000000D+00  -5  7  0 0.00000000D+00 0.00000000D+00 0.00000000D+00 0.00000000D+00 0.00000000D+00
  <mgrwgt>
 0.8131556573D-02    4    2    0
 0.477349929859583D+03 0.000000000000000D+00 0.000000000000000D+00 0.477349929859583D+03
 0.477349929859583D+03 0.000000000000000D+00 0.000000000000000D+00 -.477349929859583D+03
 0.227848422022672D+03 0.155299035750842D+03 0.105212906677994D+03 -.917175328792055D+02
 0.321217953461433D+03 -.226528364081532D+03 -.191520119049573D+03 -.123231156335292D+03
 0.265116800391682D+03 0.256440848927029D+02 0.180389738316456D+03 0.192584633525263D+03
 0.140516683843379D+03 0.455852434379874D+02 -.940825259448772D+02 0.223640556892350D+02
 0.000000000000000D+00 -.000000000000000D+00 0.000000000000000D+00 -.000000000000000D+00
 0.518548595192052D+03 0.000000000000000D+00 0.000000000000000D+00 0.518548595192052D+03
 0.804011460625618D+03 0.000000000000000D+00 0.000000000000000D+00 -.804011460625618D+03
 0.247177608894187D+03 0.195710945706827D+03 0.778886313125279D+02 -.917175328792055D+02
 0.311379616966444D+03 -.172711363768594D+03 -.227908167461433D+03 -.123231156335292D+03
 0.254204258376724D+03 0.698243076579453D+02 0.150517540396091D+03 0.192584633525263D+03
 0.162289843112824D+03 0.713459161274815D+02 -.111500453356228D+03 0.223640556892350D+02
 0.347508728467491D+03 -.164169805723660D+03 0.111002449109041D+03 -.285462865433567D+03
0.149566792023D-02 0.000000000000D+00 0.000000000000D+00 0.357542341899D-10 0.000000000000D+00  7 2 -2 23 -11 11 23 21 0 0.38551278D-01 0.13989695D+00 0.17062758D+06 0.17062758D+06 0.17062758D+06 0.11031629D+01  1  2  2  1  7  1        2 0.876457129658D-02 0.100000000000D+01
-.809793472425D-04 0.000000000000D+00 -.574375863208D-05 0.357542341899D-10 0.000000000000D+00  7 2 -2 23 -11 11 23 21 2 0.38551278D-01 0.13989695D+00 0.17062758D+06 0.17062758D+06 0.17062758D+06 0.11031629D+01  1  2  3  1  7  1        2 -.577496127633D-03 0.100000000000D+01
0.941554768143D-04 0.000000000000D+00 0.000000000000D+00 0.357542341899D-10 0.000000000000D+00  7 2 -2 23 -11 11 23 21 2 0.38551278D-01 0.13989695D+00 0.17062758D+06 0.17062758D+06 0.17062758D+06 0.11031629D+01  1  2 15  1  7  1        2 0.671460379804D-03 0.100000000000D+01
-.101940567362D-03 0.000000000000D+00 0.000000000000D+00 0.357542341899D-10 0.000000000000D+00  7 2 -2 23 -11 11 23 21 2 0.38551278D-01 0.13989695D+00 0.17062758D+06 0.17062758D+06 0.17062758D+06 0.11031629D+01  1  2  4  1  7  1        2 -.726978975564D-03 0.100000000000D+01
  </mgrwgt>
  </event>
  <event>
  8     66 0.55102590E-06 0.25304410E+03 0.75467711E-02 0.89156688E-01
        2 -1    0    0  501    0 0.00000000E+00 0.00000000E+00 0.86453540E+03 0.86453546E+03 0.32000000E+00 0.0000E+00 0.9000E+01
       -2 -1    0    0    0  501 0.00000000E+00 0.00000000E+00 -.20998547E+03 0.20998572E+03 0.32000000E+00 0.0000E+00 0.9000E+01
       25  2    1    2    0    0 -.17010491E+03 -.23412131E+02 0.77148355E+03 0.84554118E+03 0.30044834E+03 0.0000E+00 0.0000E+00
       23  2    1    2    0    0 0.17010491E+03 0.23412131E+02 -.11693362E+03 0.22898000E+03 0.96304515E+02 0.0000E+00 0.0000E+00
       23  1    3    3    0    0 0.10834592E+02 0.62790040E+02 0.15403838E+03 0.19000803E+03 0.91188000E+02 0.0000E+00 0.9000E+01
      -11  1    4    4    0    0 0.62682593E+02 0.24291268E+02 0.38504273E+01 0.67334976E+02 0.51099893E-03 0.0000E+00 0.9000E+01
       11  1    4    4    0    0 0.10742232E+03 -.87913763E+00 -.12078405E+03 0.16164503E+03 0.51099893E-03 0.0000E+00 0.9000E+01
       23  1    3    3    0    0 -.18093951E+03 -.86202171E+02 0.61744517E+03 0.65553315E+03 0.91188000E+02 0.0000E+00 0.9000E+01
#aMCatNLO 1  0  0  2  1 0.76101809D+03 0.00000000D+00  -5  7  0 0.00000000D+00 0.00000000D+00 0.00000000D+00 0.00000000D+00 0.00000000D+00
  <mgrwgt>
 0.2990878667D-03    5    2    0
 0.426075156097526D+03 0.000000000000000D+00 0.000000000000000D+00 0.426075156097526D+03
 0.426075156097526D+03 0.000000000000000D+00 0.000000000000000D+00 -.426075156097526D+03
 0.121271846049998D+03 0.108345920139457D+02 0.627900400652001D+02 0.482869732420284D+02
 0.819486420461035D+02 0.626825932500309D+02 0.242912681976975D+02 -.468658375151784D+02
 0.296602828809172D+03 0.107422321082910D+03 -.879137622475859D+00 -.276465025107705D+03
 0.352326995289778D+03 -.180939506346887D+03 -.862021706404218D+02 0.275043889380855D+03
 0.000000000000000D+00 -.000000000000000D+00 0.000000000000000D+00 -.000000000000000D+00
 0.943741929741926D+03 0.000000000000000D+00 0.000000000000000D+00 0.943741929741926D+03
 0.959949809214447D+03 0.000000000000000D+00 0.000000000000000D+00 -.959949809214447D+03
 0.150702799811324D+03 0.107146089885578D+03 0.241695296670664D+02 0.482869732420284D+02
 0.153754143126256D+03 0.146149521649087D+03 -.917862322100376D+01 -.468658375151784D+02
 0.486997708622974D+03 0.384910471693786D+03 -.112150732840628D+03 -.276465025107705D+03
 0.351046418116977D+03 0.681386633984993D+02 -.186081481596846D+03 0.275043889380855D+03
 0.761190669278842D+03 -.706344746626950D+03 0.283241307991412D+03 -.162078794725207D+02
0.761718666932D-05 0.000000000000D+00 0.000000000000D+00 0.504541025958D-07 0.000000000000D+00  7 2 -2 23 -11 11 23 21 0 0.13300547D+00 0.32305481D-01 0.64031318D+05 0.64031318D+05 0.64031318D+05 0.11379647D+01  1  2  2  2  7  2       -2 0.262145227437D-03 0.100000000000D+01
-.283486925106D-06 0.000000000000D+00 -.292520024615D-07 0.504541025958D-07 0.000000000000D+00  7 2 -2 23 -11 11 23 21 2 0.13300547D+00 0.32305481D-01 0.64031318D+05 0.64031318D+05 0.64031318D+05 0.11379647D+01  1  2  3  2  7  2       -2 -.126339165727D-04 0.100000000000D+01
0.453791052627D-06 0.000000000000D+00 0.000000000000D+00 0.504541025958D-07 0.000000000000D+00  7 2 -2 23 -11 11 23 21 2 0.13300547D+00 0.32305481D-01 0.64031318D+05 0.64031318D+05 0.64031318D+05 0.11379647D+01  1  2 15  2  7  2       -2 0.202237133095D-04 0.100000000000D+01
0.725424079684D-05 0.000000000000D+00 -.304094086583D-05 0.504541025958D-07 0.000000000000D+00  7 2 -2 23 -11 11 23 21 2 0.13300547D+00 0.15193268D+00 0.64031318D+05 0.64031318D+05 0.64031318D+05 0.11379647D+01  1  2  5  2  7  2       -2 0.111834046217D-04 0.100000000000D+01
0.131181419242D-05 0.000000000000D+00 -.571401916855D-06 0.504541025958D-07 0.000000000000D+00  7 2 21 23 -11 11 23 2 2 0.13300547D+00 0.15193268D+00 0.64031318D+05 0.64031318D+05 0.64031318D+05 0.11379647D+01  1  2  5  4  7  2       -2 0.181694379338D-04 0.100000000000D+01
  </mgrwgt>
  </event>
  <event>
  8     66 0.55102590E-06 0.27081093E+03 0.75467711E-02 0.96656669E-01
        2 -1    0    0  501    0 0.00000000E+00 0.00000000E+00 0.11033993E+03 0.11034039E+03 0.32000000E+00 0.0000E+00 0.9000E+01
       -2 -1    0    0    0  501 0.00000000E+00 0.00000000E+00 -.13493697E+04 0.13493697E+04 0.32000000E+00 0.0000E+00 0.9000E+01
       25  2    1    2    0    0 -.17543982E+03 0.24397804E+03 -.89458428E+03 0.99011843E+03 0.29958146E+03 0.0000E+00 0.0000E+00
       23  2    1    2    0    0 0.17543982E+03 -.24397804E+03 -.34444545E+03 0.46959166E+03 0.10756042E+03 0.0000E+00 0.0000E+00
       23  1    3    3    0    0 -.21830352E+03 0.12232517E+03 -.55596131E+03 0.61646420E+03 0.91188000E+02 0.0000E+00 0.9000E+01
      -13  1    4    4    0    0 0.12793716E+03 -.23725428E+03 -.27400261E+03 0.38436305E+03 0.10565837E+00 0.0000E+00 0.9000E+01
       13  1    4    4    0    0 0.47502661E+02 -.67237590E+01 -.70442834E+02 0.85228609E+02 0.10565837E+00 0.0000E+00 0.9000E+01
       23  1    3    3    0    0 0.42863700E+02 0.12165288E+03 -.33862297E+03 0.37365423E+03 0.91188000E+02 0.0000E+00 0.9000E+01
#aMCatNLO 1  0  0  2  1 0.92374369D+02 0.00000000D+00  -5  7  0 0.00000000D+00 0.00000000D+00 0.00000000D+00 0.00000000D+00 0.00000000D+00
  <mgrwgt>
 0.5171203293D-03    9    2    0
 0.385862308257887D+03 0.000000000000000D+00 0.000000000000000D+00 0.385862308257887D+03
 0.385862308257887D+03 0.000000000000000D+00 0.000000000000000D+00 -.385862308257887D+03
 0.273421919181532D+03 -.218303531571292D+03 0.122325177100606D+03 -.618418442134406D+02
 0.287099071767092D+03 0.127937272065273D+03 -.237254491840265D+03 0.988343944567876D+02
 0.481105629343894D+02 0.475025635188224D+02 -.672356630763092D+01 0.359532767783181D+01
 0.163093062632760D+03 0.428636959871973D+02 0.121652881047290D+03 -.405878779211788D+02
 0.000000000000000D+00 -.000000000000000D+00 -.000000000000000D+00 -.000000000000000D+00
 0.419335500502558D+03 0.000000000000000D+00 0.000000000000000D+00 0.419335500502558D+03
 0.458061495293439D+03 0.000000000000000D+00 0.000000000000000D+00 -.458061495293439D+03
 0.274267602296017D+03 -.201295843744266D+03 0.150209972774017D+03 -.618418442134406D+02
 0.272877519965457D+03 0.145326516681339D+03 -.208744118298281D+03 0.988343944567876D+02
 0.507276847671539D+02 0.505718390779807D+02 -.169136424095599D+01 0.359532767783181D+01
 0.179360689228312D+03 0.534980906185465D+02 0.139088403407618D+03 -.405878779211788D+02
 0.100163499539058D+03 -.481006026335999D+02 -.788628936423975D+02 -.387259947908806D+02
0.602583275325D-04 0.000000000000D+00 0.000000000000D+00 0.265409728944D-08 0.000000000000D+00  7 2 -2 23 -13 13 23 21 0 0.16975413D-01 0.20759537D+00 0.13757619D+06 0.13757619D+06 0.13757619D+06 0.11105272D+01  1  2  2  2  7  2       -2 0.293087594977D-03 0.100000000000D+01
-.334132966935D-05 0.000000000000D+00 -.231407844107D-06 0.265409728944D-08 0.000000000000D+00  7 2 -2 23 -13 13 23 21 2 0.16975413D-01 0.20759537D+00 0.13757619D+06 0.13757619D+06 0.13757619D+06 0.11105272D+01  1  2  3  2  7  2       -2 -.200427864354D-04 0.100000000000D+01
0.386312280350D-05 0.000000000000D+00 0.000000000000D+00 0.265409728944D-08 0.000000000000D+00  7 2 -2 23 -13 13 23 21 2 0.16975413D-01 0.20759537D+00 0.13757619D+06 0.13757619D+06 0.13757619D+06 0.11105272D+01  1  2 15  2  7  2       -2 0.231727345058D-04 0.100000000000D+01
0.559952618901D-04 0.000000000000D+00 0.000000000000D+00 0.265409728944D-08 0.000000000000D+00  7 2 -2 23 -13 13 23 21 2 0.16975413D-01 0.25413710D+00 0.17607970D+06 0.17607970D+06 0.17607970D+06 0.11020996D+01  1  2 12  2  7  2       -2 0.163565466829D-03 0.100000000000D+01
-.555509577284D-04 0.000000000000D+00 0.000000000000D+00 0.265409728944D-08 0.000000000000D+00  7 2 -2 23 -13 13 23 21 2 0.16975413D-01 0.20759537D+00 0.13757619D+06 0.13757619D+06 0.13757619D+06 0.11105272D+01  1  2  4  2  7  2       -2 -.333219434240D-03 0.100000000000D+01
-.127055534149D-03 0.000000000000D+00 -.333574032233D-04 0.265409728944D-08 0.000000000000D+00  7 2 -2 23 -13 13 23 21 2 0.16975413D-01 0.25742701D+00 0.13757619D+06 0.13757619D+06 0.13757619D+06 0.11105272D+01  1  2  5  2  7  2       -2 -.362374883191D-03 0.100000000000D+01
0.131924599214D-03 0.000000000000D+00 0.326000016757D-04 0.265409728944D-08 0.000000000000D+00  7 2 -2 23 -13 13 23 21 2 0.16975413D-01 0.20759537D+00 0.13757619D+06 0.13757619D+06 0.13757619D+06 0.11105272D+01  1  2  6  2  7  2       -2 0.791342617844D-03 0.100000000000D+01
0.161640182991D-05 0.000000000000D+00 0.000000000000D+00 0.265409728944D-08 0.000000000000D+00  7 2 21 23 -13 13 23 2 2 0.16975413D-01 0.25413710D+00 0.17607970D+06 0.17607970D+06 0.17607970D+06 0.11020996D+01  1  2 12  4  7  2       -2 0.357792246231D-04 0.100000000000D+01
-.340865745310D-05 0.000000000000D+00 -.100916749987D-05 0.265409728944D-08 0.000000000000D+00  7 2 21 23 -13 13 23 2 2 0.16975413D-01 0.25742701D+00 0.13757619D+06 0.13757619D+06 0.13757619D+06 0.11105272D+01  1  2  5  4  7  2       -2 -.741902056489D-04 0.100000000000D+01
  </mgrwgt>
  </event>
  <event>
  8     66 0.55102590E-06 0.42568537E+03 0.75467711E-02 0.89391525E-01
        2 -1    0    0  501    0 0.00000000E+00 0.00000000E+00 0.19319824E+04 0.19319825E+04 0.32000000E+00 0.0000E+00 0.9000E+01
       -2 -1    0    0    0  501 0.00000000E+00 0.00000000E+00 -.10769154E+03 0.10769202E+03 0.32000000E+00 0.0000E+00 0.9000E+01
       25  2    1    2    0    0 0.12280798E+03 -.37327848E+03 0.85279665E+03 0.98575412E+03 0.30005072E+03 0.0000E+00 0.0000E+00
       23  2    1    2    0    0 -.12280798E+03 0.37327848E+03 0.97149423E+03 0.10539203E+04 0.11193040E+03 0.0000E+00 0.0000E+00
       23  1    3    3    0    0 0.29115705E+01 -.10719223E+03 0.98393588E+02 0.17174167E+03 0.91188000E+02 0.0000E+00 0.9000E+01
      -13  1    4    4    0    0 0.13586867E+02 0.83158885E+02 0.14928819E+03 0.17142631E+03 0.10565837E+00 0.0000E+00 0.9000E+01
       13  1    4    4    0    0 -.13639485E+03 0.29011960E+03 0.82220604E+03 0.88249403E+03 0.10565837E+00 0.0000E+00 0.9000E+01
       23  1    3    3    0    0 0.11989641E+03 -.26608626E+03 0.75440306E+03 0.81401246E+03 0.91188000E+02 0.0000E+00 0.9000E+01
#aMCatNLO 1  0  0  1  2 0.59131496D+03 0.00000000D+00  -5  7  0 0.00000000D+00 0.00000000D+00 0.00000000D+00 0.00000000D+00 0.00000000D+00
  <mgrwgt>
 0.2920971271D-03    3    2    0
 0.456134490966461D+03 0.000000000000000D+00 0.000000000000000D+00 0.456134490966461D+03
 0.456134490966461D+03 0.000000000000000D+00 0.000000000000000D+00 -.456134490966461D+03
 0.187223919506630D+03 0.291157313656248D+01 -.107192236145832D+03 -.123445906952607D+03
 0.847431625415928D+02 0.135869470472612D+02 0.831586958816097D+02 -.902384434460625D+01
 0.328913693634627D+03 -.136394936302312D+03 0.290119810528343D+03 0.735604156490425D+02
 0.311388206250072D+03 0.119896416118488D+03 -.266086270264121D+03 0.589093356481705D+02
 0.000000000000000D+00 -.000000000000000D+00 0.000000000000000D+00 -.000000000000000D+00
 0.679711562620450D+03 0.000000000000000D+00 0.000000000000000D+00 0.679711562620450D+03
 0.118566618767418D+04 0.000000000000000D+00 0.000000000000000D+00 -.118566618767418D+04
 0.258718315769845D+03 0.117971290658397D+03 -.171650220529499D+03 -.123445906952607D+03
 0.823270615418364D+02 0.566935453209840D+02 0.590098060858971D+02 -.902384434460625D+01
 0.222926469514337D+03 0.598801885724498D+01 0.210354984941722D+03 0.735604156490425D+02
 0.523174915656088D+03 0.335226092172002D+03 -.386716819298481D+03 0.589093356481705D+02
 0.778230987812527D+03 -.515878947008628D+03 0.289002248800361D+03 -.505954625053734D+03
0.110853512763D-04 0.000000000000D+00 0.000000000000D+00 0.422898783799D-08 0.000000000000D+00  7 2 -2 23 -13 13 23 21 0 0.29722810D+00 0.16567968D-01 0.18120803D+06 0.18120803D+06 0.18120803D+06 0.11011318D+01  1  2  2  1  7  1        2 0.289282892544D-03 0.100000000000D+01
-.612278856395D-06 0.000000000000D+00 -.425706677412D-07 0.422898783799D-08 0.000000000000D+00  7 2 -2 23 -13 13 23 21 2 0.29722810D+00 0.16567968D-01 0.18120803D+06 0.18120803D+06 0.18120803D+06 0.11011318D+01  1  2  3  1  7  1        2 -.193731916511D-04 0.100000000000D+01
0.701221162337D-06 0.000000000000D+00 0.000000000000D+00 0.422898783799D-08 0.000000000000D+00  7 2 -2 23 -13 13 23 21 2 0.29722810D+00 0.16567968D-01 0.18120803D+06 0.18120803D+06 0.18120803D+06 0.11011318D+01  1  2 15  1  7  1        2 0.221874262452D-04 0.100000000000D+01
  </mgrwgt>
  </event>
  <event>
  8     66 0.55102590E-06 0.24789144E+03 0.75467711E-02 0.93741423E-01
        2 -1    0    0  501    0 0.00000000E+00 0.00000000E+00 0.20768951E+04 0.20768952E+04 0.32000000E+00 0.0000E+00 0.9000E+01
       -2 -1    0    0    0  501 0.00000000E+00 0.00000000E+00 -.13981802E+03 0.13981839E+03 0.32000000E+00 0.0000E+00 0.9000E+01
       25  2    1    2    0    0 -.15375765E+03 -.38460573E+03 0.48720912E+03 0.70622258E+03 0.29969089E+03 0.0000E+00 0.0000E+00
       23  2    1    2    0    0 0.15375765E+03 0.38460573E+03 0.14498680E+04 0.15104910E+04 0.88897473E+02 0.0000E+00 0.0000E+00
       23  1    3    3    0    0 -.13490016E+03 -.11307555E+03 0.31283099E+03 0.37035471E+03 0.91188000E+02 0.0000E+00 0.9000E+01
      -13  1    4    4    0    0 0.13048646E+03 0.26599896E+03 0.90068082E+03 0.94816038E+03 0.10565837E+00 0.0000E+00 0.9000E+01
       13  1    4    4    0    0 0.23271186E+02 0.11860677E+03 0.54918719E+03 0.56233059E+03 0.10565837E+00 0.0000E+00 0.9000E+01
       23  1    3    3    0    0 -.18857488E+02 -.27153018E+03 0.17437813E+03 0.33586787E+03 0.91188000E+02 0.0000E+00 0.9000E+01
#aMCatNLO 1  0  0  1  2 0.16818179D+03 0.00000000D+00  -5  7  0 0.00000000D+00 0.00000000D+00 0.00000000D+00 0.00000000D+00 0.00000000D+00
  <mgrwgt>
 0.2857826154D-03    9    2    0
 0.538876422059638D+03 0.000000000000000D+00 0.000000000000000D+00 0.538876422059638D+03
 0.538876422059638D+03 0.000000000000000D+00 0.000000000000000D+00 -.538876422059638D+03
 0.199482240688266D+03 -.134900159720476D+03 -.113075545354122D+03 -.222211826028537D+02
 0.331348701360668D+03 0.130486612444647D+03 0.265999165085640D+03 0.148356496453184D+03
 0.169526489291246D+03 0.232710349411241D+02 0.118606562286029D+03 0.118870403746578D+03
 0.377395412779097D+03 -.188574876652954D+02 -.271530182017547D+03 -.245005717596908D+03
 0.000000000000000D+00 0.000000000000000D+00 0.000000000000000D+00 0.000000000000000D+00
 0.660573495598632D+03 0.000000000000000D+00 0.000000000000000D+00 0.660573495598632D+03
 0.606793826100105D+03 0.000000000000000D+00 0.000000000000000D+00 -.606793826100105D+03
 0.226916246134625D+03 -.149217558740774D+03 -.142884815928790D+03 -.222211826028537D+02
 0.289126193776318D+03 0.109652611081402D+03 0.222622125519339D+03 0.148356496453184D+03
 0.153322153016561D+03 0.124305817548953D+02 0.960364012028467D+02 0.118870403746578D+03
 0.421431587835503D+03 -.456801084517937D+02 -.327375713696374D+03 -.245005717596908D+03
 0.176571140935729D+03 0.728144743562704D+02 0.151602002902978D+03 0.537796694985270D+02
0.133802021739D-04 0.000000000000D+00 0.000000000000D+00 0.290926881267D-06 0.000000000000D+00  7 2 -2 23 -13 13 23 21 0 0.31952236D+00 0.21510495D-01 0.20360065D+06 0.20360065D+06 0.20360065D+06 0.10972307D+01  1  2  2  1  7  1        2 0.188262913553D-03 0.100000000000D+01
-.714860150759D-06 0.000000000000D+00 -.513834994360D-07 0.290926881267D-06 0.000000000000D+00  7 2 -2 23 -13 13 23 21 2 0.31952236D+00 0.21510495D-01 0.20360065D+06 0.20360065D+06 0.20360065D+06 0.10972307D+01  1  2  3  1  7  1        2 -.121093019051D-04 0.100000000000D+01
0.833260669669D-06 0.000000000000D+00 0.000000000000D+00 0.290926881267D-06 0.000000000000D+00  7 2 -2 23 -13 13 23 21 2 0.31952236D+00 0.21510495D-01 0.20360065D+06 0.20360065D+06 0.20360065D+06 0.10972307D+01  1  2 15  1  7  1        2 0.141149356332D-04 0.100000000000D+01
0.767882873035D-05 0.000000000000D+00 0.000000000000D+00 0.290926881267D-06 0.000000000000D+00  7 2 -2 23 -13 13 23 21 2 0.40815421D+00 0.21510495D-01 0.29262771D+06 0.29262771D+06 0.29262771D+06 0.10853522D+01  1  2 12  1  7  1        2 0.589433697621D-04 0.100000000000D+01
-.849192511465D-05 0.000000000000D+00 0.000000000000D+00 0.290926881267D-06 0.000000000000D+00  7 2 -2 23 -13 13 23 21 2 0.31952236D+00 0.21510495D-01 0.20360065D+06 0.20360065D+06 0.20360065D+06 0.10972307D+01  1  2  4  1  7  1        2 -.143848114712D-03 0.100000000000D+01
-.179142351579D-04 0.000000000000D+00 -.586958210123D-05 0.290926881267D-06 0.000000000000D+00  7 2 -2 23 -13 13 23 21 2 0.41019005D+00 0.21510495D-01 0.20360065D+06 0.20360065D+06 0.20360065D+06 0.10972307D+01  1  2  5  1  7  1        2 -.140619707495D-03 0.100000000000D+01
0.189641623650D-04 0.000000000000D+00 0.569110387843D-05 0.290926881267D-06 0.000000000000D+00  7 2 -2 23 -13 13 23 21 2 0.31952236D+00 0.21510495D-01 0.20360065D+06 0.20360065D+06 0.20360065D+06 0.10972307D+01  1  2  6  1  7  1        2 0.321241528447D-03 0.100000000000D+01
0.255885188727D-06 0.000000000000D+00 0.000000000000D+00 0.290926881267D-06 0.000000000000D+00  7 21 -2 23 -13 13 23 -2 2 0.40815421D+00 0.21510495D-01 0.29262771D+06 0.29262771D+06 0.29262771D+06 0.10853522D+01  1  2 12  3  7  1        2 0.194869061676D-06 0.100000000000D+01
-.507671678244D-06 0.000000000000D+00 -.198524479819D-06 0.290926881267D-06 0.000000000000D+00  7 21 -2 23 -13 13 23 -2 2 0.41019005D+00 0.21510495D-01 0.20360065D+06 0.20360065D+06 0.20360065D+06 0.10972307D+01  1  2  5  3  7  1        2 -.397876981700D-06 0.100000000000D+01
  </mgrwgt>
  </event>
  <event>
  8     66 0.55102590E-06 0.26687584E+03 0.75467711E-02 0.93339258E-01
        2 -1    0    0  501    0 0.00000000E+00 0.00000000E+00 0.61927666E+03 0.61927674E+03 0.32000000E+00 0.0000E+00 0.9000E+01
       -2 -1    0    0    0  501 0.00000000E+00 0.00000000E+00 -.11872125E+04 0.11872126E+04 0.32000000E+00 0.0000E+00 0.9000E+01
       25  2    1    2    0    0 -.38337857E+03 0.16937388E+03 -.10442450E+04 0.11644578E+04 0.29974573E+03 0.0000E+00 0.0000E+00
       23  2    1    2    0    0 0.38337857E+03 -.16937388E+03 0.47630916E+03 0.64203158E+03 0.98323398E+02 0.0000E+00 0.0000E+00
       23  1    3    3    0    0 -.16258398E+03 -.37009415E+02 -.50533945E+03 0.53989485E+03 0.91188000E+02 0.0000E+00 0.9000E+01
      -11  1    4    4    0    0 0.21133395E+03 -.83025938E+02 0.32849303E+03 0.39932821E+03 0.51099893E-03 0.0000E+00 0.9000E+01
       11  1    4    4    0    0 0.17204461E+03 -.86347943E+02 0.14781613E+03 0.24270337E+03 0.51099893E-03 0.0000E+00 0.9000E+01
       23  1    3    3    0    0 -.22079459E+03 0.20638330E+03 -.53890560E+03 0.62456290E+03 0.91188000E+02 0.0000E+00 0.9000E+01
#aMCatNLO 1  0  0  2  1 0.18253040D+03 0.00000000D+00  -5  7  0 0.00000000D+00 0.00000000D+00 0.00000000D+00 0.00000000D+00 0.00000000D+00
  <mgrwgt>
 0.1491131948D-03    6    2    0
 0.857445702183607D+03 0.000000000000000D+00 0.000000000000000D+00 0.857445702183607D+03
 0.857445702183607D+03 0.000000000000000D+00 0.000000000000000D+00 -.857445702183607D+03
 0.401374621770883D+03 -.162583980396363D+03 -.370094146391465D+02 -.353529472893367D+03
 0.529447595893704D+03 0.211333953679114D+03 -.830259381782588D+02 0.478287999441338D+03
 0.304620529596541D+03 0.172044614930762D+03 -.863479432736527D+02 0.236089707987055D+03
 0.479448657106086D+03 -.220794588213513D+03 0.206383296091058D+03 -.360848234535026D+03
 0.000000000000000D+00 -.000000000000000D+00 -.000000000000000D+00 0.000000000000000D+00
 0.953794652153076D+03 0.000000000000000D+00 0.000000000000000D+00 0.953794652153076D+03
 0.953314554078196D+03 0.000000000000000D+00 0.000000000000000D+00 -.953314554078196D+03
 0.389495817102158D+03 -.135591060087895D+03 -.486995031357516D+01 -.353529472893367D+03
 0.540137826959513D+03 0.247839596908511D+03 -.395600291604347D+02 0.478287999441338D+03
 0.311080519870046D+03 0.193058890525351D+03 -.613270284159097D+02 0.236089707987055D+03
 0.483864009483270D+03 -.187916102985975D+03 0.245530483241379D+03 -.360848234535026D+03
 0.182531032816284D+03 -.117391324359992D+03 -.139773475351460D+03 0.480098074879466D+00
0.183483504766D-03 0.000000000000D+00 0.000000000000D+00 0.152968010722D-06 0.000000000000D+00  7 2 -2 23 -11 11 23 21 0 0.95273342D-01 0.18264809D+00 0.21404193D+06 0.21404193D+06 0.21404193D+06 0.10955692D+01  1  2  2  2  7  2       -2 0.182896612905D-03 0.100000000000D+01
-.547541581548D-05 0.000000000000D+00 -.704624970616D-06 0.152968010722D-06 0.000000000000D+00  7 2 -2 23 -11 11 23 21 2 0.95273342D-01 0.18264809D+00 0.21404193D+06 0.21404193D+06 0.21404193D+06 0.10955692D+01  1  2  3  2  7  2       -2 -.655096692203D-05 0.100000000000D+01
0.113515316224D-04 0.000000000000D+00 0.000000000000D+00 0.152968010722D-06 0.000000000000D+00  7 2 -2 23 -11 11 23 21 2 0.95273342D-01 0.18264809D+00 0.21404193D+06 0.21404193D+06 0.21404193D+06 0.10955692D+01  1  2 15  2  7  2       -2 0.135813444456D-04 0.100000000000D+01
0.124475994563D-03 0.000000000000D+00 0.000000000000D+00 0.152968010722D-06 0.000000000000D+00  7 2 -2 23 -11 11 23 21 2 0.95273342D-01 0.21223823D+00 0.31466635D+06 0.31466635D+06 0.31466635D+06 0.10830216D+01  1  2 12  2  7  2       -2 0.893645682032D-04 0.100000000000D+01
-.122037180859D-03 0.000000000000D+00 0.000000000000D+00 0.152968010722D-06 0.000000000000D+00  7 2 -2 23 -11 11 23 21 2 0.95273342D-01 0.18264809D+00 0.21404193D+06 0.21404193D+06 0.21404193D+06 0.10955692D+01  1  2  4  2  7  2       -2 -.146009282583D-03 0.100000000000D+01
0.284168589074D-05 0.000000000000D+00 0.000000000000D+00 0.152968010722D-06 0.000000000000D+00  7 2 21 23 -11 11 23 2 2 0.95273342D-01 0.21223823D+00 0.31466635D+06 0.31466635D+06 0.31466635D+06 0.10830216D+01  1  2 12  4  7  2       -2 0.158309187202D-04 0.100000000000D+01
  </mgrwgt>
  </event>
  <event>
  8     66 0.55102590E-06 0.19961423E+03 0.75467711E-02 0.93735033E-01
        2 -1    0    0  501    0 0.00000000E+00 0.00000000E+00 0.20389932E+04 0.20389932E+04 0.32000000E+00 0.0000E+00 0.9000E+01
       -2 -1    0    0    0  501 0.00000000E+00 0.00000000E+00 -.26079832E+02 0.26081795E+02 0.32000000E+00 0.0000E+00 0.9000E+01
       25  2    1    2    0    0 -.67265164E+02 0.72848852E+02 0.12340424E+04 0.12740235E+04 0.30073861E+03 0.0000E+00 0.0000E+00
       23  2    1    2    0    0 0.67265164E+02 -.72848852E+02 0.77887099E+03 0.79105153E+03 0.96389537E+02 0.0000E+00 0.0000E+00
       23  1    3    3    0    0 -.75864050E+02 -.55125234E+02 0.30678630E+03 0.33350746E+03 0.91188000E+02 0.0000E+00 0.9000E+01
      -11  1    4    4    0    0 0.54643250E+00 -.33681218E+02 0.51426974E+03 0.51537180E+03 0.51099893E-03 0.0000E+00 0.9000E+01
       11  1    4    4    0    0 0.66718732E+02 -.39167633E+02 0.26460125E+03 0.27567973E+03 0.51099893E-03 0.0000E+00 0.9000E+01
       23  1    3    3    0    0 0.85988862E+01 0.12797409E+03 0.92725608E+03 0.94051602E+03 0.91188000E+02 0.0000E+00 0.9000E+01
#aMCatNLO 1  0  0  2  1 0.47182153D+03 0.00000000D+00  -5  7  0 0.00000000D+00 0.00000000D+00 0.00000000D+00 0.00000000D+00 0.00000000D+00
  <mgrwgt>
 0.2810798109D-03    3    2    0
 0.230604970978757D+03 0.000000000000000D+00 0.000000000000000D+00 0.230604970978757D+03
 0.230604970978757D+03 0.000000000000000D+00 0.000000000000000D+00 -.230604970978757D+03
 0.154341199392647D+03 -.758640504050194D+02 -.551252334011292D+02 -.819256308158602D+02
 0.630970537661238D+02 0.546432814117210D+00 -.336812182151375D+02 0.533527426163741D+02
 0.795297966763626D+02 0.667187315474933D+02 -.391676336418792D+02 -.184254143772298D+02
 0.164241892122379D+03 0.859888604340888D+01 0.127974085258146D+03 0.469983025767159D+02
 0.000000000000000D+00 0.000000000000000D+00 -.000000000000000D+00 0.000000000000000D+00
 0.599896885235263D+03 0.000000000000000D+00 0.000000000000000D+00 0.599896885235263D+03
 0.536023968085213D+03 0.000000000000000D+00 0.000000000000000D+00 -.536023968085213D+03
 0.242879838789734D+03 -.202636164529620D+03 0.538715192534547D+02 -.819256308158602D+02
 0.673776722853861D+02 -.410942540363702D+02 0.212081661208477D+01 0.533527426163741D+02
 0.358961545094015D+02 0.298808240599656D+02 -.749495610978355D+01 -.184254143772298D+02
 0.313641883393140D+03 -.143916541651870D+03 0.259104550844382D+03 0.469983025767159D+02
 0.476125304342815D+03 0.357766136157894D+03 -.307601930600138D+03 0.638729171500498D+02
0.135149422539D-05 0.000000000000D+00 0.000000000000D+00 0.340678702709D-08 0.000000000000D+00  7 2 -2 23 -11 11 23 21 0 0.31369141D+00 0.40124348D-02 0.39845840D+05 0.39845840D+05 0.39845840D+05 0.11560694D+01  1  2  2  2  7  2       -2 0.277626908548D-03 0.100000000000D+01
-.731816130783D-07 0.000000000000D+00 -.519009368208D-08 0.340678702709D-08 0.000000000000D+00  7 2 -2 23 -11 11 23 21 2 0.31369141D+00 0.40124348D-02 0.39845840D+05 0.39845840D+05 0.39845840D+05 0.11560694D+01  1  2  3  2  7  2       -2 -.200917200512D-04 0.100000000000D+01
0.857583841814D-07 0.000000000000D+00 0.000000000000D+00 0.340678702709D-08 0.000000000000D+00  7 2 -2 23 -11 11 23 21 2 0.31369141D+00 0.40124348D-02 0.39845840D+05 0.39845840D+05 0.39845840D+05 0.11560694D+01  1  2 15  2  7  2       -2 0.235446224064D-04 0.100000000000D+01
  </mgrwgt>
  </event>
  <event>
  8     66 0.55102590E-06 0.16092682E+03 0.75467711E-02 0.97633345E-01
        2 -1    0    0  501    0 0.00000000E+00 0.00000000E+00 0.17473420E+04 0.17473420E+04 0.32000000E+00 0.0000E+00 0.9000E+01
       -2 -1    0    0    0  501 0.00000000E+00 0.00000000E+00 -.95325966E+02 0.95326503E+02 0.32000000E+00 0.0000E+00 0.9000E+01
       25  2    1    2    0    0 -.23085641E+03 -.28901429E+01 0.15091233E+04 0.15559541E+04 0.30039456E+03 0.0000E+00 0.0000E+00
       23  2    1    2    0    0 0.23085641E+03 0.28901429E+01 0.14289273E+03 0.28671446E+03 0.92107621E+02 0.0000E+00 0.0000E+00
       23  1    3    3    0    0 -.26725160E+02 0.83762750E+02 0.72521137E+03 0.73619101E+03 0.91188000E+02 0.0000E+00 0.9000E+01
      -13  1    4    4    0    0 0.20506350E+03 0.32750881E+02 0.10813125E+03 0.23412825E+03 0.10565837E+00 0.0000E+00 0.9000E+01
       13  1    4    4    0    0 0.25792914E+02 -.29860738E+02 0.34761479E+02 0.52586212E+02 0.10565837E+00 0.0000E+00 0.9000E+01
       23  1    3    3    0    0 -.20413125E+03 -.86652893E+02 0.78391193E+03 0.81976305E+03 0.91188000E+02 0.0000E+00 0.9000E+01
#aMCatNLO 1  0  0  2  1 0.13595682D+03 0.00000000D+00  -5  7  0 0.00000000D+00 0.00000000D+00 0.00000000D+00 0.00000000D+00 0.00000000D+00
  <mgrwgt>
 0.3309895838D-03    9    2    0
 0.408126921485345D+03 0.000000000000000D+00 0.000000000000000D+00 0.408126921485345D+03
 0.408126921485345D+03 0.000000000000000D+00 0.000000000000000D+00 -.408126921485345D+03
 0.194173922044605D+03 -.267251598736292D+02 0.837627499138707D+02 0.147165988648123D+03
 0.309691007307409D+03 0.205063732855599D+03 0.327509628120326D+02 -.229749341477380D+03
 0.483576964297471D+02 0.257926779241487D+02 -.298608199282485D+02 -.279559654225251D+02
 0.264031217188929D+03 -.204131250906119D+03 -.866528927976548D+02 0.110539318251782D+03
 0.000000000000000D+00 -.000000000000000D+00 -.000000000000000D+00 -.000000000000000D+00
 0.471796966849715D+03 0.000000000000000D+00 0.000000000000000D+00 0.471796966849715D+03
 0.493357869880641D+03 0.000000000000000D+00 0.000000000000000D+00 -.493357869880641D+03
 0.208692184003460D+03 -.162434685800911D+02 0.115392798015483D+03 0.147165988648123D+03
 0.329879744888689D+03 0.221703959184532D+03 0.829652979289550D+02 -.229749341477380D+03
 0.456540839205608D+02 0.282386579775570D+02 -.224797146678231D+02 -.279559654225251D+02
 0.243272986156287D+03 -.190932309690785D+03 -.468231426323603D+02 0.110539318251782D+03
 0.137655837761359D+03 -.427668388912127D+02 -.129055238644255D+03 -.215609030309262D+02
0.638205117584D-05 0.000000000000D+00 0.000000000000D+00 0.640231120027D-06 0.000000000000D+00  7 2 -2 23 -13 13 23 21 0 0.26882189D+00 0.14665577D-01 0.94117111D+05 0.94117111D+05 0.94117111D+05 0.11238893D+01  1  2  2  2  7  2       -2 0.259315360193D-03 0.100000000000D+01
-.319437110010D-06 0.000000000000D+00 -.245087569479D-07 0.640231120027D-06 0.000000000000D+00  7 2 -2 23 -13 13 23 21 2 0.26882189D+00 0.14665577D-01 0.94117111D+05 0.94117111D+05 0.94117111D+05 0.11238893D+01  1  2  3  2  7  2       -2 -.163945829963D-04 0.100000000000D+01
0.399294205668D-06 0.000000000000D+00 0.000000000000D+00 0.640231120027D-06 0.000000000000D+00  7 2 -2 23 -13 13 23 21 2 0.26882189D+00 0.14665577D-01 0.94117111D+05 0.94117111D+05 0.94117111D+05 0.11238893D+01  1  2 15  2  7  2       -2 0.204931167657D-04 0.100000000000D+01
0.281832919102D-05 0.000000000000D+00 0.000000000000D+00 0.640231120027D-06 0.000000000000D+00  7 2 -2 23 -13 13 23 21 2 0.26882189D+00 0.18668319D-01 0.14955501D+06 0.14955501D+06 0.14955501D+06 0.11076537D+01  1  2 12  2  7  2       -2 0.938896239719D-04 0.100000000000D+01
-.342086870869D-05 0.000000000000D+00 0.000000000000D+00 0.640231120027D-06 0.000000000000D+00  7 2 -2 23 -13 13 23 21 2 0.26882189D+00 0.14665577D-01 0.94117111D+05 0.94117111D+05 0.94117111D+05 0.11238893D+01  1  2  4  2  7  2       -2 -.175570446284D-03 0.100000000000D+01
-.567167866324D-05 0.000000000000D+00 -.297313357766D-05 0.640231120027D-06 0.000000000000D+00  7 2 -2 23 -13 13 23 21 2 0.26882189D+00 0.20863874D-01 0.94117111D+05 0.94117111D+05 0.94117111D+05 0.11238893D+01  1  2  5  2  7  2       -2 -.164102462439D-03 0.100000000000D+01
0.648806333564D-05 0.000000000000D+00 0.279750636528D-05 0.640231120027D-06 0.000000000000D+00  7 2 -2 23 -13 13 23 21 2 0.26882189D+00 0.14665577D-01 0.94117111D+05 0.94117111D+05 0.94117111D+05 0.11238893D+01  1  2  6  2  7  2       -2 0.332989153445D-03 0.100000000000D+01
0.929218258075D-07 0.000000000000D+00 0.000000000000D+00 0.640231120027D-06 0.000000000000D+00  7 2 21 23 -13 13 23 2 2 0.26882189D+00 0.18668319D-01 0.14955501D+06 0.14955501D+06 0.14955501D+06 0.11076537D+01  1  2 12  4  7  2       -2 0.398724426447D-04 0.100000000000D+01
-.161316711382D-06 0.000000000000D+00 -.129101206991D-06 0.640231120027D-06 0.000000000000D+00  7 2 21 23 -13 13 23 2 2 0.26882189D+00 0.20863874D-01 0.94117111D+05 0.94117111D+05 0.94117111D+05 0.11238893D+01  1  2  5  4  7  2       -2 -.595026214893D-04 0.100000000000D+01
  </mgrwgt>
  </event>
  <event>
  9     66 0.55102590E-06 0.24440729E+03 0.75467711E-02 0.10107499E+00
        2 -1    0    0  501    0 0.00000000E+00 0.00000000E+00 0.57961755E+03 0.57961763E+03 0.32000000E+00 0.0000E+00 0.9000E+01
       21 -1    0    0  502  501 0.00000000E+00 0.00000000E+00 -.15948038E+03 0.15948214E+03 0.75000000E+00 0.0000E+00 0.9000E+01
       25  2    1    2    0    0 -.13578026E+03 0.13944753E+03 0.26666209E+03 0.44662663E+03 0.30080689E+03 0.0000E+00 0.0000E+00
       23  2    1    2    0    0 0.58718067E+02 -.90516440E+02 0.56873920E+02 0.15956446E+03 0.10288409E+03 0.0000E+00 0.0000E+00
       23  1    3    3    0    0 0.26028854E+01 -.43098374E+02 0.13056534E+03 0.16500547E+03 0.91188000E+02 0.0000E+00 0.9000E+01
      -11  1    4    4    0    0 0.78496343E+02 -.99814356E+02 0.51711671E+02 0.13710827E+03 0.51099893E-03 0.0000E+00 0.9000E+01
       11  1    4    4    0    0 -.19778276E+02 0.92979164E+01 0.51622482E+01 0.22456185E+02 0.51099893E-03 0.0000E+00 0.9000E+01
       23  1    3    3    0    0 -.13838315E+03 0.18254591E+03 0.13609675E+03 0.28162117E+03 0.91188000E+02 0.0000E+00 0.9000E+01
        2  1    1    2  502    0 0.77062196E+02 -.48931093E+02 0.96601153E+02 0.13290869E+03 0.32000000E+00 0.0000E+00 0.9000E+01
#aMCatNLO 2  0  0  2  2 0.91284357D+02 0.00000000D+00  -5  7  0 0.00000000D+00 0.00000000D+00 0.00000000D+00 0.00000000D+00 0.00000000D+00
  <mgrwgt>
 0.6568062842D-04    1    2    0
 0.252219771899922D+03 0.000000000000000D+00 0.000000000000000D+00 0.252219771899922D+03
 0.252219771899922D+03 0.000000000000000D+00 0.000000000000000D+00 -.252219771899922D+03
 0.119125650820865D+03 0.201692731228505D+02 -.542522541519991D+02 0.502549766751265D+02
 0.153271789908784D+03 0.999211886998332D+02 -.113418187434877D+03 -.253833092728621D+02
 0.197515273436845D+02 -.165165804501280D+02 0.722688349656152D+01 -.806830574345634D+01
 0.212290575726510D+03 -.103573881372556D+03 0.160443558090315D+03 -.168033616588080D+02
 0.000000000000000D+00 0.000000000000000D+00 -.000000000000000D+00 0.000000000000000D+00
 0.319589485103657D+03 0.000000000000000D+00 0.000000000000000D+00 0.319589485103657D+03
 0.289240262953426D+03 0.000000000000000D+00 0.000000000000000D+00 -.289240262953426D+03
 0.112716719307067D+03 0.260288522460350D+01 -.430983732319242D+02 0.502549766751265D+02
 0.129494764298282D+03 0.784963431329461D+02 -.998143562108214D+02 -.253833092728621D+02
 0.232965444346432D+02 -.197782755695853D+02 0.929791592341841D+01 -.806830574345634D+01
 0.247124478974593D+03 -.138383148775752D+03 0.182545906380657D+03 -.168033616588080D+02
 0.961972410424970D+02 0.770621959877875D+02 -.489310928613293D+02 0.303492221502308D+02
0.466635949252D-07 0.000000000000D+00 0.000000000000D+00 0.104050127057D-08 0.245518428366D-13  7 2 21 23 -11 11 23 2 2 0.89171993D-01 0.24535564D-01 0.86308971D+05 0.86308971D+05 0.86308971D+05 0.11270075D+01  1  2  1  4  7  2       -2 0.656806284188D-04 0.100000000000D+01
  </mgrwgt>
  </event>
  <event>
  8     66 0.55102590E-06 0.66972025E+02 0.75467711E-02 0.11170595E+00
        2 -1    0    0  501    0 0.00000000E+00 0.00000000E+00 0.12184261E+03 0.12184303E+03 0.32000000E+00 0.0000E+00 0.9000E+01
       -2 -1    0    0    0  501 0.00000000E+00 0.00000000E+00 -.41114601E+03 0.41114613E+03 0.32000000E+00 0.0000E+00 0.9000E+01
       25  2    1    2    0    0 0.56923214E+02 -.79032979E+01 -.10704290E+03 0.32384638E+03 0.30019258E+03 0.0000E+00 0.0000E+00
       23  2    1    2    0    0 -.56923214E+02 0.79032979E+01 -.18226050E+03 0.20914277E+03 0.84965259E+02 0.0000E+00 0.0000E+00
       23  1    3    3    0    0 0.33489924E+02 0.44533216E+02 -.16869098E+03 0.19969146E+03 0.91188000E+02 0.0000E+00 0.9000E+01
      -11  1    4    4    0    0 -.21623258E+02 0.45516546E+01 0.13513542E+01 0.22138405E+02 0.51099893E-03 0.0000E+00 0.9000E+01
       11  1    4    4    0    0 -.35299956E+02 0.33516434E+01 -.18361186E+03 0.18700437E+03 0.51099893E-03 0.0000E+00 0.9000E+01
       23  1    3    3    0    0 0.23433290E+02 -.52436514E+02 0.61648083E+02 0.12415492E+03 0.91188000E+02 0.0000E+00 0.9000E+01
#aMCatNLO 1  0  0  2  1 0.86341236D+01 0.00000000D+00  -5  7  0 0.00000000D+00 0.00000000D+00 0.00000000D+00 0.00000000D+00 0.00000000D+00
  <mgrwgt>
 0.2200096803D-03   11    2    0
 0.223819674507554D+03 0.000000000000000D+00 0.000000000000000D+00 0.223819674507554D+03
 0.223819674507554D+03 0.000000000000000D+00 0.000000000000000D+00 -.223819674507554D+03
 0.128743174514361D+03 0.334899239253620D+02 0.445332163057978D+02 -.717967358657041D+02
 0.272328189597930D+02 -.216232577730865D+02 0.455165456274766D+01 0.159167707942577D+02
 0.103993913192967D+03 -.352999565228803D+02 0.335164339857578D+01 -.977620250260702D+02
 0.187669442347987D+03 0.234332903706048D+02 -.524365142671212D+02 0.153641990097517D+03
 0.000000000000000D+00 -.000000000000000D+00 -.000000000000000D+00 -.000000000000000D+00
 0.227082552490512D+03 0.000000000000000D+00 0.000000000000000D+00 0.227082552490512D+03
 0.229646957716039D+03 0.000000000000000D+00 0.000000000000000D+00 -.229646957716039D+03
 0.129764512645042D+03 0.341381909298264D+02 0.469402816041214D+02 -.717967358657041D+02
 0.272141959587537D+02 -.214867194610111D+02 0.505863182770973D+01 0.159167707942577D+02
 0.103898616765452D+03 -.347786185730206D+02 0.528741134475317D+01 -.977620250260702D+02
 0.186845283928617D+03 0.243724714928335D+02 -.489492624517594D+02 0.153641990097517D+03
 0.900690090868613D+01 -.224532438862812D+01 -.833706232482493D+01 -.256440522552648D+01
0.128753743292D-05 0.000000000000D+00 0.000000000000D+00 0.728527653058D-08 0.000000000000D+00  7 2 -2 23 -11 11 23 21 0 0.18745058D-01 0.63253274D-01 0.18521641D+05 0.18521641D+05 0.18521641D+05 0.11872819D+01  1  2  2  2  7  2       -2 0.112531548773D-03 0.100000000000D+01
-.500048623461D-07 0.000000000000D+00 -.494448275879D-08 0.728527653058D-08 0.000000000000D+00  7 2 -2 23 -11 11 23 21 2 0.18745058D-01 0.63253274D-01 0.18521641D+05 0.18521641D+05 0.18521641D+05 0.11872819D+01  1  2  3  2  7  2       -2 -.616076060938D-05 0.100000000000D+01
0.790161549810D-07 0.000000000000D+00 0.000000000000D+00 0.728527653058D-08 0.000000000000D+00  7 2 -2 23 -11 11 23 21 2 0.18745058D-01 0.63253274D-01 0.18521641D+05 0.18521641D+05 0.18521641D+05 0.11872819D+01  1  2 15  2  7  2       -2 0.973504559901D-05 0.100000000000D+01
0.213627341077D-05 0.000000000000D+00 0.000000000000D+00 0.728527653058D-08 0.000000000000D+00  7 2 -2 23 -11 11 23 21 2 0.18745058D-01 0.65351755D-01 0.19642826D+05 0.19642826D+05 0.19642826D+05 0.11847947D+01  1  2 12  2  7  2       -2 0.245212888622D-03 0.100000000000D+01
-.194561035454D-05 0.000000000000D+00 0.000000000000D+00 0.728527653058D-08 0.000000000000D+00  7 2 -2 23 -11 11 23 21 2 0.18745058D-01 0.63253274D-01 0.18521641D+05 0.18521641D+05 0.18521641D+05 0.11872819D+01  1  2  4  2  7  2       -2 -.239705482049D-03 0.100000000000D+01
-.268227846413D-04 0.000000000000D+00 -.429377815793D-05 0.728527653058D-08 0.000000000000D+00  7 2 -2 23 -11 11 23 21 2 0.18745058D-01 0.65693794D-01 0.18521641D+05 0.18521641D+05 0.18521641D+05 0.11872819D+01  1  2  5  2  7  2       -2 -.305758174686D-02 0.100000000000D+01
0.269690834870D-04 0.000000000000D+00 0.429070307959D-05 0.728527653058D-08 0.000000000000D+00  7 2 -2 23 -11 11 23 21 2 0.18745058D-01 0.63253274D-01 0.18521641D+05 0.18521641D+05 0.18521641D+05 0.11872819D+01  1  2  6  2  7  2       -2 0.332267822412D-02 0.100000000000D+01
0.519998028435D-08 0.000000000000D+00 0.000000000000D+00 0.728527653058D-08 0.731801188876D-09  7 2 -2 23 -11 11 23 21 2 0.19018327D-01 0.64900112D-01 0.19642826D+05 0.19642826D+05 0.19642826D+05 0.11847947D+01  1  2 11  2  7  2       -2 0.595331540615D-06 0.100000000000D+01
0.419744260438D-07 0.000000000000D+00 0.000000000000D+00 0.728527653058D-08 0.000000000000D+00  7 2 21 23 -11 11 23 2 2 0.18745058D-01 0.65351755D-01 0.19642826D+05 0.19642826D+05 0.19642826D+05 0.11847947D+01  1  2 12  4  7  2       -2 0.521121863820D-04 0.100000000000D+01
-.177834985598D-06 0.000000000000D+00 -.288199101700D-07 0.728527653058D-08 0.000000000000D+00  7 2 21 23 -11 11 23 2 2 0.18745058D-01 0.65693794D-01 0.18521641D+05 0.18521641D+05 0.18521641D+05 0.11872819D+01  1  2  5  4  7  2       -2 -.219450397789D-03 0.100000000000D+01
0.345591965772D-10 0.000000000000D+00 0.000000000000D+00 0.728527653058D-08 0.341903756410D-11  7 2 21 23 -11 11 23 2 2 0.19018327D-01 0.64900112D-01 0.19642826D+05 0.19642826D+05 0.19642826D+05 0.11847947D+01  1  2 11  4  7  2       -2 0.428425772401D-07 0.100000000000D+01
  </mgrwgt>
  </event>
  <event>
  7     66 0.55102590E-06 0.28994436E+03 0.75467711E-02 0.91746164E-01
        2 -1    0    0  501    0 0.00000000E+00 0.00000000E+00 0.10574655E+04 0.10574655E+04 0.32000000E+00 0.0000E+00 0.9000E+01
       -2 -1    0    0    0  501 0.00000000E+00 0.00000000E+00 -.13371507E+03 0.13371545E+03 0.32000000E+00 0.0000E+00 0.9000E+01
       25  2    1    2    0    0 0.12599853E+00 0.21295638E+03 0.84993501E+03 0.92634708E+03 0.30063092E+03 0.0000E+00 0.0000E+00
       23  1    3    3    0    0 0.29787744E+02 -.28869224E+02 0.15753737E+03 0.18669230E+03 0.91188000E+02 0.0000E+00 0.9000E+01
      -13  1    1    2    0    0 -.77628813E+01 -.14212839E+01 0.51371681E+02 0.51974447E+02 0.10565837E+00 0.0000E+00 0.9000E+01
       13  1    1    2    0    0 0.76368828E+01 -.21153510E+03 0.22443721E+02 0.21285946E+03 0.10565837E+00 0.0000E+00 0.9000E+01
       23  1    3    3    0    0 -.29661746E+02 0.24182560E+03 0.69239764E+03 0.73965478E+03 0.91188000E+02 0.0000E+00 0.9000E+01
#aMCatNLO 1  0  0  2  1 0.55025234D+03 0.00000000D+00  -5  7  0 0.00000000D+00 0.00000000D+00 0.00000000D+00 0.00000000D+00 0.00000000D+00
  <mgrwgt>
 0.4867570316D-03    5    2    0
 0.376031022699224D+03 0.000000000000000D+00 0.000000000000000D+00 0.376031022699224D+03
 0.376031022699224D+03 0.000000000000000D+00 0.000000000000000D+00 -.376031022699224D+03
 0.102197824210190D+03 0.297877443848027D+02 -.288691256359025D+02 0.202091018796262D+02
 0.192216538518032D+02 -.776276936109885D+01 -.142135821420800D+01 0.175268687868606D+02
 0.309578090092078D+03 0.763677059288274D+01 -.211535428506946D+03 -.225904927096230D+03
 0.321064477244376D+03 -.296617456165866D+02 0.241825912357057D+03 0.188168956429744D+03
 0.000000000000000D+00 0.000000000000000D+00 -.000000000000000D+00 -.000000000000000D+00
 0.665685691799135D+03 0.000000000000000D+00 0.000000000000000D+00 0.665685691799135D+03
 0.844874175784133D+03 0.000000000000000D+00 0.000000000000000D+00 -.844874175784133D+03
 0.969826957971371D+02 -.618543113018876D+01 0.253717280261438D+02 0.202091018796262D+02
 0.260897293083047D+02 -.159462721413187D+02 0.109178409359996D+02 0.175268687868606D+02
 0.251521254152270D+03 -.937010770596186D+02 -.587368143658231D+02 -.225904927096230D+03
 0.557272703963953D+03 -.188294615837970D+03 0.481014757280760D+03 0.188168956429744D+03
 0.578693484361603D+03 0.304127396169096D+03 -.458567511877080D+03 -.179188483984999D+03
0.759665177538D-05 0.000000000000D+00 0.000000000000D+00 0.726129989708D-09 0.000000000000D+00  7 2 -2 23 -13 13 23 21 0 0.16268703D+00 0.20571583D-01 0.84067732D+05 0.84067732D+05 0.84067732D+05 0.11279601D+01  1  2  2  2  7  2       -2 0.428012088754D-03 0.100000000000D+01
-.387352958390D-06 0.000000000000D+00 -.291731430618D-07 0.726129989708D-09 0.000000000000D+00  7 2 -2 23 -13 13 23 21 2 0.16268703D+00 0.20571583D-01 0.84067732D+05 0.84067732D+05 0.84067732D+05 0.11279601D+01  1  2  3  2  7  2       -2 -.277669471764D-04 0.100000000000D+01
0.486198213246D-06 0.000000000000D+00 0.000000000000D+00 0.726129989708D-09 0.000000000000D+00  7 2 -2 23 -13 13 23 21 2 0.16268703D+00 0.20571583D-01 0.84067732D+05 0.84067732D+05 0.84067732D+05 0.11279601D+01  1  2 15  2  7  2       -2 0.348525545295D-04 0.100000000000D+01
0.353426227324D-05 0.000000000000D+00 -.276569985566D-05 0.726129989708D-09 0.000000000000D+00  7 2 -2 23 -13 13 23 21 2 0.16268703D+00 0.81182995D-01 0.84067732D+05 0.84067732D+05 0.84067732D+05 0.11279601D+01  1  2  5  2  7  2       -2 0.188823398381D-04 0.100000000000D+01
0.616392132798D-06 0.000000000000D+00 -.452300337883D-06 0.726129989708D-09 0.000000000000D+00  7 2 21 23 -13 13 23 2 2 0.16268703D+00 0.81182995D-01 0.84067732D+05 0.84067732D+05 0.84067732D+05 0.11279601D+01  1  2  5  4  7  2       -2 0.327769956187D-04 0.100000000000D+01
  </mgrwgt>
  </event>
  <event>
  8     66 0.55102590E-06 0.46835881E+03 0.75467711E-02 0.92942825E-01
        2 -1    0    0  501    0 0.00000000E+00 0.00000000E+00 0.15463445E+04 0.15463445E+04 0.32000000E+00 0.0000E+00 0.9000E+01
       -2 -1    0    0    0  501 0.00000000E+00 0.00000000E+00 -.16101799E+03 0.16101831E+03 0.32000000E+00 0.0000E+00 0.9000E+01
       25  2    1    2    0    0 -.39632294E+03 -.15381259E+03 0.50599127E+03 0.72666322E+03 0.30212925E+03 0.0000E+00 0.0000E+00
       23  2    1    2    0    0 0.39632294E+03 0.15381259E+03 0.87933520E+03 0.98069958E+03 0.88380382E+02 0.0000E+00 0.0000E+00
       23  1    3    3    0    0 -.62033885E+02 -.11371985E+03 0.24188236E+03 0.28914137E+03 0.91188000E+02 0.0000E+00 0.9000E+01
      -13  1    4    4    0    0 0.22580865E+01 -.43217708E+01 0.37766279E+02 0.38079911E+02 0.10565837E+00 0.0000E+00 0.9000E+01
       13  1    4    4    0    0 0.39406485E+03 0.15813437E+03 0.84156892E+03 0.94261967E+03 0.10565837E+00 0.0000E+00 0.9000E+01
       23  1    3    3    0    0 -.33428905E+03 -.40092747E+02 0.26410891E+03 0.43752185E+03 0.91188000E+02 0.0000E+00 0.9000E+01
#aMCatNLO 1  0  0  1  1 0.20425933D+03 0.00000000D+00  -5  7  0 0.00000000D+00 0.00000000D+00 0.00000000D+00 0.00000000D+00 0.00000000D+00
  <mgrwgt>
 0.7451612461D-03    3    2    0
 0.498988554946728D+03 0.000000000000000D+00 0.000000000000000D+00 0.498988554946728D+03
 0.498988554946728D+03 0.000000000000000D+00 0.000000000000000D+00 -.498988554946728D+03
 0.158904637051054D+03 -.620338853393977D+02 -.113719847426197D+03 0.124509318281054D+02
 0.127227189906574D+02 0.225752652703535D+01 -.432200298208134D+01 0.117512315404747D+02
 0.444445741704307D+03 0.394065411698834D+03 0.158134597207618D+03 0.131293251112555D+03
 0.381904012147438D+03 -.334289052886472D+03 -.400927467993395D+02 -.155495414481135D+03
 0.000000000000000D+00 0.000000000000000D+00 -.000000000000000D+00 -.000000000000000D+00
 0.516586600073664D+03 0.000000000000000D+00 0.000000000000000D+00 0.516586600073664D+03
 0.194729273522648D+04 0.000000000000000D+00 0.000000000000000D+00 -.194729273522648D+04
 0.161282801469682D+03 -.899506133360245D+02 -.972149791081274D+02 0.124509318281054D+02
 0.121385322950130D+02 0.899062324843412D-01 -.304046713986293D+01 0.117512315404747D+02
 0.400702923228776D+03 0.320377994401478D+03 0.201699914724000D+03 0.131293251112555D+03
 0.444541627676360D+03 -.406345777652284D+03 0.250847616041484D+01 -.155495414481135D+03
 0.144521345063031D+04 0.175828490354347D+03 -.103952944636424D+03 -.143070613515281D+04
0.344128498483D-04 0.000000000000D+00 0.000000000000D+00 0.199203863041D-07 0.000000000000D+00  7 2 -2 23 -13 13 23 21 0 0.23789917D+00 0.24772026D-01 0.21935997D+06 0.21935997D+06 0.21935997D+06 0.10947567D+01  1  2  2  1  7  1        2 0.737517661148D-03 0.100000000000D+01
-.190249670459D-05 0.000000000000D+00 -.132154404529D-06 0.199203863041D-07 0.000000000000D+00  7 2 -2 23 -13 13 23 21 2 0.23789917D+00 0.24772026D-01 0.21935997D+06 0.21935997D+06 0.21935997D+06 0.10947567D+01  1  2  3  1  7  1        2 -.488664675407D-04 0.100000000000D+01
0.220008103778D-05 0.000000000000D+00 0.000000000000D+00 0.199203863041D-07 0.000000000000D+00  7 2 -2 23 -13 13 23 21 2 0.23789917D+00 0.24772026D-01 0.21935997D+06 0.21935997D+06 0.21935997D+06 0.10947567D+01  1  2 15  1  7  1        2 0.565100524801D-04 0.100000000000D+01
  </mgrwgt>
  </event>
  <event>
  9     66 -.55102590E-06 0.38609153E+03 0.75467711E-02 0.96371485E-01
        2 -1    0    0  501    0 0.00000000E+00 0.00000000E+00 0.87653604E+03 0.87653609E+03 0.32000000E+00 0.0000E+00 0.9000E+01
       -2 -1    0    0    0  502 0.00000000E+00 0.00000000E+00 -.42798761E+03 0.42798773E+03 0.32000000E+00 0.0000E+00 0.9000E+01
       25  2    1    2    0    0 -.19124077E+03 -.35704849E+03 -.16721337E+03 0.53064191E+03 0.29927224E+03 0.0000E+00 0.0000E+00
       23  2    1    2    0    0 0.13392487E+03 0.29402557E+03 0.59954766E+03 0.68716131E+03 0.91358451E+02 0.0000E+00 0.0000E+00
       23  1    3    3    0    0 -.72058691E+02 -.19108812E+03 -.20539610E+03 0.30366089E+03 0.91188000E+02 0.0000E+00 0.9000E+01
      -13  1    4    4    0    0 0.42274182E+02 0.15489228E+03 0.21728951E+03 0.27017303E+03 0.10565837E+00 0.0000E+00 0.9000E+01
       13  1    4    4    0    0 0.91650683E+02 0.13913328E+03 0.38225815E+03 0.41698828E+03 0.10565837E+00 0.0000E+00 0.9000E+01
       23  1    3    3    0    0 -.11918208E+03 -.16596037E+03 0.38182735E+02 0.22698102E+03 0.91188000E+02 0.0000E+00 0.9000E+01
       21  1    1    2  501  502 0.57315909E+02 0.63022920E+02 0.16214137E+02 0.86720601E+02 0.75000000E+00 0.0000E+00 0.9000E+01
#aMCatNLO 2  0  0  2  1 0.85188038D+02 0.00000000D+00  -5  7  0 0.00000000D+00 0.00000000D+00 0.00000000D+00 0.00000000D+00 0.00000000D+00
  <mgrwgt>
 -.2176648156D-04    2    2    0
 0.567643097425624D+03 0.000000000000000D+00 0.000000000000000D+00 0.567643097425624D+03
 0.567643097425624D+03 0.000000000000000D+00 0.000000000000000D+00 -.567643097425624D+03
 0.389704329620783D+03 -.520811915984900D+02 -.169121436060698D+03 -.335021943352421D+03
 0.217795730186530D+03 0.529691099838891D+02 0.166652211372551D+03 0.129831790866633D+03
 0.314077749588003D+03 0.107152326014442D+03 0.156178347411067D+03 0.250542482656947D+03
 0.213708385455931D+03 -.108040244399841D+03 -.153709122722920D+03 -.453523301711592D+02
 0.000000000000000D+00 0.000000000000000D+00 0.000000000000000D+00 -.000000000000000D+00
 0.604746136560321D+03 0.000000000000000D+00 0.000000000000000D+00 0.604746136560321D+03
 0.620334155540100D+03 0.000000000000000D+00 0.000000000000000D+00 -.620334155540100D+03
 0.402817672908435D+03 -.720586909878240D+02 -.191088117864130D+03 -.335021943352421D+03
 0.206482495308161D+03 0.422741160737164D+02 0.154892304712770D+03 0.129831790866633D+03
 0.300881138760215D+03 0.916507490522438D+02 0.139133260739117D+03 0.250542482656947D+03
 0.228296512788945D+03 -.119182083435968D+03 -.165960367387822D+03 -.453523301711592D+02
 0.866024723346662D+02 0.573159092978317D+02 0.630229198000648D+02 -.155880189797787D+02
-.169678115885D-04 0.000000000000D+00 0.000000000000D+00 0.823199698309D-06 0.000000000000D+00  7 2 -2 23 -13 13 23 21 2 0.12657781D+00 0.67658009D-01 0.18479507D+06 0.18479507D+06 0.18479507D+06 0.11004725D+01  1  2 13  2  7  2       -2 -.175452900468D-03 0.100000000000D+01
0.152386792825D-04 0.000000000000D+00 0.000000000000D+00 0.823199698310D-06 0.734953534187D-09  7 2 -2 23 -13 13 23 21 2 0.13485135D+00 0.65844086D-01 0.18479507D+06 0.18479507D+06 0.18479507D+06 0.11004725D+01  1  2  1  2  7  2       -2 0.153686418909D-03 0.100000000000D+01
  </mgrwgt>
  </event>
  <event>
  9     66 0.55102590E-06 0.23840427E+03 0.75467711E-02 0.97814627E-01
        2 -1    0    0  501    0 0.00000000E+00 0.00000000E+00 0.18761069E+04 0.18761069E+04 0.32000000E+00 0.0000E+00 0.9000E+01
       21 -1    0    0  502  501 0.00000000E+00 0.00000000E+00 -.10555523E+03 0.10555789E+03 0.75000000E+00 0.0000E+00 0.9000E+01
       25  2    1    2    0    0 -.12998321E+03 -.55151561E+02 0.35600475E+03 0.48491705E+03 0.29743543E+03 0.0000E+00 0.0000E+00
       23  2    1    2    0    0 0.11431740E+03 -.18303113E+03 0.50984084E+03 0.56108244E+03 0.91142539E+02 0.0000E+00 0.0000E+00
       23  1    3    3    0    0 -.10723608E+03 0.64669625E+02 0.92079103E+02 0.18020974E+03 0.91188000E+02 0.0000E+00 0.9000E+01
      -11  1    4    4    0    0 0.86634493E+01 -.91378539E+01 0.12616062E+03 0.12678745E+03 0.51099893E-03 0.0000E+00 0.9000E+01
       11  1    4    4    0    0 0.10565395E+03 -.17389328E+03 0.38368022E+03 0.43429499E+03 0.51099893E-03 0.0000E+00 0.9000E+01
       23  1    3    3    0    0 -.22747136E+02 -.11982119E+03 0.26392565E+03 0.30470731E+03 0.91188000E+02 0.0000E+00 0.9000E+01
        2  1    1    2  502    0 0.15665817E+02 0.23818269E+03 0.90470607E+03 0.93566532E+03 0.32000000E+00 0.0000E+00 0.9000E+01
#aMCatNLO 2  0  0  2  1 0.23869732D+03 0.00000000D+00  -5  7  0 0.00000000D+00 0.00000000D+00 0.00000000D+00 0.00000000D+00 0.00000000D+00
  <mgrwgt>
 0.7975504153D-04    1    2    0
 0.268071789659024D+03 0.000000000000000D+00 0.000000000000000D+00 0.268071789659024D+03
 0.268071789659024D+03 0.000000000000000D+00 0.000000000000000D+00 -.268071789659024D+03
 0.228476579446723D+03 -.101463437302347D+03 0.152436673534767D+03 -.101757198586254D+03
 0.398088018553098D+02 0.977459137441131D+01 0.775592240829759D+01 0.378026948274203D+02
 0.153506081353080D+03 0.110696698312426D+03 -.972233919215022D+02 0.431041768090310D+02
 0.114352116662935D+03 -.190078523844903D+02 -.629692040215628D+02 0.208503269498031D+02
 0.000000000000000D+00 0.000000000000000D+00 0.000000000000000D+00 0.000000000000000D+00
 0.575908235256753D+03 0.000000000000000D+00 0.000000000000000D+00 0.575908235256753D+03
 0.343866377706126D+03 0.000000000000000D+00 0.000000000000000D+00 -.343866377706126D+03
 0.185341617217620D+03 -.107236075435389D+03 0.646696249404298D+02 -.101757198586254D+03
 0.398446917990825D+02 0.866344933521209D+01 -.913785390368110D+01 0.378026948274203D+02
 0.207989417105442D+03 0.105653945924673D+03 -.173893275545731D+03 0.431041768090310D+02
 0.153702753357593D+03 -.227471363910930D+02 -.119821186347810D+03 0.208503269498031D+02
 0.332896133483141D+03 0.156658165665967D+02 0.238182690856792D+03 0.232041857550626D+03
0.168483476459D-06 0.000000000000D+00 0.000000000000D+00 0.131169887600D-07 0.140901290988D-12  7 2 21 23 -11 11 23 2 2 0.28863198D+00 0.16239470D-01 0.14514374D+06 0.14514374D+06 0.14514374D+06 0.11086816D+01  1  2  1  4  7  2       -2 0.797550415272D-04 0.100000000000D+01
  </mgrwgt>
  </event>
  <event>
  8     66 0.55102590E-06 0.32156956E+03 0.75467711E-02 0.94928639E-01
        2 -1    0    0  501    0 0.00000000E+00 0.00000000E+00 0.31709570E+04 0.31709570E+04 0.32000000E+00 0.0000E+00 0.9000E+01
       -2 -1    0    0    0  501 0.00000000E+00 0.00000000E+00 -.89320607E+02 0.89321180E+02 0.32000000E+00 0.0000E+00 0.9000E+01
       25  2    1    2    0    0 -.61459947E+02 -.24325489E+03 0.37978871E+03 0.54528814E+03 0.30024894E+03 0.0000E+00 0.0000E+00
       23  2    1    2    0    0 0.61459947E+02 0.24325489E+03 0.27018477E+04 0.27149901E+04 0.90773515E+02 0.0000E+00 0.0000E+00
       23  1    3    3    0    0 0.64025637E+02 -.35258052E+02 0.19282621E+03 0.22547641E+03 0.91188000E+02 0.0000E+00 0.9000E+01
      -13  1    4    4    0    0 0.45131231E+01 0.18598414E+03 0.18723960E+04 0.18816156E+04 0.10565837E+00 0.0000E+00 0.9000E+01
       13  1    4    4    0    0 0.56946824E+02 0.57270754E+02 0.82945173E+03 0.83337451E+03 0.10565837E+00 0.0000E+00 0.9000E+01
       23  1    3    3    0    0 -.12548558E+03 -.20799684E+03 0.18696250E+03 0.31981173E+03 0.91188000E+02 0.0000E+00 0.9000E+01
#aMCatNLO 1  0  0  2  1 0.28496731D+03 0.00000000D+00  -5  7  0 0.00000000D+00 0.00000000D+00 0.00000000D+00 0.00000000D+00 0.00000000D+00
  <mgrwgt>
 0.2160915918D-03    4    2    0
 0.532196174169586D+03 0.000000000000000D+00 0.000000000000000D+00 0.532196174169586D+03
 0.532196174169586D+03 0.000000000000000D+00 0.000000000000000D+00 -.532196174169586D+03
 0.132371822308841D+03 0.640256367195642D+02 -.352580519554707D+02 -.621661934842643D+02
 0.342492997717694D+03 0.451305209850283D+01 0.185984310201653D+03 0.287560293165145D+03
 0.151226013702662D+03 0.569468952047625D+02 0.572705791394024D+02 0.127853193593171D+03
 0.438301514609977D+03 -.125485584022830D+03 -.207996837385584D+03 -.353247293274052D+03
 0.000000000000000D+00 -.000000000000000D+00 0.000000000000000D+00 0.000000000000000D+00
 0.849796465707478D+03 0.000000000000000D+00 0.000000000000000D+00 0.849796465707478D+03
 0.618870328229256D+03 0.000000000000000D+00 0.000000000000000D+00 -.618870328229256D+03
 0.156571927960592D+03 0.962440581366186D+02 -.554252915406755D+02 -.621661934842643D+02
 0.329160130738444D+03 0.794051496728732D+02 0.139105325807297D+03 0.287560293165145D+03
 0.161339942436556D+03 0.917992901298214D+02 0.354545941327695D+02 0.127853193593171D+03
 0.454807048355669D+03 -.259002909477050D+02 -.270332618478378D+03 -.353247293274052D+03
 0.366787744445472D+03 -.241548206991608D+03 0.151197990078987D+03 0.230926137478223D+03
0.336034128667D-04 0.000000000000D+00 0.000000000000D+00 0.128029794880D-05 0.000000000000D+00  7 2 -2 23 -13 13 23 21 0 0.48783959D+00 0.13741677D-01 0.10340698D+06 0.10340698D+06 0.10340698D+06 0.11205300D+01  1  2  2  2  7  2       -2 0.230368459078D-03 0.100000000000D+01
-.129074582063D-05 0.000000000000D+00 -.129045953390D-06 0.128029794880D-05 0.000000000000D+00  7 2 -2 23 -13 13 23 21 2 0.48783959D+00 0.13741677D-01 0.10340698D+06 0.10340698D+06 0.10340698D+06 0.11205300D+01  1  2  3  2  7  2       -2 -.111103398329D-04 0.100000000000D+01
0.206307896133D-05 0.000000000000D+00 0.000000000000D+00 0.128029794880D-05 0.000000000000D+00  7 2 -2 23 -13 13 23 21 2 0.48783959D+00 0.13741677D-01 0.10340698D+06 0.10340698D+06 0.10340698D+06 0.11205300D+01  1  2 15  2  7  2       -2 0.177583440490D-04 0.100000000000D+01
-.243095087942D-05 0.000000000000D+00 0.000000000000D+00 0.128029794880D-05 0.000000000000D+00  7 2 -2 23 -13 13 23 21 2 0.48783959D+00 0.13741677D-01 0.10340698D+06 0.10340698D+06 0.10340698D+06 0.11205300D+01  1  2  4  2  7  2       -2 -.209248714625D-04 0.100000000000D+01
  </mgrwgt>
  </event>
  <event>
  9     66 0.55102590E-06 0.24647826E+03 0.75467711E-02 0.10317323E+00
        2 -1    0    0  502    0 0.00000000E+00 0.00000000E+00 0.55024830E+03 0.55024839E+03 0.32000000E+00 0.0000E+00 0.9000E+01
       -2 -1    0    0    0  501 0.00000000E+00 0.00000000E+00 -.15399914E+03 0.15399947E+03 0.32000000E+00 0.0000E+00 0.9000E+01
       25  2    1    2    0    0 0.57546927E+02 -.18068740E+03 0.25309721E+03 0.43544442E+03 0.29932266E+03 0.0000E+00 0.0000E+00
       23  2    1    2    0    0 -.63637613E+02 0.18689575E+03 0.14265845E+03 0.26006010E+03 0.91104620E+02 0.0000E+00 0.0000E+00
       23  1    3    3    0    0 -.39153893E+02 -.85533424E+02 -.36654633E+01 0.13106365E+03 0.91188000E+02 0.0000E+00 0.9000E+01
      -13  1    4    4    0    0 -.21170392E+02 0.91142845E+02 0.14734778E+02 0.94722376E+02 0.10565837E+00 0.0000E+00 0.9000E+01
       13  1    4    4    0    0 -.42467220E+02 0.95752908E+02 0.12792368E+03 0.16533772E+03 0.10565837E+00 0.0000E+00 0.9000E+01
       23  1    3    3    0    0 0.96700820E+02 -.95153975E+02 0.25676268E+03 0.30438077E+03 0.91188000E+02 0.0000E+00 0.9000E+01
       21  1    1    2  502  501 0.60906857E+01 -.62083534E+01 0.49349767E+00 0.87433486E+01 0.75000000E+00 0.0000E+00 0.9000E+01
#aMCatNLO 2  0  0  1  2 0.86971320D+01 0.00000000D+00  -5  7  0 0.00000000D+00 0.00000000D+00 0.00000000D+00 0.00000000D+00 0.00000000D+00
  <mgrwgt>
 0.4747720575D-04    2    2    0
 0.285931960244247D+03 0.000000000000000D+00 0.000000000000000D+00 0.285931960244247D+03
 0.285931960244247D+03 0.000000000000000D+00 0.000000000000000D+00 -.285931960244247D+03
 0.162448677173370D+03 -.374266431924414D+02 -.872940432665390D+02 -.951489241184733D+02
 0.103789855221999D+03 -.200586001330784D+02 0.900095966994466D+02 -.476262439176943D+02
 0.111064002055370D+03 -.412765461484278D+02 0.945392079179243D+02 0.411557706386762D+02
 0.194561386037756D+03 0.987617894739476D+02 -.972547613508318D+02 0.101619397397491D+03
 0.000000000000000D+00 0.000000000000000D+00 -.000000000000000D+00 -.000000000000000D+00
 0.288371921068604D+03 0.000000000000000D+00 0.000000000000000D+00 0.288371921068604D+03
 0.293821630585402D+03 0.000000000000000D+00 0.000000000000000D+00 -.293821630585402D+03
 0.161918384094303D+03 -.391538929076692D+02 -.855334243029129D+02 -.951489241184733D+02
 0.104992668875429D+03 -.211703639289536D+02 0.911428389891017D+02 -.476262439176943D+02
 0.112542815482866D+03 -.424672490835732D+02 0.957529143954419D+02 0.411557706386762D+02
 0.192476182917954D+03 0.967008202493027D+02 -.951539756518275D+02 0.101619397397491D+03
 0.102635002834536D+02 0.609068567089326D+01 -.620835342980323D+01 -.544970951679794D+01
-.155673084760D-05 0.000000000000D+00 0.000000000000D+00 0.190144268709D-06 0.000000000000D+00  7 2 -2 23 -13 13 23 21 2 0.83933385D-01 0.23054938D-01 0.60751532D+05 0.60751532D+05 0.60751532D+05 0.11399286D+01  1  2  8  1  7  1        2 -.215311035591D-03 0.100000000000D+01
0.201232664225D-05 0.000000000000D+00 0.000000000000D+00 0.190144268709D-06 0.173893473074D-07  7 2 -2 23 -13 13 23 21 2 0.84649619D-01 0.23691089D-01 0.62873253D+05 0.62873253D+05 0.62873253D+05 0.11386453D+01  1  2  1  1  7  1        2 0.262788241339D-03 0.100000000000D+01
  </mgrwgt>
  </event>
  <event>
  8     66 0.55102590E-06 0.17578747E+03 0.75467711E-02 0.10106904E+00
        2 -1    0    0  501    0 0.00000000E+00 0.00000000E+00 0.14079382E+04 0.14079382E+04 0.32000000E+00 0.0000E+00 0.9000E+01
       -2 -1    0    0    0  501 0.00000000E+00 0.00000000E+00 -.70233753E+02 0.70234482E+02 0.32000000E+00 0.0000E+00 0.9000E+01
       25  2    1    2    0    0 0.72757659E+01 -.20725562E+03 0.55886311E+03 0.66676713E+03 0.29873500E+03 0.0000E+00 0.0000E+00
       23  2    1    2    0    0 -.72757659E+01 0.20725562E+03 0.77884134E+03 0.81140559E+03 0.93687606E+02 0.0000E+00 0.0000E+00
       23  1    3    3    0    0 0.73601528E+02 0.85889361E+01 0.22091551E+03 0.25021964E+03 0.91188000E+02 0.0000E+00 0.9000E+01
      -11  1    4    4    0    0 0.23682070E+01 0.20095367E+02 0.24101055E+03 0.24185847E+03 0.51099893E-03 0.0000E+00 0.9000E+01
       11  1    4    4    0    0 -.96439729E+01 0.18716026E+03 0.53783079E+03 0.56954712E+03 0.51099893E-03 0.0000E+00 0.9000E+01
       23  1    3    3    0    0 -.66325762E+02 -.21584456E+03 0.33794760E+03 0.41654749E+03 0.91188000E+02 0.0000E+00 0.9000E+01
#aMCatNLO 1  0  0  1  2 0.19345502D+02 0.00000000D+00  -5  7  0 0.00000000D+00 0.00000000D+00 0.00000000D+00 0.00000000D+00 0.00000000D+00
  <mgrwgt>
 0.4571448657D-03    9    2    0
 0.314460409913721D+03 0.000000000000000D+00 0.000000000000000D+00 0.314460409913721D+03
 0.314460409913721D+03 0.000000000000000D+00 0.000000000000000D+00 -.314460409913721D+03
 0.118215496067344D+03 0.736015284178666D+02 0.858893608696172D+01 -.129883547032080D+02
 0.558221320122512D+02 0.236820699627350D+01 0.200953674116660D+02 0.520257458053813D+02
 0.194667399372271D+03 -.964397292609407D+01 0.187160255216368D+03 0.526633556840817D+02
 0.260215792375576D+03 -.663257624880461D+02 -.215844558714995D+03 -.917007467862551D+02
 0.000000000000000D+00 -.000000000000000D+00 0.000000000000000D+00 0.000000000000000D+00
 0.326786519589330D+03 0.000000000000000D+00 0.000000000000000D+00 0.326786519589330D+03
 0.322292413164545D+03 0.000000000000000D+00 0.000000000000000D+00 -.322292413164545D+03
 0.119945698259125D+03 0.765613714190540D+02 0.643259165549527D+01 -.129883547032080D+02
 0.555434333716867D+02 0.375224686980168D+01 0.190870481619582D+02 0.520257458053813D+02
 0.191129755065448D+03 -.484932528977429D+01 0.183667194358993D+03 0.526633556840817D+02
 0.262599395045836D+03 -.598282687305932D+02 -.220578199815807D+03 -.917007467862551D+02
 0.198606510117786D+02 -.156360242684882D+02 0.113913656393608D+02 0.449410642478558D+01
0.169630410839D-05 0.000000000000D+00 0.000000000000D+00 0.169576438909D-07 0.000000000000D+00  7 2 -2 23 -11 11 23 21 0 0.21660594D+00 0.10805252D-01 0.80845070D+05 0.80845070D+05 0.80845070D+05 0.11293798D+01  1  2  2  1  7  1        2 0.169723291492D-03 0.100000000000D+01
-.930769037810D-07 0.000000000000D+00 -.651425442336D-08 0.169576438909D-07 0.000000000000D+00  7 2 -2 23 -11 11 23 21 2 0.21660594D+00 0.10805252D-01 0.80845070D+05 0.80845070D+05 0.80845070D+05 0.11293798D+01  1  2  3  1  7  1        2 -.118784485947D-04 0.100000000000D+01
0.108839866261D-06 0.000000000000D+00 0.000000000000D+00 0.169576438909D-07 0.000000000000D+00  7 2 -2 23 -11 11 23 21 2 0.21660594D+00 0.10805252D-01 0.80845070D+05 0.80845070D+05 0.80845070D+05 0.11293798D+01  1  2 15  1  7  1        2 0.138901134859D-04 0.100000000000D+01
0.398996884635D-05 0.000000000000D+00 0.000000000000D+00 0.169576438909D-07 0.000000000000D+00  7 2 -2 23 -11 11 23 21 2 0.22770706D+00 0.10805252D-01 0.86388197D+05 0.86388197D+05 0.86388197D+05 0.11269743D+01  1  2 12  1  7  1        2 0.463139864547D-03 0.100000000000D+01
-.353207112478D-05 0.000000000000D+00 0.000000000000D+00 0.169576438909D-07 0.000000000000D+00  7 2 -2 23 -11 11 23 21 2 0.21660594D+00 0.10805252D-01 0.80845070D+05 0.80845070D+05 0.80845070D+05 0.11293798D+01  1  2  4  1  7  1        2 -.450761935389D-03 0.100000000000D+01
-.224113338746D-04 0.000000000000D+00 -.357541382001D-05 0.169576438909D-07 0.000000000000D+00  7 2 -2 23 -11 11 23 21 2 0.22834808D+00 0.10805252D-01 0.80845070D+05 0.80845070D+05 0.80845070D+05 0.11293798D+01  1  2  5  1  7  1        2 -.260104428140D-02 0.100000000000D+01
0.225735985254D-04 0.000000000000D+00 0.357043738453D-05 0.169576438909D-07 0.000000000000D+00  7 2 -2 23 -11 11 23 21 2 0.21660594D+00 0.10805252D-01 0.80845070D+05 0.80845070D+05 0.80845070D+05 0.11293798D+01  1  2  6  1  7  1        2 0.288083637066D-02 0.100000000000D+01
0.488198460087D-07 0.000000000000D+00 0.000000000000D+00 0.169576438909D-07 0.000000000000D+00  7 21 -2 23 -11 11 23 -2 2 0.22770706D+00 0.10805252D-01 0.86388197D+05 0.86388197D+05 0.86388197D+05 0.11269743D+01  1  2 12  3  7  1        2 0.216239074582D-05 0.100000000000D+01
-.201792175821D-06 0.000000000000D+00 -.327506591378D-07 0.169576438909D-07 0.000000000000D+00  7 21 -2 23 -11 11 23 -2 2 0.22834808D+00 0.10805252D-01 0.80845070D+05 0.80845070D+05 0.80845070D+05 0.11293798D+01  1  2  5  3  7  1        2 -.892249980464D-05 0.100000000000D+01
  </mgrwgt>
  </event>
  <event>
  8     66 0.55102590E-06 0.22872004E+03 0.75467711E-02 0.92785840E-01
        2 -1    0    0  501    0 0.00000000E+00 0.00000000E+00 0.47277533E+03 0.47277544E+03 0.32000000E+00 0.0000E+00 0.9000E+01
       -2 -1    0    0    0  501 0.00000000E+00 0.00000000E+00 -.13338314E+03 0.13338352E+03 0.32000000E+00 0.0000E+00 0.9000E+01
       25  2    1    2    0    0 -.87523340E+02 -.19894391E+02 0.10606705E+03 0.32932077E+03 0.29857299E+03 0.0000E+00 0.0000E+00
       23  2    1    2    0    0 0.87523340E+02 0.19894391E+02 0.23332515E+03 0.27683819E+03 0.11892283E+03 0.0000E+00 0.0000E+00
       23  1    3    3    0    0 -.89804461E+02 -.12062687E+03 0.58888736E+02 0.18546918E+03 0.91188000E+02 0.0000E+00 0.9000E+01
      -13  1    4    4    0    0 -.91860840E+01 0.44862502E+02 0.10232454E+03 0.11210420E+03 0.10565837E+00 0.0000E+00 0.9000E+01
       13  1    4    4    0    0 0.96709424E+02 -.24968111E+02 0.13100060E+03 0.16473399E+03 0.10565837E+00 0.0000E+00 0.9000E+01
       23  1    3    3    0    0 0.22811205E+01 0.10073248E+03 0.47178310E+02 0.14385159E+03 0.91188000E+02 0.0000E+00 0.9000E+01
#aMCatNLO 1  0  0  1  1 0.51963569D+03 0.00000000D+00  -5  7  0 0.00000000D+00 0.00000000D+00 0.00000000D+00 0.00000000D+00 0.00000000D+00
  <mgrwgt>
 0.1625628994D-03    5    2    0
 0.251118312289859D+03 0.000000000000000D+00 0.000000000000000D+00 0.251118312289859D+03
 0.251118312289859D+03 0.000000000000000D+00 0.000000000000000D+00 -.251118312289859D+03
 0.184052010590992D+03 -.898049462521803D+02 -.120626973659192D+03 -.542595255513186D+02
 0.661532006536630D+02 -.918508146887970D+01 0.448619514092546D+02 0.477418637140144D+02
 0.110295428777238D+03 0.967092840708113D+02 -.249673644061081D+02 0.467870355790833D+02
 0.141735984557826D+03 0.228074365024867D+01 0.100732386656045D+03 -.402693737417791D+02
 0.000000000000000D+00 -.000000000000000D+00 0.000000000000000D+00 0.000000000000000D+00
 0.917136474567550D+03 0.000000000000000D+00 0.000000000000000D+00 0.917136474567550D+03
 0.482795414490321D+03 0.000000000000000D+00 0.000000000000000D+00 -.482795414490321D+03
 0.373857321430525D+03 -.533850663231146D+02 -.354485520189231D+03 -.542595255513186D+02
 0.478634260957399D+02 -.174216625345505D+01 -.293033504571552D+01 0.477418637140144D+02
 0.199627922958644D+03 0.116940835345525D+03 -.154877764560297D+03 0.467870355790833D+02
 0.101328904194481D+03 0.181478273415272D+02 -.115298850005249D+01 -.402693737417791D+02
 0.677254314378482D+03 -.799614301104822D+02 0.513446608295296D+03 0.434341060077229D+03
0.102097977497D-05 0.000000000000D+00 0.000000000000D+00 0.718385569934D-10 0.000000000000D+00  7 2 -2 23 -13 13 23 21 0 0.72734704D-01 0.20520521D-01 0.52312858D+05 0.52312858D+05 0.52312858D+05 0.11455720D+01  1  2  2  1  7  1        2 0.154419160921D-03 0.100000000000D+01
-.561191539258D-07 0.000000000000D+00 -.392083116603D-08 0.718385569934D-10 0.000000000000D+00  7 2 -2 23 -13 13 23 21 2 0.72734704D-01 0.20520521D-01 0.52312858D+05 0.52312858D+05 0.52312858D+05 0.11455720D+01  1  2  3  1  7  1        2 -.111388393828D-04 0.100000000000D+01
0.668046388148D-07 0.000000000000D+00 0.000000000000D+00 0.718385569934D-10 0.000000000000D+00  7 2 -2 23 -13 13 23 21 2 0.72734704D-01 0.20520521D-01 0.52312858D+05 0.52312858D+05 0.52312858D+05 0.11455720D+01  1  2 15  1  7  1        2 0.132597533948D-04 0.100000000000D+01
0.434036322092D-06 0.000000000000D+00 -.432807891050D-06 0.718385569934D-10 0.000000000000D+00  7 2 -2 23 -13 13 23 21 2 0.37342429D+00 0.20520521D-01 0.52312858D+05 0.52312858D+05 0.52312858D+05 0.11455720D+01  1  2  5  1  7  1        2 0.588574703823D-05 0.100000000000D+01
0.721751522583D-07 0.000000000000D+00 -.864168108337D-07 0.718385569934D-10 0.000000000000D+00  7 21 -2 23 -13 13 23 -2 2 0.37342429D+00 0.20520521D-01 0.52312858D+05 0.52312858D+05 0.52312858D+05 0.11455720D+01  1  2  5  3  7  1        2 0.137077471633D-06 0.100000000000D+01
  </mgrwgt>
  </event>
  <event>
  9     66 0.55102590E-06 0.16116597E+03 0.75467711E-02 0.98486226E-01
        2 -1    0    0  501    0 0.00000000E+00 0.00000000E+00 0.22853334E+04 0.22853334E+04 0.32000000E+00 0.0000E+00 0.9000E+01
       21 -1    0    0  502  501 0.00000000E+00 0.00000000E+00 -.12529364E+03 0.12529588E+03 0.75000000E+00 0.0000E+00 0.9000E+01
       25  2    1    2    0    0 -.25744953E+03 -.89663694E+02 0.92120453E+03 0.10069358E+04 0.30163236E+03 0.0000E+00 0.0000E+00
       23  2    1    2    0    0 -.35039756E+02 -.44531837E+02 -.15810637E+02 0.10843493E+03 0.91089449E+02 0.0000E+00 0.0000E+00
       23  1    3    3    0    0 -.11107930E+03 0.27212435E+01 0.68649588E+03 0.70138282E+03 0.91188000E+02 0.0000E+00 0.9000E+01
      -13  1    4    4    0    0 -.19267589E+02 -.92562515E+01 0.37159070E+02 0.42868705E+02 0.10565837E+00 0.0000E+00 0.9000E+01
       13  1    4    4    0    0 -.15772168E+02 -.35275585E+02 -.52969708E+02 0.65566221E+02 0.10565837E+00 0.0000E+00 0.9000E+01
       23  1    3    3    0    0 -.14637023E+03 -.92384937E+02 0.23470865E+03 0.30555298E+03 0.91188000E+02 0.0000E+00 0.9000E+01
        2  1    1    2  502    0 0.29248928E+03 0.13419553E+03 0.12546458E+04 0.12952585E+04 0.32000000E+00 0.0000E+00 0.9000E+01
#aMCatNLO 2  0  0  2  1 0.32180494D+03 0.00000000D+00  -5  7  0 0.00000000D+00 0.00000000D+00 0.00000000D+00 0.00000000D+00 0.00000000D+00
  <mgrwgt>
 0.3055603627D-04    1    2    0
 0.283176328069656D+03 0.000000000000000D+00 0.000000000000000D+00 0.283176328069656D+03
 0.283176328069656D+03 0.000000000000000D+00 0.000000000000000D+00 -.283176328069656D+03
 0.227117081809051D+03 0.274621619776486D+01 0.549449521471539D+02 0.200600169580190D+03
 0.128772258440041D+02 -.109494276215628D+02 -.543980079248156D+01 0.404246800058617D+01
 0.197301481145763D+03 0.762668298401777D+02 0.695232468703002D+01 -.181832093729043D+03
 0.129056867340494D+03 -.680636184163798D+02 -.564574760417024D+02 -.228105438517334D+02
 0.000000000000000D+00 0.000000000000000D+00 0.000000000000000D+00 0.000000000000000D+00
 0.736677738502056D+03 0.000000000000000D+00 0.000000000000000D+00 0.736677738502056D+03
 0.388691520379292D+03 0.000000000000000D+00 0.000000000000000D+00 -.388691520379292D+03
 0.246782687470078D+03 -.111079297305352D+03 0.272124337431748D+01 0.200600169580190D+03
 0.217545214362045D+02 -.192675925020316D+02 -.925621599565254D+01 0.404246800058617D+01
 0.185892551923096D+03 -.157721632400290D+02 -.352756207220122D+02 -.181832093729043D+03
 0.196963939672619D+03 -.146370231283943D+03 -.923849374651106D+02 -.228105438517334D+02
 0.473975558379350D+03 0.292489284331355D+03 0.134195530808458D+03 0.347986218122764D+03
0.145612316493D-06 0.000000000000D+00 0.000000000000D+00 0.585530280646D-07 0.357007491036D-12  7 2 21 23 -13 13 23 2 2 0.35158988D+00 0.19276116D-01 0.13003255D+06 0.13003255D+06 0.13003255D+06 0.11124812D+01  1  2  1  4  7  2       -2 0.305560362658D-04 0.100000000000D+01
  </mgrwgt>
  </event>
  <event>
  8     66 0.55102590E-06 0.21925708E+03 0.75467711E-02 0.97070136E-01
        2 -1    0    0  501    0 0.00000000E+00 0.00000000E+00 0.69616340E+03 0.69616347E+03 0.32000000E+00 0.0000E+00 0.9000E+01
       -2 -1    0    0    0  501 0.00000000E+00 0.00000000E+00 -.22692405E+03 0.22692427E+03 0.32000000E+00 0.0000E+00 0.9000E+01
       25  2    1    2    0    0 -.11148195E+02 -.24581545E+03 0.52768698E+03 0.65512756E+03 0.30031493E+03 0.0000E+00 0.0000E+00
       23  2    1    2    0    0 0.11148195E+02 0.24581545E+03 -.58447631E+02 0.26796018E+03 0.88526924E+02 0.0000E+00 0.0000E+00
       23  1    3    3    0    0 -.37143684E+02 -.20822501E+02 0.31714110E+03 0.33272655E+03 0.91188000E+02 0.0000E+00 0.9000E+01
      -11  1    4    4    0    0 0.63012918E+01 0.98995386E+02 0.20348759E+02 0.10126137E+03 0.51099893E-03 0.0000E+00 0.9000E+01
       11  1    4    4    0    0 0.48469034E+01 0.14682006E+03 -.78796390E+02 0.16669881E+03 0.51099893E-03 0.0000E+00 0.9000E+01
       23  1    3    3    0    0 0.25995489E+02 -.22499295E+03 0.21054588E+03 0.32240101E+03 0.91188000E+02 0.0000E+00 0.9000E+01
#aMCatNLO 1  0  0  2  1 0.20844655D+03 0.00000000D+00  -5  7  0 0.00000000D+00 0.00000000D+00 0.00000000D+00 0.00000000D+00 0.00000000D+00
  <mgrwgt>
 0.2207659489D-03    9    2    0
 0.397462392653789D+03 0.000000000000000D+00 0.000000000000000D+00 0.397462392653789D+03
 0.397462392653789D+03 0.000000000000000D+00 0.000000000000000D+00 -.397462392653789D+03
 0.199164400129564D+03 -.371436838016734D+02 -.208225009393023D+02 0.171866160553039D+03
 0.105575636369595D+03 0.630129181651120D+01 0.989953864551295D+02 -.361444626033889D+02
 0.240088120507316D+03 0.484690339176215D+01 0.146820061991359D+03 -.189901770747669D+03
 0.250096628301102D+03 0.259954885934001D+02 -.224992947507186D+03 0.541800727980183D+02
 0.000000000000000D+00 0.000000000000000D+00 0.000000000000000D+00 -.000000000000000D+00
 0.458018830839070D+03 0.000000000000000D+00 0.000000000000000D+00 0.458018830839070D+03
 0.641434208716462D+03 0.000000000000000D+00 0.000000000000000D+00 -.641434208716462D+03
 0.213383759932843D+03 -.489505223779790D+02 -.726859468862928D+02 0.171866160553039D+03
 0.834670847072413D+02 0.891021918707873D+00 0.752299018514473D+02 -.361444626033889D+02
 0.210384088615388D+03 -.804529483163806D+01 0.901889984449295D+02 -.189901770747669D+03
 0.314565150344651D+03 0.983526509447199D+01 -.295979340055139D+03 0.541800727980183D+02
 0.277652955955409D+03 0.462695301964372D+02 0.203246386645055D+03 -.183415377877391D+03
0.701255972907D-05 0.000000000000D+00 0.000000000000D+00 0.142663969032D-06 0.000000000000D+00  7 2 -2 23 -11 11 23 21 0 0.10710208D+00 0.34911415D-01 0.87288795D+05 0.87288795D+05 0.87288795D+05 0.11265995D+01  1  2  2  2  7  2       -2 0.273544871253D-03 0.100000000000D+01
-.347912965996D-06 0.000000000000D+00 -.269300758090D-07 0.142663969032D-06 0.000000000000D+00  7 2 -2 23 -11 11 23 21 2 0.10710208D+00 0.34911415D-01 0.87288795D+05 0.87288795D+05 0.87288795D+05 0.11265995D+01  1  2  3  2  7  2       -2 -.172250996278D-04 0.100000000000D+01
0.440010760511D-06 0.000000000000D+00 0.000000000000D+00 0.142663969032D-06 0.000000000000D+00  7 2 -2 23 -11 11 23 21 2 0.10710208D+00 0.34911415D-01 0.87288795D+05 0.87288795D+05 0.87288795D+05 0.11265995D+01  1  2 15  2  7  2       -2 0.217848425552D-04 0.100000000000D+01
0.101673861989D-05 0.000000000000D+00 0.000000000000D+00 0.142663969032D-06 0.000000000000D+00  7 2 -2 23 -11 11 23 21 2 0.10710208D+00 0.57655083D-01 0.16425306D+06 0.16425306D+06 0.16425306D+06 0.11044543D+01  1  2 12  2  7  2       -2 0.182752270484D-04 0.100000000000D+01
-.500323471588D-05 0.000000000000D+00 0.000000000000D+00 0.142663969032D-06 0.000000000000D+00  7 2 -2 23 -11 11 23 21 2 0.10710208D+00 0.34911415D-01 0.87288795D+05 0.87288795D+05 0.87288795D+05 0.11265995D+01  1  2  4  2  7  2       -2 -.247709125171D-03 0.100000000000D+01
-.428973195987D-05 0.000000000000D+00 -.235939482616D-05 0.142663969032D-06 0.000000000000D+00  7 2 -2 23 -11 11 23 21 2 0.10710208D+00 0.63247949D-01 0.87288795D+05 0.87288795D+05 0.87288795D+05 0.11265995D+01  1  2  5  2  7  2       -2 -.673852054865D-04 0.100000000000D+01
0.512326338793D-05 0.000000000000D+00 0.199640233415D-05 0.142663969032D-06 0.000000000000D+00  7 2 -2 23 -11 11 23 21 2 0.10710208D+00 0.34911415D-01 0.87288795D+05 0.87288795D+05 0.87288795D+05 0.11265995D+01  1  2  6  2  7  2       -2 0.253651720119D-03 0.100000000000D+01
0.574776372866D-07 0.000000000000D+00 0.000000000000D+00 0.142663969032D-06 0.000000000000D+00  7 2 21 23 -11 11 23 2 2 0.10710208D+00 0.57655083D-01 0.16425306D+06 0.16425306D+06 0.16425306D+06 0.11044543D+01  1  2 12  4  7  2       -2 0.106851350125D-04 0.100000000000D+01
-.152539544351D-06 0.000000000000D+00 -.153555943669D-06 0.142663969032D-06 0.000000000000D+00  7 2 21 23 -11 11 23 2 2 0.10710208D+00 0.63247949D-01 0.87288795D+05 0.87288795D+05 0.87288795D+05 0.11265995D+01  1  2  5  4  7  2       -2 -.248564167885D-04 0.100000000000D+01
  </mgrwgt>
  </event>
  <event>
  8     66 0.55102590E-06 0.29560879E+03 0.75467711E-02 0.95590820E-01
        2 -1    0    0  501    0 0.00000000E+00 0.00000000E+00 0.95201829E+03 0.95201834E+03 0.32000000E+00 0.0000E+00 0.9000E+01
       -2 -1    0    0    0  501 0.00000000E+00 0.00000000E+00 -.13573673E+03 0.13573711E+03 0.32000000E+00 0.0000E+00 0.9000E+01
       25  2    1    2    0    0 0.23036603E+03 -.64627417E+02 0.22826801E+03 0.44647943E+03 0.29998731E+03 0.0000E+00 0.0000E+00
       23  2    1    2    0    0 -.23036603E+03 0.64627417E+02 0.58801354E+03 0.64127601E+03 0.90718165E+02 0.0000E+00 0.0000E+00
       23  1    3    3    0    0 0.50128379E+02 0.46301194E+02 -.10825459E+02 0.11440759E+03 0.91188000E+02 0.0000E+00 0.9000E+01
      -13  1    4    4    0    0 -.16009700E+03 0.14895089E+02 0.29617716E+03 0.33700717E+03 0.10565837E+00 0.0000E+00 0.9000E+01
       13  1    4    4    0    0 -.70269033E+02 0.49732328E+02 0.29183638E+03 0.30426884E+03 0.10565837E+00 0.0000E+00 0.9000E+01
       23  1    3    3    0    0 0.18023765E+03 -.11092861E+03 0.23909347E+03 0.33207184E+03 0.91188000E+02 0.0000E+00 0.9000E+01
#aMCatNLO 1  0  0  2  2 0.27757308D+03 0.00000000D+00  -5  7  0 0.00000000D+00 0.00000000D+00 0.00000000D+00 0.00000000D+00 0.00000000D+00
  <mgrwgt>
 0.1902126346D-03    5    2    0
 0.359477512905134D+03 0.000000000000000D+00 0.000000000000000D+00 0.359477512905134D+03
 0.359477512905134D+03 0.000000000000000D+00 0.000000000000000D+00 -.359477512905134D+03
 0.185385869622780D+03 0.501283789355891D+02 0.463011939730879D+02 -.146273765158866D+03
 0.173609575554049D+03 -.160097120968653D+03 0.148950424030387D+02 0.654777389149740D+02
 0.129005826113766D+03 -.702689110413484D+02 0.497323748760390D+02 0.960805609972563D+02
 0.230953754519672D+03 0.180237653074412D+03 -.110928611252166D+03 -.152845347533646D+02
 0.000000000000000D+00 0.000000000000000D+00 0.000000000000000D+00 -.000000000000000D+00
 0.522347521714480D+03 0.000000000000000D+00 0.000000000000000D+00 0.522347521714480D+03
 0.525925685645846D+03 0.000000000000000D+00 0.000000000000000D+00 -.525925685645846D+03
 0.172547137830253D+03 0.658905869157416D+01 -.422295645495090D+01 -.146273765158866D+03
 0.222092601400626D+03 -.208230719840347D+03 -.409604274666513D+02 0.654777389149740D+02
 0.141451654381996D+03 -.103167622840761D+03 0.115558609909672D+02 0.960805609972563D+02
 0.234585674066314D+03 0.123608982777553D+03 -.176641981157421D+03 -.152845347533646D+02
 0.277596139681137D+03 0.181200301211981D+03 0.210269504088056D+03 -.357816393136678D+01
0.286727268218D-05 0.000000000000D+00 0.000000000000D+00 0.554872887785D-06 0.000000000000D+00  7 2 -2 23 -13 13 23 21 0 0.14646438D+00 0.20882607D-01 0.87384554D+05 0.87384554D+05 0.87384554D+05 0.11265599D+01  1  2  2  2  7  2       -2 0.182471454803D-03 0.100000000000D+01
-.151881854769D-06 0.000000000000D+00 -.110110820698D-07 0.554872887785D-06 0.000000000000D+00  7 2 -2 23 -13 13 23 21 2 0.14646438D+00 0.20882607D-01 0.87384554D+05 0.87384554D+05 0.87384554D+05 0.11265599D+01  1  2  3  2  7  2       -2 -.122670581556D-04 0.100000000000D+01
0.179233932338D-06 0.000000000000D+00 0.000000000000D+00 0.554872887785D-06 0.000000000000D+00  7 2 -2 23 -13 13 23 21 2 0.14646438D+00 0.20882607D-01 0.87384554D+05 0.87384554D+05 0.87384554D+05 0.11265599D+01  1  2 15  2  7  2       -2 0.144762063565D-04 0.100000000000D+01
-.192683722950D-06 0.000000000000D+00 -.909394116486D-06 0.554872887785D-06 0.000000000000D+00  7 2 -2 23 -13 13 23 21 2 0.14646438D+00 0.44403433D-01 0.87384554D+05 0.87384554D+05 0.87384554D+05 0.11265599D+01  1  2  5  2  7  2       -2 -.410725910101D-05 0.100000000000D+01
0.409204069836D-07 0.000000000000D+00 -.742235773005D-07 0.554872887785D-06 0.000000000000D+00  7 2 21 23 -13 13 23 2 2 0.14646438D+00 0.44403433D-01 0.87384554D+05 0.87384554D+05 0.87384554D+05 0.11265599D+01  1  2  5  4  7  2       -2 0.963929070955D-05 0.100000000000D+01
  </mgrwgt>
  </event>
  <event>
  7     66 -.55102590E-06 0.11787819E+03 0.75467711E-02 0.10325359E+00
        2 -1    0    0  501    0 0.00000000E+00 0.00000000E+00 0.31478236E+04 0.31478236E+04 0.32000000E+00 0.0000E+00 0.9000E+01
       -2 -1    0    0    0  501 0.00000000E+00 0.00000000E+00 -.43861228E+02 0.43862395E+02 0.32000000E+00 0.0000E+00 0.9000E+01
       23  2    1    2    0    0 0.15626172E+03 0.44740369E+01 0.22580638E+03 0.28884826E+03 0.89482157E+02 0.0000E+00 0.0000E+00
       23  1    1    2    0    0 -.15240884E+02 -.10389165E+03 0.58124781E+03 0.59765377E+03 0.91188000E+02 0.0000E+00 0.9000E+01
      -11  1    3    3    0    0 0.45030283E+02 0.16387614E+02 0.13966782E+03 0.14765968E+03 0.51099893E-03 0.0000E+00 0.9000E+01
       11  1    3    3    0    0 0.11123143E+03 -.11913577E+02 0.86138557E+02 0.14118858E+03 0.51099893E-03 0.0000E+00 0.9000E+01
       23  1    1    2    0    0 -.14102083E+03 0.99417610E+02 0.22969082E+04 0.23051840E+04 0.91188000E+02 0.0000E+00 0.9000E+01
#aMCatNLO 1  0  0  2  1 0.49591401D+01 0.00000000D+00  -5  7  0 0.00000000D+00 0.00000000D+00 0.00000000D+00 0.00000000D+00 0.00000000D+00
  <mgrwgt>
 -.7787805908D-04   11    2    0
 0.371576773050983D+03 0.000000000000000D+00 0.000000000000000D+00 0.371576773050983D+03
 0.371576773050983D+03 0.000000000000000D+00 0.000000000000000D+00 -.371576773050983D+03
 0.139071984532579D+03 -.152408873558149D+02 -.103891641022616D+03 0.884085120515152D-01
 0.508100500363035D+02 0.450302836440866D+02 0.163876142580362D+02 -.168932187150517D+02
 0.246596132095379D+03 0.111231435382336D+03 -.119135772263176D+02 -.219761886652029D+03
 0.306675379437705D+03 -.141020831670608D+03 0.994176039908975D+02 0.236566696855029D+03
 0.000000000000000D+00 0.000000000000000D+00 0.000000000000000D+00 -.000000000000000D+00
 0.373688081230610D+03 0.000000000000000D+00 0.000000000000000D+00 0.373688081230610D+03
 0.374508567457167D+03 0.000000000000000D+00 0.000000000000000D+00 -.374508567457167D+03
 0.139575489598392D+03 -.159811527353402D+02 -.104454109032702D+03 0.884085120515152D-01
 0.505057606947074D+02 0.447611242436054D+02 0.161831017189226D+02 -.168932187150517D+02
 0.246058709903142D+03 0.109922629965297D+03 -.129080329970089D+02 -.219761886652029D+03
 0.307030132148003D+03 -.142651224857798D+03 0.981787995877464D+02 0.236566696855029D+03
 0.502655634353208D+01 0.394862338423595D+01 0.300024072304197D+01 -.820486226556096D+00
0.849928880776D-05 0.000000000000D+00 0.000000000000D+00 0.350093092881D-09 0.000000000000D+00  7 2 -2 23 -11 11 23 21 0 0.48428065D+00 0.67479723D-02 0.61012807D+05 0.61012807D+05 0.61012807D+05 0.11397680D+01  1  2  2  2  7  2       -2 0.184449734998D-03 0.100000000000D+01
-.376457388047D-06 0.000000000000D+00 -.326395069359D-07 0.350093092881D-09 0.000000000000D+00  7 2 -2 23 -11 11 23 21 2 0.48428065D+00 0.67479723D-02 0.61012807D+05 0.61012807D+05 0.61012807D+05 0.11397680D+01  1  2  3  2  7  2       -2 -.106131464557D-04 0.100000000000D+01
0.519034583238D-06 0.000000000000D+00 0.000000000000D+00 0.350093092881D-09 0.000000000000D+00  7 2 -2 23 -11 11 23 21 2 0.48428065D+00 0.67479723D-02 0.61012807D+05 0.61012807D+05 0.61012807D+05 0.11397680D+01  1  2 15  2  7  2       -2 0.146327053802D-04 0.100000000000D+01
0.912648684158D-06 0.000000000000D+00 0.000000000000D+00 0.350093092881D-09 0.000000000000D+00  7 2 -2 23 -11 11 23 21 2 0.48428065D+00 0.68202558D-02 0.62131192D+05 0.62131192D+05 0.62131192D+05 0.11390886D+01  1  2 12  2  7  2       -2 0.252734219224D-04 0.100000000000D+01
-.544448241966D-04 0.000000000000D+00 0.000000000000D+00 0.350093092881D-09 0.000000000000D+00  7 2 -2 23 -11 11 23 21 2 0.48428065D+00 0.67479723D-02 0.61012807D+05 0.61012807D+05 0.61012807D+05 0.11397680D+01  1  2  4  2  7  2       -2 -.153491712821D-02 0.100000000000D+01
-.535602237982D-03 0.000000000000D+00 -.679291028831D-04 0.350093092881D-09 0.000000000000D+00  7 2 -2 23 -11 11 23 21 2 0.48428065D+00 0.68606704D-02 0.61012807D+05 0.61012807D+05 0.61012807D+05 0.11397680D+01  1  2  5  2  7  2       -2 -.147298977932D-01 0.100000000000D+01
0.536663057277D-03 0.000000000000D+00 0.679197862228D-04 0.350093092881D-09 0.000000000000D+00  7 2 -2 23 -11 11 23 21 2 0.48428065D+00 0.67479723D-02 0.61012807D+05 0.61012807D+05 0.61012807D+05 0.11397680D+01  1  2  6  2  7  2       -2 0.151296901193D-01 0.100000000000D+01
0.536738954956D-04 0.000000000000D+00 0.000000000000D+00 0.350093092881D-09 0.985145598178D-10  7 2 -2 23 -11 11 23 21 2 0.48703234D+00 0.68012147D-02 0.62131192D+05 0.62131192D+05 0.62131192D+05 0.11390886D+01  1  2 11  2  7  2       -2 0.145380855947D-02 0.100000000000D+01
0.763054491046D-07 0.000000000000D+00 0.000000000000D+00 0.350093092881D-09 0.000000000000D+00  7 2 21 23 -11 11 23 2 2 0.48428065D+00 0.68202558D-02 0.62131192D+05 0.62131192D+05 0.62131192D+05 0.11390886D+01  1  2 12  4  7  2       -2 0.331685829924D-04 0.100000000000D+01
-.161594533421D-05 0.000000000000D+00 -.205814406327D-06 0.350093092881D-09 0.000000000000D+00  7 2 21 23 -11 11 23 2 2 0.48428065D+00 0.68606704D-02 0.61012807D+05 0.61012807D+05 0.61012807D+05 0.11397680D+01  1  2  5  4  7  2       -2 -.697153170332D-03 0.100000000000D+01
0.126201025053D-06 0.000000000000D+00 0.000000000000D+00 0.350093092881D-09 0.143681827588D-12  7 2 21 23 -11 11 23 2 2 0.48703234D+00 0.68012147D-02 0.62131192D+05 0.62131192D+05 0.62131192D+05 0.11390886D+01  1  2 11  4  7  2       -2 0.536800550604D-04 0.100000000000D+01
  </mgrwgt>
  </event>
  <event>
  8     66 0.55102590E-06 0.26299550E+03 0.75467711E-02 0.98661595E-01
        2 -1    0    0  501    0 0.00000000E+00 0.00000000E+00 0.24595254E+04 0.24595254E+04 0.32000000E+00 0.0000E+00 0.9000E+01
       -2 -1    0    0    0  501 0.00000000E+00 0.00000000E+00 -.36844147E+02 0.36845537E+02 0.32000000E+00 0.0000E+00 0.9000E+01
       25  2    1    2    0    0 -.54887713E+02 -.19795186E+03 0.12369862E+04 0.12894532E+04 0.30059484E+03 0.0000E+00 0.0000E+00
       23  2    1    2    0    0 0.54887713E+02 0.19795186E+03 0.11856951E+04 0.12069177E+04 0.92628075E+02 0.0000E+00 0.0000E+00
       23  1    3    3    0    0 -.87279755E+02 -.15567700E+03 0.41664877E+03 0.46234677E+03 0.91188000E+02 0.0000E+00 0.9000E+01
      -13  1    4    4    0    0 -.19269309E+02 0.64267322E+02 0.25145007E+03 0.26024747E+03 0.10565837E+00 0.0000E+00 0.9000E+01
       13  1    4    4    0    0 0.74157021E+02 0.13368454E+03 0.93424498E+03 0.94667023E+03 0.10565837E+00 0.0000E+00 0.9000E+01
       23  1    3    3    0    0 0.32392042E+02 -.42274860E+02 0.82033739E+03 0.82710646E+03 0.91188000E+02 0.0000E+00 0.9000E+01
#aMCatNLO 1  0  0  2  1 0.16946686D+03 0.00000000D+00  -5  7  0 0.00000000D+00 0.00000000D+00 0.00000000D+00 0.00000000D+00 0.00000000D+00
  <mgrwgt>
 0.2190369390D-03    7    2    0
 0.301033013608243D+03 0.000000000000000D+00 0.000000000000000D+00 0.301033013608243D+03
 0.301033013608243D+03 0.000000000000000D+00 0.000000000000000D+00 -.301033013608243D+03
 0.240475079253396D+03 -.872797555798800D+02 -.155677001154988D+03 -.132890661730738D+03
 0.672530359533317D+02 -.192694265344156D+02 0.642672316836781D+02 -.462417319002395D+01
 0.165866080949667D+03 0.741571398910042D+02 0.133684630491168D+03 0.643482321686269D+02
 0.128471831060091D+03 0.323920422232913D+02 -.422748610198581D+02 0.731666027521352D+02
 0.000000000000000D+00 -.000000000000000D+00 -.000000000000000D+00 -.000000000000000D+00
 0.391706208589665D+03 0.000000000000000D+00 0.000000000000000D+00 0.391706208589665D+03
 0.403642330486698D+03 0.000000000000000D+00 0.000000000000000D+00 -.403642330486698D+03
 0.201925397749120D+03 -.748800514823655D+02 -.958731705270304D+02 -.132890661730738D+03
 0.864781968066492D+02 -.149606115672946D+02 0.850486663432811D+02 -.462417319002395D+01
 0.213394567123321D+03 0.847871460876520D+02 0.184953199898875D+03 0.643482321686269D+02
 0.123663682941009D+03 0.394589554130585D+02 -.819110578347074D+01 0.731666027521352D+02
 0.169886694456264D+03 -.344054384510504D+02 -.165937589931655D+03 -.119361218970330D+02
0.280310165119D-05 0.000000000000D+00 0.000000000000D+00 0.640842311228D-07 0.000000000000D+00  7 2 -2 23 -13 13 23 21 0 0.37838863D+00 0.56684388D-02 0.69166634D+05 0.69166634D+05 0.69166634D+05 0.11351021D+01  1  2  2  2  7  2       -2 0.202292478938D-03 0.100000000000D+01
-.152272859653D-06 0.000000000000D+00 -.107646484142D-07 0.640842311228D-07 0.000000000000D+00  7 2 -2 23 -13 13 23 21 2 0.37838863D+00 0.56684388D-02 0.69166634D+05 0.69166634D+05 0.69166634D+05 0.11351021D+01  1  2  3  2  7  2       -2 -.141590206060D-04 0.100000000000D+01
0.174192995089D-06 0.000000000000D+00 0.000000000000D+00 0.640842311228D-07 0.000000000000D+00  7 2 -2 23 -13 13 23 21 2 0.37838863D+00 0.56684388D-02 0.69166634D+05 0.69166634D+05 0.69166634D+05 0.11351021D+01  1  2 15  2  7  2       -2 0.161972541431D-04 0.100000000000D+01
-.818721794632D-06 0.000000000000D+00 0.000000000000D+00 0.640842311228D-07 0.000000000000D+00  7 2 -2 23 -13 13 23 21 2 0.37838863D+00 0.56684388D-02 0.69166634D+05 0.69166634D+05 0.69166634D+05 0.11351021D+01  1  2  4  2  7  2       -2 -.761284629923D-04 0.100000000000D+01
-.620295158935D-06 0.000000000000D+00 -.929799769318D-06 0.640842311228D-07 0.000000000000D+00  7 2 -2 23 -13 13 23 21 2 0.37838863D+00 0.11086297D-01 0.69166634D+05 0.69166634D+05 0.69166634D+05 0.11351021D+01  1  2  5  2  7  2       -2 -.208859599201D-04 0.100000000000D+01
0.115118402246D-05 0.000000000000D+00 0.753760773938D-06 0.640842311228D-07 0.000000000000D+00  7 2 -2 23 -13 13 23 21 2 0.37838863D+00 0.56684388D-02 0.69166634D+05 0.69166634D+05 0.69166634D+05 0.11351021D+01  1  2  6  2  7  2       -2 0.107042307687D-03 0.100000000000D+01
0.963096765340D-08 0.000000000000D+00 -.675757429248D-07 0.640842311228D-07 0.000000000000D+00  7 2 21 23 -13 13 23 2 2 0.37838863D+00 0.11086297D-01 0.69166634D+05 0.69166634D+05 0.69166634D+05 0.11351021D+01  1  2  5  4  7  2       -2 0.467834178137D-05 0.100000000000D+01
  </mgrwgt>
  </event>
  <event>
  8     66 0.55102590E-06 0.22039206E+03 0.75467711E-02 0.94831406E-01
        2 -1    0    0  501    0 0.00000000E+00 0.00000000E+00 0.55164745E+02 0.55165673E+02 0.32000000E+00 0.0000E+00 0.9000E+01
       -2 -1    0    0    0  501 0.00000000E+00 0.00000000E+00 -.15550409E+04 0.15550409E+04 0.32000000E+00 0.0000E+00 0.9000E+01
       25  2    1    2    0    0 0.10419585E+03 -.37670306E+02 -.13976055E+04 0.14336610E+04 0.29967787E+03 0.0000E+00 0.0000E+00
       23  2    1    2    0    0 -.10419585E+03 0.37670306E+02 -.10227065E+03 0.17654563E+03 0.91832700E+02 0.0000E+00 0.0000E+00
       23  1    3    3    0    0 0.16673532E+03 -.29951711E+02 -.10864487E+04 0.11033512E+04 0.91188000E+02 0.0000E+00 0.9000E+01
      -11  1    4    4    0    0 -.66345508E+02 0.63415205E+02 -.42183770E+02 0.10100834E+03 0.51099893E-03 0.0000E+00 0.9000E+01
       11  1    4    4    0    0 -.37850346E+02 -.25744899E+02 -.60086878E+02 0.75537285E+02 0.51099893E-03 0.0000E+00 0.9000E+01
       23  1    3    3    0    0 -.62539468E+02 -.77185947E+01 -.31115680E+03 0.33030981E+03 0.91188000E+02 0.0000E+00 0.9000E+01
#aMCatNLO 1  0  0  1  1 0.38896858D+03 0.00000000D+00  -5  7  0 0.00000000D+00 0.00000000D+00 0.00000000D+00 0.00000000D+00 0.00000000D+00
  <mgrwgt>
 0.1929453612D-03    5    2    0
 0.292889413474070D+03 0.000000000000000D+00 0.000000000000000D+00 0.292889413474070D+03
 0.292889413474070D+03 0.000000000000000D+00 0.000000000000000D+00 -.292889413474070D+03
 0.251092793690985D+03 0.166735321875667D+03 -.299517112365338D+02 -.161352307490673D+03
 0.169644006072161D+03 -.663455075500093D+02 0.634152045377538D+02 0.142674013953411D+03
 0.537878090191857D+02 -.378503463266164D+02 -.257448986154868D+02 0.282432271052352D+02
 0.111254218165809D+03 -.625394679990408D+02 -.771859468573323D+01 -.956493356797296D+01
 0.000000000000000D+00 -.000000000000000D+00 -.000000000000000D+00 0.000000000000000D+00
 0.861686320288057D+03 0.000000000000000D+00 0.000000000000000D+00 0.861686320288057D+03
 0.425729280301421D+03 0.000000000000000D+00 0.000000000000000D+00 -.425729280301421D+03
 0.358498204670942D+03 0.286653170062180D+03 0.109549552116964D+03 -.161352307490673D+03
 0.206852285695675D+03 0.771829142392953D+01 0.149574134854400D+03 0.142674013953411D+03
 0.352185585015653D+02 -.203411440964855D+02 -.537632239140263D+01 0.282432271052352D+02
 0.102590529592341D+03 -.204722424887328D+02 0.412185001105063D+02 -.956493356797296D+01
 0.584256022128955D+03 -.253558074900891D+03 -.294965864690467D+03 0.435957039986635D+03
0.233923809301D-04 0.000000000000D+00 0.000000000000D+00 0.246611916784D-06 0.000000000000D+00  7 2 -2 23 -11 11 23 21 0 0.84869578D-02 0.23923713D+00 0.48572661D+05 0.48572661D+05 0.48572661D+05 0.11484034D+01  1  2  2  1  7  1        2 0.173192589316D-03 0.100000000000D+01
-.117178489615D-05 0.000000000000D+00 -.898329021271D-07 0.246611916784D-06 0.000000000000D+00  7 2 -2 23 -11 11 23 21 2 0.84869578D-02 0.23923713D+00 0.48572661D+05 0.48572661D+05 0.48572661D+05 0.11484034D+01  1  2  3  1  7  1        2 -.114417304265D-04 0.100000000000D+01
0.146660154630D-05 0.000000000000D+00 0.000000000000D+00 0.246611916784D-06 0.000000000000D+00  7 2 -2 23 -11 11 23 21 2 0.84869578D-02 0.23923713D+00 0.48572661D+05 0.48572661D+05 0.48572661D+05 0.11484034D+01  1  2 15  1  7  1        2 0.143204265485D-04 0.100000000000D+01
0.578623397781D-05 0.000000000000D+00 -.961177227101D-05 0.246611916784D-06 0.000000000000D+00  7 2 -2 23 -11 11 23 21 2 0.37452198D-01 0.23923713D+00 0.48572661D+05 0.48572661D+05 0.48572661D+05 0.11484034D+01  1  2  5  1  7  1        2 0.966021593426D-05 0.100000000000D+01
0.986331645667D-06 0.000000000000D+00 -.172209475091D-05 0.246611916784D-06 0.000000000000D+00  7 21 -2 23 -11 11 23 -2 2 0.37452198D-01 0.23923713D+00 0.48572661D+05 0.48572661D+05 0.48572661D+05 0.11484034D+01  1  2  5  3  7  1        2 0.721385984107D-05 0.100000000000D+01
  </mgrwgt>
  </event>
  <event>
  8     66 0.55102590E-06 0.56981692E+03 0.75467711E-02 0.84106702E-01
        2 -1    0    0  501    0 0.00000000E+00 0.00000000E+00 0.25379755E+04 0.25379755E+04 0.32000000E+00 0.0000E+00 0.9000E+01
       -2 -1    0    0    0  501 0.00000000E+00 0.00000000E+00 -.80352588E+03 0.80352594E+03 0.32000000E+00 0.0000E+00 0.9000E+01
       25  2    1    2    0    0 -.12082270E+04 0.68148936E+03 0.11757241E+04 0.18430807E+04 0.30063112E+03 0.0000E+00 0.0000E+00
       23  2    1    2    0    0 0.12082270E+04 -.68148936E+03 0.55872547E+03 0.14984207E+04 0.94075528E+02 0.0000E+00 0.0000E+00
       23  1    3    3    0    0 -.31358912E+03 0.29563907E+03 0.34757386E+03 0.56112693E+03 0.91188000E+02 0.0000E+00 0.9000E+01
      -11  1    4    4    0    0 0.78266360E+03 -.38956453E+03 0.34623567E+03 0.94032014E+03 0.51099893E-03 0.0000E+00 0.9000E+01
       11  1    4    4    0    0 0.42556341E+03 -.29192483E+03 0.21248980E+03 0.55810057E+03 0.51099893E-03 0.0000E+00 0.9000E+01
       23  1    3    3    0    0 -.89463789E+03 0.38585030E+03 0.82815026E+03 0.12819538E+04 0.91188000E+02 0.0000E+00 0.9000E+01
#aMCatNLO 1  0  0  1  2 0.35969966D+02 0.00000000D+00  -5  7  0 0.00000000D+00 0.00000000D+00 0.00000000D+00 0.00000000D+00 0.00000000D+00
  <mgrwgt>
 0.7594575358D-04    9    2    0
 0.142805080735832D+04 0.000000000000000D+00 0.000000000000000D+00 0.142805080735832D+04
 0.142805080735832D+04 0.000000000000000D+00 0.000000000000000D+00 -.142805080735832D+04
 0.445417312723606D+03 -.313589118400750D+03 0.295639068270215D+03 0.658842717412751D+02
 0.889867776585086D+03 0.782663599041786D+03 -.389564533378607D+03 -.165957298341924D+03
 0.523910278127819D+03 0.425563414176385D+03 -.291924830907672D+03 -.903197273137765D+02
 0.996906247280130D+03 -.894637894817422D+03 0.385850296016064D+03 0.190392753914425D+03
 0.000000000000000D+00 -.000000000000000D+00 0.000000000000000D+00 0.000000000000000D+00
 0.145699556260562D+04 0.000000000000000D+00 0.000000000000000D+00 0.145699556260562D+04
 0.143938301798595D+04 0.000000000000000D+00 0.000000000000000D+00 -.143938301798595D+04
 0.440050664502234D+03 -.309923759321550D+03 0.291437578445158D+03 0.658842717412751D+02
 0.900115275984716D+03 0.790073161896793D+03 -.398057890310563D+03 -.165957298341924D+03
 0.530245610115090D+03 0.429927050078802D+03 -.296926734254140D+03 -.903197273137765D+02
 0.985916559411331D+03 -.886430079556026D+03 0.376441926587161D+03 0.190392753914425D+03
 0.400504705782026D+02 -.236463730980182D+02 0.271051195323835D+02 0.176125446196736D+02
0.112861073968D-03 0.000000000000D+00 0.000000000000D+00 0.152702050758D-06 0.000000000000D+00  7 2 -2 23 -11 11 23 21 0 0.39045777D+00 0.12361937D+00 0.19731763D+07 0.19731763D+07 0.19731763D+07 0.10287632D+01  1  2  2  1  7  1        2 0.206476525314D-04 0.100000000000D+01
-.626798715534D-05 0.000000000000D+00 -.433416241040D-06 0.152702050758D-06 0.000000000000D+00  7 2 -2 23 -11 11 23 21 2 0.39045777D+00 0.12361937D+00 0.19731763D+07 0.19731763D+07 0.19731763D+07 0.10287632D+01  1  2  3  1  7  1        2 -.121362756694D-05 0.100000000000D+01
0.728319206805D-05 0.000000000000D+00 0.000000000000D+00 0.152702050758D-06 0.000000000000D+00  7 2 -2 23 -11 11 23 21 2 0.39045777D+00 0.12361937D+00 0.19731763D+07 0.19731763D+07 0.19731763D+07 0.10287632D+01  1  2 15  1  7  1        2 0.141019476429D-05 0.100000000000D+01
0.109078596002D-03 0.000000000000D+00 0.000000000000D+00 0.152702050758D-06 0.000000000000D+00  7 2 -2 23 -11 11 23 21 2 0.39989899D+00 0.12361937D+00 0.20243591D+07 0.20243591D+07 0.20243591D+07 0.10280642D+01  1  2 12  1  7  1        2 0.193345692673D-04 0.100000000000D+01
-.105131620065D-03 0.000000000000D+00 0.000000000000D+00 0.152702050758D-06 0.000000000000D+00  7 2 -2 23 -11 11 23 21 2 0.39045777D+00 0.12361937D+00 0.19731763D+07 0.19731763D+07 0.19731763D+07 0.10287632D+01  1  2  4  1  7  1        2 -.203559179536D-04 0.100000000000D+01
-.360775075564D-02 0.000000000000D+00 -.419736053568D-03 0.152702050758D-06 0.000000000000D+00  7 2 -2 23 -11 11 23 21 2 0.39950670D+00 0.12361937D+00 0.19731763D+07 0.19731763D+07 0.19731763D+07 0.10287632D+01  1  2  5  1  7  1        2 -.643929303556D-03 0.100000000000D+01
0.361652814246D-02 0.000000000000D+00 0.419625917781D-03 0.152702050758D-06 0.000000000000D+00  7 2 -2 23 -11 11 23 21 2 0.39045777D+00 0.12361937D+00 0.19731763D+07 0.19731763D+07 0.19731763D+07 0.10287632D+01  1  2  6  1  7  1        2 0.700243657417D-03 0.100000000000D+01
0.372237485789D-05 0.000000000000D+00 0.000000000000D+00 0.152702050758D-06 0.000000000000D+00  7 21 -2 23 -11 11 23 -2 2 0.39989899D+00 0.12361937D+00 0.20243591D+07 0.20243591D+07 0.20243591D+07 0.10280642D+01  1  2 12  3  7  1        2 0.628594158422D-07 0.100000000000D+01
-.148986325853D-04 0.000000000000D+00 -.174268883922D-05 0.152702050758D-06 0.000000000000D+00  7 21 -2 23 -11 11 23 -2 2 0.39950670D+00 0.12361937D+00 0.19731763D+07 0.19731763D+07 0.19731763D+07 0.10287632D+01  1  2  5  3  7  1        2 -.254330734418D-06 0.100000000000D+01
  </mgrwgt>
  </event>
  <event>
  8     66 0.55102590E-06 0.34936022E+03 0.75467711E-02 0.91424721E-01
        2 -1    0    0  501    0 0.00000000E+00 0.00000000E+00 0.75232125E+03 0.75232131E+03 0.32000000E+00 0.0000E+00 0.9000E+01
       -2 -1    0    0    0  501 0.00000000E+00 0.00000000E+00 -.16834170E+03 0.16834200E+03 0.32000000E+00 0.0000E+00 0.9000E+01
       25  2    1    2    0    0 -.28356092E+03 -.93100248E+01 0.34939226E+03 0.54048308E+03 0.29925495E+03 0.0000E+00 0.0000E+00
       23  2    1    2    0    0 0.28356092E+03 0.93100248E+01 0.23458728E+03 0.38018024E+03 0.94933380E+02 0.0000E+00 0.0000E+00
       23  1    3    3    0    0 -.15771009E+03 0.11111616E+03 0.15286892E+03 0.26249463E+03 0.91188000E+02 0.0000E+00 0.9000E+01
      -13  1    4    4    0    0 0.12970915E+03 0.30960228E+02 0.59286799E+02 0.14593812E+03 0.10565837E+00 0.0000E+00 0.9000E+01
       13  1    4    4    0    0 0.15385178E+03 -.21650203E+02 0.17530049E+03 0.23424212E+03 0.10565837E+00 0.0000E+00 0.9000E+01
       23  1    3    3    0    0 -.12585084E+03 -.12042619E+03 0.19652334E+03 0.27798844E+03 0.91188000E+02 0.0000E+00 0.9000E+01
#aMCatNLO 1  0  0  2  2 0.48655253D+03 0.00000000D+00  -5  7  0 0.00000000D+00 0.00000000D+00 0.00000000D+00 0.00000000D+00 0.00000000D+00
  <mgrwgt>
 0.1938862162D-03    5    2    0
 0.355875269403275D+03 0.000000000000000D+00 0.000000000000000D+00 0.355875269403275D+03
 0.355875269403275D+03 0.000000000000000D+00 0.000000000000000D+00 -.355875269403275D+03
 0.214115544798816D+03 -.157710086815083D+03 0.111116163402115D+03 -.176335455330833D+02
 0.140129959765232D+03 0.129709117510323D+03 0.309602887081399D+02 -.430512599305459D+02
 0.159165665959510D+03 0.153851810325532D+03 -.216502638444274D+02 0.345629245776092D+02
 0.198339368282991D+03 -.125850841020773D+03 -.120426188265828D+03 0.261218808860200D+02
 0.000000000000000D+00 -.000000000000000D+00 0.000000000000000D+00 -.000000000000000D+00
 0.601594362820060D+03 0.000000000000000D+00 0.000000000000000D+00 0.601594362820060D+03
 0.778169181372242D+03 0.000000000000000D+00 0.000000000000000D+00 -.778169181372242D+03
 0.130917956579909D+03 -.867209951722481D+02 0.315085239153897D+02 -.176335455330833D+02
 0.212960589466278D+03 0.202355910524493D+03 -.505063081210722D+02 -.430512599305459D+02
 0.273845478224795D+03 0.242941906429353D+03 -.121556490115834D+03 0.345629245776092D+02
 0.244437326070937D+03 -.347515268753304D+02 -.222585565011569D+03 0.261218808860200D+02
 0.517602193850381D+03 -.323825294906267D+03 0.363139839333086D+03 -.176574818552182D+03
0.304038046845D-05 0.000000000000D+00 0.000000000000D+00 0.228437567844D-07 0.000000000000D+00  7 2 -2 23 -13 13 23 21 0 0.11574176D+00 0.25898751D-01 0.12205257D+06 0.12205257D+06 0.12205257D+06 0.11146883D+01  1  2  2  2  7  2       -2 0.181802866041D-03 0.100000000000D+01
-.168839914693D-06 0.000000000000D+00 -.116758615494D-07 0.228437567844D-07 0.000000000000D+00  7 2 -2 23 -13 13 23 21 2 0.11574176D+00 0.25898751D-01 0.12205257D+06 0.12205257D+06 0.12205257D+06 0.11146883D+01  1  2  3  2  7  2       -2 -.125445419674D-04 0.100000000000D+01
0.198298843422D-06 0.000000000000D+00 0.000000000000D+00 0.228437567844D-07 0.000000000000D+00  7 2 -2 23 -13 13 23 21 2 0.11574176D+00 0.25898751D-01 0.12205257D+06 0.12205257D+06 0.12205257D+06 0.11146883D+01  1  2 15  2  7  2       -2 0.147332943631D-04 0.100000000000D+01
0.535248943792D-06 0.000000000000D+00 -.104128336525D-05 0.228437567844D-07 0.000000000000D+00  7 2 -2 23 -13 13 23 21 2 0.11574176D+00 0.91426614D-01 0.12205257D+06 0.12205257D+06 0.12205257D+06 0.11146883D+01  1  2  5  2  7  2       -2 0.329831105538D-05 0.100000000000D+01
0.111124157725D-06 0.000000000000D+00 -.153877363629D-06 0.228437567844D-07 0.000000000000D+00  7 2 21 23 -13 13 23 2 2 0.11574176D+00 0.91426614D-01 0.12205257D+06 0.12205257D+06 0.12205257D+06 0.11146883D+01  1  2  5  4  7  2       -2 0.659628674666D-05 0.100000000000D+01
  </mgrwgt>
  </event>
  <event>
  8     66 0.55102590E-06 0.33662704E+03 0.75467711E-02 0.92491154E-01
        2 -1    0    0  501    0 0.00000000E+00 0.00000000E+00 0.14775930E+04 0.14775930E+04 0.32000000E+00 0.0000E+00 0.9000E+01
       -2 -1    0    0    0  501 0.00000000E+00 0.00000000E+00 -.91805306E+02 0.91805864E+02 0.32000000E+00 0.0000E+00 0.9000E+01
       25  2    1    2    0    0 -.15032475E+03 -.23440588E+03 0.10299302E+04 0.11082569E+04 0.29988919E+03 0.0000E+00 0.0000E+00
       23  2    1    2    0    0 0.15032475E+03 0.23440588E+03 0.35585753E+03 0.46114202E+03 0.92052851E+02 0.0000E+00 0.0000E+00
       23  1    3    3    0    0 -.28421837E+02 -.21601573E+03 0.78056549E+03 0.81551722E+03 0.91188000E+02 0.0000E+00 0.9000E+01
      -11  1    4    4    0    0 0.24979337E+02 0.10454863E+02 0.79550897E+02 0.84033425E+02 0.51099893E-03 0.0000E+00 0.9000E+01
       11  1    4    4    0    0 0.12534542E+03 0.22395102E+03 0.27630663E+03 0.37710859E+03 0.51099893E-03 0.0000E+00 0.9000E+01
       23  1    3    3    0    0 -.12190292E+03 -.18390154E+02 0.24936466E+03 0.29273965E+03 0.91188000E+02 0.0000E+00 0.9000E+01
#aMCatNLO 1  0  0  2  2 0.42440389D+03 0.00000000D+00  -5  7  0 0.00000000D+00 0.00000000D+00 0.00000000D+00 0.00000000D+00 0.00000000D+00
  <mgrwgt>
 0.2358471150D-03    5    2    0
 0.368308759662212D+03 0.000000000000000D+00 0.000000000000000D+00 0.368308759662212D+03
 0.368308759662212D+03 0.000000000000000D+00 0.000000000000000D+00 -.368308759662212D+03
 0.269032120453902D+03 -.284218367789540D+02 -.216015729662231D+03 0.128811623017985D+03
 0.293793059861650D+02 0.249793365287772D+02 0.104548625884001D+02 0.113961491333029D+02
 0.283636309370028D+03 0.125345417555856D+03 0.223951021297119D+03 -.120764325654456D+03
 0.154569783514329D+03 -.121902917305679D+03 -.183901542232886D+02 -.194434464968313D+02
 0.000000000000000D+00 0.000000000000000D+00 -.000000000000000D+00 -.000000000000000D+00
 0.489983211835465D+03 0.000000000000000D+00 0.000000000000000D+00 0.489983211835465D+03
 0.111871225497346D+04 0.000000000000000D+00 0.000000000000000D+00 -.111871225497346D+04
 0.236468128405542D+03 -.126285333230366D+03 -.122725322545870D+03 0.128811623017985D+03
 0.276458602644111D+02 0.139394168302289D+02 0.209788949452538D+02 0.113961491333029D+02
 0.364102347113786D+03 -.550542604736393D-01 0.343491621138014D+03 -.120764325654456D+03
 0.221915439140605D+03 -.194789449675211D+03 0.510904440039508D+02 -.194434464968313D+02
 0.758563691884585D+03 0.307190420335822D+03 -.292835637541348D+03 -.628729043138000D+03
0.414717328743D-05 0.000000000000D+00 0.000000000000D+00 0.549191919195D-06 0.000000000000D+00  7 2 -2 23 -11 11 23 21 0 0.22732204D+00 0.14123939D-01 0.11331776D+06 0.11331776D+06 0.11331776D+06 0.11172933D+01  1  2  2  2  7  2       -2 0.248679176777D-03 0.100000000000D+01
-.228132177161D-06 0.000000000000D+00 -.159262373995D-07 0.549191919195D-06 0.000000000000D+00  7 2 -2 23 -11 11 23 21 2 0.22732204D+00 0.14123939D-01 0.11331776D+06 0.11331776D+06 0.11331776D+06 0.11172933D+01  1  2  3  2  7  2       -2 -.170768665305D-04 0.100000000000D+01
0.266244648921D-06 0.000000000000D+00 0.000000000000D+00 0.549191919195D-06 0.000000000000D+00  7 2 -2 23 -11 11 23 21 2 0.22732204D+00 0.14123939D-01 0.11331776D+06 0.11331776D+06 0.11331776D+06 0.11172933D+01  1  2 15  2  7  2       -2 0.199297810184D-04 0.100000000000D+01
-.952731136662D-06 0.000000000000D+00 -.153308806660D-05 0.549191919195D-06 0.000000000000D+00  7 2 -2 23 -11 11 23 21 2 0.22732204D+00 0.56635593D-01 0.11331776D+06 0.11331776D+06 0.11331776D+06 0.11172933D+01  1  2  5  2  7  2       -2 -.615297561145D-05 0.100000000000D+01
-.140673569966D-06 0.000000000000D+00 -.254169395133D-06 0.549191919195D-06 0.000000000000D+00  7 2 21 23 -11 11 23 2 2 0.22732204D+00 0.56635593D-01 0.11331776D+06 0.11331776D+06 0.11331776D+06 0.11172933D+01  1  2  5  4  7  2       -2 -.953200065454D-05 0.100000000000D+01
  </mgrwgt>
  </event>
  <event>
  8     66 0.55102590E-06 0.19080313E+03 0.75467711E-02 0.98098588E-01
        2 -1    0    0  501    0 0.00000000E+00 0.00000000E+00 0.64985007E+03 0.64985015E+03 0.32000000E+00 0.0000E+00 0.9000E+01
       -2 -1    0    0    0  501 0.00000000E+00 0.00000000E+00 -.19497366E+03 0.19497393E+03 0.32000000E+00 0.0000E+00 0.9000E+01
       25  2    1    2    0    0 -.61143035E+02 0.25331587E+03 0.12700081E+03 0.41723522E+03 0.30008103E+03 0.0000E+00 0.0000E+00
       23  2    1    2    0    0 0.61143035E+02 -.25331587E+03 0.32787560E+03 0.42758886E+03 0.86153492E+02 0.0000E+00 0.0000E+00
       23  1    3    3    0    0 -.14719408E+03 0.12752431E+03 0.10155147E+03 0.23781611E+03 0.91188000E+02 0.0000E+00 0.9000E+01
      -11  1    4    4    0    0 0.11128860E+02 0.43787615E+01 0.14165987E+02 0.18539155E+02 0.51099893E-03 0.0000E+00 0.9000E+01
       11  1    4    4    0    0 0.50014175E+02 -.25769463E+03 0.31370961E+03 0.40904970E+03 0.51099893E-03 0.0000E+00 0.9000E+01
       23  1    3    3    0    0 0.86051048E+02 0.12579156E+03 0.25449336E+02 0.17941911E+03 0.91188000E+02 0.0000E+00 0.9000E+01
#aMCatNLO 1  0  0  1  2 0.72526673D+02 0.00000000D+00  -5  7  0 0.00000000D+00 0.00000000D+00 0.00000000D+00 0.00000000D+00 0.00000000D+00
  <mgrwgt>
 0.3872914957D-03    6    2    0
 0.355954764305548D+03 0.000000000000000D+00 0.000000000000000D+00 0.355954764305548D+03
 0.355954764305548D+03 0.000000000000000D+00 0.000000000000000D+00 -.355954764305548D+03
 0.217330148529856D+03 -.147194083075471D+03 0.127524308346414D+03 -.314419274910011D+02
 0.129490487836817D+02 0.111288599715823D+02 0.437876146843131D+01 0.496515741318075D+01
 0.284974323908698D+03 0.500141751232584D+02 -.257694626531501D+03 0.110916306424033D+03
 0.196656007388861D+03 0.860510479806303D+02 0.125791556716656D+03 -.844395363462122D+02
 0.000000000000000D+00 -.000000000000000D+00 0.000000000000000D+00 -.000000000000000D+00
 0.392821215381436D+03 0.000000000000000D+00 0.000000000000000D+00 0.392821215381436D+03
 0.395343675034330D+03 0.000000000000000D+00 0.000000000000000D+00 -.395343675034330D+03
 0.201160934411284D+03 -.140010531065346D+03 0.107512448468406D+03 -.314419274910011D+02
 0.129792630699953D+02 0.115739288973683D+02 0.313889336887122D+01 0.496515741318075D+01
 0.312880038642892D+03 0.602765632192880D+02 -.286283473984962D+03 0.110916306424033D+03
 0.188574128916391D+03 0.926636637156367D+02 0.107370204810310D+03 -.844395363462122D+02
 0.725705253752029D+02 -.245036247669474D+02 0.682619273373755D+02 -.252245965289366D+01
0.652022561483D-05 0.000000000000D+00 0.000000000000D+00 0.487042848993D-07 0.000000000000D+00  7 2 -2 23 -11 11 23 21 0 0.99976960D-01 0.29995975D-01 0.11125936D+06 0.11125936D+06 0.11125936D+06 0.11179393D+01  1  2  2  1  7  1        2 0.360628278175D-03 0.100000000000D+01
-.360374307344D-06 0.000000000000D+00 -.250393831758D-07 0.487042848993D-07 0.000000000000D+00  7 2 -2 23 -11 11 23 21 2 0.99976960D-01 0.29995975D-01 0.11125936D+06 0.11125936D+06 0.11125936D+06 0.11179393D+01  1  2  3  1  7  1        2 -.249107860206D-04 0.100000000000D+01
0.410531033000D-06 0.000000000000D+00 0.000000000000D+00 0.487042848993D-07 0.000000000000D+00  7 2 -2 23 -11 11 23 21 2 0.99976960D-01 0.29995975D-01 0.11125936D+06 0.11125936D+06 0.11125936D+06 0.11179393D+01  1  2 15  1  7  1        2 0.283778574372D-04 0.100000000000D+01
0.584034166734D-05 0.000000000000D+00 0.000000000000D+00 0.487042848993D-07 0.000000000000D+00  7 2 -2 23 -11 11 23 21 2 0.11530290D+00 0.29995975D-01 0.13852537D+06 0.13852537D+06 0.13852537D+06 0.11102897D+01  1  2 12  1  7  1        2 0.334494737392D-03 0.100000000000D+01
-.462167919661D-05 0.000000000000D+00 0.000000000000D+00 0.487042848993D-07 0.000000000000D+00  7 2 -2 23 -11 11 23 21 2 0.99976960D-01 0.29995975D-01 0.11125936D+06 0.11125936D+06 0.11125936D+06 0.11179393D+01  1  2  4  1  7  1        2 -.319472446221D-03 0.100000000000D+01
0.127870801069D-06 0.000000000000D+00 0.000000000000D+00 0.487042848993D-07 0.000000000000D+00  7 21 -2 23 -11 11 23 -2 2 0.11530290D+00 0.29995975D-01 0.13852537D+06 0.13852537D+06 0.13852537D+06 0.11102897D+01  1  2 12  3  7  1        2 0.817385491727D-05 0.100000000000D+01
  </mgrwgt>
  </event>
  <event>
  8     66 0.55102590E-06 0.91520576E+02 0.75467711E-02 0.10387718E+00
        2 -1    0    0  501    0 0.00000000E+00 0.00000000E+00 0.11175348E+04 0.11175349E+04 0.32000000E+00 0.0000E+00 0.9000E+01
       -2 -1    0    0    0  501 0.00000000E+00 0.00000000E+00 -.26779557E+03 0.26779576E+03 0.32000000E+00 0.0000E+00 0.9000E+01
       25  2    1    2    0    0 -.14436273E+03 0.36452780E+01 -.14844722E+03 0.37257532E+03 0.30971261E+03 0.0000E+00 0.0000E+00
       23  2    1    2    0    0 0.14436273E+03 -.36452780E+01 0.99818648E+03 0.10127553E+04 0.91886916E+02 0.0000E+00 0.0000E+00
       23  1    3    3    0    0 0.64824888E+01 0.33352161E+02 -.16656506E+03 0.19290817E+03 0.91188000E+02 0.0000E+00 0.9000E+01
      -13  1    4    4    0    0 -.88609976E+01 -.89886492E+00 0.13234459E+02 0.15952658E+02 0.10565837E+00 0.0000E+00 0.9000E+01
       13  1    4    4    0    0 0.15322372E+03 -.27464131E+01 0.98495202E+03 0.99680266E+03 0.10565837E+00 0.0000E+00 0.9000E+01
       23  1    3    3    0    0 -.15084521E+03 -.29706883E+02 0.18117837E+02 0.17966715E+03 0.91188000E+02 0.0000E+00 0.9000E+01
#aMCatNLO 1  0  0  1  2 0.28715547D+02 0.00000000D+00  -5  7  0 0.00000000D+00 0.00000000D+00 0.00000000D+00 0.00000000D+00 0.00000000D+00
  <mgrwgt>
 0.2412395947D-03    9    2    0
 0.547056707801601D+03 0.000000000000000D+00 0.000000000000000D+00 0.547056707801601D+03
 0.547056707801601D+03 0.000000000000000D+00 0.000000000000000D+00 -.547056707801601D+03
 0.373616161645931D+03 0.648247451805341D+01 0.333521571268555D+02 -.360720662061583D+03
 0.991959495323531D+01 -.886121184041127D+01 -.898862480104197D+00 0.436684497062432D+01
 0.497160142011397D+03 0.153223939517337D+03 -.274641559946951D+01 0.472951465126111D+03
 0.213417516992639D+03 -.150845202194979D+03 -.297068790472818D+02 -.116597648035153D+03
 0.000000000000000D+00 -.000000000000000D+00 0.000000000000000D+00 0.000000000000000D+00
 0.613161048950810D+03 0.000000000000000D+00 0.000000000000000D+00 0.613161048950810D+03
 0.550372490096344D+03 0.000000000000000D+00 0.000000000000000D+00 -.550372490096344D+03
 0.373902940996116D+03 0.162893687456372D+02 0.332177417845814D+02 -.360720662061583D+03
 0.969078907697293D+01 -.860393819848450D+01 -.902388726419818D+00 0.436684497062432D+01
 0.501353389093063D+03 0.166323693824274D+03 -.292596357031652D+01 0.472951465126111D+03
 0.209543058423933D+03 -.145296274266732D+03 -.297829338133903D+02 -.116597648035153D+03
 0.690433614570689D+02 -.287128501046940D+02 0.393544325545250D+00 0.627885588544654D+02
0.137384772038D-04 0.000000000000D+00 0.000000000000D+00 0.130725619718D-07 0.000000000000D+00  7 2 -2 23 -13 13 23 21 0 0.17192845D+00 0.41199337D-01 0.48008887D+05 0.48008887D+05 0.48008887D+05 0.11488510D+01  1  2  2  1  7  1        2 0.215245408883D-03 0.100000000000D+01
0.136644090827D-07 0.000000000000D+00 -.527593698869D-07 0.130725619718D-07 0.000000000000D+00  7 2 -2 23 -13 13 23 21 2 0.17192845D+00 0.41199337D-01 0.48008887D+05 0.48008887D+05 0.48008887D+05 0.11488510D+01  1  2  3  1  7  1        2 0.282561864136D-06 0.100000000000D+01
0.831859495322D-06 0.000000000000D+00 0.000000000000D+00 0.130725619718D-07 0.000000000000D+00  7 2 -2 23 -13 13 23 21 2 0.17192845D+00 0.41199337D-01 0.48008887D+05 0.48008887D+05 0.48008887D+05 0.11488510D+01  1  2 15  1  7  1        2 0.172017515193D-04 0.100000000000D+01
0.146309875408D-03 0.000000000000D+00 0.000000000000D+00 0.130725619718D-07 0.000000000000D+00  7 2 -2 23 -13 13 23 21 2 0.19318658D+00 0.41199337D-01 0.56698893D+05 0.56698893D+05 0.56698893D+05 0.11425231D+01  1  2 12  1  7  1        2 0.248870542539D-02 0.100000000000D+01
-.147992318254D-03 0.000000000000D+00 0.000000000000D+00 0.130725619718D-07 0.000000000000D+00  7 2 -2 23 -13 13 23 21 2 0.17192845D+00 0.41199337D-01 0.48008887D+05 0.48008887D+05 0.48008887D+05 0.11488510D+01  1  2  4  1  7  1        2 -.306028493956D-02 0.100000000000D+01
-.168660415391D-03 0.000000000000D+00 -.143823636849D-04 0.130725619718D-07 0.000000000000D+00  7 2 -2 23 -13 13 23 21 2 0.19318435D+00 0.41199337D-01 0.48008887D+05 0.48008887D+05 0.48008887D+05 0.11488510D+01  1  2  5  1  7  1        2 -.291666807837D-02 0.100000000000D+01
0.169282690838D-03 0.000000000000D+00 0.142852018895D-04 0.130725619718D-07 0.000000000000D+00  7 2 -2 23 -13 13 23 21 2 0.17192845D+00 0.41199337D-01 0.48008887D+05 0.48008887D+05 0.48008887D+05 0.11488510D+01  1  2  6  1  7  1        2 0.350054161872D-02 0.100000000000D+01
0.270918481396D-05 0.000000000000D+00 0.000000000000D+00 0.130725619718D-07 0.000000000000D+00  7 21 -2 23 -13 13 23 -2 2 0.19318658D+00 0.41199337D-01 0.56698893D+05 0.56698893D+05 0.56698893D+05 0.11425231D+01  1  2 12  3  7  1        2 0.239344436337D-04 0.100000000000D+01
-.305972846350D-05 0.000000000000D+00 -.266292472180D-06 0.130725619718D-07 0.000000000000D+00  7 21 -2 23 -13 13 23 -2 2 0.19318435D+00 0.41199337D-01 0.48008887D+05 0.48008887D+05 0.48008887D+05 0.11488510D+01  1  2  5  3  7  1        2 -.277185973879D-04 0.100000000000D+01
  </mgrwgt>
  </event>
  <event>
  9     66 0.55102590E-06 0.19358606E+03 0.75467711E-02 0.10250199E+00
       21 -1    0    0  501  502 0.00000000E+00 0.00000000E+00 0.17646540E+03 0.17646699E+03 0.75000000E+00 0.0000E+00 0.9000E+01
       -2 -1    0    0    0  501 0.00000000E+00 0.00000000E+00 -.52727266E+03 0.52727276E+03 0.32000000E+00 0.0000E+00 0.9000E+01
       25  2    1    2    0    0 0.10804745E+03 -.11932725E+03 -.22688160E+03 0.40939341E+03 0.30035722E+03 0.0000E+00 0.0000E+00
       23  2    1    2    0    0 -.36669906E+01 0.60989896E+02 -.14924649E+02 0.13254446E+03 0.11667079E+03 0.0000E+00 0.0000E+00
       23  1    3    3    0    0 0.98468333E+02 -.93191709E+01 0.74839874E+01 0.13473723E+03 0.91188000E+02 0.0000E+00 0.9000E+01
      -13  1    4    4    0    0 0.17015508E+02 0.91465961E+02 -.63345425E+00 0.93037423E+02 0.10565837E+00 0.0000E+00 0.9000E+01
       13  1    4    4    0    0 -.20682499E+02 -.30476065E+02 -.14291195E+02 0.39507034E+02 0.10565837E+00 0.0000E+00 0.9000E+01
       23  1    3    3    0    0 0.95791150E+01 -.11000807E+03 -.23436559E+03 0.27465618E+03 0.91188000E+02 0.0000E+00 0.9000E+01
       -2  1    1    2    0  502 -.10438046E+03 0.58337349E+02 -.10900102E+03 0.16180189E+03 0.32000000E+00 0.0000E+00 0.9000E+01
#aMCatNLO 2  0  0  1  2 0.11957644D+03 0.00000000D+00  -5  7  0 0.00000000D+00 0.00000000D+00 0.00000000D+00 0.00000000D+00 0.00000000D+00
  <mgrwgt>
 0.1710450555D-04    1    2    0
 0.235014817644546D+03 0.000000000000000D+00 0.000000000000000D+00 0.235014817644546D+03
 0.235014817644546D+03 0.000000000000000D+00 0.000000000000000D+00 -.235014817644546D+03
 0.136175621518373D+03 0.667245976323888D+02 0.841806805682422D+01 0.755348446275069D+02
 0.114522165972548D+03 -.683634086060574D+01 0.104793791052797D+03 0.456820785370400D+02
 0.390008476077561D+02 -.289901584211773D+02 -.258207722564651D+02 0.373156119046955D+01
 0.180331000190415D+03 -.308980983506057D+02 -.873910868531558D+02 -.124948484355016D+03
 0.000000000000000D+00 -.000000000000000D+00 0.000000000000000D+00 -.000000000000000D+00
 0.285162631310611D+03 0.000000000000000D+00 0.000000000000000D+00 0.285162631310611D+03
 0.326290466362076D+03 0.000000000000000D+00 0.000000000000000D+00 -.326290466362076D+03
 0.154286073796643D+03 0.984707111977443D+02 -.932456470255326D+01 0.755348446275069D+02
 0.103645468024074D+03 0.170083677424691D+02 0.914671862976112D+02 0.456820785370400D+02
 0.370099561009912D+02 -.206825307867837D+02 -.304638346557491D+02 0.373156119046955D+01
 0.190059929125600D+03 0.958390907171985D+01 -.110016136359706D+03 -.124948484355016D+03
 0.126451670625379D+03 -.104380457225149D+03 0.583373494203967D+02 -.411278350514648D+02
0.698684126659D-07 0.000000000000D+00 0.000000000000D+00 0.372216384353D-09 0.719502588179D-14  7 21 -2 23 -13 13 23 -2 2 0.27148634D-01 0.81118946D-01 0.69479595D+05 0.69479595D+05 0.69479595D+05 0.11349352D+01  1  2  1  3  7  1        2 0.171045055538D-04 0.100000000000D+01
  </mgrwgt>
  </event>
  <event>
  8     66 0.55102590E-06 0.10530237E+03 0.75467711E-02 0.99685372E-01
        2 -1    0    0  501    0 0.00000000E+00 0.00000000E+00 0.13493803E+04 0.13493803E+04 0.32000000E+00 0.0000E+00 0.9000E+01
       -2 -1    0    0    0  501 0.00000000E+00 0.00000000E+00 -.51764947E+02 0.51765936E+02 0.32000000E+00 0.0000E+00 0.9000E+01
       25  2    1    2    0    0 -.12266472E+03 0.84842608E+02 0.65768847E+03 0.73811626E+03 0.30002766E+03 0.0000E+00 0.0000E+00
       23  2    1    2    0    0 0.12266472E+03 -.84842608E+02 0.63992689E+03 0.66303002E+03 0.88642416E+02 0.0000E+00 0.0000E+00
       23  1    3    3    0    0 0.57071353E+02 0.77942629E+02 0.24076349E+03 0.27498091E+03 0.91188000E+02 0.0000E+00 0.9000E+01
      -13  1    4    4    0    0 0.49153685E+01 -.20734893E+02 0.21627949E+02 0.30362410E+02 0.10565837E+00 0.0000E+00 0.9000E+01
       13  1    4    4    0    0 0.11774935E+03 -.64107715E+02 0.61829895E+03 0.63266761E+03 0.10565837E+00 0.0000E+00 0.9000E+01
       23  1    3    3    0    0 -.17973607E+03 0.68999790E+01 0.41692498E+03 0.46313535E+03 0.91188000E+02 0.0000E+00 0.9000E+01
#aMCatNLO 1  0  0  2  1 0.14032923D+03 0.00000000D+00  -5  7  0 0.00000000D+00 0.00000000D+00 0.00000000D+00 0.00000000D+00 0.00000000D+00
  <mgrwgt>
 0.2850248681D-03    9    2    0
 0.264294003181468D+03 0.000000000000000D+00 0.000000000000000D+00 0.264294003181468D+03
 0.264294003181468D+03 0.000000000000000D+00 0.000000000000000D+00 -.264294003181468D+03
 0.137857991057676D+03 0.570713521601775D+02 0.779426300037111D+02 -.368426593118880D+02
 0.273886656564475D+02 0.491520999128915D+01 -.207348310210646D+02 -.172060018513916D+02
 0.159189688582229D+03 0.117749508274698D+03 -.641077789840089D+02 0.858289166057174D+02
 0.204151661066583D+03 -.179736070426165D+03 0.689998000136247D+01 -.317802554424378D+02
 0.000000000000000D+00 -.000000000000000D+00 0.000000000000000D+00 -.000000000000000D+00
 0.301257370907930D+03 0.000000000000000D+00 0.000000000000000D+00 0.301257370907930D+03
 0.450485162014763D+03 0.000000000000000D+00 0.000000000000000D+00 -.450485162014763D+03
 0.151045122353937D+03 0.931076321513928D+02 0.668802282659437D+02 -.368426593118880D+02
 0.312002532807261D+02 0.122232886833817D+02 -.229782618758269D+02 -.172060018513916D+02
 0.199582210129587D+03 0.162500859142069D+03 -.778455294322607D+02 0.858289166057174D+02
 0.165070551980007D+03 -.133681201403807D+03 -.723792388965446D+01 -.317802554424378D+02
 0.204844395178436D+03 -.134150578573036D+03 0.411814869317985D+02 -.149227791106834D+03
0.185230334437D-05 0.000000000000D+00 0.000000000000D+00 0.799083464885D-07 0.000000000000D+00  7 2 -2 23 -13 13 23 21 0 0.20759705D+00 0.79639170D-02 0.59997065D+05 0.59997065D+05 0.59997065D+05 0.11403969D+01  1  2  2  2  7  2       -2 0.318427536066D-03 0.100000000000D+01
-.102182360038D-06 0.000000000000D+00 -.711333256507D-08 0.799083464885D-07 0.000000000000D+00  7 2 -2 23 -13 13 23 21 2 0.20759705D+00 0.79639170D-02 0.59997065D+05 0.59997065D+05 0.59997065D+05 0.11403969D+01  1  2  3  2  7  2       -2 -.228447553939D-04 0.100000000000D+01
0.119341669805D-06 0.000000000000D+00 0.000000000000D+00 0.799083464885D-07 0.000000000000D+00  7 2 -2 23 -13 13 23 21 2 0.20759705D+00 0.79639170D-02 0.59997065D+05 0.59997065D+05 0.59997065D+05 0.11403969D+01  1  2 15  2  7  2       -2 0.266810362764D-04 0.100000000000D+01
0.707943003763D-06 0.000000000000D+00 0.000000000000D+00 0.799083464885D-07 0.000000000000D+00  7 2 -2 23 -13 13 23 21 2 0.20759705D+00 0.13798898D-01 0.10725827D+06 0.10725827D+06 0.10725827D+06 0.11192334D+01  1  2 12  2  7  2       -2 0.648884164985D-04 0.100000000000D+01
-.145461526171D-05 0.000000000000D+00 0.000000000000D+00 0.799083464885D-07 0.000000000000D+00  7 2 -2 23 -13 13 23 21 2 0.20759705D+00 0.79639170D-02 0.59997065D+05 0.59997065D+05 0.59997065D+05 0.11403969D+01  1  2  4  2  7  2       -2 -.325206129841D-03 0.100000000000D+01
-.145578379066D-05 0.000000000000D+00 -.614189314666D-06 0.799083464885D-07 0.000000000000D+00  7 2 -2 23 -13 13 23 21 2 0.20759705D+00 0.15511093D-01 0.59997065D+05 0.59997065D+05 0.59997065D+05 0.11403969D+01  1  2  5  2  7  2       -2 -.115929693113D-03 0.100000000000D+01
0.160927402768D-05 0.000000000000D+00 0.499116716242D-06 0.799083464885D-07 0.000000000000D+00  7 2 -2 23 -13 13 23 21 2 0.20759705D+00 0.79639170D-02 0.59997065D+05 0.59997065D+05 0.59997065D+05 0.11403969D+01  1  2  6  2  7  2       -2 0.359782955788D-03 0.100000000000D+01
0.431073034343D-07 0.000000000000D+00 0.000000000000D+00 0.799083464885D-07 0.000000000000D+00  7 2 21 23 -13 13 23 2 2 0.20759705D+00 0.13798898D-01 0.10725827D+06 0.10725827D+06 0.10725827D+06 0.11192334D+01  1  2 12  4  7  2       -2 0.542865634349D-04 0.100000000000D+01
-.691839156436D-07 0.000000000000D+00 -.443756276668D-07 0.799083464885D-07 0.000000000000D+00  7 2 21 23 -13 13 23 2 2 0.20759705D+00 0.15511093D-01 0.59997065D+05 0.59997065D+05 0.59997065D+05 0.11403969D+01  1  2  5  4  7  2       -2 -.750610615954D-04 0.100000000000D+01
  </mgrwgt>
  </event>
  <event>
  8     66 0.55102590E-06 0.18512504E+03 0.75467711E-02 0.98366266E-01
        2 -1    0    0  501    0 0.00000000E+00 0.00000000E+00 0.27576946E+03 0.27576965E+03 0.32000000E+00 0.0000E+00 0.9000E+01
       -2 -1    0    0    0  501 0.00000000E+00 0.00000000E+00 -.14144978E+03 0.14145015E+03 0.32000000E+00 0.0000E+00 0.9000E+01
       25  2    1    2    0    0 0.39573485E+01 0.10808177E+02 0.75363230E+02 0.30774652E+03 0.29815403E+03 0.0000E+00 0.0000E+00
       23  2    1    2    0    0 -.39573485E+01 -.10808177E+02 0.58956445E+02 0.10947327E+03 0.91520803E+02 0.0000E+00 0.0000E+00
       23  1    3    3    0    0 0.99430004E+02 -.41866188E+02 -.10555122E+02 0.14165368E+03 0.91188000E+02 0.0000E+00 0.9000E+01
      -11  1    4    4    0    0 0.34288572E+01 -.48407322E+02 0.50882756E+02 0.70314158E+02 0.51099893E-03 0.0000E+00 0.9000E+01
       11  1    4    4    0    0 -.73862057E+01 0.37599145E+02 0.80736892E+01 0.39159114E+02 0.51099893E-03 0.0000E+00 0.9000E+01
       23  1    3    3    0    0 -.95472656E+02 0.52674365E+02 0.85918352E+02 0.16609284E+03 0.91188000E+02 0.0000E+00 0.9000E+01
#aMCatNLO 1  0  0  2  1 0.26934517D+03 0.00000000D+00  -5  7  0 0.00000000D+00 0.00000000D+00 0.00000000D+00 0.00000000D+00 0.00000000D+00
  <mgrwgt>
 0.2629393589D-03    3    2    0
 0.197503531768331D+03 0.000000000000000D+00 0.000000000000000D+00 0.197503531768331D+03
 0.197503531768331D+03 0.000000000000000D+00 0.000000000000000D+00 -.197503531768331D+03
 0.153208615570445D+03 0.994300100275279D+02 -.418661728473878D+02 -.593171578723277D+02
 0.569658462800718D+02 0.342884880175272D+01 -.484073262727819D+02 0.298342320400565D+02
 0.386157415592565D+02 -.738620824707255D+01 0.375991191144652D+02 -.478807536682782D+01
 0.146216860126890D+03 -.954726505822080D+02 0.526743800057045D+02 0.342710011990990D+02
 0.000000000000000D+00 0.000000000000000D+00 0.000000000000000D+00 0.000000000000000D+00
 0.144163123634869D+04 0.000000000000000D+00 0.000000000000000D+00 0.144163123634869D+04
 0.254130308820684D+03 0.000000000000000D+00 0.000000000000000D+00 -.254130308820684D+03
 0.169185274606310D+03 0.415392295759662D+02 -.122737007409326D+03 -.593171578723277D+02
 0.944275237049621D+02 -.237561587640562D+02 -.863835676063926D+02 0.298342320400565D+02
 0.288232214923164D+02 -.194959110759914D+02 0.206824051501208D+02 -.478807536682782D+01
 0.185661667355974D+03 -.155066543507922D+03 -.305756266120126D+02 0.342710011990990D+02
 0.121766385800981D+04 0.156779383772004D+03 0.219013796477611D+03 0.118750092752801D+04
0.106461487906D-05 0.000000000000D+00 0.000000000000D+00 0.590947389887D-08 0.000000000000D+00  7 2 -2 23 -11 11 23 21 0 0.42426113D-01 0.21761547D-01 0.34271280D+05 0.34271280D+05 0.34271280D+05 0.11620100D+01  1  2  2  2  7  2       -2 0.260230214044D-03 0.100000000000D+01
-.588440082480D-07 0.000000000000D+00 -.408840145512D-08 0.590947389887D-08 0.000000000000D+00  7 2 -2 23 -11 11 23 21 2 0.42426113D-01 0.21761547D-01 0.34271280D+05 0.34271280D+05 0.34271280D+05 0.11620100D+01  1  2  3  2  7  2       -2 -.194216965978D-04 0.100000000000D+01
0.670521965595D-07 0.000000000000D+00 0.000000000000D+00 0.590947389887D-08 0.000000000000D+00  7 2 -2 23 -11 11 23 21 2 0.42426113D-01 0.21761547D-01 0.34271280D+05 0.34271280D+05 0.34271280D+05 0.11620100D+01  1  2 15  2  7  2       -2 0.221308414665D-04 0.100000000000D+01
  </mgrwgt>
  </event>
  <event>
  8     66 0.55102590E-06 0.44019730E+03 0.75467711E-02 0.88791986E-01
        2 -1    0    0  501    0 0.00000000E+00 0.00000000E+00 0.17213993E+04 0.17213993E+04 0.32000000E+00 0.0000E+00 0.9000E+01
       -2 -1    0    0    0  501 0.00000000E+00 0.00000000E+00 -.40731759E+03 0.40731771E+03 0.32000000E+00 0.0000E+00 0.9000E+01
       25  2    1    2    0    0 -.39047414E+03 -.64382929E+03 0.30417126E+03 0.86559378E+03 0.29957675E+03 0.0000E+00 0.0000E+00
       23  2    1    2    0    0 0.39047414E+03 0.64382929E+03 0.10099104E+04 0.12631233E+04 0.92601507E+02 0.0000E+00 0.0000E+00
       23  1    3    3    0    0 -.22763198E+03 -.16918736E+03 0.79922198E+02 0.30845338E+03 0.91188000E+02 0.0000E+00 0.9000E+01
      -13  1    4    4    0    0 0.23576517E+03 0.45821469E+03 0.72623483E+03 0.89048467E+03 0.10565837E+00 0.0000E+00 0.9000E+01
       13  1    4    4    0    0 0.15470897E+03 0.18561461E+03 0.28367562E+03 0.37263858E+03 0.10565837E+00 0.0000E+00 0.9000E+01
       23  1    3    3    0    0 -.16284216E+03 -.47464193E+03 0.22424907E+03 0.55714041E+03 0.91188000E+02 0.0000E+00 0.9000E+01
#aMCatNLO 1  0  0  1  2 0.15760709D+03 0.00000000D+00  -5  7  0 0.00000000D+00 0.00000000D+00 0.00000000D+00 0.00000000D+00 0.00000000D+00
  <mgrwgt>
 0.1903596971D-03    9    2    0
 0.837350807354753D+03 0.000000000000000D+00 0.000000000000000D+00 0.837350807354753D+03
 0.837350807354753D+03 0.000000000000000D+00 0.000000000000000D+00 -.837350807354753D+03
 0.329363548287681D+03 -.227631975093850D+03 -.169187357676120D+03 -.140443645331844D+03
 0.562045598296645D+03 0.235765278955894D+03 0.458215041816777D+03 0.224385746553413D+03
 0.251070685334127D+03 0.154708861112738D+03 0.185614250146959D+03 0.681836305115060D+02
 0.532221782791053D+03 -.162842164974782D+03 -.474641934287616D+03 -.152125731733075D+03
 0.000000000000000D+00 0.000000000000000D+00 -.000000000000000D+00 0.000000000000000D+00
 0.945979949378851D+03 0.000000000000000D+00 0.000000000000000D+00 0.945979949378851D+03
 0.900233511803946D+03 0.000000000000000D+00 0.000000000000000D+00 -.900233511803946D+03
 0.331355915268865D+03 -.246634506046846D+03 -.144666838468941D+03 -.140443645331844D+03
 0.585023274383389D+03 0.202775162937531D+03 0.500784885564238D+03 0.224385746553413D+03
 0.257068861679620D+03 0.140094583793596D+03 0.204472246936412D+03 0.681836305115060D+02
 0.508653459842578D+03 -.192778113750809D+03 -.436013132221016D+03 -.152125731733075D+03
 0.164111950008346D+03 0.965428730665273D+02 -.124577161810693D+03 0.457464375749046D+02
0.365711143563D-04 0.000000000000D+00 0.000000000000D+00 0.721722157834D-06 0.000000000000D+00  7 2 -2 23 -13 13 23 21 0 0.26483067D+00 0.62664256D-01 0.61221519D+06 0.61221519D+06 0.61221519D+06 0.10623506D+01  1  2  2  1  7  1        2 0.104080517293D-03 0.100000000000D+01
-.202036517837D-05 0.000000000000D+00 -.140442708524D-06 0.721722157834D-06 0.000000000000D+00  7 2 -2 23 -13 13 23 21 2 0.26483067D+00 0.62664256D-01 0.61221519D+06 0.61221519D+06 0.61221519D+06 0.10623506D+01  1  2  3  1  7  1        2 -.648928551789D-05 0.100000000000D+01
0.231837273768D-05 0.000000000000D+00 0.000000000000D+00 0.721722157834D-06 0.000000000000D+00  7 2 -2 23 -13 13 23 21 2 0.26483067D+00 0.62664256D-01 0.61221519D+06 0.61221519D+06 0.61221519D+06 0.10623506D+01  1  2 15  1  7  1        2 0.744646700149D-05 0.100000000000D+01
0.402324070962D-04 0.000000000000D+00 0.000000000000D+00 0.721722157834D-06 0.000000000000D+00  7 2 -2 23 -13 13 23 21 2 0.30809311D+00 0.62664256D-01 0.74929981D+06 0.74929981D+06 0.74929981D+06 0.10563110D+01  1  2 12  1  7  1        2 0.883279429133D-04 0.100000000000D+01
-.375466078201D-04 0.000000000000D+00 0.000000000000D+00 0.721722157834D-06 0.000000000000D+00  7 2 -2 23 -13 13 23 21 2 0.26483067D+00 0.62664256D-01 0.61221519D+06 0.61221519D+06 0.61221519D+06 0.10623506D+01  1  2  4  1  7  1        2 -.120597336057D-03 0.100000000000D+01
-.108702723455D-03 0.000000000000D+00 -.258672059017D-04 0.721722157834D-06 0.000000000000D+00  7 2 -2 23 -13 13 23 21 2 0.30988071D+00 0.62664256D-01 0.61221519D+06 0.61221519D+06 0.61221519D+06 0.10623506D+01  1  2  5  1  7  1        2 -.240577168348D-03 0.100000000000D+01
0.111701126551D-03 0.000000000000D+00 0.255512620854D-04 0.721722157834D-06 0.000000000000D+00  7 2 -2 23 -13 13 23 21 2 0.26483067D+00 0.62664256D-01 0.61221519D+06 0.61221519D+06 0.61221519D+06 0.10623506D+01  1  2  6  1  7  1        2 0.358776972906D-03 0.100000000000D+01
0.924224492181D-06 0.000000000000D+00 0.000000000000D+00 0.721722157834D-06 0.000000000000D+00  7 21 -2 23 -13 13 23 -2 2 0.30809311D+00 0.62664256D-01 0.74929981D+06 0.74929981D+06 0.74929981D+06 0.10563110D+01  1  2 12  3  7  1        2 0.383298292011D-06 0.100000000000D+01
-.237872921753D-05 0.000000000000D+00 -.612458660240D-06 0.721722157834D-06 0.000000000000D+00  7 21 -2 23 -13 13 23 -2 2 0.30988071D+00 0.62664256D-01 0.61221519D+06 0.61221519D+06 0.61221519D+06 0.10623506D+01  1  2  5  3  7  1        2 -.991711379855D-06 0.100000000000D+01
  </mgrwgt>
  </event>
  <event>
  8     66 0.55102590E-06 0.38187121E+03 0.75467711E-02 0.86252599E-01
        2 -1    0    0  501    0 0.00000000E+00 0.00000000E+00 0.56343839E+03 0.56343848E+03 0.32000000E+00 0.0000E+00 0.9000E+01
       -2 -1    0    0    0  501 0.00000000E+00 0.00000000E+00 -.31224851E+03 0.31224868E+03 0.32000000E+00 0.0000E+00 0.9000E+01
       25  2    1    2    0    0 -.14538180E+03 0.28509126E+03 0.31038730E+03 0.53749177E+03 0.30024028E+03 0.0000E+00 0.0000E+00
       23  2    1    2    0    0 0.14538180E+03 -.28509126E+03 -.59197424E+02 0.33819539E+03 0.91972243E+02 0.0000E+00 0.0000E+00
       23  1    3    3    0    0 -.51356348E+01 -.16878252E+02 0.78729511E+02 0.12175729E+03 0.91188000E+02 0.0000E+00 0.9000E+01
      -13  1    4    4    0    0 -.48367174E+01 -.23555101E+02 0.14010786E+02 0.27830737E+02 0.10565837E+00 0.0000E+00 0.9000E+01
       13  1    4    4    0    0 0.15021852E+03 -.26153616E+03 -.73208210E+02 0.31036465E+03 0.10565837E+00 0.0000E+00 0.9000E+01
       23  1    3    3    0    0 -.14024617E+03 0.30196951E+03 0.23165779E+03 0.41573448E+03 0.91188000E+02 0.0000E+00 0.9000E+01
#aMCatNLO 1  0  0  1  2 0.10094751D+04 0.00000000D+00  -5  7  0 0.00000000D+00 0.00000000D+00 0.00000000D+00 0.00000000D+00 0.00000000D+00
  <mgrwgt>
 0.2292691163D-03    5    2    0
 0.419443572878750D+03 0.000000000000000D+00 0.000000000000000D+00 0.419443572878750D+03
 0.419443572878750D+03 0.000000000000000D+00 0.000000000000000D+00 -.419443572878750D+03
 0.103524340009567D+03 -.513563482343687D+01 -.168782520200603D+02 0.457251297879415D+02
 0.248559012017218D+02 -.483692194804059D+01 -.235547873473350D+02 0.629221770444595D+01
 0.345900947017928D+03 0.150218725846166D+03 -.261536470982650D+03 -.169353104190609D+03
 0.364605957528284D+03 -.140246169074689D+03 0.301969510350046D+03 0.117335756698222D+03
 0.000000000000000D+00 -.000000000000000D+00 -.000000000000000D+00 0.000000000000000D+00
 0.131146835804488D+04 0.000000000000000D+00 0.000000000000000D+00 0.131146835804488D+04
 0.104510189552453D+04 0.000000000000000D+00 0.000000000000000D+00 -.104510189552453D+04
 0.140748546911877D+03 0.295753764573799D+02 0.923548143146047D+02 0.457251297879415D+02
 0.101138737002903D+02 0.132259308255446D+00 -.791712984993043D+01 0.629221770444595D+01
 0.296009318738514D+03 0.241433738518077D+03 0.255106406471600D+02 -.169353104190609D+03
 0.865672179422745D+03 0.345755183767826D+02 0.852120839207420D+03 0.117335756698222D+03
 0.104402633479599D+04 -.305716892660495D+03 -.962069164319254D+03 0.266366462520355D+03
0.804962675278D-05 0.000000000000D+00 0.000000000000D+00 0.751854556036D-06 0.000000000000D+00  7 2 -2 23 -13 13 23 21 0 0.86682849D-01 0.48038252D-01 0.14582562D+06 0.14582562D+06 0.14582562D+06 0.11085205D+01  1  2  2  1  7  1        2 0.219393561200D-03 0.100000000000D+01
-.442412841844D-06 0.000000000000D+00 -.309126862461D-07 0.751854556036D-06 0.000000000000D+00  7 2 -2 23 -13 13 23 21 2 0.86682849D-01 0.48038252D-01 0.14582562D+06 0.14582562D+06 0.14582562D+06 0.11085205D+01  1  2  3  1  7  1        2 -.148171031094D-04 0.100000000000D+01
0.514234360835D-06 0.000000000000D+00 0.000000000000D+00 0.751854556036D-06 0.000000000000D+00  7 2 -2 23 -13 13 23 21 2 0.86682849D-01 0.48038252D-01 0.14582562D+06 0.14582562D+06 0.14582562D+06 0.11085205D+01  1  2 15  1  7  1        2 0.172225189376D-04 0.100000000000D+01
0.511191145462D-05 0.000000000000D+00 -.334841733946D-05 0.751854556036D-06 0.000000000000D+00  7 2 -2 23 -13 13 23 21 2 0.44259617D+00 0.48038252D-01 0.14582562D+06 0.14582562D+06 0.14582562D+06 0.11085205D+01  1  2  5  1  7  1        2 0.736474986474D-05 0.100000000000D+01
0.908417679150D-06 0.000000000000D+00 -.666130874552D-06 0.751854556036D-06 0.000000000000D+00  7 21 -2 23 -13 13 23 -2 2 0.44259617D+00 0.48038252D-01 0.14582562D+06 0.14582562D+06 0.14582562D+06 0.11085205D+01  1  2  5  3  7  1        2 0.105389405922D-06 0.100000000000D+01
  </mgrwgt>
  </event>
  <event>
  9     66 0.55102590E-06 0.20746697E+03 0.75467711E-02 0.10471600E+00
        2 -1    0    0  501    0 0.00000000E+00 0.00000000E+00 0.40044478E+03 0.40044491E+03 0.32000000E+00 0.0000E+00 0.9000E+01
       -2 -1    0    0    0  502 0.00000000E+00 0.00000000E+00 -.43371024E+03 0.43371036E+03 0.32000000E+00 0.0000E+00 0.9000E+01
       25  2    1    2    0    0 0.83810398E+02 0.36307866E+02 0.32242983E+03 0.44965178E+03 0.29980540E+03 0.0000E+00 0.0000E+00
       23  2    1    2    0    0 -.65726230E+02 -.79143820E+01 -.30398202E+03 0.32279407E+03 0.86071881E+02 0.0000E+00 0.0000E+00
       23  1    3    3    0    0 -.36140346E+02 0.10589381E+03 0.11874185E+03 0.18690774E+03 0.91188000E+02 0.0000E+00 0.9000E+01
      -11  1    4    4    0    0 -.31257690E+02 0.36468215E+02 -.18616947E+03 0.19226556E+03 0.51099893E-03 0.0000E+00 0.9000E+01
       11  1    4    4    0    0 -.34468540E+02 -.44382597E+02 -.11781255E+03 0.13052851E+03 0.51099893E-03 0.0000E+00 0.9000E+01
       23  1    3    3    0    0 0.11995074E+03 -.69585947E+02 0.20368798E+03 0.26274404E+03 0.91188000E+02 0.0000E+00 0.9000E+01
       21  1    1    2  501  502 -.18084168E+02 -.28393484E+02 -.51713275E+02 0.61709419E+02 0.75000000E+00 0.0000E+00 0.9000E+01
#aMCatNLO 2  0  0  2  1 0.33663438D+02 0.00000000D+00  -5  7  0 0.00000000D+00 0.00000000D+00 0.00000000D+00 0.00000000D+00 0.00000000D+00
  <mgrwgt>
 0.2368465517D-04    2    2    0
 0.385745719655774D+03 0.000000000000000D+00 0.000000000000000D+00 0.385745719655774D+03
 0.385745719655774D+03 0.000000000000000D+00 0.000000000000000D+00 -.385745719655774D+03
 0.181249522743971D+03 -.404205889162722D+02 0.991735141887909D+02 0.114310665408022D+03
 0.196345616843781D+03 -.358628928094736D+02 0.292377052737552D+02 -.190815646013177D+03
 0.135948497823468D+03 -.376236424163748D+02 -.493363418035269D+02 -.120964378927136D+03
 0.257947801900327D+03 0.113907124142121D+03 -.790748776590193D+02 0.197469359532291D+03
 0.000000000000000D+00 -.000000000000000D+00 -.000000000000000D+00 -.000000000000000D+00
 0.390990652513522D+03 0.000000000000000D+00 0.000000000000000D+00 0.390990652513522D+03
 0.444192566168008D+03 0.000000000000000D+00 0.000000000000000D+00 -.444192566168008D+03
 0.184124424746733D+03 -.361403458640950D+02 0.105893812940672D+03 0.114310665408022D+03
 0.196767844557715D+03 -.312576899113554D+02 0.364682150628296D+02 -.190815646013177D+03
 0.133380193934259D+03 -.344685398986253D+02 -.443825970620210D+02 -.120964378927136D+03
 0.257953065979933D+03 0.119950743618884D+03 -.695859472568359D+02 0.197469359532291D+03
 0.629576894628891D+02 -.180841679448079D+02 -.283934836846451D+02 -.532019136544856D+02
-.334197982818D-04 0.000000000000D+00 0.000000000000D+00 0.476930187424D-07 0.000000000000D+00  7 2 -2 23 -11 11 23 21 2 0.60780140D-01 0.67080105D-01 0.50221090D+05 0.50221090D+05 0.50221090D+05 0.11471269D+01  1  2 13  2  7  2       -2 -.920127204043D-03 0.100000000000D+01
0.343975366140D-04 0.000000000000D+00 0.000000000000D+00 0.476930187424D-07 0.298287466649D-09  7 2 -2 23 -11 11 23 21 2 0.61606560D-01 0.66724295D-01 0.50221090D+05 0.50221090D+05 0.50221090D+05 0.11471269D+01  1  2  1  2  7  2       -2 0.943811859211D-03 0.100000000000D+01
  </mgrwgt>
  </event>
  <event>
  8     66 0.55102590E-06 0.13711004E+03 0.75467711E-02 0.96647584E-01
        2 -1    0    0  501    0 0.00000000E+00 0.00000000E+00 0.44468295E+02 0.44469446E+02 0.32000000E+00 0.0000E+00 0.9000E+01
       -2 -1    0    0    0  501 0.00000000E+00 0.00000000E+00 -.10279729E+04 0.10279729E+04 0.32000000E+00 0.0000E+00 0.9000E+01
       25  2    1    2    0    0 0.11136697E+02 0.33967552E+02 -.87726249E+03 0.92785593E+03 0.30008223E+03 0.0000E+00 0.0000E+00
       23  2    1    2    0    0 -.11136697E+02 -.33967552E+02 -.10624207E+03 0.14458642E+03 0.91323781E+02 0.0000E+00 0.0000E+00
       23  1    3    3    0    0 -.47997076E+02 -.20650574E+02 -.11436068E+03 0.15531833E+03 0.91188000E+02 0.0000E+00 0.9000E+01
      -11  1    4    4    0    0 -.10314398E+02 0.28181945E+01 -.10724608E+03 0.10777778E+03 0.51099893E-03 0.0000E+00 0.9000E+01
       11  1    4    4    0    0 -.82229947E+00 -.36785747E+02 0.10040068E+01 0.36808632E+02 0.51099893E-03 0.0000E+00 0.9000E+01
       23  1    3    3    0    0 0.59133773E+02 0.54618126E+02 -.76290180E+03 0.77253761E+03 0.91188000E+02 0.0000E+00 0.9000E+01
#aMCatNLO 1  0  0  1  2 0.37872761D+03 0.00000000D+00  -5  7  0 0.00000000D+00 0.00000000D+00 0.00000000D+00 0.00000000D+00 0.00000000D+00
  <mgrwgt>
 0.5134402665D-03    5    2    0
 0.213805622090962D+03 0.000000000000000D+00 0.000000000000000D+00 0.213805622090962D+03
 0.213805622090962D+03 0.000000000000000D+00 0.000000000000000D+00 -.213805622090962D+03
 0.126506724899878D+03 -.479970759453431D+02 -.206505737523919D+02 0.704168630747452D+02
 0.236393482123311D+02 -.103143978492142D+02 0.281819443513938D+01 -.210829258177729D+02
 0.946246892265900D+02 -.822299583308009D+00 -.367857470659965D+02 0.871777749625474D+02
 0.182840481843125D+03 0.591337733778654D+02 0.546181263832491D+02 -.136511712219520D+03
 0.000000000000000D+00 -.000000000000000D+00 -.000000000000000D+00 0.000000000000000D+00
 0.624718245705539D+03 0.000000000000000D+00 0.000000000000000D+00 0.624718245705539D+03
 0.391350341514915D+03 0.000000000000000D+00 0.000000000000000D+00 -.391350341514915D+03
 0.124661141676550D+03 0.249982642163130D+02 0.405179106196848D+02 0.704168630747452D+02
 0.261793299404863D+02 0.416409180687566D+01 0.149508492908944D+02 -.210829258177729D+02
 0.104918077452080D+03 0.571695619117423D+02 0.118101532436917D+02 0.871777749625474D+02
 0.315455926991055D+03 0.203950530234438D+03 0.175971373165559D+03 -.136511712219520D+03
 0.444854111160284D+03 -.290282448169369D+03 -.243250286319830D+03 0.233367904190624D+03
0.108785096538D-04 0.000000000000D+00 0.000000000000D+00 0.259037406241D-06 0.000000000000D+00  7 2 -2 23 -11 11 23 21 0 0.68413685D-02 0.15814976D+00 0.18799164D+05 0.18799164D+05 0.18799164D+05 0.11866509D+01  1  2  2  1  7  1        2 0.378343120369D-03 0.100000000000D+01
-.459318012837D-06 0.000000000000D+00 -.417763414481D-07 0.259037406241D-06 0.000000000000D+00  7 2 -2 23 -11 11 23 21 2 0.68413685D-02 0.15814976D+00 0.18799164D+05 0.18799164D+05 0.18799164D+05 0.11866509D+01  1  2  3  1  7  1        2 -.224944766950D-04 0.100000000000D+01
0.669664461519D-06 0.000000000000D+00 0.000000000000D+00 0.259037406241D-06 0.000000000000D+00  7 2 -2 23 -11 11 23 21 2 0.68413685D-02 0.15814976D+00 0.18799164D+05 0.18799164D+05 0.18799164D+05 0.11866509D+01  1  2 15  1  7  1        2 0.327959087214D-04 0.100000000000D+01
0.104828535002D-04 0.000000000000D+00 -.517601386873D-05 0.259037406241D-06 0.000000000000D+00  7 2 -2 23 -11 11 23 21 2 0.37556243D-01 0.15814976D+00 0.18799164D+05 0.18799164D+05 0.18799164D+05 0.11866509D+01  1  2  5  1  7  1        2 0.680265472171D-04 0.100000000000D+01
0.194406096007D-05 0.000000000000D+00 -.107864352285D-05 0.259037406241D-06 0.000000000000D+00  7 21 -2 23 -11 11 23 -2 2 0.37556243D-01 0.15814976D+00 0.18799164D+05 0.18799164D+05 0.18799164D+05 0.11866509D+01  1  2  5  3  7  1        2 0.567691668519D-04 0.100000000000D+01
  </mgrwgt>
  </event>
  <event>
  7     66 0.55102590E-06 0.66538154E+03 0.75467711E-02 0.84284618E-01
        2 -1    0    0  501    0 0.00000000E+00 0.00000000E+00 0.22272009E+04 0.22272009E+04 0.32000000E+00 0.0000E+00 0.9000E+01
       -2 -1    0    0    0  501 0.00000000E+00 0.00000000E+00 -.88444832E+03 0.88444838E+03 0.32000000E+00 0.0000E+00 0.9000E+01
       25  2    1    2    0    0 0.10651123E+04 0.86890196E+03 0.82576808E+03 0.16314116E+04 0.30026011E+03 0.0000E+00 0.0000E+00
       23  1    3    3    0    0 0.57970666E+03 0.52397980E+03 0.33787970E+03 0.85620826E+03 0.91188000E+02 0.0000E+00 0.9000E+01
      -13  1    1    2    0    0 -.98348703E+03 -.76459216E+03 0.51440609E+03 0.13477617E+04 0.10565837E+00 0.0000E+00 0.9000E+01
       13  1    1    2    0    0 -.81625288E+02 -.10430980E+03 0.25783834E+01 0.13247597E+03 0.10565837E+00 0.0000E+00 0.9000E+01
       23  1    3    3    0    0 0.48540566E+03 0.34492216E+03 0.48788838E+03 0.77520338E+03 0.91188000E+02 0.0000E+00 0.9000E+01
#aMCatNLO 1  0  0  1  2 0.22138932D+02 0.00000000D+00  -5  7  0 0.00000000D+00 0.00000000D+00 0.00000000D+00 0.00000000D+00 0.00000000D+00
  <mgrwgt>
 0.1246172851D-02    9    2    0
 0.140351138320986D+04 0.000000000000000D+00 0.000000000000000D+00 0.140351138320986D+04
 0.140351138320986D+04 0.000000000000000D+00 0.000000000000000D+00 -.140351138320986D+04
 0.787500198034193D+03 0.579706661153679D+03 0.523979797710872D+03 -.350238370944553D+02
 0.124795659178267D+04 -.983487317713034D+03 -.764592375462650D+03 -.744771794297440D+02
 0.145618912154292D+03 -.816250028771752D+02 -.104309584742769D+03 -.605122881164788D+02
 0.625947064448561D+03 0.485405659436530D+03 0.344922162494546D+03 0.170013304640678D+03
 0.000000000000000D+00 -.000000000000000D+00 0.000000000000000D+00 0.000000000000000D+00
 0.143515523204002D+04 0.000000000000000D+00 0.000000000000000D+00 0.143515523204002D+04
 0.140743263980848D+04 0.000000000000000D+00 0.000000000000000D+00 -.140743263980848D+04
 0.784196520904137D+03 0.580721537904202D+03 0.517865579377036D+03 -.350238370944553D+02
 0.125267420054588D+04 -.981872609212218D+03 -.774320335349808D+03 -.744771794297440D+02
 0.146329609058412D+03 -.814364857396397D+02 -.105445323578020D+03 -.605122881164788D+02
 0.623909739211391D+03 0.486212717564369D+03 0.340059966568624D+03 0.170013304640678D+03
 0.354778021286861D+02 -.362516051671177D+01 0.218401129821677D+02 0.277225922315434D+02
0.141128414224D-02 0.000000000000D+00 0.000000000000D+00 0.387010816084D-08 0.000000000000D+00  7 2 -2 23 -13 13 23 21 0 0.34264629D+00 0.13606898D+00 0.19145148D+07 0.19145148D+07 0.19145148D+07 0.10295888D+01  1  2  2  1  7  1        2 0.304774094590D-03 0.100000000000D+01
-.783853301357D-04 0.000000000000D+00 -.541970270584D-05 0.387010816084D-08 0.000000000000D+00  7 2 -2 23 -13 13 23 21 2 0.34264629D+00 0.13606898D+00 0.19145148D+07 0.19145148D+07 0.19145148D+07 0.10295888D+01  1  2  3  1  7  1        2 -.179442799427D-04 0.100000000000D+01
0.895769449126D-04 0.000000000000D+00 0.000000000000D+00 0.387010816084D-08 0.000000000000D+00  7 2 -2 23 -13 13 23 21 2 0.34264629D+00 0.13606898D+00 0.19145148D+07 0.19145148D+07 0.19145148D+07 0.10295888D+01  1  2 15  1  7  1        2 0.205063086823D-04 0.100000000000D+01
0.259311379944D-02 0.000000000000D+00 0.000000000000D+00 0.387010816084D-08 0.000000000000D+00  7 2 -2 23 -13 13 23 21 2 0.35084410D+00 0.13606898D+00 0.19453856D+07 0.19453856D+07 0.19453856D+07 0.10291510D+01  1  2 12  1  7  1        2 0.551922407959D-03 0.100000000000D+01
-.264168260647D-02 0.000000000000D+00 0.000000000000D+00 0.387010816084D-08 0.000000000000D+00  7 2 -2 23 -13 13 23 21 2 0.34264629D+00 0.13606898D+00 0.19145148D+07 0.19145148D+07 0.19145148D+07 0.10295888D+01  1  2  4  1  7  1        2 -.604744435320D-03 0.100000000000D+01
-.629743470621D-01 0.000000000000D+00 -.557510614856D-02 0.387010816084D-08 0.000000000000D+00  7 2 -2 23 -13 13 23 21 2 0.35071150D+00 0.13606898D+00 0.19145148D+07 0.19145148D+07 0.19145148D+07 0.10295888D+01  1  2  5  1  7  1        2 -.134464658891D-01 0.100000000000D+01
0.630884869640D-01 0.000000000000D+00 0.557359766592D-02 0.387010816084D-08 0.000000000000D+00  7 2 -2 23 -13 13 23 21 2 0.34264629D+00 0.13606898D+00 0.19145148D+07 0.19145148D+07 0.19145148D+07 0.10295888D+01  1  2  6  1  7  1        2 0.144424660748D-01 0.100000000000D+01
0.113432712003D-03 0.000000000000D+00 0.000000000000D+00 0.387010816084D-08 0.000000000000D+00  7 21 -2 23 -13 13 23 -2 2 0.35084410D+00 0.13606898D+00 0.19453856D+07 0.19453856D+07 0.19453856D+07 0.10291510D+01  1  2 12  3  7  1        2 0.323741854651D-05 0.100000000000D+01
-.264269511056D-03 0.000000000000D+00 -.234930192768D-04 0.387010816084D-08 0.000000000000D+00  7 21 -2 23 -13 13 23 -2 2 0.35071150D+00 0.13606898D+00 0.19145148D+07 0.19145148D+07 0.19145148D+07 0.10295888D+01  1  2  5  3  7  1        2 -.757884927545D-05 0.100000000000D+01
  </mgrwgt>
  </event>
  <event>
  8     66 0.55102590E-06 0.17121898E+03 0.75467711E-02 0.97467712E-01
        2 -1    0    0  501    0 0.00000000E+00 0.00000000E+00 0.30198377E+04 0.30198377E+04 0.32000000E+00 0.0000E+00 0.9000E+01
       -2 -1    0    0    0  501 0.00000000E+00 0.00000000E+00 -.28225909E+02 0.28227723E+02 0.32000000E+00 0.0000E+00 0.9000E+01
       25  2    1    2    0    0 0.38062711E+02 -.93176090E+02 0.27453253E+04 0.27635249E+04 0.30021365E+03 0.0000E+00 0.0000E+00
       23  2    1    2    0    0 -.38062711E+02 0.93176090E+02 0.24628647E+03 0.28454054E+03 0.10087486E+03 0.0000E+00 0.0000E+00
       23  1    3    3    0    0 0.32815232E+02 -.41062295E+02 0.24054743E+04 0.24077759E+04 0.91188000E+02 0.0000E+00 0.9000E+01
      -11  1    4    4    0    0 0.26490253E+02 0.14309279E+02 0.11189479E+03 0.11587465E+03 0.51099893E-03 0.0000E+00 0.9000E+01
       11  1    4    4    0    0 -.64552964E+02 0.78866811E+02 0.13439168E+03 0.16866589E+03 0.51099893E-03 0.0000E+00 0.9000E+01
       23  1    3    3    0    0 0.52474786E+01 -.52113794E+02 0.33985101E+03 0.35574899E+03 0.91188000E+02 0.0000E+00 0.9000E+01
#aMCatNLO 1  0  0  2  1 0.31545403D+03 0.00000000D+00  -5  7  0 0.00000000D+00 0.00000000D+00 0.00000000D+00 0.00000000D+00 0.00000000D+00
  <mgrwgt>
 0.3222673851D-03    3    2    0
 0.291959678495951D+03 0.000000000000000D+00 0.000000000000000D+00 0.291959678495951D+03
 0.291959678495951D+03 0.000000000000000D+00 0.000000000000000D+00 -.291959678495951D+03
 0.244576999938814D+03 0.328152324237743D+02 -.410622953714321D+02 0.220770709050983D+03
 0.315929287006920D+02 0.264902527734507D+02 0.143092788298803D+02 -.957205261448319D+01
 0.191904814397440D+03 -.645529637855102D+02 0.788668109954521D+02 -.162605039217209D+03
 0.115844613954956D+03 0.524747858828517D+01 -.521137944539003D+02 -.485936172192904D+02
 0.000000000000000D+00 -.000000000000000D+00 -.000000000000000D+00 0.000000000000000D+00
 0.523295716838551D+03 0.000000000000000D+00 0.000000000000000D+00 0.523295716838551D+03
 0.461781497582677D+03 0.000000000000000D+00 0.000000000000000D+00 -.461781497582677D+03
 0.259864056384918D+03 0.587132277386060D+02 0.838279629387761D+02 0.220770709050983D+03
 0.463835962217283D+02 0.304935662464360D+02 0.336148215045107D+02 -.957205261448319D+01
 0.252756708961325D+03 -.417240486838005D+02 0.188956764651499D+03 -.162605039217209D+03
 0.104677081637119D+03 0.165690587167614D+02 0.248329113269498D+01 -.485936172192904D+02
 0.321395771216137D+03 -.640518040180029D+02 -.308882840227480D+03 0.615142192558732D+02
0.606781811725D-05 0.000000000000D+00 0.000000000000D+00 0.806339328687D-08 0.000000000000D+00  7 2 -2 23 -11 11 23 21 0 0.46459055D+00 0.43425884D-02 0.29315940D+05 0.29315940D+05 0.29315940D+05 0.11682665D+01  1  2  2  2  7  2       -2 0.311799726962D-03 0.100000000000D+01
-.220368720586D-06 0.000000000000D+00 -.233020192635D-07 0.806339328687D-08 0.000000000000D+00  7 2 -2 23 -11 11 23 21 2 0.46459055D+00 0.43425884D-02 0.29315940D+05 0.29315940D+05 0.29315940D+05 0.11682665D+01  1  2  3  2  7  2       -2 -.154552832278D-04 0.100000000000D+01
0.369621529277D-06 0.000000000000D+00 0.000000000000D+00 0.806339328687D-08 0.000000000000D+00  7 2 -2 23 -11 11 23 21 2 0.46459055D+00 0.43425884D-02 0.29315940D+05 0.29315940D+05 0.29315940D+05 0.11682665D+01  1  2 15  2  7  2       -2 0.259229413632D-04 0.100000000000D+01
  </mgrwgt>
  </event>
  <event>
  8     66 0.55102590E-06 0.19009725E+03 0.75467711E-02 0.87302156E-01
        2 -1    0    0  501    0 0.00000000E+00 0.00000000E+00 0.11360999E+04 0.11360999E+04 0.32000000E+00 0.0000E+00 0.9000E+01
       -2 -1    0    0    0  501 0.00000000E+00 0.00000000E+00 -.17477588E+03 0.17477617E+03 0.32000000E+00 0.0000E+00 0.9000E+01
       25  2    1    2    0    0 0.10825902E+03 0.34023212E+02 -.16498360E+02 0.32377236E+03 0.30278499E+03 0.0000E+00 0.0000E+00
       23  2    1    2    0    0 -.10825902E+03 -.34023212E+02 0.97782234E+03 0.98710371E+03 0.73209372E+02 0.0000E+00 0.0000E+00
       23  1    3    3    0    0 -.94133958E+01 -.74366963E+01 -.10981921E+03 0.14324603E+03 0.91188000E+02 0.0000E+00 0.9000E+01
      -13  1    4    4    0    0 -.78337230E+02 -.56225749E+02 0.76374586E+03 0.76980894E+03 0.10565837E+00 0.0000E+00 0.9000E+01
       13  1    4    4    0    0 -.29921793E+02 0.22202537E+02 0.21407648E+03 0.21729477E+03 0.10565837E+00 0.0000E+00 0.9000E+01
       23  1    3    3    0    0 0.11767242E+03 0.41459908E+02 0.93320847E+02 0.18052632E+03 0.91188000E+02 0.0000E+00 0.9000E+01
#aMCatNLO 1  0  0  1  2 0.99240155D+03 0.00000000D+00  -5  7  0 0.00000000D+00 0.00000000D+00 0.00000000D+00 0.00000000D+00 0.00000000D+00
  <mgrwgt>
 0.1577843687D-02    5    2    0
 0.445604161146691D+03 0.000000000000000D+00 0.000000000000000D+00 0.445604161146691D+03
 0.445604161146691D+03 0.000000000000000D+00 0.000000000000000D+00 -.445604161146691D+03
 0.329159443014893D+03 -.941339576231343D+01 -.743669629082215D+01 -.316048684715464D+03
 0.308477052968897D+03 -.783373307917136D+02 -.562259114393856D+02 0.293018773623152D+03
 0.886989601893554D+02 -.299216915524728D+02 0.222026996610352D+02 0.804937142954243D+02
 0.164872866120236D+03 0.117672418106500D+03 0.414599080691726D+02 -.574638032031118D+02
 0.000000000000000D+00 -.000000000000000D+00 -.000000000000000D+00 0.000000000000000D+00
 0.135422149648525D+04 0.000000000000000D+00 0.000000000000000D+00 0.135422149648525D+04
 0.102515007503997D+04 0.000000000000000D+00 0.000000000000000D+00 -.102515007503997D+04
 0.479519690510477D+03 0.310666071201146D+03 0.158819719611052D+03 -.316048684715464D+03
 0.355412333921606D+03 0.184433590664174D+03 0.802631674101368D+02 0.293018773623152D+03
 0.114580055323987D+03 0.505372151176176D+02 0.639948507704336D+02 0.804937142954243D+02
 0.384321909154409D+03 0.335046607252077D+03 0.154368911385669D+03 -.574638032031118D+02
 0.104553758261474D+04 -.880683484235015D+03 -.457446649177292D+03 0.329071421445285D+03
0.443733217426D-04 0.000000000000D+00 0.000000000000D+00 0.201275723108D-09 0.000000000000D+00  7 2 -2 23 -13 13 23 21 0 0.17478462D+00 0.26888622D-01 0.36136965D+05 0.36136965D+05 0.36136965D+05 0.11599098D+01  1  2  2  1  7  1        2 0.145607102875D-02 0.100000000000D+01
-.289963895677D-06 0.000000000000D+00 -.170405239256D-06 0.201275723108D-09 0.000000000000D+00  7 2 -2 23 -13 13 23 21 2 0.17478462D+00 0.26888622D-01 0.36136965D+05 0.36136965D+05 0.36136965D+05 0.11599098D+01  1  2  3  1  7  1        2 -.128012679843D-04 0.100000000000D+01
0.272228135929D-05 0.000000000000D+00 0.000000000000D+00 0.201275723108D-09 0.000000000000D+00  7 2 -2 23 -13 13 23 21 2 0.17478462D+00 0.26888622D-01 0.36136965D+05 0.36136965D+05 0.36136965D+05 0.11599098D+01  1  2 15  1  7  1        2 0.120182732156D-03 0.100000000000D+01
0.338976267064D-04 0.000000000000D+00 -.140070899075D-04 0.201275723108D-09 0.000000000000D+00  7 2 -2 23 -13 13 23 21 2 0.66957115D+00 0.26888622D-01 0.36136965D+05 0.36136965D+05 0.36136965D+05 0.11599098D+01  1  2  5  1  7  1        2 0.143567906584D-04 0.100000000000D+01
0.566229750143D-05 0.000000000000D+00 -.223194844410D-05 0.201275723108D-09 0.000000000000D+00  7 21 -2 23 -13 13 23 -2 2 0.66957115D+00 0.26888622D-01 0.36136965D+05 0.36136965D+05 0.36136965D+05 0.11599098D+01  1  2  5  3  7  1        2 0.344034958558D-07 0.100000000000D+01
  </mgrwgt>
  </event>
  <event>
  8     66 0.55102590E-06 0.33431918E+03 0.75467711E-02 0.97973658E-01
        2 -1    0    0  501    0 0.00000000E+00 0.00000000E+00 0.47819742E+04 0.47819743E+04 0.32000000E+00 0.0000E+00 0.9000E+01
       -2 -1    0    0    0  501 0.00000000E+00 0.00000000E+00 -.52909513E+02 0.52910481E+02 0.32000000E+00 0.0000E+00 0.9000E+01
       25  2    1    2    0    0 -.20663443E+03 0.17496745E+03 0.43070798E+04 0.43256433E+04 0.29485845E+03 0.0000E+00 0.0000E+00
       23  2    1    2    0    0 0.20663443E+03 -.17496745E+03 0.42198489E+03 0.50924147E+03 0.89130423E+02 0.0000E+00 0.0000E+00
       23  1    3    3    0    0 -.34006756E+02 -.29261867E+02 0.67702343E+03 0.68460842E+03 0.91188000E+02 0.0000E+00 0.9000E+01
      -13  1    4    4    0    0 0.20431508E+03 -.13599556E+03 0.35230177E+03 0.42936697E+03 0.10565837E+00 0.0000E+00 0.9000E+01
       13  1    4    4    0    0 0.23193455E+01 -.38971895E+02 0.69683119E+02 0.79874503E+02 0.10565837E+00 0.0000E+00 0.9000E+01
       23  1    3    3    0    0 -.17262767E+03 0.20422932E+03 0.36300564E+04 0.36410348E+04 0.91188000E+02 0.0000E+00 0.9000E+01
#aMCatNLO 1  0  0  1  2 0.77122610D+02 0.00000000D+00  -5  7  0 0.00000000D+00 0.00000000D+00 0.00000000D+00 0.00000000D+00 0.00000000D+00
  <mgrwgt>
 0.9084349969D-04    4    2    0
 0.503005263056516D+03 0.000000000000000D+00 0.000000000000000D+00 0.503005263056516D+03
 0.503005263056516D+03 0.000000000000000D+00 0.000000000000000D+00 -.503005263056516D+03
 0.107668046349129D+03 -.340067560585975D+02 -.292618672386898D+02 0.355589725486347D+02
 0.407433523665322D+03 0.204315363784832D+03 -.135995693733783D+03 -.325211438319256D+03
 0.563090908204191D+02 0.231906173165000D+01 -.389717588128084D+02 -.405775513892017D+02
 0.434599865278161D+03 -.172627669457884D+03 0.204229319785281D+03 0.330230017159823D+03
 0.000000000000000D+00 -.000000000000000D+00 -.000000000000000D+00 -.000000000000000D+00
 0.524941152516208D+03 0.000000000000000D+00 0.000000000000000D+00 0.524941152516208D+03
 0.577158451207484D+03 0.000000000000000D+00 0.000000000000000D+00 -.577158451207484D+03
 0.104629292515643D+03 -.291674888646355D+02 -.227344358395092D+02 0.355589725486347D+02
 0.409582233696604D+03 0.222939043067359D+03 -.110875198409880D+03 -.325211438319256D+03
 0.541801759697524D+02 0.483763820991276D+01 -.355745842972201D+02 -.405775513892017D+02
 0.440570673533133D+03 -.152678365805570D+03 0.231137879662771D+03 0.330230017159823D+03
 0.931372280085601D+02 -.459308266070664D+02 -.619536611161618D+02 -.522172986912756D+02
0.178809191233D-03 0.000000000000D+00 0.000000000000D+00 0.658999458358D-08 0.000000000000D+00  7 2 -2 23 -13 13 23 21 0 0.73568842D+00 0.81400004D-02 0.11176932D+06 0.11176932D+06 0.11176932D+06 0.11177781D+01  1  2  2  1  7  1        2 0.125624856859D-03 0.100000000000D+01
-.791829926995D-05 0.000000000000D+00 -.686674375875D-06 0.658999458358D-08 0.000000000000D+00  7 2 -2 23 -13 13 23 21 2 0.73568842D+00 0.81400004D-02 0.11176932D+06 0.11176932D+06 0.11176932D+06 0.11177781D+01  1  2  3  1  7  1        2 -.695070427933D-05 0.100000000000D+01
0.107798699480D-04 0.000000000000D+00 0.000000000000D+00 0.658999458358D-08 0.000000000000D+00  7 2 -2 23 -13 13 23 21 2 0.73568842D+00 0.81400004D-02 0.11176932D+06 0.11176932D+06 0.11176932D+06 0.11177781D+01  1  2 15  1  7  1        2 0.946259867478D-05 0.100000000000D+01
-.424847777619D-04 0.000000000000D+00 0.000000000000D+00 0.658999458358D-08 0.000000000000D+00  7 2 -2 23 -13 13 23 21 2 0.73568842D+00 0.81400004D-02 0.11176932D+06 0.11176932D+06 0.11176932D+06 0.11177781D+01  1  2  4  1  7  1        2 -.372932515593D-04 0.100000000000D+01
  </mgrwgt>
  </event>
  <event>
  7     66 0.55102590E-06 0.61142215E+03 0.75467711E-02 0.88677800E-01
        2 -1    0    0  501    0 0.00000000E+00 0.00000000E+00 0.52722701E+03 0.52722711E+03 0.32000000E+00 0.0000E+00 0.9000E+01
       -2 -1    0    0    0  501 0.00000000E+00 0.00000000E+00 -.81485523E+03 0.81485529E+03 0.32000000E+00 0.0000E+00 0.9000E+01
       23  2    1    2    0    0 -.45086619E+03 0.36586424E+03 0.61677281E+02 0.59092639E+03 0.90845698E+02 0.0000E+00 0.0000E+00
       23  1    1    2    0    0 0.10159275E+03 -.19155589E+03 -.26954897E+02 0.23676268E+03 0.91188000E+02 0.0000E+00 0.9000E+01
      -13  1    3    3    0    0 -.41178053E+03 0.29748392E+03 0.64736873E+02 0.51210425E+03 0.10565837E+00 0.0000E+00 0.9000E+01
       13  1    3    3    0    0 -.39085662E+02 0.68380316E+02 -.30595920E+01 0.78822134E+02 0.10565837E+00 0.0000E+00 0.9000E+01
       23  1    1    2    0    0 0.34927344E+03 -.17430834E+03 -.32235060E+03 0.51439333E+03 0.91188000E+02 0.0000E+00 0.9000E+01
#aMCatNLO 1  0  0  1  1 0.44641216D+03 0.00000000D+00  -5  7  0 0.00000000D+00 0.00000000D+00 0.00000000D+00 0.00000000D+00 0.00000000D+00
  <mgrwgt>
 0.3285390008D-03    3    2    0
 0.655449304518967D+03 0.000000000000000D+00 0.000000000000000D+00 0.655449304518967D+03
 0.655449304518967D+03 0.000000000000000D+00 0.000000000000000D+00 -.655449304518967D+03
 0.236480555633966D+03 0.101592789631286D+03 -.191555878488085D+03 0.243526663948761D+02
 0.538490991641709D+03 -.411781051558955D+03 0.297484244233212D+03 0.178639407996295D+03
 0.800252314514435D+02 -.390851601435927D+02 0.683800079332892D+02 0.141620069358162D+02
 0.455901830310816D+03 0.349273422071261D+03 -.174308373678416D+03 -.217154081326987D+03
 0.000000000000000D+00 -.000000000000000D+00 -.000000000000000D+00 -.000000000000000D+00
 0.759827482629804D+03 0.000000000000000D+00 0.000000000000000D+00 0.759827482629804D+03
 0.143142870764510D+04 0.000000000000000D+00 0.000000000000000D+00 -.143142870764510D+04
 0.254351195178804D+03 0.175603939947037D+03 -.157954053634034D+03 0.243526663948761D+02
 0.483053509921538D+03 -.257745206212293D+03 0.367418105205545D+03 0.178639407996295D+03
 0.820451152251431D+02 -.146470247341694D+02 0.794751732196510D+02 0.141620069358162D+02
 0.565374710025810D+03 0.503268862292155D+03 -.104392857049516D+03 -.217154081326987D+03
 0.806431659923604D+03 -.406480571292730D+03 -.184546367741646D+03 -.671601225015291D+03
0.975774111205D-04 0.000000000000D+00 0.000000000000D+00 0.145517060681D-08 0.000000000000D+00  7 2 -2 23 -13 13 23 21 0 0.81111860D-01 0.12536235D+00 0.37383705D+06 0.37383705D+06 0.37383705D+06 0.10775519D+01  1  2  2  1  7  1        2 0.325486941635D-03 0.100000000000D+01
-.538910006387D-05 0.000000000000D+00 -.374722951425D-06 0.145517060681D-08 0.000000000000D+00  7 2 -2 23 -13 13 23 21 2 0.81111860D-01 0.12536235D+00 0.37383705D+06 0.37383705D+06 0.37383705D+06 0.10775519D+01  1  2  3  1  7  1        2 -.208726159511D-04 0.100000000000D+01
0.617711113498D-05 0.000000000000D+00 0.000000000000D+00 0.145517060681D-08 0.000000000000D+00  7 2 -2 23 -13 13 23 21 2 0.81111860D-01 0.12536235D+00 0.37383705D+06 0.37383705D+06 0.37383705D+06 0.10775519D+01  1  2 15  1  7  1        2 0.239246751553D-04 0.100000000000D+01
  </mgrwgt>
  </event>
  <event>
  8     66 0.55102590E-06 0.63397567E+02 0.75467711E-02 0.10534908E+00
        2 -1    0    0  501    0 0.00000000E+00 0.00000000E+00 0.12803713E+04 0.12803713E+04 0.32000000E+00 0.0000E+00 0.9000E+01
       -2 -1    0    0    0  501 0.00000000E+00 0.00000000E+00 -.45920527E+02 0.45921642E+02 0.32000000E+00 0.0000E+00 0.9000E+01
       25  2    1    2    0    0 0.40834755E+01 0.63553902E+02 0.52490945E+03 0.60794756E+03 0.30002421E+03 0.0000E+00 0.0000E+00
       23  2    1    2    0    0 -.40834755E+01 -.63553902E+02 0.70954132E+03 0.71834542E+03 0.92279398E+02 0.0000E+00 0.0000E+00
       23  1    3    3    0    0 -.30885927E+02 -.31696332E+02 0.48453389E+02 0.11234581E+03 0.91188000E+02 0.0000E+00 0.9000E+01
      -11  1    4    4    0    0 -.44521360E+02 -.11550368E+02 0.26837611E+03 0.27228900E+03 0.51099893E-03 0.0000E+00 0.9000E+01
       11  1    4    4    0    0 0.40437885E+02 -.52003534E+02 0.44116521E+03 0.44605643E+03 0.51099893E-03 0.0000E+00 0.9000E+01
       23  1    3    3    0    0 0.34969402E+02 0.95250234E+02 0.47645606E+03 0.49560175E+03 0.91188000E+02 0.0000E+00 0.9000E+01
#aMCatNLO 1  0  0  2  1 0.69968438D+02 0.00000000D+00  -5  7  0 0.00000000D+00 0.00000000D+00 0.00000000D+00 0.00000000D+00 0.00000000D+00
  <mgrwgt>
 0.2213722612D-03    9    2    0
 0.242479052959938D+03 0.000000000000000D+00 0.000000000000000D+00 0.242479052959938D+03
 0.242479052959938D+03 0.000000000000000D+00 0.000000000000000D+00 -.242479052959938D+03
 0.183913064125408D+03 -.308859267025657D+02 -.316963319163817D+02 -.153460633019569D+03
 0.615267413716499D+02 -.445213602186702D+02 -.115503679571948D+02 0.408653568214779D+02
 0.969254228425300D+02 0.404378847011829D+02 -.520035344417216D+02 0.710981538414729D+02
 0.142592877580289D+03 0.349694022200530D+02 0.952502343152980D+02 0.414971223566182D+02
 0.000000000000000D+00 0.000000000000000D+00 -.000000000000000D+00 -.000000000000000D+00
 0.279804041964925D+03 0.000000000000000D+00 0.000000000000000D+00 0.279804041964925D+03
 0.280144762357511D+03 0.000000000000000D+00 0.000000000000000D+00 -.280144762357511D+03
 0.190055141453008D+03 -.576952706828608D+02 -.304433129404081D+02 -.153460633019569D+03
 0.685024258362983D+02 -.538429993825061D+02 -.111146918448643D+02 0.408653568214779D+02
 0.917508268744853D+02 0.269119046736780D+02 -.513713552412324D+02 0.710981538414729D+02
 0.139671142923638D+03 0.147342241860100D+02 0.961959889774597D+02 0.414971223566182D+02
 0.699692672350061D+02 0.698921412056789D+02 -.326662895095492D+01 -.340720392586265D+00
0.732802668526D-06 0.000000000000D+00 0.000000000000D+00 0.122540157155D-06 0.000000000000D+00  7 2 -2 23 -11 11 23 21 0 0.19698029D+00 0.70647853D-02 0.30564115D+05 0.30564115D+05 0.30564115D+05 0.11665860D+01  1  2  2  2  7  2       -2 0.164144380074D-03 0.100000000000D+01
-.354143581179D-07 0.000000000000D+00 -.281415519851D-08 0.122540157155D-06 0.000000000000D+00  7 2 -2 23 -11 11 23 21 2 0.19698029D+00 0.70647853D-02 0.30564115D+05 0.30564115D+05 0.30564115D+05 0.11665860D+01  1  2  3  2  7  2       -2 -.107957265488D-04 0.100000000000D+01
0.452654578154D-07 0.000000000000D+00 0.000000000000D+00 0.122540157155D-06 0.000000000000D+00  7 2 -2 23 -11 11 23 21 2 0.19698029D+00 0.70647853D-02 0.30564115D+05 0.30564115D+05 0.30564115D+05 0.11665860D+01  1  2 15  2  7  2       -2 0.137987395693D-04 0.100000000000D+01
0.370816284960D-06 0.000000000000D+00 0.000000000000D+00 0.122540157155D-06 0.000000000000D+00  7 2 -2 23 -11 11 23 21 2 0.19698029D+00 0.86272360D-02 0.45886803D+05 0.45886803D+05 0.45886803D+05 0.11505892D+01  1  2 12  2  7  2       -2 0.815914237713D-04 0.100000000000D+01
-.374998584337D-06 0.000000000000D+00 0.000000000000D+00 0.122540157155D-06 0.000000000000D+00  7 2 -2 23 -11 11 23 21 2 0.19698029D+00 0.70647853D-02 0.30564115D+05 0.30564115D+05 0.30564115D+05 0.11665860D+01  1  2  4  2  7  2       -2 -.114314712671D-03 0.100000000000D+01
-.788157019292D-06 0.000000000000D+00 -.389335907544D-06 0.122540157155D-06 0.000000000000D+00  7 2 -2 23 -11 11 23 21 2 0.19698029D+00 0.95223272D-02 0.30564115D+05 0.30564115D+05 0.30564115D+05 0.11665860D+01  1  2  5  2  7  2       -2 -.153574623550D-03 0.100000000000D+01
0.881535645081D-06 0.000000000000D+00 0.372610199623D-06 0.122540157155D-06 0.000000000000D+00  7 2 -2 23 -11 11 23 21 2 0.19698029D+00 0.70647853D-02 0.30564115D+05 0.30564115D+05 0.30564115D+05 0.11665860D+01  1  2  6  2  7  2       -2 0.268727665080D-03 0.100000000000D+01
0.106035045105D-07 0.000000000000D+00 0.000000000000D+00 0.122540157155D-06 0.000000000000D+00  7 2 21 23 -11 11 23 2 2 0.19698029D+00 0.86272360D-02 0.45886803D+05 0.45886803D+05 0.45886803D+05 0.11505892D+01  1  2 12  4  7  2       -2 0.354347464948D-04 0.100000000000D+01
-.216948695286D-07 0.000000000000D+00 -.149960649773D-07 0.122540157155D-06 0.000000000000D+00  7 2 21 23 -11 11 23 2 2 0.19698029D+00 0.95223272D-02 0.30564115D+05 0.30564115D+05 0.30564115D+05 0.11665860D+01  1  2  5  4  7  2       -2 -.636396310463D-04 0.100000000000D+01
  </mgrwgt>
  </event>
  <event>
  9     66 -.55102590E-06 0.18209220E+03 0.75467711E-02 0.10679929E+00
        2 -1    0    0  502    0 0.00000000E+00 0.00000000E+00 0.15252282E+04 0.15252282E+04 0.32000000E+00 0.0000E+00 0.9000E+01
       -2 -1    0    0    0  501 0.00000000E+00 0.00000000E+00 -.39760955E+02 0.39762242E+02 0.32000000E+00 0.0000E+00 0.9000E+01
       25  2    1    2    0    0 -.13323288E+02 0.72083067E+02 0.11964009E+04 0.12366591E+04 0.30426474E+03 0.0000E+00 0.0000E+00
       23  2    1    2    0    0 0.24962611E+02 -.91671166E+02 0.23107870E+03 0.26602333E+03 0.91347216E+02 0.0000E+00 0.0000E+00
       23  1    3    3    0    0 -.72912117E+02 0.11863846E+02 0.98011208E+03 0.98711289E+03 0.91188000E+02 0.0000E+00 0.9000E+01
      -11  1    4    4    0    0 -.35312338E+01 -.93887255E+02 0.12627923E+03 0.15739673E+03 0.51099893E-03 0.0000E+00 0.9000E+01
       11  1    4    4    0    0 0.28493845E+02 0.22160891E+01 0.10479947E+03 0.10862661E+03 0.51099893E-03 0.0000E+00 0.9000E+01
       23  1    3    3    0    0 0.59588828E+02 0.60219221E+02 0.21628884E+03 0.24954618E+03 0.91188000E+02 0.0000E+00 0.9000E+01
       21  1    1    2  502  501 -.11639323E+02 0.19588100E+02 0.57987599E+02 0.62308039E+02 0.75000000E+00 0.0000E+00 0.9000E+01
#aMCatNLO 2  0  0  1  2 0.22785247D+02 0.00000000D+00  -5  7  0 0.00000000D+00 0.00000000D+00 0.00000000D+00 0.00000000D+00 0.00000000D+00
  <mgrwgt>
 -.1974567880D-03    3    2    0
 0.234433996772883D+03 0.000000000000000D+00 0.000000000000000D+00 0.234433996772883D+03
 0.234433996772883D+03 0.000000000000000D+00 0.000000000000000D+00 -.234433996772883D+03
 0.181945035564609D+03 -.773948841666741D+02 0.194080069872667D+02 0.135728058234899D+03
 0.116148467655410D+03 -.645865288445184D+01 -.889606316308202D+02 -.743959566203940D+02
 0.284599083188259D+02 0.277805634775267D+02 0.341648786530023D+01 0.515114405286235D+01
 0.142314582006922D+03 0.560729735735992D+02 0.661361367782532D+02 -.664832456673673D+02
 0.000000000000000D+00 -.000000000000000D+00 0.000000000000000D+00 -.000000000000000D+00
 0.244340481410841D+03 0.000000000000000D+00 0.000000000000000D+00 0.244340481410841D+03
 0.248188762246235D+03 0.000000000000000D+00 0.000000000000000D+00 -.248188762246235D+03
 0.179427658506259D+03 -.729121158007867D+02 0.118638471953762D+02 0.135728058234899D+03
 0.119841749870439D+03 -.353123335569160D+01 -.938872570774812D+02 -.743959566203940D+02
 0.290403951259449D+02 0.284938452100436D+02 0.221608870845504D+01 0.515114405286235D+01
 0.141111502865115D+03 0.595888271734357D+02 0.602192213373615D+02 -.664832456673673D+02
 0.231079372893182D+02 -.116393232270010D+02 0.195880998362885D+02 -.384828083539327D+01
-.196397624598D-05 0.000000000000D+00 0.000000000000D+00 0.671420799951D-08 0.000000000000D+00  7 2 -2 23 -11 11 23 21 2 0.24092963D+00 0.57780114D-02 0.37469793D+05 0.37469793D+05 0.37469793D+05 0.11584815D+01  1  2 13  1  7  1        2 -.560534340864D-03 0.100000000000D+01
-.591575470372D-08 0.000000000000D+00 0.000000000000D+00 0.671420799951D-08 0.000000000000D+00  7 2 -2 23 -11 11 23 21 2 0.22513140D+00 0.57780114D-02 0.33157568D+05 0.33157568D+05 0.33157568D+05 0.11633248D+01  1  2  8  1  7  1        2 -.192820521880D-05 0.100000000000D+01
0.132426324171D-05 0.000000000000D+00 0.000000000000D+00 0.671420799951D-08 0.927086769779D-10  7 2 -2 23 -11 11 23 21 2 0.23464478D+00 0.61170203D-02 0.37469793D+05 0.37469793D+05 0.37469793D+05 0.11584815D+01  1  2  1  1  7  1        2 0.365005758074D-03 0.100000000000D+01
  </mgrwgt>
  </event>
  <event>
  8     66 0.55102590E-06 0.48840824E+03 0.75467711E-02 0.92618041E-01
        2 -1    0    0  501    0 0.00000000E+00 0.00000000E+00 0.21357448E+04 0.21357448E+04 0.32000000E+00 0.0000E+00 0.9000E+01
       -2 -1    0    0    0  501 0.00000000E+00 0.00000000E+00 -.11379978E+03 0.11380023E+03 0.32000000E+00 0.0000E+00 0.9000E+01
       25  2    1    2    0    0 -.43534969E+03 -.73977461E+02 0.10407625E+04 0.11698705E+04 0.30068006E+03 0.0000E+00 0.0000E+00
       23  2    1    2    0    0 0.43534969E+03 0.73977461E+02 0.98118255E+03 0.10796745E+04 0.89307790E+02 0.0000E+00 0.0000E+00
       23  1    3    3    0    0 -.63359187E+02 -.10114760E+03 0.30123183E+03 0.33660227E+03 0.91188000E+02 0.0000E+00 0.9000E+01
      -13  1    4    4    0    0 0.95295602E+02 0.29137957E+02 0.14563123E+03 0.17646172E+03 0.10565837E+00 0.0000E+00 0.9000E+01
       13  1    4    4    0    0 0.34005408E+03 0.44839504E+02 0.83555132E+03 0.90321281E+03 0.10565837E+00 0.0000E+00 0.9000E+01
       23  1    3    3    0    0 -.37199050E+03 0.27170143E+02 0.73953064E+03 0.83326825E+03 0.91188000E+02 0.0000E+00 0.9000E+01
#aMCatNLO 1  0  0  1  1 0.20199202D+03 0.00000000D+00  -5  7  0 0.00000000D+00 0.00000000D+00 0.00000000D+00 0.00000000D+00 0.00000000D+00
  <mgrwgt>
 0.2336634161D-03    4    2    0
 0.492998798499938D+03 0.000000000000000D+00 0.000000000000000D+00 0.492998798499938D+03
 0.492998798499938D+03 0.000000000000000D+00 0.000000000000000D+00 -.492998798499938D+03
 0.150231381131467D+03 -.633591875410823D+02 -.101147603167729D+03 -.299870976014904D+01
 0.103955539966750D+03 0.952952594567418D+02 0.291379347150647D+02 -.296065630459094D+02
 0.347241627567008D+03 0.340054426522685D+03 0.448395259726652D+02 0.541216391867364D+02
 0.384569048334651D+03 -.371990498438345D+03 0.271701424799992D+02 -.215163663806780D+02
 0.000000000000000D+00 0.000000000000000D+00 0.000000000000000D+00 -.000000000000000D+00
 0.582027340678575D+03 0.000000000000000D+00 0.000000000000000D+00 0.582027340678575D+03
 0.632698353278775D+03 0.000000000000000D+00 0.000000000000000D+00 -.632698353278775D+03
 0.177653139366630D+03 -.777912371416606D+02 -.131091257323147D+03 -.299870976014904D+01
 0.922612020103508D+02 0.866586524330998D+02 0.112186799349374D+02 -.296065630459094D+02
 0.315932073856577D+03 0.310864406395462D+03 -.157240039256966D+02 0.541216391867364D+02
 0.420628640614572D+03 -.407431796391456D+03 -.463635549571678D+02 -.215163663806780D+02
 0.208250638109220D+03 0.876999747045548D+02 0.181960136271074D+03 -.506710126002009D+02
0.187450434382D-04 0.000000000000D+00 0.000000000000D+00 0.203050639382D-06 0.000000000000D+00  7 2 -2 23 -13 13 23 21 0 0.32857616D+00 0.17507695D-01 0.23854261D+06 0.23854261D+06 0.23854261D+06 0.10919952D+01  1  2  2  1  7  1        2 0.342656280097D-03 0.100000000000D+01
-.104128048828D-05 0.000000000000D+00 -.719859024860D-07 0.203050639382D-06 0.000000000000D+00  7 2 -2 23 -13 13 23 21 2 0.32857616D+00 0.17507695D-01 0.23854261D+06 0.23854261D+06 0.23854261D+06 0.10919952D+01  1  2  3  1  7  1        2 -.226976763814D-04 0.100000000000D+01
0.118024141454D-05 0.000000000000D+00 0.000000000000D+00 0.203050639382D-06 0.000000000000D+00  7 2 -2 23 -13 13 23 21 2 0.32857616D+00 0.17507695D-01 0.23854261D+06 0.23854261D+06 0.23854261D+06 0.10919952D+01  1  2 15  1  7  1        2 0.257267258734D-04 0.100000000000D+01
-.513912661566D-05 0.000000000000D+00 0.000000000000D+00 0.203050639382D-06 0.000000000000D+00  7 2 -2 23 -13 13 23 21 2 0.32857616D+00 0.17507695D-01 0.23854261D+06 0.23854261D+06 0.23854261D+06 0.10919952D+01  1  2  4  1  7  1        2 -.112021913517D-03 0.100000000000D+01
  </mgrwgt>
  </event>
  <event>
  7     66 0.55102590E-06 0.39970610E+03 0.75467711E-02 0.90695158E-01
        2 -1    0    0  501    0 0.00000000E+00 0.00000000E+00 0.15565593E+04 0.15565594E+04 0.32000000E+00 0.0000E+00 0.9000E+01
       -2 -1    0    0    0  501 0.00000000E+00 0.00000000E+00 -.44468215E+03 0.44468227E+03 0.32000000E+00 0.0000E+00 0.9000E+01
       23  2    1    2    0    0 0.12951523E+03 0.61672315E+03 -.51044721E+02 0.63887261E+03 0.91820525E+02 0.0000E+00 0.0000E+00
       23  1    1    2    0    0 0.59609244E+02 -.36740584E+03 0.60222177E+03 0.71381134E+03 0.91188000E+02 0.0000E+00 0.9000E+01
      -11  1    3    3    0    0 -.70072425E+01 0.26041228E+01 0.13003920E+01 0.75877482E+01 0.51099893E-03 0.0000E+00 0.9000E+01
       11  1    3    3    0    0 0.13652247E+03 0.61411903E+03 -.52345113E+02 0.63128486E+03 0.51099893E-03 0.0000E+00 0.9000E+01
       23  1    1    2    0    0 -.18912447E+03 -.24931731E+03 0.56070014E+03 0.64855770E+03 0.91188000E+02 0.0000E+00 0.9000E+01
#aMCatNLO 1  0  0  1  2 0.88471930D+02 0.00000000D+00  -5  7  0 0.00000000D+00 0.00000000D+00 0.00000000D+00 0.00000000D+00 0.00000000D+00
  <mgrwgt>
 0.4796019874D-03    9    2    0
 0.831970135359987D+03 0.000000000000000D+00 0.000000000000000D+00 0.831970135359987D+03
 0.831970135359987D+03 0.000000000000000D+00 0.000000000000000D+00 -.831970135359987D+03
 0.456093488468919D+03 0.596092435142244D+02 -.367405841342383D+03 0.247317012586892D+03
 0.825693191658593D+01 -.700724253897010D+01 0.260412281276696D+01 -.350628308201265D+01
 0.794232167013194D+03 0.136522470700053D+03 0.614119026179274D+03 -.484792916405600D+03
 0.405357683321276D+03 -.189124471675307D+03 -.249317307649658D+03 0.240982186900720D+03
 0.000000000000000D+00 -.000000000000000D+00 0.000000000000000D+00 0.000000000000000D+00
 0.109575052137741D+04 0.000000000000000D+00 0.000000000000000D+00 0.109575052137741D+04
 0.840596889833686D+03 0.000000000000000D+00 0.000000000000000D+00 -.840596889833686D+03
 0.470479670062620D+03 0.798317559550962D+02 -.381440761618961D+03 0.247317012586892D+03
 0.788356647836893D+01 -.665497523380541D+01 0.235964065168598D+01 -.350628308201265D+01
 0.782700061336027D+03 0.170939107219875D+03 0.590233035199865D+03 -.484792916405600D+03
 0.405227345107744D+03 -.171433406840482D+03 -.261595341118077D+03 0.240982186900720D+03
 0.270056768226341D+03 -.726824811006840D+02 0.504434268854869D+02 0.255153631543728D+03
0.128927652939D-03 0.000000000000D+00 0.000000000000D+00 0.290526091501D-08 0.000000000000D+00  7 2 -2 23 -11 11 23 21 0 0.23947068D+00 0.68412650D-01 0.45276233D+06 0.45276233D+06 0.45276233D+06 0.10715698D+01  1  2  2  1  7  1        2 0.380734220426D-03 0.100000000000D+01
-.677037288953D-05 0.000000000000D+00 -.495116134717D-06 0.290526091501D-08 0.000000000000D+00  7 2 -2 23 -11 11 23 21 2 0.23947068D+00 0.68412650D-01 0.45276233D+06 0.45276233D+06 0.45276233D+06 0.10715698D+01  1  2  3  1  7  1        2 -.229577537902D-04 0.100000000000D+01
0.805281196816D-05 0.000000000000D+00 0.000000000000D+00 0.290526091501D-08 0.000000000000D+00  7 2 -2 23 -11 11 23 21 2 0.23947068D+00 0.68412650D-01 0.45276233D+06 0.45276233D+06 0.45276233D+06 0.10715698D+01  1  2 15  1  7  1        2 0.273063947142D-04 0.100000000000D+01
0.821357570893D-03 0.000000000000D+00 0.000000000000D+00 0.290526091501D-08 0.000000000000D+00  7 2 -2 23 -11 11 23 21 2 0.31635735D+00 0.68412650D-01 0.51555181D+06 0.51555181D+06 0.51555181D+06 0.10675715D+01  1  2 12  1  7  1        2 0.145657697257D-02 0.100000000000D+01
-.804162939915D-03 0.000000000000D+00 0.000000000000D+00 0.290526091501D-08 0.000000000000D+00  7 2 -2 23 -11 11 23 21 2 0.23947068D+00 0.68412650D-01 0.45276233D+06 0.45276233D+06 0.45276233D+06 0.10715698D+01  1  2  4  1  7  1        2 -.272684755818D-02 0.100000000000D+01
-.892220311269D-03 0.000000000000D+00 -.578912368083D-04 0.290526091501D-08 0.000000000000D+00  7 2 -2 23 -11 11 23 21 2 0.31640495D+00 0.68412650D-01 0.45276233D+06 0.45276233D+06 0.45276233D+06 0.10715698D+01  1  2  5  1  7  1        2 -.160597734951D-02 0.100000000000D+01
0.876297726021D-03 0.000000000000D+00 0.557150963668D-04 0.290526091501D-08 0.000000000000D+00  7 2 -2 23 -11 11 23 21 2 0.23947068D+00 0.68412650D-01 0.45276233D+06 0.45276233D+06 0.45276233D+06 0.10715698D+01  1  2  6  1  7  1        2 0.297145043104D-02 0.100000000000D+01
0.300793226081D-04 0.000000000000D+00 0.000000000000D+00 0.290526091501D-08 0.000000000000D+00  7 21 -2 23 -11 11 23 -2 2 0.31635735D+00 0.68412650D-01 0.51555181D+06 0.51555181D+06 0.51555181D+06 0.10675715D+01  1  2 12  3  7  1        2 0.968745132295D-05 0.100000000000D+01
-.315317262931D-04 0.000000000000D+00 -.212089524295D-05 0.290526091501D-08 0.000000000000D+00  7 21 -2 23 -11 11 23 -2 2 0.31640495D+00 0.68412650D-01 0.45276233D+06 0.45276233D+06 0.45276233D+06 0.10715698D+01  1  2  5  3  7  1        2 -.103708212230D-04 0.100000000000D+01
  </mgrwgt>
  </event>
  <event>
  8     66 0.55102590E-06 0.13622090E+03 0.75467711E-02 0.10180192E+00
        2 -1    0    0  501    0 0.00000000E+00 0.00000000E+00 0.15687351E+04 0.15687352E+04 0.32000000E+00 0.0000E+00 0.9000E+01
       -2 -1    0    0    0  501 0.00000000E+00 0.00000000E+00 -.87588265E+02 0.87588850E+02 0.32000000E+00 0.0000E+00 0.9000E+01
       25  2    1    2    0    0 0.14536345E+03 -.15758791E+03 0.37615782E+03 0.52703410E+03 0.30050916E+03 0.0000E+00 0.0000E+00
       23  2    1    2    0    0 -.14536345E+03 0.15758791E+03 0.11049891E+04 0.11292899E+04 0.91271181E+02 0.0000E+00 0.0000E+00
       23  1    3    3    0    0 0.33024572E+02 -.76175913E+02 0.84841501E+01 0.12361482E+03 0.91188000E+02 0.0000E+00 0.9000E+01
      -13  1    4    4    0    0 -.11159777E+03 0.16330964E+03 0.90207023E+03 0.92350139E+03 0.10565837E+00 0.0000E+00 0.9000E+01
       13  1    4    4    0    0 -.33765683E+02 -.57217286E+01 0.20291884E+03 0.20578854E+03 0.10565837E+00 0.0000E+00 0.9000E+01
       23  1    3    3    0    0 0.11233888E+03 -.81412001E+02 0.36767367E+03 0.40341928E+03 0.91188000E+02 0.0000E+00 0.9000E+01
#aMCatNLO 1  0  0  1  2 0.35146112D+02 0.00000000D+00  -5  7  0 0.00000000D+00 0.00000000D+00 0.00000000D+00 0.00000000D+00 0.00000000D+00
  <mgrwgt>
 0.2216897658D-03    6    2    0
 0.370679512753914D+03 0.000000000000000D+00 0.000000000000000D+00 0.370679512753914D+03
 0.370679512753914D+03 0.000000000000000D+00 0.000000000000000D+00 -.370679512753914D+03
 0.259226530016158D+03 0.330245723342880D+02 -.761759128834840D+02 -.228012610262510D+03
 0.261033087283732D+03 -.111597870728978D+03 0.163309868459918D+03 0.170335183591761D+03
 0.543592263744939D+02 -.337655786035993D+02 -.572195487989136D+01 0.422145759892258D+02
 0.166740181833444D+03 0.112338876998289D+03 -.814120006965430D+02 0.154628506815232D+02
 0.000000000000000D+00 -.000000000000000D+00 -.000000000000000D+00 -.000000000000000D+00
 0.388489867422475D+03 0.000000000000000D+00 0.000000000000000D+00 0.388489867422475D+03
 0.388849743042130D+03 0.000000000000000D+00 0.000000000000000D+00 -.388849743042130D+03
 0.256436119390367D+03 0.361936549865846D+02 -.643777980671877D+02 -.228012610262510D+03
 0.267430903491395D+03 -.108350115500911D+03 0.175400871844823D+03 0.170335183591761D+03
 0.537430437561696D+02 -.331012197842447D+02 -.324862663637457D+01 0.422145759892258D+02
 0.164581589142394D+03 0.114375064955544D+03 -.738315170225550D+02 0.154628506815232D+02
 0.351479546842795D+02 -.911738465697290D+01 -.339429301187057D+02 -.359875619654817D+00
0.303826024067D-05 0.000000000000D+00 0.000000000000D+00 0.407594047632D-06 0.000000000000D+00  7 2 -2 23 -13 13 23 21 0 0.24134392D+00 0.13475165D-01 0.67961969D+05 0.67961969D+05 0.67961969D+05 0.11357521D+01  1  2  2  1  7  1        2 0.176899273211D-03 0.100000000000D+01
-.143365832783D-06 0.000000000000D+00 -.116677193165D-07 0.407594047632D-06 0.000000000000D+00  7 2 -2 23 -13 13 23 21 2 0.24134392D+00 0.13475165D-01 0.67961969D+05 0.67961969D+05 0.67961969D+05 0.11357521D+01  1  2  3  1  7  1        2 -.107674739934D-04 0.100000000000D+01
0.191163905503D-06 0.000000000000D+00 0.000000000000D+00 0.407594047632D-06 0.000000000000D+00  7 2 -2 23 -13 13 23 21 2 0.24134392D+00 0.13475165D-01 0.67961969D+05 0.67961969D+05 0.67961969D+05 0.11357521D+01  1  2 15  1  7  1        2 0.143573426181D-04 0.100000000000D+01
0.555997118150D-05 0.000000000000D+00 0.000000000000D+00 0.407594047632D-06 0.000000000000D+00  7 2 -2 23 -13 13 23 21 2 0.25857492D+00 0.13475165D-01 0.77220736D+05 0.77220736D+05 0.77220736D+05 0.11310529D+01  1  2 12  1  7  1        2 0.360207303967D-03 0.100000000000D+01
-.426468107010D-05 0.000000000000D+00 0.000000000000D+00 0.407594047632D-06 0.000000000000D+00  7 2 -2 23 -13 13 23 21 2 0.24134392D+00 0.13475165D-01 0.67961969D+05 0.67961969D+05 0.67961969D+05 0.11357521D+01  1  2  4  1  7  1        2 -.320298369710D-03 0.100000000000D+01
0.657445636659D-07 0.000000000000D+00 0.000000000000D+00 0.407594047632D-06 0.000000000000D+00  7 21 -2 23 -13 13 23 -2 2 0.25857492D+00 0.13475165D-01 0.77220736D+05 0.77220736D+05 0.77220736D+05 0.11310529D+01  1  2 12  3  7  1        2 0.129168969561D-05 0.100000000000D+01
  </mgrwgt>
  </event>
  <event>
  8     66 0.55102590E-06 0.25149750E+03 0.75467711E-02 0.10100812E+00
        2 -1    0    0  501    0 0.00000000E+00 0.00000000E+00 0.80751741E+03 0.80751748E+03 0.32000000E+00 0.0000E+00 0.9000E+01
       -2 -1    0    0    0  501 0.00000000E+00 0.00000000E+00 -.94156544E+02 0.94157088E+02 0.32000000E+00 0.0000E+00 0.9000E+01
       25  2    1    2    0    0 0.15254835E+03 0.84237913E+02 0.52116451E+03 0.62604943E+03 0.29993068E+03 0.0000E+00 0.0000E+00
       23  2    1    2    0    0 -.15254835E+03 -.84237913E+02 0.19219636E+03 0.27562514E+03 0.93073912E+02 0.0000E+00 0.0000E+00
       23  1    3    3    0    0 0.16804145E+03 0.12576147E+02 0.17085399E+03 0.25671467E+03 0.91188000E+02 0.0000E+00 0.9000E+01
      -13  1    4    4    0    0 -.11359594E+03 -.14514856E+02 0.13690562E+03 0.17848775E+03 0.10565837E+00 0.0000E+00 0.9000E+01
       13  1    4    4    0    0 -.38952411E+02 -.69723057E+02 0.55290737E+02 0.97137386E+02 0.10565837E+00 0.0000E+00 0.9000E+01
       23  1    3    3    0    0 -.15493099E+02 0.71661766E+02 0.35031053E+03 0.36933476E+03 0.91188000E+02 0.0000E+00 0.9000E+01
#aMCatNLO 1  0  0  2  2 0.83146606D+02 0.00000000D+00  -5  7  0 0.00000000D+00 0.00000000D+00 0.00000000D+00 0.00000000D+00 0.00000000D+00
  <mgrwgt>
 0.1565877811D-03    3    2    0
 0.275741405833912D+03 0.000000000000000D+00 0.000000000000000D+00 0.275741405833912D+03
 0.275741405833912D+03 0.000000000000000D+00 0.000000000000000D+00 -.275741405833912D+03
 0.198723406042486D+03 0.168041446584976D+03 0.125761477061053D+02 -.527224193643414D+02
 0.114735713087051D+03 -.113596031638780D+03 -.145147879008557D+02 -.703891935659056D+01
 0.872992619486842D+02 -.389523178577163D+02 -.697231263034143D+02 -.352500174294220D+02
 0.150724430589603D+03 -.154930970884806D+02 0.716617664981648D+02 0.950113561503540D+02
 0.000000000000000D+00 -.000000000000000D+00 0.000000000000000D+00 0.000000000000000D+00
 0.901264331441972D+03 0.000000000000000D+00 0.000000000000000D+00 0.901264331441972D+03
 0.281634647567814D+03 0.000000000000000D+00 0.000000000000000D+00 -.281634647567814D+03
 0.211063591134408D+03 0.182315875280569D+03 -.146238256144893D+02 -.527224193643414D+02
 0.110011507487375D+03 -.105767237175500D+03 -.294325828665737D+02 -.703891935659056D+01
 0.948650256663634D+02 -.326068477662825D+02 -.818144415409145D+02 -.352500174294220D+02
 0.141775439078882D+03 -.530422198551929D+01 0.522468296991189D+02 0.950113561503540D+02
 0.625183415642757D+03 -.386375683532671D+02 0.736240203228586D+02 0.619629683874159D+03
0.108269651049D-05 0.000000000000D+00 0.000000000000D+00 0.397122549059D-07 0.000000000000D+00  7 2 -2 23 -13 13 23 21 0 0.12423350D+00 0.14485669D-01 0.63250992D+05 0.63250992D+05 0.63250992D+05 0.11384218D+01  1  2  2  2  7  2       -2 0.154688724149D-03 0.100000000000D+01
-.595303952750D-07 0.000000000000D+00 -.415783968082D-08 0.397122549059D-07 0.000000000000D+00  7 2 -2 23 -13 13 23 21 2 0.12423350D+00 0.14485669D-01 0.63250992D+05 0.63250992D+05 0.63250992D+05 0.11384218D+01  1  2  3  2  7  2       -2 -.110229308585D-04 0.100000000000D+01
0.697864344189D-07 0.000000000000D+00 0.000000000000D+00 0.397122549059D-07 0.000000000000D+00  7 2 -2 23 -13 13 23 21 2 0.12423350D+00 0.14485669D-01 0.63250992D+05 0.63250992D+05 0.63250992D+05 0.11384218D+01  1  2 15  2  7  2       -2 0.129219877998D-04 0.100000000000D+01
  </mgrwgt>
  </event>
  <event>
  9     66 0.55102590E-06 0.21326486E+03 0.75467711E-02 0.99938970E-01
        2 -1    0    0  501    0 0.00000000E+00 0.00000000E+00 0.84798153E+03 0.84798160E+03 0.32000000E+00 0.0000E+00 0.9000E+01
       -2 -1    0    0    0  502 0.00000000E+00 0.00000000E+00 -.37534076E+03 0.37534089E+03 0.32000000E+00 0.0000E+00 0.9000E+01
       25  2    1    2    0    0 -.66305578E+02 -.11746416E+02 0.43129461E+03 0.52965476E+03 0.29997453E+03 0.0000E+00 0.0000E+00
       23  2    1    2    0    0 -.76523110E+02 -.95254700E+02 0.31896457E+03 0.36363468E+03 0.12474990E+03 0.0000E+00 0.0000E+00
       23  1    3    3    0    0 -.14539545E+03 -.29958796E+02 0.18126214E+03 0.25141317E+03 0.91188000E+02 0.0000E+00 0.9000E+01
      -11  1    4    4    0    0 0.24928581E+02 0.40743611E+01 0.18488670E+02 0.31302803E+02 0.51099893E-03 0.0000E+00 0.9000E+01
       11  1    4    4    0    0 -.10145169E+03 -.99329061E+02 0.30047590E+03 0.33233188E+03 0.51099893E-03 0.0000E+00 0.9000E+01
       23  1    3    3    0    0 0.79089872E+02 0.18212380E+02 0.25003247E+03 0.27824160E+03 0.91188000E+02 0.0000E+00 0.9000E+01
       21  1    1    2  501  502 0.14282869E+03 0.10700112E+03 -.27761840E+03 0.33003305E+03 0.75000000E+00 0.0000E+00 0.9000E+01
#aMCatNLO 2  0  0  2  1 0.17846365D+03 0.00000000D+00  -5  7  0 0.00000000D+00 0.00000000D+00 0.00000000D+00 0.00000000D+00 0.00000000D+00
  <mgrwgt>
 0.1085359284D-03    2    2    0
 0.225404034791408D+03 0.000000000000000D+00 0.000000000000000D+00 0.225404034791408D+03
 0.225404034791408D+03 0.000000000000000D+00 0.000000000000000D+00 -.225404034791408D+03
 0.143340094023159D+03 -.956220722676241D+02 0.732937577707461D+01 -.550802211009706D+02
 0.401225077348314D+02 0.354897074242829D+02 0.119862551921116D+02 -.143744906114960D+02
 0.102738349619962D+03 -.632781867948154D+02 -.707312703072195D+02 0.393462445389768D+02
 0.164607118204864D+03 0.123410551638157D+03 0.514156393380333D+02 0.301084671734898D+02
 0.000000000000000D+00 0.000000000000000D+00 0.000000000000000D+00 -.000000000000000D+00
 0.250154837077143D+03 0.000000000000000D+00 0.000000000000000D+00 0.250154837077143D+03
 0.127233924505395D+04 0.000000000000000D+00 0.000000000000000D+00 -.127233924505395D+04
 0.182719495995718D+03 -.145395365180445D+03 -.299586364917137D+02 -.550802211009706D+02
 0.290629453342864D+02 0.249284851007314D+02 0.407424124793173D+01 -.143744906114960D+02
 0.147332559439053D+03 -.101451738460169D+03 -.993292548796706D+02 0.393462445389768D+02
 0.125732592118718D+03 0.790899308420546D+02 0.182125347152392D+02 0.301084671734898D+02
 0.103764648924332D+04 0.142828687697828D+03 0.107001115408213D+03 -.102218440797681D+04
-.238056442082D-06 0.000000000000D+00 0.000000000000D+00 0.402993710457D-09 0.000000000000D+00  7 2 -2 23 -11 11 23 21 2 0.11755081D+00 0.54663314D-01 0.10304060D+06 0.10304060D+06 0.10304060D+06 0.11206561D+01  1  2 13  2  7  2       -2 -.443061897303D-05 0.100000000000D+01
0.773482530311D-05 0.000000000000D+00 0.000000000000D+00 0.402993710457D-09 0.344705663174D-12  7 2 -2 23 -11 11 23 21 2 0.13045864D+00 0.57744717D-01 0.10304060D+06 0.10304060D+06 0.10304060D+06 0.11206561D+01  1  2  1  2  7  2       -2 0.112966547387D-03 0.100000000000D+01
  </mgrwgt>
  </event>
  <event>
  8     66 0.55102590E-06 0.21384605E+03 0.75467711E-02 0.95259561E-01
        2 -1    0    0  501    0 0.00000000E+00 0.00000000E+00 0.87898896E+03 0.87898902E+03 0.32000000E+00 0.0000E+00 0.9000E+01
       -2 -1    0    0    0  501 0.00000000E+00 0.00000000E+00 -.14130433E+03 0.14130470E+03 0.32000000E+00 0.0000E+00 0.9000E+01
       25  2    1    2    0    0 -.25669541E+02 0.27180492E+03 0.33837294E+03 0.52796371E+03 0.29952061E+03 0.0000E+00 0.0000E+00
       23  2    1    2    0    0 0.25669541E+02 -.27180492E+03 0.39931169E+03 0.49233000E+03 0.91663332E+02 0.0000E+00 0.0000E+00
       23  1    3    3    0    0 0.64879712E+02 0.23971868E+03 0.17305630E+03 0.31612997E+03 0.91188000E+02 0.0000E+00 0.9000E+01
      -11  1    4    4    0    0 0.41386498E+02 -.47253023E+02 0.91828115E+02 0.11125688E+03 0.51099893E-03 0.0000E+00 0.9000E+01
       11  1    4    4    0    0 -.15716958E+02 -.22455190E+03 0.30748357E+03 0.38107312E+03 0.51099893E-03 0.0000E+00 0.9000E+01
       23  1    3    3    0    0 -.90549253E+02 0.32086244E+02 0.16531663E+03 0.21183374E+03 0.91188000E+02 0.0000E+00 0.9000E+01
#aMCatNLO 1  0  0  1  2 0.22702621D+03 0.00000000D+00  -5  7  0 0.00000000D+00 0.00000000D+00 0.00000000D+00 0.00000000D+00 0.00000000D+00
  <mgrwgt>
 0.3289399717D-03    8    2    0
 0.352427529414350D+03 0.000000000000000D+00 0.000000000000000D+00 0.352427529414350D+03
 0.352427529414350D+03 0.000000000000000D+00 0.000000000000000D+00 -.352427529414350D+03
 0.276488678349487D+03 0.648797119629821D+02 0.239718675760170D+03 -.803512126780747D+02
 0.649417282022417D+02 0.413864982623626D+02 -.472530232701761D+02 0.164844658785624D+02
 0.229806972020979D+03 -.157169575115786D+02 -.224551896687370D+03 0.462673462620768D+02
 0.133617680255991D+03 -.905492527137661D+02 0.320862441973763D+02 0.175994005374356D+02
 0.000000000000000D+00 0.000000000000000D+00 0.000000000000000D+00 0.000000000000000D+00
 0.642917371448289D+03 0.000000000000000D+00 0.000000000000000D+00 0.642917371448289D+03
 0.417514646065086D+03 0.000000000000000D+00 0.000000000000000D+00 -.417514646065086D+03
 0.225341414317154D+03 0.394799190255492D+01 0.189714516164566D+03 -.803512126780747D+02
 0.675778829036913D+02 0.252960964223373D+02 -.604577550710853D+02 0.164844658785624D+02
 0.291228661164819D+03 -.789805955570433D+02 -.276469765578757D+03 0.462673462620768D+02
 0.156366427815388D+03 -.125758840088422D+03 0.319118223898074D+01 0.175994005374356D+02
 0.319917631312324D+03 0.175495347320573D+03 0.144021822246295D+03 0.225402725383203D+03
0.285734922887D-05 0.000000000000D+00 0.000000000000D+00 0.180415267060D-06 0.000000000000D+00  7 2 -2 23 -11 11 23 21 0 0.13522910D+00 0.21739161D-01 0.11728062D+06 0.11728062D+06 0.11728062D+06 0.11160851D+01  1  2  2  1  7  1        2 0.188659832444D-03 0.100000000000D+01
-.158582838755D-06 0.000000000000D+00 -.109729733962D-07 0.180415267060D-06 0.000000000000D+00  7 2 -2 23 -11 11 23 21 2 0.13522910D+00 0.21739161D-01 0.11728062D+06 0.11728062D+06 0.11728062D+06 0.11160851D+01  1  2  3  1  7  1        2 -.130426830174D-04 0.100000000000D+01
0.184171616333D-06 0.000000000000D+00 0.000000000000D+00 0.180415267060D-06 0.000000000000D+00  7 2 -2 23 -11 11 23 21 2 0.13522910D+00 0.21739161D-01 0.11728062D+06 0.11728062D+06 0.11728062D+06 0.11160851D+01  1  2 15  1  7  1        2 0.151472380713D-04 0.100000000000D+01
0.535482698585D-06 0.000000000000D+00 0.000000000000D+00 0.180415267060D-06 0.000000000000D+00  7 2 -2 23 -11 11 23 21 2 0.25032739D+00 0.21739161D-01 0.22372637D+06 0.22372637D+06 0.22372637D+06 0.10941055D+01  1  2 12  1  7  1        2 0.154979555305D-04 0.100000000000D+01
-.185948797945D-05 0.000000000000D+00 -.858563789768D-06 0.180415267060D-06 0.000000000000D+00  7 2 -2 23 -11 11 23 21 2 0.26664910D+00 0.21739161D-01 0.11728062D+06 0.11728062D+06 0.11728062D+06 0.11160851D+01  1  2  5  1  7  1        2 -.500666611046D-04 0.100000000000D+01
0.210434450470D-05 0.000000000000D+00 0.692676510069D-06 0.180415267060D-06 0.000000000000D+00  7 2 -2 23 -11 11 23 21 2 0.13522910D+00 0.21739161D-01 0.11728062D+06 0.11728062D+06 0.11728062D+06 0.11160851D+01  1  2  6  1  7  1        2 0.173072310660D-03 0.100000000000D+01
0.359668853405D-07 0.000000000000D+00 0.000000000000D+00 0.180415267060D-06 0.000000000000D+00  7 21 -2 23 -11 11 23 -2 2 0.25032739D+00 0.21739161D-01 0.22372637D+06 0.22372637D+06 0.22372637D+06 0.10941055D+01  1  2 12  3  7  1        2 0.317534105842D-06 0.100000000000D+01
-.858104416975D-07 0.000000000000D+00 -.631221292099D-07 0.180415267060D-06 0.000000000000D+00  7 21 -2 23 -11 11 23 -2 2 0.26664910D+00 0.21739161D-01 0.11728062D+06 0.11728062D+06 0.11728062D+06 0.11160851D+01  1  2  5  3  7  1        2 -.645554976271D-06 0.100000000000D+01
  </mgrwgt>
  </event>
  <event>
  8     66 0.55102590E-06 0.32238095E+03 0.75467711E-02 0.96306072E-01
        2 -1    0    0  501    0 0.00000000E+00 0.00000000E+00 0.12916509E+04 0.12916509E+04 0.32000000E+00 0.0000E+00 0.9000E+01
       -2 -1    0    0    0  501 0.00000000E+00 0.00000000E+00 -.89920480E+02 0.89921049E+02 0.32000000E+00 0.0000E+00 0.9000E+01
       25  2    1    2    0    0 -.13772675E+03 0.21542421E+03 0.51340976E+03 0.64158327E+03 0.28751220E+03 0.0000E+00 0.0000E+00
       23  2    1    2    0    0 0.13772675E+03 -.21542421E+03 0.68832062E+03 0.73998867E+03 0.91769901E+02 0.0000E+00 0.0000E+00
       23  1    3    3    0    0 -.11495654E+02 -.25013933E+02 0.16509621E+03 0.19060392E+03 0.91188000E+02 0.0000E+00 0.9000E+01
      -11  1    4    4    0    0 0.14383078E+03 -.19908465E+03 0.57389853E+03 0.62424475E+03 0.51099893E-03 0.0000E+00 0.9000E+01
       11  1    4    4    0    0 -.61040311E+01 -.16339563E+02 0.11442209E+03 0.11574392E+03 0.51099893E-03 0.0000E+00 0.9000E+01
       23  1    3    3    0    0 -.12623110E+03 0.24043814E+03 0.34831355E+03 0.45097935E+03 0.91188000E+02 0.0000E+00 0.9000E+01
#aMCatNLO 1  0  0  2  2 0.19052628D+03 0.00000000D+00  -5  7  0 0.00000000D+00 0.00000000D+00 0.00000000D+00 0.00000000D+00 0.00000000D+00
  <mgrwgt>
 0.4634543145D-02    3    2    0
 0.340802413828452D+03 0.000000000000000D+00 0.000000000000000D+00 0.340802413828452D+03
 0.340802413828452D+03 0.000000000000000D+00 0.000000000000000D+00 -.340802413828452D+03
 0.952632731435720D+02 -.114956535729242D+02 -.250139331595010D+02 -.141172336176203D+01
 0.253472005652955D+03 0.143830780686296D+03 -.199084648045424D+03 0.626583361535531D+02
 0.328695616913095D+02 -.610403105406403D+01 -.163395634900549D+02 0.278597838402291D+02
 0.299999987169068D+03 -.126231096059308D+03 0.240438144694980D+03 -.891063966320201D+02
 0.000000000000000D+00 0.000000000000000D+00 0.000000000000000D+00 0.000000000000000D+00
 0.616639462988776D+03 0.000000000000000D+00 0.000000000000000D+00 0.616639462988776D+03
 0.388402028249175D+03 0.000000000000000D+00 0.000000000000000D+00 -.388402028249175D+03
 0.106597973684771D+03 -.244456497787738D+02 -.494802374058830D+02 -.141172336176203D+01
 0.293564729069698D+03 0.108736755704161D+03 -.265387454532363D+03 0.626583361535531D+02
 0.389644762400080D+02 -.107123971138084D+02 -.250461055078415D+02 0.278597838402291D+02
 0.268605400197957D+03 -.162708813921074D+03 0.171521140455510D+03 -.891063966320201D+02
 0.297308912045517D+03 0.891301051094946D+02 0.168392656990577D+03 0.228237434739601D+03
0.584356057385D-04 0.000000000000D+00 0.000000000000D+00 0.100277869511D-08 0.000000000000D+00  7 2 -2 23 -11 11 23 21 0 0.19871556D+00 0.13833967D-01 0.10392948D+06 0.10392948D+06 0.10392948D+06 0.11203510D+01  1  2  2  2  7  2       -2 0.458543901228D-02 0.100000000000D+01
-.323423401951D-05 0.000000000000D+00 -.224408112484D-06 0.100277869511D-08 0.000000000000D+00  7 2 -2 23 -11 11 23 21 2 0.19871556D+00 0.13833967D-01 0.10392948D+06 0.10392948D+06 0.10392948D+06 0.11203510D+01  1  2  3  2  7  2       -2 -.318553983405D-03 0.100000000000D+01
0.373278140837D-05 0.000000000000D+00 0.000000000000D+00 0.100277869511D-08 0.000000000000D+00  7 2 -2 23 -11 11 23 21 2 0.19871556D+00 0.13833967D-01 0.10392948D+06 0.10392948D+06 0.10392948D+06 0.11203510D+01  1  2 15  2  7  2       -2 0.367658116155D-03 0.100000000000D+01
  </mgrwgt>
  </event>
  <event>
  8     66 0.55102590E-06 0.15999709E+03 0.75467711E-02 0.99973942E-01
        2 -1    0    0  501    0 0.00000000E+00 0.00000000E+00 0.27636057E+04 0.27636057E+04 0.32000000E+00 0.0000E+00 0.9000E+01
       -2 -1    0    0    0  501 0.00000000E+00 0.00000000E+00 -.42339077E+02 0.42340286E+02 0.32000000E+00 0.0000E+00 0.9000E+01
       25  2    1    2    0    0 0.10030396E+03 -.17203325E+03 0.86761262E+03 0.93931345E+03 0.29983624E+03 0.0000E+00 0.0000E+00
       23  2    1    2    0    0 -.10030396E+03 0.17203325E+03 0.18536540E+04 0.18666325E+04 0.92884912E+02 0.0000E+00 0.0000E+00
       23  1    3    3    0    0 0.12575864E+03 -.10624136E+02 0.25518828E+03 0.29893882E+03 0.91188000E+02 0.0000E+00 0.9000E+01
      -13  1    4    4    0    0 0.64249909E+01 0.20400736E+02 0.65814070E+02 0.69202410E+02 0.10565837E+00 0.0000E+00 0.9000E+01
       13  1    4    4    0    0 -.10672896E+03 0.15163252E+03 0.17878399E+04 0.17974301E+04 0.10565837E+00 0.0000E+00 0.9000E+01
       23  1    3    3    0    0 -.25454675E+02 -.16140912E+03 0.61242434E+03 0.64037463E+03 0.91188000E+02 0.0000E+00 0.9000E+01
#aMCatNLO 1  0  0  1  2 0.81122024D+02 0.00000000D+00  -5  7  0 0.00000000D+00 0.00000000D+00 0.00000000D+00 0.00000000D+00 0.00000000D+00
  <mgrwgt>
 0.4947260069D-03    9    2    0
 0.342067589839186D+03 0.000000000000000D+00 0.000000000000000D+00 0.342067589839186D+03
 0.342067589839186D+03 0.000000000000000D+00 0.000000000000000D+00 -.342067589839186D+03
 0.211026766579284D+03 0.125758639679001D+03 -.106241365051430D+02 -.142439240164061D+03
 0.220429847089964D+02 0.642513695983864D+01 0.204005658053950D+02 -.533176375584246D+01
 0.260625404457815D+03 -.106729101853181D+03 0.151632689104063D+03 0.183144827558640D+03
 0.190440023932277D+03 -.254546747856587D+02 -.161409118404315D+03 -.353738236387363D+02
 0.000000000000000D+00 0.000000000000000D+00 -.000000000000000D+00 0.000000000000000D+00
 0.394810991286034D+03 0.000000000000000D+00 0.000000000000000D+00 0.394810991286034D+03
 0.377141102940472D+03 0.000000000000000D+00 0.000000000000000D+00 -.377141102940472D+03
 0.201821328866975D+03 0.109844744647409D+03 0.786081271004315D+01 -.142439240164061D+03
 0.235335770668625D+02 0.466831495193307D+01 0.224412205622466D+02 -.533176375584246D+01
 0.284334184393821D+03 -.127735447259886D+03 0.176032826673699D+03 0.183144827558640D+03
 0.179238864434784D+03 -.397045431749264D+02 -.144857036530218D+03 -.353738236387363D+02
 0.830241394640623D+02 0.529269308354703D+02 -.614778234157716D+02 0.176698883455620D+02
0.678930807731D-05 0.000000000000D+00 0.000000000000D+00 0.365888091316D-06 0.000000000000D+00  7 2 -2 23 -13 13 23 21 0 0.42517020D+00 0.65137986D-02 0.75527460D+05 0.75527460D+05 0.75527460D+05 0.11318643D+01  1  2  2  1  7  1        2 0.265305003671D-03 0.100000000000D+01
-.355212428222D-06 0.000000000000D+00 -.260727306827D-07 0.365888091316D-06 0.000000000000D+00  7 2 -2 23 -13 13 23 21 2 0.42517020D+00 0.65137986D-02 0.75527460D+05 0.75527460D+05 0.75527460D+05 0.11318643D+01  1  2  3  1  7  1        2 -.177826646285D-04 0.100000000000D+01
0.428666975255D-06 0.000000000000D+00 0.000000000000D+00 0.365888091316D-06 0.000000000000D+00  7 2 -2 23 -13 13 23 21 2 0.42517020D+00 0.65137986D-02 0.75527460D+05 0.75527460D+05 0.75527460D+05 0.11318643D+01  1  2 15  1  7  1        2 0.214599503076D-04 0.100000000000D+01
0.465356886372D-05 0.000000000000D+00 0.000000000000D+00 0.365888091316D-06 0.000000000000D+00  7 2 -2 23 -13 13 23 21 2 0.50972198D+00 0.65137986D-02 0.10247379D+06 0.10247379D+06 0.10247379D+06 0.11208522D+01  1  2 12  1  7  1        2 0.102073710160D-03 0.100000000000D+01
-.448791249445D-05 0.000000000000D+00 0.000000000000D+00 0.365888091316D-06 0.000000000000D+00  7 2 -2 23 -13 13 23 21 2 0.42517020D+00 0.65137986D-02 0.75527460D+05 0.75527460D+05 0.75527460D+05 0.11318643D+01  1  2  4  1  7  1        2 -.224674128578D-03 0.100000000000D+01
-.122693730780D-04 0.000000000000D+00 -.342446508700D-05 0.365888091316D-06 0.000000000000D+00  7 2 -2 23 -13 13 23 21 2 0.50606494D+00 0.65137986D-02 0.75527460D+05 0.75527460D+05 0.75527460D+05 0.11318643D+01  1  2  5  1  7  1        2 -.288420095990D-03 0.100000000000D+01
0.127236388727D-04 0.000000000000D+00 0.337316954095D-05 0.365888091316D-06 0.000000000000D+00  7 2 -2 23 -13 13 23 21 2 0.42517020D+00 0.65137986D-02 0.75527460D+05 0.75527460D+05 0.75527460D+05 0.11318643D+01  1  2  6  1  7  1        2 0.636971527319D-03 0.100000000000D+01
0.123465593189D-06 0.000000000000D+00 0.000000000000D+00 0.365888091316D-06 0.000000000000D+00  7 21 -2 23 -13 13 23 -2 2 0.50972198D+00 0.65137986D-02 0.10247379D+06 0.10247379D+06 0.10247379D+06 0.11208522D+01  1  2 12  3  7  1        2 0.129967656552D-06 0.100000000000D+01
-.284339638665D-06 0.000000000000D+00 -.880144228569D-07 0.365888091316D-06 0.000000000000D+00  7 21 -2 23 -13 13 23 -2 2 0.50606494D+00 0.65137986D-02 0.75527460D+05 0.75527460D+05 0.75527460D+05 0.11318643D+01  1  2  5  3  7  1        2 -.337263007627D-06 0.100000000000D+01
  </mgrwgt>
  </event>
  <event>
  8     66 0.55102590E-06 0.20582603E+03 0.75467711E-02 0.93808084E-01
        2 -1    0    0  501    0 0.00000000E+00 0.00000000E+00 0.56648593E+03 0.56648602E+03 0.32000000E+00 0.0000E+00 0.9000E+01
       -2 -1    0    0    0  501 0.00000000E+00 0.00000000E+00 -.11590164E+03 0.11590208E+03 0.32000000E+00 0.0000E+00 0.9000E+01
       25  2    1    2    0    0 -.13494390E+03 -.33836459E+02 0.37412597E+03 0.49900626E+03 0.29946995E+03 0.0000E+00 0.0000E+00
       23  2    1    2    0    0 0.13494390E+03 0.33836459E+02 0.76458327E+02 0.18338184E+03 0.91805560E+02 0.0000E+00 0.0000E+00
       23  1    3    3    0    0 -.71310237E+01 -.15904589E+02 0.31805125E+03 0.33132410E+03 0.91188000E+02 0.0000E+00 0.9000E+01
      -13  1    4    4    0    0 -.30126641E+01 0.22128004E+02 0.29881639E+02 0.37304801E+02 0.10565837E+00 0.0000E+00 0.9000E+01
       13  1    4    4    0    0 0.13795657E+03 0.11708455E+02 0.46576689E+02 0.14607704E+03 0.10565837E+00 0.0000E+00 0.9000E+01
       23  1    3    3    0    0 -.12781288E+03 -.17931870E+02 0.56074716E+02 0.16768217E+03 0.91188000E+02 0.0000E+00 0.9000E+01
#aMCatNLO 1  0  0  1  2 0.45674348D+03 0.00000000D+00  -5  7  0 0.00000000D+00 0.00000000D+00 0.00000000D+00 0.00000000D+00 0.00000000D+00
  <mgrwgt>
 0.2581639152D-03    3    2    0
 0.256235886926681D+03 0.000000000000000D+00 0.000000000000000D+00 0.256235886926681D+03
 0.256235886926681D+03 0.000000000000000D+00 0.000000000000000D+00 -.256235886926681D+03
 0.161536163848821D+03 -.713102618078439D+01 -.159045893830513D+02 0.132192561776972D+03
 0.234004408665891D+02 -.301284685743327D+01 0.221280155857175D+02 0.698958602512565D+01
 0.153558893405507D+03 0.137956754892016D+03 0.117084446711178D+02 -.664167136116477D+02
 0.173976275732445D+03 -.127812881853798D+03 -.179318708737840D+02 -.727654341904501D+02
 0.000000000000000D+00 -.000000000000000D+00 0.000000000000000D+00 -.000000000000000D+00
 0.465110188660108D+03 0.000000000000000D+00 0.000000000000000D+00 0.465110188660108D+03
 0.771163143914597D+03 0.000000000000000D+00 0.000000000000000D+00 -.771163143914597D+03
 0.226046734008547D+03 0.607707593020382D+02 -.147016720262104D+03 0.132192561776972D+03
 0.125981502292027D+02 0.329385197727601D+01 0.995035755873745D+01 0.698958602512565D+01
 0.252974431550734D+03 0.209178521320306D+03 -.125814265445917D+03 -.664167136116477D+02
 0.194851311575473D+03 -.631968942754564D+02 -.142699426837300D+03 -.727654341904501D+02
 0.549802705210749D+03 -.210046238324164D+03 0.405580054986584D+03 -.306052955254489D+03
0.163383738428D-05 0.000000000000D+00 0.000000000000D+00 0.963106533916D-07 0.000000000000D+00  7 2 -2 23 -13 13 23 21 0 0.87151723D-01 0.17831062D-01 0.42364354D+05 0.42364354D+05 0.42364354D+05 0.11536801D+01  1  2  2  1  7  1        2 0.253869773395D-03 0.100000000000D+01
-.854724458708D-07 0.000000000000D+00 -.627436575490D-08 0.963106533916D-07 0.000000000000D+00  7 2 -2 23 -13 13 23 21 2 0.87151723D-01 0.17831062D-01 0.42364354D+05 0.42364354D+05 0.42364354D+05 0.11536801D+01  1  2  3  1  7  1        2 -.176766150286D-04 0.100000000000D+01
0.106236082106D-06 0.000000000000D+00 0.000000000000D+00 0.963106533916D-07 0.000000000000D+00  7 2 -2 23 -13 13 23 21 2 0.87151723D-01 0.17831062D-01 0.42364354D+05 0.42364354D+05 0.42364354D+05 0.11536801D+01  1  2 15  1  7  1        2 0.219707568491D-04 0.100000000000D+01
  </mgrwgt>
  </event>
  <event>
  8     66 0.55102590E-06 0.16980911E+03 0.75467711E-02 0.86832293E-01
        2 -1    0    0  501    0 0.00000000E+00 0.00000000E+00 0.10680775E+03 0.10680823E+03 0.32000000E+00 0.0000E+00 0.9000E+01
       -2 -1    0    0    0  501 0.00000000E+00 0.00000000E+00 -.43652604E+03 0.43652616E+03 0.32000000E+00 0.0000E+00 0.9000E+01
       25  2    1    2    0    0 -.57284333E+02 0.29675860E+02 -.30043808E+03 0.42912050E+03 0.29953165E+03 0.0000E+00 0.0000E+00
       23  2    1    2    0    0 0.57284333E+02 -.29675860E+02 -.29280207E+02 0.11421389E+03 0.89584212E+02 0.0000E+00 0.0000E+00
       23  1    3    3    0    0 0.32526930E+02 -.50179658E+02 -.20264579E+02 0.11091395E+03 0.91188000E+02 0.0000E+00 0.9000E+01
      -13  1    4    4    0    0 0.64785851E+02 -.31432373E+02 -.52911655E+02 0.89358015E+02 0.10565837E+00 0.0000E+00 0.9000E+01
       13  1    4    4    0    0 -.75015182E+01 0.17565127E+01 0.23631448E+02 0.24855876E+02 0.10565837E+00 0.0000E+00 0.9000E+01
       23  1    3    3    0    0 -.89811262E+02 0.79855519E+02 -.28017350E+03 0.31820655E+03 0.91188000E+02 0.0000E+00 0.9000E+01
#aMCatNLO 1  0  0  2  2 0.10376848D+04 0.00000000D+00  -5  7  0 0.00000000D+00 0.00000000D+00 0.00000000D+00 0.00000000D+00 0.00000000D+00
  <mgrwgt>
 0.2164503758D-03    5    2    0
 0.215927135397613D+03 0.000000000000000D+00 0.000000000000000D+00 0.215927135397613D+03
 0.215927135397613D+03 0.000000000000000D+00 0.000000000000000D+00 -.215927135397613D+03
 0.124073687295046D+03 0.325269081269162D+02 -.501796469950897D+02 0.591864157568278D+02
 0.720274376311157D+02 0.647859496982344D+02 -.314324208320325D+02 0.165390871577464D+01
 0.493146687090729D+02 -.750156323790420D+01 0.175653246330265D+01 0.487091130342024D+02
 0.186438477159992D+03 -.898112945872464D+02 0.798555353638195D+02 -.109549437506805D+03
 0.000000000000000D+00 -.000000000000000D+00 0.000000000000000D+00 -.000000000000000D+00
 0.800247762140867D+03 0.000000000000000D+00 0.000000000000000D+00 0.800247762140867D+03
 0.169179300366477D+04 0.000000000000000D+00 0.000000000000000D+00 -.169179300366477D+04
 0.466043179154347D+03 0.216486219475006D+03 -.398135251465592D+03 0.591864157568278D+02
 0.326990660348727D+03 0.189173335812865D+03 -.266708840420953D+03 0.165390871577464D+01
 0.116192228355399D+03 0.440925133566690D+02 -.958327005959159D+02 0.487091130342024D+02
 0.214734753493962D+03 0.352479189994217D+02 -.156691633351196D+03 -.109549437506805D+03
 0.136807994445320D+04 -.484999987643962D+03 0.917368425833656D+03 -.891545241523905D+03
0.235014053790D-05 0.000000000000D+00 0.000000000000D+00 0.377764307411D-07 0.000000000000D+00  7 2 -2 23 -13 13 23 21 0 0.16432008D-01 0.67157899D-01 0.28835133D+05 0.28835133D+05 0.28835133D+05 0.11689351D+01  1  2  2  2  7  2       -2 0.212669199842D-03 0.100000000000D+01
-.121399304872D-06 0.000000000000D+00 -.902515847175D-08 0.377764307411D-07 0.000000000000D+00  7 2 -2 23 -13 13 23 21 2 0.16432008D-01 0.67157899D-01 0.28835133D+05 0.28835133D+05 0.28835133D+05 0.11689351D+01  1  2  3  2  7  2       -2 -.150109347377D-04 0.100000000000D+01
0.151733800897D-06 0.000000000000D+00 0.000000000000D+00 0.377764307411D-07 0.000000000000D+00  7 2 -2 23 -13 13 23 21 2 0.16432008D-01 0.67157899D-01 0.28835133D+05 0.28835133D+05 0.28835133D+05 0.11689351D+01  1  2 15  2  7  2       -2 0.187617728551D-04 0.100000000000D+01
0.460628617475D-05 0.000000000000D+00 -.177896905722D-05 0.377764307411D-07 0.000000000000D+00  7 2 -2 23 -13 13 23 21 2 0.16432008D-01 0.74420557D+00 0.28835133D+05 0.28835133D+05 0.28835133D+05 0.11689351D+01  1  2  5  2  7  2       -2 0.257849987575D-07 0.100000000000D+01
0.988602556963D-06 0.000000000000D+00 -.503162784721D-06 0.377764307411D-07 0.000000000000D+00  7 2 21 23 -13 13 23 2 2 0.16432008D-01 0.74420557D+00 0.28835133D+05 0.28835133D+05 0.28835133D+05 0.11689351D+01  1  2  5  4  7  2       -2 0.455286276638D-08 0.100000000000D+01
  </mgrwgt>
  </event>
  <event>
  9     66 0.55102590E-06 0.22501290E+03 0.75467711E-02 0.96457298E-01
        2 -1    0    0  501    0 0.00000000E+00 0.00000000E+00 0.14986065E+04 0.14986065E+04 0.32000000E+00 0.0000E+00 0.9000E+01
       -2 -1    0    0    0  502 0.00000000E+00 0.00000000E+00 -.24477583E+03 0.24477604E+03 0.32000000E+00 0.0000E+00 0.9000E+01
       25  2    1    2    0    0 -.23593308E+03 -.74471501E+02 0.11451890E+04 0.12094412E+04 0.30013304E+03 0.0000E+00 0.0000E+00
       23  2    1    2    0    0 -.74431023E+02 0.13857470E+03 0.12075637E+03 0.21679400E+03 0.87604869E+02 0.0000E+00 0.0000E+00
       23  1    3    3    0    0 -.24325770E+01 -.52548310E+02 0.59762600E+03 0.60682726E+03 0.91188000E+02 0.0000E+00 0.9000E+01
      -11  1    4    4    0    0 -.18503830E+02 0.11901942E+03 0.87233467E+02 0.14872018E+03 0.51099893E-03 0.0000E+00 0.9000E+01
       11  1    4    4    0    0 -.55927193E+02 0.19555277E+02 0.33522907E+02 0.68073821E+02 0.51099893E-03 0.0000E+00 0.9000E+01
       23  1    3    3    0    0 -.23350051E+03 -.21923191E+02 0.54756301E+03 0.60261399E+03 0.91188000E+02 0.0000E+00 0.9000E+01
       21  1    1    2  501  502 0.31036411E+03 -.64103200E+02 -.12114706E+02 0.31714733E+03 0.75000000E+00 0.0000E+00 0.9000E+01
#aMCatNLO 2  0  0  2  1 0.31691497D+03 0.00000000D+00  -5  7  0 0.00000000D+00 0.00000000D+00 0.00000000D+00 0.00000000D+00 0.00000000D+00
  <mgrwgt>
 0.3442091305D-04    1    2    0
 0.287703919561801D+03 0.000000000000000D+00 0.000000000000000D+00 0.287703919561801D+03
 0.287703919561801D+03 0.000000000000000D+00 0.000000000000000D+00 -.287703919561801D+03
 0.193827896896268D+03 0.881416184322214D+02 -.712556789929785D+02 0.128092488392679D+03
 0.153464561982157D+03 0.591291572025189D+02 0.102984957311301D+03 -.972070631203549D+02
 0.626334257501958D+02 -.191998568493916D+02 0.119695427823273D+02 -.584041228317847D+02
 0.165481954494981D+03 -.128070918785349D+03 -.436988211006501D+02 0.275186975594607D+02
 0.000000000000000D+00 0.000000000000000D+00 -.000000000000000D+00 -.000000000000000D+00
 0.365669192377424D+03 0.000000000000000D+00 0.000000000000000D+00 0.365669192377424D+03
 0.100315396315978D+04 0.000000000000000D+00 0.000000000000000D+00 -.100315396315978D+04
 0.165801626245645D+03 -.243257700789708D+01 -.525483102313744D+02 0.128092488392679D+03
 0.154781226801733D+03 -.185038304148198D+02 0.119019424085922D+03 -.972070631203549D+02
 0.831943586598253D+02 -.559271926097002D+02 0.195552774428530D+02 -.584041228317847D+02
 0.253131671009095D+03 -.233500506431691D+03 -.219231910230090D+02 0.275186975594607D+02
 0.711914272820904D+03 0.310364106464108D+03 -.641032002743919D+02 -.637484770782356D+03
0.261188485041D-05 0.000000000000D+00 0.000000000000D+00 0.405027448323D-07 0.459640743191D-11  7 2 -2 23 -11 11 23 21 2 0.23055475D+00 0.37657820D-01 0.18212259D+06 0.18212259D+06 0.18212259D+06 0.11009624D+01  1  2  1  2  7  2       -2 0.344209130488D-04 0.100000000000D+01
  </mgrwgt>
  </event>
  <event>
  8     66 0.55102590E-06 0.14433701E+03 0.75467711E-02 0.10104182E+00
        2 -1    0    0  501    0 0.00000000E+00 0.00000000E+00 0.67152308E+02 0.67153070E+02 0.32000000E+00 0.0000E+00 0.9000E+01
       -2 -1    0    0    0  501 0.00000000E+00 0.00000000E+00 -.85889503E+03 0.85889509E+03 0.32000000E+00 0.0000E+00 0.9000E+01
       25  2    1    2    0    0 0.69255265E+02 0.63251014E+02 -.37538114E+03 0.49051239E+03 0.30148701E+03 0.0000E+00 0.0000E+00
       23  2    1    2    0    0 -.69255265E+02 -.63251014E+02 -.41636158E+03 0.43553577E+03 0.86818556E+02 0.0000E+00 0.0000E+00
       23  1    3    3    0    0 -.63106167E+02 0.10162432E+03 -.17358425E+03 0.22968812E+03 0.91188000E+02 0.0000E+00 0.9000E+01
      -11  1    4    4    0    0 -.78107984E+02 -.78104699E+02 -.36426722E+03 0.38064656E+03 0.51099893E-03 0.0000E+00 0.9000E+01
       11  1    4    4    0    0 0.88527197E+01 0.14853685E+02 -.52094366E+02 0.54889212E+02 0.51099893E-03 0.0000E+00 0.9000E+01
       23  1    3    3    0    0 0.13236143E+03 -.38373309E+02 -.20179690E+03 0.26082427E+03 0.91188000E+02 0.0000E+00 0.9000E+01
#aMCatNLO 1  0  0  1  2 0.12725242D+03 0.00000000D+00  -5  7  0 0.00000000D+00 0.00000000D+00 0.00000000D+00 0.00000000D+00 0.00000000D+00
  <mgrwgt>
 0.2822932485D-03    9    2    0
 0.240160705219967D+03 0.000000000000000D+00 0.000000000000000D+00 0.240160705219967D+03
 0.240160705219967D+03 0.000000000000000D+00 0.000000000000000D+00 -.240160705219967D+03
 0.156703817422755D+03 -.631061665416554D+02 0.101624322355951D+03 0.439425067670788D+02
 0.133433843776417D+03 -.781079844762162D+02 -.781046988771592D+02 -.748557909538123D+02
 0.199548016930008D+02 0.885271969840129D+01 0.148536850770809D+02 -.995949316880279D+01
 0.170228947547761D+03 0.132361431319470D+03 -.383733085558731D+02 0.408727773555363D+02
 0.000000000000000D+00 0.000000000000000D+00 -.000000000000000D+00 0.000000000000000D+00
 0.382429880243664D+03 0.000000000000000D+00 0.000000000000000D+00 0.382429880243664D+03
 0.278660896496727D+03 0.000000000000000D+00 0.000000000000000D+00 -.278660896496727D+03
 0.192104965371026D+03 -.982429050980565D+02 0.130408795995986D+03 0.439425067670788D+02
 0.140931744499967D+03 -.105745797569472D+03 -.554634425985204D+02 -.748557909538123D+02
 0.213227381858754D+02 0.469468756584185D+01 0.182599991298764D+02 -.995949316880279D+01
 0.142532728891733D+03 0.100855844884701D+03 -.125635220046899D+02 0.408727773555363D+02
 0.164198599791790D+03 0.984381702169856D+02 -.806418305226517D+02 0.103768983746937D+03
0.914970957614D-05 0.000000000000D+00 0.000000000000D+00 0.291241142646D-08 0.000000000000D+00  7 2 -2 23 -11 11 23 21 0 0.10331188D-01 0.13213776D+00 0.49154557D+05 0.49154557D+05 0.49154557D+05 0.11479474D+01  1  2  2  1  7  1        2 0.302898261051D-03 0.100000000000D+01
-.504367094740D-06 0.000000000000D+00 -.351372939462D-07 0.291241142646D-08 0.000000000000D+00  7 2 -2 23 -11 11 23 21 2 0.10331188D-01 0.13213776D+00 0.49154557D+05 0.49154557D+05 0.49154557D+05 0.11479474D+01  1  2  3  1  7  1        2 -.220029138081D-04 0.100000000000D+01
0.584219181726D-06 0.000000000000D+00 0.000000000000D+00 0.291241142646D-08 0.000000000000D+00  7 2 -2 23 -11 11 23 21 2 0.10331188D-01 0.13213776D+00 0.49154557D+05 0.49154557D+05 0.49154557D+05 0.11479474D+01  1  2 15  1  7  1        2 0.254864451599D-04 0.100000000000D+01
0.306509263321D-05 0.000000000000D+00 0.000000000000D+00 0.291241142646D-08 0.000000000000D+00  7 2 -2 23 -11 11 23 21 2 0.16877751D-01 0.13213776D+00 0.86751763D+05 0.86751763D+05 0.86751763D+05 0.11268225D+01  1  2 12  1  7  1        2 0.699448326445D-04 0.100000000000D+01
-.647648897047D-05 0.000000000000D+00 0.000000000000D+00 0.291241142646D-08 0.000000000000D+00  7 2 -2 23 -11 11 23 21 2 0.10331188D-01 0.13213776D+00 0.49154557D+05 0.49154557D+05 0.49154557D+05 0.11479474D+01  1  2  4  1  7  1        2 -.282535538267D-03 0.100000000000D+01
-.672746232976D-05 0.000000000000D+00 -.326582407258D-05 0.291241142646D-08 0.000000000000D+00  7 2 -2 23 -11 11 23 21 2 0.19010167D-01 0.13213776D+00 0.49154557D+05 0.49154557D+05 0.49154557D+05 0.11479474D+01  1  2  5  1  7  1        2 -.139315576318D-03 0.100000000000D+01
0.775696377018D-05 0.000000000000D+00 0.274032371550D-05 0.291241142646D-08 0.000000000000D+00  7 2 -2 23 -11 11 23 21 2 0.10331188D-01 0.13213776D+00 0.49154557D+05 0.49154557D+05 0.49154557D+05 0.11479474D+01  1  2  6  1  7  1        2 0.338395995750D-03 0.100000000000D+01
0.170311997194D-06 0.000000000000D+00 0.000000000000D+00 0.291241142646D-08 0.000000000000D+00  7 21 -2 23 -11 11 23 -2 2 0.16877751D-01 0.13213776D+00 0.86751763D+05 0.86751763D+05 0.86751763D+05 0.11268225D+01  1  2 12  3  7  1        2 0.303222008046D-04 0.100000000000D+01
-.268738314023D-06 0.000000000000D+00 -.217450167310D-06 0.291241142646D-08 0.000000000000D+00  7 21 -2 23 -11 11 23 -2 2 0.19010167D-01 0.13213776D+00 0.49154557D+05 0.49154557D+05 0.49154557D+05 0.11479474D+01  1  2  5  3  7  1        2 -.409004584941D-04 0.100000000000D+01
  </mgrwgt>
  </event>
  <event>
  8     66 0.55102590E-06 0.25168602E+03 0.75467711E-02 0.10115552E+00
        4 -1    0    0  501    0 0.00000000E+00 0.00000000E+00 0.12105996E+03 0.12106988E+03 0.15500000E+01 0.0000E+00 0.9000E+01
       -4 -1    0    0    0  501 0.00000000E+00 0.00000000E+00 -.57938340E+03 0.57938548E+03 0.15500000E+01 0.0000E+00 0.9000E+01
       25  2    1    2    0    0 -.44902543E+01 0.14886495E+03 -.20688679E+03 0.39430991E+03 0.30082757E+03 0.0000E+00 0.0000E+00
       23  2    1    2    0    0 0.44902543E+01 -.14886495E+03 -.25143665E+03 0.30614545E+03 0.91234371E+02 0.0000E+00 0.0000E+00
       23  1    3    3    0    0 -.11221662E+03 0.22774904E+02 -.87256790E+02 0.17041204E+03 0.91188000E+02 0.0000E+00 0.9000E+01
      -11  1    4    4    0    0 0.20287384E+02 -.24092094E+01 -.86918936E+01 0.22202055E+02 0.51099893E-03 0.0000E+00 0.9000E+01
       11  1    4    4    0    0 -.15797130E+02 -.14645574E+03 -.24274476E+03 0.28394339E+03 0.51099893E-03 0.0000E+00 0.9000E+01
       23  1    3    3    0    0 0.10772636E+03 0.12609005E+03 -.11963000E+03 0.22389787E+03 0.91188000E+02 0.0000E+00 0.9000E+01
#aMCatNLO 1  0  0  2  1 0.77302536D+02 0.00000000D+00  -5  7  0 0.00000000D+00 0.00000000D+00 0.00000000D+00 0.00000000D+00 0.00000000D+00
  <mgrwgt>
 0.3630159485D-04    4    2    0
 0.264847756387102D+03 0.000000000000000D+00 0.000000000000000D+00 0.264847756387102D+03
 0.264847756387102D+03 0.000000000000000D+00 0.000000000000000D+00 -.264847756387102D+03
 0.149848721934547D+03 -.112216615381900D+03 0.227749043190278D+02 0.320643585138877D+02
 0.218386784677677D+02 0.202873839838921D+02 -.240920942380707D+01 0.771658203227939D+01
 0.165442329610488D+03 -.157971297211318D+02 -.146455740427402D+03 -.753148804379355D+02
 0.192565782761400D+03 0.107726361119140D+03 0.126090045532182D+03 0.355339398917684D+02
 0.000000000000000D+00 -.000000000000000D+00 -.000000000000000D+00 0.000000000000000D+00
 0.372388280094306D+03 0.000000000000000D+00 0.000000000000000D+00 0.372388280094306D+03
 0.281917043428182D+03 0.000000000000000D+00 0.000000000000000D+00 -.281917043428182D+03
 0.149863434585885D+03 -.105902491504078D+03 0.435928536368001D+02 0.320643585138877D+02
 0.225928800333127D+02 0.212234366542862D+02 0.676998168583546D+00 0.771658203227939D+01
 0.146072362306905D+03 -.923435836956709D+01 -.124817989248512D+03 -.753148804379355D+02
 0.216777794529665D+03 0.116350122282563D+03 0.154522972459588D+03 0.355339398917684D+02
 0.118998852066720D+03 -.224367090632035D+02 -.739748350164599D+02 0.904712366661237D+02
0.670690647442D-05 0.000000000000D+00 0.000000000000D+00 0.865030502218D-07 0.000000000000D+00  7 4 -4 23 -11 11 23 21 0 0.18625532D-01 0.89136831D-01 0.63345851D+05 0.63345851D+05 0.63345851D+05 0.11383659D+01  1  2  2  2  7  2       -4 0.417768544150D-04 0.100000000000D+01
-.371428828714D-06 0.000000000000D+00 -.257562868308D-07 0.865030502218D-07 0.000000000000D+00  7 4 -4 23 -11 11 23 21 2 0.18625532D-01 0.89136831D-01 0.63345851D+05 0.63345851D+05 0.63345851D+05 0.11383659D+01  1  2  3  2  7  2       -4 -.299814648361D-05 0.100000000000D+01
0.424410284664D-06 0.000000000000D+00 0.000000000000D+00 0.865030502218D-07 0.000000000000D+00  7 4 -4 23 -11 11 23 21 2 0.18625532D-01 0.89136831D-01 0.63345851D+05 0.63345851D+05 0.63345851D+05 0.11383659D+01  1  2 15  2  7  2       -4 0.342580894159D-05 0.100000000000D+01
-.731290290177D-06 0.000000000000D+00 0.000000000000D+00 0.865030502218D-07 0.000000000000D+00  7 4 -4 23 -11 11 23 21 2 0.18625532D-01 0.89136831D-01 0.63345851D+05 0.63345851D+05 0.63345851D+05 0.11383659D+01  1  2  4  2  7  2       -4 -.590292202030D-05 0.100000000000D+01
  </mgrwgt>
  </event>
  <event>
  9     66 0.55102590E-06 0.24085606E+03 0.75467711E-02 0.10079977E+00
        2 -1    0    0  502    0 0.00000000E+00 0.00000000E+00 0.15675084E+04 0.15675085E+04 0.32000000E+00 0.0000E+00 0.9000E+01
       -2 -1    0    0    0  501 0.00000000E+00 0.00000000E+00 -.19958908E+03 0.19958934E+03 0.32000000E+00 0.0000E+00 0.9000E+01
       25  2    1    2    0    0 -.11480314E+03 -.16238173E+03 0.96578199E+03 0.10305371E+04 0.29954026E+03 0.0000E+00 0.0000E+00
       23  2    1    2    0    0 0.94526866E+02 0.42512279E+02 -.13087980E+03 0.18985446E+03 0.90402280E+02 0.0000E+00 0.0000E+00
       23  1    3    3    0    0 -.30778974E+02 -.19116326E+03 0.43627474E+03 0.48594407E+03 0.91188000E+02 0.0000E+00 0.9000E+01
      -13  1    4    4    0    0 0.95522014E+02 0.64528516E+02 -.10580283E+03 0.15646928E+03 0.10565837E+00 0.0000E+00 0.9000E+01
       13  1    4    4    0    0 -.99514813E+00 -.22016237E+02 -.25076962E+02 0.33385179E+02 0.10565837E+00 0.0000E+00 0.9000E+01
       23  1    3    3    0    0 -.84024170E+02 0.28781533E+02 0.52950725E+03 0.54459308E+03 0.91188000E+02 0.0000E+00 0.9000E+01
       21  1    1    2  502  501 0.20276277E+02 0.11986945E+03 0.53301716E+03 0.54670620E+03 0.75000000E+00 0.0000E+00 0.9000E+01
#aMCatNLO 2  0  0  1  2 0.12157225D+03 0.00000000D+00  -5  7  0 0.00000000D+00 0.00000000D+00 0.00000000D+00 0.00000000D+00 0.00000000D+00
  <mgrwgt>
 0.1510953247D-03    2    2    0
 0.440883823017938D+03 0.000000000000000D+00 0.000000000000000D+00 0.440883823017938D+03
 0.440883823017938D+03 0.000000000000000D+00 0.000000000000000D+00 -.440883823017938D+03
 0.232778563855408D+03 -.251737662504285D+02 -.158026355356300D+03 0.142353647484564D+03
 0.327706464732655D+03 0.102862807383402D+03 0.107925211118706D+03 -.291826864235907D+03
 0.669340007374658D+02 0.563634135290776D+00 -.128003548014701D+02 -.656962227851882D+02
 0.254348616710347D+03 -.782526752682647D+02 0.629014990390641D+02 0.215169439536531D+03
 0.000000000000000D+00 0.000000000000000D+00 0.000000000000000D+00 0.000000000000000D+00
 0.678857594450830D+03 0.000000000000000D+00 0.000000000000000D+00 0.678857594450830D+03
 0.460858185854371D+03 0.000000000000000D+00 0.000000000000000D+00 -.460858185854371D+03
 0.257041924603811D+03 -.307789736161510D+02 -.191163263968284D+03 0.142353647484564D+03
 0.313769570996357D+03 0.955221462940448D+02 0.645286336509185D+02 -.291826864235907D+03
 0.692943299272142D+02 -.995279916801443D+00 -.220163550504562D+02 -.656962227851882D+02
 0.250003153564147D+03 -.840241697734260D+02 0.287815328195014D+02 0.215169439536531D+03
 0.249606801213671D+03 0.202762770123337D+02 0.119869452548320D+03 0.217999408596460D+03
-.128056163661D-04 0.000000000000D+00 0.000000000000D+00 0.840565675300D-06 0.000000000000D+00  7 2 -2 23 -13 13 23 21 2 0.24314165D+00 0.29375149D-01 0.90061084D+05 0.90061084D+05 0.90061084D+05 0.11254720D+01  1  2 13  1  7  1        2 -.255137830269D-03 0.100000000000D+01
0.216900491913D-04 0.000000000000D+00 0.000000000000D+00 0.840565675300D-06 0.413078579286D-09  7 2 -2 23 -13 13 23 21 2 0.24115488D+00 0.30705998D-01 0.90061084D+05 0.90061084D+05 0.90061084D+05 0.11254720D+01  1  2  1  1  7  1        2 0.406233155013D-03 0.100000000000D+01
  </mgrwgt>
  </event>
  <event>
  8     66 0.55102590E-06 0.28770750E+03 0.75467711E-02 0.90683834E-01
        2 -1    0    0  501    0 0.00000000E+00 0.00000000E+00 0.41665547E+03 0.41665559E+03 0.32000000E+00 0.0000E+00 0.9000E+01
       -2 -1    0    0    0  501 0.00000000E+00 0.00000000E+00 -.76961865E+03 0.76961872E+03 0.32000000E+00 0.0000E+00 0.9000E+01
       25  2    1    2    0    0 0.64958233E+02 -.50913700E+03 -.28885718E+03 0.66114974E+03 0.30040048E+03 0.0000E+00 0.0000E+00
       23  2    1    2    0    0 -.64958233E+02 0.50913700E+03 -.64106003E+02 0.52512457E+03 0.90587974E+02 0.0000E+00 0.0000E+00
       23  1    3    3    0    0 0.70353040E+02 -.24004696E+03 -.15271538E+02 0.26668439E+03 0.91188000E+02 0.0000E+00 0.9000E+01
      -13  1    4    4    0    0 -.65575917E+02 0.51303656E+03 -.63073184E+02 0.52104218E+03 0.10565837E+00 0.0000E+00 0.9000E+01
       13  1    4    4    0    0 0.61768380E+00 -.38995585E+01 -.10328196E+01 0.40823976E+01 0.10565837E+00 0.0000E+00 0.9000E+01
       23  1    3    3    0    0 -.53948069E+01 -.26909004E+03 -.27358564E+03 0.39446535E+03 0.91188000E+02 0.0000E+00 0.9000E+01
#aMCatNLO 1  0  0  1  2 0.32897462D+03 0.00000000D+00  -5  7  0 0.00000000D+00 0.00000000D+00 0.00000000D+00 0.00000000D+00 0.00000000D+00
  <mgrwgt>
 0.2425165886D-03    7    2    0
 0.566273725847308D+03 0.000000000000000D+00 0.000000000000000D+00 0.566273725847308D+03
 0.566273725847308D+03 0.000000000000000D+00 0.000000000000000D+00 -.566273725847308D+03
 0.274576174710541D+03 0.703530398100640D+02 -.240046955750689D+03 0.671173092352745D+02
 0.526103555622370D+03 -.655760067774618D+02 0.513037262285560D+03 0.963198114624359D+02
 0.395346930048835D+01 0.617773850477881D+00 -.390026175949758D+01 0.190350169347425D+00
 0.327914252061218D+03 -.539480688308012D+01 -.269090044775374D+03 -.163627470867058D+03
 0.000000000000000D+00 0.000000000000000D+00 -.000000000000000D+00 0.000000000000000D+00
 0.170257047812167D+04 0.000000000000000D+00 0.000000000000000D+00 0.170257047812167D+04
 0.613991105339142D+03 0.000000000000000D+00 0.000000000000000D+00 -.613991105339142D+03
 0.216952872705326D+03 0.305688431629372D+02 -.182521533687917D+03 0.671173092352745D+02
 0.681250796027611D+03 -.163298864055859D+03 0.654338308527141D+03 0.963198114624359D+02
 0.308301644938034D+01 0.482430480782549D-01 -.307675638432611D+01 0.190350169347425D+00
 0.278072475495758D+03 -.544431698667597D+02 -.198169226462759D+03 -.163627470867058D+03
 0.113720242278274D+04 0.187124947711603D+03 -.270570791992139D+03 0.108857937278253D+04
0.765924132660D-04 0.000000000000D+00 0.000000000000D+00 0.126882990294D-05 0.000000000000D+00  7 2 -2 23 -13 13 23 21 0 0.64100856D-01 0.11840288D+00 0.28707040D+06 0.28707040D+06 0.28707040D+06 0.10859702D+01  1  2  2  1  7  1        2 0.389585981912D-03 0.100000000000D+01
-.423929194635D-05 0.000000000000D+00 -.294135034187D-06 0.126882990294D-05 0.000000000000D+00  7 2 -2 23 -13 13 23 21 2 0.64100856D-01 0.11840288D+00 0.28707040D+06 0.28707040D+06 0.28707040D+06 0.10859702D+01  1  2  3  1  7  1        2 -.254300224488D-04 0.100000000000D+01
0.484206289143D-05 0.000000000000D+00 0.000000000000D+00 0.126882990294D-05 0.000000000000D+00  7 2 -2 23 -13 13 23 21 2 0.64100856D-01 0.11840288D+00 0.28707040D+06 0.28707040D+06 0.28707040D+06 0.10859702D+01  1  2 15  1  7  1        2 0.290458334990D-04 0.100000000000D+01
0.763853854730D-04 0.000000000000D+00 0.000000000000D+00 0.126882990294D-05 0.000000000000D+00  7 2 -2 23 -13 13 23 21 2 0.18912572D+00 0.11840288D+00 0.51667564D+06 0.51667564D+06 0.51667564D+06 0.10675049D+01  1  2 12  1  7  1        2 0.107596626987D-03 0.100000000000D+01
-.179691465963D-03 0.000000000000D+00 -.249906324823D-04 0.126882990294D-05 0.000000000000D+00  7 2 -2 23 -13 13 23 21 2 0.19804015D+00 0.11840288D+00 0.28707040D+06 0.28707040D+06 0.28707040D+06 0.10859702D+01  1  2  5  1  7  1        2 -.250563591006D-03 0.100000000000D+01
0.937367811637D-05 0.000000000000D+00 0.000000000000D+00 0.126882990294D-05 0.000000000000D+00  7 21 -2 23 -13 13 23 -2 2 0.18912572D+00 0.11840288D+00 0.51667564D+06 0.51667564D+06 0.51667564D+06 0.10675049D+01  1  2 12  3  7  1        2 0.639840821073D-05 0.100000000000D+01
-.220145287653D-04 0.000000000000D+00 -.322528797145D-05 0.126882990294D-05 0.000000000000D+00  7 21 -2 23 -13 13 23 -2 2 0.19804015D+00 0.11840288D+00 0.28707040D+06 0.28707040D+06 0.28707040D+06 0.10859702D+01  1  2  5  3  7  1        2 -.141166485223D-04 0.100000000000D+01
  </mgrwgt>
  </event>
  <event>
  8     66 0.55102590E-06 0.26809406E+03 0.75467711E-02 0.91677571E-01
        2 -1    0    0  501    0 0.00000000E+00 0.00000000E+00 0.19241754E+04 0.19241755E+04 0.32000000E+00 0.0000E+00 0.9000E+01
       -2 -1    0    0    0  501 0.00000000E+00 0.00000000E+00 -.57426767E+02 0.57427658E+02 0.32000000E+00 0.0000E+00 0.9000E+01
       25  2    1    2    0    0 -.93266421E+02 -.17452360E+03 0.15931299E+04 0.16327217E+04 0.29759062E+03 0.0000E+00 0.0000E+00
       23  2    1    2    0    0 0.93266421E+02 0.17452360E+03 0.27361878E+03 0.34888143E+03 0.87714878E+02 0.0000E+00 0.0000E+00
       23  1    3    3    0    0 0.39828874E+02 -.18102811E+02 0.23087276E+03 0.25205463E+03 0.91188000E+02 0.0000E+00 0.9000E+01
      -13  1    4    4    0    0 -.60368890E+01 0.53241591E+02 0.37241789E+02 0.65253913E+02 0.10565837E+00 0.0000E+00 0.9000E+01
       13  1    4    4    0    0 0.99303310E+02 0.12128201E+03 0.23637699E+03 0.28362752E+03 0.10565837E+00 0.0000E+00 0.9000E+01
       23  1    3    3    0    0 -.13309530E+03 -.15642079E+03 0.13622571E+04 0.13806671E+04 0.91188000E+02 0.0000E+00 0.9000E+01
#aMCatNLO 1  0  0  2  1 0.57289904D+03 0.00000000D+00  -5  7  0 0.00000000D+00 0.00000000D+00 0.00000000D+00 0.00000000D+00 0.00000000D+00
  <mgrwgt>
 0.3653305244D-03    3    2    0
 0.332415529773102D+03 0.000000000000000D+00 0.000000000000000D+00 0.332415529773102D+03
 0.332415529773102D+03 0.000000000000000D+00 0.000000000000000D+00 -.332415529773102D+03
 0.103019875246978D+03 0.398288739243637D+02 -.181028115491165D+02 -.195906193837053D+02
 0.899269182569178D+02 -.603704132368177D+01 0.532414929481670D+02 -.722201369971895D+02
 0.181671450735542D+03 0.993034628434102D+02 0.121282111586121D+03 -.918367447641506D+02
 0.290212815306767D+03 -.133095295444092D+03 -.156420792985171D+03 0.183647501145045D+03
 0.000000000000000D+00 -.000000000000000D+00 -.000000000000000D+00 0.000000000000000D+00
 0.919885902018423D+03 0.000000000000000D+00 0.000000000000000D+00 0.919885902018423D+03
 0.609370884818544D+03 0.000000000000000D+00 0.000000000000000D+00 -.609370884818544D+03
 0.151207999993880D+03 0.110270667283002D+03 0.447794091885269D+02 -.195906193837053D+02
 0.145381259597004D+03 0.591624574499274D+02 0.111444004246994D+03 -.722201369971895D+02
 0.373253063793699D+03 0.253062675695570D+03 0.258540410985026D+03 -.918367447641506D+02
 0.207775845461175D+03 0.488805631670843D+01 -.332453431585724D+02 0.183647501145045D+03
 0.651638617991210D+03 -.427383856745207D+03 -.381518481261975D+03 0.310515017199879D+03
0.497149673691D-05 0.000000000000D+00 0.000000000000D+00 0.233214995931D-08 0.000000000000D+00  7 2 -2 23 -13 13 23 21 0 0.29602706D+00 0.88349578D-02 0.71874423D+05 0.71874423D+05 0.71874423D+05 0.11336853D+01  1  2  2  2  7  2       -2 0.360060463958D-03 0.100000000000D+01
-.260664437072D-06 0.000000000000D+00 -.190918564949D-07 0.233214995931D-08 0.000000000000D+00  7 2 -2 23 -13 13 23 21 2 0.29602706D+00 0.88349578D-02 0.71874423D+05 0.71874423D+05 0.71874423D+05 0.11336853D+01  1  2  3  2  7  2       -2 -.242635922084D-04 0.100000000000D+01
0.317280841290D-06 0.000000000000D+00 0.000000000000D+00 0.233214995931D-08 0.000000000000D+00  7 2 -2 23 -13 13 23 21 2 0.29602706D+00 0.88349578D-02 0.71874423D+05 0.71874423D+05 0.71874423D+05 0.11336853D+01  1  2 15  2  7  2       -2 0.295336526726D-04 0.100000000000D+01
  </mgrwgt>
  </event>
  <event>
  9     66 0.55102590E-06 0.40082573E+03 0.75467711E-02 0.95861391E-01
        2 -1    0    0  501    0 0.00000000E+00 0.00000000E+00 0.12169118E+04 0.12169119E+04 0.32000000E+00 0.0000E+00 0.9000E+01
       -2 -1    0    0    0  502 0.00000000E+00 0.00000000E+00 -.18063566E+03 0.18063595E+03 0.32000000E+00 0.0000E+00 0.9000E+01
       25  2    1    2    0    0 -.23238202E+02 0.30807351E+03 0.45576634E+03 0.62708307E+03 0.30010152E+03 0.0000E+00 0.0000E+00
       23  2    1    2    0    0 0.32636241E+02 -.40096736E+03 0.45835783E+03 0.61671409E+03 0.91675633E+02 0.0000E+00 0.0000E+00
       23  1    3    3    0    0 0.21080577E+02 0.26897296E+03 0.42941108E+03 0.51526689E+03 0.91188000E+02 0.0000E+00 0.9000E+01
      -11  1    4    4    0    0 0.41520764E+02 -.80040286E+02 0.80425332E+02 0.12082490E+03 0.51099893E-03 0.0000E+00 0.9000E+01
       11  1    4    4    0    0 -.88845236E+01 -.32092707E+03 0.37793250E+03 0.49588919E+03 0.51099893E-03 0.0000E+00 0.9000E+01
       23  1    3    3    0    0 -.44318779E+02 0.39100551E+02 0.26355262E+02 0.11181618E+03 0.91188000E+02 0.0000E+00 0.9000E+01
       21  1    1    2  501  502 -.93980388E+01 0.92893848E+02 0.12215197E+03 0.15375063E+03 0.75000000E+00 0.0000E+00 0.9000E+01
#aMCatNLO 2  0  0  2  1 0.93368036D+02 0.00000000D+00  -5  7  0 0.00000000D+00 0.00000000D+00 0.00000000D+00 0.00000000D+00 0.00000000D+00
  <mgrwgt>
 0.8894404067D-04    1    2    0
 0.419133269746856D+03 0.000000000000000D+00 0.000000000000000D+00 0.419133269746856D+03
 0.419133269746856D+03 0.000000000000000D+00 0.000000000000000D+00 -.419133269746856D+03
 0.325839401672944D+03 0.176141868414685D+02 0.303236102401053D+03 0.747908481106762D+02
 0.822381126144521D+02 0.405525882540916D+02 -.704704586262572D+02 -.123494620646562D+02
 0.288189586741727D+03 -.122926098793768D+02 -.287240229211760D+03 0.198791441238463D+02
 0.141999438464589D+03 -.458741652161834D+02 0.544745854369637D+02 -.823205301698663D+02
 0.000000000000000D+00 -.000000000000000D+00 0.000000000000000D+00 0.000000000000000D+00
 0.475643602874869D+03 0.000000000000000D+00 0.000000000000000D+00 0.475643602874869D+03
 0.462145389408413D+03 0.000000000000000D+00 0.000000000000000D+00 -.462145389408413D+03
 0.294448238841052D+03 0.210805773922179D+02 0.268972958321638D+03 0.747908481106762D+02
 0.910106066605652D+02 0.415207644423625D+02 -.800402863035832D+02 -.123494620646562D+02
 0.321664887983996D+03 -.888452361351185D+01 -.320927071202822D+03 0.198791441238463D+02
 0.136326550391148D+03 -.443187794325846D+02 0.391005511432807D+02 -.823205301698663D+02
 0.943387084065214D+02 -.939803878848396D+01 0.928938480414865D+02 0.134982134664562D+02
0.275054840051D-05 0.000000000000D+00 0.000000000000D+00 0.504847659736D-06 0.384330903084D-09  7 2 -2 23 -11 11 23 21 2 0.18721663D+00 0.27790038D-01 0.20162077D+06 0.20162077D+06 0.20162077D+06 0.10975563D+01  1  2  1  2  7  2       -2 0.889440406675D-04 0.100000000000D+01
  </mgrwgt>
  </event>
  <event>
  9     66 0.55102590E-06 0.31636119E+03 0.75467711E-02 0.95473831E-01
        2 -1    0    0  501    0 0.00000000E+00 0.00000000E+00 0.22224451E+04 0.22224451E+04 0.32000000E+00 0.0000E+00 0.9000E+01
       -2 -1    0    0    0  502 0.00000000E+00 0.00000000E+00 -.12851705E+03 0.12851745E+03 0.32000000E+00 0.0000E+00 0.9000E+01
       25  2    1    2    0    0 0.40628231E+03 0.77130928E+02 0.63752926E+03 0.81630583E+03 0.29815625E+03 0.0000E+00 0.0000E+00
       23  2    1    2    0    0 -.16350716E+03 -.13336119E+03 0.78603419E+03 0.81947085E+03 0.95723134E+02 0.0000E+00 0.0000E+00
       23  1    3    3    0    0 0.26987380E+03 0.14436059E+02 0.55111178E+03 0.62054792E+03 0.91188000E+02 0.0000E+00 0.9000E+01
      -11  1    4    4    0    0 -.16808345E+03 -.12710202E+03 0.65191737E+03 0.68513008E+03 0.51099893E-03 0.0000E+00 0.9000E+01
       11  1    4    4    0    0 0.45762862E+01 -.62591700E+01 0.13411682E+03 0.13434077E+03 0.51099893E-03 0.0000E+00 0.9000E+01
       23  1    3    3    0    0 0.13640851E+03 0.62694869E+02 0.86417476E+02 0.19575791E+03 0.91188000E+02 0.0000E+00 0.9000E+01
       21  1    1    2  501  502 -.24277515E+03 0.56230265E+02 0.67036461E+03 0.71518591E+03 0.75000000E+00 0.0000E+00 0.9000E+01
#aMCatNLO 2  0  0  2  1 0.24920196D+03 0.00000000D+00  -5  7  0 0.00000000D+00 0.00000000D+00 0.00000000D+00 0.00000000D+00 0.00000000D+00
  <mgrwgt>
 0.2620394103D-04    1    2    0
 0.383122309097941D+03 0.000000000000000D+00 0.000000000000000D+00 0.383122309097941D+03
 0.383122309097941D+03 0.000000000000000D+00 0.000000000000000D+00 -.383122309097941D+03
 0.216416930188042D+03 0.192264285935830D+03 0.324115547978460D+02 0.224715775411422D+02
 0.295380302849078D+03 -.250631054347598D+03 -.107982793706580D+03 0.113019087640744D+03
 0.357127773743152D+02 -.646450295273682D+01 -.370196218614466D+01 0.349271834726737D+02
 0.218734607784446D+03 0.648312713645051D+02 0.792732010948784D+02 -.170417848654560D+03
 0.000000000000000D+00 -.000000000000000D+00 0.000000000000000D+00 0.000000000000000D+00
 0.585332967094908D+03 0.000000000000000D+00 0.000000000000000D+00 0.585332967094908D+03
 0.487965017231002D+03 0.000000000000000D+00 0.000000000000000D+00 -.487965017231002D+03
 0.286112726861993D+03 0.269873802978770D+03 0.144360589148796D+02 0.224715775411422D+02
 0.239123992872400D+03 -.168083448119076D+03 -.127102023054297D+03 0.113019087640744D+03
 0.357774754482550D+02 0.457628621661744D+01 -.625916995936945D+01 0.349271834726737D+02
 0.244735412880675D+03 0.136408508574448D+03 0.626948691865693D+02 -.170417848654560D+03
 0.267548376262587D+03 -.242775149650759D+03 0.562302649122175D+02 0.973679498639060D+02
0.162559143324D-05 0.000000000000D+00 0.000000000000D+00 0.511693324005D-08 0.613408348442D-12  7 2 -2 23 -11 11 23 21 2 0.34191432D+00 0.19771867D-01 0.21555818D+06 0.21555818D+06 0.21555818D+06 0.10953354D+01  1  2  1  2  7  2       -2 0.262039410294D-04 0.100000000000D+01
  </mgrwgt>
  </event>
  <event>
  8     66 0.55102590E-06 0.48056627E+03 0.75467711E-02 0.89430595E-01
        2 -1    0    0  501    0 0.00000000E+00 0.00000000E+00 0.13129423E+04 0.13129423E+04 0.32000000E+00 0.0000E+00 0.9000E+01
       -2 -1    0    0    0  501 0.00000000E+00 0.00000000E+00 -.20095451E+03 0.20095476E+03 0.32000000E+00 0.0000E+00 0.9000E+01
       25  2    1    2    0    0 0.11976342E+03 -.41342020E+03 0.85452701E+03 0.10040840E+04 0.30448121E+03 0.0000E+00 0.0000E+00
       23  2    1    2    0    0 -.11976342E+03 0.41342020E+03 0.25746075E+03 0.50981303E+03 0.91453509E+02 0.0000E+00 0.0000E+00
       23  1    3    3    0    0 0.78902996E+01 -.24243290E+01 0.14251722E+03 0.16939464E+03 0.91188000E+02 0.0000E+00 0.9000E+01
      -11  1    4    4    0    0 0.46792124E+01 0.41951311E+02 0.53477236E+02 0.68129452E+02 0.51099893E-03 0.0000E+00 0.9000E+01
       11  1    4    4    0    0 -.12444263E+03 0.37146889E+03 0.20398351E+03 0.44168357E+03 0.51099893E-03 0.0000E+00 0.9000E+01
       23  1    3    3    0    0 0.11187312E+03 -.41099588E+03 0.71200980E+03 0.83468941E+03 0.91188000E+02 0.0000E+00 0.9000E+01
#aMCatNLO 1  0  0  2  2 0.52989231D+03 0.00000000D+00  -5  7  0 0.00000000D+00 0.00000000D+00 0.00000000D+00 0.00000000D+00 0.00000000D+00
  <mgrwgt>
 0.3222314097D-03    5    2    0
 0.513655418747524D+03 0.000000000000000D+00 0.000000000000000D+00 0.513655418747524D+03
 0.513655418747524D+03 0.000000000000000D+00 0.000000000000000D+00 -.513655418747524D+03
 0.953641665445524D+02 0.789029963277038D+01 -.242432897182853D+01 0.266634340901280D+02
 0.425138570959729D+02 0.467921244300179D+01 0.419513105779779D+02 0.506167530370223D+01
 0.430090178214058D+03 -.124442628201707D+03 0.371468894404077D+03 -.177489307206561D+03
 0.459342635640465D+03 0.111873116125935D+03 -.410995876010226D+03 0.145764197812731D+03
 0.000000000000000D+00 -.000000000000000D+00 -.000000000000000D+00 -.000000000000000D+00
 0.617278342431711D+03 0.000000000000000D+00 0.000000000000000D+00 0.617278342431711D+03
 0.236332011085655D+04 0.000000000000000D+00 0.000000000000000D+00 -.236332011085655D+04
 0.111334829909875D+03 0.580371600710313D+02 -.970742227235173D+00 0.266634340901280D+02
 0.508757322205942D+02 0.273362876208047D+02 0.426080620448071D+02 0.506167530370223D+01
 0.425324098635021D+03 0.830878440979222D+02 0.377484496198437D+03 -.177489307206561D+03
 0.568386364405322D+03 0.361208544055854D+03 -.403768490889224D+03 0.145764197812731D+03
 0.182467742811745D+04 -.529669835845612D+03 -.153533251267848D+02 -.174604176842484D+04
0.191399468722D-04 0.000000000000D+00 0.000000000000D+00 0.291913359255D-07 0.000000000000D+00  7 2 -2 23 -11 11 23 21 0 0.20199114D+00 0.30916101D-01 0.23094394D+06 0.23094394D+06 0.23094394D+06 0.10930590D+01  1  2  2  2  7  2       -2 0.374083706989D-03 0.100000000000D+01
-.105759799759D-05 0.000000000000D+00 -.735024356531D-07 0.291913359255D-07 0.000000000000D+00  7 2 -2 23 -11 11 23 21 2 0.20199114D+00 0.30916101D-01 0.23094394D+06 0.23094394D+06 0.23094394D+06 0.10930590D+01  1  2  3  2  7  2       -2 -.246965282859D-04 0.100000000000D+01
0.121729619155D-05 0.000000000000D+00 0.000000000000D+00 0.291913359255D-07 0.000000000000D+00  7 2 -2 23 -11 11 23 21 2 0.20199114D+00 0.30916101D-01 0.23094394D+06 0.23094394D+06 0.23094394D+06 0.10930590D+01  1  2 15  2  7  2       -2 0.284257249876D-04 0.100000000000D+01
-.305322361218D-04 0.000000000000D+00 -.801950491144D-05 0.291913359255D-07 0.000000000000D+00  7 2 -2 23 -11 11 23 21 2 0.20199114D+00 0.15609396D+00 0.23094394D+06 0.23094394D+06 0.23094394D+06 0.10930590D+01  1  2  5  2  7  2       -2 -.202201144717D-04 0.100000000000D+01
-.627132107671D-05 0.000000000000D+00 -.158345858532D-05 0.291913359255D-07 0.000000000000D+00  7 2 21 23 -11 11 23 2 2 0.20199114D+00 0.15609396D+00 0.23094394D+06 0.23094394D+06 0.23094394D+06 0.10930590D+01  1  2  5  4  7  2       -2 -.353613795424D-04 0.100000000000D+01
  </mgrwgt>
  </event>
  <event>
  8     66 0.55102590E-06 0.22793297E+03 0.75467711E-02 0.97505523E-01
        4 -1    0    0  501    0 0.00000000E+00 0.00000000E+00 0.16337919E+03 0.16338654E+03 0.15500000E+01 0.0000E+00 0.9000E+01
       -4 -1    0    0    0  501 0.00000000E+00 0.00000000E+00 -.44428378E+03 0.44428648E+03 0.15500000E+01 0.0000E+00 0.9000E+01
       25  2    1    2    0    0 -.20197162E+02 -.15881254E+03 -.24787208E+03 0.42040961E+03 0.29945671E+03 0.0000E+00 0.0000E+00
       23  2    1    2    0    0 0.20197162E+02 0.15881254E+03 -.33032508E+02 0.18726342E+03 0.91362426E+02 0.0000E+00 0.0000E+00
       23  1    3    3    0    0 0.34193449E+01 -.15756226E+03 -.26807450E+03 0.32406288E+03 0.91188000E+02 0.0000E+00 0.9000E+01
      -11  1    4    4    0    0 0.51900098E+02 0.92009618E+02 0.15107509E+01 0.10564882E+03 0.51099893E-03 0.0000E+00 0.9000E+01
       11  1    4    4    0    0 -.31702936E+02 0.66802925E+02 -.34543259E+02 0.81614604E+02 0.51099893E-03 0.0000E+00 0.9000E+01
       23  1    3    3    0    0 -.23616507E+02 -.12502824E+01 0.20202425E+02 0.96346728E+02 0.91188000E+02 0.0000E+00 0.9000E+01
#aMCatNLO 1  0  0  2  1 0.25781892D+03 0.00000000D+00  -5  7  0 0.00000000D+00 0.00000000D+00 0.00000000D+00 0.00000000D+00 0.00000000D+00
  <mgrwgt>
 0.1267085180D-04    5    2    0
 0.269424906188621D+03 0.000000000000000D+00 0.000000000000000D+00 0.269424906188621D+03
 0.269424906188621D+03 0.000000000000000D+00 0.000000000000000D+00 -.269424906188621D+03
 0.225704657224833D+03 0.341934491278200D+01 -.157562260522801D+03 -.133378345649853D+03
 0.119930101594119D+03 0.519000979532987D+02 0.920096180519318D+02 0.567788630279915D+02
 0.740310803462736D+02 -.317029356687992D+02 0.668029248828464D+02 0.359081527137972D+01
 0.119183973212015D+03 -.236165071972815D+02 -.125028241197725D+01 0.730086673504822D+02
 0.000000000000000D+00 0.000000000000000D+00 0.000000000000000D+00 -.000000000000000D+00
 0.410467014395394D+03 0.000000000000000D+00 0.000000000000000D+00 0.410467014395394D+03
 0.447325540062173D+03 0.000000000000000D+00 0.000000000000000D+00 -.447325540062173D+03
 0.309094608871839D+03 -.703075937014138D+02 -.253951343901268D+03 -.133378345649853D+03
 0.828972252784370D+02 0.239385078285447D+02 0.554532101420218D+02 0.567788630279915D+02
 0.658966246360451D+02 -.509932413398468D+02 0.415831759461300D+02 0.359081527137972D+01
 0.139463797619975D+03 -.592734527686723D+02 -.478674397808372D+02 0.730086673504822D+02
 0.260440298051270D+03 0.156635779981388D+03 0.204782397593954D+03 -.368585256667798D+02
0.171821111179D-05 0.000000000000D+00 0.000000000000D+00 0.736239112322D-07 0.000000000000D+00  7 4 -4 23 -11 11 23 21 0 0.25136034D-01 0.68352124D-01 0.51953438D+05 0.51953438D+05 0.51953438D+05 0.11458342D+01  1  2  2  2  7  2       -4 0.119102871818D-04 0.100000000000D+01
-.922101164089D-07 0.000000000000D+00 -.659838308464D-08 0.736239112322D-07 0.000000000000D+00  7 4 -4 23 -11 11 23 21 2 0.25136034D-01 0.68352124D-01 0.51953438D+05 0.51953438D+05 0.51953438D+05 0.11458342D+01  1  2  3  2  7  2       -4 -.839204625770D-06 0.100000000000D+01
0.110036631710D-06 0.000000000000D+00 0.000000000000D+00 0.736239112322D-07 0.000000000000D+00  7 4 -4 23 -11 11 23 21 2 0.25136034D-01 0.68352124D-01 0.51953438D+05 0.51953438D+05 0.51953438D+05 0.11458342D+01  1  2 15  2  7  2       -4 0.100144381041D-05 0.100000000000D+01
-.576339624604D-07 0.000000000000D+00 -.511679279107D-06 0.736239112322D-07 0.000000000000D+00  7 4 -4 23 -11 11 23 21 2 0.25136034D-01 0.15769328D+00 0.51953438D+05 0.51953438D+05 0.51953438D+05 0.11458342D+01  1  2  5  2  7  2       -4 -.501610376348D-07 0.100000000000D+01
0.271185099003D-07 0.000000000000D+00 -.465684584156D-07 0.736239112322D-07 0.000000000000D+00  7 4 21 23 -11 11 23 4 2 0.25136034D-01 0.15769328D+00 0.51953438D+05 0.51953438D+05 0.51953438D+05 0.11458342D+01  1  2  5  4  7  2       -4 0.648486471439D-06 0.100000000000D+01
  </mgrwgt>
  </event>
  <event>
  8     66 0.55102590E-06 0.14853222E+03 0.75467711E-02 0.99629293E-01
        2 -1    0    0  501    0 0.00000000E+00 0.00000000E+00 0.10995008E+04 0.10995008E+04 0.32000000E+00 0.0000E+00 0.9000E+01
       -2 -1    0    0    0  501 0.00000000E+00 0.00000000E+00 -.10794623E+03 0.10794670E+03 0.32000000E+00 0.0000E+00 0.9000E+01
       25  2    1    2    0    0 -.80188159E+02 0.21805818E+03 0.33452946E+03 0.50418476E+03 0.29717471E+03 0.0000E+00 0.0000E+00
       23  2    1    2    0    0 0.80188159E+02 -.21805818E+03 0.65702509E+03 0.70326277E+03 0.94430038E+02 0.0000E+00 0.0000E+00
       23  1    3    3    0    0 0.25847617E+02 0.20450278E+02 0.21141140E+03 0.23258621E+03 0.91188000E+02 0.0000E+00 0.9000E+01
      -13  1    4    4    0    0 0.15005285E+02 -.16381071E+03 0.39596900E+03 0.42877799E+03 0.10565837E+00 0.0000E+00 0.9000E+01
       13  1    4    4    0    0 0.65182875E+02 -.54247474E+02 0.26105609E+03 0.27448477E+03 0.10565837E+00 0.0000E+00 0.9000E+01
       23  1    3    3    0    0 -.10603578E+03 0.19760790E+03 0.12311806E+03 0.27159856E+03 0.91188000E+02 0.0000E+00 0.9000E+01
#aMCatNLO 1  0  0  1  2 0.66657600D+02 0.00000000D+00  -5  7  0 0.00000000D+00 0.00000000D+00 0.00000000D+00 0.00000000D+00 0.00000000D+00
  <mgrwgt>
 0.1592177524D-02    8    2    0
 0.344510198070001D+03 0.000000000000000D+00 0.000000000000000D+00 0.344510198070001D+03
 0.344510198070001D+03 0.000000000000000D+00 0.000000000000000D+00 -.344510198070001D+03
 0.103349199821724D+03 0.258476161074603D+02 0.204502786486937D+02 0.357699958700422D+02
 0.181565203400017D+03 0.150052248279925D+02 -.163810842465029D+03 0.768555411434237D+02
 0.105330026803714D+03 0.651829351157319D+02 -.542473390525977D+02 0.624725997688732D+02
 0.298775966114548D+03 -.106035776051185D+03 0.197607902868933D+03 -.175098136782339D+03
 0.000000000000000D+00 0.000000000000000D+00 0.000000000000000D+00 0.000000000000000D+00
 0.681926554263768D+03 0.000000000000000D+00 0.000000000000000D+00 0.681926554263768D+03
 0.349426469867788D+03 0.000000000000000D+00 0.000000000000000D+00 -.349426469867788D+03
 0.100657300659540D+03 0.187362064170625D+02 0.136419498833346D+02 0.357699958700422D+02
 0.192323575109197D+03 0.197193286744717D+01 -.176288669003713D+03 0.768555411434237D+02
 0.104896034690484D+03 0.578547193610515D+02 -.612632338320414D+02 0.624725997688732D+02
 0.294360290164317D+03 -.126711758976617D+03 0.177813108948767D+03 -.175098136782339D+03
 0.339115823508017D+03 0.481489003310559D+02 0.460968440036529D+02 0.332500084395980D+03
0.237900634984D-05 0.000000000000D+00 0.000000000000D+00 0.150368623587D-08 0.000000000000D+00  7 2 -2 23 -13 13 23 21 0 0.16915401D+00 0.16607152D-01 0.86539480D+05 0.86539480D+05 0.86539480D+05 0.11269110D+01  1  2  2  1  7  1        2 0.179589648010D-03 0.100000000000D+01
-.128158166315D-06 0.000000000000D+00 -.913601079013D-08 0.150368623587D-08 0.000000000000D+00  7 2 -2 23 -13 13 23 21 2 0.16915401D+00 0.16607152D-01 0.86539480D+05 0.86539480D+05 0.86539480D+05 0.11269110D+01  1  2  3  1  7  1        2 -.122860209208D-04 0.100000000000D+01
0.150998367052D-06 0.000000000000D+00 0.000000000000D+00 0.150368623587D-08 0.000000000000D+00  7 2 -2 23 -13 13 23 21 2 0.16915401D+00 0.16607152D-01 0.86539480D+05 0.86539480D+05 0.86539480D+05 0.11269110D+01  1  2 15  1  7  1        2 0.144756214134D-04 0.100000000000D+01
0.177242552893D-04 0.000000000000D+00 0.000000000000D+00 0.150368623587D-08 0.000000000000D+00  7 2 -2 23 -13 13 23 21 2 0.33486878D+00 0.16607152D-01 0.10821706D+06 0.10821706D+06 0.10821706D+06 0.11189185D+01  1  2 12  1  7  1        2 0.432033582779D-03 0.100000000000D+01
-.178141338088D-04 0.000000000000D+00 -.684684036254D-06 0.150368623587D-08 0.000000000000D+00  7 2 -2 23 -13 13 23 21 2 0.33594374D+00 0.16607152D-01 0.86539480D+05 0.86539480D+05 0.86539480D+05 0.11269110D+01  1  2  5  1  7  1        2 -.440153065708D-03 0.100000000000D+01
0.147967426727D-04 0.000000000000D+00 0.550048234969D-06 0.150368623587D-08 0.000000000000D+00  7 2 -2 23 -13 13 23 21 2 0.16915401D+00 0.16607152D-01 0.86539480D+05 0.86539480D+05 0.86539480D+05 0.11269110D+01  1  2  6  1  7  1        2 0.141850570481D-02 0.100000000000D+01
0.131039437329D-05 0.000000000000D+00 0.000000000000D+00 0.150368623587D-08 0.000000000000D+00  7 21 -2 23 -13 13 23 -2 2 0.33486878D+00 0.16607152D-01 0.10821706D+06 0.10821706D+06 0.10821706D+06 0.11189185D+01  1  2 12  3  7  1        2 0.555714421770D-05 0.100000000000D+01
-.128214063944D-05 0.000000000000D+00 -.508487852258D-07 0.150368623587D-08 0.000000000000D+00  7 21 -2 23 -13 13 23 -2 2 0.33594374D+00 0.16607152D-01 0.86539480D+05 0.86539480D+05 0.86539480D+05 0.11269110D+01  1  2  5  3  7  1        2 -.554509021039D-05 0.100000000000D+01
  </mgrwgt>
  </event>
  <event>
  8     66 0.55102590E-06 0.32176415E+03 0.75467711E-02 0.90435646E-01
        2 -1    0    0  501    0 0.00000000E+00 0.00000000E+00 0.18982629E+04 0.18982629E+04 0.32000000E+00 0.0000E+00 0.9000E+01
       -2 -1    0    0    0  501 0.00000000E+00 0.00000000E+00 -.23949479E+03 0.23949500E+03 0.32000000E+00 0.0000E+00 0.9000E+01
       25  2    1    2    0    0 0.54715706E+03 -.27732260E+03 0.11412657E+04 0.13300703E+04 0.30051753E+03 0.0000E+00 0.0000E+00
       23  2    1    2    0    0 -.54715706E+03 0.27732260E+03 0.51750239E+03 0.80768767E+03 0.90895446E+02 0.0000E+00 0.0000E+00
       23  1    3    3    0    0 0.19660979E+03 -.96398002E+02 0.21897730E+03 0.32282238E+03 0.91188000E+02 0.0000E+00 0.9000E+01
      -11  1    4    4    0    0 -.49572769E+03 0.26341207E+03 0.49958944E+03 0.75147952E+03 0.51099893E-03 0.0000E+00 0.9000E+01
       11  1    4    4    0    0 -.51429361E+02 0.13910526E+02 0.17912950E+02 0.56208146E+02 0.51099893E-03 0.0000E+00 0.9000E+01
       23  1    3    3    0    0 0.35054727E+03 -.18092459E+03 0.92228844E+03 0.10072479E+04 0.91188000E+02 0.0000E+00 0.9000E+01
#aMCatNLO 1  0  0  2  1 0.20553104D+03 0.00000000D+00  -5  7  0 0.00000000D+00 0.00000000D+00 0.00000000D+00 0.00000000D+00 0.00000000D+00
  <mgrwgt>
 0.4916413407D-03    9    2    0
 0.674258356437168D+03 0.000000000000000D+00 0.000000000000000D+00 0.674258356437168D+03
 0.674258356437168D+03 0.000000000000000D+00 0.000000000000000D+00 -.674258356437168D+03
 0.242402299823434D+03 0.196609786815448D+03 -.963980019989466D+02 -.499563865255021D+02
 0.576765769950846D+03 -.495727694071455D+03 0.263412069145943D+03 -.132389155695785D+03
 0.670707153082832D+02 -.514293612673476D+02 0.139105261108343D+02 -.407430842587700D+02
 0.462277927791772D+03 0.350547268523355D+03 -.180924593257831D+03 0.223088626480057D+03
 0.000000000000000D+00 0.000000000000000D+00 -.000000000000000D+00 -.000000000000000D+00
 0.778035433615327D+03 0.000000000000000D+00 0.000000000000000D+00 0.778035433615327D+03
 0.792063333827800D+03 0.000000000000000D+00 0.000000000000000D+00 -.792063333827800D+03
 0.213739349641150D+03 0.172430658488057D+03 -.717027593591166D+02 -.499563865255021D+02
 0.664971438501290D+03 -.561549623174625D+03 0.330638996776044D+03 -.132389155695785D+03
 0.748439802502681D+02 -.589519666674039D+02 0.215937048889391D+02 -.407430842587700D+02
 0.410534794399277D+03 0.304281265757748D+03 -.133671021962732D+03 0.223088626480057D+03
 0.206009204651142D+03 0.143789665596224D+03 -.146858920343135D+03 -.140279002124737D+02
0.498933359854D-04 0.000000000000D+00 0.000000000000D+00 0.185117421595D-05 0.000000000000D+00  7 2 -2 23 -11 11 23 21 0 0.29204047D+00 0.36845371D-01 0.39484119D+06 0.39484119D+06 0.39484119D+06 0.10758343D+01  1  2  2  2  7  2       -2 0.331358420644D-03 0.100000000000D+01
-.275510432033D-05 0.000000000000D+00 -.191603547401D-06 0.185117421595D-05 0.000000000000D+00  7 2 -2 23 -11 11 23 21 2 0.29204047D+00 0.36845371D-01 0.39484119D+06 0.39484119D+06 0.39484119D+06 0.10758343D+01  1  2  3  2  7  2       -2 -.211779666243D-04 0.100000000000D+01
0.310878083311D-05 0.000000000000D+00 0.000000000000D+00 0.185117421595D-05 0.000000000000D+00  7 2 -2 23 -11 11 23 21 2 0.29204047D+00 0.36845371D-01 0.39484119D+06 0.39484119D+06 0.39484119D+06 0.10758343D+01  1  2 15  2  7  2       -2 0.238966111882D-04 0.100000000000D+01
0.270832090668D-04 0.000000000000D+00 0.000000000000D+00 0.185117421595D-05 0.000000000000D+00  7 2 -2 23 -11 11 23 21 2 0.29204047D+00 0.45675073D-01 0.54200728D+06 0.54200728D+06 0.54200728D+06 0.10660431D+01  1  2 12  2  7  2       -2 0.133831127486D-03 0.100000000000D+01
-.253502351890D-04 0.000000000000D+00 0.000000000000D+00 0.185117421595D-05 0.000000000000D+00  7 2 -2 23 -11 11 23 21 2 0.29204047D+00 0.36845371D-01 0.39484119D+06 0.39484119D+06 0.39484119D+06 0.10758343D+01  1  2  4  2  7  2       -2 -.194862470647D-03 0.100000000000D+01
-.598152652366D-04 0.000000000000D+00 -.244007388899D-04 0.185117421595D-05 0.000000000000D+00  7 2 -2 23 -11 11 23 21 2 0.29204047D+00 0.50730430D-01 0.39484119D+06 0.39484119D+06 0.39484119D+06 0.10758343D+01  1  2  5  2  7  2       -2 -.248644541923D-03 0.100000000000D+01
0.654403142424D-04 0.000000000000D+00 0.232040590352D-04 0.185117421595D-05 0.000000000000D+00  7 2 -2 23 -11 11 23 21 2 0.29204047D+00 0.36845371D-01 0.39484119D+06 0.39484119D+06 0.39484119D+06 0.10758343D+01  1  2  6  2  7  2       -2 0.503027337543D-03 0.100000000000D+01
0.818423144504D-06 0.000000000000D+00 0.000000000000D+00 0.185117421595D-05 0.000000000000D+00  7 2 21 23 -11 11 23 2 2 0.29204047D+00 0.45675073D-01 0.54200728D+06 0.54200728D+06 0.54200728D+06 0.10660431D+01  1  2 12  4  7  2       -2 0.422620983197D-04 0.100000000000D+01
-.181782824720D-05 0.000000000000D+00 -.987711376805D-06 0.185117421595D-05 0.000000000000D+00  7 2 21 23 -11 11 23 2 2 0.29204047D+00 0.50730430D-01 0.39484119D+06 0.39484119D+06 0.39484119D+06 0.10758343D+01  1  2  5  4  7  2       -2 -.780492752394D-04 0.100000000000D+01
  </mgrwgt>
  </event>
  <event>
  8     66 0.55102590E-06 0.56199699E+03 0.75467711E-02 0.87378794E-01
        2 -1    0    0  501    0 0.00000000E+00 0.00000000E+00 0.18024391E+04 0.18024392E+04 0.32000000E+00 0.0000E+00 0.9000E+01
       -2 -1    0    0    0  501 0.00000000E+00 0.00000000E+00 -.46894506E+03 0.46894517E+03 0.32000000E+00 0.0000E+00 0.9000E+01
       25  2    1    2    0    0 0.49773700E+03 -.15945901E+03 0.15763982E+04 0.16876975E+04 0.30020348E+03 0.0000E+00 0.0000E+00
       23  2    1    2    0    0 -.49773700E+03 0.15945901E+03 -.24290413E+03 0.58368687E+03 0.92296540E+02 0.0000E+00 0.0000E+00
       23  1    3    3    0    0 0.40686595E+03 -.19775370E+03 0.11038005E+04 0.11963851E+04 0.91188000E+02 0.0000E+00 0.9000E+01
      -11  1    4    4    0    0 -.45779546E+03 0.12277135E+03 -.19960054E+03 0.51428578E+03 0.51099893E-03 0.0000E+00 0.9000E+01
       11  1    4    4    0    0 -.39941538E+02 0.36687652E+02 -.43303590E+02 0.69401090E+02 0.51099893E-03 0.0000E+00 0.9000E+01
       23  1    3    3    0    0 0.90871041E+02 0.38294691E+02 0.47259768E+03 0.49131237E+03 0.91188000E+02 0.0000E+00 0.9000E+01
#aMCatNLO 1  0  0  1  1 0.73050332D+03 0.00000000D+00  -5  7  0 0.00000000D+00 0.00000000D+00 0.00000000D+00 0.00000000D+00 0.00000000D+00
  <mgrwgt>
 0.5545737632D-03    3    2    0
 0.919372115938692D+03 0.000000000000000D+00 0.000000000000000D+00 0.919372115938692D+03
 0.919372115938692D+03 0.000000000000000D+00 0.000000000000000D+00 -.919372115938692D+03
 0.677385615884761D+03 0.406865954928149D+03 -.197753697191286D+03 0.495872555432502D+03
 0.780046937649964D+03 -.457795457187233D+03 0.122771354787094D+03 -.619535098892355D+03
 0.117135175823421D+03 -.399415384835241D+02 0.366876516481334D+02 -.103823596235625D+03
 0.264176502519239D+03 0.908710407426084D+02 0.382946907560593D+02 0.227486139695477D+03
 0.000000000000000D+00 -.000000000000000D+00 0.000000000000000D+00 -.000000000000000D+00
 0.115384118470258D+04 0.000000000000000D+00 0.000000000000000D+00 0.115384118470258D+04
 0.179991100077526D+04 0.000000000000000D+00 0.000000000000000D+00 -.179991100077526D+04
 0.870226269527002D+03 0.536380373284587D+03 -.464095909004604D+03 0.495872555432502D+03
 0.715952286334854D+03 -.332600328368146D+03 -.134688377813184D+03 -.619535098892355D+03
 0.105993525294655D+03 -.212686501344880D+02 -.171253921044814D+01 -.103823596235625D+03
 0.286366635412636D+03 0.136944138889179D+03 -.564531452082570D+02 0.227486139695477D+03
 0.975213468908690D+03 -.319455533671132D+03 0.656949971236493D+03 -.646069816072678D+03
0.274811611359D-03 0.000000000000D+00 0.000000000000D+00 0.505473179628D-05 0.000000000000D+00  7 2 -2 23 -11 11 23 21 0 0.27729834D+00 0.72145405D-01 0.31584062D+06 0.31584062D+06 0.31584062D+06 0.10829024D+01  1  2  2  1  7  1        2 0.540635695611D-03 0.100000000000D+01
-.107703674101D-04 0.000000000000D+00 -.105534894718D-05 0.505473179628D-05 0.000000000000D+00  7 2 -2 23 -11 11 23 21 2 0.27729834D+00 0.72145405D-01 0.31584062D+06 0.31584062D+06 0.31584062D+06 0.10829024D+01  1  2  3  1  7  1        2 -.248472771907D-04 0.100000000000D+01
0.168119995895D-04 0.000000000000D+00 0.000000000000D+00 0.505473179628D-05 0.000000000000D+00  7 2 -2 23 -11 11 23 21 2 0.27729834D+00 0.72145405D-01 0.31584062D+06 0.31584062D+06 0.31584062D+06 0.10829024D+01  1  2 15  1  7  1        2 0.387853448285D-04 0.100000000000D+01
  </mgrwgt>
  </event>
  <event>
  8     66 0.55102590E-06 0.14229752E+03 0.75467711E-02 0.10382762E+00
        2 -1    0    0  501    0 0.00000000E+00 0.00000000E+00 0.25904201E+03 0.25904221E+03 0.32000000E+00 0.0000E+00 0.9000E+01
       -2 -1    0    0    0  501 0.00000000E+00 0.00000000E+00 -.22242650E+03 0.22242673E+03 0.32000000E+00 0.0000E+00 0.9000E+01
       25  2    1    2    0    0 -.31570975E+02 -.11375704E+03 0.57457637E+02 0.32957434E+03 0.30229203E+03 0.0000E+00 0.0000E+00
       23  2    1    2    0    0 0.31570975E+02 0.11375704E+03 -.20842128E+02 0.15189461E+03 0.93274790E+02 0.0000E+00 0.0000E+00
       23  1    3    3    0    0 -.81911548E+02 0.36326146E+02 -.23099401E+02 0.12991507E+03 0.91188000E+02 0.0000E+00 0.9000E+01
      -11  1    4    4    0    0 -.15002291E+02 0.51422322E+02 -.45486473E+02 0.70273346E+02 0.51099893E-03 0.0000E+00 0.9000E+01
       11  1    4    4    0    0 0.46573267E+02 0.62334720E+02 0.24644346E+02 0.81621261E+02 0.51099893E-03 0.0000E+00 0.9000E+01
       23  1    3    3    0    0 0.50340573E+02 -.15008319E+03 0.80557038E+02 0.19965927E+03 0.91188000E+02 0.0000E+00 0.9000E+01
#aMCatNLO 1  0  0  1  2 0.35716597D+02 0.00000000D+00  -5  7  0 0.00000000D+00 0.00000000D+00 0.00000000D+00 0.00000000D+00 0.00000000D+00
  <mgrwgt>
 0.1190646164D-03    7    2    0
 0.240037314168084D+03 0.000000000000000D+00 0.000000000000000D+00 0.240037314168084D+03
 0.240037314168084D+03 0.000000000000000D+00 0.000000000000000D+00 -.240037314168084D+03
 0.132054189102670D+03 -.819115479563769D+02 0.363261461575835D+02 -.330751709336748D+02
 0.739467202605734D+02 -.150022912387794D+02 0.514223220765545D+02 -.509783629311244D+02
 0.799786846285704D+02 0.465732664955091D+02 0.623347206090739D+02 0.184906313965566D+02
 0.194095034344354D+03 0.503405726996473D+02 -.150083188843212D+03 0.655629024682426D+02
 0.000000000000000D+00 -.000000000000000D+00 0.000000000000000D+00 0.000000000000000D+00
 0.627714130186418D+03 0.000000000000000D+00 0.000000000000000D+00 0.627714130186418D+03
 0.241524759420975D+03 0.000000000000000D+00 0.000000000000000D+00 -.241524759420975D+03
 0.126592402260422D+03 -.761271880237615D+02 0.286543064366885D+02 -.330751709336748D+02
 0.704244001110214D+02 -.117735824446553D+02 0.471400615217960D+02 -.509783629311244D+02
 0.785827363029287D+02 0.501193264890359D+02 0.576315547916047D+02 0.184906313965566D+02
 0.205801878066080D+03 0.592838480203582D+02 -.161944721603900D+03 0.655629024682426D+02
 0.387837472866940D+03 -.215024040409773D+02 0.285187988538106D+02 0.386189370765443D+03
0.100428819082D-05 0.000000000000D+00 0.000000000000D+00 0.331187643726D-08 0.000000000000D+00  7 2 -2 23 -11 11 23 21 0 0.39852650D-01 0.34219495D-01 0.48821005D+05 0.48821005D+05 0.48821005D+05 0.11482081D+01  1  2  2  1  7  1        2 0.121562222519D-03 0.100000000000D+01
-.553282986897D-07 0.000000000000D+00 -.385673108788D-08 0.331187643726D-08 0.000000000000D+00  7 2 -2 23 -11 11 23 21 2 0.39852650D-01 0.34219495D-01 0.48821005D+05 0.48821005D+05 0.48821005D+05 0.11482081D+01  1  2  3  1  7  1        2 -.882935076268D-05 0.100000000000D+01
0.655168864555D-07 0.000000000000D+00 0.000000000000D+00 0.331187643726D-08 0.000000000000D+00  7 2 -2 23 -11 11 23 21 2 0.39852650D-01 0.34219495D-01 0.48821005D+05 0.48821005D+05 0.48821005D+05 0.11482081D+01  1  2 15  1  7  1        2 0.104552568052D-04 0.100000000000D+01
0.291913918179D-04 0.000000000000D+00 0.000000000000D+00 0.331187643726D-08 0.000000000000D+00  7 2 -2 23 -11 11 23 21 2 0.10410878D+00 0.34219495D-01 0.57110362D+05 0.57110362D+05 0.57110362D+05 0.11422505D+01  1  2 12  1  7  1        2 0.160126681180D-02 0.100000000000D+01
-.289925960083D-04 0.000000000000D+00 -.323364456538D-06 0.331187643726D-08 0.000000000000D+00  7 2 -2 23 -11 11 23 21 2 0.10439155D+00 0.34219495D-01 0.48821005D+05 0.48821005D+05 0.48821005D+05 0.11482081D+01  1  2  5  1  7  1        2 -.160481154840D-02 0.100000000000D+01
0.310832212514D-05 0.000000000000D+00 0.000000000000D+00 0.331187643726D-08 0.000000000000D+00  7 21 -2 23 -11 11 23 -2 2 0.10410878D+00 0.34219495D-01 0.57110362D+05 0.57110362D+05 0.57110362D+05 0.11422505D+01  1  2 12  3  7  1        2 0.228984377602D-03 0.100000000000D+01
-.307798239613D-05 0.000000000000D+00 -.345457563449D-07 0.331187643726D-08 0.000000000000D+00  7 21 -2 23 -11 11 23 -2 2 0.10439155D+00 0.34219495D-01 0.48821005D+05 0.48821005D+05 0.48821005D+05 0.11482081D+01  1  2  5  3  7  1        2 -.229563153166D-03 0.100000000000D+01
  </mgrwgt>
  </event>
  <event>
  8     66 0.55102590E-06 0.34616420E+03 0.75467711E-02 0.90950051E-01
        2 -1    0    0  501    0 0.00000000E+00 0.00000000E+00 0.20986040E+04 0.20986040E+04 0.32000000E+00 0.0000E+00 0.9000E+01
       -2 -1    0    0    0  501 0.00000000E+00 0.00000000E+00 -.70904587E+02 0.70905309E+02 0.32000000E+00 0.0000E+00 0.9000E+01
       25  2    1    2    0    0 -.23711018E+03 0.21258400E+03 0.10648211E+04 0.11513985E+04 0.30076762E+03 0.0000E+00 0.0000E+00
       23  2    1    2    0    0 0.23711018E+03 -.21258400E+03 0.96287829E+03 0.10181109E+04 0.89453816E+02 0.0000E+00 0.0000E+00
       23  1    3    3    0    0 -.12735144E+03 0.72944947E+02 0.20217622E+03 0.26595081E+03 0.91188000E+02 0.0000E+00 0.9000E+01
      -11  1    4    4    0    0 0.16381717E+03 -.16497248E+03 0.80207532E+03 0.83509090E+03 0.51099893E-03 0.0000E+00 0.9000E+01
       11  1    4    4    0    0 0.73293017E+02 -.47611519E+02 0.16080297E+03 0.18301999E+03 0.51099893E-03 0.0000E+00 0.9000E+01
       23  1    3    3    0    0 -.10975874E+03 0.13963905E+03 0.86264491E+03 0.88544765E+03 0.91188000E+02 0.0000E+00 0.9000E+01
#aMCatNLO 1  0  0  2  1 0.53914254D+03 0.00000000D+00  -5  7  0 0.00000000D+00 0.00000000D+00 0.00000000D+00 0.00000000D+00 0.00000000D+00
  <mgrwgt>
 0.4176014520D-03    3    2    0
 0.385747923419962D+03 0.000000000000000D+00 0.000000000000000D+00 0.385747923419962D+03
 0.385747923419962D+03 0.000000000000000D+00 0.000000000000000D+00 -.385747923419962D+03
 0.216501686017731D+03 -.127351444546746D+03 0.729449465606321D+02 -.130454486498716D+03
 0.240273274339846D+03 0.163817165781954D+03 -.164972476524535D+03 0.606569414537237D+02
 0.920335457445451D+02 0.732930171220426D+02 -.476115190118812D+02 -.288348823622105D+02
 0.222687340737802D+03 -.109758738357250D+03 0.139639048975785D+03 0.986324274072031D+02
 0.000000000000000D+00 0.000000000000000D+00 0.000000000000000D+00 0.000000000000000D+00
 0.108974294689183D+04 0.000000000000000D+00 0.000000000000000D+00 0.108974294689183D+04
 0.587977067572908D+03 0.000000000000000D+00 0.000000000000000D+00 -.587977067572908D+03
 0.222262120400666D+03 -.141096295084775D+03 -.644876832170801D+02 -.130454486498716D+03
 0.396451992626293D+03 0.143870913378695D+03 -.364411962199950D+03 0.606569414537237D+02
 0.140289410906779D+03 0.660151964152902D+02 -.120381320037534D+03 -.288348823622105D+02
 0.182208735486589D+03 -.122442637917168D+03 0.128147035576208D+02 0.986324274072031D+02
 0.736507755044406D+03 0.536528232079581D+02 0.536466261896944D+03 0.501765879318917D+03
0.990789524947D-05 0.000000000000D+00 0.000000000000D+00 0.959677980011D-07 0.000000000000D+00  7 2 -2 23 -11 11 23 21 0 0.32286221D+00 0.10908455D-01 0.11982966D+06 0.11982966D+06 0.11982966D+06 0.11153314D+01  1  2  2  2  7  2       -2 0.413072338210D-03 0.100000000000D+01
-.542593250909D-06 0.000000000000D+00 -.380489265667D-07 0.959677980011D-07 0.000000000000D+00  7 2 -2 23 -11 11 23 21 2 0.32286221D+00 0.10908455D-01 0.11982966D+06 0.11982966D+06 0.11982966D+06 0.11153314D+01  1  2  3  2  7  2       -2 -.281401846930D-04 0.100000000000D+01
0.629922691370D-06 0.000000000000D+00 0.000000000000D+00 0.959677980011D-07 0.000000000000D+00  7 2 -2 23 -11 11 23 21 2 0.32286221D+00 0.10908455D-01 0.11982966D+06 0.11982966D+06 0.11982966D+06 0.11153314D+01  1  2 15  2  7  2       -2 0.326692984990D-04 0.100000000000D+01
  </mgrwgt>
  </event>
  <event>
  8     66 0.55102590E-06 0.21051564E+03 0.75467711E-02 0.96655569E-01
        2 -1    0    0  501    0 0.00000000E+00 0.00000000E+00 0.87360938E+03 0.87360944E+03 0.32000000E+00 0.0000E+00 0.9000E+01
       -2 -1    0    0    0  501 0.00000000E+00 0.00000000E+00 -.36350707E+03 0.36350721E+03 0.32000000E+00 0.0000E+00 0.9000E+01
       25  2    1    2    0    0 0.34924493E+03 -.47630048E+02 -.14739069E+03 0.48560398E+03 0.29974416E+03 0.0000E+00 0.0000E+00
       23  2    1    2    0    0 -.34924493E+03 0.47630048E+02 0.65749301E+03 0.75151267E+03 0.90739165E+02 0.0000E+00 0.0000E+00
       23  1    3    3    0    0 0.91364858E+02 -.81864730E+02 0.32720395E+02 0.15631778E+03 0.91188000E+02 0.0000E+00 0.9000E+01
      -11  1    4    4    0    0 -.18784875E+03 0.67870428E+02 0.39683547E+03 0.44426561E+03 0.51099893E-03 0.0000E+00 0.9000E+01
       11  1    4    4    0    0 -.16139619E+03 -.20240381E+02 0.26065754E+03 0.30724706E+03 0.51099893E-03 0.0000E+00 0.9000E+01
       23  1    3    3    0    0 0.25788008E+03 0.34234683E+02 -.18011109E+03 0.32928620E+03 0.91188000E+02 0.0000E+00 0.9000E+01
#aMCatNLO 1  0  0  1  2 0.45410769D+02 0.00000000D+00  -5  7  0 0.00000000D+00 0.00000000D+00 0.00000000D+00 0.00000000D+00 0.00000000D+00
  <mgrwgt>
 0.2528946311D-03    9    2    0
 0.563527558989688D+03 0.000000000000000D+00 0.000000000000000D+00 0.563527558989688D+03
 0.563527558989688D+03 0.000000000000000D+00 0.000000000000000D+00 -.563527558989688D+03
 0.156773675762616D+03 0.913648575937612D+02 -.818647304432361D+02 -.348333572090021D+02
 0.308043228780719D+03 -.187848747862418D+03 0.678704283029753D+02 0.234514570306714D+03
 0.219278041893748D+03 -.161396186232919D+03 -.202403805790726D+02 0.147052567880468D+03
 0.442960171542292D+03 0.257880076501576D+03 0.342346827193333D+02 -.346733780978180D+03
 0.000000000000000D+00 0.000000000000000D+00 -.000000000000000D+00 0.000000000000000D+00
 0.586982753514053D+03 0.000000000000000D+00 0.000000000000000D+00 0.586982753514053D+03
 0.586401318971297D+03 0.000000000000000D+00 0.000000000000000D+00 -.586401318971297D+03
 0.152452557104301D+03 0.890027771918598D+02 -.761030465968776D+02 -.348333572090021D+02
 0.313694393555064D+03 -.192598002927968D+03 0.794550069529604D+02 0.234514570306714D+03
 0.221168099388597D+03 -.164760613593336D+03 -.120337307295769D+02 0.147052567880468D+03
 0.440654531494458D+03 0.251130426080509D+03 0.506987081472237D+02 -.346733780978180D+03
 0.454144909429308D+02 0.172254132489345D+02 -.420169377737296D+02 0.581434542756142D+00
0.896196236112D-05 0.000000000000D+00 0.000000000000D+00 0.105397330403D-05 0.000000000000D+00  7 2 -2 23 -11 11 23 21 0 0.13440146D+00 0.55924180D-01 0.15638495D+06 0.15638495D+06 0.15638495D+06 0.11061261D+01  1  2  2  1  7  1        2 0.105675018140D-03 0.100000000000D+01
-.421949342791D-06 0.000000000000D+00 -.344162952056D-07 0.105397330403D-05 0.000000000000D+00  7 2 -2 23 -11 11 23 21 2 0.13440146D+00 0.55924180D-01 0.15638495D+06 0.15638495D+06 0.15638495D+06 0.11061261D+01  1  2  3  1  7  1        2 -.608749757675D-05 0.100000000000D+01
0.566410242453D-06 0.000000000000D+00 0.000000000000D+00 0.105397330403D-05 0.000000000000D+00  7 2 -2 23 -11 11 23 21 2 0.13440146D+00 0.55924180D-01 0.15638495D+06 0.15638495D+06 0.15638495D+06 0.11061261D+01  1  2 15  1  7  1        2 0.817164675639D-05 0.100000000000D+01
0.189796440725D-04 0.000000000000D+00 0.000000000000D+00 0.105397330403D-05 0.000000000000D+00  7 2 -2 23 -11 11 23 21 2 0.14261315D+00 0.55924180D-01 0.17611243D+06 0.17611243D+06 0.17611243D+06 0.11020933D+01  1  2 12  1  7  1        2 0.250159245760D-03 0.100000000000D+01
-.147368744209D-04 0.000000000000D+00 0.000000000000D+00 0.105397330403D-05 0.000000000000D+00  7 2 -2 23 -11 11 23 21 2 0.13440146D+00 0.55924180D-01 0.15638495D+06 0.15638495D+06 0.15638495D+06 0.11061261D+01  1  2  4  1  7  1        2 -.212610089005D-03 0.100000000000D+01
-.772237357673D-04 0.000000000000D+00 -.157392898207D-04 0.105397330403D-05 0.000000000000D+00  7 2 -2 23 -11 11 23 21 2 0.14424880D+00 0.55924180D-01 0.15638495D+06 0.15638495D+06 0.15638495D+06 0.11061261D+01  1  2  5  1  7  1        2 -.101322105889D-02 0.100000000000D+01
0.781803785606D-04 0.000000000000D+00 0.157000260578D-04 0.105397330403D-05 0.000000000000D+00  7 2 -2 23 -11 11 23 21 2 0.13440146D+00 0.55924180D-01 0.15638495D+06 0.15638495D+06 0.15638495D+06 0.11061261D+01  1  2  6  1  7  1        2 0.112791469680D-02 0.100000000000D+01
0.209974335843D-06 0.000000000000D+00 0.000000000000D+00 0.105397330403D-05 0.000000000000D+00  7 21 -2 23 -11 11 23 -2 2 0.14261315D+00 0.55924180D-01 0.17611243D+06 0.17611243D+06 0.17611243D+06 0.11020933D+01  1  2 12  3  7  1        2 0.222219208959D-05 0.100000000000D+01
-.896646941355D-06 0.000000000000D+00 -.188245775514D-06 0.105397330403D-05 0.000000000000D+00  7 21 -2 23 -11 11 23 -2 2 0.14424880D+00 0.55924180D-01 0.15638495D+06 0.15638495D+06 0.15638495D+06 0.11061261D+01  1  2  5  3  7  1        2 -.932952300385D-05 0.100000000000D+01
  </mgrwgt>
  </event>
  <event>
  9     66 0.55102590E-06 0.27158324E+03 0.75467711E-02 0.99888342E-01
        2 -1    0    0  501    0 0.00000000E+00 0.00000000E+00 0.98112531E+03 0.98112537E+03 0.32000000E+00 0.0000E+00 0.9000E+01
       -2 -1    0    0    0  502 0.00000000E+00 0.00000000E+00 -.35457805E+03 0.35457820E+03 0.32000000E+00 0.0000E+00 0.9000E+01
       25  2    1    2    0    0 0.35401994E+02 -.18174992E+03 0.84088704E+03 0.91145718E+03 0.29895960E+03 0.0000E+00 0.0000E+00
       23  2    1    2    0    0 0.40101461E+02 0.24685638E+03 -.16526590E+03 0.31312290E+03 0.90481682E+02 0.0000E+00 0.0000E+00
       23  1    3    3    0    0 -.31745882E+02 -.13635575E+03 0.72210029E+03 0.74117796E+03 0.91188000E+02 0.0000E+00 0.9000E+01
      -11  1    4    4    0    0 0.53089389E+02 0.17929931E+03 -.79542404E+02 0.20320856E+03 0.51099893E-03 0.0000E+00 0.9000E+01
       11  1    4    4    0    0 -.12987928E+02 0.67557067E+02 -.85723501E+02 0.10991434E+03 0.51099893E-03 0.0000E+00 0.9000E+01
       23  1    3    3    0    0 0.67147875E+02 -.45394179E+02 0.11878674E+03 0.17027921E+03 0.91188000E+02 0.0000E+00 0.9000E+01
       21  1    1    2  501  502 -.75503454E+02 -.65106451E+02 -.49073871E+02 0.11112348E+03 0.75000000E+00 0.0000E+00 0.9000E+01
#aMCatNLO 2  0  0  2  1 0.99697651D+02 0.00000000D+00  -5  7  0 0.00000000D+00 0.00000000D+00 0.00000000D+00 0.00000000D+00 0.00000000D+00
  <mgrwgt>
 0.6882840818D-04    2    2    0
 0.508230467783547D+03 0.000000000000000D+00 0.000000000000000D+00 0.508230467783547D+03
 0.508230467783547D+03 0.000000000000000D+00 0.000000000000000D+00 -.508230467783547D+03
 0.424059695907171D+03 -.626858991460054D+02 -.163035249634743D+03 0.375501477725024D+03
 0.282257488080446D+03 0.316543265958627D+02 0.160815905188408D+03 -.229794555687637D+03
 0.186035435258369D+03 -.268647674700244D+02 0.555911005210306D+02 -.175491016816854D+03
 0.124108316321107D+03 0.578963400201672D+02 -.533717560746963D+02 0.297840947794668D+02
 0.000000000000000D+00 -.000000000000000D+00 -.000000000000000D+00 -.000000000000000D+00
 0.527343966505987D+03 0.000000000000000D+00 0.000000000000000D+00 0.527343966505987D+03
 0.659691898784356D+03 0.000000000000000D+00 0.000000000000000D+00 -.659691898784356D+03
 0.410995500450184D+03 -.317458817256558D+02 -.136355745262460D+03 0.375501477725024D+03
 0.296263840498232D+03 0.530893886879836D+02 0.179299308899447D+03 -.229794555687637D+03
 0.188493343408798D+03 -.129879279665606D+02 0.675570666410955D+02 -.175491016816854D+03
 0.125585876145375D+03 0.671478753658223D+02 -.453941788693780D+02 0.297840947794668D+02
 0.165697304787756D+03 -.755034543615895D+02 -.651064514087037D+02 -.132347932278369D+03
-.271282019834D-04 0.000000000000D+00 0.000000000000D+00 0.287964020358D-06 0.000000000000D+00  7 2 -2 23 -11 11 23 21 2 0.14547126D+00 0.55170479D-01 0.10386742D+06 0.10386742D+06 0.10386742D+06 0.11203722D+01  1  2 13  2  7  2       -2 -.375773255719D-03 0.100000000000D+01
0.330106991563D-04 0.000000000000D+00 0.000000000000D+00 0.287964020358D-06 0.200819508524D-09  7 2 -2 23 -11 11 23 21 2 0.15094213D+00 0.54550399D-01 0.10386742D+06 0.10386742D+06 0.10386742D+06 0.11203722D+01  1  2  1  2  7  2       -2 0.444601663901D-03 0.100000000000D+01
  </mgrwgt>
  </event>
  <event>
  9     66 0.55102590E-06 0.33648447E+03 0.75467711E-02 0.97935114E-01
        2 -1    0    0  501    0 0.00000000E+00 0.00000000E+00 0.41552765E+03 0.41552777E+03 0.32000000E+00 0.0000E+00 0.9000E+01
       21 -1    0    0  502  501 0.00000000E+00 0.00000000E+00 -.76175249E+03 0.76175286E+03 0.75000000E+00 0.0000E+00 0.9000E+01
       25  2    1    2    0    0 0.61919344E+02 -.31700080E+03 0.34857355E+02 0.44230795E+03 0.30016291E+03 0.0000E+00 0.0000E+00
       23  2    1    2    0    0 -.98293850E+01 0.25805778E+03 -.51306791E+03 0.58132382E+03 0.89488878E+02 0.0000E+00 0.0000E+00
       23  1    3    3    0    0 0.12090108E+03 -.12598394E+03 0.88761287E+02 0.21606212E+03 0.91188000E+02 0.0000E+00 0.9000E+01
      -11  1    4    4    0    0 0.84805347E-01 0.20924956E+03 -.47363370E+03 0.51779751E+03 0.51099893E-03 0.0000E+00 0.9000E+01
       11  1    4    4    0    0 -.99141904E+01 0.48808224E+02 -.39434219E+02 0.63526305E+02 0.51099893E-03 0.0000E+00 0.9000E+01
       23  1    3    3    0    0 -.58981737E+02 -.19101687E+03 -.53903932E+02 0.22624583E+03 0.91188000E+02 0.0000E+00 0.9000E+01
        2  1    1    2  502    0 -.52089959E+02 0.58943020E+02 0.13198571E+03 0.15364887E+03 0.32000000E+00 0.0000E+00 0.9000E+01
#aMCatNLO 2  0  0  2  1 0.78661576D+02 0.00000000D+00  -5  7  0 0.00000000D+00 0.00000000D+00 0.00000000D+00 0.00000000D+00 0.00000000D+00
  <mgrwgt>
 0.4020717002D-04    1    2    0
 0.450818424803556D+03 0.000000000000000D+00 0.000000000000000D+00 0.450818424803556D+03
 0.450818424803556D+03 0.000000000000000D+00 0.000000000000000D+00 -.450818424803556D+03
 0.277152636978813D+03 0.104512648699475D+03 -.107439406558436D+03 0.214551189743849D+03
 0.350325887084673D+03 -.196851019813904D+02 0.231620434477451D+03 -.262092919122440D+03
 0.549700451249978D+02 -.129698409348534D+02 0.522658819766109D+02 -.110347935357154D+02
 0.219188280418628D+03 -.718577057832309D+02 -.176446909895626D+03 0.585765229143066D+02
 0.000000000000000D+00 -.000000000000000D+00 0.000000000000000D+00 0.000000000000000D+00
 0.689519007841518D+03 0.000000000000000D+00 0.000000000000000D+00 0.689519007841518D+03
 0.459058218100831D+03 0.000000000000000D+00 0.000000000000000D+00 -.459058218100831D+03
 0.291267038644660D+03 0.120901081580302D+03 -.125983935122863D+03 0.214551189743849D+03
 0.335377522918356D+03 0.848053474917201D-01 0.209249557783961D+03 -.262092919122440D+03
 0.510127488722746D+02 -.991419036462676D+01 0.488082237798491D+02 -.110347935357154D+02
 0.227404373688383D+03 -.589817374612765D+02 -.191016866893802D+03 0.585765229143066D+02
 0.243515541818676D+03 -.520899591018907D+02 0.589430204528542D+02 0.230460789740687D+03
0.665328209342D-06 0.000000000000D+00 0.000000000000D+00 0.699069504283D-06 0.317327799120D-11  7 2 21 23 -11 11 23 2 2 0.63927354D-01 0.11719270D+00 0.14229294D+06 0.14229294D+06 0.14229294D+06 0.11093642D+01  1  2  1  4  7  2       -2 0.402071700156D-04 0.100000000000D+01
  </mgrwgt>
  </event>
  <event>
  7     66 0.55102590E-06 0.22440946E+03 0.75467711E-02 0.96834858E-01
        2 -1    0    0  501    0 0.00000000E+00 0.00000000E+00 0.38262957E+04 0.38262957E+04 0.32000000E+00 0.0000E+00 0.9000E+01
       -2 -1    0    0    0  501 0.00000000E+00 0.00000000E+00 -.16162124E+02 0.16165292E+02 0.32000000E+00 0.0000E+00 0.9000E+01
       23  2    1    2    0    0 -.12776163E+03 -.31109624E+02 0.78074030E+03 0.79694373E+03 0.90956342E+02 0.0000E+00 0.0000E+00
       23  1    1    2    0    0 0.12913215E+03 -.51113536E+02 0.11287586E+04 0.11409202E+04 0.91188000E+02 0.0000E+00 0.9000E+01
      -13  1    3    3    0    0 -.40290432E+01 0.24071332E+02 0.11807399E+03 0.12057007E+03 0.10565837E+00 0.0000E+00 0.9000E+01
       13  1    3    3    0    0 -.12373259E+03 -.55180956E+02 0.66266630E+03 0.67637366E+03 0.10565837E+00 0.0000E+00 0.9000E+01
       23  1    1    2    0    0 -.13705223E+01 0.82223160E+02 0.19006346E+04 0.19045970E+04 0.91188000E+02 0.0000E+00 0.9000E+01
#aMCatNLO 1  0  0  2  1 0.28747933D+03 0.00000000D+00  -5  7  0 0.00000000D+00 0.00000000D+00 0.00000000D+00 0.00000000D+00 0.00000000D+00
  <mgrwgt>
 0.2565651103D-02    5    2    0
 0.248690924990229D+03 0.000000000000000D+00 0.000000000000000D+00 0.248690924990229D+03
 0.248690924990229D+03 0.000000000000000D+00 0.000000000000000D+00 -.248690924990229D+03
 0.167316892716550D+03 0.129132148965656D+03 -.511135191307762D+02 -.197986744480731D+02
 0.269571877523216D+02 -.402888514618643D+01 0.240714374023291D+02 -.114465696773536D+02
 0.148964789108697D+03 -.123732764421358D+03 -.551810666483173D+02 -.619335231227915D+02
 0.154142980402888D+03 -.137049939811212D+01 0.822231483767644D+02 0.931787672482182D+02
 0.000000000000000D+00 0.000000000000000D+00 -.000000000000000D+00 -.000000000000000D+00
 0.355394242209734D+03 0.000000000000000D+00 0.000000000000000D+00 0.355394242209734D+03
 0.590405682196550D+03 0.000000000000000D+00 0.000000000000000D+00 -.590405682196550D+03
 0.113413227886773D+03 0.623628543772968D+02 -.163155079514080D+02 -.197986744480731D+02
 0.396311662636451D+02 -.198663642734384D+02 0.323254226978275D+02 -.114465696773536D+02
 0.220736313911688D+03 -.211663057772706D+03 -.935462277303971D+01 -.619335231227915D+02
 0.200704337204946D+03 -.857679450029080D+02 0.126208385509670D+03 0.931787672482182D+02
 0.371314879139232D+03 0.254934512671756D+03 -.132863677483049D+03 -.235011439986816D+03
0.666374284821D-04 0.000000000000D+00 0.000000000000D+00 0.398124889493D-07 0.000000000000D+00  7 2 -2 23 -13 13 23 21 0 0.58866112D+00 0.24867253D-02 0.50359608D+05 0.50359608D+05 0.50359608D+05 0.11470217D+01  1  2  2  2  7  2       -2 0.215211951406D-02 0.100000000000D+01
-.365456840363D-05 0.000000000000D+00 -.255905271409D-06 0.398124889493D-07 0.000000000000D+00  7 2 -2 23 -13 13 23 21 2 0.58866112D+00 0.24867253D-02 0.50359608D+05 0.50359608D+05 0.50359608D+05 0.11470217D+01  1  2  3  2  7  2       -2 -.155284297575D-03 0.100000000000D+01
0.429624093005D-05 0.000000000000D+00 0.000000000000D+00 0.398124889493D-07 0.000000000000D+00  7 2 -2 23 -13 13 23 21 2 0.58866112D+00 0.24867253D-02 0.50359608D+05 0.50359608D+05 0.50359608D+05 0.11470217D+01  1  2 15  2  7  2       -2 0.182549259271D-03 0.100000000000D+01
0.521324061778D-04 0.000000000000D+00 -.366768930255D-04 0.398124889493D-07 0.000000000000D+00  7 2 -2 23 -13 13 23 21 2 0.58866112D+00 0.17450677D-01 0.50359608D+05 0.50359608D+05 0.50359608D+05 0.11470217D+01  1  2  5  2  7  2       -2 0.117157295629D-03 0.100000000000D+01
0.894523783862D-05 0.000000000000D+00 -.873426172022D-05 0.398124889493D-07 0.000000000000D+00  7 2 21 23 -13 13 23 2 2 0.58866112D+00 0.17450677D-01 0.50359608D+05 0.50359608D+05 0.50359608D+05 0.11470217D+01  1  2  5  4  7  2       -2 0.269109332029D-03 0.100000000000D+01
  </mgrwgt>
  </event>
  <event>
  8     66 0.55102590E-06 0.28273579E+03 0.75467711E-02 0.90888027E-01
        2 -1    0    0  501    0 0.00000000E+00 0.00000000E+00 0.35587828E+03 0.35587843E+03 0.32000000E+00 0.0000E+00 0.9000E+01
       -2 -1    0    0    0  501 0.00000000E+00 0.00000000E+00 -.34177631E+03 0.34177646E+03 0.32000000E+00 0.0000E+00 0.9000E+01
       25  2    1    2    0    0 -.20857305E+02 -.20190007E+03 -.18453483E+03 0.39910736E+03 0.28988776E+03 0.0000E+00 0.0000E+00
       23  2    1    2    0    0 0.20857305E+02 0.20190007E+03 0.19863680E+03 0.29854753E+03 0.92061829E+02 0.0000E+00 0.0000E+00
       23  1    3    3    0    0 -.20898923E+02 -.22951549E+03 -.86783146E+02 0.26260367E+03 0.91188000E+02 0.0000E+00 0.9000E+01
      -11  1    4    4    0    0 -.18255317E+02 0.17237476E+03 0.14603263E+03 0.22665357E+03 0.51099893E-03 0.0000E+00 0.9000E+01
       11  1    4    4    0    0 0.39112623E+02 0.29525314E+02 0.52604175E+02 0.71893954E+02 0.51099893E-03 0.0000E+00 0.9000E+01
       23  1    3    3    0    0 0.41617678E-01 0.27615417E+02 -.97751683E+02 0.13650368E+03 0.91188000E+02 0.0000E+00 0.9000E+01
#aMCatNLO 1  0  0  2  1 0.62935668D+03 0.00000000D+00  -5  7  0 0.00000000D+00 0.00000000D+00 0.00000000D+00 0.00000000D+00 0.00000000D+00
  <mgrwgt>
 0.1747266112D-02    5    2    0
 0.348756173747459D+03 0.000000000000000D+00 0.000000000000000D+00 0.348756173747459D+03
 0.348756173747459D+03 0.000000000000000D+00 0.000000000000000D+00 -.348756173747459D+03
 0.264411879113297D+03 -.208989230957347D+02 -.229515487785308D+03 -.921100773658088D+02
 0.223747471569040D+03 -.182553173161710D+02 0.172374756850308D+03 0.141480096211523D+03
 0.708451198587316D+02 0.391126227337007D+02 0.295253138105739D+02 0.511614072820165D+02
 0.138507876953849D+03 0.416176782049718D-01 0.276154171244263D+02 -.100531426127731D+03
 0.000000000000000D+00 0.000000000000000D+00 0.000000000000000D+00 -.000000000000000D+00
 0.656510791792083D+03 0.000000000000000D+00 0.000000000000000D+00 0.656510791792083D+03
 0.999912150312178D+03 0.000000000000000D+00 0.000000000000000D+00 -.999912150312178D+03
 0.559167145177355D+03 -.117074304305335D+03 -.531189218471987D+03 -.921100773658088D+02
 0.158183879277714D+03 -.628562507787756D+02 0.324748175877930D+02 0.141480096211523D+03
 0.593198166404705D+02 0.239123055586531D+02 -.181535862587059D+02 0.511614072820165D+02
 0.162804176393036D+03 -.351448073508242D+02 -.827539931605292D+02 -.100531426127731D+03
 0.716947924615684D+03 0.191163056876282D+03 0.599621980303429D+03 -.343401358520095D+03
0.436464005596D-04 0.000000000000D+00 0.000000000000D+00 0.861887566009D-09 0.000000000000D+00  7 2 -2 23 -11 11 23 21 0 0.54750528D-01 0.52580993D-01 0.79939526D+05 0.79939526D+05 0.79939526D+05 0.11297900D+01  1  2  2  2  7  2       -2 0.166972495032D-02 0.100000000000D+01
-.229495733584D-05 0.000000000000D+00 -.167613670510D-06 0.861887566009D-09 0.000000000000D+00  7 2 -2 23 -11 11 23 21 2 0.54750528D-01 0.52580993D-01 0.79939526D+05 0.79939526D+05 0.79939526D+05 0.11297900D+01  1  2  3  2  7  2       -2 -.112064118075D-03 0.100000000000D+01
0.276044401020D-05 0.000000000000D+00 0.000000000000D+00 0.861887566009D-09 0.000000000000D+00  7 2 -2 23 -11 11 23 21 2 0.54750528D-01 0.52580993D-01 0.79939526D+05 0.79939526D+05 0.79939526D+05 0.11297900D+01  1  2 15  2  7  2       -2 0.134794106482D-03 0.100000000000D+01
0.204949586111D-04 0.000000000000D+00 -.165019563854D-04 0.861887566009D-09 0.000000000000D+00  7 2 -2 23 -11 11 23 21 2 0.54750528D-01 0.23457679D+00 0.79939526D+05 0.79939526D+05 0.79939526D+05 0.11297900D+01  1  2  5  2  7  2       -2 0.228938677650D-04 0.100000000000D+01
0.358407889873D-05 0.000000000000D+00 -.298141564994D-05 0.861887566009D-09 0.000000000000D+00  7 2 21 23 -11 11 23 2 2 0.54750528D-01 0.23457679D+00 0.79939526D+05 0.79939526D+05 0.79939526D+05 0.11297900D+01  1  2  5  4  7  2       -2 0.319173055502D-04 0.100000000000D+01
  </mgrwgt>
  </event>
  <event>
  8     66 0.55102590E-06 0.21425927E+03 0.75467711E-02 0.98297642E-01
        2 -1    0    0  501    0 0.00000000E+00 0.00000000E+00 0.10502112E+03 0.10502161E+03 0.32000000E+00 0.0000E+00 0.9000E+01
       -2 -1    0    0    0  501 0.00000000E+00 0.00000000E+00 -.46102897E+03 0.46102908E+03 0.32000000E+00 0.0000E+00 0.9000E+01
       25  2    1    2    0    0 -.33563850E+02 -.70512084E+02 -.30953284E+03 0.43802743E+03 0.29993160E+03 0.0000E+00 0.0000E+00
       23  2    1    2    0    0 0.33563850E+02 0.70512084E+02 -.46475010E+02 0.12802327E+03 0.90175077E+02 0.0000E+00 0.0000E+00
       23  1    3    3    0    0 0.23204305E+02 0.80985123E+02 -.12866464E+03 0.17879281E+03 0.91188000E+02 0.0000E+00 0.9000E+01
      -13  1    4    4    0    0 0.62162766E+02 0.29878947E+02 -.33458712E+02 0.76658056E+02 0.10565837E+00 0.0000E+00 0.9000E+01
       13  1    4    4    0    0 -.28598916E+02 0.40633137E+02 -.13016297E+02 0.51365212E+02 0.10565837E+00 0.0000E+00 0.9000E+01
       23  1    3    3    0    0 -.56768155E+02 -.15149721E+03 -.18086820E+03 0.25923461E+03 0.91188000E+02 0.0000E+00 0.9000E+01
#aMCatNLO 1  0  0  1  1 0.24345511D+03 0.00000000D+00  -5  7  0 0.00000000D+00 0.00000000D+00 0.00000000D+00 0.00000000D+00 0.00000000D+00
  <mgrwgt>
 0.1457614464D-03    5    2    0
 0.220040792565695D+03 0.000000000000000D+00 0.000000000000000D+00 0.220040792565695D+03
 0.220040792565695D+03 0.000000000000000D+00 0.000000000000000D+00 -.220040792565695D+03
 0.125886140470859D+03 0.232042984877574D+02 0.809851103282522D+02 -.208576474095432D+02
 0.715339867601792D+02 0.621628714598242D+02 0.298789568798451D+02 0.189772655945800D+02
 0.555383295767004D+02 -.285990061413952D+02 0.406331601361707D+02 0.248102639494815D+02
 0.187123128323652D+03 -.567681638061865D+02 -.151497227344268D+03 -.229298821345183D+02
 0.000000000000000D+00 0.000000000000000D+00 0.000000000000000D+00 0.000000000000000D+00
 0.413434049428803D+03 0.000000000000000D+00 0.000000000000000D+00 0.413434049428803D+03
 0.342951939140518D+03 0.000000000000000D+00 0.000000000000000D+00 -.342951939140518D+03
 0.979073539499359D+02 0.167292504168313D+02 0.235730638337100D+02 -.208576474095432D+02
 0.614713523826983D+02 0.583146096197340D+02 -.424227052516244D+01 0.189772655945800D+02
 0.429065159636526D+02 -.314473244486741D+02 0.153780915563685D+02 0.248102639494815D+02
 0.300648365119927D+03 -.708809237675464D+02 -.276630264534526D+03 -.229298821345183D+02
 0.253452401153107D+03 0.272843881796553D+02 0.241921379669610D+03 0.704821102882853D+02
0.167940860739D-05 0.000000000000D+00 0.000000000000D+00 0.616247001701D-07 0.000000000000D+00  7 2 -2 23 -13 13 23 21 0 0.16157142D-01 0.70927580D-01 0.45907034D+05 0.45907034D+05 0.45907034D+05 0.11505722D+01  1  2  2  1  7  1        2 0.138531639613D-03 0.100000000000D+01
-.932200549215D-07 0.000000000000D+00 -.644937125082D-08 0.616247001701D-07 0.000000000000D+00  7 2 -2 23 -13 13 23 21 2 0.16157142D-01 0.70927580D-01 0.45907034D+05 0.45907034D+05 0.45907034D+05 0.11505722D+01  1  2  3  1  7  1        2 -.101795770216D-04 0.100000000000D+01
0.107199558204D-06 0.000000000000D+00 0.000000000000D+00 0.616247001701D-07 0.000000000000D+00  7 2 -2 23 -13 13 23 21 2 0.16157142D-01 0.70927580D-01 0.45907034D+05 0.45907034D+05 0.45907034D+05 0.11505722D+01  1  2 15  1  7  1        2 0.117061308357D-04 0.100000000000D+01
0.436876464543D-07 0.000000000000D+00 -.563220283998D-06 0.616247001701D-07 0.000000000000D+00  7 2 -2 23 -13 13 23 21 2 0.46178030D-01 0.70927580D-01 0.45907034D+05 0.45907034D+05 0.45907034D+05 0.11505722D+01  1  2  5  1  7  1        2 0.144818058547D-05 0.100000000000D+01
0.357172165543D-07 0.000000000000D+00 -.666793994285D-07 0.616247001701D-07 0.000000000000D+00  7 21 -2 23 -13 13 23 -2 2 0.46178030D-01 0.70927580D-01 0.45907034D+05 0.45907034D+05 0.45907034D+05 0.11505722D+01  1  2  5  3  7  1        2 0.425507240881D-05 0.100000000000D+01
  </mgrwgt>
  </event>
  <event>
  8     66 0.55102590E-06 0.32283045E+03 0.75467711E-02 0.86967799E-01
        2 -1    0    0  501    0 0.00000000E+00 0.00000000E+00 0.25009174E+04 0.25009174E+04 0.32000000E+00 0.0000E+00 0.9000E+01
       -2 -1    0    0    0  501 0.00000000E+00 0.00000000E+00 -.87064999E+02 0.87065587E+02 0.32000000E+00 0.0000E+00 0.9000E+01
       25  2    1    2    0    0 -.40185546E+02 -.25006821E+03 0.22247628E+04 0.22591221E+04 0.29985671E+03 0.0000E+00 0.0000E+00
       23  2    1    2    0    0 0.40185546E+02 0.25006821E+03 0.18908956E+03 0.32886090E+03 0.90805492E+02 0.0000E+00 0.0000E+00
       23  1    3    3    0    0 0.73752089E+02 -.25909409E+02 0.86526650E+03 0.87356284E+03 0.91188000E+02 0.0000E+00 0.9000E+01
      -13  1    4    4    0    0 0.46163146E+02 0.13169607E+03 0.14799850E+03 0.20341696E+03 0.10565837E+00 0.0000E+00 0.9000E+01
       13  1    4    4    0    0 -.59775997E+01 0.11837214E+03 0.41091065E+02 0.12544394E+03 0.10565837E+00 0.0000E+00 0.9000E+01
       23  1    3    3    0    0 -.11393764E+03 -.22415880E+03 0.13594963E+04 0.13855593E+04 0.91188000E+02 0.0000E+00 0.9000E+01
#aMCatNLO 1  0  0  1  1 0.94875752D+03 0.00000000D+00  -5  7  0 0.00000000D+00 0.00000000D+00 0.00000000D+00 0.00000000D+00 0.00000000D+00
  <mgrwgt>
 0.3281819228D-03    3    2    0
 0.466629572748510D+03 0.000000000000000D+00 0.000000000000000D+00 0.466629572748510D+03
 0.466629572748510D+03 0.000000000000000D+00 0.000000000000000D+00 -.466629572748510D+03
 0.184450555561862D+03 0.737520890387160D+02 -.259094085336587D+02 0.139986027927578D+03
 0.181292644275270D+03 0.461632164215272D+02 0.131696090083068D+03 -.115724328361721D+03
 0.241582517132943D+03 -.597767019860064D+01 0.118372121691822D+03 -.210509906772727D+03
 0.325933428526945D+03 -.113937635261642D+03 -.224158803241231D+03 0.186248207206870D+03
 0.000000000000000D+00 0.000000000000000D+00 -.000000000000000D+00 -.000000000000000D+00
 0.846633596235219D+03 0.000000000000000D+00 0.000000000000000D+00 0.846633596235219D+03
 0.190721104655662D+04 0.000000000000000D+00 0.000000000000000D+00 -.190721104655662D+04
 0.184154286344893D+03 -.771439683322436D+02 0.709013188946422D+01 0.139986027927578D+03
 0.241280809967783D+03 -.126826014715688D+03 0.169527198629819D+03 -.115724328361721D+03
 0.376143587211238D+03 -.258856696959293D+03 0.173674372864856D+03 -.210509906772727D+03
 0.529253184632228D+03 -.464026059425065D+03 -.147597776358685D+03 0.186248207206870D+03
 0.142301277463570D+04 0.926852739432290D+03 -.202693927025455D+03 -.106057745032140D+04
0.177654208108D-04 0.000000000000D+00 0.000000000000D+00 0.118526383995D-05 0.000000000000D+00  7 2 -2 23 -13 13 23 21 0 0.38475657D+00 0.13394662D-01 0.10421950D+06 0.10421950D+06 0.10421950D+06 0.11202521D+01  1  2  2  1  7  1        2 0.322223009038D-03 0.100000000000D+01
-.824096842512D-06 0.000000000000D+00 -.682238936562D-07 0.118526383995D-05 0.000000000000D+00  7 2 -2 23 -13 13 23 21 2 0.38475657D+00 0.13394662D-01 0.10421950D+06 0.10421950D+06 0.10421950D+06 0.11202521D+01  1  2  3  1  7  1        2 -.187581855461D-04 0.100000000000D+01
0.108588772785D-05 0.000000000000D+00 0.000000000000D+00 0.118526383995D-05 0.000000000000D+00  7 2 -2 23 -13 13 23 21 2 0.38475657D+00 0.13394662D-01 0.10421950D+06 0.10421950D+06 0.10421950D+06 0.11202521D+01  1  2 15  1  7  1        2 0.247170992903D-04 0.100000000000D+01
  </mgrwgt>
  </event>
  <event>
  8     66 0.55102590E-06 0.14746129E+03 0.75467711E-02 0.10275555E+00
        2 -1    0    0  501    0 0.00000000E+00 0.00000000E+00 0.10916573E+04 0.10916574E+04 0.32000000E+00 0.0000E+00 0.9000E+01
       -2 -1    0    0    0  501 0.00000000E+00 0.00000000E+00 -.75216295E+02 0.75216976E+02 0.32000000E+00 0.0000E+00 0.9000E+01
       25  2    1    2    0    0 -.12770424E+03 -.95338825E+02 0.38614838E+03 0.51042259E+03 0.29329640E+03 0.0000E+00 0.0000E+00
       23  2    1    2    0    0 0.12770424E+03 0.95338825E+02 0.63029266E+03 0.65645177E+03 0.90896823E+02 0.0000E+00 0.0000E+00
       23  1    3    3    0    0 0.23147426E+02 -.11991898E+03 0.14220733E+03 0.20845753E+03 0.91188000E+02 0.0000E+00 0.9000E+01
      -13  1    4    4    0    0 0.18652543E+02 0.84167045E+01 0.14536629E+02 0.25101455E+02 0.10565837E+00 0.0000E+00 0.9000E+01
       13  1    4    4    0    0 0.10905169E+03 0.86922121E+02 0.61575603E+03 0.63135032E+03 0.10565837E+00 0.0000E+00 0.9000E+01
       23  1    3    3    0    0 -.15085166E+03 0.24580155E+02 0.24394105E+03 0.30196506E+03 0.91188000E+02 0.0000E+00 0.9000E+01
#aMCatNLO 1  0  0  2  1 0.28822196D+02 0.00000000D+00  -5  7  0 0.00000000D+00 0.00000000D+00 0.00000000D+00 0.00000000D+00 0.00000000D+00
  <mgrwgt>
 0.2418730141D-03    9    2    0
 0.286549900608019D+03 0.000000000000000D+00 0.000000000000000D+00 0.286549900608019D+03
 0.286549900608019D+03 0.000000000000000D+00 0.000000000000000D+00 -.286549900608019D+03
 0.172218483459036D+03 0.231474257189908D+02 -.119918980229991D+03 -.801722493392383D+02
 0.253262810774020D+02 0.186524205374148D+02 0.841659853021715D+01 -.149220839860973D+02
 0.193381554280553D+03 0.109051815618015D+03 0.869222269395710D+02 0.133972584920358D+03
 0.182173482399047D+03 -.150851661874421D+03 0.245801547602031D+02 -.388782515950222D+02
 0.000000000000000D+00 0.000000000000000D+00 0.000000000000000D+00 -.000000000000000D+00
 0.293429096339863D+03 0.000000000000000D+00 0.000000000000000D+00 0.293429096339863D+03
 0.318779217109280D+03 0.000000000000000D+00 0.000000000000000D+00 -.318779217109280D+03
 0.174040958516267D+03 0.153312973513612D+02 -.123743143869356D+03 -.801722493392383D+02
 0.243296465039001D+02 0.175315352787340D+02 0.786818780197223D+01 -.149220839860973D+02
 0.186778394127397D+03 0.100470449749587D+03 0.827236588267388D+02 0.133972584920358D+03
 0.188675103818858D+03 -.159222841988088D+03 0.204844233310928D+02 -.388782515950222D+02
 0.383842104827197D+02 0.258895596084062D+02 0.126668739095523D+02 -.253501207694168D+02
0.187581792351D-05 0.000000000000D+00 0.000000000000D+00 0.375361162042D-08 0.000000000000D+00  7 2 -2 23 -13 13 23 21 0 0.16794734D+00 0.11571794D-01 0.60102072D+05 0.60102072D+05 0.60102072D+05 0.11403314D+01  1  2  2  2  7  2       -2 0.253916882906D-03 0.100000000000D+01
-.101128062201D-06 0.000000000000D+00 -.720363474047D-08 0.375361162042D-08 0.000000000000D+00  7 2 -2 23 -13 13 23 21 2 0.16794734D+00 0.11571794D-01 0.60102072D+05 0.60102072D+05 0.60102072D+05 0.11403314D+01  1  2  3  2  7  2       -2 -.178006032601D-04 0.100000000000D+01
0.121227548266D-06 0.000000000000D+00 0.000000000000D+00 0.375361162042D-08 0.000000000000D+00  7 2 -2 23 -13 13 23 21 2 0.16794734D+00 0.11571794D-01 0.60102072D+05 0.60102072D+05 0.60102072D+05 0.11403314D+01  1  2 15  2  7  2       -2 0.213385230955D-04 0.100000000000D+01
0.606255334394D-05 0.000000000000D+00 0.000000000000D+00 0.375361162042D-08 0.000000000000D+00  7 2 -2 23 -13 13 23 21 2 0.16794734D+00 0.13001827D-01 0.66895716D+05 0.66895716D+05 0.66895716D+05 0.11363381D+01  1  2 12  2  7  2       -2 0.883173374502D-03 0.100000000000D+01
-.613468292237D-05 0.000000000000D+00 0.000000000000D+00 0.375361162042D-08 0.000000000000D+00  7 2 -2 23 -13 13 23 21 2 0.16794734D+00 0.11571794D-01 0.60102072D+05 0.60102072D+05 0.60102072D+05 0.11403314D+01  1  2  4  2  7  2       -2 -.107982942075D-02 0.100000000000D+01
-.118368439330D-04 0.000000000000D+00 -.203301076525D-05 0.375361162042D-08 0.000000000000D+00  7 2 -2 23 -13 13 23 21 2 0.16794734D+00 0.13172894D-01 0.60102072D+05 0.60102072D+05 0.60102072D+05 0.11403314D+01  1  2  5  2  7  2       -2 -.170198772154D-02 0.100000000000D+01
0.120162155429D-04 0.000000000000D+00 0.201605848153D-05 0.375361162042D-08 0.000000000000D+00  7 2 -2 23 -13 13 23 21 2 0.16794734D+00 0.11571794D-01 0.60102072D+05 0.60102072D+05 0.60102072D+05 0.11403314D+01  1  2  6  2  7  2       -2 0.211509922085D-02 0.100000000000D+01
0.112211046387D-06 0.000000000000D+00 0.000000000000D+00 0.375361162042D-08 0.000000000000D+00  7 2 21 23 -13 13 23 2 2 0.16794734D+00 0.13001827D-01 0.66895716D+05 0.66895716D+05 0.66895716D+05 0.11363381D+01  1  2 12  4  7  2       -2 0.229409928608D-03 0.100000000000D+01
-.228667242370D-06 0.000000000000D+00 -.411336060996D-07 0.375361162042D-08 0.000000000000D+00  7 2 21 23 -13 13 23 2 2 0.16794734D+00 0.13172894D-01 0.60102072D+05 0.60102072D+05 0.60102072D+05 0.11403314D+01  1  2  5  4  7  2       -2 -.461447170360D-03 0.100000000000D+01
  </mgrwgt>
  </event>
  <event>
  8     66 0.55102590E-06 0.44018781E+03 0.75467711E-02 0.91864522E-01
        2 -1    0    0  501    0 0.00000000E+00 0.00000000E+00 0.85037468E+03 0.85037474E+03 0.32000000E+00 0.0000E+00 0.9000E+01
       -2 -1    0    0    0  501 0.00000000E+00 0.00000000E+00 -.38621288E+03 0.38621301E+03 0.32000000E+00 0.0000E+00 0.9000E+01
       25  2    1    2    0    0 -.10934430E+03 -.49979201E+03 0.98634570E+02 0.60148919E+03 0.30051994E+03 0.0000E+00 0.0000E+00
       23  2    1    2    0    0 0.10934430E+03 0.49979201E+03 0.36552723E+03 0.63509856E+03 0.89396852E+02 0.0000E+00 0.0000E+00
       23  1    3    3    0    0 0.18099197E+02 -.38618955E+03 0.39898014E+02 0.39922056E+03 0.91188000E+02 0.0000E+00 0.9000E+01
      -11  1    4    4    0    0 0.12239324E+03 0.41176975E+03 0.31578227E+03 0.53315371E+03 0.51099893E-03 0.0000E+00 0.9000E+01
       11  1    4    4    0    0 -.13048933E+02 0.88022253E+02 0.49744964E+02 0.10194485E+03 0.51099893E-03 0.0000E+00 0.9000E+01
       23  1    3    3    0    0 -.12744350E+03 -.11360245E+03 0.58736556E+02 0.20226863E+03 0.91188000E+02 0.0000E+00 0.9000E+01
#aMCatNLO 1  0  0  1  2 0.16330016D+03 0.00000000D+00  -5  7  0 0.00000000D+00 0.00000000D+00 0.00000000D+00 0.00000000D+00 0.00000000D+00
  <mgrwgt>
 0.1995323736D-03    9    2    0
 0.573084434995776D+03 0.000000000000000D+00 0.000000000000000D+00 0.573084434995776D+03
 0.573084434995776D+03 0.000000000000000D+00 0.000000000000000D+00 -.573084434995776D+03
 0.414556816825825D+03 0.180991965440027D+02 -.386189553382099D+03 -.118626097363762D+03
 0.447331356348750D+03 0.122393235870042D+03 0.411769753843847D+03 0.124783444436552D+03
 0.898419485992037D+02 -.130489326041653D+02 0.880222534204494D+02 0.123848289766185D+02
 0.194438748217774D+03 -.127443499809879D+03 -.113602453882198D+03 -.185421760494079D+02
 0.000000000000000D+00 -.000000000000000D+00 0.000000000000000D+00 0.000000000000000D+00
 0.824880056854770D+03 0.000000000000000D+00 0.000000000000000D+00 0.824880056854770D+03
 0.605971387718868D+03 0.000000000000000D+00 0.000000000000000D+00 -.605971387718868D+03
 0.436751956336245D+03 0.759845651058368D+02 -.403226009713483D+03 -.118626097363762D+03
 0.452013278338440D+03 0.183544838301684D+03 0.393772000174750D+03 0.124783444436552D+03
 0.854249126614832D+02 -.113153297128344D+01 0.845147995772151D+02 0.123848289766185D+02
 0.183553356407003D+03 -.101741647580168D+03 -.121166860813103D+03 -.185421760494079D+02
 0.273107940830465D+03 -.156656222856070D+03 0.461060707746211D+02 0.218908669135902D+03
0.157707774915D-04 0.000000000000D+00 0.000000000000D+00 0.216409924132D-06 0.000000000000D+00  7 2 -2 23 -11 11 23 21 0 0.13082689D+00 0.59417380D-01 0.30765515D+06 0.30765515D+06 0.30765515D+06 0.10837432D+01  1  2  2  1  7  1        2 0.166800916984D-03 0.100000000000D+01
-.875017607161D-06 0.000000000000D+00 -.605639381085D-07 0.216409924132D-06 0.000000000000D+00  7 2 -2 23 -11 11 23 21 2 0.13082689D+00 0.59417380D-01 0.30765515D+06 0.30765515D+06 0.30765515D+06 0.10837432D+01  1  2  3  1  7  1        2 -.108696330329D-04 0.100000000000D+01
0.996885315763D-06 0.000000000000D+00 0.000000000000D+00 0.216409924132D-06 0.000000000000D+00  7 2 -2 23 -11 11 23 21 2 0.13082689D+00 0.59417380D-01 0.30765515D+06 0.30765515D+06 0.30765515D+06 0.10837432D+01  1  2 15  1  7  1        2 0.123834965943D-04 0.100000000000D+01
0.233741169787D-04 0.000000000000D+00 0.000000000000D+00 0.216409924132D-06 0.000000000000D+00  7 2 -2 23 -11 11 23 21 2 0.19077632D+00 0.59417380D-01 0.41294653D+06 0.41294653D+06 0.41294653D+06 0.10744318D+01  1  2 12  1  7  1        2 0.162463478495D-03 0.100000000000D+01
-.244523604229D-04 0.000000000000D+00 0.000000000000D+00 0.216409924132D-06 0.000000000000D+00  7 2 -2 23 -11 11 23 21 2 0.13082689D+00 0.59417380D-01 0.30765515D+06 0.30765515D+06 0.30765515D+06 0.10837432D+01  1  2  4  1  7  1        2 -.303751813003D-03 0.100000000000D+01
-.308132839514D-04 0.000000000000D+00 -.631885421523D-05 0.216409924132D-06 0.000000000000D+00  7 2 -2 23 -11 11 23 21 2 0.19317873D+00 0.59417380D-01 0.30765515D+06 0.30765515D+06 0.30765515D+06 0.10837432D+01  1  2  5  1  7  1        2 -.215983339445D-03 0.100000000000D+01
0.313184389741D-04 0.000000000000D+00 0.586755035598D-05 0.216409924132D-06 0.000000000000D+00  7 2 -2 23 -11 11 23 21 2 0.13082689D+00 0.59417380D-01 0.30765515D+06 0.30765515D+06 0.30765515D+06 0.10837432D+01  1  2  6  1  7  1        2 0.389043530125D-03 0.100000000000D+01
0.106599128504D-05 0.000000000000D+00 0.000000000000D+00 0.216409924132D-06 0.000000000000D+00  7 21 -2 23 -11 11 23 -2 2 0.19077632D+00 0.59417380D-01 0.41294653D+06 0.41294653D+06 0.41294653D+06 0.10744318D+01  1  2 12  3  7  1        2 0.357314158923D-05 0.100000000000D+01
-.123091777887D-05 0.000000000000D+00 -.295108624440D-06 0.216409924132D-06 0.000000000000D+00  7 21 -2 23 -11 11 23 -2 2 0.19317873D+00 0.59417380D-01 0.30765515D+06 0.30765515D+06 0.30765515D+06 0.10837432D+01  1  2  5  3  7  1        2 -.412740469122D-05 0.100000000000D+01
  </mgrwgt>
  </event>
  <event>
  8     66 0.55102590E-06 0.12738529E+03 0.75467711E-02 0.97162972E-01
        2 -1    0    0  501    0 0.00000000E+00 0.00000000E+00 0.14738931E+04 0.14738931E+04 0.32000000E+00 0.0000E+00 0.9000E+01
       -2 -1    0    0    0  501 0.00000000E+00 0.00000000E+00 -.36092140E+03 0.36092154E+03 0.32000000E+00 0.0000E+00 0.9000E+01
       25  2    1    2    0    0 0.23370757E+03 0.37830113E+02 0.14004107E+04 0.14515427E+04 0.29962603E+03 0.0000E+00 0.0000E+00
       23  2    1    2    0    0 -.23370757E+03 -.37830113E+02 -.28743904E+03 0.38327192E+03 0.90696297E+02 0.0000E+00 0.0000E+00
       23  1    3    3    0    0 0.80729946E+02 -.96091827E+02 0.47538970E+03 0.50006158E+03 0.91188000E+02 0.0000E+00 0.9000E+01
      -13  1    4    4    0    0 -.23084266E+03 -.53702504E+02 -.27396173E+03 0.36225313E+03 0.10565837E+00 0.0000E+00 0.9000E+01
       13  1    4    4    0    0 -.28649166E+01 0.15872391E+02 -.13477310E+02 0.21018791E+02 0.10565837E+00 0.0000E+00 0.9000E+01
       23  1    3    3    0    0 0.15297763E+03 0.13392194E+03 0.92502100E+03 0.95148113E+03 0.91188000E+02 0.0000E+00 0.9000E+01
#aMCatNLO 1  0  0  1  2 0.16879485D+03 0.00000000D+00  -5  7  0 0.00000000D+00 0.00000000D+00 0.00000000D+00 0.00000000D+00 0.00000000D+00
  <mgrwgt>
 0.2342143446D-03    9    2    0
 0.729355675367763D+03 0.000000000000000D+00 0.000000000000000D+00 0.729355675367763D+03
 0.729355675367763D+03 0.000000000000000D+00 0.000000000000000D+00 -.729355675367763D+03
 0.266279573331177D+03 0.807299461904573D+02 -.960918271802865D+02 0.216422264027233D+03
 0.664682717784875D+03 -.230842965916081D+03 -.537025982720547D+02 -.620991683799216D+03
 0.367202236517409D+02 -.286460717584378D+01 0.158724854150088D+02 -.329883776126126D+02
 0.491028835967733D+03 0.152977626901468D+03 0.133921940037332D+03 0.437557797384596D+03
 0.000000000000000D+00 -.000000000000000D+00 0.000000000000000D+00 0.000000000000000D+00
 0.936347747318537D+03 0.000000000000000D+00 0.000000000000000D+00 0.936347747318537D+03
 0.769462614076376D+03 0.000000000000000D+00 0.000000000000000D+00 -.769462614076376D+03
 0.282550406560001D+03 0.102566313168576D+03 -.119000151006434D+03 0.216422264027233D+03
 0.655185601226595D+03 -.178329200209547D+03 -.108794287807277D+03 -.620991683799216D+03
 0.354070728624528D+02 0.513058180531578D-02 0.128618709701141D+02 -.329883776126126D+02
 0.495301847195376D+03 0.192220889019908D+03 0.927522089412914D+02 0.437557797384596D+03
 0.237365433550487D+03 -.116463132560742D+03 0.122180358902305D+03 0.166885133242161D+03
0.633455176226D-04 0.000000000000D+00 0.000000000000D+00 0.488447296197D-05 0.000000000000D+00  7 2 -2 23 -13 13 23 21 0 0.22675279D+00 0.55526382D-01 0.99571001D+05 0.99571001D+05 0.99571001D+05 0.11218753D+01  1  2  2  1  7  1        2 0.344644363350D-03 0.100000000000D+01
-.515500946045D-06 0.000000000000D+00 -.243263466928D-06 0.488447296197D-05 0.000000000000D+00  7 2 -2 23 -13 13 23 21 2 0.22675279D+00 0.55526382D-01 0.99571001D+05 0.99571001D+05 0.99571001D+05 0.11218753D+01  1  2  3  1  7  1        2 -.352999367026D-05 0.100000000000D+01
0.387616221593D-05 0.000000000000D+00 0.000000000000D+00 0.488447296197D-05 0.000000000000D+00  7 2 -2 23 -13 13 23 21 2 0.22675279D+00 0.55526382D-01 0.99571001D+05 0.99571001D+05 0.99571001D+05 0.11218753D+01  1  2 15  1  7  1        2 0.265427797798D-04 0.100000000000D+01
0.480356696037D-04 0.000000000000D+00 0.000000000000D+00 0.488447296197D-05 0.000000000000D+00  7 2 -2 23 -13 13 23 21 2 0.29604539D+00 0.55526382D-01 0.16172216D+06 0.16172216D+06 0.16172216D+06 0.11049823D+01  1  2 12  1  7  1        2 0.178327313709D-03 0.100000000000D+01
-.899517848109D-04 0.000000000000D+00 0.000000000000D+00 0.488447296197D-05 0.000000000000D+00  7 2 -2 23 -13 13 23 21 2 0.22675279D+00 0.55526382D-01 0.99571001D+05 0.99571001D+05 0.99571001D+05 0.11218753D+01  1  2  4  1  7  1        2 -.615962460297D-03 0.100000000000D+01
-.904188201249D-04 0.000000000000D+00 -.295682599053D-04 0.488447296197D-05 0.000000000000D+00  7 2 -2 23 -13 13 23 21 2 0.29731239D+00 0.55526382D-01 0.99571001D+05 0.99571001D+05 0.99571001D+05 0.11218753D+01  1  2  5  1  7  1        2 -.351819729122D-03 0.100000000000D+01
0.959399122411D-04 0.000000000000D+00 0.285153405387D-04 0.488447296197D-05 0.000000000000D+00  7 2 -2 23 -13 13 23 21 2 0.22675279D+00 0.55526382D-01 0.99571001D+05 0.99571001D+05 0.99571001D+05 0.11218753D+01  1  2  6  1  7  1        2 0.656967335434D-03 0.100000000000D+01
0.170451189082D-05 0.000000000000D+00 0.000000000000D+00 0.488447296197D-05 0.000000000000D+00  7 21 -2 23 -13 13 23 -2 2 0.29604539D+00 0.55526382D-01 0.16172216D+06 0.16172216D+06 0.16172216D+06 0.11049823D+01  1  2 12  3  7  1        2 0.140762884555D-05 0.100000000000D+01
-.268141816931D-05 0.000000000000D+00 -.106145506611D-05 0.488447296197D-05 0.000000000000D+00  7 21 -2 23 -13 13 23 -2 2 0.29731239D+00 0.55526382D-01 0.99571001D+05 0.99571001D+05 0.99571001D+05 0.11218753D+01  1  2  5  3  7  1        2 -.236289341246D-05 0.100000000000D+01
  </mgrwgt>
  </event>
  <event>
  9     66 0.55102590E-06 0.38249078E+03 0.75467711E-02 0.97349236E-01
        2 -1    0    0  502    0 0.00000000E+00 0.00000000E+00 0.14472214E+04 0.14472215E+04 0.32000000E+00 0.0000E+00 0.9000E+01
       -2 -1    0    0    0  501 0.00000000E+00 0.00000000E+00 -.15593058E+03 0.15593091E+03 0.32000000E+00 0.0000E+00 0.9000E+01
       25  2    1    2    0    0 -.19015285E+03 0.25278246E+03 0.11224249E+04 0.12039504E+04 0.29933565E+03 0.0000E+00 0.0000E+00
       23  2    1    2    0    0 0.17188847E+03 -.27188268E+03 0.14582813E+03 0.36413477E+03 0.88670465E+02 0.0000E+00 0.0000E+00
       23  1    3    3    0    0 -.20118559E+03 0.25937546E+03 0.93475945E+03 0.99490791E+03 0.91188000E+02 0.0000E+00 0.9000E+01
      -11  1    4    4    0    0 0.10789130E+02 -.86182552E+02 0.50425539E+02 0.10043193E+03 0.51099893E-03 0.0000E+00 0.9000E+01
       11  1    4    4    0    0 0.16109934E+03 -.18570013E+03 0.95402591E+02 0.26370284E+03 0.51099893E-03 0.0000E+00 0.9000E+01
       23  1    3    3    0    0 0.11032740E+02 -.65929968E+01 0.18766540E+03 0.20904244E+03 0.91188000E+02 0.0000E+00 0.9000E+01
       21  1    1    2  502  501 0.18264380E+02 0.19100218E+02 0.23037863E+02 0.35067243E+02 0.75000000E+00 0.0000E+00 0.9000E+01
#aMCatNLO 2  0  0  1  2 0.26427371D+02 0.00000000D+00  -5  7  0 0.00000000D+00 0.00000000D+00 0.00000000D+00 0.00000000D+00 0.00000000D+00
  <mgrwgt>
 0.1403786827D-03    2    2    0
 0.460903171363297D+03 0.000000000000000D+00 0.000000000000000D+00 0.460903171363297D+03
 0.460903171363297D+03 0.000000000000000D+00 0.000000000000000D+00 -.460903171363297D+03
 0.407752061351724D+03 -.193123580415732D+03 0.267806411593391D+03 0.221200137408320D+03
 0.998956321178740D+02 0.127831816214857D+02 -.840972466899001D+02 -.523772916733941D+02
 0.316671015259995D+03 0.167377675000851D+03 -.179134474677213D+03 -.200439731089482D+03
 0.974876339970021D+02 0.129627237933947D+02 -.457469022627795D+01 0.316168853545569D+02
 0.000000000000000D+00 0.000000000000000D+00 0.000000000000000D+00 -.000000000000000D+00
 0.470533467181529D+03 0.000000000000000D+00 0.000000000000000D+00 0.470533467181529D+03
 0.479586657569375D+03 0.000000000000000D+00 0.000000000000000D+00 -.479586657569375D+03
 0.406197023650663D+03 -.201185589511285D+03 0.259375458480933D+03 0.221200137408320D+03
 0.101425925389413D+03 0.107891303255745D+02 -.861825523228269D+02 -.523772916733941D+02
 0.317196501139386D+03 0.161099339197362D+03 -.185700127749061D+03 -.200439731089482D+03
 0.973656393905966D+02 0.110327396072898D+02 -.659299682801720D+01 0.316168853545569D+02
 0.279350351808455D+02 0.182643803810592D+02 0.191002184189727D+02 -.905319038784634D+01
-.233819511191D-05 0.000000000000D+00 0.000000000000D+00 0.660391787498D-07 0.000000000000D+00  7 2 -2 23 -11 11 23 21 2 0.21809025D+00 0.23054539D-01 0.14629920D+06 0.14629920D+06 0.14629920D+06 0.11084091D+01  1  2  8  1  7  1        2 -.827543623460D-04 0.100000000000D+01
0.704409157371D-05 0.000000000000D+00 0.000000000000D+00 0.660391787498D-07 0.617881483199D-09  7 2 -2 23 -11 11 23 21 2 0.22264711D+00 0.23989093D-01 0.15677552D+06 0.15677552D+06 0.15677552D+06 0.11060409D+01  1  2  1  1  7  1        2 0.223133045056D-03 0.100000000000D+01
  </mgrwgt>
  </event>
  <event>
  8     66 0.55102590E-06 0.13025022E+03 0.75467711E-02 0.10122736E+00
        2 -1    0    0  501    0 0.00000000E+00 0.00000000E+00 0.78021824E+03 0.78021831E+03 0.32000000E+00 0.0000E+00 0.9000E+01
       -2 -1    0    0    0  501 0.00000000E+00 0.00000000E+00 -.10403115E+03 0.10403164E+03 0.32000000E+00 0.0000E+00 0.9000E+01
       25  2    1    2    0    0 -.71108867E+02 -.13618727E+03 0.24894516E+03 0.41896546E+03 0.29992485E+03 0.0000E+00 0.0000E+00
       23  2    1    2    0    0 0.71108867E+02 0.13618727E+03 0.42724194E+03 0.46528449E+03 0.10173762E+03 0.0000E+00 0.0000E+00
       23  1    3    3    0    0 -.13592331E+03 -.13234430E+03 0.21753769E+03 0.30270127E+03 0.91188000E+02 0.0000E+00 0.9000E+01
      -13  1    4    4    0    0 0.11981552E+01 0.89992655E+02 0.14314396E+03 0.16908672E+03 0.10565837E+00 0.0000E+00 0.9000E+01
       13  1    4    4    0    0 0.69910712E+02 0.46194616E+02 0.28409798E+03 0.29619778E+03 0.10565837E+00 0.0000E+00 0.9000E+01
       23  1    3    3    0    0 0.64814447E+02 -.38429707E+01 0.31407470E+02 0.11626419E+03 0.91188000E+02 0.0000E+00 0.9000E+01
#aMCatNLO 1  0  0  1  2 0.75418450D+02 0.00000000D+00  -5  7  0 0.00000000D+00 0.00000000D+00 0.00000000D+00 0.00000000D+00 0.00000000D+00
  <mgrwgt>
 0.1678808815D-03    9    2    0
 0.284898659955895D+03 0.000000000000000D+00 0.000000000000000D+00 0.284898659955895D+03
 0.284898659955895D+03 0.000000000000000D+00 0.000000000000000D+00 -.284898659955895D+03
 0.211597025736830D+03 -.135923325769107D+03 -.132344323575668D+03 -.216305220888644D+02
 0.925290306972784D+02 0.119813665326626D+01 0.899926692526305D+02 0.214826783973659D+02
 0.122516362569081D+03 0.699107511492888D+02 0.461946411297308D+02 0.893800934313464D+02
 0.143154900908600D+03 0.648144379665515D+02 -.384298680669369D+01 -.892322497398479D+02
 0.000000000000000D+00 -.000000000000000D+00 0.000000000000000D+00 0.000000000000000D+00
 0.445514004119411D+03 0.000000000000000D+00 0.000000000000000D+00 0.445514004119411D+03
 0.296375900661377D+03 0.000000000000000D+00 0.000000000000000D+00 -.296375900661377D+03
 0.209271001570490D+03 -.113545050323115D+03 -.148723713023850D+03 -.216305220888644D+02
 0.864287629867132D+02 0.107136297304891D+02 0.830279696143822D+02 0.214826783973659D+02
 0.127440571079012D+03 0.832013903708040D+02 0.364667889388918D+02 0.893800934313464D+02
 0.151626511301294D+03 0.804884716559159D+02 -.153153231197235D+02 -.892322497398479D+02
 0.167123057843279D+03 -.608584414340937D+02 0.445442775902994D+02 0.149138103458034D+03
0.124700683417D-05 0.000000000000D+00 0.000000000000D+00 0.549173703526D-08 0.000000000000D+00  7 2 -2 23 -13 13 23 21 0 0.12003362D+00 0.16004835D-01 0.61559802D+05 0.61559802D+05 0.61559802D+05 0.11394340D+01  1  2  2  1  7  1        2 0.158642158663D-03 0.100000000000D+01
-.676681919085D-07 0.000000000000D+00 -.478883458764D-08 0.549173703526D-08 0.000000000000D+00  7 2 -2 23 -13 13 23 21 2 0.12003362D+00 0.16004835D-01 0.61559802D+05 0.61559802D+05 0.61559802D+05 0.11394340D+01  1  2  3  1  7  1        2 -.111766769171D-04 0.100000000000D+01
0.776351028418D-07 0.000000000000D+00 0.000000000000D+00 0.549173703526D-08 0.000000000000D+00  7 2 -2 23 -13 13 23 21 2 0.12003362D+00 0.16004835D-01 0.61559802D+05 0.61559802D+05 0.61559802D+05 0.11394340D+01  1  2 15  1  7  1        2 0.128229000571D-04 0.100000000000D+01
0.270575708301D-05 0.000000000000D+00 0.000000000000D+00 0.549173703526D-08 0.000000000000D+00  7 2 -2 23 -13 13 23 21 2 0.18899783D+00 0.16004835D-01 0.84307956D+05 0.84307956D+05 0.84307956D+05 0.11278566D+01  1  2 12  1  7  1        2 0.232717101083D-03 0.100000000000D+01
-.275088621831D-05 0.000000000000D+00 0.000000000000D+00 0.549173703526D-08 0.000000000000D+00  7 2 -2 23 -13 13 23 21 2 0.12003362D+00 0.16004835D-01 0.61559802D+05 0.61559802D+05 0.61559802D+05 0.11394340D+01  1  2  4  1  7  1        2 -.454360691939D-03 0.100000000000D+01
-.308717747734D-05 0.000000000000D+00 -.453755614710D-06 0.549173703526D-08 0.000000000000D+00  7 2 -2 23 -13 13 23 21 2 0.19070025D+00 0.16004835D-01 0.61559802D+05 0.61559802D+05 0.61559802D+05 0.11394340D+01  1  2  5  1  7  1        2 -.268208261636D-03 0.100000000000D+01
0.301318481189D-05 0.000000000000D+00 0.409127985405D-06 0.549173703526D-08 0.000000000000D+00  7 2 -2 23 -13 13 23 21 2 0.12003362D+00 0.16004835D-01 0.61559802D+05 0.61559802D+05 0.61559802D+05 0.11394340D+01  1  2  6  1  7  1        2 0.497684246973D-03 0.100000000000D+01
0.141544712121D-06 0.000000000000D+00 0.000000000000D+00 0.549173703526D-08 0.000000000000D+00  7 21 -2 23 -13 13 23 -2 2 0.18899783D+00 0.16004835D-01 0.84307956D+05 0.84307956D+05 0.84307956D+05 0.11278566D+01  1  2 12  3  7  1        2 0.642959848325D-05 0.100000000000D+01
-.145229588902D-06 0.000000000000D+00 -.240941939065D-07 0.549173703526D-08 0.000000000000D+00  7 21 -2 23 -13 13 23 -2 2 0.19070025D+00 0.16004835D-01 0.61559802D+05 0.61559802D+05 0.61559802D+05 0.11394340D+01  1  2  5  3  7  1        2 -.666949328274D-05 0.100000000000D+01
  </mgrwgt>
  </event>
  <event>
  9     66 0.55102590E-06 0.24958842E+03 0.75467711E-02 0.92633018E-01
        2 -1    0    0  501    0 0.00000000E+00 0.00000000E+00 0.13948022E+04 0.13948022E+04 0.32000000E+00 0.0000E+00 0.9000E+01
       21 -1    0    0  502  501 0.00000000E+00 0.00000000E+00 -.28258623E+03 0.28258722E+03 0.75000000E+00 0.0000E+00 0.9000E+01
       25  2    1    2    0    0 0.89848625E+02 0.52441535E+02 0.50324509E+03 0.59553340E+03 0.30096765E+03 0.0000E+00 0.0000E+00
       23  2    1    2    0    0 0.38752432E+03 0.35671885E+02 0.19868462E+03 0.44625884E+03 0.90685134E+02 0.0000E+00 0.0000E+00
       23  1    3    3    0    0 -.60018557E+02 0.78629134E+02 0.15901598E+03 0.20829331E+03 0.91188000E+02 0.0000E+00 0.9000E+01
      -13  1    4    4    0    0 0.38073466E+03 0.18848036E+02 0.18628040E+03 0.42428119E+03 0.10565837E+00 0.0000E+00 0.9000E+01
       13  1    4    4    0    0 0.67896619E+01 0.16823849E+02 0.12404218E+02 0.21977652E+02 0.10565837E+00 0.0000E+00 0.9000E+01
       23  1    3    3    0    0 0.14986718E+03 -.26187599E+02 0.34422910E+03 0.38724009E+03 0.91188000E+02 0.0000E+00 0.9000E+01
        2  1    1    2  502    0 -.47737294E+03 -.88113420E+02 0.41028627E+03 0.63559722E+03 0.32000000E+00 0.0000E+00 0.9000E+01
#aMCatNLO 2  0  0  2  2 0.48543681D+03 0.00000000D+00  -5  7  0 0.00000000D+00 0.00000000D+00 0.00000000D+00 0.00000000D+00 0.00000000D+00
  <mgrwgt>
 0.3392322725D-04    1    2    0
 0.298737701886372D+03 0.000000000000000D+00 0.000000000000000D+00 0.298737701886372D+03
 0.298737701886372D+03 0.000000000000000D+00 0.000000000000000D+00 -.298737701886372D+03
 0.212733882815801D+03 -.182084622717083D+03 0.560981980289582D+02 0.252712465416348D+02
 0.213973787117184D+03 0.164865030170315D+03 -.209972357116104D+02 -.134771731059159D+03
 0.158424765677301D+02 -.517707735214043D+01 0.146151213971363D+02 -.325271585540475D+01
 0.154925257272028D+03 0.223966698989081D+02 -.497160837144841D+02 0.112753200372929D+03
 0.000000000000000D+00 -.000000000000000D+00 -.000000000000000D+00 -.000000000000000D+00
 0.615780278061598D+03 0.000000000000000D+00 0.000000000000000D+00 0.615780278061598D+03
 0.640086575352349D+03 0.000000000000000D+00 0.000000000000000D+00 -.640086575352349D+03
 0.136889206697170D+03 -.600185568947994D+02 0.786291325952304D+02 0.252712465416348D+02
 0.404324047656881D+03 0.380735167072434D+03 0.188480390303069D+02 -.134771731059159D+03
 0.184313480230811D+02 0.678915443853242D+01 0.168238465138532D+02 -.325271585540475D+01
 0.210177298038903D+03 0.149867177097245D+03 -.261875982384578D+02 0.112753200372929D+03
 0.486044952997910D+03 -.477372941713412D+03 -.881134199009328D+02 -.243062972907508D+02
0.296045099341D-06 0.000000000000D+00 0.000000000000D+00 0.142873755232D-06 0.124117708214D-11  7 2 21 23 -13 13 23 2 2 0.21458502D+00 0.43474880D-01 0.35801655D+06 0.35801655D+06 0.35801655D+06 0.10789165D+01  1  2  1  4  7  2       -2 0.339232272521D-04 0.100000000000D+01
  </mgrwgt>
  </event>
  <event>
  7     66 0.55102590E-06 0.22889385E+03 0.75467711E-02 0.91100877E-01
        2 -1    0    0  501    0 0.00000000E+00 0.00000000E+00 0.18259631E+04 0.18259631E+04 0.32000000E+00 0.0000E+00 0.9000E+01
       -2 -1    0    0    0  501 0.00000000E+00 0.00000000E+00 -.20105076E+03 0.20105101E+03 0.32000000E+00 0.0000E+00 0.9000E+01
       23  2    1    2    0    0 -.18012373E+03 -.15520217E+03 -.18300897E+02 0.26034757E+03 0.10446848E+03 0.0000E+00 0.0000E+00
       23  1    1    2    0    0 -.16395689E+03 0.21147802E+03 0.60777702E+03 0.67030812E+03 0.91188000E+02 0.0000E+00 0.9000E+01
      -13  1    3    3    0    0 -.65360738E+02 -.12100308E+03 0.79381374E+01 0.13775630E+03 0.10565837E+00 0.0000E+00 0.9000E+01
       13  1    3    3    0    0 -.11476299E+03 -.34199086E+02 -.26239035E+02 0.12259127E+03 0.10565837E+00 0.0000E+00 0.9000E+01
       23  1    1    2    0    0 0.34408062E+03 -.56275848E+02 0.10354362E+04 0.10963585E+04 0.91188000E+02 0.0000E+00 0.9000E+01
#aMCatNLO 1  0  0  1  2 0.38713742D+03 0.00000000D+00  -5  7  0 0.00000000D+00 0.00000000D+00 0.00000000D+00 0.00000000D+00 0.00000000D+00
  <mgrwgt>
 0.3857991971D-02    7    2    0
 0.605897312067843D+03 0.000000000000000D+00 0.000000000000000D+00 0.605897312067843D+03
 0.605897312067843D+03 0.000000000000000D+00 0.000000000000000D+00 -.605897312067843D+03
 0.306265571017424D+03 -.163945159477479D+03 0.211473595672396D+03 0.117831454475961D+03
 0.219791088575373D+03 -.653629106995615D+02 -.121005079584981D+03 -.171445569311840D+03
 0.240253203147703D+03 -.114765468451249D+03 -.342010940977500D+02 -.208280517659271D+03
 0.445484761395186D+03 0.344073538628290D+03 -.562674219896652D+02 0.261894632495150D+03
 0.000000000000000D+00 0.000000000000000D+00 0.000000000000000D+00 0.000000000000000D+00
 0.121127335682616D+04 0.000000000000000D+00 0.000000000000000D+00 0.121127335682616D+04
 0.701206107694250D+03 0.000000000000000D+00 0.000000000000000D+00 -.701206107694250D+03
 0.339492973164088D+03 -.254677112165102D+03 0.167915289235721D+03 0.117831454475961D+03
 0.266290546877809D+03 -.133659546257300D+03 -.153792710536339D+03 -.171445569311840D+03
 0.289997789467836D+03 -.189268095490490D+03 -.699680776441675D+02 -.208280517659271D+03
 0.376351386534571D+03 0.228601898085844D+03 -.111702678858986D+03 0.261894632495150D+03
 0.640346768476106D+03 0.349002855827048D+03 0.167548177803771D+03 0.510067249131909D+03
0.384749691076D-03 0.000000000000D+00 0.000000000000D+00 0.119937663843D-11 0.000000000000D+00  7 2 -2 23 -13 13 23 21 0 0.28091742D+00 0.30930908D-01 0.20265593D+06 0.20265593D+06 0.20265593D+06 0.10973856D+01  1  2  2  1  7  1        2 0.395638186403D-02 0.100000000000D+01
-.190813259328D-04 0.000000000000D+00 -.147754012065D-05 0.119937663843D-11 0.000000000000D+00  7 2 -2 23 -13 13 23 21 2 0.28091742D+00 0.30930908D-01 0.20265593D+06 0.20265593D+06 0.20265593D+06 0.10973856D+01  1  2  3  1  7  1        2 -.236290906286D-03 0.100000000000D+01
0.236987911857D-04 0.000000000000D+00 0.000000000000D+00 0.119937663843D-11 0.000000000000D+00  7 2 -2 23 -13 13 23 21 2 0.28091742D+00 0.30930908D-01 0.20265593D+06 0.20265593D+06 0.20265593D+06 0.10973856D+01  1  2 15  1  7  1        2 0.293470635472D-03 0.100000000000D+01
0.956406989116D-05 0.000000000000D+00 0.000000000000D+00 0.119937663843D-11 0.000000000000D+00  7 2 -2 23 -13 13 23 21 2 0.56361000D+00 0.30930908D-01 0.47703244D+06 0.47703244D+06 0.47703244D+06 0.10699567D+01  1  2 12  1  7  1        2 0.789711644720D-05 0.100000000000D+01
-.205110015613D-03 0.000000000000D+00 -.946124778990D-04 0.119937663843D-11 0.000000000000D+00  7 2 -2 23 -13 13 23 21 2 0.57742884D+00 0.30930908D-01 0.20265593D+06 0.20265593D+06 0.20265593D+06 0.10973856D+01  1  2  5  1  7  1        2 -.163275272463D-03 0.100000000000D+01
0.720477888201D-06 0.000000000000D+00 0.000000000000D+00 0.119937663843D-11 0.000000000000D+00  7 21 -2 23 -13 13 23 -2 2 0.56361000D+00 0.30930908D-01 0.47703244D+06 0.47703244D+06 0.47703244D+06 0.10699567D+01  1  2 12  3  7  1        2 0.164869702809D-07 0.100000000000D+01
-.101915570866D-04 0.000000000000D+00 -.737143682282D-05 0.119937663843D-11 0.000000000000D+00  7 21 -2 23 -13 13 23 -2 2 0.57742884D+00 0.30930908D-01 0.20265593D+06 0.20265593D+06 0.20265593D+06 0.10973856D+01  1  2  5  3  7  1        2 -.207953606217D-06 0.100000000000D+01
  </mgrwgt>
  </event>
  <event>
  9     66 0.55102590E-06 0.31845619E+03 0.75467711E-02 0.95335219E-01
        2 -1    0    0  501    0 0.00000000E+00 0.00000000E+00 0.16397307E+04 0.16397307E+04 0.32000000E+00 0.0000E+00 0.9000E+01
       21 -1    0    0  502  501 0.00000000E+00 0.00000000E+00 -.16594008E+03 0.16594178E+03 0.75000000E+00 0.0000E+00 0.9000E+01
       25  2    1    2    0    0 0.20177174E+03 -.37180108E+03 0.98104067E+03 0.11096615E+04 0.29993340E+03 0.0000E+00 0.0000E+00
       23  2    1    2    0    0 -.15862092E+03 0.11326434E+03 0.14189099E+03 0.25805509E+03 0.92032422E+02 0.0000E+00 0.0000E+00
       23  1    3    3    0    0 0.13028969E+02 -.72423937E+02 0.45006082E+03 0.46506448E+03 0.91188000E+02 0.0000E+00 0.9000E+01
      -13  1    4    4    0    0 -.14685899E+03 0.10706322E+03 0.86844007E+02 0.20142490E+03 0.10565837E+00 0.0000E+00 0.9000E+01
       13  1    4    4    0    0 -.11761931E+02 0.62011216E+01 0.55046982E+02 0.56630189E+02 0.10565837E+00 0.0000E+00 0.9000E+01
       23  1    3    3    0    0 0.18874277E+03 -.29937714E+03 0.53097985E+03 0.64459705E+03 0.91188000E+02 0.0000E+00 0.9000E+01
        2  1    1    2  502    0 -.43150813E+02 0.25853674E+03 0.35085892E+03 0.43795585E+03 0.32000000E+00 0.0000E+00 0.9000E+01
#aMCatNLO 2  0  0  2  2 0.26211303D+03 0.00000000D+00  -5  7  0 0.00000000D+00 0.00000000D+00 0.00000000D+00 0.00000000D+00 0.00000000D+00
  <mgrwgt>
 0.4912925190D-04    1    2    0
 0.367753315053667D+03 0.000000000000000D+00 0.000000000000000D+00 0.367753315053667D+03
 0.367753315053667D+03 0.000000000000000D+00 0.000000000000000D+00 -.367753315053667D+03
 0.151463515919536D+03 0.395561344633215D+01 -.180612113500505D+02 0.119516070373567D+03
 0.288222297469189D+03 -.161547641867317D+03 0.195068858051278D+03 -.137559415468723D+03
 0.241337734351562D+02 -.130185488530504D+02 0.137310434954362D+02 0.149804823188919D+02
 0.271687043283453D+03 0.170610577274035D+03 -.190738690196664D+03 0.306286277626329D+01
 0.000000000000000D+00 -.000000000000000D+00 0.000000000000000D+00 -.000000000000000D+00
 0.514054102503014D+03 0.000000000000000D+00 0.000000000000000D+00 0.514054102503014D+03
 0.529318786399024D+03 0.000000000000000D+00 0.000000000000000D+00 -.529318786399024D+03
 0.167374798496341D+03 0.130289693196521D+02 -.724239374006886D+02 0.119516070373567D+03
 0.227931503069302D+03 -.146859171548961D+03 0.107063350588740D+03 -.137559415468723D+03
 0.200301257700375D+02 -.117617526772950D+02 0.620098877720569D+01 0.149804823188919D+02
 0.365479326544889D+03 0.188742768301815D+03 -.299377141868057D+03 0.306286277626329D+01
 0.262557135021468D+03 -.431508133952110D+02 0.258536739902800D+03 -.152646838960095D+02
0.188767937892D-06 0.000000000000D+00 0.000000000000D+00 0.822132914629D-06 0.557763989926D-11  7 2 21 23 -13 13 23 2 2 0.25226634D+00 0.25529371D-01 0.22080316D+06 0.22080316D+06 0.22080316D+06 0.10945399D+01  1  2  1  4  7  2       -2 0.491292519007D-04 0.100000000000D+01
  </mgrwgt>
  </event>
  <event>
  8     66 0.55102590E-06 0.47875635E+03 0.75467711E-02 0.88528783E-01
        2 -1    0    0  501    0 0.00000000E+00 0.00000000E+00 0.13070182E+04 0.13070182E+04 0.32000000E+00 0.0000E+00 0.9000E+01
       -2 -1    0    0    0  501 0.00000000E+00 0.00000000E+00 -.18563209E+03 0.18563237E+03 0.32000000E+00 0.0000E+00 0.9000E+01
       25  2    1    2    0    0 0.18812690E+01 -.44096316E+03 0.65773531E+03 0.84655975E+03 0.29932529E+03 0.0000E+00 0.0000E+00
       23  2    1    2    0    0 -.18812690E+01 0.44096316E+03 0.46365079E+03 0.64609085E+03 0.89494540E+02 0.0000E+00 0.0000E+00
       23  1    3    3    0    0 0.57297747E+02 -.36363584E+03 0.58172583E+03 0.69443088E+03 0.91188000E+02 0.0000E+00 0.9000E+01
      -13  1    4    4    0    0 -.24359493E+02 0.39029779E+03 0.37673622E+03 0.54300639E+03 0.10565837E+00 0.0000E+00 0.9000E+01
       13  1    4    4    0    0 0.22478224E+02 0.50665371E+02 0.86914573E+02 0.10308445E+03 0.10565837E+00 0.0000E+00 0.9000E+01
       23  1    3    3    0    0 -.55416478E+02 -.77327328E+02 0.76009477E+02 0.15212887E+03 0.91188000E+02 0.0000E+00 0.9000E+01
#aMCatNLO 1  0  0  2  2 0.63719929D+03 0.00000000D+00  -5  7  0 0.00000000D+00 0.00000000D+00 0.00000000D+00 0.00000000D+00 0.00000000D+00
  <mgrwgt>
 0.3728466587D-03    3    2    0
 0.492569543213762D+03 0.000000000000000D+00 0.000000000000000D+00 0.492569543213762D+03
 0.492569543213762D+03 0.000000000000000D+00 0.000000000000000D+00 -.492569543213762D+03
 0.389999150053634D+03 0.572977469090481D+02 -.363635835693297D+03 0.909397212297302D+02
 0.393906326150481D+03 -.243595583758476D+02 0.390298266127651D+03 -.472870928991362D+02
 0.572546713581038D+02 0.224782893554633D+02 0.506648976215877D+02 0.143489389492938D+02
 0.143978938865306D+03 -.554164778886637D+02 -.773273280559421D+02 -.580015672798878D+02
 0.000000000000000D+00 0.000000000000000D+00 -.000000000000000D+00 0.000000000000000D+00
 0.198700945805046D+04 0.000000000000000D+00 0.000000000000000D+00 0.198700945805046D+04
 0.659110622838453D+03 0.000000000000000D+00 0.000000000000000D+00 -.659110622838453D+03
 0.240542254802381D+03 -.324546634851276D+02 -.200554199462738D+03 0.909397212297302D+02
 0.697887383773190D+03 -.179767460797775D+03 0.672677033436743D+03 -.472870928991362D+02
 0.898872372913722D+02 0.153384245699866D+01 0.887213092003381D+02 0.143489389492938D+02
 0.144935848069825D+03 -.965411341384289D+02 -.260313734979245D+01 -.580015672798878D+02
 0.147286735695215D+04 0.307229415964333D+03 -.558241005824550D+03 0.132789883521201D+04
0.162838012686D-04 0.000000000000D+00 0.000000000000D+00 0.186673511757D-06 0.000000000000D+00  7 2 -2 23 -13 13 23 21 0 0.20107975D+00 0.28558807D-01 0.22920764D+06 0.22920764D+06 0.22920764D+06 0.10933075D+01  1  2  2  2  7  2       -2 0.369154030061D-03 0.100000000000D+01
-.903765725396D-06 0.000000000000D+00 -.625340844948D-07 0.186673511757D-06 0.000000000000D+00  7 2 -2 23 -13 13 23 21 2 0.20107975D+00 0.28558807D-01 0.22920764D+06 0.22920764D+06 0.22920764D+06 0.10933075D+01  1  2  3  2  7  2       -2 -.244901995477D-04 0.100000000000D+01
0.104003538745D-05 0.000000000000D+00 0.000000000000D+00 0.186673511757D-06 0.000000000000D+00  7 2 -2 23 -13 13 23 21 2 0.20107975D+00 0.28558807D-01 0.22920764D+06 0.22920764D+06 0.22920764D+06 0.10933075D+01  1  2 15  2  7  2       -2 0.281828282038D-04 0.100000000000D+01
  </mgrwgt>
  </event>
  <event>
  9     66 0.55102590E-06 0.19658008E+03 0.75467711E-02 0.10403953E+00
        2 -1    0    0  501    0 0.00000000E+00 0.00000000E+00 0.16106558E+04 0.16106558E+04 0.32000000E+00 0.0000E+00 0.9000E+01
       21 -1    0    0  502  501 0.00000000E+00 0.00000000E+00 -.15183458E+03 0.15183643E+03 0.75000000E+00 0.0000E+00 0.9000E+01
       25  2    1    2    0    0 0.10024689E+03 -.27645222E+01 0.19501833E+03 0.37169174E+03 0.30010918E+03 0.0000E+00 0.0000E+00
       23  2    1    2    0    0 -.14716337E+02 -.22047900E+02 0.12933672E+04 0.12969641E+04 0.92813935E+02 0.0000E+00 0.0000E+00
       23  1    3    3    0    0 0.15716908E+03 0.35431092E+01 0.19141578E+03 0.26395061E+03 0.91188000E+02 0.0000E+00 0.9000E+01
      -11  1    4    4    0    0 0.34746106E+02 0.60520837E+01 0.32041924E+03 0.32235448E+03 0.51099893E-03 0.0000E+00 0.9000E+01
       11  1    4    4    0    0 -.49462443E+02 -.28099984E+02 0.97294794E+03 0.97460958E+03 0.51099893E-03 0.0000E+00 0.9000E+01
       23  1    3    3    0    0 -.56922186E+02 -.63076314E+01 0.36025489E+01 0.10774113E+03 0.91188000E+02 0.0000E+00 0.9000E+01
        2  1    1    2  502    0 -.85530556E+02 0.24812422E+02 -.29564292E+02 0.93836464E+02 0.32000000E+00 0.0000E+00 0.9000E+01
#aMCatNLO 2  0  0  2  1 0.89056905D+02 0.00000000D+00  -5  7  0 0.00000000D+00 0.00000000D+00 0.00000000D+00 0.00000000D+00 0.00000000D+00
  <mgrwgt>
 0.9705390477D-04    2    2    0
 0.374562954660454D+03 0.000000000000000D+00 0.000000000000000D+00 0.374562954660454D+03
 0.374562954660454D+03 0.000000000000000D+00 0.000000000000000D+00 -.374562954660454D+03
 0.189804409572536D+03 0.134642876519540D+03 0.100779628562365D+02 -.973662827491705D+02
 0.776500020330633D+02 0.257297276141525D+02 0.866773585212432D+01 0.727487064340944D+02
 0.242548864473927D+03 -.766950986185699D+02 -.201997877810730D+02 0.229215579922218D+03
 0.239122633241382D+03 -.836775055151222D+02 0.145408907271220D+01 -.204598003607142D+03
 0.000000000000000D+00 -.000000000000000D+00 0.000000000000000D+00 -.000000000000000D+00
 0.384879551069587D+03 0.000000000000000D+00 0.000000000000000D+00 0.384879551069587D+03
 0.635406038844502D+03 0.000000000000000D+00 0.000000000000000D+00 -.635406038844502D+03
 0.206179818707087D+03 0.157169079842634D+03 0.354310924410672D+01 -.973662827491705D+02
 0.808473492080099D+02 0.347461058061321D+02 0.605208372686005D+01 0.727487064340944D+02
 0.236169270738764D+03 -.494624431789734D+02 -.280999835759358D+02 0.229215579922218D+03
 0.231204489450498D+03 -.569221863950846D+02 -.630763141287056D+01 -.204598003607142D+03
 0.265884661809730D+03 -.855305560747078D+02 0.248124220178396D+02 -.250526487774915D+03
-.602619173674D-06 0.000000000000D+00 0.000000000000D+00 0.461112499023D-06 0.000000000000D+00  7 2 21 23 -11 11 23 2 2 0.24115125D+00 0.23432998D-01 0.55374444D+05 0.55374444D+05 0.55374444D+05 0.11434156D+01  1  2 13  4  7  2       -2 -.237824984314D-03 0.100000000000D+01
0.889169289411D-06 0.000000000000D+00 0.000000000000D+00 0.461112499023D-06 0.276510606731D-10  7 2 21 23 -11 11 23 2 2 0.24779328D+00 0.23359306D-01 0.55374444D+05 0.55374444D+05 0.55374444D+05 0.11434156D+01  1  2  1  4  7  2       -2 0.334878889086D-03 0.100000000000D+01
  </mgrwgt>
  </event>
  <event>
  8     66 0.55102590E-06 0.29891491E+03 0.75467711E-02 0.98379027E-01
        2 -1    0    0  501    0 0.00000000E+00 0.00000000E+00 0.26471590E+04 0.26471590E+04 0.32000000E+00 0.0000E+00 0.9000E+01
       -2 -1    0    0    0  501 0.00000000E+00 0.00000000E+00 -.64559492E+02 0.64560285E+02 0.32000000E+00 0.0000E+00 0.9000E+01
       25  2    1    2    0    0 -.23628088E+03 0.22840611E+02 0.22993497E+04 0.23309708E+04 0.30010908E+03 0.0000E+00 0.0000E+00
       23  2    1    2    0    0 0.23628088E+03 -.22840611E+02 0.28324980E+03 0.38074850E+03 0.91589435E+02 0.0000E+00 0.0000E+00
       23  1    3    3    0    0 -.21822667E+03 -.50594227E+02 0.11275740E+04 0.11532221E+04 0.91188000E+02 0.0000E+00 0.9000E+01
      -11  1    4    4    0    0 0.34467694E+02 -.66781252E+00 0.10521135E+03 0.11071539E+03 0.51099893E-03 0.0000E+00 0.9000E+01
       11  1    4    4    0    0 0.20181319E+03 -.22172798E+02 0.17803845E+03 0.27003311E+03 0.51099893E-03 0.0000E+00 0.9000E+01
       23  1    3    3    0    0 -.18054206E+02 0.73434838E+02 0.11717757E+04 0.11777488E+04 0.91188000E+02 0.0000E+00 0.9000E+01
#aMCatNLO 1  0  0  2  1 0.12196004D+03 0.00000000D+00  -5  7  0 0.00000000D+00 0.00000000D+00 0.00000000D+00 0.00000000D+00 0.00000000D+00
  <mgrwgt>
 0.4007975087D-03    4    2    0
 0.413400946145453D+03 0.000000000000000D+00 0.000000000000000D+00 0.413400946145453D+03
 0.413400946145453D+03 0.000000000000000D+00 0.000000000000000D+00 -.413400946145453D+03
 0.260210296548699D+03 -.218226673182469D+03 -.505942270613016D+02 0.959765095517824D+02
 0.344825782720634D+02 0.344676937972957D+02 -.667812523226101D+00 -.761784102395836D+00
 0.329525136902452D+03 0.201813185039517D+03 -.221727982553309D+02 -.259550806610794D+03
 0.202583880567691D+03 -.180542056543436D+02 0.734348378398586D+02 0.164336081161408D+03
 0.000000000000000D+00 0.000000000000000D+00 -.000000000000000D+00 0.000000000000000D+00
 0.550740667387413D+03 0.000000000000000D+00 0.000000000000000D+00 0.550740667387413D+03
 0.445861505066443D+03 0.000000000000000D+00 0.000000000000000D+00 -.445861505066443D+03
 0.273368201379574D+03 -.238556984151988D+03 -.171463438688275D+02 0.959765095517824D+02
 0.321307546312523D+02 0.319296046915714D+02 0.350790854998515D+01 -.761784102395836D+00
 0.314833867219120D+03 0.177261935353361D+03 0.182194679014933D+02 -.259550806610794D+03
 0.215415716453048D+03 -.339807503437579D+02 0.996375460635516D+02 0.164336081161408D+03
 0.160853632770862D+03 0.633461944508137D+02 -.104218578646203D+03 0.104879162320970D+03
0.189283560935D-04 0.000000000000D+00 0.000000000000D+00 0.134321473937D-05 0.000000000000D+00  7 2 -2 23 -11 11 23 21 0 0.40725529D+00 0.99322920D-02 0.89350125D+05 0.89350125D+05 0.89350125D+05 0.11257575D+01  1  2  2  2  7  2       -2 0.453832218591D-03 0.100000000000D+01
-.917142332188D-06 0.000000000000D+00 -.726898713495D-07 0.134321473937D-05 0.000000000000D+00  7 2 -2 23 -11 11 23 21 2 0.40725529D+00 0.99322920D-02 0.89350125D+05 0.89350125D+05 0.89350125D+05 0.11257575D+01  1  2  3  2  7  2       -2 -.278681954703D-04 0.100000000000D+01
0.119324871157D-05 0.000000000000D+00 0.000000000000D+00 0.134321473937D-05 0.000000000000D+00  7 2 -2 23 -11 11 23 21 2 0.40725529D+00 0.99322920D-02 0.89350125D+05 0.89350125D+05 0.89350125D+05 0.11257575D+01  1  2 15  2  7  2       -2 0.362579363875D-04 0.100000000000D+01
-.202147871778D-05 0.000000000000D+00 0.000000000000D+00 0.134321473937D-05 0.000000000000D+00  7 2 -2 23 -11 11 23 21 2 0.40725529D+00 0.99322920D-02 0.89350125D+05 0.89350125D+05 0.89350125D+05 0.11257575D+01  1  2  4  2  7  2       -2 -.614244507848D-04 0.100000000000D+01
  </mgrwgt>
  </event>
  <event>
  9     66 -.55102590E-06 0.24402003E+03 0.75467711E-02 0.10313290E+00
        2 -1    0    0  501    0 0.00000000E+00 0.00000000E+00 0.15554567E+04 0.15554567E+04 0.32000000E+00 0.0000E+00 0.9000E+01
       -2 -1    0    0    0  502 0.00000000E+00 0.00000000E+00 -.50914212E+02 0.50915218E+02 0.32000000E+00 0.0000E+00 0.9000E+01
       25  2    1    2    0    0 -.14235295E+03 0.86479396E+02 0.90419902E+03 0.96722949E+03 0.30035642E+03 0.0000E+00 0.0000E+00
       23  2    1    2    0    0 0.15659906E+03 -.81653908E+02 0.58218684E+03 0.61555298E+03 0.93666090E+02 0.0000E+00 0.0000E+00
       23  1    3    3    0    0 -.65127751E+02 0.13754901E+03 0.72172687E+03 0.74321348E+03 0.91188000E+02 0.0000E+00 0.9000E+01
      -11  1    4    4    0    0 0.11914257E+02 -.20059580E+02 0.16918127E+02 0.28819426E+02 0.51099893E-03 0.0000E+00 0.9000E+01
       11  1    4    4    0    0 0.14468480E+03 -.61594328E+02 0.56526871E+03 0.58673356E+03 0.51099893E-03 0.0000E+00 0.9000E+01
       23  1    3    3    0    0 -.77225199E+02 -.51069614E+02 0.18247215E+03 0.22401601E+03 0.91188000E+02 0.0000E+00 0.9000E+01
       21  1    1    2  501  502 -.14246113E+02 -.48254876E+01 0.18156594E+02 0.23589435E+02 0.75000000E+00 0.0000E+00 0.9000E+01
#aMCatNLO 2  0  0  2  1 0.15041179D+02 0.00000000D+00  -5  7  0 0.00000000D+00 0.00000000D+00 0.00000000D+00 0.00000000D+00 0.00000000D+00
  <mgrwgt>
 -.2768219048D-04    3    2    0
 0.271859900634800D+03 0.000000000000000D+00 0.000000000000000D+00 0.271859900634800D+03
 0.271859900634800D+03 0.000000000000000D+00 0.000000000000000D+00 -.271859900634800D+03
 0.190989442744260D+03 -.701236309413873D+02 0.135856789564873D+03 0.691904979638440D+02
 0.375102819237191D+02 0.109300620795940D+02 -.203929499589452D+02 -.295242711155596D+02
 0.159457511846872D+03 0.140465946569229D+03 -.630233529426611D+02 0.415219571151297D+02
 0.155762564754749D+03 -.812723777074357D+02 -.524404866632668D+02 -.811881839634141D+02
 0.000000000000000D+00 -.000000000000000D+00 -.000000000000000D+00 -.000000000000000D+00
 0.275655752131555D+03 0.000000000000000D+00 0.000000000000000D+00 0.275655752131555D+03
 0.287283942389082D+03 0.000000000000000D+00 0.000000000000000D+00 -.287283942389082D+03
 0.190430906953932D+03 -.651277506567097D+02 0.137549009684584D+03 0.691904979638440D+02
 0.376300261843002D+02 0.119142570344738D+02 -.200595803805200D+02 -.295242711155596D+02
 0.162639561444385D+03 0.144684804895696D+03 -.615943281191173D+02 0.415219571151297D+02
 0.153227312526859D+03 -.772251986901189D+02 -.510696135896704D+02 -.811881839634141D+02
 0.190118874111607D+02 -.142461125833413D+02 -.482548759527649D+01 -.116281902575271D+02
-.405165440844D-05 0.000000000000D+00 0.000000000000D+00 0.600530366444D-07 0.000000000000D+00  7 2 -2 23 -11 11 23 21 2 0.23599959D+00 0.78826602D-02 0.63249476D+05 0.63249476D+05 0.63249476D+05 0.11384227D+01  1  2 13  2  7  2       -2 -.729232845990D-03 0.100000000000D+01
-.101348145127D-05 0.000000000000D+00 0.000000000000D+00 0.600530366444D-07 0.000000000000D+00  7 2 -2 23 -11 11 23 21 2 0.23599959D+00 0.74122891D-02 0.59545777D+05 0.59545777D+05 0.59545777D+05 0.11406802D+01  1  2  8  2  7  2       -2 -.200976643875D-03 0.100000000000D+01
0.509889843939D-05 0.000000000000D+00 0.000000000000D+00 0.600530366444D-07 0.183905284988D-08  7 2 -2 23 -11 11 23 21 2 0.23929474D+00 0.78328273D-02 0.63249476D+05 0.63249476D+05 0.63249476D+05 0.11384227D+01  1  2  1  2  7  2       -2 0.902527299382D-03 0.100000000000D+01
  </mgrwgt>
  </event>
  <event>
  9     66 0.55102590E-06 0.25468307E+03 0.75467711E-02 0.10146545E+00
        2 -1    0    0  502    0 0.00000000E+00 0.00000000E+00 0.47918717E+03 0.47918727E+03 0.32000000E+00 0.0000E+00 0.9000E+01
       -2 -1    0    0    0  501 0.00000000E+00 0.00000000E+00 -.31314005E+03 0.31314021E+03 0.32000000E+00 0.0000E+00 0.9000E+01
       25  2    1    2    0    0 -.50968930E+02 -.15044056E+03 -.11793004E+03 0.35953787E+03 0.30021624E+03 0.0000E+00 0.0000E+00
       23  2    1    2    0    0 0.95402564E+02 0.18579562E+03 0.29717433E+03 0.37448819E+03 0.91143597E+02 0.0000E+00 0.0000E+00
       23  1    3    3    0    0 -.75377457E+02 0.70387082E+01 0.31699292E+02 0.12268415E+03 0.91188000E+02 0.0000E+00 0.9000E+01
      -11  1    4    4    0    0 -.13065035E+01 0.14795351E+02 0.81135801E+02 0.82484105E+02 0.51099893E-03 0.0000E+00 0.9000E+01
       11  1    4    4    0    0 0.96709068E+02 0.17100027E+03 0.21603853E+03 0.29200408E+03 0.51099893E-03 0.0000E+00 0.9000E+01
       23  1    3    3    0    0 0.24408527E+02 -.15747926E+03 -.14962933E+03 0.23685372E+03 0.91188000E+02 0.0000E+00 0.9000E+01
       21  1    1    2  502  501 -.44433634E+02 -.35355066E+02 -.13197172E+02 0.58301427E+02 0.75000000E+00 0.0000E+00 0.9000E+01
#aMCatNLO 2  0  0  1  2 0.56783171D+02 0.00000000D+00  -5  7  0 0.00000000D+00 0.00000000D+00 0.00000000D+00 0.00000000D+00 0.00000000D+00
  <mgrwgt>
 0.1250256246D-03    1    2    0
 0.354768025414542D+03 0.000000000000000D+00 0.000000000000000D+00 0.354768025414542D+03
 0.354768025414542D+03 0.000000000000000D+00 0.000000000000000D+00 -.354768025414542D+03
 0.123280397985823D+03 -.829369347749267D+02 0.102376380042850D+01 0.179497670274257D+01
 0.641790016134242D+02 -.533323269693232D+01 0.115913532419340D+02 0.628978648852009D+02
 0.232929771408199D+03 0.817144288406443D+02 0.159069298788888D+03 0.149251427833488D+03
 0.289146879821638D+03 0.655573863121474D+01 -.171684415831251D+03 -.213944269421431D+03
 0.000000000000000D+00 -.000000000000000D+00 -.000000000000000D+00 -.000000000000000D+00
 0.373477279579355D+03 0.000000000000000D+00 0.000000000000000D+00 0.373477279579355D+03
 0.401767557352150D+03 0.000000000000000D+00 0.000000000000000D+00 -.401767557352150D+03
 0.118531758250276D+03 -.753774569441157D+02 0.703870820366820D+01 0.179497670274257D+01
 0.646277864194049D+02 -.130650354589060D+01 0.147953512577364D+02 0.628978648852009D+02
 0.246717906094393D+03 0.967090678245532D+02 0.171000270987425D+03 0.149251427833488D+03
 0.281927112273692D+03 0.244085267217457D+02 -.157479264336568D+03 -.213944269421431D+03
 0.634402738937403D+02 -.444336340562926D+02 -.353550661122612D+02 -.282902777727950D+02
0.298943338815D-05 0.000000000000D+00 0.000000000000D+00 0.808847193841D-06 0.172604737902D-08  7 2 -2 23 -11 11 23 21 2 0.73720695D-01 0.48175133D-01 0.81285435D+05 0.81285435D+05 0.81285435D+05 0.11291822D+01  1  2  1  1  7  1        2 0.125025624573D-03 0.100000000000D+01
  </mgrwgt>
  </event>
  <event>
  9     66 0.55102590E-06 0.35663547E+03 0.75467711E-02 0.98104383E-01
        2 -1    0    0  502    0 0.00000000E+00 0.00000000E+00 0.25646903E+04 0.25646903E+04 0.32000000E+00 0.0000E+00 0.9000E+01
       -2 -1    0    0    0  501 0.00000000E+00 0.00000000E+00 -.68494039E+02 0.68494786E+02 0.32000000E+00 0.0000E+00 0.9000E+01
       25  2    1    2    0    0 -.31266331E+03 0.38552761E+02 0.87738980E+03 0.97969452E+03 0.30123718E+03 0.0000E+00 0.0000E+00
       23  2    1    2    0    0 0.29012555E+03 -.17079740E+02 0.14232644E+04 0.14554848E+04 0.91048428E+02 0.0000E+00 0.0000E+00
       23  1    3    3    0    0 -.16857438E+03 0.12646171E+03 0.59990379E+03 0.64234702E+03 0.91188000E+02 0.0000E+00 0.9000E+01
      -13  1    4    4    0    0 0.12529500E+03 -.18115776E+02 0.41647872E+03 0.43529479E+03 0.10565837E+00 0.0000E+00 0.9000E+01
       13  1    4    4    0    0 0.16483055E+03 0.10360362E+01 0.10067857E+04 0.10201900E+04 0.10565837E+00 0.0000E+00 0.9000E+01
       23  1    3    3    0    0 -.14408892E+03 -.87908945E+02 0.27748601E+03 0.33734750E+03 0.91188000E+02 0.0000E+00 0.9000E+01
       21  1    1    2  502  501 0.22537750E+02 -.21473022E+02 0.19554206E+03 0.19800581E+03 0.75000000E+00 0.0000E+00 0.9000E+01
#aMCatNLO 2  0  0  1  2 0.31129421D+02 0.00000000D+00  -5  7  0 0.00000000D+00 0.00000000D+00 0.00000000D+00 0.00000000D+00 0.00000000D+00
  <mgrwgt>
 0.4476308886D-05    3    2    0
 0.398785470461270D+03 0.000000000000000D+00 0.000000000000000D+00 0.398785470461270D+03
 0.398785470461270D+03 0.000000000000000D+00 0.000000000000000D+00 -.398785470461270D+03
 0.222606139290135D+03 -.162173490671233D+03 0.120363203667378D+03 -.212296969382985D+02
 0.131725112389016D+03 0.128957552906417D+03 -.216053763372473D+02 0.159581482513942D+02
 0.215369644619389D+03 0.170846547147304D+03 -.469567457280588D+01 0.131047669920652D+03
 0.227870044624000D+03 -.137630609382488D+03 -.940621527573244D+02 -.125776121233748D+03
 0.000000000000000D+00 0.000000000000000D+00 -.000000000000000D+00 0.000000000000000D+00
 0.432249761991929D+03 0.000000000000000D+00 0.000000000000000D+00 0.432249761991929D+03
 0.406394753644831D+03 0.000000000000000D+00 0.000000000000000D+00 -.406394753644831D+03
 0.230598867812034D+03 -.168574384765240D+03 0.126461706698593D+03 -.212296969382985D+02
 0.127599643708141D+03 0.125294949286158D+03 -.181158014509503D+02 0.159581482513942D+02
 0.210579423795206D+03 0.164830605501390D+03 0.103606193531322D+01 0.131047669920652D+03
 0.229400269509912D+03 -.144088920317355D+03 -.879089453718599D+02 -.125776121233748D+03
 0.404663108114664D+02 0.225377502950464D+02 -.214730218110962D+02 0.258550083470983D+02
-.148417024189D-04 0.000000000000D+00 0.000000000000D+00 0.195787906944D-06 0.000000000000D+00  7 2 -2 23 -13 13 23 21 2 0.39784589D+00 0.10340211D-01 0.13839388D+06 0.13839388D+06 0.13839388D+06 0.11103225D+01  1  2 13  1  7  1        2 -.440210403948D-03 0.100000000000D+01
-.470582838347D-07 0.000000000000D+00 0.000000000000D+00 0.195787906944D-06 0.000000000000D+00  7 2 -2 23 -13 13 23 21 2 0.36401772D+00 0.10340211D-01 0.12718886D+06 0.12718886D+06 0.12718886D+06 0.11132502D+01  1  2  8  1  7  1        2 -.187781539656D-05 0.100000000000D+01
0.150705251095D-04 0.000000000000D+00 0.000000000000D+00 0.195787906944D-06 0.133200095170D-08  7 2 -2 23 -13 13 23 21 2 0.39456446D+00 0.10537514D-01 0.13839388D+06 0.13839388D+06 0.13839388D+06 0.11103225D+01  1  2  1  1  7  1        2 0.446564528231D-03 0.100000000000D+01
  </mgrwgt>
  </event>
  <event>
  8     66 0.55102590E-06 0.46409480E+03 0.75467711E-02 0.88558633E-01
        2 -1    0    0  501    0 0.00000000E+00 0.00000000E+00 0.10281993E+04 0.10281994E+04 0.32000000E+00 0.0000E+00 0.9000E+01
       -2 -1    0    0    0  501 0.00000000E+00 0.00000000E+00 -.68038261E+03 0.68038268E+03 0.32000000E+00 0.0000E+00 0.9000E+01
       25  2    1    2    0    0 0.16338971E+03 -.77951579E+03 0.31065033E+03 0.90605887E+03 0.30016326E+03 0.0000E+00 0.0000E+00
       23  2    1    2    0    0 -.16338971E+03 0.77951579E+03 0.37166372E+02 0.80252317E+03 0.91219679E+02 0.0000E+00 0.0000E+00
       23  1    3    3    0    0 -.40655474E+02 -.26881609E+03 0.16098265E+03 0.32885501E+03 0.91188000E+02 0.0000E+00 0.9000E+01
      -13  1    4    4    0    0 -.36399487E+02 0.25091202E+03 -.27594626E+02 0.25503577E+03 0.10565837E+00 0.0000E+00 0.9000E+01
       13  1    4    4    0    0 -.12699022E+03 0.52860377E+03 0.64760998E+02 0.54748741E+03 0.10565837E+00 0.0000E+00 0.9000E+01
       23  1    3    3    0    0 0.20404518E+03 -.51069971E+03 0.14966769E+03 0.57720386E+03 0.91188000E+02 0.0000E+00 0.9000E+01
#aMCatNLO 1  0  0  2  1 0.12628008D+03 0.00000000D+00  -5  7  0 0.00000000D+00 0.00000000D+00 0.00000000D+00 0.00000000D+00 0.00000000D+00
  <mgrwgt>
 0.2414261851D-03    9    2    0
 0.836402435108081D+03 0.000000000000000D+00 0.000000000000000D+00 0.836402435108081D+03
 0.836402435108081D+03 0.000000000000000D+00 0.000000000000000D+00 -.836402435108081D+03
 0.302416215901287D+03 -.406554744477878D+02 -.268816088393864D+03 0.960487340577748D+02
 0.266227568236840D+03 -.363993659454836D+02 0.250911652265842D+03 -.812129731341787D+02
 0.545731803483398D+03 -.126990339743737D+03 0.528604142062683D+03 -.476897886259439D+02
 0.558429282594637D+03 0.204045180137008D+03 -.510699705934662D+03 0.328540277023478D+02
 0.000000000000000D+00 0.000000000000000D+00 -.000000000000000D+00 -.000000000000000D+00
 0.854643415046493D+03 0.000000000000000D+00 0.000000000000000D+00 0.854643415046493D+03
 0.109013012546688D+04 0.000000000000000D+00 0.000000000000000D+00 -.109013012546688D+04
 0.284340696261502D+03 -.460374469030057D+02 -.247365265094005D+03 0.960487340577748D+02
 0.286025657946183D+03 -.414648565941862D+02 0.271101080163613D+03 -.812129731341787D+02
 0.588322216908357D+03 -.137392343323005D+03 0.570063206114015D+03 -.476897886259439D+02
 0.518875970715595D+03 0.194163699273314D+03 -.471315279181873D+03 0.328540277023478D+02
 0.267208998681732D+03 0.307309475468829D+02 -.122483742001751D+03 -.235486710420383D+03
0.795226585459D-04 0.000000000000D+00 0.000000000000D+00 0.486219923307D-05 0.000000000000D+00  7 2 -2 23 -13 13 23 21 0 0.15818452D+00 0.10467426D+00 0.67355036D+06 0.67355036D+06 0.67355036D+06 0.10594835D+01  1  2  2  2  7  2       -2 0.174529623602D-03 0.100000000000D+01
-.441599636267D-05 0.000000000000D+00 -.305387947613D-06 0.486219923307D-05 0.000000000000D+00  7 2 -2 23 -13 13 23 21 2 0.15818452D+00 0.10467426D+00 0.67355036D+06 0.67355036D+06 0.67355036D+06 0.10594835D+01  1  2  3  2  7  2       -2 -.108791603230D-04 0.100000000000D+01
0.506030327711D-05 0.000000000000D+00 0.000000000000D+00 0.486219923307D-05 0.000000000000D+00  7 2 -2 23 -13 13 23 21 2 0.15818452D+00 0.10467426D+00 0.67355036D+06 0.67355036D+06 0.67355036D+06 0.10594835D+01  1  2 15  2  7  2       -2 0.124664619519D-04 0.100000000000D+01
0.279080642884D-03 0.000000000000D+00 0.000000000000D+00 0.486219923307D-05 0.000000000000D+00  7 2 -2 23 -13 13 23 21 2 0.15818452D+00 0.13732224D+00 0.78533441D+06 0.78533441D+06 0.78533441D+06 0.10549221D+01  1  2 12  2  7  2       -2 0.335872703158D-03 0.100000000000D+01
-.277519807397D-03 0.000000000000D+00 0.000000000000D+00 0.486219923307D-05 0.000000000000D+00  7 2 -2 23 -13 13 23 21 2 0.15818452D+00 0.10467426D+00 0.67355036D+06 0.67355036D+06 0.67355036D+06 0.10594835D+01  1  2  4  2  7  2       -2 -.683692247352D-03 0.100000000000D+01
-.346174899886D-03 0.000000000000D+00 -.406307252547D-04 0.486219923307D-05 0.000000000000D+00  7 2 -2 23 -13 13 23 21 2 0.15818452D+00 0.13780204D+00 0.67355036D+06 0.67355036D+06 0.67355036D+06 0.10594835D+01  1  2  5  2  7  2       -2 -.419600238733D-03 0.100000000000D+01
0.345685495866D-03 0.000000000000D+00 0.391417101252D-04 0.486219923307D-05 0.000000000000D+00  7 2 -2 23 -13 13 23 21 2 0.15818452D+00 0.10467426D+00 0.67355036D+06 0.67355036D+06 0.67355036D+06 0.10594835D+01  1  2  6  2  7  2       -2 0.851623874211D-03 0.100000000000D+01
0.100335102718D-04 0.000000000000D+00 0.000000000000D+00 0.486219923307D-05 0.000000000000D+00  7 2 21 23 -13 13 23 2 2 0.15818452D+00 0.13732224D+00 0.78533441D+06 0.78533441D+06 0.78533441D+06 0.10549221D+01  1  2 12  4  7  2       -2 0.101551537171D-03 0.100000000000D+01
-.117677750346D-04 0.000000000000D+00 -.147441212668D-05 0.486219923307D-05 0.000000000000D+00  7 2 21 23 -13 13 23 2 2 0.15818452D+00 0.13780204D+00 0.67355036D+06 0.67355036D+06 0.67355036D+06 0.10594835D+01  1  2  5  4  7  2       -2 -.120446368566D-03 0.100000000000D+01
  </mgrwgt>
  </event>
  <event>
  9     66 -.55102590E-06 0.28044938E+03 0.75467711E-02 0.10003964E+00
        2 -1    0    0  501    0 0.00000000E+00 0.00000000E+00 0.11584080E+04 0.11584080E+04 0.32000000E+00 0.0000E+00 0.9000E+01
       -2 -1    0    0    0  502 0.00000000E+00 0.00000000E+00 -.90302498E+02 0.90303065E+02 0.32000000E+00 0.0000E+00 0.9000E+01
       25  2    1    2    0    0 0.20875606E+03 -.82699860E+02 0.67384027E+03 0.77114223E+03 0.30030198E+03 0.0000E+00 0.0000E+00
       23  2    1    2    0    0 -.14062088E+03 0.10331230E+03 0.27297381E+03 0.33692944E+03 0.92515343E+02 0.0000E+00 0.0000E+00
       23  1    3    3    0    0 0.23066753E+01 -.10826747E+03 0.19301284E+03 0.23936661E+03 0.91188000E+02 0.0000E+00 0.9000E+01
      -11  1    4    4    0    0 -.14706110E+03 0.11295826E+03 0.25084206E+03 0.31194274E+03 0.51099893E-03 0.0000E+00 0.9000E+01
       11  1    4    4    0    0 0.64402194E+01 -.96459637E+01 0.22131748E+02 0.24986703E+02 0.51099893E-03 0.0000E+00 0.9000E+01
       23  1    3    3    0    0 0.20644938E+03 0.25567609E+02 0.48082743E+03 0.53177562E+03 0.91188000E+02 0.0000E+00 0.9000E+01
       21  1    1    2  501  502 -.68135181E+02 -.20612437E+02 0.12129140E+03 0.14063940E+03 0.75000000E+00 0.0000E+00 0.9000E+01
#aMCatNLO 2  0  0  2  1 0.71184798D+02 0.00000000D+00  -5  7  0 0.00000000D+00 0.00000000D+00 0.00000000D+00 0.00000000D+00 0.00000000D+00
  <mgrwgt>
 -.4282303725D-04    2    2    0
 0.285612796100840D+03 0.000000000000000D+00 0.000000000000000D+00 0.285612796100840D+03
 0.285612796100840D+03 0.000000000000000D+00 0.000000000000000D+00 -.285612796100840D+03
 0.148037094460244D+03 -.150014009537712D+02 -.113503554448296D+03 -.221727555630358D+02
 0.202802212079446D+03 -.170271632719783D+03 0.105936547635515D+03 -.302284003930779D+02
 0.113657869621968D+02 0.507015897535808D+01 -.100604380350169D+02 0.150405710603901D+01
 0.209020498699793D+03 0.180202874698196D+03 0.176274448477979D+02 0.508970988500747D+02
 0.000000000000000D+00 -.000000000000000D+00 -.000000000000000D+00 0.000000000000000D+00
 0.324507890974072D+03 0.000000000000000D+00 0.000000000000000D+00 0.324507890974072D+03
 0.322353447866409D+03 0.000000000000000D+00 0.000000000000000D+00 -.322353447866409D+03
 0.143297062093445D+03 0.230667527339871D+01 -.108267468893189D+03 -.221727555630358D+02
 0.187883717175964D+03 -.147061097009085D+03 0.112958261034853D+03 -.302284003930779D+02
 0.116954362652111D+02 0.644021943868793D+01 -.964596367590791D+01 0.150405710603901D+01
 0.232767730494443D+03 0.206449382960783D+03 0.255676087910328D+02 0.508970988500747D+02
 0.712173928114176D+02 -.681351806637843D+02 -.206124372567893D+02 0.215444310766297D+01
-.132775340876D-05 0.000000000000D+00 0.000000000000D+00 0.155599855731D-06 0.000000000000D+00  7 2 -2 23 -11 11 23 21 2 0.15685488D+00 0.14626955D-01 0.10141850D+06 0.10141850D+06 0.10141850D+06 0.11212204D+01  1  2 13  2  7  2       -2 -.172091668625D-03 0.100000000000D+01
0.110899060338D-05 0.000000000000D+00 0.000000000000D+00 0.155599855731D-06 0.210227919984D-09  7 2 -2 23 -11 11 23 21 2 0.17821557D+00 0.13892654D-01 0.10141850D+06 0.10141850D+06 0.10141850D+06 0.11212204D+01  1  2  1  2  7  2       -2 0.129268631374D-03 0.100000000000D+01
  </mgrwgt>
  </event>
  <event>
  8     66 0.55102590E-06 0.22972253E+03 0.75467711E-02 0.98569847E-01
        2 -1    0    0  501    0 0.00000000E+00 0.00000000E+00 0.23828012E+03 0.23828034E+03 0.32000000E+00 0.0000E+00 0.9000E+01
       -2 -1    0    0    0  501 0.00000000E+00 0.00000000E+00 -.29341507E+03 0.29341524E+03 0.32000000E+00 0.0000E+00 0.9000E+01
       25  2    1    2    0    0 0.97612504E+02 -.12077186E+03 -.83370672E+02 0.34857755E+03 0.30073509E+03 0.0000E+00 0.0000E+00
       23  2    1    2    0    0 -.97612504E+02 0.12077186E+03 0.28235730E+02 0.18311803E+03 0.92848883E+02 0.0000E+00 0.0000E+00
       23  1    3    3    0    0 0.32108775E+02 -.13720922E+03 -.14289920E+03 0.22043769E+03 0.91188000E+02 0.0000E+00 0.9000E+01
      -13  1    4    4    0    0 -.24406543E+02 -.11473810E+02 -.70977486E+01 0.27887575E+02 0.10565837E+00 0.0000E+00 0.9000E+01
       13  1    4    4    0    0 -.73205961E+02 0.13224567E+03 0.35333479E+02 0.15523046E+03 0.10565837E+00 0.0000E+00 0.9000E+01
       23  1    3    3    0    0 0.65503729E+02 0.16437369E+02 0.59528525E+02 0.12813985E+03 0.91188000E+02 0.0000E+00 0.9000E+01
#aMCatNLO 1  0  0  1  1 0.21824578D+03 0.00000000D+00  -5  7  0 0.00000000D+00 0.00000000D+00 0.00000000D+00 0.00000000D+00 0.00000000D+00
  <mgrwgt>
 0.2392895034D-03    3    2    0
 0.264414601830618D+03 0.000000000000000D+00 0.000000000000000D+00 0.264414601830618D+03
 0.264414601830618D+03 0.000000000000000D+00 0.000000000000000D+00 -.264414601830618D+03
 0.206734064256014D+03 0.321087792060188D+02 -.137209229714824D+03 -.120691240604997D+03
 0.272985527243324D+02 -.244064774085388D+02 -.114739850906166D+02 -.422877139249122D+01
 0.159755830141682D+03 -.732060336213685D+02 0.132245848990213D+03 0.517091609924475D+02
 0.135040756539209D+03 0.655037318238885D+02 0.164373658152273D+02 0.732108510050410D+02
 0.000000000000000D+00 0.000000000000000D+00 -.000000000000000D+00 -.000000000000000D+00
 0.322129603528562D+03 0.000000000000000D+00 0.000000000000000D+00 0.322129603528562D+03
 0.616062129776179D+03 0.000000000000000D+00 0.000000000000000D+00 -.616062129776179D+03
 0.187968970919027D+03 -.389937645273550D+02 -.104547565507618D+03 -.120691240604997D+03
 0.367082468757065D+02 -.359367821242773D+02 -.617742436215071D+01 -.422877139249122D+01
 0.223061665443563D+03 -.142167494000510D+03 0.163923985156315D+03 0.517091609924475D+02
 0.124355117909413D+03 0.187756733506098D+02 0.379023665700814D+02 0.732108510050410D+02
 0.366097732157032D+03 0.198322367301533D+03 -.911013618566280D+02 -.293932526247617D+03
0.296104231143D-05 0.000000000000D+00 0.000000000000D+00 0.376822281289D-07 0.000000000000D+00  7 2 -2 23 -13 13 23 21 0 0.36658511D-01 0.45140809D-01 0.52772441D+05 0.52772441D+05 0.52772441D+05 0.11452396D+01  1  2  2  1  7  1        2 0.236151264620D-03 0.100000000000D+01
-.160545867978D-06 0.000000000000D+00 -.113711821362D-07 0.376822281289D-07 0.000000000000D+00  7 2 -2 23 -13 13 23 21 2 0.36658511D-01 0.45140809D-01 0.52772441D+05 0.52772441D+05 0.52772441D+05 0.11452396D+01  1  2  3  1  7  1        2 -.167933551852D-04 0.100000000000D+01
0.190547690856D-06 0.000000000000D+00 0.000000000000D+00 0.376822281289D-07 0.000000000000D+00  7 2 -2 23 -13 13 23 21 2 0.36658511D-01 0.45140809D-01 0.52772441D+05 0.52772441D+05 0.52772441D+05 0.11452396D+01  1  2 15  1  7  1        2 0.199315939586D-04 0.100000000000D+01
  </mgrwgt>
  </event>
  <event>
  7     66 0.55102590E-06 0.18206930E+03 0.75467711E-02 0.97465373E-01
        2 -1    0    0  501    0 0.00000000E+00 0.00000000E+00 0.13894473E+04 0.13894473E+04 0.32000000E+00 0.0000E+00 0.9000E+01
       -2 -1    0    0    0  501 0.00000000E+00 0.00000000E+00 -.12389604E+03 0.12389645E+03 0.32000000E+00 0.0000E+00 0.9000E+01
       25  2    1    2    0    0 -.97382407E+02 0.31346775E+03 0.61189209E+03 0.75633953E+03 0.29982027E+03 0.0000E+00 0.0000E+00
       23  1    3    3    0    0 -.73106282E+02 0.30085780E+03 0.56386887E+03 0.64971016E+03 0.91188000E+02 0.0000E+00 0.9000E+01
      -13  1    1    2    0    0 0.10538717E+03 -.12199680E+03 0.44691544E+03 0.47510325E+03 0.10565837E+00 0.0000E+00 0.9000E+01
       13  1    1    2    0    0 -.80047678E+01 -.19147095E+03 0.20674374E+03 0.28190102E+03 0.10565837E+00 0.0000E+00 0.9000E+01
       23  1    3    3    0    0 -.24276125E+02 0.12609951E+02 0.48023225E+02 0.10662937E+03 0.91188000E+02 0.0000E+00 0.9000E+01
#aMCatNLO 1  0  0  1  2 0.13398842D+02 0.00000000D+00  -5  7  0 0.00000000D+00 0.00000000D+00 0.00000000D+00 0.00000000D+00 0.00000000D+00
  <mgrwgt>
 0.7910540305D-03    9    2    0
 0.414906445596455D+03 0.000000000000000D+00 0.000000000000000D+00 0.414906445596455D+03
 0.414906445596455D+03 0.000000000000000D+00 0.000000000000000D+00 -.414906445596455D+03
 0.324929993775527D+03 -.731067458769278D+02 0.300859288951729D+03 0.374611995231106D+02
 0.184860285535355D+03 0.105385473929919D+03 -.121998781415037D+03 0.904628342803021D+02
 0.198801123169463D+03 -.800242976056744D+01 -.191471015518251D+03 -.528838151779645D+02
 0.121221488712566D+03 -.242762982924234D+02 0.126105079815584D+02 -.750402186254482D+02
 0.000000000000000D+00 -.000000000000000D+00 -.000000000000000D+00 0.000000000000000D+00
 0.439635290295826D+03 0.000000000000000D+00 0.000000000000000D+00 0.439635290295826D+03
 0.416779482710587D+03 0.000000000000000D+00 0.000000000000000D+00 -.416779482710587D+03
 0.326347430562393D+03 -.685362606818509D+02 0.303458124941012D+03 0.374611995231106D+02
 0.185389907781578D+03 0.107983787588264D+03 -.120521347234957D+03 0.904628342803021D+02
 0.197186533312982D+03 -.522349768991246D+01 -.189890879412620D+03 -.528838151779645D+02
 0.120997186852477D+03 -.225764744857459D+02 0.135770494089309D+02 -.750402186254482D+02
 0.264937144969836D+02 -.116475547307550D+02 -.662294770236657D+01 0.228558075852389D+02
0.800316141690D-05 0.000000000000D+00 0.000000000000D+00 0.214003791501D-09 0.000000000000D+00  7 2 -2 23 -13 13 23 21 0 0.21376116D+00 0.19060964D-01 0.14854011D+06 0.14854011D+06 0.14854011D+06 0.11078872D+01  1  2  2  1  7  1        2 0.328214189813D-03 0.100000000000D+01
-.441679925182D-06 0.000000000000D+00 -.307342471217D-07 0.214003791501D-09 0.000000000000D+00  7 2 -2 23 -13 13 23 21 2 0.21376116D+00 0.19060964D-01 0.14854011D+06 0.14854011D+06 0.14854011D+06 0.11078872D+01  1  2  3  1  7  1        2 -.222328204318D-04 0.100000000000D+01
0.508907744011D-06 0.000000000000D+00 0.000000000000D+00 0.214003791501D-09 0.000000000000D+00  7 2 -2 23 -13 13 23 21 2 0.21376116D+00 0.19060964D-01 0.14854011D+06 0.14854011D+06 0.14854011D+06 0.11078872D+01  1  2 15  1  7  1        2 0.256168638054D-04 0.100000000000D+01
0.755149213117D-04 0.000000000000D+00 0.000000000000D+00 0.214003791501D-09 0.000000000000D+00  7 2 -2 23 -13 13 23 21 2 0.22696743D+00 0.19060964D-01 0.15377754D+06 0.15377754D+06 0.15377754D+06 0.11067005D+01  1  2 12  1  7  1        2 0.340117721589D-02 0.100000000000D+01
-.768225203592D-04 0.000000000000D+00 0.000000000000D+00 0.214003791501D-09 0.000000000000D+00  7 2 -2 23 -13 13 23 21 2 0.21376116D+00 0.19060964D-01 0.14854011D+06 0.14854011D+06 0.14854011D+06 0.11078872D+01  1  2  4  1  7  1        2 -.386701138740D-02 0.100000000000D+01
-.176062707821D-03 0.000000000000D+00 -.150186960452D-04 0.214003791501D-09 0.000000000000D+00  7 2 -2 23 -13 13 23 21 2 0.22692003D+00 0.19060964D-01 0.14854011D+06 0.14854011D+06 0.14854011D+06 0.11078872D+01  1  2  5  1  7  1        2 -.795624633554D-02 0.100000000000D+01
0.176671323861D-03 0.000000000000D+00 0.149919374554D-04 0.214003791501D-09 0.000000000000D+00  7 2 -2 23 -13 13 23 21 2 0.21376116D+00 0.19060964D-01 0.14854011D+06 0.14854011D+06 0.14854011D+06 0.11078872D+01  1  2  6  1  7  1        2 0.889309564439D-02 0.100000000000D+01
0.110918082383D-05 0.000000000000D+00 0.000000000000D+00 0.214003791501D-09 0.000000000000D+00  7 21 -2 23 -13 13 23 -2 2 0.22696743D+00 0.19060964D-01 0.15377754D+06 0.15377754D+06 0.15377754D+06 0.11067005D+01  1  2 12  3  7  1        2 0.186150432812D-04 0.100000000000D+01
-.178828770110D-05 0.000000000000D+00 -.154135740725D-06 0.214003791501D-09 0.000000000000D+00  7 21 -2 23 -13 13 23 -2 2 0.22692003D+00 0.19060964D-01 0.14854011D+06 0.14854011D+06 0.14854011D+06 0.11078872D+01  1  2  5  3  7  1        2 -.301743832662D-04 0.100000000000D+01
  </mgrwgt>
  </event>
  <event>
  8     66 0.55102590E-06 0.44243352E+03 0.75467711E-02 0.82814433E-01
        2 -1    0    0  501    0 0.00000000E+00 0.00000000E+00 0.12554338E+04 0.12554339E+04 0.32000000E+00 0.0000E+00 0.9000E+01
       -2 -1    0    0    0  501 0.00000000E+00 0.00000000E+00 -.20458172E+03 0.20458197E+03 0.32000000E+00 0.0000E+00 0.9000E+01
       25  2    1    2    0    0 0.25868408E+03 -.31848443E+03 0.27533479E+03 0.57812034E+03 0.30010680E+03 0.0000E+00 0.0000E+00
       23  2    1    2    0    0 -.25868408E+03 0.31848443E+03 0.77551732E+03 0.88189550E+03 0.89234423E+02 0.0000E+00 0.0000E+00
       23  1    3    3    0    0 0.23429444E+03 -.25640821E+03 0.29338408E+03 0.46371168E+03 0.91188000E+02 0.0000E+00 0.9000E+01
      -13  1    4    4    0    0 -.90804889E+02 0.14717958E+03 0.24726033E+03 0.30173671E+03 0.10565837E+00 0.0000E+00 0.9000E+01
       13  1    4    4    0    0 -.16787919E+03 0.17130485E+03 0.52825699E+03 0.58015880E+03 0.10565837E+00 0.0000E+00 0.9000E+01
       23  1    3    3    0    0 0.24389638E+02 -.62076224E+02 -.18049287E+02 0.11440865E+03 0.91188000E+02 0.0000E+00 0.9000E+01
#aMCatNLO 1  0  0  2  2 0.15268776D+04 0.00000000D+00  -5  7  0 0.00000000D+00 0.00000000D+00 0.00000000D+00 0.00000000D+00 0.00000000D+00
  <mgrwgt>
 0.2412753208D-03    5    2    0
 0.506792878221718D+03 0.000000000000000D+00 0.000000000000000D+00 0.506792878221718D+03
 0.506792878221718D+03 0.000000000000000D+00 0.000000000000000D+00 -.506792878221718D+03
 0.363780879824702D+03 0.234294441745196D+03 -.256408205723396D+03 -.581568894203433D+02
 0.178284050547797D+03 -.908047814468158D+02 0.147179550493015D+03 0.433344466077454D+02
 0.288008403423713D+03 -.167879298542194D+03 0.171304878997060D+03 0.159436570445615D+03
 0.183512422647224D+03 0.243896382438140D+02 -.620762237666794D+02 -.144614127633017D+03
 0.000000000000000D+00 0.000000000000000D+00 0.000000000000000D+00 -.000000000000000D+00
 0.140071039509684D+04 0.000000000000000D+00 0.000000000000000D+00 0.140071039509684D+04
 0.211962921720584D+04 0.000000000000000D+00 0.000000000000000D+00 -.211962921720584D+04
 0.759656143607014D+03 -.122917121549013D+03 -.741802778788901D+03 -.581568894203433D+02
 0.224865423254077D+03 -.218991453929894D+03 -.270060626176227D+02 0.433344466077454D+02
 0.462806847008041D+03 -.406610872949989D+03 -.153093943841399D+03 0.159436570445615D+03
 0.385350279080844D+03 -.156487732490623D+03 -.307860244124780D+03 -.144614127633017D+03
 0.168766091935271D+04 0.905007180919519D+03 0.122976302937270D+04 -.718918822109007D+03
0.115071182835D-04 0.000000000000D+00 0.000000000000D+00 0.481853095880D-06 0.000000000000D+00  7 2 -2 23 -13 13 23 21 0 0.19314369D+00 0.31474133D-01 0.19574742D+06 0.19574742D+06 0.19574742D+06 0.10985430D+01  1  2  2  2  7  2       -2 0.235859291802D-03 0.100000000000D+01
-.624947523141D-06 0.000000000000D+00 -.441903641025D-07 0.481853095880D-06 0.000000000000D+00  7 2 -2 23 -13 13 23 21 2 0.19314369D+00 0.31474133D-01 0.19574742D+06 0.19574742D+06 0.19574742D+06 0.10985430D+01  1  2  3  2  7  2       -2 -.154583831059D-04 0.100000000000D+01
0.731471889794D-06 0.000000000000D+00 0.000000000000D+00 0.481853095880D-06 0.000000000000D+00  7 2 -2 23 -13 13 23 21 2 0.19314369D+00 0.31474133D-01 0.19574742D+06 0.19574742D+06 0.19574742D+06 0.10985430D+01  1  2 15  2  7  2       -2 0.180933154944D-04 0.100000000000D+01
0.228329915700D-04 0.000000000000D+00 -.870874529832D-05 0.481853095880D-06 0.000000000000D+00  7 2 -2 23 -13 13 23 21 2 0.19314369D+00 0.33416377D+00 0.19574742D+06 0.19574742D+06 0.19574742D+06 0.10985430D+01  1  2  5  2  7  2       -2 0.108556351104D-05 0.100000000000D+01
0.489847737019D-05 0.000000000000D+00 -.243184620819D-05 0.481853095880D-06 0.000000000000D+00  7 2 21 23 -13 13 23 2 2 0.19314369D+00 0.33416377D+00 0.19574742D+06 0.19574742D+06 0.19574742D+06 0.10985430D+01  1  2  5  4  7  2       -2 0.169553304963D-05 0.100000000000D+01
  </mgrwgt>
  </event>
  <event>
  8     66 0.55102590E-06 0.68995714E+02 0.75467711E-02 0.10652403E+00
        2 -1    0    0  501    0 0.00000000E+00 0.00000000E+00 0.54557113E+03 0.54557122E+03 0.32000000E+00 0.0000E+00 0.9000E+01
       -2 -1    0    0    0  501 0.00000000E+00 0.00000000E+00 -.10467760E+03 0.10467809E+03 0.32000000E+00 0.0000E+00 0.9000E+01
       25  2    1    2    0    0 -.12320486E+03 -.26067836E+01 0.26451379E+03 0.41683456E+03 0.29765293E+03 0.0000E+00 0.0000E+00
       23  2    1    2    0    0 0.12320486E+03 0.26067836E+01 0.17637973E+03 0.23341476E+03 0.90478768E+02 0.0000E+00 0.0000E+00
       23  1    3    3    0    0 -.52121133E+02 -.18181252E+02 -.20786558E+02 0.10860250E+03 0.91188000E+02 0.0000E+00 0.9000E+01
      -11  1    4    4    0    0 0.39627643E+02 0.29037808E+02 0.17860610E+02 0.52273759E+02 0.51099893E-03 0.0000E+00 0.9000E+01
       11  1    4    4    0    0 0.83577214E+02 -.26431025E+02 0.15851912E+03 0.18114100E+03 0.51099893E-03 0.0000E+00 0.9000E+01
       23  1    3    3    0    0 -.71083724E+02 0.15574468E+02 0.28530035E+03 0.30823206E+03 0.91188000E+02 0.0000E+00 0.9000E+01
#aMCatNLO 1  0  0  1  2 0.33129633D+02 0.00000000D+00  -5  7  0 0.00000000D+00 0.00000000D+00 0.00000000D+00 0.00000000D+00 0.00000000D+00
  <mgrwgt>
 0.2930367877D-03    9    2    0
 0.238975454681208D+03 0.000000000000000D+00 0.000000000000000D+00 0.238975454681208D+03
 0.238975454681208D+03 0.000000000000000D+00 0.000000000000000D+00 -.238975454681208D+03
 0.166927937535263D+03 -.521211334982954D+02 -.181812515644600D+02 -.128462113170301D+03
 0.546423239333176D+02 0.396276434730986D+02 0.290378083537092D+02 -.239215200941715D+02
 0.100212711983633D+03 0.835772140495801D+02 -.264310247995567D+02 0.485678686259811D+02
 0.156167935910203D+03 -.710837240243832D+02 0.155744680103075D+02 0.103815764638491D+03
 0.000000000000000D+00 0.000000000000000D+00 -.000000000000000D+00 0.000000000000000D+00
 0.283361196777618D+03 0.000000000000000D+00 0.000000000000000D+00 0.283361196777618D+03
 0.245811791072453D+03 0.000000000000000D+00 0.000000000000000D+00 -.245811791072453D+03
 0.166444813591388D+03 -.533028785503996D+02 -.670173451682360D+01 -.128462113170301D+03
 0.564943571211101D+02 0.392336843912616D+02 0.328647420802073D+02 -.239215200941715D+02
 0.980374661577601D+02 0.828744536520803D+02 -.196043831739894D+02 0.485678686259811D+02
 0.158121103002835D+03 -.721978208286687D+02 0.263968473676319D+02 0.103815764638491D+03
 0.500752479769784D+02 0.339256133572647D+01 -.329554717570262D+02 0.375494057051648D+02
0.114508735730D-05 0.000000000000D+00 0.000000000000D+00 0.158064698794D-07 0.000000000000D+00  7 2 -2 23 -11 11 23 21 0 0.83934065D-01 0.16104292D-01 0.32408002D+05 0.32408002D+05 0.32408002D+05 0.11642376D+01  1  2  2  1  7  1        2 0.217857469390D-03 0.100000000000D+01
-.574089742445D-07 0.000000000000D+00 -.439743696046D-08 0.158064698794D-07 0.000000000000D+00  7 2 -2 23 -11 11 23 21 2 0.83934065D-01 0.16104292D-01 0.32408002D+05 0.32408002D+05 0.32408002D+05 0.11642376D+01  1  2  3  1  7  1        2 -.148046059629D-04 0.100000000000D+01
0.740560329046D-07 0.000000000000D+00 0.000000000000D+00 0.158064698794D-07 0.000000000000D+00  7 2 -2 23 -11 11 23 21 2 0.83934065D-01 0.16104292D-01 0.32408002D+05 0.32408002D+05 0.32408002D+05 0.11642376D+01  1  2 15  1  7  1        2 0.190975435592D-04 0.100000000000D+01
0.319593894527D-05 0.000000000000D+00 0.000000000000D+00 0.158064698794D-07 0.000000000000D+00  7 2 -2 23 -11 11 23 21 2 0.10057263D+00 0.16104292D-01 0.38922236D+05 0.38922236D+05 0.38922236D+05 0.11569876D+01  1  2 12  1  7  1        2 0.664447554992D-03 0.100000000000D+01
-.326960487763D-05 0.000000000000D+00 0.000000000000D+00 0.158064698794D-07 0.000000000000D+00  7 2 -2 23 -11 11 23 21 2 0.83934065D-01 0.16104292D-01 0.32408002D+05 0.32408002D+05 0.32408002D+05 0.11642376D+01  1  2  4  1  7  1        2 -.843164548829D-03 0.100000000000D+01
-.483022116198D-05 0.000000000000D+00 -.862319727074D-06 0.158064698794D-07 0.000000000000D+00  7 2 -2 23 -11 11 23 21 2 0.10125141D+00 0.16104292D-01 0.32408002D+05 0.32408002D+05 0.32408002D+05 0.11642376D+01  1  2  5  1  7  1        2 -.100775412064D-02 0.100000000000D+01
0.492011199906D-05 0.000000000000D+00 0.847368878770D-06 0.158064698794D-07 0.000000000000D+00  7 2 -2 23 -11 11 23 21 2 0.83934065D-01 0.16104292D-01 0.32408002D+05 0.32408002D+05 0.32408002D+05 0.11642376D+01  1  2  6  1  7  1        2 0.126879674124D-02 0.100000000000D+01
0.845999415460D-07 0.000000000000D+00 0.000000000000D+00 0.158064698794D-07 0.000000000000D+00  7 21 -2 23 -11 11 23 -2 2 0.10057263D+00 0.16104292D-01 0.38922236D+05 0.38922236D+05 0.38922236D+05 0.11569876D+01  1  2 12  3  7  1        2 0.252299870286D-04 0.100000000000D+01
-.122662944480D-06 0.000000000000D+00 -.234852783374D-07 0.158064698794D-07 0.000000000000D+00  7 21 -2 23 -11 11 23 -2 2 0.10125141D+00 0.16104292D-01 0.32408002D+05 0.32408002D+05 0.32408002D+05 0.11642376D+01  1  2  5  3  7  1        2 -.366692330571D-04 0.100000000000D+01
  </mgrwgt>
  </event>
  <event>
  8     66 0.55102590E-06 0.15465841E+03 0.75467711E-02 0.10019464E+00
        2 -1    0    0  501    0 0.00000000E+00 0.00000000E+00 0.61294424E+03 0.61294432E+03 0.32000000E+00 0.0000E+00 0.9000E+01
       -2 -1    0    0    0  501 0.00000000E+00 0.00000000E+00 -.20396663E+03 0.20396688E+03 0.32000000E+00 0.0000E+00 0.9000E+01
       25  2    1    2    0    0 0.15840760E+03 -.20774275E+03 0.35947416E+03 0.53626644E+03 0.30018328E+03 0.0000E+00 0.0000E+00
       23  2    1    2    0    0 -.15840760E+03 0.20774275E+03 0.49503444E+02 0.28064476E+03 0.89782367E+02 0.0000E+00 0.0000E+00
       23  1    3    3    0    0 0.13615640E+03 -.40334792E+02 0.28333902E+03 0.32979041E+03 0.91188000E+02 0.0000E+00 0.9000E+01
      -11  1    4    4    0    0 -.10472372E+03 0.16781918E+03 0.66783599E+00 0.19781502E+03 0.51099893E-03 0.0000E+00 0.9000E+01
       11  1    4    4    0    0 -.53683874E+02 0.39923575E+02 0.48835608E+02 0.82829745E+02 0.51099893E-03 0.0000E+00 0.9000E+01
       23  1    3    3    0    0 0.22251198E+02 -.16740796E+03 0.76135142E+02 0.20647603E+03 0.91188000E+02 0.0000E+00 0.9000E+01
#aMCatNLO 1  0  0  1  2 0.39100967D+01 0.00000000D+00  -5  7  0 0.00000000D+00 0.00000000D+00 0.00000000D+00 0.00000000D+00 0.00000000D+00
  <mgrwgt>
 0.1273505965D-03    8    2    0
 0.353582109710320D+03 0.000000000000000D+00 0.000000000000000D+00 0.353582109710320D+03
 0.353582109710320D+03 0.000000000000000D+00 0.000000000000000D+00 -.353582109710320D+03
 0.217106804208654D+03 0.136156399376837D+03 -.403347918900974D+02 0.136582036013572D+03
 0.228128304889984D+03 -.104723723471415D+03 0.167819179894039D+03 -.113631809340309D+03
 0.674410208245556D+02 -.536838735318398D+02 0.399235745524940D+02 0.851124006399860D+01
 0.194488089497446D+03 0.222511976264186D+02 -.167407962556436D+03 -.314614667372618D+02
 0.000000000000000D+00 0.000000000000000D+00 -.000000000000000D+00 -.000000000000000D+00
 0.355069362562559D+03 0.000000000000000D+00 0.000000000000000D+00 0.355069362562559D+03
 0.356166871144927D+03 0.000000000000000D+00 0.000000000000000D+00 -.356166871144927D+03
 0.216330159841222D+03 0.134975924377832D+03 -.401289669648462D+02 0.136582036013572D+03
 0.228861615965166D+03 -.105968345460565D+03 0.168036189342014D+03 -.113631809340309D+03
 0.677723894432685D+02 -.540521301956462D+02 0.399877829434935D+02 0.851124006399860D+01
 0.194210864064051D+03 0.211925675720471D+02 -.167223382237502D+03 -.314614667372618D+02
 0.406120439377956D+01 0.385198370633227D+01 -.671623083159601D+00 -.109750858236840D+01
0.260518773568D-05 0.000000000000D+00 0.000000000000D+00 0.341895330524D-06 0.000000000000D+00  7 2 -2 23 -11 11 23 21 0 0.94299139D-01 0.31379508D-01 0.97782700D+05 0.97782700D+05 0.97782700D+05 0.11225220D+01  1  2  2  1  7  1        2 0.142640873048D-03 0.100000000000D+01
-.142076217204D-06 0.000000000000D+00 -.100046068667D-07 0.341895330524D-06 0.000000000000D+00  7 2 -2 23 -11 11 23 21 2 0.94299139D-01 0.31379508D-01 0.97782700D+05 0.97782700D+05 0.97782700D+05 0.11225220D+01  1  2  3  1  7  1        2 -.980203159285D-05 0.100000000000D+01
0.166209666103D-06 0.000000000000D+00 0.000000000000D+00 0.341895330524D-06 0.000000000000D+00  7 2 -2 23 -11 11 23 21 2 0.94299139D-01 0.31379508D-01 0.97782700D+05 0.97782700D+05 0.97782700D+05 0.11225220D+01  1  2 15  1  7  1        2 0.114670310784D-04 0.100000000000D+01
0.526640909891D-07 0.000000000000D+00 0.000000000000D+00 0.341895330524D-06 0.000000000000D+00  7 2 -2 23 -11 11 23 21 2 0.95038486D-01 0.31379508D-01 0.98977137D+05 0.98977137D+05 0.98977137D+05 0.11220886D+01  1  2 12  1  7  1        2 0.359745955360D-05 0.100000000000D+01
-.187678209629D-04 0.000000000000D+00 0.000000000000D+00 0.341895330524D-06 0.000000000000D+00  7 2 -2 23 -11 11 23 21 2 0.94299139D-01 0.31379508D-01 0.97782700D+05 0.97782700D+05 0.97782700D+05 0.11225220D+01  1  2  4  1  7  1        2 -.129481751152D-02 0.100000000000D+01
0.187383137960D-04 0.000000000000D+00 0.000000000000D+00 0.341895330524D-06 0.150170559777D-06  7 2 -2 23 -11 11 23 21 2 0.94695784D-01 0.31608899D-01 0.98977137D+05 0.98977137D+05 0.98977137D+05 0.11220886D+01  1  2 11  1  7  1        2 0.126890106623D-02 0.100000000000D+01
0.466630941483D-08 0.000000000000D+00 0.000000000000D+00 0.341895330524D-06 0.000000000000D+00  7 21 -2 23 -11 11 23 -2 2 0.95038486D-01 0.31379508D-01 0.98977137D+05 0.98977137D+05 0.98977137D+05 0.11220886D+01  1  2 12  3  7  1        2 0.473916039314D-06 0.100000000000D+01
0.483298965027D-07 0.000000000000D+00 0.000000000000D+00 0.341895330524D-06 0.117874553026D-09  7 21 -2 23 -11 11 23 -2 2 0.94695784D-01 0.31608899D-01 0.98977137D+05 0.98977137D+05 0.98977137D+05 0.11220886D+01  1  2 11  3  7  1        2 0.488979362063D-05 0.100000000000D+01
  </mgrwgt>
  </event>
  <event>
  8     66 0.55102590E-06 0.18523109E+03 0.75467711E-02 0.10224364E+00
        2 -1    0    0  501    0 0.00000000E+00 0.00000000E+00 0.12800455E+03 0.12800495E+03 0.32000000E+00 0.0000E+00 0.9000E+01
       -2 -1    0    0    0  501 0.00000000E+00 0.00000000E+00 -.73389775E+03 0.73389782E+03 0.32000000E+00 0.0000E+00 0.9000E+01
       25  2    1    2    0    0 0.99902087E+02 -.15970296E+03 -.22569686E+03 0.42213635E+03 0.30294316E+03 0.0000E+00 0.0000E+00
       23  2    1    2    0    0 -.99902087E+02 0.15970296E+03 -.38019634E+03 0.43976643E+03 0.11558457E+03 0.0000E+00 0.0000E+00
       23  1    3    3    0    0 0.14320446E+03 -.14569145E+03 -.22903690E+03 0.32016662E+03 0.91188000E+02 0.0000E+00 0.9000E+01
      -11  1    4    4    0    0 -.46973903E+02 0.10563214E+03 -.32818206E+03 0.34794850E+03 0.51099893E-03 0.0000E+00 0.9000E+01
       11  1    4    4    0    0 -.52928185E+02 0.54070821E+02 -.52014284E+02 0.91817930E+02 0.51099893E-03 0.0000E+00 0.9000E+01
       23  1    3    3    0    0 -.43302369E+02 -.14011511E+02 0.33400337E+01 0.10196972E+03 0.91188000E+02 0.0000E+00 0.9000E+01
#aMCatNLO 1  0  0  2  1 0.19323960D+02 0.00000000D+00  -5  7  0 0.00000000D+00 0.00000000D+00 0.00000000D+00 0.00000000D+00 0.00000000D+00
  <mgrwgt>
 0.1505729711D-03    9    2    0
 0.306500333759302D+03 0.000000000000000D+00 0.000000000000000D+00 0.306500333759302D+03
 0.306500333759302D+03 0.000000000000000D+00 0.000000000000000D+00 -.306500333759302D+03
 0.223785402330180D+03 0.143204456644901D+03 -.145691448864210D+03 -.558034738759881D+01
 0.164852184146496D+03 -.469739052144387D+02 0.105632138854920D+03 -.117522534382602D+03
 0.776883756228001D+02 -.529281834395101D+02 0.540708217267408D+02 0.176192321767400D+02
 0.146674705419129D+03 -.433023679909525D+02 -.140115117174511D+02 0.105483649593461D+03
 0.000000000000000D+00 -.000000000000000D+00 -.000000000000000D+00 -.000000000000000D+00
 0.309134006437582D+03 0.000000000000000D+00 0.000000000000000D+00 0.309134006437582D+03
 0.344273721484389D+03 0.000000000000000D+00 0.000000000000000D+00 -.344273721484389D+03
 0.220420164288622D+03 0.144757804106883D+03 -.138866249874511D+03 -.558034738759881D+01
 0.167852337267232D+03 -.458104670165303D+02 0.110744129190174D+03 -.117522534382602D+03
 0.790187088695879D+02 -.523801926661759D+02 0.564786191861408D+02 0.176192321767400D+02
 0.146013961417083D+03 -.422788616867846D+02 -.951436322741170D+01 0.105483649593461D+03
 0.401025560794462D+02 -.428828273739202D+01 -.188421352743922D+02 -.351397150468073D+02
0.459876446662D-05 0.000000000000D+00 0.000000000000D+00 0.834140204708D-10 0.000000000000D+00  7 2 -2 23 -11 11 23 21 0 0.19693044D-01 0.11290738D+00 0.66796568D+05 0.66796568D+05 0.66796568D+05 0.11363931D+01  1  2  2  2  7  2       -2 0.102876223071D-03 0.100000000000D+01
-.246455055901D-06 0.000000000000D+00 -.176604664343D-07 0.834140204708D-10 0.000000000000D+00  7 2 -2 23 -11 11 23 21 2 0.19693044D-01 0.11290738D+00 0.66796568D+05 0.66796568D+05 0.66796568D+05 0.11363931D+01  1  2  3  2  7  2       -2 -.711981598848D-05 0.100000000000D+01
0.296240637455D-06 0.000000000000D+00 0.000000000000D+00 0.834140204708D-10 0.000000000000D+00  7 2 -2 23 -11 11 23 21 2 0.19693044D-01 0.11290738D+00 0.66796568D+05 0.66796568D+05 0.66796568D+05 0.11363931D+01  1  2 15  2  7  2       -2 0.855806678130D-05 0.100000000000D+01
0.360792027730D-04 0.000000000000D+00 0.000000000000D+00 0.834140204708D-10 0.000000000000D+00  7 2 -2 23 -11 11 23 21 2 0.19693044D-01 0.12727054D+00 0.72229176D+05 0.72229176D+05 0.72229176D+05 0.11335041D+01  1  2 12  2  7  2       -2 0.765675252258D-03 0.100000000000D+01
-.365656225089D-04 0.000000000000D+00 0.000000000000D+00 0.834140204708D-10 0.000000000000D+00  7 2 -2 23 -11 11 23 21 2 0.19693044D-01 0.11290738D+00 0.66796568D+05 0.66796568D+05 0.66796568D+05 0.11363931D+01  1  2  4  2  7  2       -2 -.105634068985D-02 0.100000000000D+01
-.502806723235D-04 0.000000000000D+00 -.478916042536D-05 0.834140204708D-10 0.000000000000D+00  7 2 -2 23 -11 11 23 21 2 0.19693044D-01 0.12734799D+00 0.66796568D+05 0.66796568D+05 0.66796568D+05 0.11363931D+01  1  2  5  2  7  2       -2 -.107202322910D-02 0.100000000000D+01
0.505251707632D-04 0.000000000000D+00 0.475468197487D-05 0.834140204708D-10 0.000000000000D+00  7 2 -2 23 -11 11 23 21 2 0.19693044D-01 0.11290738D+00 0.66796568D+05 0.66796568D+05 0.66796568D+05 0.11363931D+01  1  2  6  2  7  2       -2 0.145961671310D-02 0.100000000000D+01
0.683345279218D-06 0.000000000000D+00 0.000000000000D+00 0.834140204708D-10 0.000000000000D+00  7 2 21 23 -11 11 23 2 2 0.19693044D-01 0.12727054D+00 0.72229176D+05 0.72229176D+05 0.72229176D+05 0.11335041D+01  1  2 12  4  7  2       -2 0.134300608327D-03 0.100000000000D+01
-.934118292107D-06 0.000000000000D+00 -.910946574329D-07 0.834140204708D-10 0.000000000000D+00  7 2 21 23 -11 11 23 2 2 0.19693044D-01 0.12734799D+00 0.66796568D+05 0.66796568D+05 0.66796568D+05 0.11363931D+01  1  2  5  4  7  2       -2 -.184970157450D-03 0.100000000000D+01
  </mgrwgt>
  </event>
  <event>
  8     66 0.55102590E-06 0.45966472E+03 0.75467711E-02 0.83752971E-01
        2 -1    0    0  501    0 0.00000000E+00 0.00000000E+00 0.88053568E+03 0.88053574E+03 0.32000000E+00 0.0000E+00 0.9000E+01
       -2 -1    0    0    0  501 0.00000000E+00 0.00000000E+00 -.66606936E+03 0.66606943E+03 0.32000000E+00 0.0000E+00 0.9000E+01
       25  2    1    2    0    0 0.21814916E+03 -.35025118E+03 0.72341327E+03 0.88516730E+03 0.29988237E+03 0.0000E+00 0.0000E+00
       23  2    1    2    0    0 -.21814916E+03 0.35025118E+03 -.50894694E+03 0.66143788E+03 0.90598730E+02 0.0000E+00 0.0000E+00
       23  1    3    3    0    0 0.21315546E+03 -.33280535E+03 0.65228065E+03 0.76810153E+03 0.91188000E+02 0.0000E+00 0.9000E+01
      -13  1    4    4    0    0 -.88719943E+02 0.73412567E+02 -.11372001E+03 0.16184216E+03 0.10565837E+00 0.0000E+00 0.9000E+01
       13  1    4    4    0    0 -.12942922E+03 0.27683862E+03 -.39522693E+03 0.49959572E+03 0.10565837E+00 0.0000E+00 0.9000E+01
       23  1    3    3    0    0 0.49936968E+01 -.17445831E+02 0.71132615E+02 0.11706577E+03 0.91188000E+02 0.0000E+00 0.9000E+01
#aMCatNLO 1  0  0  2  2 0.14395882D+04 0.00000000D+00  -5  7  0 0.00000000D+00 0.00000000D+00 0.00000000D+00 0.00000000D+00 0.00000000D+00
  <mgrwgt>
 0.2236438105D-03    5    2    0
 0.765831535438423D+03 0.000000000000000D+00 0.000000000000000D+00 0.765831535438423D+03
 0.765831535438423D+03 0.000000000000000D+00 0.000000000000000D+00 -.765831535438423D+03
 0.684261168278067D+03 0.213155464329050D+03 -.332805352151696D+03 0.551092951030148D+03
 0.179343778507071D+03 -.887198878353407D+02 0.734122900859728D+02 -.137490392595304D+03
 0.559810444476611D+03 -.129429273338680D+03 0.276838892762938D+03 -.469037337961396D+03
 0.108247679615097D+03 0.499369684497012D+01 -.174458306972147D+02 0.554347795265517D+02
 0.000000000000000D+00 -.000000000000000D+00 0.000000000000000D+00 -.000000000000000D+00
 0.160390768554436D+04 0.000000000000000D+00 0.000000000000000D+00 0.160390768554436D+04
 0.198805313068578D+04 0.000000000000000D+00 0.000000000000000D+00 -.198805313068578D+04
 0.129839049469594D+04 0.790576521665284D+03 -.865325342336207D+03 0.551092951030148D+03
 0.138048960231965D+03 0.371654677195190D+01 -.118361583804698D+02 -.137490392595304D+03
 0.502439092910906D+03 0.179936846029544D+03 -.847048547377602D+01 -.469037337961396D+03
 0.163121907840737D+03 0.840264977367824D+02 -.903329307093211D+02 0.554347795265517D+02
 0.148996036055059D+04 -.105825641220356D+04 0.975964916899774D+03 -.384145445141426D+03
0.710982050854D-04 0.000000000000D+00 0.000000000000D+00 0.322334175896D-05 0.000000000000D+00  7 2 -2 23 -13 13 23 21 0 0.13546704D+00 0.10247222D+00 0.21129165D+06 0.21129165D+06 0.21129165D+06 0.10959981D+01  1  2  2  2  7  2       -2 0.215038863767D-03 0.100000000000D+01
-.269849103770D-05 0.000000000000D+00 -.273035828115D-06 0.322334175896D-05 0.000000000000D+00  7 2 -2 23 -13 13 23 21 2 0.13546704D+00 0.10247222D+00 0.21129165D+06 0.21129165D+06 0.21129165D+06 0.10959981D+01  1  2  3  2  7  2       -2 -.980390151187D-05 0.100000000000D+01
0.430574574613D-05 0.000000000000D+00 0.000000000000D+00 0.322334175896D-05 0.000000000000D+00  7 2 -2 23 -13 13 23 21 2 0.13546704D+00 0.10247222D+00 0.21129165D+06 0.21129165D+06 0.21129165D+06 0.10959981D+01  1  2 15  2  7  2       -2 0.156432267665D-04 0.100000000000D+01
0.426815964321D-04 0.000000000000D+00 -.235424023044D-04 0.322334175896D-05 0.000000000000D+00  7 2 -2 23 -13 13 23 21 2 0.13546704D+00 0.39874953D+00 0.21129165D+06 0.21129165D+06 0.21129165D+06 0.10959981D+01  1  2  5  2  7  2       -2 0.121591955436D-05 0.100000000000D+01
0.727564711448D-05 0.000000000000D+00 -.380342424534D-05 0.322334175896D-05 0.000000000000D+00  7 2 21 23 -13 13 23 2 2 0.13546704D+00 0.39874953D+00 0.21129165D+06 0.21129165D+06 0.21129165D+06 0.10959981D+01  1  2  5  4  7  2       -2 0.154970192690D-05 0.100000000000D+01
  </mgrwgt>
  </event>
  <event>
  8     66 0.55102590E-06 0.63107368E+03 0.75467711E-02 0.91757837E-01
        2 -1    0    0  501    0 0.00000000E+00 0.00000000E+00 0.26080298E+03 0.26080317E+03 0.32000000E+00 0.0000E+00 0.9000E+01
       -2 -1    0    0    0  501 0.00000000E+00 0.00000000E+00 -.16246843E+04 0.16246843E+04 0.32000000E+00 0.0000E+00 0.9000E+01
       25  2    1    2    0    0 -.15134946E+03 -.58945644E+03 -.63560289E+03 0.93201825E+03 0.30708537E+03 0.0000E+00 0.0000E+00
       23  2    1    2    0    0 0.15134946E+03 0.58945644E+03 -.72827839E+03 0.95346921E+03 0.91370468E+02 0.0000E+00 0.0000E+00
       23  1    3    3    0    0 -.11562631E+03 -.18039448E+03 -.10641879E+03 0.25603090E+03 0.91188000E+02 0.0000E+00 0.9000E+01
      -13  1    4    4    0    0 0.11930547E+03 0.48029792E+03 -.64243032E+03 0.81094797E+03 0.10565837E+00 0.0000E+00 0.9000E+01
       13  1    4    4    0    0 0.32043989E+02 0.10915853E+03 -.85848069E+02 0.14252124E+03 0.10565837E+00 0.0000E+00 0.9000E+01
       23  1    3    3    0    0 -.35723152E+02 -.40906197E+03 -.52918410E+03 0.67598736E+03 0.91188000E+02 0.0000E+00 0.9000E+01
#aMCatNLO 1  0  0  1  2 0.35517281D+02 0.00000000D+00  -5  7  0 0.00000000D+00 0.00000000D+00 0.00000000D+00 0.00000000D+00 0.00000000D+00
  <mgrwgt>
 0.1996925008D-03    4    2    0
 0.650939862746401D+03 0.000000000000000D+00 0.000000000000000D+00 0.650939862746401D+03
 0.650939862746401D+03 0.000000000000000D+00 0.000000000000000D+00 -.650939862746401D+03
 0.259317698213604D+03 -.115626310112737D+03 -.180394476334850D+03 0.114099985014856D+03
 0.501455090964979D+03 0.119305589678105D+03 0.480298414766312D+03 -.808505862639419D+02
 0.116473709650833D+03 0.320438719832670D+02 0.109158029293032D+03 0.249767882044098D+02
 0.424633226663385D+03 -.357231515486350D+02 -.409061967724494D+03 -.582261869553235D+02
 0.000000000000000D+00 -.000000000000000D+00 0.000000000000000D+00 -.000000000000000D+00
 0.654423372120471D+03 0.000000000000000D+00 0.000000000000000D+00 0.654423372120471D+03
 0.748478839630101D+03 0.000000000000000D+00 0.000000000000000D+00 -.748478839630101D+03
 0.259470355998959D+03 -.109706515910645D+03 -.184269607056029D+03 0.114099985014856D+03
 0.497188329599634D+03 0.130700924406828D+03 0.472838964289167D+03 -.808505862639419D+02
 0.115617442231446D+03 0.346922210424118D+02 0.107424405040373D+03 0.249767882044098D+02
 0.430087990569789D+03 -.259700863708692D+02 -.415446379277629D+03 -.582261869553235D+02
 0.100538093350746D+03 -.297165431677250D+02 0.194526170041183D+02 -.940554675096300D+02
0.241151354787D-03 0.000000000000D+00 0.000000000000D+00 0.224658249544D-07 0.000000000000D+00  7 2 -2 23 -13 13 23 21 0 0.40123552D-01 0.24995144D+00 0.39825400D+06 0.39825400D+06 0.39825400D+06 0.10755646D+01  1  2  2  1  7  1        2 0.218737063774D-03 0.100000000000D+01
-.133816490266D-04 0.000000000000D+00 -.926084698993D-06 0.224658249544D-07 0.000000000000D+00  7 2 -2 23 -13 13 23 21 2 0.40123552D-01 0.24995144D+00 0.39825400D+06 0.39825400D+06 0.39825400D+06 0.10755646D+01  1  2  3  1  7  1        2 -.140415584711D-04 0.100000000000D+01
0.150095973370D-04 0.000000000000D+00 0.000000000000D+00 0.224658249544D-07 0.000000000000D+00  7 2 -2 23 -13 13 23 21 2 0.40123552D-01 0.24995144D+00 0.39825400D+06 0.39825400D+06 0.39825400D+06 0.10755646D+01  1  2 15  1  7  1        2 0.157497882522D-04 0.100000000000D+01
-.197774762595D-04 0.000000000000D+00 0.000000000000D+00 0.224658249544D-07 0.000000000000D+00  7 2 -2 23 -13 13 23 21 2 0.40123552D-01 0.24995144D+00 0.39825400D+06 0.39825400D+06 0.39825400D+06 0.10755646D+01  1  2  4  1  7  1        2 -.207527927803D-04 0.100000000000D+01
  </mgrwgt>
  </event>
  <event>
  8     66 0.55102590E-06 0.18135588E+03 0.75467711E-02 0.10771945E+00
        2 -1    0    0  501    0 0.00000000E+00 0.00000000E+00 0.66785259E+03 0.66785267E+03 0.32000000E+00 0.0000E+00 0.9000E+01
       -2 -1    0    0    0  501 0.00000000E+00 0.00000000E+00 -.91250397E+02 0.91250958E+02 0.32000000E+00 0.0000E+00 0.9000E+01
       25  2    1    2    0    0 -.41051803E+02 0.11092673E+03 0.28660070E+03 0.43307315E+03 0.30236138E+03 0.0000E+00 0.0000E+00
       23  2    1    2    0    0 0.41051803E+02 -.11092673E+03 0.29000149E+03 0.32603047E+03 0.90581526E+02 0.0000E+00 0.0000E+00
       23  1    3    3    0    0 -.69535377E+02 0.61958324E+02 0.29786171E+03 0.32513206E+03 0.91188000E+02 0.0000E+00 0.9000E+01
      -13  1    4    4    0    0 0.16185888E+02 -.92911269E+02 0.11677239E+03 0.15010093E+03 0.10565837E+00 0.0000E+00 0.9000E+01
       13  1    4    4    0    0 0.24865914E+02 -.18015461E+02 0.17322910E+03 0.17592954E+03 0.10565837E+00 0.0000E+00 0.9000E+01
       23  1    3    3    0    0 0.28483574E+02 0.48968407E+02 -.11261011E+02 0.10794110E+03 0.91188000E+02 0.0000E+00 0.9000E+01
#aMCatNLO 1  0  0  1  2 0.78101884D+00 0.00000000D+00  -5  7  0 0.00000000D+00 0.00000000D+00 0.00000000D+00 0.00000000D+00 0.00000000D+00
  <mgrwgt>
 0.8964921208D-04    6    2    0
 0.246864448027198D+03 0.000000000000000D+00 0.000000000000000D+00 0.246864448027198D+03
 0.246864448027198D+03 0.000000000000000D+00 0.000000000000000D+00 -.246864448027198D+03
 0.152029192503321D+03 -.695353773382595D+02 0.619583258929672D+02 0.782535697599697D+02
 0.944059815562690D+02 0.161858786115682D+02 -.929113700606215D+02 0.424075472438880D+01
 0.681840867810936D+02 0.248659256083672D+02 -.180153650962953D+02 0.608785845290282D+02
 0.179109635213713D+03 0.284835731183241D+02 0.489684092639496D+02 -.143372909013387D+03
 0.000000000000000D+00 -.000000000000000D+00 -.000000000000000D+00 -.000000000000000D+00
 0.247107429235115D+03 0.000000000000000D+00 0.000000000000000D+00 0.247107429235115D+03
 0.247493166419734D+03 0.000000000000000D+00 0.000000000000000D+00 -.247493166419734D+03
 0.151959098038768D+03 -.693091613705748D+02 0.620397864493823D+02 0.782535697599697D+02
 0.943803940118294D+02 0.163263659065185D+02 -.928607804699174D+02 0.424075472438880D+01
 0.682115253178600D+02 0.249674257856401D+02 -.179788147988008D+02 0.608785845290282D+02
 0.179178496423790D+03 0.287501968631526D+02 0.490644206942190D+02 -.143372909013387D+03
 0.871081862602199D+00 -.734827184736362D+00 -.264611874883005D+00 -.385737184619076D+00
0.521022677916D-06 0.000000000000D+00 0.000000000000D+00 0.109454693228D-07 0.000000000000D+00  7 2 -2 23 -13 13 23 21 0 0.10274660D+00 0.14038572D-01 0.32889954D+05 0.32889954D+05 0.32889954D+05 0.11636481D+01  1  2  2  1  7  1        2 0.979207080082D-04 0.100000000000D+01
-.255988814208D-07 0.000000000000D+00 -.200086427162D-08 0.109454693228D-07 0.000000000000D+00  7 2 -2 23 -13 13 23 21 2 0.10274660D+00 0.14038572D-01 0.32889954D+05 0.32889954D+05 0.32889954D+05 0.11636481D+01  1  2  3  1  7  1        2 -.651451694979D-05 0.100000000000D+01
0.329261211510D-07 0.000000000000D+00 0.000000000000D+00 0.109454693228D-07 0.000000000000D+00  7 2 -2 23 -13 13 23 21 2 0.10274660D+00 0.14038572D-01 0.32889954D+05 0.32889954D+05 0.32889954D+05 0.11636481D+01  1  2 15  1  7  1        2 0.837918543404D-05 0.100000000000D+01
-.981440087783D-05 0.000000000000D+00 0.000000000000D+00 0.109454693228D-07 0.000000000000D+00  7 2 -2 23 -13 13 23 21 2 0.10274660D+00 0.14038572D-01 0.32889954D+05 0.32889954D+05 0.32889954D+05 0.11636481D+01  1  2  4  1  7  1        2 -.249761229093D-02 0.100000000000D+01
0.981443563178D-05 0.000000000000D+00 0.000000000000D+00 0.109454693228D-07 0.129543500437D-06  7 2 -2 23 -13 13 23 21 2 0.10284773D+00 0.14074325D-01 0.33044173D+05 0.33044173D+05 0.33044173D+05 0.11634615D+01  1  2 11  1  7  1        2 0.248416380482D-02 0.100000000000D+01
0.934226421438D-08 0.000000000000D+00 0.000000000000D+00 0.109454693228D-07 0.239097488724D-10  7 21 -2 23 -13 13 23 -2 2 0.10284773D+00 0.14074325D-01 0.33044173D+05 0.33044173D+05 0.33044173D+05 0.11634615D+01  1  2 11  3  7  1        2 0.331232169017D-05 0.100000000000D+01
  </mgrwgt>
  </event>
  <event>
  9     66 -.55102590E-06 0.64862352E+03 0.75467711E-02 0.91277001E-01
        2 -1    0    0  501    0 0.00000000E+00 0.00000000E+00 0.36616940E+04 0.36616940E+04 0.32000000E+00 0.0000E+00 0.9000E+01
       -2 -1    0    0    0  502 0.00000000E+00 0.00000000E+00 -.25864010E+03 0.25864030E+03 0.32000000E+00 0.0000E+00 0.9000E+01
       25  2    1    2    0    0 -.25911737E+03 -.53518383E+03 0.30581749E+04 0.31298450E+04 0.29988767E+03 0.0000E+00 0.0000E+00
       23  2    1    2    0    0 0.24947149E+03 0.59366301E+03 0.33023390E+03 0.72943276E+03 0.91356015E+02 0.0000E+00 0.0000E+00
       23  1    3    3    0    0 0.10397348E+02 -.10596200E+03 0.45039530E+03 0.47170672E+03 0.91188000E+02 0.0000E+00 0.9000E+01
      -11  1    4    4    0    0 0.23246812E+03 0.55807893E+03 0.33243739E+03 0.68993343E+03 0.51099893E-03 0.0000E+00 0.9000E+01
       11  1    4    4    0    0 0.17003375E+02 0.35584081E+02 -.22034890E+01 0.39499328E+02 0.51099893E-03 0.0000E+00 0.9000E+01
       23  1    3    3    0    0 -.26951471E+03 -.42922184E+03 0.26077796E+04 0.26581383E+04 0.91188000E+02 0.0000E+00 0.9000E+01
       21  1    1    2  501  502 0.96458720E+01 -.58479180E+02 0.14645080E+02 0.61056517E+02 0.75000000E+00 0.0000E+00 0.9000E+01
#aMCatNLO 2  0  0  2  1 0.59269363D+02 0.00000000D+00  -5  7  0 0.00000000D+00 0.00000000D+00 0.00000000D+00 0.00000000D+00 0.00000000D+00
  <mgrwgt>
 -.3942421744D-04    2    2    0
 0.923200678651163D+03 0.000000000000000D+00 0.000000000000000D+00 0.923200678651163D+03
 0.923200678651163D+03 0.000000000000000D+00 0.000000000000000D+00 -.923200678651163D+03
 0.162814393603939D+03 0.112385754458914D+02 -.111062029538461D+03 0.757112636096072D+02
 0.815541728461300D+03 0.236769399927661D+03 0.532001937057801D+03 -.570983801071700D+03
 0.855655165283181D+02 0.174528610713830D+02 0.328590188345494D+02 -.770528399243765D+02
 0.782479718708768D+03 -.265460836444936D+03 -.453798926353890D+03 0.572325377386470D+03
 0.000000000000000D+00 0.000000000000000D+00 -.000000000000000D+00 -.000000000000000D+00
 0.933322542145976D+03 0.000000000000000D+00 0.000000000000000D+00 0.933322542145976D+03
 0.101471729235092D+04 0.000000000000000D+00 0.000000000000000D+00 -.101471729235092D+04
 0.159321988497522D+03 0.103973481973783D+02 -.105961995016626D+03 0.757112636096072D+02
 0.831574424457325D+03 0.232468119270499D+03 0.558078933349111D+03 -.570983801071700D+03
 0.865591225421998D+02 0.170033746284609D+02 0.355840807961673D+02 -.770528399243765D+02
 0.769896848221651D+03 -.269514714058933D+03 -.429221838753341D+03 0.572325377386470D+03
 0.100687450778196D+03 0.964587196259482D+01 -.584791803753108D+02 -.813947502049410D+02
-.192147930372D-02 0.000000000000D+00 0.000000000000D+00 0.101336188034D-04 0.000000000000D+00  7 2 -2 23 -11 11 23 21 2 0.55722734D+00 0.39977066D-01 0.46132070D+06 0.46132070D+06 0.46132070D+06 0.10709905D+01  1  2 13  2  7  2       -2 -.106686738183D-02 0.100000000000D+01
0.196294981981D-02 0.000000000000D+00 0.000000000000D+00 0.101336188034D-04 0.177022170818D-07  7 2 -2 23 -11 11 23 21 2 0.56333672D+00 0.39790743D-01 0.46132070D+06 0.46132070D+06 0.46132070D+06 0.10709905D+01  1  2  1  2  7  2       -2 0.102744316439D-02 0.100000000000D+01
  </mgrwgt>
  </event>
  <event>
  8     66 0.55102590E-06 0.65224685E+03 0.75467711E-02 0.87308909E-01
        2 -1    0    0  501    0 0.00000000E+00 0.00000000E+00 0.10054917E+04 0.10054918E+04 0.32000000E+00 0.0000E+00 0.9000E+01
       -2 -1    0    0    0  501 0.00000000E+00 0.00000000E+00 -.73699317E+03 0.73699324E+03 0.32000000E+00 0.0000E+00 0.9000E+01
       25  2    1    2    0    0 0.63057100E+03 -.17135954E+01 0.68746992E+03 0.97981847E+03 0.29967753E+03 0.0000E+00 0.0000E+00
       23  2    1    2    0    0 -.63057100E+03 0.17135954E+01 -.41897137E+03 0.76266655E+03 0.92198338E+02 0.0000E+00 0.0000E+00
       23  1    3    3    0    0 0.43144819E+03 -.65377969E+02 0.32549521E+03 0.55198207E+03 0.91188000E+02 0.0000E+00 0.9000E+01
      -11  1    4    4    0    0 -.30979818E+03 0.46419595E+01 -.26089631E+03 0.40504734E+03 0.51099893E-03 0.0000E+00 0.9000E+01
       11  1    4    4    0    0 -.32077281E+03 -.29283641E+01 -.15807506E+03 0.35761921E+03 0.51099893E-03 0.0000E+00 0.9000E+01
       23  1    3    3    0    0 0.19912281E+03 0.63664374E+02 0.36197471E+03 0.42783641E+03 0.91188000E+02 0.0000E+00 0.9000E+01
#aMCatNLO 1  0  0  1  1 0.62773596D+03 0.00000000D+00  -5  7  0 0.00000000D+00 0.00000000D+00 0.00000000D+00 0.00000000D+00 0.00000000D+00
  <mgrwgt>
 0.3423885884D-03    3    2    0
 0.860837176748381D+03 0.000000000000000D+00 0.000000000000000D+00 0.860837176748381D+03
 0.860837176748381D+03 0.000000000000000D+00 0.000000000000000D+00 -.860837176748381D+03
 0.507892500430701D+03 0.431448189454873D+03 -.653779689649261D+02 0.243346916232530D+03
 0.450630633663747D+03 -.309798184834812D+03 0.464195945477633D+01 -.327217824822650D+03
 0.386594037913196D+03 -.320772813306391D+03 -.292836405775188D+01 -.215757217903546D+03
 0.376557181489120D+03 0.199122808686329D+03 0.636643735679017D+02 0.299628126493666D+03
 0.000000000000000D+00 -.000000000000000D+00 0.000000000000000D+00 -.000000000000000D+00
 0.109786390952620D+04 0.000000000000000D+00 0.000000000000000D+00 0.109786390952620D+04
 0.145876788503769D+04 0.000000000000000D+00 0.000000000000000D+00 -.145876788503769D+04
 0.698178893521136D+03 0.644446259911567D+03 -.678955997138883D+02 0.243346916232530D+03
 0.366682489990509D+03 -.165456714528584D+03 0.293584764252283D+01 -.327217824822650D+03
 0.294553659832072D+03 -.200478819067476D+03 -.435023543039862D+01 -.215757217903546D+03
 0.473128276513151D+03 0.349181390588839D+03 0.618906856695401D+02 0.299628126493666D+03
 0.724088474707020D+03 -.627692116904346D+03 0.741930183222403D+01 -.360903975511497D+03
0.177739243018D-03 0.000000000000D+00 0.000000000000D+00 0.289995184489D-05 0.000000000000D+00  7 2 -2 23 -11 11 23 21 0 0.15469104D+00 0.11338357D+00 0.42542595D+06 0.42542595D+06 0.42542595D+06 0.10735035D+01  1  2  2  1  7  1        2 0.337351425178D-03 0.100000000000D+01
-.894999621694D-05 0.000000000000D+00 -.682565493008D-06 0.289995184489D-05 0.000000000000D+00  7 2 -2 23 -11 11 23 21 2 0.15469104D+00 0.11338357D+00 0.42542595D+06 0.42542595D+06 0.42542595D+06 0.10735035D+01  1  2  3  1  7  1        2 -.195762287311D-04 0.100000000000D+01
0.112529214651D-04 0.000000000000D+00 0.000000000000D+00 0.289995184489D-05 0.000000000000D+00  7 2 -2 23 -11 11 23 21 2 0.15469104D+00 0.11338357D+00 0.42542595D+06 0.42542595D+06 0.42542595D+06 0.10735035D+01  1  2 15  1  7  1        2 0.246133919115D-04 0.100000000000D+01
  </mgrwgt>
  </event>
  <event>
  8     66 0.55102590E-06 0.27892539E+03 0.75467711E-02 0.94772828E-01
        2 -1    0    0  501    0 0.00000000E+00 0.00000000E+00 0.20271269E+03 0.20271294E+03 0.32000000E+00 0.0000E+00 0.9000E+01
       -2 -1    0    0    0  501 0.00000000E+00 0.00000000E+00 -.12503098E+04 0.12503098E+04 0.32000000E+00 0.0000E+00 0.9000E+01
       25  2    1    2    0    0 -.62258841E+02 -.44943705E+03 -.50112478E+03 0.73689558E+03 0.29329036E+03 0.0000E+00 0.0000E+00
       23  2    1    2    0    0 0.62258841E+02 0.44943705E+03 -.54647233E+03 0.71612720E+03 0.91303505E+02 0.0000E+00 0.0000E+00
       23  1    3    3    0    0 0.29232973E+02 -.29510965E+03 -.18225950E+03 0.35983059E+03 0.91188000E+02 0.0000E+00 0.9000E+01
      -11  1    4    4    0    0 0.82762876E+02 0.29633500E+03 -.38185763E+03 0.49038696E+03 0.51099893E-03 0.0000E+00 0.9000E+01
       11  1    4    4    0    0 -.20504035E+02 0.15310205E+03 -.16461471E+03 0.22574024E+03 0.51099893E-03 0.0000E+00 0.9000E+01
       23  1    3    3    0    0 -.91491814E+02 -.15432739E+03 -.31886528E+03 0.37706500E+03 0.91188000E+02 0.0000E+00 0.9000E+01
#aMCatNLO 1  0  0  2  1 0.13354458D+02 0.00000000D+00  -5  7  0 0.00000000D+00 0.00000000D+00 0.00000000D+00 0.00000000D+00 0.00000000D+00
  <mgrwgt>
 0.1537941284D-03    9    2    0
 0.503442029008593D+03 0.000000000000000D+00 0.000000000000000D+00 0.503442029008593D+03
 0.503442029008593D+03 0.000000000000000D+00 0.000000000000000D+00 -.503442029008593D+03
 0.329638266652668D+03 0.292329733809668D+02 -.295109653671443D+03 0.111363643416531D+03
 0.310373850010659D+03 0.827628756623905D+02 0.296334998235607D+03 -.408387316555440D+02
 0.154492283903229D+03 -.205040347818640D+02 0.153102050389828D+03 -.268561161202389D+01
 0.212379657450629D+03 -.914918142614933D+02 -.154327394953993D+03 -.678393001489636D+02
 0.000000000000000D+00 -.000000000000000D+00 0.000000000000000D+00 -.000000000000000D+00
 0.505524296938752D+03 0.000000000000000D+00 0.000000000000000D+00 0.505524296938752D+03
 0.525363453283244D+03 0.000000000000000D+00 0.000000000000000D+00 -.525363453283244D+03
 0.330760697474743D+03 0.335391627525338D+02 -.295906490528399D+03 0.111363643416531D+03
 0.310765373994306D+03 0.868130684548757D+02 0.295585532149388D+03 -.408387316555440D+02
 0.153868981429431D+03 -.184933381037841D+02 0.152729981936027D+03 -.268561161202389D+01
 0.211577562342788D+03 -.887273640230140D+02 -.154838941393122D+03 -.678393001489636D+02
 0.239151349807270D+02 -.131315290806113D+02 0.242991783610576D+01 -.198391563444928D+02
0.151207908960D-04 0.000000000000D+00 0.000000000000D+00 0.277540476704D-08 0.000000000000D+00  7 2 -2 23 -11 11 23 21 0 0.31186590D-01 0.19235538D+00 0.23700098D+06 0.23700098D+06 0.23700098D+06 0.10922080D+01  1  2  2  2  7  2       -2 0.449079424239D-04 0.100000000000D+01
-.838893678542D-06 0.000000000000D+00 -.580678184365D-07 0.277540476704D-08 0.000000000000D+00  7 2 -2 23 -11 11 23 21 2 0.31186590D-01 0.19235538D+00 0.23700098D+06 0.23700098D+06 0.23700098D+06 0.10922080D+01  1  2  3  2  7  2       -2 -.297211942250D-05 0.100000000000D+01
0.946186669193D-06 0.000000000000D+00 0.000000000000D+00 0.277540476704D-08 0.000000000000D+00  7 2 -2 23 -11 11 23 21 2 0.31186590D-01 0.19235538D+00 0.23700098D+06 0.23700098D+06 0.23700098D+06 0.10922080D+01  1  2 15  2  7  2       -2 0.335224814390D-05 0.100000000000D+01
0.910269846912D-04 0.000000000000D+00 0.000000000000D+00 0.277540476704D-08 0.000000000000D+00  7 2 -2 23 -11 11 23 21 2 0.31186590D-01 0.20111894D+00 0.24360474D+06 0.24360474D+06 0.24360474D+06 0.10913068D+01  1  2 12  2  7  2       -2 0.280053412405D-03 0.100000000000D+01
-.927467352466D-04 0.000000000000D+00 0.000000000000D+00 0.277540476704D-08 0.000000000000D+00  7 2 -2 23 -11 11 23 21 2 0.31186590D-01 0.19235538D+00 0.23700098D+06 0.23700098D+06 0.23700098D+06 0.10922080D+01  1  2  4  2  7  2       -2 -.328592740953D-03 0.100000000000D+01
-.413726183955D-03 0.000000000000D+00 -.371701931013D-04 0.277540476704D-08 0.000000000000D+00  7 2 -2 23 -11 11 23 21 2 0.31186590D-01 0.20109588D+00 0.23700098D+06 0.23700098D+06 0.23700098D+06 0.10922080D+01  1  2  5  2  7  2       -2 -.127667729973D-02 0.100000000000D+01
0.415004777870D-03 0.000000000000D+00 0.371335238947D-04 0.277540476704D-08 0.000000000000D+00  7 2 -2 23 -11 11 23 21 2 0.31186590D-01 0.19235538D+00 0.23700098D+06 0.23700098D+06 0.23700098D+06 0.10922080D+01  1  2  6  2  7  2       -2 0.147032191598D-02 0.100000000000D+01
0.171950818701D-05 0.000000000000D+00 0.000000000000D+00 0.277540476704D-08 0.000000000000D+00  7 2 21 23 -11 11 23 2 2 0.31186590D-01 0.20111894D+00 0.24360474D+06 0.24360474D+06 0.24360474D+06 0.10913068D+01  1  2 12  4  7  2       -2 0.420673191681D-04 0.100000000000D+01
-.320259129216D-05 0.000000000000D+00 -.290066533206D-06 0.277540476704D-08 0.000000000000D+00  7 2 21 23 -11 11 23 2 2 0.31186590D-01 0.20109588D+00 0.23700098D+06 0.23700098D+06 0.23700098D+06 0.10922080D+01  1  2  5  4  7  2       -2 -.786665496592D-04 0.100000000000D+01
  </mgrwgt>
  </event>
  <event>
  9     66 0.55102590E-06 0.24580558E+03 0.75467711E-02 0.10049160E+00
        2 -1    0    0  501    0 0.00000000E+00 0.00000000E+00 0.64580571E+03 0.64580579E+03 0.32000000E+00 0.0000E+00 0.9000E+01
       21 -1    0    0  502  501 0.00000000E+00 0.00000000E+00 -.29274410E+03 0.29274506E+03 0.75000000E+00 0.0000E+00 0.9000E+01
       25  2    1    2    0    0 0.18915670E+03 -.16306351E+03 -.67059283E+02 0.39651523E+03 0.30059510E+03 0.0000E+00 0.0000E+00
       23  2    1    2    0    0 -.11448155E+03 0.69809947E+02 0.78321428E+02 0.17995886E+03 0.90947737E+02 0.0000E+00 0.0000E+00
       23  1    3    3    0    0 0.16077030E+03 -.18639679E+03 0.22582937E+02 0.26346934E+03 0.91188000E+02 0.0000E+00 0.9000E+01
      -13  1    4    4    0    0 -.59961580E+02 0.30552109E+02 0.89368758E+02 0.11187318E+03 0.10565837E+00 0.0000E+00 0.9000E+01
       13  1    4    4    0    0 -.54519971E+02 0.39257838E+02 -.11047330E+02 0.68085679E+02 0.10565837E+00 0.0000E+00 0.9000E+01
       23  1    3    3    0    0 0.28386400E+02 0.23333280E+02 -.89642220E+02 0.13304589E+03 0.91188000E+02 0.0000E+00 0.9000E+01
        2  1    1    2  502    0 -.74675150E+02 0.93253563E+02 0.34179946E+03 0.36207676E+03 0.32000000E+00 0.0000E+00 0.9000E+01
#aMCatNLO 2  0  0  2  1 0.11946801D+03 0.00000000D+00  -5  7  0 0.00000000D+00 0.00000000D+00 0.00000000D+00 0.00000000D+00 0.00000000D+00
  <mgrwgt>
 0.5955504645D-04    1    2    0
 0.281923275808285D+03 0.000000000000000D+00 0.000000000000000D+00 0.281923275808285D+03
 0.281923275808285D+03 0.000000000000000D+00 0.000000000000000D+00 -.281923275808285D+03
 0.216798707902906D+03 0.129341990741250D+03 -.147149437752654D+03 0.174390597377779D+02
 0.125587841114309D+03 -.754005196460163D+02 0.498320775694314D+02 0.871999513645379D+02
 0.835444236758253D+02 -.644655708099552D+02 0.516778227498354D+02 -.123799654001555D+02
 0.137915578923529D+03 0.105240997147219D+02 0.456395374333869D+02 -.922590457021603D+02
 0.000000000000000D+00 -.000000000000000D+00 0.000000000000000D+00 0.000000000000000D+00
 0.633310315014383D+03 0.000000000000000D+00 0.000000000000000D+00 0.633310315014383D+03
 0.298520657120852D+03 0.000000000000000D+00 0.000000000000000D+00 -.298520657120852D+03
 0.263078361747875D+03 0.160770300090333D+03 -.186396788814271D+03 0.174390597377779D+02
 0.110148328345210D+03 -.599615880381084D+02 0.305520977874601D+02 0.871999513645379D+02
 0.683144847105363D+02 -.545199637951131D+02 0.392578504981692D+02 -.123799654001555D+02
 0.134822893084454D+03 0.283864015661128D+02 0.233332776933742D+02 -.922590457021603D+02
 0.355466904247161D+03 -.746751498232241D+02 0.932535628352677D+02 0.334789657893532D+03
0.161523356439D-06 0.000000000000D+00 0.000000000000D+00 0.176518653255D-06 0.171085529311D-11  7 2 21 23 -13 13 23 2 2 0.99354781D-01 0.45037623D-01 0.94482712D+05 0.94482712D+05 0.94482712D+05 0.11237503D+01  1  2  1  4  7  2       -2 0.595550464536D-04 0.100000000000D+01
  </mgrwgt>
  </event>
  <event>
  8     66 0.55102590E-06 0.72468110E+02 0.75467711E-02 0.10470722E+00
        2 -1    0    0  501    0 0.00000000E+00 0.00000000E+00 0.18151043E+03 0.18151071E+03 0.32000000E+00 0.0000E+00 0.9000E+01
       -2 -1    0    0    0  501 0.00000000E+00 0.00000000E+00 -.24181723E+03 0.24181744E+03 0.32000000E+00 0.0000E+00 0.9000E+01
       25  2    1    2    0    0 -.51917462E+02 -.30159715E+02 -.23567000E+02 0.30714339E+03 0.30029424E+03 0.0000E+00 0.0000E+00
       23  2    1    2    0    0 0.51917462E+02 0.30159715E+02 -.36739802E+02 0.11618476E+03 0.92434047E+02 0.0000E+00 0.0000E+00
       23  1    3    3    0    0 -.92339334E+02 0.83878632E+02 -.62248377E+01 0.15464856E+03 0.91188000E+02 0.0000E+00 0.9000E+01
      -13  1    4    4    0    0 -.22479369E+02 0.25996327E+02 -.33444432E+01 0.34530095E+02 0.10565837E+00 0.0000E+00 0.9000E+01
       13  1    4    4    0    0 0.74396831E+02 0.41633883E+01 -.33395359E+02 0.81654660E+02 0.10565837E+00 0.0000E+00 0.9000E+01
       23  1    3    3    0    0 0.40421871E+02 -.11403835E+03 -.17342163E+02 0.15249483E+03 0.91188000E+02 0.0000E+00 0.9000E+01
#aMCatNLO 1  0  0  2  1 0.32322589D+02 0.00000000D+00  -5  7  0 0.00000000D+00 0.00000000D+00 0.00000000D+00 0.00000000D+00 0.00000000D+00
  <mgrwgt>
 0.6748482824D-03    9    2    0
 0.209505257745325D+03 0.000000000000000D+00 0.000000000000000D+00 0.209505257745325D+03
 0.209505257745325D+03 0.000000000000000D+00 0.000000000000000D+00 -.209505257745325D+03
 0.155346174022916D+03 -.923393543625606D+02 0.838785678689751D+02 0.159690928894936D+02
 0.344044806582840D+02 -.224794599032640D+02 0.259963682002208D+02 0.159091552960479D+01
 0.776896930078602D+02 0.743970132808616D+02 0.416339963312358D+01 -.219872444393967D+02
 0.151570167801590D+03 0.404218009849630D+02 -.114038335702319D+03 0.442723602029831D+01
 0.000000000000000D+00 -.000000000000000D+00 0.000000000000000D+00 -.000000000000000D+00
 0.226251213562041D+03 0.000000000000000D+00 0.000000000000000D+00 0.226251213562041D+03
 0.226326816758705D+03 0.000000000000000D+00 0.000000000000000D+00 -.226326816758705D+03
 0.148008111001381D+03 -.899314534689194D+02 0.724463341201701D+02 0.159690928894936D+02
 0.321869844518349D+02 -.219508843852531D+02 0.234867969418049D+02 0.159091552960479D+01
 0.787890505034880D+02 0.756390768512069D+02 -.173367075900145D+01 -.219872444393967D+02
 0.161271207175786D+03 0.429050064762440D+02 -.125828100678781D+03 0.442723602029831D+01
 0.323226771882565D+02 -.666174547327851D+01 0.316286403758072D+02 -.756031966645175D-01
0.252159116751D-05 0.000000000000D+00 0.000000000000D+00 0.354331327311D-07 0.000000000000D+00  7 2 -2 23 -13 13 23 21 0 0.27924719D-01 0.37202689D-01 0.43037536D+05 0.43037536D+05 0.43037536D+05 0.11530680D+01  1  2  2  2  7  2       -2 0.389337260069D-03 0.100000000000D+01
-.140071923371D-06 0.000000000000D+00 -.968357403344D-08 0.354331327311D-07 0.000000000000D+00  7 2 -2 23 -13 13 23 21 2 0.27924719D-01 0.37202689D-01 0.43037536D+05 0.43037536D+05 0.43037536D+05 0.11530680D+01  1  2  3  2  7  2       -2 -.287549229114D-04 0.100000000000D+01
0.161263285181D-06 0.000000000000D+00 0.000000000000D+00 0.354331327311D-07 0.000000000000D+00  7 2 -2 23 -13 13 23 21 2 0.27924719D-01 0.37202689D-01 0.43037536D+05 0.43037536D+05 0.43037536D+05 0.11530680D+01  1  2 15  2  7  2       -2 0.331052306718D-04 0.100000000000D+01
0.296492870479D-05 0.000000000000D+00 0.000000000000D+00 0.354331327311D-07 0.000000000000D+00  7 2 -2 23 -13 13 23 21 2 0.27924719D-01 0.41561737D-01 0.50284410D+05 0.50284410D+05 0.50284410D+05 0.11470788D+01  1  2 12  2  7  2       -2 0.492239572814D-03 0.100000000000D+01
-.233747043185D-05 0.000000000000D+00 0.000000000000D+00 0.354331327311D-07 0.000000000000D+00  7 2 -2 23 -13 13 23 21 2 0.27924719D-01 0.37202689D-01 0.43037536D+05 0.43037536D+05 0.43037536D+05 0.11530680D+01  1  2  4  2  7  2       -2 -.479851925056D-03 0.100000000000D+01
-.964678035674D-05 0.000000000000D+00 -.235549101858D-05 0.354331327311D-07 0.000000000000D+00  7 2 -2 23 -13 13 23 21 2 0.27924719D-01 0.43144329D-01 0.43037536D+05 0.43037536D+05 0.43037536D+05 0.11530680D+01  1  2  5  2  7  2       -2 -.150740020952D-02 0.100000000000D+01
0.991240618639D-05 0.000000000000D+00 0.232986883016D-05 0.354331327311D-07 0.000000000000D+00  7 2 -2 23 -13 13 23 21 2 0.27924719D-01 0.37202689D-01 0.43037536D+05 0.43037536D+05 0.43037536D+05 0.11530680D+01  1  2  6  2  7  2       -2 0.203488657040D-02 0.100000000000D+01
0.525842413704D-07 0.000000000000D+00 0.000000000000D+00 0.354331327311D-07 0.000000000000D+00  7 2 21 23 -13 13 23 2 2 0.27924719D-01 0.41561737D-01 0.50284410D+05 0.50284410D+05 0.50284410D+05 0.11470788D+01  1  2 12  4  7  2       -2 0.992667953746D-04 0.100000000000D+01
-.201882618720D-06 0.000000000000D+00 -.531991591918D-07 0.354331327311D-07 0.000000000000D+00  7 2 21 23 -13 13 23 2 2 0.27924719D-01 0.43144329D-01 0.43037536D+05 0.43037536D+05 0.43037536D+05 0.11530680D+01  1  2  5  4  7  2       -2 -.357980089478D-03 0.100000000000D+01
  </mgrwgt>
  </event>
  <event>
  8     66 0.55102590E-06 0.71446354E+02 0.75467711E-02 0.10703136E+00
        2 -1    0    0  501    0 0.00000000E+00 0.00000000E+00 0.11971079E+04 0.11971079E+04 0.32000000E+00 0.0000E+00 0.9000E+01
       -2 -1    0    0    0  501 0.00000000E+00 0.00000000E+00 -.66543351E+02 0.66544120E+02 0.32000000E+00 0.0000E+00 0.9000E+01
       25  2    1    2    0    0 0.42868615E+02 0.12851675E+02 0.29704924E+03 0.42433240E+03 0.29969459E+03 0.0000E+00 0.0000E+00
       23  2    1    2    0    0 -.42868615E+02 -.12851675E+02 0.83351531E+03 0.83931966E+03 0.87788620E+02 0.0000E+00 0.0000E+00
       23  1    3    3    0    0 -.38368696E+02 -.37296867E+02 0.73672097E+01 0.10598462E+03 0.91188000E+02 0.0000E+00 0.9000E+01
      -13  1    4    4    0    0 -.34192365E+02 0.34730597E+02 0.34698038E+03 0.35038654E+03 0.10565837E+00 0.0000E+00 0.9000E+01
       13  1    4    4    0    0 -.86762500E+01 -.47582272E+02 0.48653493E+03 0.48893313E+03 0.10565837E+00 0.0000E+00 0.9000E+01
       23  1    3    3    0    0 0.81237311E+02 0.50148542E+02 0.28968203E+03 0.31834777E+03 0.91188000E+02 0.0000E+00 0.9000E+01
#aMCatNLO 1  0  0  1  2 0.41277214D+02 0.00000000D+00  -5  7  0 0.00000000D+00 0.00000000D+00 0.00000000D+00 0.00000000D+00 0.00000000D+00
  <mgrwgt>
 0.2527192193D-03    9    2    0
 0.282241180130450D+03 0.000000000000000D+00 0.000000000000000D+00 0.282241180130450D+03
 0.282241180130450D+03 0.000000000000000D+00 0.000000000000000D+00 -.282241180130450D+03
 0.222502225648724D+03 -.383686961967203D+02 -.372968665196144D+02 -.195777363284465D+03
 0.894322564849299D+02 -.341924007486139D+02 0.347307127440498D+02 0.749852373692501D+02
 0.120078564485208D+03 -.867621453234514D+01 -.475823883557883D+02 0.109906784451989D+03
 0.132469313642038D+03 0.812373114776793D+02 0.501485421313529D+02 0.108853414632262D+02
 0.000000000000000D+00 -.000000000000000D+00 0.000000000000000D+00 0.000000000000000D+00
 0.328797121385906D+03 0.000000000000000D+00 0.000000000000000D+00 0.328797121385906D+03
 0.292294548436394D+03 0.000000000000000D+00 0.000000000000000D+00 -.292294548436394D+03
 0.224357881233770D+03 -.313754818363229D+02 -.520385500626922D+02 -.195777363284465D+03
 0.863048561872296D+02 -.314421724756817D+02 0.289332363932051D+02 0.749852373692501D+02
 0.123270879263967D+03 -.486787541589557D+01 -.556103604993785D+02 0.109906784451989D+03
 0.132055909255373D+03 0.853770446043599D+02 0.414219919984246D+02 0.108853414632262D+02
 0.551021438819606D+02 -.176915148764596D+02 0.372936821704410D+02 0.365025729495118D+02
0.128126646180D-05 0.000000000000D+00 0.000000000000D+00 0.338341364987D-07 0.000000000000D+00  7 2 -2 23 -13 13 23 21 0 0.18417051D+00 0.10237501D-01 0.28031800D+05 0.28031800D+05 0.28031800D+05 0.11700801D+01  1  2  2  1  7  1        2 0.182572494483D-03 0.100000000000D+01
-.475796036074D-07 0.000000000000D+00 -.492040057850D-08 0.338341364987D-07 0.000000000000D+00  7 2 -2 23 -13 13 23 21 2 0.18417051D+00 0.10237501D-01 0.28031800D+05 0.28031800D+05 0.28031800D+05 0.11700801D+01  1  2  3  1  7  1        2 -.928213580247D-05 0.100000000000D+01
0.793946987467D-07 0.000000000000D+00 0.000000000000D+00 0.338341364987D-07 0.000000000000D+00  7 2 -2 23 -13 13 23 21 2 0.18417051D+00 0.10237501D-01 0.28031800D+05 0.28031800D+05 0.28031800D+05 0.11700801D+01  1  2 15  1  7  1        2 0.154888296641D-04 0.100000000000D+01
0.263533632343D-05 0.000000000000D+00 0.000000000000D+00 0.338341364987D-07 0.000000000000D+00  7 2 -2 23 -13 13 23 21 2 0.21745643D+00 0.10237501D-01 0.36293110D+05 0.36293110D+05 0.36293110D+05 0.11597395D+01  1  2 12  1  7  1        2 0.385178596849D-03 0.100000000000D+01
-.275946445146D-05 0.000000000000D+00 0.000000000000D+00 0.338341364987D-07 0.000000000000D+00  7 2 -2 23 -13 13 23 21 2 0.18417051D+00 0.10237501D-01 0.28031800D+05 0.28031800D+05 0.28031800D+05 0.11700801D+01  1  2  4  1  7  1        2 -.538334114590D-03 0.100000000000D+01
-.421567588375D-05 0.000000000000D+00 -.939866342658D-06 0.338341364987D-07 0.000000000000D+00  7 2 -2 23 -13 13 23 21 2 0.21817818D+00 0.10237501D-01 0.28031800D+05 0.28031800D+05 0.28031800D+05 0.11700801D+01  1  2  5  1  7  1        2 -.624644240270D-03 0.100000000000D+01
0.432601419305D-05 0.000000000000D+00 0.926532569444D-06 0.338341364987D-07 0.000000000000D+00  7 2 -2 23 -13 13 23 21 2 0.18417051D+00 0.10237501D-01 0.28031800D+05 0.28031800D+05 0.28031800D+05 0.11700801D+01  1  2  6  1  7  1        2 0.843946737232D-03 0.100000000000D+01
0.652479203457D-07 0.000000000000D+00 0.000000000000D+00 0.338341364987D-07 0.000000000000D+00  7 21 -2 23 -13 13 23 -2 2 0.21745643D+00 0.10237501D-01 0.36293110D+05 0.36293110D+05 0.36293110D+05 0.11597395D+01  1  2 12  3  7  1        2 0.413729838031D-05 0.100000000000D+01
-.979164126802D-07 0.000000000000D+00 -.236372801284D-07 0.338341364987D-07 0.000000000000D+00  7 21 -2 23 -13 13 23 -2 2 0.21817818D+00 0.10237501D-01 0.28031800D+05 0.28031800D+05 0.28031800D+05 0.11700801D+01  1  2  5  3  7  1        2 -.634424669458D-05 0.100000000000D+01
  </mgrwgt>
  </event>
  <event>
  9     66 -.55102590E-06 0.80293844E+03 0.75467711E-02 0.89412795E-01
        2 -1    0    0  501    0 0.00000000E+00 0.00000000E+00 0.17578828E+04 0.17578829E+04 0.32000000E+00 0.0000E+00 0.9000E+01
       -2 -1    0    0    0  502 0.00000000E+00 0.00000000E+00 -.57851759E+03 0.57851768E+03 0.32000000E+00 0.0000E+00 0.9000E+01
       25  2    1    2    0    0 -.62795646E+03 -.45108646E+03 0.12647587E+04 0.15123448E+04 0.29960617E+03 0.0000E+00 0.0000E+00
       23  2    1    2    0    0 0.64254332E+03 0.46684424E+03 -.79975143E+02 0.80189713E+03 0.76403719E+02 0.0000E+00 0.0000E+00
       23  1    3    3    0    0 -.11528395E+03 -.13056171E+03 0.17716775E+03 0.26465149E+03 0.91188000E+02 0.0000E+00 0.9000E+01
      -13  1    4    4    0    0 0.12576142E+03 0.56107725E+02 -.17583177E+02 0.13882792E+03 0.10565837E+00 0.0000E+00 0.9000E+01
       13  1    4    4    0    0 0.51678190E+03 0.41073652E+03 -.62391966E+02 0.66306922E+03 0.10565837E+00 0.0000E+00 0.9000E+01
       23  1    3    3    0    0 -.51267252E+03 -.32052474E+03 0.10875910E+04 0.12476933E+04 0.91188000E+02 0.0000E+00 0.9000E+01
       21  1    1    2  501  502 -.14586852E+02 -.15757789E+02 -.54183216E+01 0.22158630E+02 0.75000000E+00 0.0000E+00 0.9000E+01
#aMCatNLO 2  0  0  2  1 0.21472870D+02 0.00000000D+00  -5  7  0 0.00000000D+00 0.00000000D+00 0.00000000D+00 0.00000000D+00 0.00000000D+00
  <mgrwgt>
 -.1046228830D-02    3    2    0
 0.993924357324239D+03 0.000000000000000D+00 0.000000000000000D+00 0.993924357324239D+03
 0.993924357324239D+03 0.000000000000000D+00 0.000000000000000D+00 -.993924357324239D+03
 0.204392381186420D+03 -.116776792352939D+03 -.132174391360937D+03 0.485191217890325D+02
 0.170733641028045D+03 0.124502882023928D+03 0.547482903479281D+02 -.103206750023475D+03
 0.802080877879340D+03 0.510871454342324D+03 0.404351495238243D+03 -.467807610130970D+03
 0.810641814554673D+03 -.518597544013313D+03 -.326925394225234D+03 0.522495238365412D+03
 0.000000000000000D+00 -.000000000000000D+00 -.000000000000000D+00 -.000000000000000D+00
 0.998733000130017D+03 0.000000000000000D+00 0.000000000000000D+00 0.998733000130017D+03
 0.101824657606989D+04 0.000000000000000D+00 0.000000000000000D+00 -.101824657606989D+04
 0.202499642554687D+03 -.115283947217711D+03 -.130561710411212D+03 0.485191217890325D+02
 0.172091197789676D+03 0.125760671223527D+03 0.561070466134621D+02 -.103206750023475D+03
 0.809081768198458D+03 0.516782644972566D+03 0.410737197475287D+03 -.467807610130970D+03
 0.804292078387748D+03 -.512672517064816D+03 -.320524744981071D+03 0.522495238365412D+03
 0.290148892693400D+02 -.145868519135659D+02 -.157577886964659D+02 -.195135759398756D+02
-.166292874816D-02 0.000000000000D+00 0.000000000000D+00 0.203086675873D-07 0.000000000000D+00  7 2 -2 23 -13 13 23 21 2 0.26914011D+00 0.89209289D-01 0.66208501D+06 0.66208501D+06 0.66208501D+06 0.10599973D+01  1  2 13  2  7  2       -2 -.232902129602D-02 0.100000000000D+01
-.105032150134D-01 0.000000000000D+00 0.000000000000D+00 0.203086675873D-07 0.000000000000D+00  7 2 -2 23 -13 13 23 21 2 0.26914011D+00 0.86876344D-01 0.64471014D+06 0.64471014D+06 0.64471014D+06 0.10607947D+01  1  2  8  2  7  2       -2 -.156966864122D-01 0.100000000000D+01
0.121879245966D-01 0.000000000000D+00 0.000000000000D+00 0.203086675873D-07 0.263981068839D-09  7 2 -2 23 -13 13 23 21 2 0.27044222D+00 0.89002285D-01 0.66208501D+06 0.66208501D+06 0.66208501D+06 0.10599973D+01  1  2  1  2  7  2       -2 0.169794788782D-01 0.100000000000D+01
  </mgrwgt>
  </event>
  <event>
  8     66 0.55102590E-06 0.12319799E+03 0.75467711E-02 0.10289515E+00
        2 -1    0    0  501    0 0.00000000E+00 0.00000000E+00 0.17107634E+03 0.17107664E+03 0.32000000E+00 0.0000E+00 0.9000E+01
       -2 -1    0    0    0  501 0.00000000E+00 0.00000000E+00 -.65912367E+03 0.65912375E+03 0.32000000E+00 0.0000E+00 0.9000E+01
       25  2    1    2    0    0 -.82424182E+02 0.30072054E+02 -.59056876E+03 0.66795661E+03 0.29949374E+03 0.0000E+00 0.0000E+00
       23  2    1    2    0    0 0.82424182E+02 -.30072054E+02 0.10252143E+03 0.16224378E+03 0.90079556E+02 0.0000E+00 0.0000E+00
       23  1    3    3    0    0 -.92759005E+02 0.11381133E+03 -.23797866E+03 0.29411961E+03 0.91188000E+02 0.0000E+00 0.9000E+01
      -13  1    4    4    0    0 0.67740736E+02 -.36313858E+02 0.11746945E+03 0.14038015E+03 0.10565837E+00 0.0000E+00 0.9000E+01
       13  1    4    4    0    0 0.14683446E+02 0.62418033E+01 -.14948023E+02 0.21863628E+02 0.10565837E+00 0.0000E+00 0.9000E+01
       23  1    3    3    0    0 0.10334823E+02 -.83739273E+02 -.35259010E+03 0.37383700E+03 0.91188000E+02 0.0000E+00 0.9000E+01
#aMCatNLO 1  0  0  2  1 0.10065275D+03 0.00000000D+00  -5  7  0 0.00000000D+00 0.00000000D+00 0.00000000D+00 0.00000000D+00 0.00000000D+00
  <mgrwgt>
 0.1667357686D-03    9    2    0
 0.335798488855557D+03 0.000000000000000D+00 0.000000000000000D+00 0.335798488855557D+03
 0.335798488855557D+03 0.000000000000000D+00 0.000000000000000D+00 -.335798488855557D+03
 0.190640178305104D+03 -.927590051755215D+02 0.113811327685920D+03 -.804436131051910D+02
 0.258897138986804D+03 0.677408089456483D+02 -.363139162393753D+02 0.247225020712511D+03
 0.161638997011212D+02 0.146833734150935D+02 0.624186183166107D+01 -.259024314983870D+01
 0.205895760718084D+03 0.103348228147797D+02 -.837392732782054D+02 -.164191164457481D+03
 0.000000000000000D+00 0.000000000000000D+00 0.000000000000000D+00 -.000000000000000D+00
 0.364200452331852D+03 0.000000000000000D+00 0.000000000000000D+00 0.364200452331852D+03
 0.442290001428473D+03 0.000000000000000D+00 0.000000000000000D+00 -.442290001428473D+03
 0.183558344548029D+03 -.105015079334765D+03 0.887641410261384D+02 -.804436131051910D+02
 0.262214909376786D+03 0.506728957392510D+02 -.711948416008757D+02 0.247225020712511D+03
 0.145369349610713D+02 0.136778330845182D+02 0.418688435464727D+01 -.259024314983870D+01
 0.218787356343489D+03 -.357476650481295D+01 -.112165674385283D+03 -.164191164457481D+03
 0.127392908530950D+03 0.442391170158086D+02 0.904094906053728D+02 -.780895490966209D+02
0.850425021395D-05 0.000000000000D+00 0.000000000000D+00 0.295076627162D-06 0.000000000000D+00  7 2 -2 23 -13 13 23 21 0 0.26319467D-01 0.10140367D+00 0.38002965D+05 0.38002965D+05 0.38002965D+05 0.11579258D+01  1  2  2  2  7  2       -2 0.177698204644D-03 0.100000000000D+01
-.302584762593D-06 0.000000000000D+00 -.326585600421D-07 0.295076627162D-06 0.000000000000D+00  7 2 -2 23 -13 13 23 21 2 0.26319467D-01 0.10140367D+00 0.38002965D+05 0.38002965D+05 0.38002965D+05 0.11579258D+01  1  2  3  2  7  2       -2 -.847726095114D-05 0.100000000000D+01
0.530879879666D-06 0.000000000000D+00 0.000000000000D+00 0.295076627162D-06 0.000000000000D+00  7 2 -2 23 -13 13 23 21 2 0.26319467D-01 0.10140367D+00 0.38002965D+05 0.38002965D+05 0.38002965D+05 0.11579258D+01  1  2 15  2  7  2       -2 0.148732118401D-04 0.100000000000D+01
0.521755204796D-05 0.000000000000D+00 0.000000000000D+00 0.295076627162D-06 0.000000000000D+00  7 2 -2 23 -13 13 23 21 2 0.26319467D-01 0.13681950D+00 0.65519681D+05 0.65519681D+05 0.65519681D+05 0.11371098D+01  1  2 12  2  7  2       -2 0.660091657709D-04 0.100000000000D+01
-.896716321934D-05 0.000000000000D+00 0.000000000000D+00 0.295076627162D-06 0.000000000000D+00  7 2 -2 23 -13 13 23 21 2 0.26319467D-01 0.10140367D+00 0.38002965D+05 0.38002965D+05 0.38002965D+05 0.11579258D+01  1  2  4  2  7  2       -2 -.251225415154D-03 0.100000000000D+01
-.999083940211D-05 0.000000000000D+00 -.382138915509D-05 0.295076627162D-06 0.000000000000D+00  7 2 -2 23 -13 13 23 21 2 0.26319467D-01 0.14054516D+00 0.38002965D+05 0.38002965D+05 0.38002965D+05 0.11579258D+01  1  2  5  2  7  2       -2 -.123454247851D-03 0.100000000000D+01
0.108499560699D-04 0.000000000000D+00 0.362646803483D-05 0.295076627162D-06 0.000000000000D+00  7 2 -2 23 -13 13 23 21 2 0.26319467D-01 0.10140367D+00 0.38002965D+05 0.38002965D+05 0.38002965D+05 0.11579258D+01  1  2  6  2  7  2       -2 0.303974027391D-03 0.100000000000D+01
0.201468726584D-06 0.000000000000D+00 0.000000000000D+00 0.295076627162D-06 0.000000000000D+00  7 2 21 23 -13 13 23 2 2 0.26319467D-01 0.13681950D+00 0.65519681D+05 0.65519681D+05 0.65519681D+05 0.11371098D+01  1  2 12  4  7  2       -2 0.233759772112D-04 0.100000000000D+01
-.312963823144D-06 0.000000000000D+00 -.156986353134D-06 0.295076627162D-06 0.000000000000D+00  7 2 21 23 -13 13 23 2 2 0.26319467D-01 0.14054516D+00 0.38002965D+05 0.38002965D+05 0.38002965D+05 0.11579258D+01  1  2  5  4  7  2       -2 -.360378943405D-04 0.100000000000D+01
  </mgrwgt>
  </event>
  <event>
  8     66 0.55102590E-06 0.13098985E+03 0.75467711E-02 0.99835257E-01
        2 -1    0    0  501    0 0.00000000E+00 0.00000000E+00 0.30110736E+04 0.30110736E+04 0.32000000E+00 0.0000E+00 0.9000E+01
       -2 -1    0    0    0  501 0.00000000E+00 0.00000000E+00 -.25388355E+02 0.25390372E+02 0.32000000E+00 0.0000E+00 0.9000E+01
       25  2    1    2    0    0 -.14130837E+03 -.11025628E+03 0.17228274E+04 0.17578994E+04 0.29991933E+03 0.0000E+00 0.0000E+00
       23  2    1    2    0    0 0.14130837E+03 0.11025628E+03 0.12628578E+04 0.12785646E+04 0.88277534E+02 0.0000E+00 0.0000E+00
       23  1    3    3    0    0 -.42396051E+02 0.65554678E+02 0.43859679E+03 0.45472765E+03 0.91188000E+02 0.0000E+00 0.9000E+01
      -11  1    4    4    0    0 0.99204954E+02 0.10153493E+03 0.71088742E+03 0.72492199E+03 0.51099893E-03 0.0000E+00 0.9000E+01
       11  1    4    4    0    0 0.42103421E+02 0.87213468E+01 0.55197041E+03 0.55364257E+03 0.51099893E-03 0.0000E+00 0.9000E+01
       23  1    3    3    0    0 -.98912323E+02 -.17581096E+03 0.12842306E+04 0.13031717E+04 0.91188000E+02 0.0000E+00 0.9000E+01
#aMCatNLO 1  0  0  1  2 0.11278325D+03 0.00000000D+00  -5  7  0 0.00000000D+00 0.00000000D+00 0.00000000D+00 0.00000000D+00 0.00000000D+00
  <mgrwgt>
 0.3621011419D-03    9    2    0
 0.276494651059078D+03 0.000000000000000D+00 0.000000000000000D+00 0.276494651059078D+03
 0.276494651059078D+03 0.000000000000000D+00 0.000000000000000D+00 -.276494651059078D+03
 0.128849096278404D+03 -.423960514889244D+02 0.655546778673817D+02 -.468187707614562D+02
 0.142341688163625D+03 0.992049541553081D+02 0.101534931471293D+03 -.104971877869089D+02
 0.598670032391599D+02 0.421034205291808D+02 0.872134675101783D+01 0.416569102002182D+02
 0.221931514436966D+03 -.989123231955646D+02 -.175810956089693D+03 0.156590483481469D+02
 0.000000000000000D+00 0.000000000000000D+00 0.000000000000000D+00 0.000000000000000D+00
 0.511340589014945D+03 0.000000000000000D+00 0.000000000000000D+00 0.511340589014945D+03
 0.296063856826141D+03 0.000000000000000D+00 0.000000000000000D+00 -.296063856826141D+03
 0.132417672813559D+03 -.653273562395442D+02 0.525312093949550D+02 -.468187707614562D+02
 0.117451654737472D+03 0.764029715727073D+02 0.885849094597767D+02 -.104971877869089D+02
 0.527541375649895D+02 0.322186973012016D+02 0.310747598708877D+01 0.416569102002182D+02
 0.261749842891847D+03 -.141364888616146D+03 -.199921212934700D+03 0.156590483481469D+02
 0.243031137833219D+03 0.980705759817811D+02 0.556976180928796D+02 0.215276732188805D+03
0.559486236307D-05 0.000000000000D+00 0.000000000000D+00 0.513072730945D-07 0.000000000000D+00  7 2 -2 23 -11 11 23 21 0 0.46324224D+00 0.39060572D-02 0.69266801D+05 0.69266801D+05 0.69266801D+05 0.11350486D+01  1  2  2  1  7  1        2 0.331992475765D-03 0.100000000000D+01
-.309906004834D-06 0.000000000000D+00 -.214857446353D-07 0.513072730945D-07 0.000000000000D+00  7 2 -2 23 -11 11 23 21 2 0.46324224D+00 0.39060572D-02 0.69266801D+05 0.69266801D+05 0.69266801D+05 0.11350486D+01  1  2  3  1  7  1        2 -.236917813304D-04 0.100000000000D+01
0.352954031066D-06 0.000000000000D+00 0.000000000000D+00 0.513072730945D-07 0.000000000000D+00  7 2 -2 23 -11 11 23 21 2 0.46324224D+00 0.39060572D-02 0.69266801D+05 0.69266801D+05 0.69266801D+05 0.11350486D+01  1  2 15  1  7  1        2 0.269827289347D-04 0.100000000000D+01
0.436755553778D-05 0.000000000000D+00 0.000000000000D+00 0.513072730945D-07 0.000000000000D+00  7 2 -2 23 -11 11 23 21 2 0.86039994D+00 0.39060572D-02 0.10474244D+06 0.10474244D+06 0.10474244D+06 0.11200745D+01  1  2 12  1  7  1        2 0.707278988639D-06 0.100000000000D+01
-.507478902852D-05 0.000000000000D+00 0.000000000000D+00 0.513072730945D-07 0.000000000000D+00  7 2 -2 23 -11 11 23 21 2 0.46324224D+00 0.39060572D-02 0.69266801D+05 0.69266801D+05 0.69266801D+05 0.11350486D+01  1  2  4  1  7  1        2 -.387958897491D-03 0.100000000000D+01
-.565773524032D-05 0.000000000000D+00 -.107711267941D-05 0.513072730945D-07 0.000000000000D+00  7 2 -2 23 -11 11 23 21 2 0.85989362D+00 0.39060572D-02 0.69266801D+05 0.69266801D+05 0.69266801D+05 0.11350486D+01  1  2  5  1  7  1        2 -.998867110596D-06 0.100000000000D+01
0.542939923685D-05 0.000000000000D+00 0.899478739363D-06 0.513072730945D-07 0.000000000000D+00  7 2 -2 23 -11 11 23 21 2 0.46324224D+00 0.39060572D-02 0.69266801D+05 0.69266801D+05 0.69266801D+05 0.11350486D+01  1  2  6  1  7  1        2 0.415068238331D-03 0.100000000000D+01
0.294786851835D-06 0.000000000000D+00 0.000000000000D+00 0.513072730945D-07 0.000000000000D+00  7 21 -2 23 -11 11 23 -2 2 0.86039994D+00 0.39060572D-02 0.10474244D+06 0.10474244D+06 0.10474244D+06 0.11200745D+01  1  2 12  3  7  1        2 0.166066599077D-09 0.100000000000D+01
-.321748813442D-06 0.000000000000D+00 -.726373020490D-07 0.513072730945D-07 0.000000000000D+00  7 21 -2 23 -11 11 23 -2 2 0.85989362D+00 0.39060572D-02 0.69266801D+05 0.69266801D+05 0.69266801D+05 0.11350486D+01  1  2  5  3  7  1        2 -.200298995874D-09 0.100000000000D+01
  </mgrwgt>
  </event>
  <event>
  9     66 0.55102590E-06 0.16734093E+03 0.75467711E-02 0.10413079E+00
        2 -1    0    0  501    0 0.00000000E+00 0.00000000E+00 0.20022310E+04 0.20022310E+04 0.32000000E+00 0.0000E+00 0.9000E+01
       21 -1    0    0  502  501 0.00000000E+00 0.00000000E+00 -.50333320E+02 0.50338907E+02 0.75000000E+00 0.0000E+00 0.9000E+01
       25  2    1    2    0    0 0.34951211E+02 -.70087302E+02 0.61287681E+03 0.68686006E+03 0.30004157E+03 0.0000E+00 0.0000E+00
       23  2    1    2    0    0 -.81735546E+02 -.29807863E+02 0.10244910E+04 0.10323978E+04 0.93242294E+02 0.0000E+00 0.0000E+00
       23  1    3    3    0    0 0.27174344E+02 -.97901699E+02 0.11101009E+03 0.17595931E+03 0.91188000E+02 0.0000E+00 0.9000E+01
      -13  1    4    4    0    0 -.10146672E+03 -.22002764E+02 0.76035254E+03 0.76740838E+03 0.10565837E+00 0.0000E+00 0.9000E+01
       13  1    4    4    0    0 0.19731177E+02 -.78050991E+01 0.26413850E+03 0.26498943E+03 0.10565837E+00 0.0000E+00 0.9000E+01
       23  1    3    3    0    0 0.77768677E+01 0.27814398E+02 0.50186672E+03 0.51090075E+03 0.91188000E+02 0.0000E+00 0.9000E+01
        2  1    1    2  502    0 0.46784334E+02 0.99895164E+02 0.31452979E+03 0.33331203E+03 0.32000000E+00 0.0000E+00 0.9000E+01
#aMCatNLO 2  0  0  2  1 0.11030783D+03 0.00000000D+00  -5  7  0 0.00000000D+00 0.00000000D+00 0.00000000D+00 0.00000000D+00 0.00000000D+00
  <mgrwgt>
 0.4120134167D-04    2    2    0
 0.256274417408875D+03 0.000000000000000D+00 0.000000000000000D+00 0.256274417408875D+03
 0.256274417408875D+03 0.000000000000000D+00 0.000000000000000D+00 -.256274417408875D+03
 0.218996701128445D+03 0.474487260714890D+02 -.546112976906950D+02 -.185500750186819D+03
 0.131599390294871D+03 -.891259288239222D+02 0.434793875386970D+01 0.967267479337927D+02
 0.453354493729487D+02 0.237644763993099D+02 0.806607305978968D+00 0.385992489041922D+02
 0.116617294021485D+03 0.179127263531232D+02 0.494567516308463D+02 0.501747533488338D+02
 0.000000000000000D+00 0.000000000000000D+00 0.000000000000000D+00 -.000000000000000D+00
 0.312736431808855D+03 0.000000000000000D+00 0.000000000000000D+00 0.312736431808855D+03
 0.322266724537084D+03 0.000000000000000D+00 0.000000000000000D+00 -.322266724537084D+03
 0.230323614527133D+03 0.271743450644950D+02 -.979016992461663D+02 -.185500750186819D+03
 0.141900363186271D+03 -.101466875836979D+03 -.220027819702668D+02 0.967267479337927D+02
 0.440470950103616D+02 0.197313274473029D+02 -.780508040005676D+01 0.385992489041922D+02
 0.108013321384120D+03 0.777686887264421D+01 0.278143971595756D+02 0.501747533488338D+02
 0.110718762238053D+03 0.467843344525372D+02 0.998951644569142D+02 -.953029272822880D+01
-.584316321845D-08 0.000000000000D+00 0.000000000000D+00 0.772016561802D-07 0.000000000000D+00  7 2 21 23 -13 13 23 2 2 0.25242240D+00 0.82704158D-02 0.54645352D+05 0.54645352D+05 0.54645352D+05 0.11439170D+01  1  2 13  4  7  2       -2 -.132293273623D-04 0.100000000000D+01
0.334352930649D-07 0.000000000000D+00 0.000000000000D+00 0.772016561802D-07 0.168622074037D-11  7 2 21 23 -13 13 23 2 2 0.30803574D+00 0.77440138D-02 0.54645352D+05 0.54645352D+05 0.54645352D+05 0.11439170D+01  1  2  1  4  7  2       -2 0.544306690293D-04 0.100000000000D+01
  </mgrwgt>
  </event>
  <event>
  8     66 0.55102590E-06 0.91162517E+02 0.75467711E-02 0.99923486E-01
        2 -1    0    0  501    0 0.00000000E+00 0.00000000E+00 0.30158346E+03 0.30158363E+03 0.32000000E+00 0.0000E+00 0.9000E+01
       -2 -1    0    0    0  501 0.00000000E+00 0.00000000E+00 -.18982739E+04 0.18982740E+04 0.32000000E+00 0.0000E+00 0.9000E+01
       25  2    1    2    0    0 -.12299552E+03 -.13031222E+03 0.19282278E+03 0.39894278E+03 0.29977582E+03 0.0000E+00 0.0000E+00
       23  2    1    2    0    0 0.12299552E+03 0.13031222E+03 -.17895133E+04 0.18009148E+04 0.93953554E+02 0.0000E+00 0.0000E+00
       23  1    3    3    0    0 -.13108746E+02 -.17483196E+03 0.88190859E+02 0.21640456E+03 0.91188000E+02 0.0000E+00 0.9000E+01
      -11  1    4    4    0    0 -.68324894E+01 -.84724323E+01 -.58804572E+02 0.59803367E+02 0.51099893E-03 0.0000E+00 0.9000E+01
       11  1    4    4    0    0 0.12982801E+03 0.13878466E+03 -.17307087E+04 0.17411114E+04 0.51099893E-03 0.0000E+00 0.9000E+01
       23  1    3    3    0    0 -.10988678E+03 0.44519740E+02 0.10463193E+03 0.18253822E+03 0.91188000E+02 0.0000E+00 0.9000E+01
#aMCatNLO 1  0  0  2  1 0.11220758D+03 0.00000000D+00  -5  7  0 0.00000000D+00 0.00000000D+00 0.00000000D+00 0.00000000D+00 0.00000000D+00
  <mgrwgt>
 0.2134303308D-03    9    2    0
 0.756629523192225D+03 0.000000000000000D+00 0.000000000000000D+00 0.756629523192225D+03
 0.756629523192225D+03 0.000000000000000D+00 0.000000000000000D+00 -.756629523192225D+03
 0.407645154153943D+03 -.131087461069786D+02 -.174831963909112D+03 0.356540692673890D+03
 0.248907751806841D+02 -.683248939497500D+01 -.847243228989641D+01 -.223849429049088D+02
 0.704962674150868D+03 0.129828012585904D+03 0.138784656579898D+03 -.678863666866873D+03
 0.375760442898955D+03 -.109886777083950D+03 0.445197396191106D+02 0.344707917097892D+03
 0.000000000000000D+00 0.000000000000000D+00 0.000000000000000D+00 -.000000000000000D+00
 0.788809277243350D+03 0.000000000000000D+00 0.000000000000000D+00 0.788809277243350D+03
 0.863270383197115D+03 0.000000000000000D+00 0.000000000000000D+00 -.863270383197115D+03
 0.419894929181598D+03 -.308553724360698D+02 -.199807859374634D+03 0.356540692673890D+03
 0.257646694599213D+02 -.791879719525382D+01 -.100012586459610D+02 -.223849429049088D+02
 0.692933254502138D+03 0.998500849998825D+02 0.965949146099498D+02 -.678863666866873D+03
 0.378820565126035D+03 -.126068793464924D+03 0.217458139130143D+02 0.344707917097892D+03
 0.134666242170772D+03 0.649928780963653D+02 0.914683894976313D+02 -.744611059537645D+02
0.377120073716D-03 0.000000000000D+00 0.000000000000D+00 0.105170237025D-05 0.000000000000D+00  7 2 -2 23 -11 11 23 21 0 0.46397471D-01 0.29204216D+00 0.75109046D+05 0.75109046D+05 0.75109046D+05 0.11320680D+01  1  2  2  2  7  2       -2 0.171681606074D-03 0.100000000000D+01
0.531950879265D-05 0.000000000000D+00 -.144824038107D-05 0.105170237025D-05 0.000000000000D+00  7 2 -2 23 -11 11 23 21 2 0.46397471D-01 0.29204216D+00 0.75109046D+05 0.75109046D+05 0.75109046D+05 0.11320680D+01  1  2  3  2  7  2       -2 0.310356352455D-05 0.100000000000D+01
0.229057245189D-04 0.000000000000D+00 0.000000000000D+00 0.105170237025D-05 0.000000000000D+00  7 2 -2 23 -11 11 23 21 2 0.46397471D-01 0.29204216D+00 0.75109046D+05 0.75109046D+05 0.75109046D+05 0.11320680D+01  1  2 15  2  7  2       -2 0.133638976626D-04 0.100000000000D+01
0.470975794406D-03 0.000000000000D+00 0.000000000000D+00 0.105170237025D-05 0.000000000000D+00  7 2 -2 23 -11 11 23 21 2 0.46397471D-01 0.33879198D+00 0.10329268D+06 0.10329268D+06 0.10329268D+06 0.11205693D+01  1  2 12  2  7  2       -2 0.132379025812D-03 0.100000000000D+01
-.597222231551D-03 0.000000000000D+00 0.000000000000D+00 0.105170237025D-05 0.000000000000D+00  7 2 -2 23 -11 11 23 21 2 0.46397471D-01 0.29204216D+00 0.75109046D+05 0.75109046D+05 0.75109046D+05 0.11320680D+01  1  2  4  2  7  2       -2 -.348437648314D-03 0.100000000000D+01
-.820160293643D-03 0.000000000000D+00 -.258907865470D-03 0.105170237025D-05 0.000000000000D+00  7 2 -2 23 -11 11 23 21 2 0.46397471D-01 0.33871147D+00 0.75109046D+05 0.75109046D+05 0.75109046D+05 0.11320680D+01  1  2  5  2  7  2       -2 -.240789580600D-03 0.100000000000D+01
0.851983157686D-03 0.000000000000D+00 0.256088524878D-03 0.105170237025D-05 0.000000000000D+00  7 2 -2 23 -11 11 23 21 2 0.46397471D-01 0.29204216D+00 0.75109046D+05 0.75109046D+05 0.75109046D+05 0.11320680D+01  1  2  6  2  7  2       -2 0.497072935640D-03 0.100000000000D+01
0.106555908329D-04 0.000000000000D+00 0.000000000000D+00 0.105170237025D-05 0.000000000000D+00  7 2 21 23 -11 11 23 2 2 0.46397471D-01 0.33879198D+00 0.10329268D+06 0.10329268D+06 0.10329268D+06 0.11205693D+01  1  2 12  4  7  2       -2 0.223918994099D-04 0.100000000000D+01
-.167721669516D-04 0.000000000000D+00 -.585005490125D-05 0.105170237025D-05 0.000000000000D+00  7 2 21 23 -11 11 23 2 2 0.46397471D-01 0.33871147D+00 0.75109046D+05 0.75109046D+05 0.75109046D+05 0.11320680D+01  1  2  5  4  7  2       -2 -.373353683957D-04 0.100000000000D+01
  </mgrwgt>
  </event>
  <event>
  8     66 0.55102590E-06 0.46844733E+03 0.75467711E-02 0.89526000E-01
        2 -1    0    0  501    0 0.00000000E+00 0.00000000E+00 0.35169146E+03 0.35169161E+03 0.32000000E+00 0.0000E+00 0.9000E+01
       -2 -1    0    0    0  501 0.00000000E+00 0.00000000E+00 -.68010812E+03 0.68010820E+03 0.32000000E+00 0.0000E+00 0.9000E+01
       25  2    1    2    0    0 0.24926386E+03 -.35122250E+03 -.26148474E+03 0.58676813E+03 0.30072056E+03 0.0000E+00 0.0000E+00
       23  2    1    2    0    0 -.24926386E+03 0.35122250E+03 -.66931917E+02 0.44503168E+03 0.89908810E+02 0.0000E+00 0.0000E+00
       23  1    3    3    0    0 0.32707041E+02 -.21054725E+03 -.19990209E+03 0.30606534E+03 0.91188000E+02 0.0000E+00 0.9000E+01
      -11  1    4    4    0    0 -.11820052E+03 0.14738283E+03 -.73200982E+02 0.20261156E+03 0.51099893E-03 0.0000E+00 0.9000E+01
       11  1    4    4    0    0 -.13106335E+03 0.20383967E+03 0.62690657E+01 0.24242011E+03 0.51099893E-03 0.0000E+00 0.9000E+01
       23  1    3    3    0    0 0.21655682E+03 -.14067525E+03 -.61582647E+02 0.28070279E+03 0.91188000E+02 0.0000E+00 0.9000E+01
#aMCatNLO 1  0  0  1  2 0.53150003D+03 0.00000000D+00  -5  7  0 0.00000000D+00 0.00000000D+00 0.00000000D+00 0.00000000D+00 0.00000000D+00
  <mgrwgt>
 0.2939178134D-03    3    2    0
 0.489068845246141D+03 0.000000000000000D+00 0.000000000000000D+00 0.489068845246141D+03
 0.489068845246141D+03 0.000000000000000D+00 0.000000000000000D+00 -.489068845246141D+03
 0.255738004970124D+03 0.327070414221263D+02 -.210547247754669D+03 -.108105419597930D+03
 0.189149393557542D+03 -.118200517596943D+03 0.147382834047896D+03 -.918863161798579D+01
 0.257824530000295D+03 -.131063345109089D+03 0.203839665074900D+03 0.880072655003087D+02
 0.275425761964321D+03 0.216556821283906D+03 -.140675251368127D+03 0.292867857156067D+02
 0.000000000000000D+00 0.000000000000000D+00 -.000000000000000D+00 -.000000000000000D+00
 0.614406341495473D+03 0.000000000000000D+00 0.000000000000000D+00 0.614406341495473D+03
 0.177847446159065D+04 0.000000000000000D+00 0.000000000000000D+00 -.177847446159065D+04
 0.272933488147815D+03 -.101649892068335D+03 -.210137943514694D+03 -.108105419597930D+03
 0.279741489443918D+03 -.237364766098718D+03 0.147745855373987D+03 -.918863161798579D+01
 0.364983173312416D+03 -.289344119201565D+03 0.204321850774287D+03 0.880072655003087D+02
 0.195555947400856D+03 0.968612087453950D+02 -.140310611297490D+03 0.292867857156067D+02
 0.127966670478112D+04 0.531497568623223D+03 -.161915133608968D+01 -.116406812009518D+04
0.346292711037D-04 0.000000000000D+00 0.000000000000D+00 0.312536798616D-06 0.000000000000D+00  7 2 -2 23 -11 11 23 21 0 0.54106396D-01 0.10463204D+00 0.21944290D+06 0.21944290D+06 0.21944290D+06 0.10947442D+01  1  2  2  1  7  1        2 0.291378975376D-03 0.100000000000D+01
-.191950733649D-05 0.000000000000D+00 -.132985519135D-06 0.312536798616D-06 0.000000000000D+00  7 2 -2 23 -11 11 23 21 2 0.54106396D-01 0.10463204D+00 0.21944290D+06 0.21944290D+06 0.21944290D+06 0.10947442D+01  1  2  3  1  7  1        2 -.193566398077D-04 0.100000000000D+01
0.217127201534D-05 0.000000000000D+00 0.000000000000D+00 0.312536798616D-06 0.000000000000D+00  7 2 -2 23 -11 11 23 21 2 0.54106396D-01 0.10463204D+00 0.21944290D+06 0.21944290D+06 0.21944290D+06 0.10947442D+01  1  2 15  1  7  1        2 0.218954778273D-04 0.100000000000D+01
  </mgrwgt>
  </event>
  <event>
  8     66 0.55102590E-06 0.20907471E+03 0.75467711E-02 0.99156368E-01
        2 -1    0    0  501    0 0.00000000E+00 0.00000000E+00 0.12423101E+04 0.12423101E+04 0.32000000E+00 0.0000E+00 0.9000E+01
       -2 -1    0    0    0  501 0.00000000E+00 0.00000000E+00 -.61646846E+02 0.61647676E+02 0.32000000E+00 0.0000E+00 0.9000E+01
       25  2    1    2    0    0 -.82390353E+02 0.93840209E+02 0.10546573E+04 0.11044173E+04 0.30305341E+03 0.0000E+00 0.0000E+00
       23  2    1    2    0    0 0.82390353E+02 -.93840209E+02 0.12600596E+03 0.19954054E+03 0.91349702E+02 0.0000E+00 0.0000E+00
       23  1    3    3    0    0 -.18695861E+02 0.14366556E+03 0.35376316E+03 0.39300503E+03 0.91188000E+02 0.0000E+00 0.9000E+01
      -11  1    4    4    0    0 0.48736679E+01 -.84621858E+01 0.71190999E+02 0.71857634E+02 0.51099893E-03 0.0000E+00 0.9000E+01
       11  1    4    4    0    0 0.77516685E+02 -.85378023E+02 0.54814964E+02 0.12768290E+03 0.51099893E-03 0.0000E+00 0.9000E+01
       23  1    3    3    0    0 -.63694492E+02 -.49825355E+02 0.70089412E+03 0.71141224E+03 0.91188000E+02 0.0000E+00 0.9000E+01
#aMCatNLO 1  0  0  2  2 0.23960273D+03 0.00000000D+00  -5  7  0 0.00000000D+00 0.00000000D+00 0.00000000D+00 0.00000000D+00 0.00000000D+00
  <mgrwgt>
 0.2247281146D-03    5    2    0
 0.276740070757365D+03 0.000000000000000D+00 0.000000000000000D+00 0.276740070757365D+03
 0.276740070757365D+03 0.000000000000000D+00 0.000000000000000D+00 -.276740070757365D+03
 0.171256041678799D+03 -.186958614281785D+02 0.143665564267098D+03 -.490416932468877D+01
 0.174292198460825D+02 0.487366790861620D+01 -.846218576290004D+01 0.144366366468708D+02
 0.183882125015814D+03 0.775166853385151D+02 -.853780230113017D+02 -.143228462887594D+03
 0.180912754974034D+03 -.636944918189528D+02 -.498253554928960D+02 0.133695995565412D+03
 0.000000000000000D+00 0.000000000000000D+00 -.000000000000000D+00 -.000000000000000D+00
 0.350615013230152D+03 0.000000000000000D+00 0.000000000000000D+00 0.350615013230152D+03
 0.594125428436689D+03 0.000000000000000D+00 0.000000000000000D+00 -.594125428436689D+03
 0.226839249438070D+03 -.882665838468749D+02 0.187951464588240D+03 -.490416932468877D+01
 0.152453035354610D+02 -.836498091999042D+00 -.482732567335666D+01 0.144366366468708D+02
 0.152217028142363D+03 0.187803440371004D+02 -.479888503008573D+02 -.143228462887594D+03
 0.208815103953374D+03 -.131802930419679D+03 -.647028574462206D+01 0.133695995565412D+03
 0.341623756597573D+03 0.202125668321453D+03 -.128665002869404D+03 -.243510415206537D+03
0.154618570919D-05 0.000000000000D+00 0.000000000000D+00 0.162709231985D-07 0.000000000000D+00  7 2 -2 23 -11 11 23 21 0 0.19112470D+00 0.94841972D-02 0.43712234D+05 0.43712234D+05 0.43712234D+05 0.11524650D+01  1  2  2  2  7  2       -2 0.233603932508D-03 0.100000000000D+01
-.776883858445D-07 0.000000000000D+00 -.593776024335D-08 0.162709231985D-07 0.000000000000D+00  7 2 -2 23 -11 11 23 21 2 0.19112470D+00 0.94841972D-02 0.43712234D+05 0.43712234D+05 0.43712234D+05 0.11524650D+01  1  2  3  2  7  2       -2 -.155894240180D-04 0.100000000000D+01
0.965864427013D-07 0.000000000000D+00 0.000000000000D+00 0.162709231985D-07 0.000000000000D+00  7 2 -2 23 -11 11 23 21 2 0.19112470D+00 0.94841972D-02 0.43712234D+05 0.43712234D+05 0.43712234D+05 0.11524650D+01  1  2 15  2  7  2       -2 0.193816230482D-04 0.100000000000D+01
-.278707435689D-06 0.000000000000D+00 -.494353329326D-06 0.162709231985D-07 0.000000000000D+00  7 2 -2 23 -11 11 23 21 2 0.19112470D+00 0.25853136D-01 0.43712234D+05 0.43712234D+05 0.43712234D+05 0.11524650D+01  1  2  5  2  7  2       -2 -.112809877377D-04 0.100000000000D+01
-.274495523606D-08 0.000000000000D+00 -.553945850061D-07 0.162709231985D-07 0.000000000000D+00  7 2 21 23 -11 11 23 2 2 0.19112470D+00 0.25853136D-01 0.43712234D+05 0.43712234D+05 0.43712234D+05 0.11524650D+01  1  2  5  4  7  2       -2 -.138702919825D-05 0.100000000000D+01
  </mgrwgt>
  </event>
  <event>
  8     66 0.55102590E-06 0.24819978E+03 0.75467711E-02 0.92972877E-01
        2 -1    0    0  501    0 0.00000000E+00 0.00000000E+00 0.49665192E+03 0.49665203E+03 0.32000000E+00 0.0000E+00 0.9000E+01
       -2 -1    0    0    0  501 0.00000000E+00 0.00000000E+00 -.19958340E+04 0.19958340E+04 0.32000000E+00 0.0000E+00 0.9000E+01
       25  2    1    2    0    0 0.33894338E+03 -.31382886E+03 -.18337514E+04 0.19147202E+04 0.30023001E+03 0.0000E+00 0.0000E+00
       23  2    1    2    0    0 -.33894338E+03 0.31382886E+03 0.33456937E+03 0.57776581E+03 0.92225252E+02 0.0000E+00 0.0000E+00
       23  1    3    3    0    0 0.16541369E+03 -.26102457E+03 -.82380489E+03 0.88457067E+03 0.91188000E+02 0.0000E+00 0.9000E+01
      -13  1    4    4    0    0 -.47849939E+02 0.95224653E+02 0.86260287E+02 0.13710653E+03 0.10565837E+00 0.0000E+00 0.9000E+01
       13  1    4    4    0    0 -.29109344E+03 0.21860421E+03 0.24830909E+03 0.44065928E+03 0.10565837E+00 0.0000E+00 0.9000E+01
       23  1    3    3    0    0 0.17352969E+03 -.52804286E+02 -.10099465E+04 0.10301495E+04 0.91188000E+02 0.0000E+00 0.9000E+01
#aMCatNLO 1  0  0  2  1 0.16477286D+03 0.00000000D+00  -5  7  0 0.00000000D+00 0.00000000D+00 0.00000000D+00 0.00000000D+00 0.00000000D+00
  <mgrwgt>
 0.3108672778D-03    9    2    0
 0.995607824987860D+03 0.000000000000000D+00 0.000000000000000D+00 0.995607824987860D+03
 0.995607824987860D+03 0.000000000000000D+00 0.000000000000000D+00 -.995607824987860D+03
 0.487012308033280D+03 0.165413694547367D+03 -.261024572935830D+03 -.365198875698927D+03
 0.236566371189403D+03 -.478496201554743D+02 0.952244910206072D+02 0.211202173612312D+03
 0.738543281127717D+03 -.291093761568600D+03 0.218604367467419D+03 0.642590639987004D+03
 0.529093689625319D+03 0.173529687176708D+03 -.528042855521954D+02 -.488593937900389D+03
 0.000000000000000D+00 -.000000000000000D+00 0.000000000000000D+00 -.000000000000000D+00
 0.101634682535667D+04 0.000000000000000D+00 0.000000000000000D+00 0.101634682535667D+04
 0.139053657024051D+04 0.000000000000000D+00 0.000000000000000D+00 -.139053657024051D+04
 0.511799684839481D+03 0.170501004116350D+03 -.301964989429814D+03 -.365198875698927D+03
 0.229066999461636D+03 -.454779815297327D+02 0.761385927094330D+02 0.211202173612312D+03
 0.720145788365658D+03 -.283664132254618D+03 0.158813998042121D+03 0.642590639987004D+03
 0.537009013776495D+03 0.178959732593900D+03 -.965028885065874D+02 -.488593937900389D+03
 0.408861909153906D+03 -.203186229258996D+02 0.163515287184847D+03 -.374189744883835D+03
0.162579141973D-02 0.000000000000D+00 0.000000000000D+00 0.506855763999D-05 0.000000000000D+00  7 2 -2 23 -13 13 23 21 0 0.76407998D-01 0.30705139D+00 0.24791564D+06 0.24791564D+06 0.24791564D+06 0.10907328D+01  1  2  2  2  7  2       -2 0.317575562718D-03 0.100000000000D+01
-.375921464320D-04 0.000000000000D+00 -.624346713246D-05 0.506855763999D-05 0.000000000000D+00  7 2 -2 23 -13 13 23 21 2 0.76407998D-01 0.30705139D+00 0.24791564D+06 0.24791564D+06 0.24791564D+06 0.10907328D+01  1  2  3  2  7  2       -2 -.873606954918D-05 0.100000000000D+01
0.992339994794D-04 0.000000000000D+00 0.000000000000D+00 0.506855763999D-05 0.000000000000D+00  7 2 -2 23 -13 13 23 21 2 0.76407998D-01 0.30705139D+00 0.24791564D+06 0.24791564D+06 0.24791564D+06 0.10907328D+01  1  2 15  2  7  2       -2 0.230610700206D-04 0.100000000000D+01
0.436901201701D-02 0.000000000000D+00 0.000000000000D+00 0.506855763999D-05 0.000000000000D+00  7 2 -2 23 -13 13 23 21 2 0.76407998D-01 0.43109061D+00 0.33637291D+06 0.33637291D+06 0.33637291D+06 0.10808939D+01  1  2 12  2  7  2       -2 0.130423673522D-03 0.100000000000D+01
-.473338183684D-02 0.000000000000D+00 0.000000000000D+00 0.506855763999D-05 0.000000000000D+00  7 2 -2 23 -13 13 23 21 2 0.76407998D-01 0.30705139D+00 0.24791564D+06 0.24791564D+06 0.24791564D+06 0.10907328D+01  1  2  4  2  7  2       -2 -.109999446305D-02 0.100000000000D+01
-.480275996602D-02 0.000000000000D+00 -.547530306093D-03 0.506855763999D-05 0.000000000000D+00  7 2 -2 23 -13 13 23 21 2 0.76407998D-01 0.43109329D+00 0.24791564D+06 0.24791564D+06 0.24791564D+06 0.10907328D+01  1  2  5  2  7  2       -2 -.150298441606D-03 0.100000000000D+01
0.474295665180D-02 0.000000000000D+00 0.517455847292D-03 0.506855763999D-05 0.000000000000D+00  7 2 -2 23 -13 13 23 21 2 0.76407998D-01 0.30705139D+00 0.24791564D+06 0.24791564D+06 0.24791564D+06 0.10907328D+01  1  2  6  2  7  2       -2 0.110221956210D-02 0.100000000000D+01
0.184558688049D-03 0.000000000000D+00 0.000000000000D+00 0.506855763999D-05 0.000000000000D+00  7 2 21 23 -13 13 23 2 2 0.76407998D-01 0.43109061D+00 0.33637291D+06 0.33637291D+06 0.33637291D+06 0.10808939D+01  1  2 12  4  7  2       -2 0.428692302228D-04 0.100000000000D+01
-.188088808122D-03 0.000000000000D+00 -.231294422532D-04 0.506855763999D-05 0.000000000000D+00  7 2 21 23 -13 13 23 2 2 0.76407998D-01 0.43109329D+00 0.24791564D+06 0.24791564D+06 0.24791564D+06 0.10907328D+01  1  2  5  4  7  2       -2 -.462528465933D-04 0.100000000000D+01
  </mgrwgt>
  </event>
  <event>
  8     66 0.55102590E-06 0.14072174E+03 0.75467711E-02 0.10440305E+00
        2 -1    0    0  501    0 0.00000000E+00 0.00000000E+00 0.44412206E+03 0.44412218E+03 0.32000000E+00 0.0000E+00 0.9000E+01
       -2 -1    0    0    0  501 0.00000000E+00 0.00000000E+00 -.13059144E+03 0.13059183E+03 0.32000000E+00 0.0000E+00 0.9000E+01
       25  2    1    2    0    0 0.72806370E+02 0.60923284E+02 0.31249669E+03 0.44274665E+03 0.29892808E+03 0.0000E+00 0.0000E+00
       23  2    1    2    0    0 -.72806370E+02 -.60923284E+02 0.10339309E+01 0.13196737E+03 0.91661893E+02 0.0000E+00 0.0000E+00
       23  1    3    3    0    0 0.10143292E+01 -.78793526E+02 0.68685450E+02 0.13871695E+03 0.91188000E+02 0.0000E+00 0.9000E+01
      -13  1    4    4    0    0 -.73554680E+02 -.62377598E+02 0.31500209E+02 0.10145704E+03 0.10565837E+00 0.0000E+00 0.9000E+01
       13  1    4    4    0    0 0.74830959E+00 0.14543142E+01 -.30466279E+02 0.30510331E+02 0.10565837E+00 0.0000E+00 0.9000E+01
       23  1    3    3    0    0 0.71792041E+02 0.13971681E+03 0.24381124E+03 0.30402970E+03 0.91188000E+02 0.0000E+00 0.9000E+01
#aMCatNLO 1  0  0  1  2 0.50289746D+02 0.00000000D+00  -5  7  0 0.00000000D+00 0.00000000D+00 0.00000000D+00 0.00000000D+00 0.00000000D+00
  <mgrwgt>
 0.1872470256D-03    9    2    0
 0.240829163035098D+03 0.000000000000000D+00 0.000000000000000D+00 0.240829163035098D+03
 0.240829163035098D+03 0.000000000000000D+00 0.000000000000000D+00 -.240829163035098D+03
 0.120806755591645D+03 0.101433160476936D+01 -.787935243220902D+02 -.834101366017174D+01
 0.100553702413127D+03 -.735547761244594D+02 -.623776808203184D+02 -.284564037388227D+02
 0.562365356637790D+02 0.748399102809479D+00 0.145439109471783D+01 -.562127440069421D+02
 0.204061332401645D+03 0.717920454168806D+02 0.139716814047691D+03 0.930101614059366D+02
 0.000000000000000D+00 0.000000000000000D+00 -.000000000000000D+00 0.000000000000000D+00
 0.279104596097225D+03 0.000000000000000D+00 0.000000000000000D+00 0.279104596097225D+03
 0.259242095420061D+03 0.000000000000000D+00 0.000000000000000D+00 -.259242095420061D+03
 0.115731878425713D+03 -.793042124243278D+01 -.703288863126837D+02 -.834101366017174D+01
 0.102201839103741D+03 -.812220149871643D+02 -.551219854855109D+02 -.284564037388227D+02
 0.565898516000582D+02 -.351815191077116D+01 0.549193248860026D+01 -.562127440069421D+02
 0.209753006377648D+03 0.561435785168074D+02 0.154525340339474D+03 0.930101614059366D+02
 0.540701160101264D+02 0.365270096235609D+02 -.345664010298799D+02 0.198625006771639D+02
0.747985357501D-06 0.000000000000D+00 0.000000000000D+00 0.370538722789D-07 0.000000000000D+00  7 2 -2 23 -13 13 23 21 0 0.68326510D-01 0.20091030D-01 0.40045839D+05 0.40045839D+05 0.40045839D+05 0.11558736D+01  1  2  2  1  7  1        2 0.125095828613D-03 0.100000000000D+01
-.398218414081D-07 0.000000000000D+00 -.287246072187D-08 0.370538722789D-07 0.000000000000D+00  7 2 -2 23 -13 13 23 21 2 0.68326510D-01 0.20091030D-01 0.40045839D+05 0.40045839D+05 0.40045839D+05 0.11558736D+01  1  2  3  1  7  1        2 -.889798687905D-05 0.100000000000D+01
0.489496004576D-07 0.000000000000D+00 0.000000000000D+00 0.370538722789D-07 0.000000000000D+00  7 2 -2 23 -13 13 23 21 2 0.68326510D-01 0.20091030D-01 0.40045839D+05 0.40045839D+05 0.40045839D+05 0.11558736D+01  1  2 15  1  7  1        2 0.109375379743D-04 0.100000000000D+01
0.870700433901D-06 0.000000000000D+00 0.000000000000D+00 0.370538722789D-07 0.000000000000D+00  7 2 -2 23 -13 13 23 21 2 0.81475751D-01 0.20091030D-01 0.52534236D+05 0.52534236D+05 0.52534236D+05 0.11454115D+01  1  2 12  1  7  1        2 0.157821981659D-03 0.100000000000D+01
-.860082626149D-06 0.000000000000D+00 0.000000000000D+00 0.370538722789D-07 0.000000000000D+00  7 2 -2 23 -13 13 23 21 2 0.68326510D-01 0.20091030D-01 0.40045839D+05 0.40045839D+05 0.40045839D+05 0.11558736D+01  1  2  4  1  7  1        2 -.192181065761D-03 0.100000000000D+01
-.188179339842D-05 0.000000000000D+00 -.527051758768D-06 0.370538722789D-07 0.000000000000D+00  7 2 -2 23 -13 13 23 21 2 0.84000038D-01 0.20091030D-01 0.40045839D+05 0.40045839D+05 0.40045839D+05 0.11558736D+01  1  2  5  1  7  1        2 -.335250690956D-03 0.100000000000D+01
0.195974241994D-05 0.000000000000D+00 0.516008639918D-06 0.370538722789D-07 0.000000000000D+00  7 2 -2 23 -13 13 23 21 2 0.68326510D-01 0.20091030D-01 0.40045839D+05 0.40045839D+05 0.40045839D+05 0.11558736D+01  1  2  6  1  7  1        2 0.437894424827D-03 0.100000000000D+01
0.225633984619D-07 0.000000000000D+00 0.000000000000D+00 0.370538722789D-07 0.000000000000D+00  7 21 -2 23 -13 13 23 -2 2 0.81475751D-01 0.20091030D-01 0.52534236D+05 0.52534236D+05 0.52534236D+05 0.11454115D+01  1  2 12  3  7  1        2 0.765599903691D-05 0.100000000000D+01
-.487750662142D-07 0.000000000000D+00 -.154570671982D-07 0.370538722789D-07 0.000000000000D+00  7 21 -2 23 -13 13 23 -2 2 0.84000038D-01 0.20091030D-01 0.40045839D+05 0.40045839D+05 0.40045839D+05 0.11558736D+01  1  2  5  3  7  1        2 -.158290029041D-04 0.100000000000D+01
  </mgrwgt>
  </event>
  <event>
  8     66 0.55102590E-06 0.46767859E+03 0.75467711E-02 0.91451993E-01
        2 -1    0    0  501    0 0.00000000E+00 0.00000000E+00 0.28854024E+03 0.28854042E+03 0.32000000E+00 0.0000E+00 0.9000E+01
       -2 -1    0    0    0  501 0.00000000E+00 0.00000000E+00 -.81927200E+03 0.81927206E+03 0.32000000E+00 0.0000E+00 0.9000E+01
       25  2    1    2    0    0 -.17477049E+03 -.39319357E+03 -.25562927E+03 0.58337184E+03 0.29971732E+03 0.0000E+00 0.0000E+00
       23  2    1    2    0    0 0.17477049E+03 0.39319357E+03 -.27510249E+03 0.52444064E+03 0.11920865E+03 0.0000E+00 0.0000E+00
       23  1    3    3    0    0 0.26523316E+02 -.12201673E+03 -.15600544E+03 0.21964635E+03 0.91188000E+02 0.0000E+00 0.9000E+01
      -11  1    4    4    0    0 0.13217777E+03 0.27094301E+03 -.12534637E+03 0.32648551E+03 0.51099893E-03 0.0000E+00 0.9000E+01
       11  1    4    4    0    0 0.42592719E+02 0.12225056E+03 -.14975612E+03 0.19795513E+03 0.51099893E-03 0.0000E+00 0.9000E+01
       23  1    3    3    0    0 -.20129381E+03 -.27117684E+03 -.99623827E+02 0.36372549E+03 0.91188000E+02 0.0000E+00 0.9000E+01
#aMCatNLO 1  0  0  2  1 0.34192483D+03 0.00000000D+00  -5  7  0 0.00000000D+00 0.00000000D+00 0.00000000D+00 0.00000000D+00 0.00000000D+00
  <mgrwgt>
 0.2757080119D-03    3    2    0
 0.486202709260479D+03 0.000000000000000D+00 0.000000000000000D+00 0.486202709260479D+03
 0.486202709260479D+03 0.000000000000000D+00 0.000000000000000D+00 -.486202709260479D+03
 0.165085385717957D+03 0.265233162180302D+02 -.122016730206033D+03 -.578477698815883D+02
 0.303535358255823D+03 0.132177773760793D+03 0.270943008247745D+03 0.353925997461851D+02
 0.143784510146351D+03 0.425927188372237D+02 0.122250559474262D+03 -.625671348897280D+02
 0.360000164400827D+03 -.201293808816047D+03 -.271176837515973D+03 0.850223050251312D+02
 0.000000000000000D+00 -.000000000000000D+00 0.000000000000000D+00 0.000000000000000D+00
 0.777890521635026D+03 0.000000000000000D+00 0.000000000000000D+00 0.777890521635026D+03
 0.626727321328072D+03 0.000000000000000D+00 0.000000000000000D+00 -.626727321328072D+03
 0.218510192631086D+03 0.488172045031996D+02 -.183580960352358D+03 -.578477698815883D+02
 0.247999864407108D+03 0.164232013521073D+03 0.182425717386460D+03 0.353925997461851D+02
 0.117095623511776D+03 0.577546051671600D+02 0.803812432056611D+02 -.625671348897280D+02
 0.447163394511630D+03 -.154382907789237D+03 -.400720570320413D+03 0.850223050251312D+02
 0.373848767901497D+03 -.116420915402196D+03 0.321494570080650D+03 0.151163200306955D+03
0.416853679978D-04 0.000000000000D+00 0.000000000000D+00 0.324141840825D-08 0.000000000000D+00  7 2 -2 23 -11 11 23 21 0 0.44390825D-01 0.12604186D+00 0.21872327D+06 0.21872327D+06 0.21872327D+06 0.10948529D+01  1  2  2  2  7  2       -2 0.273132762221D-03 0.100000000000D+01
-.231160515552D-05 0.000000000000D+00 -.160082789121D-06 0.324141840825D-08 0.000000000000D+00  7 2 -2 23 -11 11 23 21 2 0.44390825D-01 0.12604186D+00 0.21872327D+06 0.21872327D+06 0.21872327D+06 0.10948529D+01  1  2  3  2  7  2       -2 -.181557975874D-04 0.100000000000D+01
0.263948721801D-05 0.000000000000D+00 0.000000000000D+00 0.324141840825D-08 0.000000000000D+00  7 2 -2 23 -11 11 23 21 2 0.44390825D-01 0.12604186D+00 0.21872327D+06 0.21872327D+06 0.21872327D+06 0.10948529D+01  1  2 15  2  7  2       -2 0.207310472336D-04 0.100000000000D+01
  </mgrwgt>
  </event>
  <event>
  8     66 0.55102590E-06 0.35907978E+03 0.75467711E-02 0.97207630E-01
        2 -1    0    0  501    0 0.00000000E+00 0.00000000E+00 0.18436958E+04 0.18436958E+04 0.32000000E+00 0.0000E+00 0.9000E+01
       -2 -1    0    0    0  501 0.00000000E+00 0.00000000E+00 -.75118094E+02 0.75118775E+02 0.32000000E+00 0.0000E+00 0.9000E+01
       25  2    1    2    0    0 -.41525968E+02 -.29926649E+03 0.98404115E+03 0.10729027E+04 0.30248684E+03 0.0000E+00 0.0000E+00
       23  2    1    2    0    0 0.41525968E+02 0.29926649E+03 0.78453653E+03 0.84591192E+03 0.93726060E+02 0.0000E+00 0.0000E+00
       23  1    3    3    0    0 -.20636000E+02 -.98124528E+00 0.39647398E+03 0.40734957E+03 0.91188000E+02 0.0000E+00 0.9000E+01
      -11  1    4    4    0    0 -.19884076E+02 0.30888736E+02 0.54858712E+02 0.66022487E+02 0.51099893E-03 0.0000E+00 0.9000E+01
       11  1    4    4    0    0 0.61410044E+02 0.26837775E+03 0.72967781E+03 0.77988943E+03 0.51099893E-03 0.0000E+00 0.9000E+01
       23  1    3    3    0    0 -.20889968E+02 -.29828524E+03 0.58756717E+03 0.66555309E+03 0.91188000E+02 0.0000E+00 0.9000E+01
#aMCatNLO 1  0  0  2  1 0.78996368D+02 0.00000000D+00  -5  7  0 0.00000000D+00 0.00000000D+00 0.00000000D+00 0.00000000D+00 0.00000000D+00
  <mgrwgt>
 0.1708585439D-03    4    2    0
 0.372149959386312D+03 0.000000000000000D+00 0.000000000000000D+00 0.372149959386312D+03
 0.372149959386312D+03 0.000000000000000D+00 0.000000000000000D+00 -.372149959386312D+03
 0.108065668868283D+03 -.206360004160829D+02 -.981245278882497D+00 0.541860691366278D+02
 0.398535807379048D+02 -.198840761454537D+02 0.308887362899825D+02 -.154537174777597D+02
 0.276731603226557D+03 0.614100443441647D+02 0.268377749187268D+03 0.279744601228381D+02
 0.319649065939879D+03 -.208899677826282D+02 -.298285240198368D+03 -.667068117817061D+02
 0.000000000000000D+00 0.000000000000000D+00 -.000000000000000D+00 0.000000000000000D+00
 0.437183589043320D+03 0.000000000000000D+00 0.000000000000000D+00 0.437183589043320D+03
 0.399026015070956D+03 0.000000000000000D+00 0.000000000000000D+00 -.399026015070956D+03
 0.109362350302784D+03 -.247699930556441D+02 0.975651963011133D+01 0.541860691366278D+02
 0.438951338255413D+02 -.214764034402427D+02 0.350246982135706D+02 -.154537174777597D+02
 0.302526442284869D+03 0.503965213139668D+02 0.296984626709577D+03 0.279744601228381D+02
 0.292696397471824D+03 -.325325870193928D+02 -.268044328036856D+03 -.667068117817061D+02
 0.877292802292577D+02 0.283824622013127D+02 -.737215165164027D+02 0.381575739723641D+02
0.498859844006D-05 0.000000000000D+00 0.000000000000D+00 0.576251972777D-08 0.000000000000D+00  7 2 -2 23 -11 11 23 21 0 0.28364556D+00 0.11556684D-01 0.12893829D+06 0.12893829D+06 0.12893829D+06 0.11127749D+01  1  2  2  2  7  2       -2 0.260415722629D-03 0.100000000000D+01
-.276713637117D-06 0.000000000000D+00 -.191575315380D-07 0.576251972777D-08 0.000000000000D+00  7 2 -2 23 -11 11 23 21 2 0.28364556D+00 0.11556684D-01 0.12893829D+06 0.12893829D+06 0.12893829D+06 0.11127749D+01  1  2  3  2  7  2       -2 -.178868507360D-04 0.100000000000D+01
0.320798541195D-06 0.000000000000D+00 0.000000000000D+00 0.576251972777D-08 0.000000000000D+00  7 2 -2 23 -11 11 23 21 2 0.28364556D+00 0.11556684D-01 0.12893829D+06 0.12893829D+06 0.12893829D+06 0.11127749D+01  1  2 15  2  7  2       -2 0.207365118773D-04 0.100000000000D+01
-.142955476829D-05 0.000000000000D+00 0.000000000000D+00 0.576251972777D-08 0.000000000000D+00  7 2 -2 23 -11 11 23 21 2 0.28364556D+00 0.11556684D-01 0.12893829D+06 0.12893829D+06 0.12893829D+06 0.11127749D+01  1  2  4  2  7  2       -2 -.924068398861D-04 0.100000000000D+01
  </mgrwgt>
  </event>
  <event>
  8     66 0.55102590E-06 0.24348556E+03 0.75467711E-02 0.98522733E-01
        2 -1    0    0  501    0 0.00000000E+00 0.00000000E+00 0.16577677E+04 0.16577677E+04 0.32000000E+00 0.0000E+00 0.9000E+01
       -2 -1    0    0    0  501 0.00000000E+00 0.00000000E+00 -.60591524E+02 0.60592369E+02 0.32000000E+00 0.0000E+00 0.9000E+01
       25  2    1    2    0    0 -.27418132E+02 0.17030771E+03 0.52726637E+03 0.63088019E+03 0.30040560E+03 0.0000E+00 0.0000E+00
       23  2    1    2    0    0 0.27418132E+02 -.17030771E+03 0.10699098E+04 0.10874799E+04 0.90272275E+02 0.0000E+00 0.0000E+00
       23  1    3    3    0    0 -.99653547E+02 0.13458806E+03 0.17735998E+03 0.26041619E+03 0.91188000E+02 0.0000E+00 0.9000E+01
      -11  1    4    4    0    0 -.25208669E+01 -.66729370E+02 0.19863123E+03 0.20955555E+03 0.51099893E-03 0.0000E+00 0.9000E+01
       11  1    4    4    0    0 0.29938999E+02 -.10357834E+03 0.87127858E+03 0.87792436E+03 0.51099893E-03 0.0000E+00 0.9000E+01
       23  1    3    3    0    0 0.72235416E+02 0.35719651E+02 0.34990639E+03 0.37046401E+03 0.91188000E+02 0.0000E+00 0.9000E+01
#aMCatNLO 1  0  0  2  1 0.20520921D+03 0.00000000D+00  -5  7  0 0.00000000D+00 0.00000000D+00 0.00000000D+00 0.00000000D+00 0.00000000D+00
  <mgrwgt>
 0.3120371431D-03    3    2    0
 0.316934416276639D+03 0.000000000000000D+00 0.000000000000000D+00 0.316934416276639D+03
 0.316934416276639D+03 0.000000000000000D+00 0.000000000000000D+00 -.316934416276639D+03
 0.259065658371695D+03 -.996535473335172D+02 0.134588061878885D+03 -.175371001328873D+03
 0.675894250512642D+02 -.252086686919433D+01 -.667293700545504D+02 0.104482908224809D+02
 0.184588345555020D+03 0.299389985615786D+02 -.103578343249777D+03 0.149826701523796D+03
 0.122625403575299D+03 0.722354156411329D+02 0.357196514254422D+02 0.150960089825964D+02
 0.000000000000000D+00 -.000000000000000D+00 -.000000000000000D+00 0.000000000000000D+00
 0.550253997629077D+03 0.000000000000000D+00 0.000000000000000D+00 0.550253997629077D+03
 0.381616204400997D+03 0.000000000000000D+00 0.000000000000000D+00 -.381616204400997D+03
 0.301394054271063D+03 -.679057118047059D+02 0.217156512228284D+03 -.175371001328873D+03
 0.505864121965017D+02 0.417332891292622D+01 -.493193840552350D+02 0.104482908224809D+02
 0.166200428150912D+03 0.498098011219546D+02 -.518991863157504D+02 0.149826701523796D+03
 0.148077701430675D+03 0.875696804616022D+02 0.756003696660427D+02 0.150960089825964D+02
 0.265611605980924D+03 -.736470986917772D+02 -.191538311523341D+03 0.168637793228080D+03
0.331618615355D-05 0.000000000000D+00 0.000000000000D+00 0.326074458650D-06 0.000000000000D+00  7 2 -2 23 -11 11 23 21 0 0.25504125D+00 0.93218403D-02 0.59285216D+05 0.59285216D+05 0.59285216D+05 0.11408448D+01  1  2  2  2  7  2       -2 0.307184578655D-03 0.100000000000D+01
-.168663539490D-06 0.000000000000D+00 -.127350280015D-07 0.326074458650D-06 0.000000000000D+00  7 2 -2 23 -11 11 23 21 2 0.25504125D+00 0.93218403D-02 0.59285216D+05 0.59285216D+05 0.59285216D+05 0.11408448D+01  1  2  3  2  7  2       -2 -.203345617455D-04 0.100000000000D+01
0.208912781775D-06 0.000000000000D+00 0.000000000000D+00 0.326074458650D-06 0.000000000000D+00  7 2 -2 23 -11 11 23 21 2 0.25504125D+00 0.93218403D-02 0.59285216D+05 0.59285216D+05 0.59285216D+05 0.11408448D+01  1  2 15  2  7  2       -2 0.251871262353D-04 0.100000000000D+01
  </mgrwgt>
  </event>
  <event>
  8     66 0.55102590E-06 0.48479172E+03 0.75467711E-02 0.94673990E-01
        2 -1    0    0  501    0 0.00000000E+00 0.00000000E+00 0.23586995E+04 0.23586996E+04 0.32000000E+00 0.0000E+00 0.9000E+01
       -2 -1    0    0    0  501 0.00000000E+00 0.00000000E+00 -.13559212E+03 0.13559250E+03 0.32000000E+00 0.0000E+00 0.9000E+01
       25  2    1    2    0    0 -.44543890E+03 -.70646239E+02 0.17587816E+04 0.18403133E+04 0.30005570E+03 0.0000E+00 0.0000E+00
       23  2    1    2    0    0 0.44543890E+03 0.70646239E+02 0.46432582E+03 0.65397881E+03 0.93183227E+02 0.0000E+00 0.0000E+00
       23  1    3    3    0    0 -.29562163E+03 0.38547724E+02 0.78062902E+03 0.84058015E+03 0.91188000E+02 0.0000E+00 0.9000E+01
      -13  1    4    4    0    0 0.43861185E+03 0.71287753E+02 0.42784121E+03 0.61685526E+03 0.10565837E+00 0.0000E+00 0.9000E+01
       13  1    4    4    0    0 0.68270476E+01 -.64151458E+00 0.36484607E+02 0.37123548E+02 0.10565837E+00 0.0000E+00 0.9000E+01
       23  1    3    3    0    0 -.14981727E+03 -.10919396E+03 0.97815259E+03 0.99973310E+03 0.91188000E+02 0.0000E+00 0.9000E+01
#aMCatNLO 1  0  0  1  2 0.26015672D+02 0.00000000D+00  -5  7  0 0.00000000D+00 0.00000000D+00 0.00000000D+00 0.00000000D+00 0.00000000D+00
  <mgrwgt>
 0.2673534115D-03    4    2    0
 0.565527690566853D+03 0.000000000000000D+00 0.000000000000000D+00 0.565527690566853D+03
 0.565527690566853D+03 0.000000000000000D+00 0.000000000000000D+00 -.565527690566853D+03
 0.319374487720193D+03 -.295621629371040D+03 0.385477238418249D+02 0.693306375072455D+02
 0.519409538653466D+03 0.438612408742877D+03 0.712878458803964D+02 -.268930226584351D+03
 0.101560280950453D+02 0.682649243657683D+01 -.641607045131283D+00 0.749214575941672D+01
 0.282115326665002D+03 -.149817271808414D+03 -.109193962677090D+03 0.192107443317689D+03
 0.000000000000000D+00 -.000000000000000D+00 -.000000000000000D+00 -.000000000000000D+00
 0.568199417895337D+03 0.000000000000000D+00 0.000000000000000D+00 0.568199417895337D+03
 0.632764425549352D+03 0.000000000000000D+00 0.000000000000000D+00 -.632764425549352D+03
 0.314809368566754D+03 -.290025314627557D+03 0.432234516370872D+02 0.693306375072455D+02
 0.528340281825213D+03 0.447858209798357D+03 0.790127239414311D+02 -.268930226584351D+03
 0.102697479534961D+02 0.700673838657119D+01 -.491011334024507D+00 0.749214575941672D+01
 0.277935139541898D+03 -.144875142408466D+03 -.105064807534408D+03 0.192107443317689D+03
 0.696093055573279D+02 -.199644911489053D+02 -.166803567100860D+02 -.645650076540150D+02
0.307390859533D-04 0.000000000000D+00 0.000000000000D+00 0.100249423322D-05 0.000000000000D+00  7 2 -2 23 -13 13 23 21 0 0.36287688D+00 0.20860357D-01 0.23502301D+06 0.23502301D+06 0.23502301D+06 0.10924832D+01  1  2  2  1  7  1        2 0.315526151203D-03 0.100000000000D+01
-.165845882659D-05 0.000000000000D+00 -.118046183848D-06 0.100249423322D-05 0.000000000000D+00  7 2 -2 23 -13 13 23 21 2 0.36287688D+00 0.20860357D-01 0.23502301D+06 0.23502301D+06 0.23502301D+06 0.10924832D+01  1  2  3  1  7  1        2 -.203178934004D-04 0.100000000000D+01
0.192328902949D-05 0.000000000000D+00 0.000000000000D+00 0.100249423322D-05 0.000000000000D+00  7 2 -2 23 -13 13 23 21 2 0.36287688D+00 0.20860357D-01 0.23502301D+06 0.23502301D+06 0.23502301D+06 0.10924832D+01  1  2 15  1  7  1        2 0.235623464706D-04 0.100000000000D+01
-.419695563726D-05 0.000000000000D+00 0.000000000000D+00 0.100249423322D-05 0.000000000000D+00  7 2 -2 23 -13 13 23 21 2 0.36287688D+00 0.20860357D-01 0.23502301D+06 0.23502301D+06 0.23502301D+06 0.10924832D+01  1  2  4  1  7  1        2 -.514171928037D-04 0.100000000000D+01
  </mgrwgt>
  </event>
  <event>
  7     66 0.55102590E-06 0.19482884E+03 0.75467711E-02 0.97462585E-01
        2 -1    0    0  501    0 0.00000000E+00 0.00000000E+00 0.21696717E+04 0.21696717E+04 0.32000000E+00 0.0000E+00 0.9000E+01
       -2 -1    0    0    0  501 0.00000000E+00 0.00000000E+00 -.12048367E+03 0.12048410E+03 0.32000000E+00 0.0000E+00 0.9000E+01
       23  2    1    2    0    0 -.45505061E+02 0.25970305E+03 0.11749266E+03 0.30189985E+03 0.88445515E+02 0.0000E+00 0.0000E+00
       23  1    1    2    0    0 -.99695836E+02 -.16632814E+03 0.50960412E+03 0.55282540E+03 0.91188000E+02 0.0000E+00 0.9000E+01
      -11  1    3    3    0    0 -.70195041E+02 0.18386924E+03 0.68974766E+02 0.20854918E+03 0.51099893E-03 0.0000E+00 0.9000E+01
       11  1    3    3    0    0 0.24689980E+02 0.75833813E+02 0.48517893E+02 0.93350674E+02 0.51099893E-03 0.0000E+00 0.9000E+01
       23  1    1    2    0    0 0.14520090E+03 -.93374917E+02 0.14220913E+04 0.14354306E+04 0.91188000E+02 0.0000E+00 0.9000E+01
#aMCatNLO 1  0  0  2  1 0.91051323D+02 0.00000000D+00  -5  7  0 0.00000000D+00 0.00000000D+00 0.00000000D+00 0.00000000D+00 0.00000000D+00
  <mgrwgt>
 0.8256589138D-03    6    2    0
 0.511283224923004D+03 0.000000000000000D+00 0.000000000000000D+00 0.511283224923004D+03
 0.511283224923004D+03 0.000000000000000D+00 0.000000000000000D+00 -.511283224923004D+03
 0.216887266582152D+03 -.996958360176945D+02 -.166328136128428D+03 0.334742658508484D+02
 0.328846944603065D+03 -.701950410507126D+02 0.183869240009128D+03 -.263448423349099D+03
 0.111841439798757D+03 0.246899803371245D+02 0.758338129443625D+02 -.784101099446416D+02
 0.364990798862033D+03 0.145200896731283D+03 -.933749168250618D+02 0.308384267442892D+03
 0.000000000000000D+00 0.000000000000000D+00 -.000000000000000D+00 0.000000000000000D+00
 0.562175024297076D+03 0.000000000000000D+00 0.000000000000000D+00 0.562175024297076D+03
 0.555717165871636D+03 0.000000000000000D+00 0.000000000000000D+00 -.555717165871636D+03
 0.206661620875855D+03 -.105862505885544D+03 -.148547559967895D+03 0.334742658508484D+02
 0.347664248635016D+03 -.800447214869946D+02 0.212269170102240D+03 -.263448423349099D+03
 0.117943159333424D+03 0.213444261271520D+02 0.854801670875839D+02 -.784101099446416D+02
 0.354343112040695D+03 0.134727737942202D+03 -.631772896646594D+02 0.308384267442892D+03
 0.912800492837223D+02 0.298350633031845D+02 -.860244875572690D+02 0.645785842543926D+01
0.412591711650D-04 0.000000000000D+00 0.000000000000D+00 0.422629253346D-10 0.000000000000D+00  7 2 -2 23 -11 11 23 21 0 0.33379568D+00 0.18535984D-01 0.11767985D+06 0.11767985D+06 0.11767985D+06 0.11159659D+01  1  2  2  2  7  2       -2 0.675486076932D-03 0.100000000000D+01
-.184835237031D-05 0.000000000000D+00 -.158446081063D-06 0.422629253346D-10 0.000000000000D+00  7 2 -2 23 -11 11 23 21 2 0.33379568D+00 0.18535984D-01 0.11767985D+06 0.11767985D+06 0.11767985D+06 0.11159659D+01  1  2  3  2  7  2       -2 -.376862138878D-04 0.100000000000D+01
0.245347318658D-05 0.000000000000D+00 0.000000000000D+00 0.422629253346D-10 0.000000000000D+00  7 2 -2 23 -11 11 23 21 2 0.33379568D+00 0.18535984D-01 0.11767985D+06 0.11767985D+06 0.11767985D+06 0.11159659D+01  1  2 15  2  7  2       -2 0.500240737440D-04 0.100000000000D+01
0.337508554977D-04 0.000000000000D+00 0.000000000000D+00 0.422629253346D-10 0.000000000000D+00  7 2 -2 23 -11 11 23 21 2 0.33379568D+00 0.20988088D-01 0.15384875D+06 0.15384875D+06 0.15384875D+06 0.11066847D+01  1  2 12  2  7  2       -2 0.545084899849D-03 0.100000000000D+01
-.265454342707D-04 0.000000000000D+00 0.000000000000D+00 0.422629253346D-10 0.000000000000D+00  7 2 -2 23 -11 11 23 21 2 0.33379568D+00 0.18535984D-01 0.11767985D+06 0.11767985D+06 0.11767985D+06 0.11159659D+01  1  2  4  2  7  2       -2 -.541237120009D-03 0.100000000000D+01
0.659304481830D-06 0.000000000000D+00 0.000000000000D+00 0.422629253346D-10 0.000000000000D+00  7 2 21 23 -11 11 23 2 2 0.33379568D+00 0.20988088D-01 0.15384875D+06 0.15384875D+06 0.15384875D+06 0.11066847D+01  1  2 12  4  7  2       -2 0.133987197151D-03 0.100000000000D+01
  </mgrwgt>
  </event>
  <event>
  8     66 0.55102590E-06 0.62010876E+03 0.75467711E-02 0.89058001E-01
        2 -1    0    0  501    0 0.00000000E+00 0.00000000E+00 0.16787787E+04 0.16787787E+04 0.32000000E+00 0.0000E+00 0.9000E+01
       -2 -1    0    0    0  501 0.00000000E+00 0.00000000E+00 -.30020502E+03 0.30020519E+03 0.32000000E+00 0.0000E+00 0.9000E+01
       25  2    1    2    0    0 0.47319652E+02 -.58661645E+03 0.25645680E+03 0.70892665E+03 0.30074723E+03 0.0000E+00 0.0000E+00
       23  2    1    2    0    0 -.47319652E+02 0.58661645E+03 0.11221169E+04 0.12700572E+04 0.86839873E+02 0.0000E+00 0.0000E+00
       23  1    3    3    0    0 0.24054921E+02 -.62329153E+02 -.97139183E+01 0.11346001E+03 0.91188000E+02 0.0000E+00 0.9000E+01
      -11  1    4    4    0    0 -.23306486E+01 0.46221686E+03 0.89107811E+03 0.10038277E+04 0.51099893E-03 0.0000E+00 0.9000E+01
       11  1    4    4    0    0 -.44989003E+02 0.12439959E+03 0.23103874E+03 0.26622954E+03 0.51099893E-03 0.0000E+00 0.9000E+01
       23  1    3    3    0    0 0.23264731E+02 -.52428729E+03 0.26617072E+03 0.59546664E+03 0.91188000E+02 0.0000E+00 0.9000E+01
#aMCatNLO 1  0  0  1  2 0.39455247D+03 0.00000000D+00  -5  7  0 0.00000000D+00 0.00000000D+00 0.00000000D+00 0.00000000D+00 0.00000000D+00
  <mgrwgt>
 0.2829521873D-03    3    2    0
 0.709914066970097D+03 0.000000000000000D+00 0.000000000000000D+00 0.709914066970097D+03
 0.709914066970097D+03 0.000000000000000D+00 0.000000000000000D+00 -.709914066970097D+03
 0.167574427368837D+03 0.240549211137517D+02 -.623291533224592D+02 -.123702767876512D+03
 0.533967477078056D+03 -.233064864747506D+01 0.462216858100549D+03 0.267341374915376D+03
 0.146750191934914D+03 -.449890030920793D+02 0.124399589215522D+03 0.635322802732935D+02
 0.571536037558387D+03 0.232647306258027D+02 -.524287293993612D+03 -.207170887312158D+03
 0.000000000000000D+00 -.000000000000000D+00 0.000000000000000D+00 -.000000000000000D+00
 0.771802356335539D+03 0.000000000000000D+00 0.000000000000000D+00 0.771802356335539D+03
 0.184914720903961D+04 0.000000000000000D+00 0.000000000000000D+00 -.184914720903961D+04
 0.191781535080497D+03 0.535325359615383D+02 -.101473142589792D+03 -.123702767876512D+03
 0.451206670421146D+03 0.784822141196831D+02 0.354903635875664D+03 0.267341374915376D+03
 0.117175608791643D+03 -.233394302028914D+02 0.956506333317881D+02 0.635322802732935D+02
 0.713465576475753D+03 0.128672144486713D+03 -.664260175048424D+03 -.207170887312158D+03
 0.114732017460611D+04 -.237347464365043D+03 0.315179048430765D+03 -.107734485270407D+04
0.490440567396D-04 0.000000000000D+00 0.000000000000D+00 0.505077023180D-07 0.000000000000D+00  7 2 -2 23 -11 11 23 21 0 0.25827366D+00 0.46185403D-01 0.38453487D+06 0.38453487D+06 0.38453487D+06 0.10766643D+01  1  2  2  1  7  1        2 0.279849811383D-03 0.100000000000D+01
-.266407104135D-05 0.000000000000D+00 -.188342091477D-06 0.505077023180D-07 0.000000000000D+00  7 2 -2 23 -11 11 23 21 2 0.25827366D+00 0.46185403D-01 0.38453487D+06 0.38453487D+06 0.38453487D+06 0.10766643D+01  1  2  3  1  7  1        2 -.176215878256D-04 0.100000000000D+01
0.313309516180D-05 0.000000000000D+00 0.000000000000D+00 0.505077023180D-07 0.000000000000D+00  7 2 -2 23 -11 11 23 21 2 0.25827366D+00 0.46185403D-01 0.38453487D+06 0.38453487D+06 0.38453487D+06 0.10766643D+01  1  2 15  1  7  1        2 0.207239637017D-04 0.100000000000D+01
  </mgrwgt>
  </event>
  <event>
  8     66 0.55102590E-06 0.38969691E+03 0.75467711E-02 0.96937909E-01
        2 -1    0    0  501    0 0.00000000E+00 0.00000000E+00 0.22337960E+04 0.22337961E+04 0.32000000E+00 0.0000E+00 0.9000E+01
       -2 -1    0    0    0  501 0.00000000E+00 0.00000000E+00 -.10102985E+03 0.10103036E+03 0.32000000E+00 0.0000E+00 0.9000E+01
       25  2    1    2    0    0 -.85403957E+02 -.32493486E+03 0.17928616E+04 0.18483479E+04 0.29859790E+03 0.0000E+00 0.0000E+00
       23  2    1    2    0    0 0.85403957E+02 0.32493486E+03 0.33990464E+03 0.48647858E+03 0.90828101E+02 0.0000E+00 0.0000E+00
       23  1    3    3    0    0 0.35874447E+02 -.34779181E+02 0.24361798E+03 0.26488024E+03 0.91188000E+02 0.0000E+00 0.9000E+01
      -13  1    4    4    0    0 0.10368150E+03 0.29716606E+03 0.30488006E+03 0.43818876E+03 0.10565837E+00 0.0000E+00 0.9000E+01
       13  1    4    4    0    0 -.18277545E+02 0.27768799E+02 0.35024573E+02 0.48289820E+02 0.10565837E+00 0.0000E+00 0.9000E+01
       23  1    3    3    0    0 -.12127840E+03 -.29015568E+03 0.15492436E+04 0.15834676E+04 0.91188000E+02 0.0000E+00 0.9000E+01
#aMCatNLO 1  0  0  2  2 0.39296229D+02 0.00000000D+00  -5  7  0 0.00000000D+00 0.00000000D+00 0.00000000D+00 0.00000000D+00 0.00000000D+00
  <mgrwgt>
 0.3657467384D-03    4    2    0
 0.475058625833631D+03 0.000000000000000D+00 0.000000000000000D+00 0.475058625833631D+03
 0.475058625833631D+03 0.000000000000000D+00 0.000000000000000D+00 -.475058625833631D+03
 0.104059977811879D+03 0.358744470605223D+02 -.347791814452383D+02 0.408169380402386D+01
 0.392432876258203D+03 0.103681666684467D+03 0.297166424723778D+03 -.234405184197586D+03
 0.400462885019531D+02 -.182777096519836D+02 0.277684345463141D+02 -.223281122244250D+02
 0.413578109095227D+03 -.121278404093006D+03 -.290155677824853D+03 0.252651602617987D+03
 0.000000000000000D+00 0.000000000000000D+00 0.000000000000000D+00 0.000000000000000D+00
 0.546751111006081D+03 0.000000000000000D+00 0.000000000000000D+00 0.546751111006081D+03
 0.480880229666437D+03 0.000000000000000D+00 0.000000000000000D+00 -.480880229666437D+03
 0.104287182188701D+03 0.330902723964541D+02 -.380649270756961D+02 0.408169380402386D+01
 0.380619215589817D+03 0.933512544622791D+02 0.284974981687555D+03 -.234405184197586D+03
 0.396930094037444D+02 -.193432779705486D+02 0.265109033677336D+02 -.223281122244250D+02
 0.426330130428303D+03 -.132502225145412D+03 -.303401477901957D+03 0.252651602617987D+03
 0.767018030619520D+02 0.254039762572271D+02 0.299805199223643D+02 0.658708813396438D+02
0.209401631376D-04 0.000000000000D+00 0.000000000000D+00 0.224498839835D-06 0.000000000000D+00  7 2 -2 23 -13 13 23 21 0 0.34366097D+00 0.15543095D-01 0.15186368D+06 0.15186368D+06 0.15186368D+06 0.11071290D+01  1  2  2  2  7  2       -2 0.416880277902D-03 0.100000000000D+01
-.110785149284D-05 0.000000000000D+00 -.804157401199D-07 0.224498839835D-06 0.000000000000D+00  7 2 -2 23 -13 13 23 21 2 0.34366097D+00 0.15543095D-01 0.15186368D+06 0.15186368D+06 0.15186368D+06 0.11071290D+01  1  2  3  2  7  2       -2 -.270339343811D-04 0.100000000000D+01
0.130025557511D-05 0.000000000000D+00 0.000000000000D+00 0.224498839835D-06 0.000000000000D+00  7 2 -2 23 -13 13 23 21 2 0.34366097D+00 0.15543095D-01 0.15186368D+06 0.15186368D+06 0.15186368D+06 0.11071290D+01  1  2 15  2  7  2       -2 0.317290035023D-04 0.100000000000D+01
-.228785816125D-05 0.000000000000D+00 0.000000000000D+00 0.224498839835D-06 0.000000000000D+00  7 2 -2 23 -13 13 23 21 2 0.34366097D+00 0.15543095D-01 0.15186368D+06 0.15186368D+06 0.15186368D+06 0.11071290D+01  1  2  4  2  7  2       -2 -.558286086215D-04 0.100000000000D+01
  </mgrwgt>
  </event>
  <event>
  8     66 0.55102590E-06 0.19598121E+03 0.75467711E-02 0.93266535E-01
        2 -1    0    0  501    0 0.00000000E+00 0.00000000E+00 0.17116595E+04 0.17116595E+04 0.32000000E+00 0.0000E+00 0.9000E+01
       -2 -1    0    0    0  501 0.00000000E+00 0.00000000E+00 -.12109783E+03 0.12109825E+03 0.32000000E+00 0.0000E+00 0.9000E+01
       25  2    1    2    0    0 -.44040559E+02 -.71627185E+02 0.87043871E+02 0.32417571E+03 0.30073781E+03 0.0000E+00 0.0000E+00
       23  2    1    2    0    0 0.44040559E+02 0.71627185E+02 0.15035178E+04 0.15085821E+04 0.90465830E+02 0.0000E+00 0.0000E+00
       23  1    3    3    0    0 0.86123819E+02 -.44995441E+01 0.85102675E+02 0.15164193E+03 0.91188000E+02 0.0000E+00 0.9000E+01
      -11  1    4    4    0    0 0.21344689E+02 0.67586171E+02 0.52156985E+03 0.52636356E+03 0.51099893E-03 0.0000E+00 0.9000E+01
       11  1    4    4    0    0 0.22695870E+02 0.40410144E+01 0.98194797E+03 0.98221853E+03 0.51099893E-03 0.0000E+00 0.9000E+01
       23  1    3    3    0    0 -.13016438E+03 -.67127641E+02 0.19411963E+01 0.17253378E+03 0.91188000E+02 0.0000E+00 0.9000E+01
#aMCatNLO 1  0  0  1  2 0.49242798D+03 0.00000000D+00  -5  7  0 0.00000000D+00 0.00000000D+00 0.00000000D+00 0.00000000D+00 0.00000000D+00
  <mgrwgt>
 0.2472515765D-03    5    2    0
 0.455278667335546D+03 0.000000000000000D+00 0.000000000000000D+00 0.455278667335546D+03
 0.455278667335546D+03 0.000000000000000D+00 0.000000000000000D+00 -.455278667335546D+03
 0.156565510759308D+03 0.861238188146115D+02 -.449954413839548D+01 -.935946032133136D+02
 0.148379336858297D+03 0.213446887804549D+02 0.675861705962134D+02 0.130356976842489D+03
 0.261729652298743D+03 0.226958703468884D+02 0.404101437050738D+01 0.260712444207168D+03
 0.343882834754743D+03 -.130164377941955D+03 -.671276408283253D+02 -.297474817836343D+03
 0.000000000000000D+00 -.000000000000000D+00 0.000000000000000D+00 0.000000000000000D+00
 0.866958411467335D+03 0.000000000000000D+00 0.000000000000000D+00 0.866958411467335D+03
 0.691107760465183D+03 0.000000000000000D+00 0.000000000000000D+00 -.691107760465183D+03
 0.217867661463098D+03 0.164464531582540D+03 -.578146578998537D+02 -.935946032133136D+02
 0.157666068005713D+03 0.853769832860140D+02 0.240087132901487D+02 0.130356976842489D+03
 0.306468833479539D+03 0.141577095814509D+03 -.768641221283594D+02 0.260712444207168D+03
 0.353178568153701D+03 0.156781680662912D+02 -.166381421614368D+03 -.297474817836343D+03
 0.522885040830468D+03 -.407096778749355D+03 0.277051488352433D+03 0.175850651002152D+03
0.766794730470D-05 0.000000000000D+00 0.000000000000D+00 0.454818160001D-06 0.000000000000D+00  7 2 -2 23 -11 11 23 21 0 0.26333227D+00 0.18630470D-01 0.38408636D+05 0.38408636D+05 0.38408636D+05 0.11575088D+01  1  2  2  1  7  1        2 0.226628726095D-03 0.100000000000D+01
-.580114707365D-07 0.000000000000D+00 -.294469366669D-07 0.454818160001D-06 0.000000000000D+00  7 2 -2 23 -11 11 23 21 2 0.26333227D+00 0.18630470D-01 0.38408636D+05 0.38408636D+05 0.38408636D+05 0.11575088D+01  1  2  3  1  7  1        2 -.229719723349D-05 0.100000000000D+01
0.471841889037D-06 0.000000000000D+00 0.000000000000D+00 0.454818160001D-06 0.000000000000D+00  7 2 -2 23 -11 11 23 21 2 0.26333227D+00 0.18630470D-01 0.38408636D+05 0.38408636D+05 0.38408636D+05 0.11575088D+01  1  2 15  1  7  1        2 0.186844751284D-04 0.100000000000D+01
0.159410271583D-05 0.000000000000D+00 -.190645696236D-05 0.454818160001D-06 0.000000000000D+00  7 2 -2 23 -11 11 23 21 2 0.56800667D+00 0.18630470D-01 0.38408636D+05 0.38408636D+05 0.38408636D+05 0.11575088D+01  1  2  5  1  7  1        2 0.421554650325D-05 0.100000000000D+01
0.252071414494D-06 0.000000000000D+00 -.158654885042D-06 0.454818160001D-06 0.000000000000D+00  7 21 -2 23 -11 11 23 -2 2 0.56800667D+00 0.18630470D-01 0.38408636D+05 0.38408636D+05 0.38408636D+05 0.11575088D+01  1  2  5  3  7  1        2 0.200260383830D-07 0.100000000000D+01
  </mgrwgt>
  </event>
  <event>
  8     66 0.55102590E-06 0.19050169E+03 0.75467711E-02 0.95531474E-01
        2 -1    0    0  501    0 0.00000000E+00 0.00000000E+00 0.20680854E+04 0.20680854E+04 0.32000000E+00 0.0000E+00 0.9000E+01
       -2 -1    0    0    0  501 0.00000000E+00 0.00000000E+00 -.98096512E+02 0.98097034E+02 0.32000000E+00 0.0000E+00 0.9000E+01
       25  2    1    2    0    0 0.27801378E+03 0.20105947E+03 0.15567391E+04 0.16220978E+04 0.30008013E+03 0.0000E+00 0.0000E+00
       23  2    1    2    0    0 -.27801378E+03 -.20105947E+03 0.41324979E+03 0.54408466E+03 0.86811018E+02 0.0000E+00 0.0000E+00
       23  1    3    3    0    0 0.24637345E+03 0.49223642E+02 0.77070108E+03 0.81573173E+03 0.91188000E+02 0.0000E+00 0.9000E+01
      -13  1    4    4    0    0 -.14970694E+03 -.10743507E+03 0.15447168E+03 0.24044953E+03 0.10565837E+00 0.0000E+00 0.9000E+01
       13  1    4    4    0    0 -.12830684E+03 -.93624399E+02 0.25877810E+03 0.30363513E+03 0.10565837E+00 0.0000E+00 0.9000E+01
       23  1    3    3    0    0 0.31640328E+02 0.15183583E+03 0.78603797E+03 0.80636603E+03 0.91188000E+02 0.0000E+00 0.9000E+01
#aMCatNLO 1  0  0  2  1 0.12312895D+03 0.00000000D+00  -5  7  0 0.00000000D+00 0.00000000D+00 0.00000000D+00 0.00000000D+00 0.00000000D+00
  <mgrwgt>
 0.2868995308D-03    6    2    0
 0.450413757083477D+03 0.000000000000000D+00 0.000000000000000D+00 0.450413757083477D+03
 0.450413757083477D+03 0.000000000000000D+00 0.000000000000000D+00 -.450413757083477D+03
 0.276136317463928D+03 0.246373449718561D+03 0.492236424414636D+02 0.693770190849240D+02
 0.240390243582775D+03 -.149706973101625D+03 -.107435093146212D+03 -.154379377428464D+03
 0.164225661473790D+03 -.128306804911383D+03 -.936243784953800D+02 -.417361647889471D+02
 0.220075291646461D+03 0.316403282944463D+02 0.151835829200128D+03 0.126738523132487D+03
 0.000000000000000D+00 0.000000000000000D+00 -.000000000000000D+00 0.000000000000000D+00
 0.516846237287234D+03 0.000000000000000D+00 0.000000000000000D+00 0.516846237287234D+03
 0.515493608536697D+03 0.000000000000000D+00 0.000000000000000D+00 -.515493608536697D+03
 0.274570263199435D+03 0.234665256751447D+03 0.848093425636272D+02 0.693770190849240D+02
 0.235071548880344D+03 -.159815438498829D+03 -.767115801898967D+02 -.154379377428464D+03
 0.159077751015250D+03 -.135180335886424D+03 -.727330750512689D+02 -.417361647889471D+02
 0.240483905871730D+03 0.218486966948620D+02 0.181596362425725D+03 0.126738523132487D+03
 0.123136376857172D+03 0.384818209389437D+02 -.116961049748186D+03 0.135262875053631D+01
0.103783279358D-04 0.000000000000D+00 0.000000000000D+00 0.113655726914D-06 0.000000000000D+00  7 2 -2 23 -13 13 23 21 0 0.31816702D+00 0.15091813D-01 0.15614281D+06 0.15614281D+06 0.15614281D+06 0.11061790D+01  1  2  2  2  7  2       -2 0.266903441884D-03 0.100000000000D+01
-.564561129435D-06 0.000000000000D+00 -.398555119499D-07 0.113655726914D-06 0.000000000000D+00  7 2 -2 23 -13 13 23 21 2 0.31816702D+00 0.15091813D-01 0.15614281D+06 0.15614281D+06 0.15614281D+06 0.11061790D+01  1  2  3  2  7  2       -2 -.177659554074D-04 0.100000000000D+01
0.673476489130D-06 0.000000000000D+00 0.000000000000D+00 0.113655726914D-06 0.000000000000D+00  7 2 -2 23 -13 13 23 21 2 0.31816702D+00 0.15091813D-01 0.15614281D+06 0.15614281D+06 0.15614281D+06 0.11061790D+01  1  2 15  2  7  2       -2 0.211933706555D-04 0.100000000000D+01
0.581724754475D-05 0.000000000000D+00 0.000000000000D+00 0.113655726914D-06 0.000000000000D+00  7 2 -2 23 -13 13 23 21 2 0.31816702D+00 0.18233447D-01 0.21341832D+06 0.21341832D+06 0.21341832D+06 0.10956660D+01  1  2 12  2  7  2       -2 0.130611938110D-03 0.100000000000D+01
-.508402553108D-05 0.000000000000D+00 0.000000000000D+00 0.113655726914D-06 0.000000000000D+00  7 2 -2 23 -13 13 23 21 2 0.31816702D+00 0.15091813D-01 0.15614281D+06 0.15614281D+06 0.15614281D+06 0.11061790D+01  1  2  4  2  7  2       -2 -.159987229311D-03 0.100000000000D+01
0.159434414500D-06 0.000000000000D+00 0.000000000000D+00 0.113655726914D-06 0.000000000000D+00  7 2 21 23 -13 13 23 2 2 0.31816702D+00 0.18233447D-01 0.21341832D+06 0.21341832D+06 0.21341832D+06 0.10956660D+01  1  2 12  4  7  2       -2 0.459439649137D-04 0.100000000000D+01
  </mgrwgt>
  </event>
  <event>
  8     66 0.55102590E-06 0.12161991E+03 0.75467711E-02 0.10061451E+00
        4 -1    0    0  501    0 0.00000000E+00 0.00000000E+00 0.23199695E+03 0.23200213E+03 0.15500000E+01 0.0000E+00 0.9000E+01
       -4 -1    0    0    0  501 0.00000000E+00 0.00000000E+00 -.38619729E+03 0.38620041E+03 0.15500000E+01 0.0000E+00 0.9000E+01
       25  2    1    2    0    0 0.14086510E+03 -.47872420E+02 -.25149844E+03 0.41864234E+03 0.29979193E+03 0.0000E+00 0.0000E+00
       23  2    1    2    0    0 -.14086510E+03 0.47872420E+02 0.97298095E+02 0.19956020E+03 0.90678597E+02 0.0000E+00 0.0000E+00
       23  1    3    3    0    0 -.32574694E+02 0.36830251E+01 -.15902387E+01 0.96914682E+02 0.91188000E+02 0.0000E+00 0.9000E+01
      -13  1    4    4    0    0 -.12085293E+03 0.18469473E+02 0.10724460E+03 0.16262831E+03 0.10565837E+00 0.0000E+00 0.9000E+01
       13  1    4    4    0    0 -.20012172E+02 0.29402947E+02 -.99465032E+01 0.36931889E+02 0.10565837E+00 0.0000E+00 0.9000E+01
       23  1    3    3    0    0 0.17343979E+03 -.51555445E+02 -.24990820E+03 0.32172766E+03 0.91188000E+02 0.0000E+00 0.9000E+01
#aMCatNLO 1  0  0  1  2 0.13540361D+03 0.00000000D+00  -5  7  0 0.00000000D+00 0.00000000D+00 0.00000000D+00 0.00000000D+00 0.00000000D+00
  <mgrwgt>
 0.1808370789D-04    9    2    0
 0.299331182230703D+03 0.000000000000000D+00 0.000000000000000D+00 0.299331182230703D+03
 0.299331182230703D+03 0.000000000000000D+00 0.000000000000000D+00 -.299331182230703D+03
 0.996683438067727D+02 -.325746933280424D+02 0.368302499812336D+01 0.233206366686728D+02
 0.195560172629212D+03 -.120853062649922D+03 0.184694583815422D+02 0.152634194969520D+03
 0.355751489819085D+02 -.200120353545638D+02 0.294029613171045D+02 -.758638146636471D+00
 0.267858699043514D+03 0.173439791332528D+03 -.515554446967700D+02 -.175196193491557D+03
 0.000000000000000D+00 0.000000000000000D+00 -.000000000000000D+00 0.000000000000000D+00
 0.406848167734250D+03 0.000000000000000D+00 0.000000000000000D+00 0.406848167734250D+03
 0.352747424907712D+03 0.000000000000000D+00 0.000000000000000D+00 -.352747424907712D+03
 0.109153249539175D+03 -.534540121560548D+02 0.140711417713506D+02 0.233206366686728D+02
 0.226833156130910D+03 -.163086649898715D+03 0.394819942648552D+02 0.152634194969520D+03
 0.434884729679911D+02 -.279173220825249D+02 0.333360897075636D+02 -.758638146636471D+00
 0.234309093808397D+03 0.123229842810853D+03 -.265744186050031D+02 -.175196193491557D+03
 0.145811620195489D+03 0.121228141326442D+03 -.603148071387663D+02 0.541007428265383D+02
0.349996208868D-05 0.000000000000D+00 0.000000000000D+00 0.402241735464D-06 0.000000000000D+00  7 4 -4 23 -13 13 23 21 0 0.35692476D-01 0.59415606D-01 0.52290930D+05 0.52290930D+05 0.52290930D+05 0.11455879D+01  1  2  2  1  7  1        4 0.169339905932D-04 0.100000000000D+01
-.177301943885D-06 0.000000000000D+00 -.134407759817D-07 0.402241735464D-06 0.000000000000D+00  7 4 -4 23 -13 13 23 21 2 0.35692476D-01 0.59415606D-01 0.52290930D+05 0.52290930D+05 0.52290930D+05 0.11455879D+01  1  2  3  1  7  1        4 -.112581319949D-05 0.100000000000D+01
0.223528091119D-06 0.000000000000D+00 0.000000000000D+00 0.402241735464D-06 0.000000000000D+00  7 4 -4 23 -13 13 23 21 2 0.35692476D-01 0.59415606D-01 0.52290930D+05 0.52290930D+05 0.52290930D+05 0.11455879D+01  1  2 15  1  7  1        4 0.141933511796D-05 0.100000000000D+01
0.885663303793D-06 0.000000000000D+00 0.000000000000D+00 0.402241735464D-06 0.000000000000D+00  7 4 -4 23 -13 13 23 21 2 0.50780226D-01 0.59415606D-01 0.92690493D+05 0.92690493D+05 0.92690493D+05 0.11244373D+01  1  2 12  1  7  1        4 0.259058995183D-05 0.100000000000D+01
-.204869985298D-05 0.000000000000D+00 0.000000000000D+00 0.402241735464D-06 0.000000000000D+00  7 4 -4 23 -13 13 23 21 2 0.35692476D-01 0.59415606D-01 0.52290930D+05 0.52290930D+05 0.52290930D+05 0.11455879D+01  1  2  4  1  7  1        4 -.130086184378D-04 0.100000000000D+01
-.240071146159D-05 0.000000000000D+00 -.141701800271D-05 0.402241735464D-06 0.000000000000D+00  7 4 -4 23 -13 13 23 21 2 0.56044630D-01 0.59415606D-01 0.52290930D+05 0.52290930D+05 0.52290930D+05 0.11455879D+01  1  2  5  1  7  1        4 -.574208244398D-05 0.100000000000D+01
0.287533352904D-05 0.000000000000D+00 0.128407361385D-05 0.402241735464D-06 0.000000000000D+00  7 4 -4 23 -13 13 23 21 2 0.35692476D-01 0.59415606D-01 0.52290930D+05 0.52290930D+05 0.52290930D+05 0.11455879D+01  1  2  6  1  7  1        4 0.182574898447D-04 0.100000000000D+01
0.384618237003D-07 0.000000000000D+00 0.000000000000D+00 0.402241735464D-06 0.000000000000D+00  7 21 -4 23 -13 13 23 -4 2 0.50780226D-01 0.59415606D-01 0.92690493D+05 0.92690493D+05 0.92690493D+05 0.11244373D+01  1  2 12  3  7  1        4 0.240811992457D-05 0.100000000000D+01
-.684299571414D-07 0.000000000000D+00 -.737855417591D-07 0.402241735464D-06 0.000000000000D+00  7 21 -4 23 -13 13 23 -4 2 0.56044630D-01 0.59415606D-01 0.52290930D+05 0.52290930D+05 0.52290930D+05 0.11455879D+01  1  2  5  3  7  1        4 -.364930346574D-05 0.100000000000D+01
  </mgrwgt>
  </event>
  <event>
  8     66 0.55102590E-06 0.34599021E+03 0.75467711E-02 0.97773569E-01
        2 -1    0    0  501    0 0.00000000E+00 0.00000000E+00 0.77272791E+03 0.77272797E+03 0.32000000E+00 0.0000E+00 0.9000E+01
       -2 -1    0    0    0  501 0.00000000E+00 0.00000000E+00 -.19309426E+03 0.19309453E+03 0.32000000E+00 0.0000E+00 0.9000E+01
       25  2    1    2    0    0 -.25893261E+03 0.97559418E+02 0.12705611E+03 0.42759673E+03 0.30021954E+03 0.0000E+00 0.0000E+00
       23  2    1    2    0    0 0.25893261E+03 -.97559418E+02 0.45257754E+03 0.53822577E+03 0.91085745E+02 0.0000E+00 0.0000E+00
       23  1    3    3    0    0 -.20793505E+03 -.38316981E+02 0.34591781E+02 0.23284548E+03 0.91188000E+02 0.0000E+00 0.9000E+01
      -11  1    4    4    0    0 -.72254289E+01 -.16949586E+01 0.58156663E+01 0.94287689E+01 0.51099893E-03 0.0000E+00 0.9000E+01
       11  1    4    4    0    0 0.26615804E+03 -.95864459E+02 0.44676187E+03 0.52879700E+03 0.51099893E-03 0.0000E+00 0.9000E+01
       23  1    3    3    0    0 -.50997562E+02 0.13587640E+03 0.92464325E+02 0.19475125E+03 0.91188000E+02 0.0000E+00 0.9000E+01
#aMCatNLO 1  0  0  2  2 0.68066401D+02 0.00000000D+00  -5  7  0 0.00000000D+00 0.00000000D+00 0.00000000D+00 0.00000000D+00 0.00000000D+00
  <mgrwgt>
 0.3839276148D-03    4    2    0
 0.386276438446223D+03 0.000000000000000D+00 0.000000000000000D+00 0.386276438446223D+03
 0.386276438446223D+03 0.000000000000000D+00 0.000000000000000D+00 -.386276438446223D+03
 0.265142819256805D+03 -.207935051282043D+03 -.383169805751809D+02 -.131454504325193D+03
 0.742416663817490D+01 -.722542892030001D+01 -.169495856856582D+01 0.196322795228411D+00
 0.325888154701568D+03 0.266158042445460D+03 -.958644592245995D+02 0.161780688816585D+03
 0.174097736295898D+03 -.509975622431172D+02 0.135876398368346D+03 -.305225072866201D+02
 0.000000000000000D+00 0.000000000000000D+00 0.000000000000000D+00 0.000000000000000D+00
 0.500243961734080D+03 0.000000000000000D+00 0.000000000000000D+00 0.500243961734080D+03
 0.398071074851827D+03 0.000000000000000D+00 0.000000000000000D+00 -.398071074851827D+03
 0.276064179722978D+03 -.216710538086215D+03 -.604353866300311D+02 -.131454504325193D+03
 0.782650577661559D+01 -.747271336928726D+01 -.231823314874626D+01 0.196322795228411D+00
 0.326353424550477D+03 0.255582167812188D+03 -.122520700039941D+03 0.161780688816585D+03
 0.165301493100941D+03 -.565008049294330D+02 0.122005605890323D+03 -.305225072866201D+02
 0.122769433434896D+03 0.251018885727474D+02 0.632687139283959D+02 0.102172886882252D+03
0.948872772412D-05 0.000000000000D+00 0.000000000000D+00 0.118306688708D-05 0.000000000000D+00  7 2 -2 23 -11 11 23 21 0 0.11888124D+00 0.29706835D-01 0.11970922D+06 0.11970922D+06 0.11970922D+06 0.11153666D+01  1  2  2  2  7  2       -2 0.432542610678D-03 0.100000000000D+01
-.519376023934D-06 0.000000000000D+00 -.364392129000D-07 0.118306688708D-05 0.000000000000D+00  7 2 -2 23 -11 11 23 21 2 0.11888124D+00 0.29706835D-01 0.11970922D+06 0.11970922D+06 0.11970922D+06 0.11153666D+01  1  2  3  2  7  2       -2 -.294535794699D-04 0.100000000000D+01
0.601207145648D-06 0.000000000000D+00 0.000000000000D+00 0.118306688708D-05 0.000000000000D+00  7 2 -2 23 -11 11 23 21 2 0.11888124D+00 0.29706835D-01 0.11970922D+06 0.11970922D+06 0.11970922D+06 0.11153666D+01  1  2 15  2  7  2       -2 0.340941853806D-04 0.100000000000D+01
-.939094100182D-06 0.000000000000D+00 0.000000000000D+00 0.118306688708D-05 0.000000000000D+00  7 2 -2 23 -11 11 23 21 2 0.11888124D+00 0.29706835D-01 0.11970922D+06 0.11970922D+06 0.11970922D+06 0.11153666D+01  1  2  4  2  7  2       -2 -.532556017892D-04 0.100000000000D+01
  </mgrwgt>
  </event>
  <event>
  8     66 0.55102590E-06 0.42641641E+03 0.75467711E-02 0.92408079E-01
        2 -1    0    0  501    0 0.00000000E+00 0.00000000E+00 0.17784983E+04 0.17784984E+04 0.32000000E+00 0.0000E+00 0.9000E+01
       -2 -1    0    0    0  501 0.00000000E+00 0.00000000E+00 -.40421140E+03 0.40421153E+03 0.32000000E+00 0.0000E+00 0.9000E+01
       25  2    1    2    0    0 0.29561500E+03 0.24603082E+03 0.16371517E+04 0.17081247E+04 0.29917388E+03 0.0000E+00 0.0000E+00
       23  2    1    2    0    0 -.29561500E+03 -.24603082E+03 -.26286478E+03 0.47458515E+03 0.90629888E+02 0.0000E+00 0.0000E+00
       23  1    3    3    0    0 0.37954128E+02 0.12580040E+03 0.32241906E+03 0.35991049E+03 0.91188000E+02 0.0000E+00 0.9000E+01
      -11  1    4    4    0    0 -.85824163E+02 -.12642394E+03 -.86902665E+02 0.17578644E+03 0.51099893E-03 0.0000E+00 0.9000E+01
       11  1    4    4    0    0 -.20979084E+03 -.11960688E+03 -.17596211E+03 0.29879871E+03 0.51099893E-03 0.0000E+00 0.9000E+01
       23  1    3    3    0    0 0.25766088E+03 0.12023042E+03 0.13147326E+04 0.13482142E+04 0.91188000E+02 0.0000E+00 0.9000E+01
#aMCatNLO 1  0  0  2  2 0.32463987D+03 0.00000000D+00  -5  7  0 0.00000000D+00 0.00000000D+00 0.00000000D+00 0.00000000D+00 0.00000000D+00
  <mgrwgt>
 0.3040593997D-03    4    2    0
 0.847873496505823D+03 0.000000000000000D+00 0.000000000000000D+00 0.847873496505823D+03
 0.847873496505823D+03 0.000000000000000D+00 0.000000000000000D+00 -.847873496505823D+03
 0.201966376552413D+03 0.379541276056560D+02 0.125800399590710D+03 0.123324407860821D+03
 0.296695202419028D+03 -.858241633028943D+02 -.126423940122693D+03 -.254321142447261D+03
 0.527209143052750D+03 -.209790839465968D+03 -.119606881315951D+03 -.468648565704038D+03
 0.669876270987455D+03 0.257660875163206D+03 0.120230421847934D+03 0.599645300290477D+03
 0.000000000000000D+00 0.000000000000000D+00 -.000000000000000D+00 0.000000000000000D+00
 0.140113549773564D+04 0.000000000000000D+00 0.000000000000000D+00 0.140113549773564D+04
 0.912257129429567D+03 0.000000000000000D+00 0.000000000000000D+00 -.912257129429567D+03
 0.209907500388802D+03 0.300961545535154D+01 0.143275748178342D+03 0.123324407860821D+03
 0.305953198223389D+03 -.136954510570867D+03 -.100854241565413D+03 -.254321142447261D+03
 0.562463454873536D+03 -.302241658684890D+03 -.733732900122957D+02 -.468648565704038D+03
 0.648218319013106D+03 0.145830106099649D+03 0.176155703156851D+03 0.599645300290477D+03
 0.586850154666375D+03 0.290356447700757D+03 -.145203919757484D+03 0.488878368306073D+03
0.108303926316D-03 0.000000000000D+00 0.000000000000D+00 0.114326179565D-05 0.000000000000D+00  7 2 -2 23 -11 11 23 21 0 0.27361514D+00 0.62186381D-01 0.18183095D+06 0.18183095D+06 0.18183095D+06 0.11010163D+01  1  2  2  2  7  2       -2 0.310826414376D-03 0.100000000000D+01
-.256095462605D-05 0.000000000000D+00 -.415915594134D-06 0.114326179565D-05 0.000000000000D+00  7 2 -2 23 -11 11 23 21 2 0.27361514D+00 0.62186381D-01 0.18183095D+06 0.18183095D+06 0.18183095D+06 0.11010163D+01  1  2  3  2  7  2       -2 -.890970043580D-05 0.100000000000D+01
0.653399072765D-05 0.000000000000D+00 0.000000000000D+00 0.114326179565D-05 0.000000000000D+00  7 2 -2 23 -11 11 23 21 2 0.27361514D+00 0.62186381D-01 0.18183095D+06 0.18183095D+06 0.18183095D+06 0.11010163D+01  1  2 15  2  7  2       -2 0.227321091290D-04 0.100000000000D+01
-.591810906336D-05 0.000000000000D+00 0.000000000000D+00 0.114326179565D-05 0.000000000000D+00  7 2 -2 23 -11 11 23 21 2 0.27361514D+00 0.62186381D-01 0.18183095D+06 0.18183095D+06 0.18183095D+06 0.11010163D+01  1  2  4  2  7  2       -2 -.205894233208D-04 0.100000000000D+01
  </mgrwgt>
  </event>
  <event>
  8     66 0.55102590E-06 0.14360229E+03 0.75467711E-02 0.10704587E+00
        2 -1    0    0  501    0 0.00000000E+00 0.00000000E+00 0.16413987E+04 0.16413987E+04 0.32000000E+00 0.0000E+00 0.9000E+01
       -2 -1    0    0    0  501 0.00000000E+00 0.00000000E+00 -.26591608E+02 0.26593533E+02 0.32000000E+00 0.0000E+00 0.9000E+01
       25  2    1    2    0    0 -.29925343E+02 -.23736669E+02 0.97270583E+03 0.10182779E+04 0.29878797E+03 0.0000E+00 0.0000E+00
       23  2    1    2    0    0 0.29925343E+02 0.23736669E+02 0.64210122E+03 0.64971434E+03 0.91519373E+02 0.0000E+00 0.0000E+00
       23  1    3    3    0    0 -.12449846E+03 -.28628473E+02 0.67207006E+03 0.69015424E+03 0.91188000E+02 0.0000E+00 0.9000E+01
      -13  1    4    4    0    0 0.51861724E+02 0.43269375E+01 0.56237347E+03 0.56477632E+03 0.10565837E+00 0.0000E+00 0.9000E+01
       13  1    4    4    0    0 -.21936381E+02 0.19409731E+02 0.79727748E+02 0.84938021E+02 0.10565837E+00 0.0000E+00 0.9000E+01
       23  1    3    3    0    0 0.94573121E+02 0.48918044E+01 0.30063577E+03 0.32812364E+03 0.91188000E+02 0.0000E+00 0.9000E+01
#aMCatNLO 1  0  0  1  2 0.10516501D+02 0.00000000D+00  -5  7  0 0.00000000D+00 0.00000000D+00 0.00000000D+00 0.00000000D+00 0.00000000D+00
  <mgrwgt>
 0.1126484989D-02    9    2    0
 0.208923576216051D+03 0.000000000000000D+00 0.000000000000000D+00 0.208923576216051D+03
 0.208923576216051D+03 0.000000000000000D+00 0.000000000000000D+00 -.208923576216051D+03
 0.157733333994034D+03 -.124498445842237D+03 -.286284844427602D+02 0.156556753368180D+02
 0.811730257917845D+02 0.518618511065818D+02 0.432694293761487D+01 0.622951529479387D+02
 0.309467136587137D+02 -.219364655667391D+02 0.194097595195932D+02 -.998758229529294D+01
 0.147994078987569D+03 0.945730603023941D+02 0.489178198555217D+01 -.679632459894638D+02
 0.000000000000000D+00 -.000000000000000D+00 0.000000000000000D+00 0.000000000000000D+00
 0.216018441255036D+03 0.000000000000000D+00 0.000000000000000D+00 0.216018441255036D+03
 0.212923490946352D+03 0.000000000000000D+00 0.000000000000000D+00 -.212923490946352D+03
 0.157474533596584D+03 -.123242604193371D+03 -.323903956265723D+02 0.156556753368180D+02
 0.815087513599267D+02 0.525100029208756D+02 0.238538481107633D+01 0.622951529479387D+02
 0.303183160663297D+02 -.216923752889939D+02 0.186785797991728D+02 -.998758229529294D+01
 0.148677871674772D+03 0.957550517118717D+02 0.135109140047609D+01 -.679632459894638D+02
 0.109624595037749D+02 -.333007515038191D+01 0.997533961584714D+01 0.309495030868403D+01
0.117482503996D-05 0.000000000000D+00 0.000000000000D+00 0.200530916355D-07 0.000000000000D+00  7 2 -2 23 -13 13 23 21 0 0.25252302D+00 0.40911671D-02 0.34179320D+05 0.34179320D+05 0.34179320D+05 0.11621168D+01  1  2  2  1  7  1        2 0.379199908669D-03 0.100000000000D+01
-.640814791410D-07 0.000000000000D+00 -.451163749198D-08 0.200530916355D-07 0.000000000000D+00  7 2 -2 23 -13 13 23 21 2 0.25252302D+00 0.40911671D-02 0.34179320D+05 0.34179320D+05 0.34179320D+05 0.11621168D+01  1  2  3  1  7  1        2 -.279336116145D-04 0.100000000000D+01
0.740185369616D-07 0.000000000000D+00 0.000000000000D+00 0.200530916355D-07 0.000000000000D+00  7 2 -2 23 -13 13 23 21 2 0.25252302D+00 0.40911671D-02 0.34179320D+05 0.34179320D+05 0.34179320D+05 0.11621168D+01  1  2 15  1  7  1        2 0.322652518555D-04 0.100000000000D+01
0.248303885000D-05 0.000000000000D+00 0.000000000000D+00 0.200530916355D-07 0.000000000000D+00  7 2 -2 23 -13 13 23 21 2 0.26345118D+00 0.40911671D-02 0.36220958D+05 0.36220958D+05 0.36220958D+05 0.11598181D+01  1  2 12  1  7  1        2 0.989938254969D-03 0.100000000000D+01
-.225632078901D-05 0.000000000000D+00 0.000000000000D+00 0.200530916355D-07 0.000000000000D+00  7 2 -2 23 -13 13 23 21 2 0.25252302D+00 0.40911671D-02 0.34179320D+05 0.34179320D+05 0.34179320D+05 0.11621168D+01  1  2  4  1  7  1        2 -.983547655935D-03 0.100000000000D+01
-.192429235520D-04 0.000000000000D+00 -.286373830563D-05 0.200530916355D-07 0.000000000000D+00  7 2 -2 23 -13 13 23 21 2 0.26370587D+00 0.40911671D-02 0.34179320D+05 0.34179320D+05 0.34179320D+05 0.11621168D+01  1  2  5  1  7  1        2 -.768556824749D-02 0.100000000000D+01
0.193515307325D-04 0.000000000000D+00 0.286105184836D-05 0.200530916355D-07 0.000000000000D+00  7 2 -2 23 -13 13 23 21 2 0.25252302D+00 0.40911671D-02 0.34179320D+05 0.34179320D+05 0.34179320D+05 0.11621168D+01  1  2  6  1  7  1        2 0.843548168480D-02 0.100000000000D+01
0.356164236057D-07 0.000000000000D+00 0.000000000000D+00 0.200530916355D-07 0.000000000000D+00  7 21 -2 23 -13 13 23 -2 2 0.26345118D+00 0.40911671D-02 0.36220958D+05 0.36220958D+05 0.36220958D+05 0.11598181D+01  1  2 12  3  7  1        2 0.433792538556D-05 0.100000000000D+01
-.144757080421D-06 0.000000000000D+00 -.218268838473D-07 0.200530916355D-07 0.000000000000D+00  7 21 -2 23 -13 13 23 -2 2 0.26370587D+00 0.40911671D-02 0.34179320D+05 0.34179320D+05 0.34179320D+05 0.11621168D+01  1  2  5  3  7  1        2 -.176885214896D-04 0.100000000000D+01
  </mgrwgt>
  </event>
  <event>
  8     66 0.55102590E-06 0.26221744E+03 0.75467711E-02 0.97955942E-01
        2 -1    0    0  501    0 0.00000000E+00 0.00000000E+00 0.10772934E+04 0.10772935E+04 0.32000000E+00 0.0000E+00 0.9000E+01
       -2 -1    0    0    0  501 0.00000000E+00 0.00000000E+00 -.77867621E+02 0.77868278E+02 0.32000000E+00 0.0000E+00 0.9000E+01
       25  2    1    2    0    0 0.10978953E+02 0.19889577E+03 0.61733928E+03 0.71487869E+03 0.30043915E+03 0.0000E+00 0.0000E+00
       23  2    1    2    0    0 -.10978953E+02 -.19889577E+03 0.38208653E+03 0.44028307E+03 0.90437846E+02 0.0000E+00 0.0000E+00
       23  1    3    3    0    0 -.27038091E+02 0.20489692E+03 0.55158700E+03 0.59605140E+03 0.91188000E+02 0.0000E+00 0.9000E+01
      -13  1    4    4    0    0 -.13239474E+02 -.18585321E+03 0.27376397E+03 0.33115468E+03 0.10565837E+00 0.0000E+00 0.9000E+01
       13  1    4    4    0    0 0.22605207E+01 -.13042559E+02 0.10832256E+03 0.10912839E+03 0.10565837E+00 0.0000E+00 0.9000E+01
       23  1    3    3    0    0 0.38017044E+02 -.60011551E+01 0.65752286E+02 0.11882729E+03 0.91188000E+02 0.0000E+00 0.9000E+01
#aMCatNLO 1  0  0  2  2 0.19346891D+03 0.00000000D+00  -5  7  0 0.00000000D+00 0.00000000D+00 0.00000000D+00 0.00000000D+00 0.00000000D+00
  <mgrwgt>
 0.4422081395D-03    3    2    0
 0.289631979423838D+03 0.000000000000000D+00 0.000000000000000D+00 0.289631979423838D+03
 0.289631979423838D+03 0.000000000000000D+00 0.000000000000000D+00 -.289631979423838D+03
 0.236965377235704D+03 -.270380913346848D+02 0.204896920915196D+03 0.715788521904940D+02
 0.188049962680715D+03 -.132394945876830D+02 -.185853442495352D+03 -.254165725444657D+02
 0.307294459607425D+02 0.226054177297992D+01 -.130423235664363D+02 0.277324105684159D+02
 0.123519172970514D+03 0.380170441493879D+02 -.600115485340815D+01 -.738946902144442D+02
 0.000000000000000D+00 -.000000000000000D+00 0.000000000000000D+00 0.000000000000000D+00
 0.508922003902570D+03 0.000000000000000D+00 0.000000000000000D+00 0.508922003902570D+03
 0.351328075020532D+03 0.000000000000000D+00 0.000000000000000D+00 -.351328075020532D+03
 0.180996029618792D+03 -.231708583828167D+02 0.137054334607343D+03 0.715788521904940D+02
 0.259982312790074D+03 -.909402768383504D+01 -.258577066779430D+03 -.254165725444657D+02
 0.367900013621968D+02 0.288527273449209D+01 -.240019333709360D+02 0.277324105684159D+02
 0.132950045933690D+03 0.403900532316151D+02 -.476306805308194D+02 -.738946902144442D+02
 0.249531689218348D+03 -.110104398994554D+02 0.193155346073842D+03 0.157593928882038D+03
0.334407429792D-05 0.000000000000D+00 0.000000000000D+00 0.207501392933D-06 0.000000000000D+00  7 2 -2 23 -13 13 23 21 0 0.16573751D+00 0.11979688D-01 0.68757988D+05 0.68757988D+05 0.68757988D+05 0.11353212D+01  1  2  2  2  7  2       -2 0.437155739115D-03 0.100000000000D+01
-.183548432000D-06 0.000000000000D+00 -.128421258190D-07 0.207501392933D-06 0.000000000000D+00  7 2 -2 23 -13 13 23 21 2 0.16573751D+00 0.11979688D-01 0.68757988D+05 0.68757988D+05 0.68757988D+05 0.11353212D+01  1  2  3  2  7  2       -2 -.309277557271D-04 0.100000000000D+01
0.213533154620D-06 0.000000000000D+00 0.000000000000D+00 0.207501392933D-06 0.000000000000D+00  7 2 -2 23 -13 13 23 21 2 0.16573751D+00 0.11979688D-01 0.68757988D+05 0.68757988D+05 0.68757988D+05 0.11353212D+01  1  2 15  2  7  2       -2 0.359801561570D-04 0.100000000000D+01
  </mgrwgt>
  </event>
  <event>
  8     66 0.55102590E-06 0.25204638E+03 0.75467711E-02 0.97103401E-01
        2 -1    0    0  501    0 0.00000000E+00 0.00000000E+00 0.28692910E+04 0.28692910E+04 0.32000000E+00 0.0000E+00 0.9000E+01
       -2 -1    0    0    0  501 0.00000000E+00 0.00000000E+00 -.29606776E+02 0.29608505E+02 0.32000000E+00 0.0000E+00 0.9000E+01
       25  2    1    2    0    0 0.24252316E+02 -.14888014E+03 0.24224955E+04 0.24456392E+04 0.29985521E+03 0.0000E+00 0.0000E+00
       23  2    1    2    0    0 -.24252316E+02 0.14888014E+03 0.41718868E+03 0.45326029E+03 0.92978597E+02 0.0000E+00 0.0000E+00
       23  1    3    3    0    0 -.92491184E+02 -.94887642E+01 0.10795596E+04 0.10873862E+04 0.91188000E+02 0.0000E+00 0.9000E+01
      -11  1    4    4    0    0 -.11525255E+02 -.73752715E+01 0.83075174E+02 0.84194482E+02 0.51099893E-03 0.0000E+00 0.9000E+01
       11  1    4    4    0    0 -.12727061E+02 0.15625542E+03 0.33411351E+03 0.36906581E+03 0.51099893E-03 0.0000E+00 0.9000E+01
       23  1    3    3    0    0 0.11674350E+03 -.13939138E+03 0.13429360E+04 0.13582530E+04 0.91188000E+02 0.0000E+00 0.9000E+01
#aMCatNLO 1  0  0  2  2 0.26555295D+03 0.00000000D+00  -5  7  0 0.00000000D+00 0.00000000D+00 0.00000000D+00 0.00000000D+00 0.00000000D+00
  <mgrwgt>
 0.4232978482D-03    3    2    0
 0.291466956632695D+03 0.000000000000000D+00 0.000000000000000D+00 0.291466956632695D+03
 0.291466956632695D+03 0.000000000000000D+00 0.000000000000000D+00 -.291466956632695D+03
 0.148584746505721D+03 -.924911836364144D+02 -.948876424549456D+01 0.715368426253057D+02
 0.140051562591097D+02 -.115252554283491D+02 -.737527150359516D+01 0.298634549267980D+01
 0.207755676882648D+03 -.127270607610321D+02 0.156255415258129D+03 -.136325670377453D+03
 0.212588333617911D+03 0.116743499825796D+03 -.139391379509039D+03 0.618024822594678D+02
 0.000000000000000D+00 -.000000000000000D+00 0.000000000000000D+00 0.000000000000000D+00
 0.579495402549340D+03 0.000000000000000D+00 0.000000000000000D+00 0.579495402549340D+03
 0.388297863745099D+03 0.000000000000000D+00 0.000000000000000D+00 -.388297863745099D+03
 0.145240539645043D+03 -.595890866334271D+02 -.641185145943008D+02 0.715368426253057D+02
 0.155592125143109D+02 -.821468355089648D+01 -.128720553456886D+02 0.298634549267980D+01
 0.164329540812870D+03 0.289384612448375D+02 0.870751114882300D+02 -.136325670377453D+03
 0.315441011583782D+03 0.175871401865294D+03 -.237565745926268D+03 0.618024822594678D+02
 0.327222961738433D+03 -.137006092925808D+03 0.227481204378028D+03 0.191197538804240D+03
0.722743369977D-05 0.000000000000D+00 0.000000000000D+00 0.158241474207D-06 0.000000000000D+00  7 2 -2 23 -11 11 23 21 0 0.44142952D+00 0.45550230D-02 0.63527377D+05 0.63527377D+05 0.63527377D+05 0.11382592D+01  1  2  2  2  7  2       -2 0.418037570135D-03 0.100000000000D+01
-.391215363326D-06 0.000000000000D+00 -.277552484341D-07 0.158241474207D-06 0.000000000000D+00  7 2 -2 23 -11 11 23 21 2 0.44142952D+00 0.45550230D-02 0.63527377D+05 0.63527377D+05 0.63527377D+05 0.11382592D+01  1  2  3  2  7  2       -2 -.293176690153D-04 0.100000000000D+01
0.461408583423D-06 0.000000000000D+00 0.000000000000D+00 0.158241474207D-06 0.000000000000D+00  7 2 -2 23 -11 11 23 21 2 0.44142952D+00 0.45550230D-02 0.63527377D+05 0.63527377D+05 0.63527377D+05 0.11382592D+01  1  2 15  2  7  2       -2 0.345779470791D-04 0.100000000000D+01
  </mgrwgt>
  </event>
  <event>
  8     66 0.55102590E-06 0.33442419E+03 0.75467711E-02 0.99252268E-01
        2 -1    0    0  501    0 0.00000000E+00 0.00000000E+00 0.47502342E+03 0.47502353E+03 0.32000000E+00 0.0000E+00 0.9000E+01
       -2 -1    0    0    0  501 0.00000000E+00 0.00000000E+00 -.50716893E+03 0.50716903E+03 0.32000000E+00 0.0000E+00 0.9000E+01
       25  2    1    2    0    0 0.15279358E+03 0.23411024E+03 0.32144148E+03 0.52247156E+03 0.30248707E+03 0.0000E+00 0.0000E+00
       23  2    1    2    0    0 -.15279358E+03 -.23411024E+03 -.35358699E+03 0.45972099E+03 0.90366757E+02 0.0000E+00 0.0000E+00
       23  1    3    3    0    0 0.78576745E+02 0.24175187E+03 0.29832016E+03 0.40240333E+03 0.91188000E+02 0.0000E+00 0.9000E+01
      -11  1    4    4    0    0 -.15693264E+02 -.42920138E+02 -.16364611E+02 0.48540883E+02 0.51099893E-03 0.0000E+00 0.9000E+01
       11  1    4    4    0    0 -.13710031E+03 -.19119011E+03 -.33722238E+03 0.41118011E+03 0.51099893E-03 0.0000E+00 0.9000E+01
       23  1    3    3    0    0 0.74216831E+02 -.76416311E+01 0.23121318E+02 0.12006823E+03 0.91188000E+02 0.0000E+00 0.9000E+01
#aMCatNLO 1  0  0  1  2 0.89196033D+01 0.00000000D+00  -5  7  0 0.00000000D+00 0.00000000D+00 0.00000000D+00 0.00000000D+00 0.00000000D+00
  <mgrwgt>
 0.1443418976D-03    6    2    0
 0.490833190078500D+03 0.000000000000000D+00 0.000000000000000D+00 0.490833190078500D+03
 0.490833190078500D+03 0.000000000000000D+00 0.000000000000000D+00 -.490833190078500D+03
 0.412387773505023D+03 0.785767453967080D+02 0.241751874908954D+03 0.311657103967320D+03
 0.480310278475265D+02 -.156932643425069D+02 -.429201384815624D+02 -.147838696926609D+02
 0.400357867430881D+03 -.137100311657000D+03 -.191190105323525D+03 -.323938682752980D+03
 0.120889711373569D+03 0.742168306027985D+02 -.764163110386657D+01 0.270654484783210D+02
 0.000000000000000D+00 0.000000000000000D+00 -.000000000000000D+00 -.000000000000000D+00
 0.493855692413173D+03 0.000000000000000D+00 0.000000000000000D+00 0.493855692413173D+03
 0.497478444606354D+03 0.000000000000000D+00 0.000000000000000D+00 -.497478444606354D+03
 0.413933289900630D+03 0.766680966533494D+02 0.244984427354506D+03 0.311657103967320D+03
 0.477696965889773D+02 -.159145462877534D+02 -.425453678508992D+02 -.147838696926609D+02
 0.399511864327773D+03 -.138947862719149D+03 -.188061029989463D+03 -.323938682752980D+03
 0.120492051090207D+03 0.736592833999021D+02 -.669735019282711D+01 0.270654484783210D+02
 0.962723511193905D+01 0.453502895365119D+01 -.768067932131668D+01 -.362275219318072D+01
0.157202600141D-04 0.000000000000D+00 0.000000000000D+00 0.694481408035D-07 0.000000000000D+00  7 2 -2 23 -11 11 23 21 0 0.73080542D-01 0.78026005D-01 0.11183954D+06 0.11183954D+06 0.11183954D+06 0.11177559D+01  1  2  2  1  7  1        2 0.190990841782D-03 0.100000000000D+01
-.717018985064D-06 0.000000000000D+00 -.603699376936D-07 0.694481408035D-07 0.000000000000D+00  7 2 -2 23 -11 11 23 21 2 0.73080542D-01 0.78026005D-01 0.11183954D+06 0.11183954D+06 0.11183954D+06 0.11177559D+01  1  2  3  1  7  1        2 -.108837216166D-04 0.100000000000D+01
0.956674166333D-06 0.000000000000D+00 0.000000000000D+00 0.694481408035D-07 0.000000000000D+00  7 2 -2 23 -11 11 23 21 2 0.73080542D-01 0.78026005D-01 0.11183954D+06 0.11183954D+06 0.11183954D+06 0.11177559D+01  1  2 15  1  7  1        2 0.145214778424D-04 0.100000000000D+01
-.332882400585D-05 0.000000000000D+00 0.000000000000D+00 0.694481408035D-07 0.000000000000D+00  7 2 -2 23 -11 11 23 21 2 0.73080542D-01 0.78026005D-01 0.11183954D+06 0.11183954D+06 0.11183954D+06 0.11177559D+01  1  2  4  1  7  1        2 -.505286394712D-04 0.100000000000D+01
0.164083243011D-07 0.000000000000D+00 0.000000000000D+00 0.694481408035D-07 0.580702394258D-08  7 2 -2 23 -11 11 23 21 2 0.73530565D-01 0.79082378D-01 0.11491992D+06 0.11491992D+06 0.11491992D+06 0.11167993D+01  1  2 11  1  7  1        2 0.239532289656D-06 0.100000000000D+01
0.799822037930D-10 0.000000000000D+00 0.000000000000D+00 0.694481408035D-07 0.667244479706D-11  7 21 -2 23 -11 11 23 -2 2 0.73530565D-01 0.79082378D-01 0.11491992D+06 0.11491992D+06 0.11491992D+06 0.11167993D+01  1  2 11  3  7  1        2 0.240681746370D-08 0.100000000000D+01
  </mgrwgt>
  </event>
  <event>
  8     66 0.55102590E-06 0.39430714E+03 0.75467711E-02 0.94986212E-01
        2 -1    0    0  501    0 0.00000000E+00 0.00000000E+00 0.57132777E+03 0.57132786E+03 0.32000000E+00 0.0000E+00 0.9000E+01
       21 -1    0    0  502  501 0.00000000E+00 0.00000000E+00 -.46349811E+03 0.46349872E+03 0.75000000E+00 0.0000E+00 0.9000E+01
       23  2    1    2    0    0 -.14271660E+03 -.20074710E+03 0.63873754E+02 0.27075815E+03 0.92534824E+02 0.0000E+00 0.0000E+00
       23  1    1    2    0    0 0.12877354E+03 -.38996157E+02 0.21696120E+02 0.16397956E+03 0.91188000E+02 0.0000E+00 0.9000E+01
      -11  1    3    3    0    0 -.11070488E+03 -.17374571E+03 0.86171909E+02 0.22331310E+03 0.51099893E-03 0.0000E+00 0.9000E+01
       11  1    3    3    0    0 -.32011717E+02 -.27001390E+02 -.22298155E+02 0.47445051E+02 0.51099893E-03 0.0000E+00 0.9000E+01
       23  1    1    2    0    0 0.12885297E+03 0.35937260E+03 -.86241843E+02 0.40187643E+03 0.91188000E+02 0.0000E+00 0.9000E+01
        2  1    1    2  502    0 -.11490990E+03 -.11962935E+03 0.10850163E+03 0.19821244E+03 0.32000000E+00 0.0000E+00 0.9000E+01
#aMCatNLO 2  0  0  2  1 0.16587787D+03 0.00000000D+00  -5  7  0 0.00000000D+00 0.00000000D+00 0.00000000D+00 0.00000000D+00 0.00000000D+00
  <mgrwgt>
 0.1223768249D-03    1    2    0
 0.410002225905761D+03 0.000000000000000D+00 0.000000000000000D+00 0.410002225905761D+03
 0.410002225905761D+03 0.000000000000000D+00 0.000000000000000D+00 -.410002225905761D+03
 0.154962486809434D+03 0.106649182030678D+03 -.620291749972590D+02 0.218278353372620D+02
 0.268768023233688D+03 -.144842471693122D+03 -.209285358684698D+03 0.863513019414808D+02
 0.568129092076509D+02 -.392422393988095D+02 -.345288760833213D+02 -.222600542682617D+02
 0.339461032560749D+03 0.774355290612533D+02 0.305843409765278D+03 -.859190830104810D+02
 0.000000000000000D+00 -.000000000000000D+00 -.000000000000000D+00 0.000000000000000D+00
 0.571787047074269D+03 0.000000000000000D+00 0.000000000000000D+00 0.571787047074269D+03
 0.463126205193920D+03 0.000000000000000D+00 0.000000000000000D+00 -.463126205193920D+03
 0.163997040804931D+03 0.128773535266381D+03 -.389961570960735D+02 0.218278353372620D+02
 0.223382386011645D+03 -.110704881947240D+03 -.173745711159483D+03 0.863513019414808D+02
 0.474271559399306D+02 -.320117169563944D+02 -.270013903721314D+02 -.222600542682617D+02
 0.401807287226167D+03 0.128852968358536D+03 0.359372603913937D+03 -.859190830104810D+02
 0.198299382285516D+03 -.114909904721283D+03 -.119629345286249D+03 0.108660841880349D+03
0.882657153810D-06 0.000000000000D+00 0.000000000000D+00 0.106593608450D-09 0.843677421211D-15  7 2 21 23 -11 11 23 2 2 0.87896611D-01 0.71307437D-01 0.23465572D+06 0.23465572D+06 0.23465572D+06 0.10925346D+01  1  2  1  4  7  2       -2 0.122376824918D-03 0.100000000000D+01
  </mgrwgt>
  </event>
  <event>
  8     66 0.55102590E-06 0.94674083E+02 0.75467711E-02 0.91410100E-01
        2 -1    0    0  501    0 0.00000000E+00 0.00000000E+00 0.24750964E+04 0.24750964E+04 0.32000000E+00 0.0000E+00 0.9000E+01
       -2 -1    0    0    0  501 0.00000000E+00 0.00000000E+00 -.22675709E+03 0.22675732E+03 0.32000000E+00 0.0000E+00 0.9000E+01
       25  2    1    2    0    0 0.32795835E+03 0.36904949E+03 0.20977916E+04 0.21779452E+04 0.31458146E+03 0.0000E+00 0.0000E+00
       23  2    1    2    0    0 -.32795835E+03 -.36904949E+03 0.15054775E+03 0.52390857E+03 0.89785077E+02 0.0000E+00 0.0000E+00
       23  1    3    3    0    0 0.32686514E+03 0.24493256E+03 0.17151218E+04 0.17654435E+04 0.91188000E+02 0.0000E+00 0.9000E+01
      -11  1    4    4    0    0 -.31404020E+03 -.31109177E+03 0.12824848E+03 0.46026841E+03 0.51099893E-03 0.0000E+00 0.9000E+01
       11  1    4    4    0    0 -.13918147E+02 -.57957729E+02 0.22299268E+02 0.63640164E+02 0.51099893E-03 0.0000E+00 0.9000E+01
       23  1    3    3    0    0 0.10932083E+01 0.12411694E+03 0.38266973E+03 0.41250162E+03 0.91188000E+02 0.0000E+00 0.9000E+01
#aMCatNLO 1  0  0  1  2 0.24889086D+03 0.00000000D+00  -5  7  0 0.00000000D+00 0.00000000D+00 0.00000000D+00 0.00000000D+00 0.00000000D+00
  <mgrwgt>
 0.3748960988D-03    9    2    0
 0.749163527783487D+03 0.000000000000000D+00 0.000000000000000D+00 0.749163527783487D+03
 0.749163527783487D+03 0.000000000000000D+00 0.000000000000000D+00 -.749163527783487D+03
 0.609876470152049D+03 0.326865140572999D+03 0.244932556617764D+03 0.443622903024633D+03
 0.637532249173707D+03 -.314040202196474D+03 -.311091765049271D+03 -.459399645036228D+03
 0.812974014909402D+02 -.139181467168916D+02 -.579577292327596D+02 -.552852087210345D+02
 0.169620934750277D+03 0.109320834036662D+01 0.124116937664267D+03 0.710619507326301D+02
 0.000000000000000D+00 0.000000000000000D+00 0.000000000000000D+00 0.000000000000000D+00
 0.987789231656732D+03 0.000000000000000D+00 0.000000000000000D+00 0.987789231656732D+03
 0.827246033663271D+03 0.000000000000000D+00 0.000000000000000D+00 -.827246033663271D+03
 0.551264614017373D+03 0.241986875299842D+03 0.200545494634855D+03 0.443622903024633D+03
 0.716442074161213D+03 -.413014386605142D+03 -.362850283486437D+03 -.459399645036228D+03
 0.889216219020070D+02 -.263609890373139D+02 -.644647096893313D+02 -.552852087210345D+02
 0.162230019210657D+03 -.231647683047320D+02 0.111431236448994D+03 0.710619507326301D+02
 0.296176936028753D+03 0.220553268647345D+03 0.115338262091920D+03 0.160543197993461D+03
0.837032121534D-04 0.000000000000D+00 0.000000000000D+00 0.429186164376D-08 0.000000000000D+00  7 2 -2 23 -11 11 23 21 0 0.38078408D+00 0.34885725D-01 0.28846034D+06 0.28846034D+06 0.28846034D+06 0.10858145D+01  1  2  2  1  7  1        2 0.297042733401D-03 0.100000000000D+01
-.402396851517D-05 0.000000000000D+00 -.321442374231D-06 0.429186164376D-08 0.000000000000D+00  7 2 -2 23 -11 11 23 21 2 0.38078408D+00 0.34885725D-01 0.28846034D+06 0.28846034D+06 0.28846034D+06 0.10858145D+01  1  2  3  1  7  1        2 -.168361435274D-04 0.100000000000D+01
0.523737746296D-05 0.000000000000D+00 0.000000000000D+00 0.429186164376D-08 0.000000000000D+00  7 2 -2 23 -11 11 23 21 2 0.38078408D+00 0.34885725D-01 0.28846034D+06 0.28846034D+06 0.28846034D+06 0.10858145D+01  1  2 15  1  7  1        2 0.219130041254D-04 0.100000000000D+01
0.410222226696D-04 0.000000000000D+00 0.000000000000D+00 0.429186164376D-08 0.000000000000D+00  7 2 -2 23 -11 11 23 21 2 0.51705367D+00 0.34885725D-01 0.44983058D+06 0.44983058D+06 0.44983058D+06 0.10717711D+01  1  2 12  1  7  1        2 0.452165693108D-04 0.100000000000D+01
-.585141540891D-04 0.000000000000D+00 0.000000000000D+00 0.429186164376D-08 0.000000000000D+00  7 2 -2 23 -11 11 23 21 2 0.38078408D+00 0.34885725D-01 0.28846034D+06 0.28846034D+06 0.28846034D+06 0.10858145D+01  1  2  4  1  7  1        2 -.244821174150D-03 0.100000000000D+01
-.827428386442D-04 0.000000000000D+00 -.286588078918D-04 0.429186164376D-08 0.000000000000D+00  7 2 -2 23 -11 11 23 21 2 0.51557005D+00 0.34885725D-01 0.28846034D+06 0.28846034D+06 0.28846034D+06 0.10858145D+01  1  2  5  1  7  1        2 -.982426621389D-04 0.100000000000D+01
0.885957425871D-04 0.000000000000D+00 0.273914258735D-04 0.429186164376D-08 0.000000000000D+00  7 2 -2 23 -11 11 23 21 2 0.38078408D+00 0.34885725D-01 0.28846034D+06 0.28846034D+06 0.28846034D+06 0.10858145D+01  1  2  6  1  7  1        2 0.370681488309D-03 0.100000000000D+01
0.160823703869D-05 0.000000000000D+00 0.000000000000D+00 0.429186164376D-08 0.000000000000D+00  7 21 -2 23 -11 11 23 -2 2 0.51705367D+00 0.34885725D-01 0.44983058D+06 0.44983058D+06 0.44983058D+06 0.10717711D+01  1  2 12  3  7  1        2 0.738981150916D-07 0.100000000000D+01
-.256914127849D-05 0.000000000000D+00 -.111591262149D-05 0.429186164376D-08 0.000000000000D+00  7 21 -2 23 -11 11 23 -2 2 0.51557005D+00 0.34885725D-01 0.28846034D+06 0.28846034D+06 0.28846034D+06 0.10858145D+01  1  2  5  3  7  1        2 -.131614595329D-06 0.100000000000D+01
  </mgrwgt>
  </event>
  <event>
  8     66 0.55102590E-06 0.18607654E+03 0.75467711E-02 0.98216244E-01
        2 -1    0    0  501    0 0.00000000E+00 0.00000000E+00 0.53942453E+03 0.53942463E+03 0.32000000E+00 0.0000E+00 0.9000E+01
       -2 -1    0    0    0  501 0.00000000E+00 0.00000000E+00 -.28232778E+03 0.28232797E+03 0.32000000E+00 0.0000E+00 0.9000E+01
       25  2    1    2    0    0 -.10384337E+03 0.23112108E+03 0.36085516E+03 0.53290573E+03 0.29928527E+03 0.0000E+00 0.0000E+00
       23  2    1    2    0    0 0.10384337E+03 -.23112108E+03 -.10375842E+03 0.28884686E+03 0.92012520E+02 0.0000E+00 0.0000E+00
       23  1    3    3    0    0 0.68486611E+01 0.22236252E+03 0.17206394E+03 0.29565731E+03 0.91188000E+02 0.0000E+00 0.9000E+01
      -13  1    4    4    0    0 0.11979765E+03 -.21862770E+03 -.95476633E+02 0.26695570E+03 0.10565837E+00 0.0000E+00 0.9000E+01
       13  1    4    4    0    0 -.15954287E+02 -.12493376E+02 -.82817833E+01 0.21891158E+02 0.10565837E+00 0.0000E+00 0.9000E+01
       23  1    3    3    0    0 -.11069203E+03 0.87585603E+01 0.18879122E+03 0.23724842E+03 0.91188000E+02 0.0000E+00 0.9000E+01
#aMCatNLO 1  0  0  2  1 0.77740953D+02 0.00000000D+00  -5  7  0 0.00000000D+00 0.00000000D+00 0.00000000D+00 0.00000000D+00 0.00000000D+00
  <mgrwgt>
 0.3645714874D-03    9    2    0
 0.390249466828997D+03 0.000000000000000D+00 0.000000000000000D+00 0.390249466828997D+03
 0.390249466828997D+03 0.000000000000000D+00 0.000000000000000D+00 -.390249466828997D+03
 0.254606472991798D+03 0.684866103868396D+01 0.222362516331503D+03 0.837688003854811D+02
 0.312516209280550D+03 0.119797831572766D+03 -.218627972268635D+03 -.188458670151450D+03
 0.257758717670587D+02 -.159544655083817D+02 -.124931044002536D+02 -.159302522936103D+02
 0.187600379618586D+03 -.110692027103068D+03 0.875856033738539D+01 0.120620122059579D+03
 0.000000000000000D+00 -.000000000000000D+00 0.000000000000000D+00 -.000000000000000D+00
 0.410137398651227D+03 0.000000000000000D+00 0.000000000000000D+00 0.410137398651227D+03
 0.476321755850556D+03 0.000000000000000D+00 0.000000000000000D+00 -.476321755850556D+03
 0.243013151909854D+03 0.265351952274283D+02 0.207409768702878D+03 0.837688003854811D+02
 0.336736226569924D+03 0.145483173620965D+03 -.238137065830732D+03 -.188458670151450D+03
 0.253905886416492D+02 -.139302481709884D+02 -.140305822874906D+02 -.159302522936103D+02
 0.179221073001711D+03 -.961800530835513D+02 -.226389201641977D+01 0.120620122059579D+03
 0.102098114378644D+03 -.619080675938540D+02 0.470217714317641D+02 -.661843571993297D+02
0.781268899567D-05 0.000000000000D+00 0.000000000000D+00 0.335843202836D-06 0.000000000000D+00  7 2 -2 23 -13 13 23 21 0 0.82988411D-01 0.43435065D-01 0.10682315D+06 0.10682315D+06 0.10682315D+06 0.11193773D+01  1  2  2  2  7  2       -2 0.272830315312D-03 0.100000000000D+01
-.417445049470D-06 0.000000000000D+00 -.300027828716D-07 0.335843202836D-06 0.000000000000D+00  7 2 -2 23 -13 13 23 21 2 0.82988411D-01 0.43435065D-01 0.10682315D+06 0.10682315D+06 0.10682315D+06 0.11193773D+01  1  2  3  2  7  2       -2 -.182660389674D-04 0.100000000000D+01
0.489484148107D-06 0.000000000000D+00 0.000000000000D+00 0.335843202836D-06 0.000000000000D+00  7 2 -2 23 -13 13 23 21 2 0.82988411D-01 0.43435065D-01 0.10682315D+06 0.10682315D+06 0.10682315D+06 0.11193773D+01  1  2 15  2  7  2       -2 0.214182358483D-04 0.100000000000D+01
0.125558037326D-04 0.000000000000D+00 0.000000000000D+00 0.335843202836D-06 0.000000000000D+00  7 2 -2 23 -13 13 23 21 2 0.82988411D-01 0.53946681D-01 0.13588327D+06 0.13588327D+06 0.13588327D+06 0.11109553D+01  1  2 12  2  7  2       -2 0.353374008687D-03 0.100000000000D+01
-.130010231967D-04 0.000000000000D+00 0.000000000000D+00 0.335843202836D-06 0.000000000000D+00  7 2 -2 23 -13 13 23 21 2 0.82988411D-01 0.43435065D-01 0.10682315D+06 0.10682315D+06 0.10682315D+06 0.11193773D+01  1  2  4  2  7  2       -2 -.568882531074D-03 0.100000000000D+01
-.205712553629D-04 0.000000000000D+00 -.478269752380D-05 0.335843202836D-06 0.000000000000D+00  7 2 -2 23 -13 13 23 21 2 0.82988411D-01 0.55150667D-01 0.10682315D+06 0.10682315D+06 0.10682315D+06 0.11193773D+01  1  2  5  2  7  2       -2 -.564798840127D-03 0.100000000000D+01
0.212381259575D-04 0.000000000000D+00 0.464949460481D-05 0.335843202836D-06 0.000000000000D+00  7 2 -2 23 -13 13 23 21 2 0.82988411D-01 0.43435065D-01 0.10682315D+06 0.10682315D+06 0.10682315D+06 0.11193773D+01  1  2  6  2  7  2       -2 0.929311383205D-03 0.100000000000D+01
0.381965424884D-06 0.000000000000D+00 0.000000000000D+00 0.335843202836D-06 0.000000000000D+00  7 2 21 23 -13 13 23 2 2 0.82988411D-01 0.53946681D-01 0.13588327D+06 0.13588327D+06 0.13588327D+06 0.11109553D+01  1  2 12  4  7  2       -2 0.113160922079D-03 0.100000000000D+01
-.598651146805D-06 0.000000000000D+00 -.156462451972D-06 0.335843202836D-06 0.000000000000D+00  7 2 21 23 -13 13 23 2 2 0.82988411D-01 0.55150667D-01 0.10682315D+06 0.10682315D+06 0.10682315D+06 0.11193773D+01  1  2  5  4  7  2       -2 -.173575967589D-03 0.100000000000D+01
  </mgrwgt>
  </event>
  <event>
  8     66 0.55102590E-06 0.31686272E+03 0.75467711E-02 0.96783608E-01
        2 -1    0    0  501    0 0.00000000E+00 0.00000000E+00 0.21534805E+04 0.21534806E+04 0.32000000E+00 0.0000E+00 0.9000E+01
       -2 -1    0    0    0  501 0.00000000E+00 0.00000000E+00 -.94687444E+02 0.94687985E+02 0.32000000E+00 0.0000E+00 0.9000E+01
       25  2    1    2    0    0 0.10937052E+03 -.23203794E+03 0.38211967E+03 0.54951634E+03 0.30024864E+03 0.0000E+00 0.0000E+00
       23  2    1    2    0    0 -.10937052E+03 0.23203794E+03 0.16766734E+04 0.16986522E+04 0.91553435E+02 0.0000E+00 0.0000E+00
       23  1    3    3    0    0 0.25841431E+02 -.21833071E+03 0.13700043E+03 0.27462783E+03 0.91188000E+02 0.0000E+00 0.9000E+01
      -11  1    4    4    0    0 0.14218622E+02 0.44285973E+02 0.34894821E+03 0.35203447E+03 0.51099893E-03 0.0000E+00 0.9000E+01
       11  1    4    4    0    0 -.12358915E+03 0.18775197E+03 0.13277252E+04 0.13466177E+04 0.51099893E-03 0.0000E+00 0.9000E+01
       23  1    3    3    0    0 0.83529092E+02 -.13707237E+02 0.24511924E+03 0.27488851E+03 0.91188000E+02 0.0000E+00 0.9000E+01
#aMCatNLO 1  0  0  2  1 0.18180165D+03 0.00000000D+00  -5  7  0 0.00000000D+00 0.00000000D+00 0.00000000D+00 0.00000000D+00 0.00000000D+00
  <mgrwgt>
 0.3188026555D-03    4    2    0
 0.451561957630689D+03 0.000000000000000D+00 0.000000000000000D+00 0.451561957630689D+03
 0.451561957630689D+03 0.000000000000000D+00 0.000000000000000D+00 -.451561957630689D+03
 0.371326803585390D+03 0.258414308899704D+02 -.218330707455809D+03 -.285012747694463D+03
 0.808534266364982D+02 0.142186219511952D+02 0.442859734552596D+02 0.661351642002393D+02
 0.325439430147729D+03 -.123589145057826D+03 0.187751970897206D+03 0.235341758604310D+03
 0.125504254891761D+03 0.835290922166605D+02 -.137072368966562D+02 -.164641751100865D+02
 0.000000000000000D+00 0.000000000000000D+00 -.000000000000000D+00 0.000000000000000D+00
 0.672577411905807D+03 0.000000000000000D+00 0.000000000000000D+00 0.672577411905807D+03
 0.499604544215666D+03 0.000000000000000D+00 0.000000000000000D+00 -.499604544215666D+03
 0.334519527140186D+03 0.170513479337168D+02 -.148543084252986D+03 -.285012747694463D+03
 0.909626984400413D+02 0.120789522711215D+02 0.612735789368732D+02 0.661351642002393D+02
 0.372575653985613D+03 -.132281703518733D+03 0.256765312131565D+03 0.235341758604310D+03
 0.123182939889770D+03 0.804321276549257D+02 0.108806762075177D+02 -.164641751100865D+02
 0.250941136665862D+03 0.227192756589686D+02 -.180376483022970D+03 0.172972867690141D+03
0.141539506745D-04 0.000000000000D+00 0.000000000000D+00 0.127120249990D-05 0.000000000000D+00  7 2 -2 23 -11 11 23 21 0 0.33130474D+00 0.14567342D-01 0.10040198D+06 0.10040198D+06 0.10040198D+06 0.11215791D+01  1  2  2  2  7  2       -2 0.351089010740D-03 0.100000000000D+01
-.666355350587D-06 0.000000000000D+00 -.543548974107D-07 0.127120249990D-05 0.000000000000D+00  7 2 -2 23 -11 11 23 21 2 0.33130474D+00 0.14567342D-01 0.10040198D+06 0.10040198D+06 0.10040198D+06 0.11215791D+01  1  2  3  2  7  2       -2 -.207924306539D-04 0.100000000000D+01
0.880057477945D-06 0.000000000000D+00 0.000000000000D+00 0.127120249990D-05 0.000000000000D+00  7 2 -2 23 -11 11 23 21 2 0.33130474D+00 0.14567342D-01 0.10040198D+06 0.10040198D+06 0.10040198D+06 0.11215791D+01  1  2 15  2  7  2       -2 0.274606245235D-04 0.100000000000D+01
-.124841451619D-05 0.000000000000D+00 0.000000000000D+00 0.127120249990D-05 0.000000000000D+00  7 2 -2 23 -11 11 23 21 2 0.33130474D+00 0.14567342D-01 0.10040198D+06 0.10040198D+06 0.10040198D+06 0.11215791D+01  1  2  4  2  7  2       -2 -.389545491491D-04 0.100000000000D+01
  </mgrwgt>
  </event>
  <event>
  7     66 0.55102590E-06 0.54000305E+03 0.75467711E-02 0.88189871E-01
        2 -1    0    0  501    0 0.00000000E+00 0.00000000E+00 0.75365482E+03 0.75365489E+03 0.32000000E+00 0.0000E+00 0.9000E+01
       -2 -1    0    0    0  501 0.00000000E+00 0.00000000E+00 -.68015305E+03 0.68015313E+03 0.32000000E+00 0.0000E+00 0.9000E+01
       23  2    1    2    0    0 0.16068343E+03 0.48150832E+03 0.48492831E+03 0.70775715E+03 0.89973804E+02 0.0000E+00 0.0000E+00
       23  1    1    2    0    0 -.14054021E+02 -.47284147E+02 -.34917565E+00 0.10367584E+03 0.91188000E+02 0.0000E+00 0.9000E+01
      -13  1    3    3    0    0 0.15412450E+03 0.42381877E+03 0.38869865E+03 0.59536826E+03 0.10565837E+00 0.0000E+00 0.9000E+01
       13  1    3    3    0    0 0.65589288E+01 0.57689556E+02 0.96229660E+02 0.11238889E+03 0.10565837E+00 0.0000E+00 0.9000E+01
       23  1    1    2    0    0 -.14662941E+03 -.43422417E+03 -.41107737E+03 0.62237503E+03 0.91188000E+02 0.0000E+00 0.9000E+01
#aMCatNLO 1  0  0  2  2 0.64514883D+03 0.00000000D+00  -5  7  0 0.00000000D+00 0.00000000D+00 0.00000000D+00 0.00000000D+00 0.00000000D+00
  <mgrwgt>
 0.5441457554D-03    3    2    0
 0.715961402321885D+03 0.000000000000000D+00 0.000000000000000D+00 0.715961402321885D+03
 0.715961402321885D+03 0.000000000000000D+00 0.000000000000000D+00 -.715961402321885D+03
 0.103830263651135D+03 -.140540255736597D+02 -.472841590007427D+02 -.567141769152202D+01
 0.576200529694911D+03 0.154124707523404D+03 0.423819274456676D+03 0.358650034923375D+03
 0.107596666324443D+03 0.655872555253559D+01 0.576890517659340D+02 0.905869694250091D+02
 0.644295344973281D+03 -.146629407502280D+03 -.434224167221867D+03 -.443565586656862D+03
 0.000000000000000D+00 -.000000000000000D+00 -.000000000000000D+00 0.000000000000000D+00
 0.139567538917512D+04 0.000000000000000D+00 0.000000000000000D+00 0.139567538917512D+04
 0.955742353242341D+03 0.000000000000000D+00 0.000000000000000D+00 -.955742353242341D+03
 0.926373092338970D+02 0.932723851823703D+01 -.121349644041042D+02 -.567141769152202D+01
 0.829430594660210D+03 0.321406422524631D+03 0.675294880306204D+03 0.358650034923375D+03
 0.141290765091731D+03 0.361783858233972D+02 0.102216464768709D+03 0.905869694250091D+02
 0.507188985833676D+03 -.959326031053391D+01 -.228216904933357D+03 -.443565586656862D+03
 0.780870087597947D+03 -.357318786555731D+03 -.537159475737451D+03 0.439933035932779D+03
0.154709386104D-03 0.000000000000D+00 0.000000000000D+00 0.309381010812D-08 0.000000000000D+00  7 2 -2 23 -13 13 23 21 0 0.11594691D+00 0.10463894D+00 0.29160330D+06 0.29160330D+06 0.29160330D+06 0.10854652D+01  1  2  2  2  7  2       -2 0.536448745495D-03 0.100000000000D+01
-.776361881705D-05 0.000000000000D+00 -.594124778556D-06 0.309381010812D-08 0.000000000000D+00  7 2 -2 23 -13 13 23 21 2 0.11594691D+00 0.10463894D+00 0.29160330D+06 0.29160330D+06 0.29160330D+06 0.10854652D+01  1  2  3  2  7  2       -2 -.317181298847D-04 0.100000000000D+01
0.964760918545D-05 0.000000000000D+00 0.000000000000D+00 0.309381010812D-08 0.000000000000D+00  7 2 -2 23 -13 13 23 21 2 0.11594691D+00 0.10463894D+00 0.29160330D+06 0.29160330D+06 0.29160330D+06 0.10854652D+01  1  2 15  2  7  2       -2 0.394151398248D-04 0.100000000000D+01
  </mgrwgt>
  </event>
  <event>
  8     66 0.55102590E-06 0.27972618E+03 0.75467711E-02 0.93613504E-01
        2 -1    0    0  501    0 0.00000000E+00 0.00000000E+00 0.83448224E+03 0.83448230E+03 0.32000000E+00 0.0000E+00 0.9000E+01
       -2 -1    0    0    0  501 0.00000000E+00 0.00000000E+00 -.42018776E+03 0.42018788E+03 0.32000000E+00 0.0000E+00 0.9000E+01
       25  2    1    2    0    0 0.27196153E+03 0.40708767E+03 0.48487790E+03 0.75150321E+03 0.29994508E+03 0.0000E+00 0.0000E+00
       23  2    1    2    0    0 -.27196153E+03 -.40708767E+03 -.70583417E+02 0.50316697E+03 0.92258022E+02 0.0000E+00 0.0000E+00
       23  1    3    3    0    0 0.29378952E+03 0.30410302E+03 0.33677396E+03 0.54819968E+03 0.91188000E+02 0.0000E+00 0.9000E+01
      -13  1    4    4    0    0 -.93929816E+02 -.14553577E+03 -.69861502E+02 0.18677289E+03 0.10565837E+00 0.0000E+00 0.9000E+01
       13  1    4    4    0    0 -.17803171E+03 -.26155190E+03 -.72191470E+00 0.31639409E+03 0.10565837E+00 0.0000E+00 0.9000E+01
       23  1    3    3    0    0 -.21827995E+02 0.10298465E+03 0.14810393E+03 0.20330353E+03 0.91188000E+02 0.0000E+00 0.9000E+01
#aMCatNLO 1  0  0  2  1 0.32327346D+02 0.00000000D+00  -5  7  0 0.00000000D+00 0.00000000D+00 0.00000000D+00 0.00000000D+00 0.00000000D+00
  <mgrwgt>
 0.1881804706D-03    9    2    0
 0.592148069354926D+03 0.000000000000000D+00 0.000000000000000D+00 0.592148069354926D+03
 0.592148069354926D+03 0.000000000000000D+00 0.000000000000000D+00 -.592148069354926D+03
 0.462963758686519D+03 0.293789522276727D+03 0.304103021008461D+03 0.165012907759028D+03
 0.222310470302147D+03 -.939297056670826D+02 -.145535618629652D+03 -.139350419121514D+03
 0.335447759286804D+03 -.178031822064202D+03 -.261552049587948D+03 -.111446825434291D+03
 0.163574150434381D+03 -.218279945454423D+02 0.102984647209139D+03 0.857843367967774D+02
 0.000000000000000D+00 -.000000000000000D+00 0.000000000000000D+00 -.000000000000000D+00
 0.597764258528630D+03 0.000000000000000D+00 0.000000000000000D+00 0.597764258528630D+03
 0.640790166364142D+03 0.000000000000000D+00 0.000000000000000D+00 -.640790166364142D+03
 0.459072202248321D+03 0.299180822150238D+03 0.292734711750318D+03 0.165012907759028D+03
 0.224884079638580D+03 -.913148836615661D+02 -.151049336269394D+03 -.139350419121514D+03
 0.339941207654620D+03 -.174082708790627D+03 -.269879306843666D+03 -.111446825434291D+03
 0.160839781528958D+03 -.199310915346469D+02 0.989847621043643D+02 0.857843367967774D+02
 0.538171538222929D+02 -.138521381633975D+02 0.292091692583780D+02 -.430259078355112D+02
0.153598869399D-04 0.000000000000D+00 0.000000000000D+00 0.161223901697D-05 0.000000000000D+00  7 2 -2 23 -13 13 23 21 0 0.12838190D+00 0.64644285D-01 0.28166433D+06 0.28166433D+06 0.28166433D+06 0.10865841D+01  1  2  2  2  7  2       -2 0.139966186391D-03 0.100000000000D+01
-.840882127539D-06 0.000000000000D+00 -.589860102005D-07 0.161223901697D-05 0.000000000000D+00  7 2 -2 23 -13 13 23 21 2 0.12838190D+00 0.64644285D-01 0.28166433D+06 0.28166433D+06 0.28166433D+06 0.10865841D+01  1  2  3  2  7  2       -2 -.904684010418D-05 0.100000000000D+01
0.983363935252D-06 0.000000000000D+00 0.000000000000D+00 0.161223901697D-05 0.000000000000D+00  7 2 -2 23 -13 13 23 21 2 0.12838190D+00 0.64644285D-01 0.28166433D+06 0.28166433D+06 0.28166433D+06 0.10865841D+01  1  2 15  2  7  2       -2 0.105797661707D-04 0.100000000000D+01
0.111558033699D-03 0.000000000000D+00 0.000000000000D+00 0.161223901697D-05 0.000000000000D+00  7 2 -2 23 -13 13 23 21 2 0.12838190D+00 0.70245724D-01 0.29944428D+06 0.29944428D+06 0.29944428D+06 0.10846114D+01  1  2 12  2  7  2       -2 0.998897381604D-03 0.100000000000D+01
-.113687817829D-03 0.000000000000D+00 0.000000000000D+00 0.161223901697D-05 0.000000000000D+00  7 2 -2 23 -13 13 23 21 2 0.12838190D+00 0.64644285D-01 0.28166433D+06 0.28166433D+06 0.28166433D+06 0.10865841D+01  1  2  4  2  7  2       -2 -.122313874443D-02 0.100000000000D+01
-.203612043033D-03 0.000000000000D+00 -.234008850641D-04 0.161223901697D-05 0.000000000000D+00  7 2 -2 23 -13 13 23 21 2 0.12838190D+00 0.70375166D-01 0.28166433D+06 0.28166433D+06 0.28166433D+06 0.10865841D+01  1  2  5  2  7  2       -2 -.182622770741D-02 0.100000000000D+01
0.204944123085D-03 0.000000000000D+00 0.233167202265D-04 0.161223901697D-05 0.000000000000D+00  7 2 -2 23 -13 13 23 21 2 0.12838190D+00 0.64644285D-01 0.28166433D+06 0.28166433D+06 0.28166433D+06 0.10865841D+01  1  2  6  2  7  2       -2 0.220494246591D-02 0.100000000000D+01
0.159227548104D-05 0.000000000000D+00 0.000000000000D+00 0.161223901697D-05 0.000000000000D+00  7 2 21 23 -13 13 23 2 2 0.12838190D+00 0.70245724D-01 0.29944428D+06 0.29944428D+06 0.29944428D+06 0.10846114D+01  1  2 12  4  7  2       -2 0.139793455032D-03 0.100000000000D+01
-.281102605255D-05 0.000000000000D+00 -.329595518535D-06 0.161223901697D-05 0.000000000000D+00  7 2 21 23 -13 13 23 2 2 0.12838190D+00 0.70375166D-01 0.28166433D+06 0.28166433D+06 0.28166433D+06 0.10865841D+01  1  2  5  4  7  2       -2 -.247585492574D-03 0.100000000000D+01
  </mgrwgt>
  </event>
  <event>
  8     66 0.55102590E-06 0.12422622E+03 0.75467711E-02 0.10543622E+00
        2 -1    0    0  501    0 0.00000000E+00 0.00000000E+00 0.19271156E+04 0.19271156E+04 0.32000000E+00 0.0000E+00 0.9000E+01
       -2 -1    0    0    0  501 0.00000000E+00 0.00000000E+00 -.35386444E+02 0.35387891E+02 0.32000000E+00 0.0000E+00 0.9000E+01
       25  2    1    2    0    0 -.52062068E+02 0.79495992E+02 0.73932815E+03 0.80331041E+03 0.29945190E+03 0.0000E+00 0.0000E+00
       23  2    1    2    0    0 0.52062068E+02 -.79495992E+02 0.11524010E+04 0.11591931E+04 0.81673067E+02 0.0000E+00 0.0000E+00
       23  1    3    3    0    0 0.18777126E+02 0.12547463E+03 0.22335289E+03 0.27257701E+03 0.91188000E+02 0.0000E+00 0.9000E+01
      -11  1    4    4    0    0 0.48313273E+02 -.73716462E+02 0.11471505E+04 0.11505315E+04 0.51099893E-03 0.0000E+00 0.9000E+01
       11  1    4    4    0    0 0.37487953E+01 -.57795299E+01 0.52504533E+01 0.86616217E+01 0.51099893E-03 0.0000E+00 0.9000E+01
       23  1    3    3    0    0 -.70839194E+02 -.45978638E+02 0.51597526E+03 0.53073340E+03 0.91188000E+02 0.0000E+00 0.9000E+01
#aMCatNLO 1  0  0  2  1 0.52228067D+02 0.00000000D+00  -5  7  0 0.00000000D+00 0.00000000D+00 0.00000000D+00 0.00000000D+00 0.00000000D+00
  <mgrwgt>
 0.2548642384D-03    9    2    0
 0.261142131576587D+03 0.000000000000000D+00 0.000000000000000D+00 0.261142131576587D+03
 0.261142131576587D+03 0.000000000000000D+00 0.000000000000000D+00 -.261142131576587D+03
 0.215227951690821D+03 0.187771255609488D+02 0.125474630495091D+03 -.148024850963665D+03
 0.168153491063317D+03 0.483132727824152D+02 -.737164622871778D+02 0.143203726968596D+03
 0.135290836915213D+02 0.374879525226468D+01 -.577952986342459D+01 -.116438685258194D+02
 0.125373736707514D+03 -.708391935956287D+02 -.459786383444885D+02 0.164649925208888D+02
 0.000000000000000D+00 0.000000000000000D+00 -.000000000000000D+00 -.000000000000000D+00
 0.275983330423294D+03 0.000000000000000D+00 0.000000000000000D+00 0.275983330423294D+03
 0.312814259243503D+03 0.000000000000000D+00 0.000000000000000D+00 -.312814259243503D+03
 0.214974962703924D+03 -.265878236750549D+01 0.126414230287024D+03 -.148024850963665D+03
 0.163842686996546D+03 0.317707546651161D+02 -.729913543685894D+02 0.143203726968596D+03
 0.131967336488545D+02 0.241711631506596D+01 -.572115840295326D+01 -.116438685258194D+02
 0.132874769276889D+03 -.837070543462489D+02 -.454146016204900D+02 0.164649925208888D+02
 0.639084370405835D+02 0.521779657335723D+02 -.228711589499097D+01 -.368309288202084D+02
0.151987698419D-05 0.000000000000D+00 0.000000000000D+00 0.303443009652D-08 0.000000000000D+00  7 2 -2 23 -11 11 23 21 0 0.29647943D+00 0.54441816D-02 0.35260790D+05 0.35260790D+05 0.35260790D+05 0.11608808D+01  1  2  2  2  7  2       -2 0.228363051716D-03 0.100000000000D+01
-.732709726799D-07 0.000000000000D+00 -.583672781208D-08 0.303443009652D-08 0.000000000000D+00  7 2 -2 23 -11 11 23 21 2 0.29647943D+00 0.54441816D-02 0.35260790D+05 0.35260790D+05 0.35260790D+05 0.11608808D+01  1  2  3  2  7  2       -2 -.148362663421D-04 0.100000000000D+01
0.942669767484D-07 0.000000000000D+00 0.000000000000D+00 0.303443009652D-08 0.000000000000D+00  7 2 -2 23 -11 11 23 21 2 0.29647943D+00 0.54441816D-02 0.35260790D+05 0.35260790D+05 0.35260790D+05 0.11608808D+01  1  2 15  2  7  2       -2 0.190876403458D-04 0.100000000000D+01
0.210196201514D-05 0.000000000000D+00 0.000000000000D+00 0.303443009652D-08 0.000000000000D+00  7 2 -2 23 -11 11 23 21 2 0.29647943D+00 0.66539174D-02 0.45324154D+05 0.45324154D+05 0.45324154D+05 0.11510650D+01  1  2 12  2  7  2       -2 0.310049328961D-03 0.100000000000D+01
-.222006923905D-05 0.000000000000D+00 0.000000000000D+00 0.303443009652D-08 0.000000000000D+00  7 2 -2 23 -11 11 23 21 2 0.29647943D+00 0.54441816D-02 0.35260790D+05 0.35260790D+05 0.35260790D+05 0.11608808D+01  1  2  4  2  7  2       -2 -.449530521074D-03 0.100000000000D+01
-.343107198944D-05 0.000000000000D+00 -.955752060647D-06 0.303443009652D-08 0.000000000000D+00  7 2 -2 23 -11 11 23 21 2 0.29647943D+00 0.69369516D-02 0.35260790D+05 0.35260790D+05 0.35260790D+05 0.11608808D+01  1  2  5  2  7  2       -2 -.485202274177D-03 0.100000000000D+01
0.358430877911D-05 0.000000000000D+00 0.928363291596D-06 0.303443009652D-08 0.000000000000D+00  7 2 -2 23 -11 11 23 21 2 0.29647943D+00 0.54441816D-02 0.35260790D+05 0.35260790D+05 0.35260790D+05 0.11608808D+01  1  2  6  2  7  2       -2 0.725768442182D-03 0.100000000000D+01
0.603032148398D-07 0.000000000000D+00 0.000000000000D+00 0.303443009652D-08 0.000000000000D+00  7 2 21 23 -11 11 23 2 2 0.29647943D+00 0.66539174D-02 0.45324154D+05 0.45324154D+05 0.45324154D+05 0.11510650D+01  1  2 12  4  7  2       -2 0.140994160019D-03 0.100000000000D+01
-.982528310981D-07 0.000000000000D+00 -.316074797104D-07 0.303443009652D-08 0.000000000000D+00  7 2 21 23 -11 11 23 2 2 0.29647943D+00 0.69369516D-02 0.35260790D+05 0.35260790D+05 0.35260790D+05 0.11608808D+01  1  2  5  4  7  2       -2 -.219829323256D-03 0.100000000000D+01
  </mgrwgt>
  </event>
  <event>
  8     66 0.55102590E-06 0.19010155E+03 0.75467711E-02 0.96254806E-01
        2 -1    0    0  501    0 0.00000000E+00 0.00000000E+00 0.20287670E+04 0.20287671E+04 0.32000000E+00 0.0000E+00 0.9000E+01
       -2 -1    0    0    0  501 0.00000000E+00 0.00000000E+00 -.46674740E+02 0.46675837E+02 0.32000000E+00 0.0000E+00 0.9000E+01
       25  2    1    2    0    0 -.21252369E+03 -.34408877E+02 0.13548585E+04 0.14042908E+04 0.30006793E+03 0.0000E+00 0.0000E+00
       23  2    1    2    0    0 0.21252369E+03 0.34408877E+02 0.62723377E+03 0.67115209E+03 0.10330844E+03 0.0000E+00 0.0000E+00
       23  1    3    3    0    0 -.96704152E+02 0.88083084E+02 0.40440670E+03 0.43470721E+03 0.91188000E+02 0.0000E+00 0.9000E+01
      -13  1    4    4    0    0 0.61002730E+02 -.36879741E+02 0.19404741E+03 0.20672653E+03 0.10565837E+00 0.0000E+00 0.9000E+01
       13  1    4    4    0    0 0.15152096E+03 0.71288618E+02 0.43318636E+03 0.46442556E+03 0.10565837E+00 0.0000E+00 0.9000E+01
       23  1    3    3    0    0 -.11581954E+03 -.12249196E+03 0.95045181E+03 0.96958359E+03 0.91188000E+02 0.0000E+00 0.9000E+01
#aMCatNLO 1  0  0  2  1 0.23720183D+03 0.00000000D+00  -5  7  0 0.00000000D+00 0.00000000D+00 0.00000000D+00 0.00000000D+00 0.00000000D+00
  <mgrwgt>
 0.8963815294D-04    7    2    0
 0.307722825164991D+03 0.000000000000000D+00 0.000000000000000D+00 0.307722825164991D+03
 0.307722825164991D+03 0.000000000000000D+00 0.000000000000000D+00 -.307722825164991D+03
 0.163521486914714D+03 -.967042026103763D+02 0.880830760788531D+02 -.362449202617025D+02
 0.721901656667996D+02 0.610026785294822D+02 -.368796565509310D+02 -.114010597715297D+02
 0.171052376927387D+03 0.151521124045760D+03 0.712885519478436D+02 -.349028219718381D+02
 0.208681620821082D+03 -.115819599964866D+03 -.122491971475766D+03 0.825488020050703D+02
 0.000000000000000D+00 -.000000000000000D+00 -.000000000000000D+00 -.000000000000000D+00
 0.398188549776068D+03 0.000000000000000D+00 0.000000000000000D+00 0.398188549776068D+03
 0.535428503453549D+03 0.000000000000000D+00 0.000000000000000D+00 -.535428503453549D+03
 0.202684024798615D+03 -.856287087521402D+02 0.155304837520374D+03 -.362449202617025D+02
 0.671636531033239D+02 0.652172856682149D+02 -.112994594711470D+02 -.114010597715297D+02
 0.219921047754123D+03 0.163345696929806D+03 0.143056784383648D+03 -.349028219718381D+02
 0.169805422783872D+03 -.104372664315929D+03 -.530157758967233D+02 0.825488020050703D+02
 0.274042904789683D+03 -.385616095299518D+02 -.234046386536151D+03 -.137239953677481D+03
0.109345806052D-05 0.000000000000D+00 0.000000000000D+00 0.204170764989D-08 0.000000000000D+00  7 2 -2 23 -13 13 23 21 0 0.31211809D+00 0.71808155D-02 0.86981410D+05 0.86981410D+05 0.86981410D+05 0.11267270D+01  1  2  2  2  7  2       -2 0.949736047046D-04 0.100000000000D+01
-.606144191983D-07 0.000000000000D+00 -.419916686651D-08 0.204170764989D-08 0.000000000000D+00  7 2 -2 23 -13 13 23 21 2 0.31211809D+00 0.71808155D-02 0.86981410D+05 0.86981410D+05 0.86981410D+05 0.11267270D+01  1  2  3  2  7  2       -2 -.668365631003D-05 0.100000000000D+01
0.708358022862D-07 0.000000000000D+00 0.000000000000D+00 0.204170764989D-08 0.000000000000D+00  7 2 -2 23 -13 13 23 21 2 0.31211809D+00 0.71808155D-02 0.86981410D+05 0.86981410D+05 0.86981410D+05 0.11267270D+01  1  2 15  2  7  2       -2 0.781071836022D-05 0.100000000000D+01
0.348599529673D-07 0.000000000000D+00 0.000000000000D+00 0.204170764989D-08 0.000000000000D+00  7 2 -2 23 -13 13 23 21 2 0.31211809D+00 0.12912277D-01 0.18849985D+06 0.18849985D+06 0.18849985D+06 0.10998061D+01  1  2 12  2  7  2       -2 0.145350610878D-05 0.100000000000D+01
-.270772818184D-06 0.000000000000D+00 -.346454687532D-06 0.204170764989D-08 0.000000000000D+00  7 2 -2 23 -13 13 23 21 2 0.31211809D+00 0.17063868D-01 0.86981410D+05 0.86981410D+05 0.86981410D+05 0.11267270D+01  1  2  5  2  7  2       -2 -.776268582613D-05 0.100000000000D+01
0.224387170433D-08 0.000000000000D+00 0.000000000000D+00 0.204170764989D-08 0.000000000000D+00  7 2 21 23 -13 13 23 2 2 0.31211809D+00 0.12912277D-01 0.18849985D+06 0.18849985D+06 0.18849985D+06 0.10998061D+01  1  2 12  4  7  2       -2 0.128582796236D-05 0.100000000000D+01
-.378318002478D-08 0.000000000000D+00 -.327648947092D-07 0.204170764989D-08 0.000000000000D+00  7 2 21 23 -13 13 23 2 2 0.31211809D+00 0.17063868D-01 0.86981410D+05 0.86981410D+05 0.86981410D+05 0.11267270D+01  1  2  5  4  7  2       -2 -.143916206344D-05 0.100000000000D+01
  </mgrwgt>
  </event>
  <event>
  8     66 0.55102590E-06 0.13052658E+03 0.75467711E-02 0.10068847E+00
        2 -1    0    0  501    0 0.00000000E+00 0.00000000E+00 0.44913597E+03 0.44913609E+03 0.32000000E+00 0.0000E+00 0.9000E+01
       -2 -1    0    0    0  501 0.00000000E+00 0.00000000E+00 -.28745918E+03 0.28745936E+03 0.32000000E+00 0.0000E+00 0.9000E+01
       25  2    1    2    0    0 0.80222391E+02 -.16754086E+03 -.13272344E+03 0.37728111E+03 0.30036637E+03 0.0000E+00 0.0000E+00
       23  2    1    2    0    0 -.80222391E+02 0.16754086E+03 0.29440023E+03 0.35931434E+03 0.89049001E+02 0.0000E+00 0.0000E+00
       23  1    3    3    0    0 0.12380537E+03 -.18179248E+03 -.13777546E+03 0.27508836E+03 0.91188000E+02 0.0000E+00 0.9000E+01
      -11  1    4    4    0    0 -.49419537E+02 0.98436855E+02 0.92946917E+02 0.14412229E+03 0.51099893E-03 0.0000E+00 0.9000E+01
       11  1    4    4    0    0 -.30802854E+02 0.69104006E+02 0.20145331E+03 0.21519205E+03 0.51099893E-03 0.0000E+00 0.9000E+01
       23  1    3    3    0    0 -.43582979E+02 0.14251620E+02 0.50520201E+01 0.10219275E+03 0.91188000E+02 0.0000E+00 0.9000E+01
#aMCatNLO 1  0  0  1  2 0.71240899D+02 0.00000000D+00  -5  7  0 0.00000000D+00 0.00000000D+00 0.00000000D+00 0.00000000D+00 0.00000000D+00
  <mgrwgt>
 0.1656680217D-03    9    2    0
 0.359316527856378D+03 0.000000000000000D+00 0.000000000000000D+00 0.359316527856378D+03
 0.359316527856378D+03 0.000000000000000D+00 0.000000000000000D+00 -.359316527856378D+03
 0.312960730106655D+03 0.123805370454380D+03 -.181792481522051D+03 -.203108077519332D+03
 0.126813625761885D+03 -.494195366127237D+02 0.984368554125214D+02 0.628457681658323D+02
 0.175248209659000D+03 -.308028544679688D+02 0.691040060607363D+02 0.158075157730959D+03
 0.103610490185216D+03 -.435829793736876D+02 0.142516200487931D+02 -.178128483774600D+02
 0.000000000000000D+00 -.000000000000000D+00 -.000000000000000D+00 0.000000000000000D+00
 0.411404681729062D+03 0.000000000000000D+00 0.000000000000000D+00 0.411404681729062D+03
 0.386289317264208D+03 0.000000000000000D+00 0.000000000000000D+00 -.386289317264208D+03
 0.302692037809971D+03 0.135685782787562D+03 -.153765066270856D+03 -.203108077519332D+03
 0.134507821979340D+03 -.443767483521013D+02 0.110333439187612D+03 0.628457681658323D+02
 0.181222798382857D+03 -.239239402795482D+02 0.853322462117728D+02 0.158075157730959D+03
 0.103732958339149D+03 -.395818186684590D+02 0.236908709289162D+02 -.178128483774600D+02
 0.755383824819521D+02 -.278032754874530D+02 -.655914900574460D+02 0.251153644648538D+02
0.272556727647D-05 0.000000000000D+00 0.000000000000D+00 0.157700148053D-06 0.000000000000D+00  7 2 -2 23 -11 11 23 21 0 0.69097865D-01 0.44224512D-01 0.69161576D+05 0.69161576D+05 0.69161576D+05 0.11351048D+01  1  2  2  1  7  1        2 0.113312788934D-03 0.100000000000D+01
-.133487001388D-06 0.000000000000D+00 -.104668960000D-07 0.157700148053D-06 0.000000000000D+00  7 2 -2 23 -11 11 23 21 2 0.69097865D-01 0.44224512D-01 0.69161576D+05 0.69161576D+05 0.69161576D+05 0.11351048D+01  1  2  3  1  7  1        2 -.715044201508D-05 0.100000000000D+01
0.169906041133D-06 0.000000000000D+00 0.000000000000D+00 0.157700148053D-06 0.000000000000D+00  7 2 -2 23 -11 11 23 21 2 0.69097865D-01 0.44224512D-01 0.69161576D+05 0.69161576D+05 0.69161576D+05 0.11351048D+01  1  2 15  1  7  1        2 0.910128538735D-05 0.100000000000D+01
0.318930790790D-05 0.000000000000D+00 0.000000000000D+00 0.157700148053D-06 0.000000000000D+00  7 2 -2 23 -11 11 23 21 2 0.81412736D-01 0.44224512D-01 0.91630482D+05 0.91630482D+05 0.91630482D+05 0.11248505D+01  1  2 12  1  7  1        2 0.139434917722D-03 0.100000000000D+01
-.315528933551D-05 0.000000000000D+00 0.000000000000D+00 0.157700148053D-06 0.000000000000D+00  7 2 -2 23 -11 11 23 21 2 0.69097865D-01 0.44224512D-01 0.69161576D+05 0.69161576D+05 0.69161576D+05 0.11351048D+01  1  2  4  1  7  1        2 -.169018055689D-03 0.100000000000D+01
-.685126562833D-05 0.000000000000D+00 -.202707965399D-05 0.157700148053D-06 0.000000000000D+00  7 2 -2 23 -11 11 23 21 2 0.83876089D-01 0.44224512D-01 0.69161576D+05 0.69161576D+05 0.69161576D+05 0.11351048D+01  1  2  5  1  7  1        2 -.296069440596D-03 0.100000000000D+01
0.714697563511D-05 0.000000000000D+00 0.198959306164D-05 0.157700148053D-06 0.000000000000D+00  7 2 -2 23 -11 11 23 21 2 0.69097865D-01 0.44224512D-01 0.69161576D+05 0.69161576D+05 0.69161576D+05 0.11351048D+01  1  2  6  1  7  1        2 0.382839035491D-03 0.100000000000D+01
0.781578861927D-07 0.000000000000D+00 0.000000000000D+00 0.157700148053D-06 0.000000000000D+00  7 21 -2 23 -11 11 23 -2 2 0.81412736D-01 0.44224512D-01 0.91630482D+05 0.91630482D+05 0.91630482D+05 0.11248505D+01  1  2 12  3  7  1        2 0.625378618892D-05 0.100000000000D+01
-.169267591534D-06 0.000000000000D+00 -.566240096201D-07 0.157700148053D-06 0.000000000000D+00  7 21 -2 23 -11 11 23 -2 2 0.83876089D-01 0.44224512D-01 0.69161576D+05 0.69161576D+05 0.69161576D+05 0.11351048D+01  1  2  5  3  7  1        2 -.130358537649D-04 0.100000000000D+01
  </mgrwgt>
  </event>
  <event>
  8     66 0.55102590E-06 0.12269273E+03 0.75467711E-02 0.99584699E-01
        2 -1    0    0  501    0 0.00000000E+00 0.00000000E+00 0.19786853E+04 0.19786854E+04 0.32000000E+00 0.0000E+00 0.9000E+01
       -2 -1    0    0    0  501 0.00000000E+00 0.00000000E+00 -.84715469E+02 0.84716073E+02 0.32000000E+00 0.0000E+00 0.9000E+01
       25  2    1    2    0    0 -.14306289E+02 -.16686046E+03 0.18293962E+04 0.18614114E+04 0.30019146E+03 0.0000E+00 0.0000E+00
       23  2    1    2    0    0 0.14306289E+02 0.16686046E+03 0.64573689E+02 0.20199004E+03 0.92645194E+02 0.0000E+00 0.0000E+00
       23  1    3    3    0    0 0.72640972E+02 0.49995771E+01 0.92055454E+03 0.92792112E+03 0.91188000E+02 0.0000E+00 0.9000E+01
      -13  1    4    4    0    0 0.79927513E+01 0.39582968E+02 -.23835076E+02 0.46891550E+02 0.10565837E+00 0.0000E+00 0.9000E+01
       13  1    4    4    0    0 0.63135380E+01 0.12727749E+03 0.88408766E+02 0.15509849E+03 0.10565837E+00 0.0000E+00 0.9000E+01
       23  1    3    3    0    0 -.86947262E+02 -.17186004E+03 0.90884164E+03 0.93349027E+03 0.91188000E+02 0.0000E+00 0.9000E+01
#aMCatNLO 1  0  0  2  1 0.12937658D+03 0.00000000D+00  -5  7  0 0.00000000D+00 0.00000000D+00 0.00000000D+00 0.00000000D+00 0.00000000D+00
  <mgrwgt>
 0.1772400061D-03    9    2    0
 0.409421428407724D+03 0.000000000000000D+00 0.000000000000000D+00 0.409421428407724D+03
 0.409421428407724D+03 0.000000000000000D+00 0.000000000000000D+00 -.409421428407724D+03
 0.209040384688797D+03 0.726409723756879D+02 0.499957698574818D+01 0.173438532192584D+03
 0.173292094786508D+03 0.799275346197909D+01 0.395828546142056D+02 -.168521404065427D+03
 0.186344580647667D+03 0.631353580302886D+01 0.127277608687373D+03 -.135959009739122D+03
 0.250165796692476D+03 -.869472616406959D+02 -.171860040287327D+03 0.131041881611964D+03
 0.000000000000000D+00 -.000000000000000D+00 -.000000000000000D+00 -.000000000000000D+00
 0.461871110348689D+03 0.000000000000000D+00 0.000000000000000D+00 0.461871110348689D+03
 0.502836815051265D+03 0.000000000000000D+00 0.000000000000000D+00 -.502836815051265D+03
 0.222831839080536D+03 0.105035018132143D+03 0.150165801991021D+02 0.173438532192584D+03
 0.178495845723478D+03 0.343798050347521D+02 0.477423535042982D+02 -.168521404065427D+03
 0.195550054346990D+03 0.349588424453220D+02 0.136135413323467D+03 -.135959009739122D+03
 0.232122818640757D+03 -.507715628736768D+02 -.160673660743415D+03 0.131041881611964D+03
 0.135707367608193D+03 -.123602102738540D+03 -.382206862834522D+02 -.409657047025759D+02
0.449747978054D-05 0.000000000000D+00 0.000000000000D+00 0.450851753913D-06 0.000000000000D+00  7 2 -2 23 -13 13 23 21 0 0.30441318D+00 0.13033198D-01 0.61902942D+05 0.61902942D+05 0.61902942D+05 0.11392262D+01  1  2  2  2  7  2       -2 0.167626662691D-03 0.100000000000D+01
-.174492757077D-06 0.000000000000D+00 -.172715065709D-07 0.450851753913D-06 0.000000000000D+00  7 2 -2 23 -13 13 23 21 2 0.30441318D+00 0.13033198D-01 0.61902942D+05 0.61902942D+05 0.61902942D+05 0.11392262D+01  1  2  3  2  7  2       -2 -.844055854539D-05 0.100000000000D+01
0.270857074504D-06 0.000000000000D+00 0.000000000000D+00 0.450851753913D-06 0.000000000000D+00  7 2 -2 23 -13 13 23 21 2 0.30441318D+00 0.13033198D-01 0.61902942D+05 0.61902942D+05 0.61902942D+05 0.11392262D+01  1  2 15  2  7  2       -2 0.131018904915D-04 0.100000000000D+01
0.182315038359D-05 0.000000000000D+00 0.000000000000D+00 0.450851753913D-06 0.000000000000D+00  7 2 -2 23 -13 13 23 21 2 0.30441318D+00 0.16688109D-01 0.10898638D+06 0.10898638D+06 0.10898638D+06 0.11186681D+01  1  2 12  2  7  2       -2 0.564161756902D-04 0.100000000000D+01
-.299121350758D-05 0.000000000000D+00 0.000000000000D+00 0.450851753913D-06 0.000000000000D+00  7 2 -2 23 -13 13 23 21 2 0.30441318D+00 0.13033198D-01 0.61902942D+05 0.61902942D+05 0.61902942D+05 0.11392262D+01  1  2  4  2  7  2       -2 -.144690892364D-03 0.100000000000D+01
-.369729904937D-05 0.000000000000D+00 -.213403812269D-05 0.450851753913D-06 0.000000000000D+00  7 2 -2 23 -13 13 23 21 2 0.30441318D+00 0.18392004D-01 0.61902942D+05 0.61902942D+05 0.61902942D+05 0.11392262D+01  1  2  5  2  7  2       -2 -.103226499750D-03 0.100000000000D+01
0.429559522712D-05 0.000000000000D+00 0.201343362397D-05 0.450851753913D-06 0.000000000000D+00  7 2 -2 23 -13 13 23 21 2 0.30441318D+00 0.13033198D-01 0.61902942D+05 0.61902942D+05 0.61902942D+05 0.11392262D+01  1  2  6  2  7  2       -2 0.207786406778D-03 0.100000000000D+01
0.611897138981D-07 0.000000000000D+00 0.000000000000D+00 0.450851753913D-06 0.000000000000D+00  7 2 21 23 -13 13 23 2 2 0.30441318D+00 0.16688109D-01 0.10898638D+06 0.10898638D+06 0.10898638D+06 0.11186681D+01  1  2 12  4  7  2       -2 0.250990017523D-04 0.100000000000D+01
-.989281646733D-07 0.000000000000D+00 -.911245505776D-07 0.450851753913D-06 0.000000000000D+00  7 2 21 23 -13 13 23 2 2 0.30441318D+00 0.18392004D-01 0.61902942D+05 0.61902942D+05 0.61902942D+05 0.11392262D+01  1  2  5  4  7  2       -2 -.364321806557D-04 0.100000000000D+01
  </mgrwgt>
  </event>
  <event>
  8     66 0.55102590E-06 0.37988491E+03 0.75467711E-02 0.96535203E-01
        2 -1    0    0  502    0 0.00000000E+00 0.00000000E+00 0.27172923E+04 0.27172924E+04 0.32000000E+00 0.0000E+00 0.9000E+01
       -2 -1    0    0    0  501 0.00000000E+00 0.00000000E+00 -.95268362E+02 0.95268900E+02 0.32000000E+00 0.0000E+00 0.9000E+01
       25  2    1    2    0    0 0.30776952E+03 0.27314679E+02 0.14145881E+04 0.14789209E+04 0.30113010E+03 0.0000E+00 0.0000E+00
       23  1    3    3    0    0 0.22279206E+03 0.12664185E+03 0.90347518E+03 0.94353437E+03 0.91188000E+02 0.0000E+00 0.9000E+01
      -11  1    1    2    0    0 -.60548869E+01 0.61323153E+02 0.10171537E+03 0.11892522E+03 0.51099893E-03 0.0000E+00 0.9000E+01
       11  1    1    2    0    0 -.27023310E+03 -.10264256E+02 0.29729790E+03 0.40189218E+03 0.51099893E-03 0.0000E+00 0.9000E+01
       23  1    3    3    0    0 0.84977460E+02 -.99327171E+02 0.51111290E+03 0.53538650E+03 0.91188000E+02 0.0000E+00 0.9000E+01
       21  1    1    2  502  501 -.31481530E+02 -.78373575E+02 0.80842262E+03 0.81282298E+03 0.75000000E+00 0.0000E+00 0.9000E+01
#aMCatNLO 2  0  0  1  2 0.84460074D+02 0.00000000D+00  -5  7  0 0.00000000D+00 0.00000000D+00 0.00000000D+00 0.00000000D+00 0.00000000D+00
  <mgrwgt>
 0.1463830455D-04    2    2    0
 0.419127004567027D+03 0.000000000000000D+00 0.000000000000000D+00 0.419127004567027D+03
 0.419127004567027D+03 0.000000000000000D+00 0.000000000000000D+00 -.419127004567027D+03
 0.275976943178163D+03 0.212103068033492D+03 0.100031496158559D+03 0.113375527028646D+03
 0.581359253431482D+02 -.832986350442395D+01 0.556595830905650D+02 -.145742924248918D+02
 0.326644546064703D+03 -.282231766818823D+03 -.401350429544895D+02 -.159471212446581D+03
 0.177496594548040D+03 0.784585622897553D+02 -.115556036294634D+03 0.606699778428267D+02
 0.000000000000000D+00 -.000000000000000D+00 -.000000000000000D+00 0.000000000000000D+00
 0.600342641907837D+03 0.000000000000000D+00 0.000000000000000D+00 0.600342641907837D+03
 0.431206912971904D+03 0.000000000000000D+00 0.000000000000000D+00 -.431206912971904D+03
 0.294692589555177D+03 0.222792061723729D+03 0.126641849712498D+03 0.113375527028646D+03
 0.633214013950686D+02 -.605489257173782D+01 0.613231453114878D+02 -.145742924248918D+02
 0.313946415085802D+03 -.270233101480997D+03 -.102642491204024D+02 -.159471212446581D+03
 0.170537836039125D+03 0.849774626675506D+02 -.993271705226889D+02 0.606699778428267D+02
 0.189051312804569D+03 -.314815303385453D+02 -.783735753808942D+02 0.169135728935933D+03
-.384567358305D-04 0.000000000000D+00 0.000000000000D+00 0.644850202723D-10 0.000000000000D+00  7 2 -2 23 -11 11 23 21 2 0.42084646D+00 0.14246094D-01 0.17973398D+06 0.17973398D+06 0.17973398D+06 0.11014069D+01  1  2 13  1  7  1        2 -.547140720242D-03 0.100000000000D+01
0.403071307960D-04 0.000000000000D+00 0.000000000000D+00 0.644850202723D-10 0.620407767981D-13  7 2 -2 23 -11 11 23 21 2 0.41804431D+00 0.14656689D-01 0.17973398D+06 0.17973398D+06 0.17973398D+06 0.11014069D+01  1  2  1  1  7  1        2 0.561779024796D-03 0.100000000000D+01
  </mgrwgt>
  </event>
  <event>
  8     66 0.55102590E-06 0.14964105E+03 0.75467711E-02 0.10194051E+00
        2 -1    0    0  501    0 0.00000000E+00 0.00000000E+00 0.15082223E+04 0.15082223E+04 0.32000000E+00 0.0000E+00 0.9000E+01
       -2 -1    0    0    0  501 0.00000000E+00 0.00000000E+00 -.57469224E+02 0.57470114E+02 0.32000000E+00 0.0000E+00 0.9000E+01
       25  2    1    2    0    0 0.13802036E+03 -.12880031E+03 0.11097591E+04 0.11649349E+04 0.29978165E+03 0.0000E+00 0.0000E+00
       23  2    1    2    0    0 -.13802036E+03 0.12880031E+03 0.34099397E+03 0.40075749E+03 0.93223058E+02 0.0000E+00 0.0000E+00
       23  1    3    3    0    0 0.18876697E+02 -.36862779E+02 0.10584959E+03 0.14572090E+03 0.91188000E+02 0.0000E+00 0.9000E+01
      -11  1    4    4    0    0 -.88171000E+02 0.87420789E+02 0.29846019E+03 0.32325687E+03 0.51099893E-03 0.0000E+00 0.9000E+01
       11  1    4    4    0    0 -.49849358E+02 0.41379523E+02 0.42533778E+02 0.77500618E+02 0.51099893E-03 0.0000E+00 0.9000E+01
       23  1    3    3    0    0 0.11914366E+03 -.91937533E+02 0.10039095E+04 0.10192140E+04 0.91188000E+02 0.0000E+00 0.9000E+01
#aMCatNLO 1  0  0  1  2 0.77296067D+02 0.00000000D+00  -5  7  0 0.00000000D+00 0.00000000D+00 0.00000000D+00 0.00000000D+00 0.00000000D+00
  <mgrwgt>
 0.3249661524D-03    9    2    0
 0.294409726358164D+03 0.000000000000000D+00 0.000000000000000D+00 0.294409726358164D+03
 0.294409726358164D+03 0.000000000000000D+00 0.000000000000000D+00 -.294409726358164D+03
 0.126681441646748D+03 0.188766973892569D+02 -.368627787556624D+02 -.775741074829998D+02
 0.124195628778355D+03 -.881710000058791D+02 0.874207889195562D+02 -.283454234341267D+01
 0.101280826552989D+03 -.498493580626911D+02 0.413795230339744D+02 -.778497424624833D+02
 0.236661555738237D+03 0.119143660679313D+03 -.919375331978682D+02 0.158258392288896D+03
 0.000000000000000D+00 -.000000000000000D+00 -.000000000000000D+00 0.000000000000000D+00
 0.338644214771354D+03 0.000000000000000D+00 0.000000000000000D+00 0.338644214771354D+03
 0.332747659047046D+03 0.000000000000000D+00 0.000000000000000D+00 -.332747659047046D+03
 0.129036135555044D+03 0.351187023242164D+02 -.329242696237703D+02 -.775741074829998D+02
 0.116717109233632D+03 -.728693303963726D+02 0.911312769862432D+02 -.283454234341267D+01
 0.970703014074490D+02 -.372510062620795D+02 0.444344860026592D+02 -.778497424624833D+02
 0.251047677044822D+03 0.150120709079224D+03 -.844259366621776D+02 0.158258392288896D+03
 0.775206505774528D+02 -.751190747449882D+02 -.182155567029544D+02 0.589655572430753D+01
0.160351183250D-05 0.000000000000D+00 0.000000000000D+00 0.107924192827D-06 0.000000000000D+00  7 2 -2 23 -11 11 23 21 0 0.23203427D+00 0.88414902D-02 0.54071215D+05 0.54071215D+05 0.54071215D+05 0.11443171D+01  1  2  2  1  7  1        2 0.193409933255D-03 0.100000000000D+01
-.830542545683D-07 0.000000000000D+00 -.615790765116D-08 0.107924192827D-06 0.000000000000D+00  7 2 -2 23 -11 11 23 21 2 0.23203427D+00 0.88414902D-02 0.54071215D+05 0.54071215D+05 0.54071215D+05 0.11443171D+01  1  2  3  1  7  1        2 -.131178069339D-04 0.100000000000D+01
0.101236460108D-06 0.000000000000D+00 0.000000000000D+00 0.107924192827D-06 0.000000000000D+00  7 2 -2 23 -11 11 23 21 2 0.23203427D+00 0.88414902D-02 0.54071215D+05 0.54071215D+05 0.54071215D+05 0.11443171D+01  1  2 15  1  7  1        2 0.159895521942D-04 0.100000000000D+01
0.105995354967D-05 0.000000000000D+00 0.000000000000D+00 0.107924192827D-06 0.000000000000D+00  7 2 -2 23 -11 11 23 21 2 0.27996970D+00 0.88414902D-02 0.75613731D+05 0.75613731D+05 0.75613731D+05 0.11318225D+01  1  2 12  1  7  1        2 0.111526360811D-03 0.100000000000D+01
-.997116070410D-06 0.000000000000D+00 0.000000000000D+00 0.107924192827D-06 0.000000000000D+00  7 2 -2 23 -11 11 23 21 2 0.23203427D+00 0.88414902D-02 0.54071215D+05 0.54071215D+05 0.54071215D+05 0.11443171D+01  1  2  4  1  7  1        2 -.157487128989D-03 0.100000000000D+01
-.277546743613D-05 0.000000000000D+00 -.921489000700D-06 0.107924192827D-06 0.000000000000D+00  7 2 -2 23 -11 11 23 21 2 0.28599770D+00 0.88414902D-02 0.54071215D+05 0.54071215D+05 0.54071215D+05 0.11443171D+01  1  2  5  1  7  1        2 -.286083756173D-03 0.100000000000D+01
0.292378336809D-05 0.000000000000D+00 0.901704783277D-06 0.107924192827D-06 0.000000000000D+00  7 2 -2 23 -11 11 23 21 2 0.23203427D+00 0.88414902D-02 0.54071215D+05 0.54071215D+05 0.54071215D+05 0.11443171D+01  1  2  6  1  7  1        2 0.461790018325D-03 0.100000000000D+01
0.288942626925D-07 0.000000000000D+00 0.000000000000D+00 0.107924192827D-06 0.000000000000D+00  7 21 -2 23 -11 11 23 -2 2 0.27996970D+00 0.88414902D-02 0.75613731D+05 0.75613731D+05 0.75613731D+05 0.11318225D+01  1  2 12  3  7  1        2 0.790417811303D-06 0.100000000000D+01
-.707175921212D-07 0.000000000000D+00 -.272815367948D-07 0.107924192827D-06 0.000000000000D+00  7 21 -2 23 -11 11 23 -2 2 0.28599770D+00 0.88414902D-02 0.54071215D+05 0.54071215D+05 0.54071215D+05 0.11443171D+01  1  2  5  3  7  1        2 -.185143786348D-05 0.100000000000D+01
  </mgrwgt>
  </event>
  <event>
  8     66 0.55102590E-06 0.33330766E+03 0.75467711E-02 0.95700423E-01
        2 -1    0    0  501    0 0.00000000E+00 0.00000000E+00 0.12250952E+04 0.12250952E+04 0.32000000E+00 0.0000E+00 0.9000E+01
       -2 -1    0    0    0  501 0.00000000E+00 0.00000000E+00 -.20211435E+03 0.20211461E+03 0.32000000E+00 0.0000E+00 0.9000E+01
       25  2    1    2    0    0 0.39161050E+03 0.28779241E+02 0.86073409E+03 0.99272496E+03 0.30075347E+03 0.0000E+00 0.0000E+00
       23  2    1    2    0    0 -.39161050E+03 -.28779241E+02 0.16224674E+03 0.43448487E+03 0.90917910E+02 0.0000E+00 0.0000E+00
       23  1    3    3    0    0 0.10522255E+03 -.92560028E+02 0.34893802E+03 0.38692653E+03 0.91188000E+02 0.0000E+00 0.9000E+01
      -13  1    4    4    0    0 -.21947351E+03 0.22176216E+02 0.63260490E+02 0.22948269E+03 0.10565837E+00 0.0000E+00 0.9000E+01
       13  1    4    4    0    0 -.17213699E+03 -.50955457E+02 0.98986253E+02 0.20500218E+03 0.10565837E+00 0.0000E+00 0.9000E+01
       23  1    3    3    0    0 0.28638795E+03 0.12133927E+03 0.51179607E+03 0.60579843E+03 0.91188000E+02 0.0000E+00 0.9000E+01
#aMCatNLO 1  0  0  2  1 0.18573561D+02 0.00000000D+00  -5  7  0 0.00000000D+00 0.00000000D+00 0.00000000D+00 0.00000000D+00 0.00000000D+00
  <mgrwgt>
 0.9948103607D-04    9    2    0
 0.497603787857949D+03 0.000000000000000D+00 0.000000000000000D+00 0.497603787857949D+03
 0.497603787857949D+03 0.000000000000000D+00 0.000000000000000D+00 -.497603787857949D+03
 0.196208752300196D+03 0.105222548242141D+03 -.925600280470070D+02 0.102681447616244D+03
 0.264071321877524D+03 -.219473570517204D+03 0.221763150462403D+02 -.145166201071540D+03
 0.192241289333078D+03 -.172136930449509D+03 -.509555559524881D+02 -.687686106987631D+02
 0.342686212205098D+03 0.286387952724572D+03 0.121339268953255D+03 0.111253364154059D+03
 0.000000000000000D+00 0.000000000000000D+00 0.000000000000000D+00 -.000000000000000D+00
 0.505242603588927D+03 0.000000000000000D+00 0.000000000000000D+00 0.505242603588927D+03
 0.509110251725097D+03 0.000000000000000D+00 0.000000000000000D+00 -.509110251725097D+03
 0.194388268029215D+03 0.101584806456751D+03 -.927825135247754D+02 0.102681447616244D+03
 0.268180437516663D+03 -.224430583409578D+03 0.218731425159378D+02 -.145166201071540D+03
 0.195539420087372D+03 -.175748443125764D+03 -.511764372493603D+02 -.687686106987631D+02
 0.337272754188286D+03 0.280055300359958D+03 0.120951961862757D+03 0.111253364154059D+03
 0.189719754924882D+02 0.185389197186323D+02 0.113384639544079D+01 -.386764813617051D+01
0.307583650518D-05 0.000000000000D+00 0.000000000000D+00 0.327669616395D-06 0.000000000000D+00  7 2 -2 23 -13 13 23 21 0 0.18847620D+00 0.31094538D-01 0.19866252D+06 0.19866252D+06 0.19866252D+06 0.10980493D+01  1  2  2  2  7  2       -2 0.670133000261D-04 0.100000000000D+01
-.168360236185D-06 0.000000000000D+00 -.118120220663D-07 0.327669616395D-06 0.000000000000D+00  7 2 -2 23 -13 13 23 21 2 0.18847620D+00 0.31094538D-01 0.19866252D+06 0.19866252D+06 0.19866252D+06 0.10980493D+01  1  2  3  2  7  2       -2 -.442263329726D-05 0.100000000000D+01
0.192996298745D-06 0.000000000000D+00 0.000000000000D+00 0.327669616395D-06 0.000000000000D+00  7 2 -2 23 -13 13 23 21 2 0.18847620D+00 0.31094538D-01 0.19866252D+06 0.19866252D+06 0.19866252D+06 0.10980493D+01  1  2 15  2  7  2       -2 0.506979484240D-05 0.100000000000D+01
0.431802060441D-05 0.000000000000D+00 0.000000000000D+00 0.327669616395D-06 0.000000000000D+00  7 2 -2 23 -13 13 23 21 2 0.18847620D+00 0.32047635D-01 0.20728274D+06 0.20728274D+06 0.20728274D+06 0.10966344D+01  1  2 12  2  7  2       -2 0.107071198052D-03 0.100000000000D+01
-.376211434310D-05 0.000000000000D+00 0.000000000000D+00 0.327669616395D-06 0.000000000000D+00  7 2 -2 23 -13 13 23 21 2 0.18847620D+00 0.31094538D-01 0.19866252D+06 0.19866252D+06 0.19866252D+06 0.10980493D+01  1  2  4  2  7  2       -2 -.988264957267D-04 0.100000000000D+01
-.731325922442D-04 0.000000000000D+00 -.106204561023D-04 0.327669616395D-06 0.000000000000D+00  7 2 -2 23 -13 13 23 21 2 0.18847620D+00 0.32293002D-01 0.19866252D+06 0.19866252D+06 0.19866252D+06 0.10980493D+01  1  2  5  2  7  2       -2 -.179549987233D-02 0.100000000000D+01
0.734892714262D-04 0.000000000000D+00 0.106128657812D-04 0.327669616395D-06 0.000000000000D+00  7 2 -2 23 -13 13 23 21 2 0.18847620D+00 0.31094538D-01 0.19866252D+06 0.19866252D+06 0.19866252D+06 0.10980493D+01  1  2  6  2  7  2       -2 0.193048017849D-02 0.100000000000D+01
0.889771129798D-07 0.000000000000D+00 0.000000000000D+00 0.327669616395D-06 0.000000000000D+00  7 2 21 23 -13 13 23 2 2 0.18847620D+00 0.32047635D-01 0.20728274D+06 0.20728274D+06 0.20728274D+06 0.10966344D+01  1  2 12  4  7  2       -2 0.253519745335D-04 0.100000000000D+01
-.484956136477D-06 0.000000000000D+00 -.712149039820D-07 0.327669616395D-06 0.000000000000D+00  7 2 21 23 -13 13 23 2 2 0.18847620D+00 0.32293002D-01 0.19866252D+06 0.19866252D+06 0.19866252D+06 0.10980493D+01  1  2  5  4  7  2       -2 -.136756408514D-03 0.100000000000D+01
  </mgrwgt>
  </event>
  <event>
  9     66 0.55102590E-06 0.49555755E+03 0.75467711E-02 0.90112822E-01
        2 -1    0    0  502    0 0.00000000E+00 0.00000000E+00 0.92386919E+03 0.92386924E+03 0.32000000E+00 0.0000E+00 0.9000E+01
       -2 -1    0    0    0  501 0.00000000E+00 0.00000000E+00 -.96046752E+03 0.96046758E+03 0.32000000E+00 0.0000E+00 0.9000E+01
       25  2    1    2    0    0 -.28032921E+03 -.15049891E+03 -.21465436E+03 0.48789091E+03 0.30120866E+03 0.0000E+00 0.0000E+00
       23  2    1    2    0    0 0.67566955E+03 -.70592455E+02 0.49340574E+03 0.84452076E+03 0.90848507E+02 0.0000E+00 0.0000E+00
       23  1    3    3    0    0 -.21371961E+03 -.14410776E+03 -.35074579E+02 0.27566029E+03 0.91188000E+02 0.0000E+00 0.9000E+01
      -11  1    4    4    0    0 0.16413167E+03 -.27813884E+02 0.76416499E+02 0.18317286E+03 0.51099893E-03 0.0000E+00 0.9000E+01
       11  1    4    4    0    0 0.51153788E+03 -.42778571E+02 0.41698924E+03 0.66134789E+03 0.51099893E-03 0.0000E+00 0.9000E+01
       23  1    3    3    0    0 -.66609601E+02 -.63911489E+01 -.17957979E+03 0.21223062E+03 0.91188000E+02 0.0000E+00 0.9000E+01
       21  1    1    2  502  501 -.39534034E+03 0.22109136E+03 -.31534971E+03 0.55192515E+03 0.75000000E+00 0.0000E+00 0.9000E+01
#aMCatNLO 2  0  0  1  2 0.45296288D+03 0.00000000D+00  -5  7  0 0.00000000D+00 0.00000000D+00 0.00000000D+00 0.00000000D+00 0.00000000D+00
  <mgrwgt>
 0.7037442921D-05    1    2    0
 0.610827952094088D+03 0.000000000000000D+00 0.000000000000000D+00 0.610827952094088D+03
 0.610827952094088D+03 0.000000000000000D+00 0.000000000000000D+00 -.610827952094088D+03
 0.351736585040571D+03 -.314119594400198D+03 -.879597584147092D+02 -.948437410981031D+02
 0.124194691134337D+03 0.117910083385162D+03 -.196478081421921D+01 0.389573250931010D+02
 0.452878582170396D+03 0.348680725717969D+03 0.482981718733288D+02 0.284935165072956D+03
 0.292846045842872D+03 -.152471214702933D+03 0.416263673555997D+02 -.229048749067954D+03
 0.000000000000000D+00 -.000000000000000D+00 0.000000000000000D+00 -.000000000000000D+00
 0.747121014350390D+03 0.000000000000000D+00 0.000000000000000D+00 0.747121014350390D+03
 0.118768707038368D+04 0.000000000000000D+00 0.000000000000000D+00 -.118768707038368D+04
 0.289402322668159D+03 -.213719610532599D+03 -.144107757841261D+03 -.948437410981031D+02
 0.170969265902624D+03 0.164131668393493D+03 -.278138838575479D+02 0.389573250931010D+02
 0.587102256292623D+03 0.511537882176386D+03 -.427785711219267D+02 0.284935165072956D+03
 0.255453061180196D+03 -.666096005693173D+02 -.639114893697945D+01 -.229048749067954D+03
 0.631881178690464D+03 -.395340339467963D+03 0.221091361757715D+03 -.440566056033286D+03
0.592970751802D-05 0.000000000000D+00 0.000000000000D+00 0.565224846181D-06 0.211889821467D-10  7 2 -2 23 -11 11 23 21 2 0.14213369D+00 0.14776420D+00 0.57705573D+06 0.57705573D+06 0.57705573D+06 0.10641387D+01  1  2  1  1  7  1        2 0.703744292112D-05 0.100000000000D+01
  </mgrwgt>
  </event>
  <event>
  8     66 0.55102590E-06 0.19215488E+03 0.75467711E-02 0.99732039E-01
        2 -1    0    0  501    0 0.00000000E+00 0.00000000E+00 0.35751632E+03 0.35751647E+03 0.32000000E+00 0.0000E+00 0.9000E+01
       -2 -1    0    0    0  501 0.00000000E+00 0.00000000E+00 -.28896692E+03 0.28896710E+03 0.32000000E+00 0.0000E+00 0.9000E+01
       25  2    1    2    0    0 0.15227919E+02 0.20968358E+03 -.77762026E+02 0.37433605E+03 0.29980236E+03 0.0000E+00 0.0000E+00
       23  2    1    2    0    0 -.15227919E+02 -.20968358E+03 0.14631143E+03 0.27214752E+03 0.91968164E+02 0.0000E+00 0.0000E+00
       23  1    3    3    0    0 0.15004600E+02 -.33629884E+02 0.12786986E+02 0.99170890E+02 0.91188000E+02 0.0000E+00 0.9000E+01
      -13  1    4    4    0    0 0.13816162E+02 -.87354680E+02 0.13852872E+02 0.89518935E+02 0.10565837E+00 0.0000E+00 0.9000E+01
       13  1    4    4    0    0 -.29044081E+02 -.12232890E+03 0.13245856E+03 0.18262858E+03 0.10565837E+00 0.0000E+00 0.9000E+01
       23  1    3    3    0    0 0.22331920E+00 0.24331346E+03 -.90549012E+02 0.27516516E+03 0.91188000E+02 0.0000E+00 0.9000E+01
#aMCatNLO 1  0  0  1  2 0.77959159D+02 0.00000000D+00  -5  7  0 0.00000000D+00 0.00000000D+00 0.00000000D+00 0.00000000D+00 0.00000000D+00
  <mgrwgt>
 0.1886985155D-03    9    2    0
 0.321419501355056D+03 0.000000000000000D+00 0.000000000000000D+00 0.321419501355056D+03
 0.321419501355056D+03 0.000000000000000D+00 0.000000000000000D+00 -.321419501355056D+03
 0.983695923400393D+02 0.150045997201517D+02 -.336298836321339D+02 0.228435270321167D+01
 0.885491470627500D+02 0.138162179563211D+02 -.873546336866100D+02 0.438537802271694D+01
 0.169539325236882D+03 -.290441369127908D+02 -.122328946979783D+03 0.113734997443996D+03
 0.286380938070440D+03 0.223319236317982D+00 0.243313464298527D+03 -.120404728169925D+03
 0.000000000000000D+00 0.000000000000000D+00 -.000000000000000D+00 0.000000000000000D+00
 0.374433300287114D+03 0.000000000000000D+00 0.000000000000000D+00 0.374433300287114D+03
 0.353767407800112D+03 0.000000000000000D+00 0.000000000000000D+00 -.353767407800112D+03
 0.948678890067878D+02 0.139794713069279D+02 -.220004803427178D+02 0.228435270321167D+01
 0.784979397988673D+02 0.129300300703345D+02 -.773014187104267D+02 0.438537802271694D+01
 0.156312864797771D+03 -.307727888088286D+02 -.102718535457957D+03 0.113734997443996D+03
 0.317870234238881D+03 -.298224441075905D+01 0.279678462030386D+03 -.120404728169925D+03
 0.806517802449183D+02 0.684553184232521D+01 -.776580275192848D+02 0.206658924870017D+02
0.240733593265D-05 0.000000000000D+00 0.000000000000D+00 0.442716098634D-06 0.000000000000D+00  7 2 -2 23 -13 13 23 21 0 0.55002536D-01 0.44456474D-01 0.81896988D+05 0.81896988D+05 0.81896988D+05 0.11289097D+01  1  2  2  1  7  1        2 0.126868585369D-03 0.100000000000D+01
-.131547589324D-06 0.000000000000D+00 -.924480384749D-08 0.442716098634D-06 0.000000000000D+00  7 2 -2 23 -13 13 23 21 2 0.55002536D-01 0.44456474D-01 0.81896988D+05 0.81896988D+05 0.81896988D+05 0.11289097D+01  1  2  3  1  7  1        2 -.883524663707D-05 0.100000000000D+01
0.155197299804D-06 0.000000000000D+00 0.000000000000D+00 0.442716098634D-06 0.000000000000D+00  7 2 -2 23 -13 13 23 21 2 0.55002536D-01 0.44456474D-01 0.81896988D+05 0.81896988D+05 0.81896988D+05 0.11289097D+01  1  2 15  1  7  1        2 0.104236529777D-04 0.100000000000D+01
0.220221737582D-05 0.000000000000D+00 0.000000000000D+00 0.442716098634D-06 0.000000000000D+00  7 2 -2 23 -13 13 23 21 2 0.66469270D-01 0.44456474D-01 0.10646772D+06 0.10646772D+06 0.10646772D+06 0.11194953D+01  1  2 12  1  7  1        2 0.118056756377D-03 0.100000000000D+01
-.212248839041D-05 0.000000000000D+00 0.000000000000D+00 0.442716098634D-06 0.000000000000D+00  7 2 -2 23 -13 13 23 21 2 0.55002536D-01 0.44456474D-01 0.81896988D+05 0.81896988D+05 0.81896988D+05 0.11289097D+01  1  2  4  1  7  1        2 -.142554557707D-03 0.100000000000D+01
-.501109993091D-05 0.000000000000D+00 -.154555601834D-05 0.442716098634D-06 0.000000000000D+00  7 2 -2 23 -13 13 23 21 2 0.69533307D-01 0.44456474D-01 0.81896988D+05 0.81896988D+05 0.81896988D+05 0.11289097D+01  1  2  5  1  7  1        2 -.260642626443D-03 0.100000000000D+01
0.526947821958D-05 0.000000000000D+00 0.150403856640D-05 0.442716098634D-06 0.000000000000D+00  7 2 -2 23 -13 13 23 21 2 0.55002536D-01 0.44456474D-01 0.81896988D+05 0.81896988D+05 0.81896988D+05 0.11289097D+01  1  2  6  1  7  1        2 0.353918608147D-03 0.100000000000D+01
0.604197137417D-07 0.000000000000D+00 0.000000000000D+00 0.442716098634D-06 0.000000000000D+00  7 21 -2 23 -13 13 23 -2 2 0.66469270D-01 0.44456474D-01 0.10646772D+06 0.10646772D+06 0.10646772D+06 0.11194953D+01  1  2 12  3  7  1        2 0.756778147018D-05 0.100000000000D+01
-.138402668049D-06 0.000000000000D+00 -.498707155084D-07 0.442716098634D-06 0.000000000000D+00  7 21 -2 23 -13 13 23 -2 2 0.69533307D-01 0.44456474D-01 0.81896988D+05 0.81896988D+05 0.81896988D+05 0.11289097D+01  1  2  5  3  7  1        2 -.161044380875D-04 0.100000000000D+01
  </mgrwgt>
  </event>
  <event>
  8     66 0.55102590E-06 0.24711916E+03 0.75467711E-02 0.85873766E-01
        2 -1    0    0  501    0 0.00000000E+00 0.00000000E+00 0.15360715E+04 0.15360715E+04 0.32000000E+00 0.0000E+00 0.9000E+01
       -2 -1    0    0    0  501 0.00000000E+00 0.00000000E+00 -.25514220E+03 0.25514241E+03 0.32000000E+00 0.0000E+00 0.9000E+01
       25  2    1    2    0    0 0.18466898E+03 0.12953912E+02 -.12213109E+03 0.37305324E+03 0.29997046E+03 0.0000E+00 0.0000E+00
       23  2    1    2    0    0 -.18466898E+03 -.12953912E+02 0.14030603E+04 0.14181607E+04 0.91273725E+02 0.0000E+00 0.0000E+00
       23  1    3    3    0    0 0.10143280E+03 -.63709665E+02 0.39555728E+02 0.15565166E+03 0.91188000E+02 0.0000E+00 0.9000E+01
      -13  1    4    4    0    0 -.14931023E+03 -.39154186E+02 0.12275580E+04 0.12372248E+04 0.10565837E+00 0.0000E+00 0.9000E+01
       13  1    4    4    0    0 -.35358746E+02 0.26200273E+02 0.17550238E+03 0.18093588E+03 0.10565837E+00 0.0000E+00 0.9000E+01
       23  1    3    3    0    0 0.83236184E+02 0.76663578E+02 -.16168682E+03 0.21740157E+03 0.91188000E+02 0.0000E+00 0.9000E+01
#aMCatNLO 1  0  0  2  2 0.11085851D+04 0.00000000D+00  -5  7  0 0.00000000D+00 0.00000000D+00 0.00000000D+00 0.00000000D+00 0.00000000D+00
  <mgrwgt>
 0.4299045302D-03    3    2    0
 0.626032640762877D+03 0.000000000000000D+00 0.000000000000000D+00 0.626032640762877D+03
 0.626032640762877D+03 0.000000000000000D+00 0.000000000000000D+00 -.626032640762877D+03
 0.182208816872416D+03 0.101432795211735D+03 -.637096654632998D+02 -.102651196700936D+03
 0.514126583697683D+03 -.149310385603303D+03 -.391542730654566D+02 0.490407479262255D+03
 0.792993758849207D+02 -.353585937580753D+02 0.262003607263108D+02 0.659674310626124D+02
 0.476430505070735D+03 0.832361841496436D+02 0.766635778024456D+02 -.453723713623931D+03
 0.000000000000000D+00 0.000000000000000D+00 -.000000000000000D+00 0.000000000000000D+00
 0.177013049399334D+04 0.000000000000000D+00 0.000000000000000D+00 0.177013049399334D+04
 0.116511617821286D+04 0.000000000000000D+00 0.000000000000000D+00 -.116511617821286D+04
 0.137402979444880D+03 0.160411542007280D+01 0.494833769207761D+01 -.102651196700936D+03
 0.775969871998356D+03 -.552263679130001D+03 0.237980199274188D+03 0.490407479262255D+03
 0.144856219625449D+03 -.105372145903375D+03 0.743527623622251D+02 0.659674310626124D+02
 0.614083219847143D+03 -.257378732782784D+03 0.310924314199246D+03 -.453723713623931D+03
 0.126293438129037D+04 0.913410442396087D+03 -.628205613527738D+03 0.605014315780481D+03
0.395648141348D-04 0.000000000000D+00 0.000000000000D+00 0.395625644293D-05 0.000000000000D+00  7 2 -2 23 -13 13 23 21 0 0.23631870D+00 0.39252665D-01 0.61067881D+05 0.61067881D+05 0.61067881D+05 0.11397342D+01  1  2  2  2  7  2       -2 0.396549520329D-03 0.100000000000D+01
0.111075669442D-06 0.000000000000D+00 -.151939303932D-06 0.395625644293D-05 0.000000000000D+00  7 2 -2 23 -13 13 23 21 2 0.23631870D+00 0.39252665D-01 0.61067881D+05 0.61067881D+05 0.61067881D+05 0.11397342D+01  1  2  3  2  7  2       -2 0.144615347091D-05 0.100000000000D+01
0.245084471245D-05 0.000000000000D+00 0.000000000000D+00 0.395625644293D-05 0.000000000000D+00  7 2 -2 23 -13 13 23 21 2 0.23631870D+00 0.39252665D-01 0.61067881D+05 0.61067881D+05 0.61067881D+05 0.11397342D+01  1  2 15  2  7  2       -2 0.319088564163D-04 0.100000000000D+01
  </mgrwgt>
  </event>
  <event>
  8     66 0.55102590E-06 0.29167523E+03 0.75467711E-02 0.93023337E-01
        2 -1    0    0  501    0 0.00000000E+00 0.00000000E+00 0.68996315E+03 0.68996323E+03 0.32000000E+00 0.0000E+00 0.9000E+01
       -2 -1    0    0    0  501 0.00000000E+00 0.00000000E+00 -.35639666E+03 0.35639681E+03 0.32000000E+00 0.0000E+00 0.9000E+01
       25  2    1    2    0    0 -.22980926E+03 0.24820435E+02 0.58225555E+03 0.69501143E+03 0.30098342E+03 0.0000E+00 0.0000E+00
       23  2    1    2    0    0 0.22980926E+03 -.24820435E+02 -.24868905E+03 0.35134860E+03 0.90394927E+02 0.0000E+00 0.0000E+00
       23  1    3    3    0    0 0.11862547E+02 -.54948228E+01 0.28761174E+03 0.30200443E+03 0.91188000E+02 0.0000E+00 0.9000E+01
      -11  1    4    4    0    0 0.22444839E+03 -.23942310E+02 -.19766527E+03 0.30003646E+03 0.51099893E-03 0.0000E+00 0.9000E+01
       11  1    4    4    0    0 0.53608698E+01 -.87812527E+00 -.51023779E+02 0.51312143E+02 0.51099893E-03 0.0000E+00 0.9000E+01
       23  1    3    3    0    0 -.24167181E+03 0.30315258E+02 0.29464381E+03 0.39300700E+03 0.91188000E+02 0.0000E+00 0.9000E+01
#aMCatNLO 1  0  0  2  2 0.47770144D+03 0.00000000D+00  -5  7  0 0.00000000D+00 0.00000000D+00 0.00000000D+00 0.00000000D+00 0.00000000D+00
  <mgrwgt>
 0.5190106289D-03    3    2    0
 0.495883735113617D+03 0.000000000000000D+00 0.000000000000000D+00 0.495883735113617D+03
 0.495883735113617D+03 0.000000000000000D+00 0.000000000000000D+00 -.495883735113617D+03
 0.221894482272536D+03 0.118625474302823D+02 -.549482283529229D+01 0.201868761351206D+03
 0.383034008966981D+03 0.224448392185702D+03 -.239423096071424D+02 -.309458780908292D+03
 0.712977597074691D+02 0.536086983838791D+01 -.878125265348730D+00 -.710905092814661D+02
 0.315541219280247D+03 -.241671809454373D+03 0.303152577077834D+02 0.178680528838552D+03
 0.000000000000000D+00 0.000000000000000D+00 0.000000000000000D+00 0.000000000000000D+00
 0.103698740700864D+04 0.000000000000000D+00 0.000000000000000D+00 0.103698740700864D+04
 0.667655916599892D+03 0.000000000000000D+00 0.000000000000000D+00 -.667655916599892D+03
 0.241367772441042D+03 -.908898064213961D+02 -.305155125855996D+02 0.201868761351206D+03
 0.322839392821334D+03 0.678844744111276D+02 -.620663726177562D+02 -.309458780908292D+03
 0.767286202150617D+02 -.274716323014352D+02 -.887299661352855D+01 -.710905092814661D+02
 0.459882718293733D+03 -.413662154033438D+03 -.115652140327768D+02 0.178680528838552D+03
 0.603824819837357D+03 0.464139118345142D+03 0.113020095849661D+03 0.369331490408744D+03
0.300386068591D-04 0.000000000000D+00 0.000000000000D+00 0.429874208796D-06 0.000000000000D+00  7 2 -2 23 -11 11 23 21 0 0.10614819D+00 0.54830272D-01 0.85074441D+05 0.85074441D+05 0.85074441D+05 0.11275288D+01  1  2  2  2  7  2       -2 0.503150708890D-03 0.100000000000D+01
-.109734888158D-05 0.000000000000D+00 -.115356159686D-06 0.429874208796D-06 0.000000000000D+00  7 2 -2 23 -11 11 23 21 2 0.10614819D+00 0.54830272D-01 0.85074441D+05 0.85074441D+05 0.85074441D+05 0.11275288D+01  1  2  3  2  7  2       -2 -.233678248676D-04 0.100000000000D+01
0.184212789203D-05 0.000000000000D+00 0.000000000000D+00 0.429874208796D-06 0.000000000000D+00  7 2 -2 23 -11 11 23 21 2 0.10614819D+00 0.54830272D-01 0.85074441D+05 0.85074441D+05 0.85074441D+05 0.11275288D+01  1  2 15  2  7  2       -2 0.392277448743D-04 0.100000000000D+01
  </mgrwgt>
  </event>
  <event>
  8     66 0.55102590E-06 0.21010480E+03 0.75467711E-02 0.94224409E-01
        2 -1    0    0  501    0 0.00000000E+00 0.00000000E+00 0.12161295E+04 0.12161296E+04 0.32000000E+00 0.0000E+00 0.9000E+01
       -2 -1    0    0    0  501 0.00000000E+00 0.00000000E+00 -.20087198E+03 0.20087223E+03 0.32000000E+00 0.0000E+00 0.9000E+01
       25  2    1    2    0    0 0.18955948E+03 0.39964818E+03 0.49416551E+03 0.72778715E+03 0.29970504E+03 0.0000E+00 0.0000E+00
       23  2    1    2    0    0 -.18955948E+03 -.39964818E+03 0.52109205E+03 0.68921466E+03 0.88478568E+02 0.0000E+00 0.0000E+00
       23  1    3    3    0    0 0.12346166E+03 0.33110259E+03 0.22679693E+03 0.42967872E+03 0.91188000E+02 0.0000E+00 0.9000E+01
      -11  1    4    4    0    0 -.56030716E+02 -.75422682E+02 0.66539387E+02 0.11513259E+03 0.51099893E-03 0.0000E+00 0.9000E+01
       11  1    4    4    0    0 -.13352877E+03 -.32422550E+03 0.45455266E+03 0.57408208E+03 0.51099893E-03 0.0000E+00 0.9000E+01
       23  1    3    3    0    0 0.66097826E+02 0.68545593E+02 0.26736858E+03 0.29810842E+03 0.91188000E+02 0.0000E+00 0.9000E+01
#aMCatNLO 1  0  0  2  1 0.92671325D+02 0.00000000D+00  -5  7  0 0.00000000D+00 0.00000000D+00 0.00000000D+00 0.00000000D+00 0.00000000D+00
  <mgrwgt>
 0.2839385287D-03    9    2    0
 0.494253530429665D+03 0.000000000000000D+00 0.000000000000000D+00 0.494253530429665D+03
 0.494253530429665D+03 0.000000000000000D+00 0.000000000000000D+00 -.494253530429665D+03
 0.383000028340812D+03 0.123461659129427D+03 0.331102591489232D+03 -.116198377782081D+03
 0.966998306006821D+02 -.560307156779048D+02 -.754226823518719D+02 -.228655882424015D+02
 0.356079716193952D+03 -.133528769081937D+03 -.324225501661437D+03 0.619730278800202D+02
 0.152727485723883D+03 0.660978256304143D+02 0.685455925240769D+02 0.770909381444627D+02
 0.000000000000000D+00 0.000000000000000D+00 0.000000000000000D+00 -.000000000000000D+00
 0.516296385105952D+03 0.000000000000000D+00 0.000000000000000D+00 0.516296385105952D+03
 0.604442037543496D+03 0.000000000000000D+00 0.000000000000000D+00 -.604442037543496D+03
 0.351584050083734D+03 0.112902302746665D+03 0.298407607082317D+03 -.116198377782081D+03
 0.105466779613819D+03 -.589367809584487D+02 -.844207458311920D+02 -.228655882424015D+02
 0.390412954262258D+03 -.144259306778006D+03 -.357450515566974D+03 0.619730278800202D+02
 0.145377685714673D+03 0.618126813736601D+02 0.552774803799811D+02 0.770909381444627D+02
 0.127896952974964D+03 0.284811036161293D+02 0.881861739358676D+02 -.881456524375439D+02
0.972604644680D-05 0.000000000000D+00 0.000000000000D+00 0.210128842927D-06 0.000000000000D+00  7 2 -2 23 -11 11 23 21 0 0.18709687D+00 0.30903404D-01 0.22155570D+06 0.22155570D+06 0.22155570D+06 0.10944275D+01  1  2  2  2  7  2       -2 0.216164718485D-03 0.100000000000D+01
-.538769202196D-06 0.000000000000D+00 -.373505792825D-07 0.210128842927D-06 0.000000000000D+00  7 2 -2 23 -11 11 23 21 2 0.18709687D+00 0.30903404D-01 0.22155570D+06 0.22155570D+06 0.22155570D+06 0.10944275D+01  1  2  3  2  7  2       -2 -.143425126406D-04 0.100000000000D+01
0.597753287619D-06 0.000000000000D+00 0.000000000000D+00 0.210128842927D-06 0.000000000000D+00  7 2 -2 23 -11 11 23 21 2 0.18709687D+00 0.30903404D-01 0.22155570D+06 0.22155570D+06 0.22155570D+06 0.10944275D+01  1  2 15  2  7  2       -2 0.159127211591D-04 0.100000000000D+01
0.179367616820D-04 0.000000000000D+00 0.000000000000D+00 0.210128842927D-06 0.000000000000D+00  7 2 -2 23 -11 11 23 21 2 0.18709687D+00 0.38373131D-01 0.26841419D+06 0.26841419D+06 0.26841419D+06 0.10881447D+01  1  2 12  2  7  2       -2 0.316524146745D-03 0.100000000000D+01
-.183032028790D-04 0.000000000000D+00 0.000000000000D+00 0.210128842927D-06 0.000000000000D+00  7 2 -2 23 -11 11 23 21 2 0.18709687D+00 0.30903404D-01 0.22155570D+06 0.22155570D+06 0.22155570D+06 0.10944275D+01  1  2  4  2  7  2       -2 -.487247447674D-03 0.100000000000D+01
-.293817851693D-04 0.000000000000D+00 -.603939501220D-05 0.210128842927D-06 0.000000000000D+00  7 2 -2 23 -11 11 23 21 2 0.18709687D+00 0.39225054D-01 0.22155570D+06 0.22155570D+06 0.22155570D+06 0.10944275D+01  1  2  5  2  7  2       -2 -.506467177825D-03 0.100000000000D+01
0.301289890178D-04 0.000000000000D+00 0.587167644753D-05 0.210128842927D-06 0.000000000000D+00  7 2 -2 23 -11 11 23 21 2 0.18709687D+00 0.30903404D-01 0.22155570D+06 0.22155570D+06 0.22155570D+06 0.10944275D+01  1  2  6  2  7  2       -2 0.802060333209D-03 0.100000000000D+01
0.545209076477D-06 0.000000000000D+00 0.000000000000D+00 0.210128842927D-06 0.000000000000D+00  7 2 21 23 -11 11 23 2 2 0.18709687D+00 0.38373131D-01 0.26841419D+06 0.26841419D+06 0.26841419D+06 0.10881447D+01  1  2 12  4  7  2       -2 0.105958295898D-03 0.100000000000D+01
-.866527308594D-06 0.000000000000D+00 -.197357650203D-06 0.210128842927D-06 0.000000000000D+00  7 2 21 23 -11 11 23 2 2 0.18709687D+00 0.39225054D-01 0.22155570D+06 0.22155570D+06 0.22155570D+06 0.10944275D+01  1  2  5  4  7  2       -2 -.164624548661D-03 0.100000000000D+01
  </mgrwgt>
  </event>
  <event>
  8     66 0.55102590E-06 0.23871144E+03 0.75467711E-02 0.97004128E-01
        2 -1    0    0  501    0 0.00000000E+00 0.00000000E+00 0.11231856E+04 0.11231856E+04 0.32000000E+00 0.0000E+00 0.9000E+01
       -2 -1    0    0    0  501 0.00000000E+00 0.00000000E+00 -.26054099E+03 0.26054119E+03 0.32000000E+00 0.0000E+00 0.9000E+01
       25  2    1    2    0    0 -.43713307E+02 0.11712217E+03 -.15065255E+03 0.35872807E+03 0.30060137E+03 0.0000E+00 0.0000E+00
       23  2    1    2    0    0 0.43713307E+02 -.11712217E+03 0.10132972E+04 0.10249988E+04 0.90680160E+02 0.0000E+00 0.0000E+00
       23  1    3    3    0    0 -.14240162E+03 0.58163445E+02 -.83937690E+02 0.19753986E+03 0.91188000E+02 0.0000E+00 0.9000E+01
      -11  1    4    4    0    0 0.69842418E+02 -.76668853E+02 0.59900237E+03 0.60791440E+03 0.51099893E-03 0.0000E+00 0.9000E+01
       11  1    4    4    0    0 -.26129111E+02 -.40453312E+02 0.41429479E+03 0.41708437E+03 0.51099893E-03 0.0000E+00 0.9000E+01
       23  1    3    3    0    0 0.98688317E+02 0.58958720E+02 -.66714860E+02 0.16118821E+03 0.91188000E+02 0.0000E+00 0.9000E+01
#aMCatNLO 1  0  0  2  2 0.25614346D+03 0.00000000D+00  -5  7  0 0.00000000D+00 0.00000000D+00 0.00000000D+00 0.00000000D+00 0.00000000D+00
  <mgrwgt>
 0.3812386623D-03    3    2    0
 0.540958464050502D+03 0.000000000000000D+00 0.000000000000000D+00 0.540958464050502D+03
 0.540958464050502D+03 0.000000000000000D+00 0.000000000000000D+00 -.540958464050502D+03
 0.319571301296461D+03 -.142401624296891D+03 0.581634452936954D+02 -.264857237578073D+03
 0.299894838842262D+03 0.698424183666817D+02 -.766688529906257D+02 0.281390898825853D+03
 0.203104014970667D+03 -.261291114279761D+02 -.404533122453563D+02 0.197312037041760D+03
 0.259346772991615D+03 0.986883173581854D+02 0.589587199422866D+02 -.213845698289540D+03
 0.000000000000000D+00 0.000000000000000D+00 0.000000000000000D+00 0.000000000000000D+00
 0.148310133144407D+04 0.000000000000000D+00 0.000000000000000D+00 0.148310133144407D+04
 0.573602673439530D+03 0.000000000000000D+00 0.000000000000000D+00 -.573602673439530D+03
 0.331084774858374D+03 -.176224967944704D+03 -.986312194084913D+01 -.264857237578073D+03
 0.317076359609156D+03 0.377701306700097D+02 -.141173641697533D+03 0.281390898825853D+03
 0.220048316145685D+03 -.481260269033583D+02 -.846941970354505D+02 0.197312037041760D+03
 0.243615047040382D+03 0.725426297912509D+02 0.637369488724741D+01 -.213845698289540D+03
 0.944879507230007D+03 0.114038234386802D+03 0.229357265786585D+03 0.909498658004543D+03
0.219745848280D-04 0.000000000000D+00 0.000000000000D+00 0.797563754503D-06 0.000000000000D+00  7 2 -2 23 -11 11 23 21 0 0.17279780D+00 0.40083248D-01 0.56983151D+05 0.56983151D+05 0.56983151D+05 0.11423346D+01  1  2  2  2  7  2       -2 0.357791358758D-03 0.100000000000D+01
-.227399850315D-06 0.000000000000D+00 -.843881917807D-07 0.797563754503D-06 0.000000000000D+00  7 2 -2 23 -11 11 23 21 2 0.17279780D+00 0.40083248D-01 0.56983151D+05 0.56983151D+05 0.56983151D+05 0.11423346D+01  1  2  3  2  7  2       -2 -.483154469935D-05 0.100000000000D+01
0.133096271619D-05 0.000000000000D+00 0.000000000000D+00 0.797563754503D-06 0.000000000000D+00  7 2 -2 23 -11 11 23 21 2 0.17279780D+00 0.40083248D-01 0.56983151D+05 0.56983151D+05 0.56983151D+05 0.11423346D+01  1  2 15  2  7  2       -2 0.282788482381D-04 0.100000000000D+01
  </mgrwgt>
  </event>
  <event>
  8     66 0.55102590E-06 0.41571976E+03 0.75467711E-02 0.95086128E-01
        2 -1    0    0  501    0 0.00000000E+00 0.00000000E+00 0.25074929E+04 0.25074929E+04 0.32000000E+00 0.0000E+00 0.9000E+01
       -2 -1    0    0    0  501 0.00000000E+00 0.00000000E+00 -.10252196E+03 0.10252246E+03 0.32000000E+00 0.0000E+00 0.9000E+01
       25  2    1    2    0    0 -.31927672E+03 0.18995159E+03 0.61206919E+03 0.77673072E+03 0.30110244E+03 0.0000E+00 0.0000E+00
       23  2    1    2    0    0 0.31927672E+03 -.18995159E+03 0.17929017E+04 0.18332846E+04 0.91742719E+02 0.0000E+00 0.0000E+00
       23  1    3    3    0    0 -.25553078E+03 0.21465342E+03 0.35582711E+03 0.49628646E+03 0.91188000E+02 0.0000E+00 0.9000E+01
      -11  1    4    4    0    0 0.11015999E+03 -.66274188E+02 0.42659558E+03 0.44554604E+03 0.51099893E-03 0.0000E+00 0.9000E+01
       11  1    4    4    0    0 0.20911673E+03 -.12367741E+03 0.13663061E+04 0.13877386E+04 0.51099893E-03 0.0000E+00 0.9000E+01
       23  1    3    3    0    0 -.63745939E+02 -.24701822E+02 0.25624208E+03 0.28044426E+03 0.91188000E+02 0.0000E+00 0.9000E+01
#aMCatNLO 1  0  0  1  2 0.11972630D+03 0.00000000D+00  -5  7  0 0.00000000D+00 0.00000000D+00 0.00000000D+00 0.00000000D+00 0.00000000D+00
  <mgrwgt>
 0.2609972898D-03    4    2    0
 0.507024418303364D+03 0.000000000000000D+00 0.000000000000000D+00 0.507024418303364D+03
 0.507024418303364D+03 0.000000000000000D+00 0.000000000000000D+00 -.507024418303364D+03
 0.433471667382109D+03 -.255530782366920D+03 0.214653417249945D+03 -.261171140834696D+03
 0.135034974938872D+03 0.110159986922838D+03 -.662741875712331D+02 0.413152974051394D+02
 0.331436191543620D+03 0.209116734402007D+03 -.123677407349403D+03 0.225441875811282D+03
 0.114106002742125D+03 -.637459389579247D+02 -.247018223293087D+02 -.558603238172523D+01
 0.000000000000000D+00 -.000000000000000D+00 -.000000000000000D+00 -.000000000000000D+00
 0.526035926513895D+03 0.000000000000000D+00 0.000000000000000D+00 0.526035926513895D+03
 0.741898342296978D+03 0.000000000000000D+00 0.000000000000000D+00 -.741898342296978D+03
 0.409781122279961D+03 -.206325562948605D+03 0.220963151005024D+03 -.261171140834696D+03
 0.147878345169037D+03 0.126668455276500D+03 -.641572568625166D+02 0.413152974051394D+02
 0.356370393693937D+03 0.249251406185944D+03 -.118530817286442D+03 0.225441875811282D+03
 0.107062412405728D+03 -.508403897214824D+02 -.230469048102394D+02 -.558603238172523D+01
 0.246841995262211D+03 -.118753908792357D+03 -.152281720458268D+02 -.215862415783082D+03
0.208118945103D-04 0.000000000000D+00 0.000000000000D+00 0.399793640345D-06 0.000000000000D+00  7 2 -2 23 -11 11 23 21 0 0.38576817D+00 0.15772649D-01 0.17282292D+06 0.17282292D+06 0.17282292D+06 0.11027304D+01  1  2  2  1  7  1        2 0.282238371382D-03 0.100000000000D+01
-.110079837782D-05 0.000000000000D+00 -.799231548171D-07 0.399793640345D-06 0.000000000000D+00  7 2 -2 23 -11 11 23 21 2 0.38576817D+00 0.15772649D-01 0.17282292D+06 0.17282292D+06 0.17282292D+06 0.11027304D+01  1  2  3  1  7  1        2 -.181531032835D-04 0.100000000000D+01
0.129471262815D-05 0.000000000000D+00 0.000000000000D+00 0.399793640345D-06 0.000000000000D+00  7 2 -2 23 -11 11 23 21 2 0.38576817D+00 0.15772649D-01 0.17282292D+06 0.17282292D+06 0.17282292D+06 0.11027304D+01  1  2 15  1  7  1        2 0.213509145132D-04 0.100000000000D+01
-.148196664555D-05 0.000000000000D+00 0.000000000000D+00 0.399793640345D-06 0.000000000000D+00  7 2 -2 23 -11 11 23 21 2 0.38576817D+00 0.15772649D-01 0.17282292D+06 0.17282292D+06 0.17282292D+06 0.11027304D+01  1  2  4  1  7  1        2 -.244388928266D-04 0.100000000000D+01
  </mgrwgt>
  </event>
  <event>
  9     66 0.55102590E-06 0.23117378E+03 0.75467711E-02 0.10069704E+00
       21 -1    0    0  501  502 0.00000000E+00 0.00000000E+00 0.48678079E+03 0.48678137E+03 0.75000000E+00 0.0000E+00 0.9000E+01
       -2 -1    0    0    0  501 0.00000000E+00 0.00000000E+00 -.22318953E+03 0.22318976E+03 0.32000000E+00 0.0000E+00 0.9000E+01
       25  2    1    2    0    0 0.50565630E+02 -.20551171E+03 0.34310492E+02 0.36848010E+03 0.29968055E+03 0.0000E+00 0.0000E+00
       23  2    1    2    0    0 -.27483228E+02 0.81281755E+02 0.89832241E+02 0.15331060E+03 0.89845740E+02 0.0000E+00 0.0000E+00
       23  1    3    3    0    0 -.75183022E+01 -.22790336E+03 -.18123004E+02 0.24625223E+03 0.91188000E+02 0.0000E+00 0.9000E+01
      -11  1    4    4    0    0 0.29900552E+02 0.10850898E+02 0.13125968E+02 0.34410406E+02 0.51099893E-03 0.0000E+00 0.9000E+01
       11  1    4    4    0    0 -.57383780E+02 0.70430857E+02 0.76706273E+02 0.11890019E+03 0.51099893E-03 0.0000E+00 0.9000E+01
       23  1    3    3    0    0 0.58083932E+02 0.22391655E+02 0.52433496E+02 0.12222787E+03 0.91188000E+02 0.0000E+00 0.9000E+01
       -2  1    1    2    0  502 -.23082402E+02 0.12422995E+03 0.13944853E+03 0.18818043E+03 0.32000000E+00 0.0000E+00 0.9000E+01
#aMCatNLO 2  0  0  1  2 0.12635615D+03 0.00000000D+00  -5  7  0 0.00000000D+00 0.00000000D+00 0.00000000D+00 0.00000000D+00 0.00000000D+00
  <mgrwgt>
 0.9258264370D-05    2    2    0
 0.245401833409124D+03 0.000000000000000D+00 0.000000000000000D+00 0.245401833409124D+03
 0.245401833409124D+03 0.000000000000000D+00 0.000000000000000D+00 -.245401833409124D+03
 0.209051169770288D+03 -.183241178846403D+02 -.169746245071339D+03 -.789783465657301D+02
 0.346031774010650D+02 0.283545935356283D+02 0.191712781367621D+02 0.508517514760184D+01
 0.127530966986223D+03 -.627322141561121D+02 0.992162373593238D+02 0.498493238847938D+02
 0.119618352660671D+03 0.527017385051242D+02 0.513587295752535D+02 0.240438475333345D+02
 0.000000000000000D+00 -.000000000000000D+00 0.000000000000000D+00 0.000000000000000D+00
 0.381934655047773D+03 0.000000000000000D+00 0.000000000000000D+00 0.381934655047773D+03
 0.284458468763856D+03 0.000000000000000D+00 0.000000000000000D+00 -.284458468763856D+03
 0.257971504528536D+03 -.751830221736934D+01 -.227903360462781D+03 -.789783465657301D+02
 0.322124823090883D+02 0.299005520987730D+02 0.108508983231850D+02 0.508517514760184D+01
 0.103626052888197D+03 -.573837797343598D+02 0.704308566525689D+02 0.498493238847938D+02
 0.112997731691203D+03 0.580839322765991D+02 0.223916553751232D+02 0.240438475333345D+02
 0.159585352394604D+03 -.230824024236430D+02 0.124229950111904D+03 0.974761862839169D+02
-.264338749971D-07 0.000000000000D+00 0.000000000000D+00 0.650662615444D-07 0.000000000000D+00  7 21 -2 23 -11 11 23 -2 2 0.76988235D-01 0.29622380D-01 0.91508509D+05 0.91508509D+05 0.91508509D+05 0.11248984D+01  1  2 13  3  7  1        2 -.501455115424D-05 0.100000000000D+01
0.916016500411D-07 0.000000000000D+00 0.000000000000D+00 0.650662615444D-07 0.231026483794D-11  7 21 -2 23 -11 11 23 -2 2 0.74889375D-01 0.34336894D-01 0.91508509D+05 0.91508509D+05 0.91508509D+05 0.11248984D+01  1  2  1  3  7  1        2 0.142728155243D-04 0.100000000000D+01
  </mgrwgt>
  </event>
  <event>
  8     66 0.55102590E-06 0.14399085E+03 0.75467711E-02 0.10014202E+00
        2 -1    0    0  501    0 0.00000000E+00 0.00000000E+00 0.30587016E+03 0.30587032E+03 0.32000000E+00 0.0000E+00 0.9000E+01
       -2 -1    0    0    0  501 0.00000000E+00 0.00000000E+00 -.33866610E+03 0.33866625E+03 0.32000000E+00 0.0000E+00 0.9000E+01
       25  2    1    2    0    0 0.17713539E+03 0.13374551E+03 0.81908492E+02 0.37736384E+03 0.29398922E+03 0.0000E+00 0.0000E+00
       23  2    1    2    0    0 -.17713539E+03 -.13374551E+03 -.11470443E+03 0.26717273E+03 0.94653866E+02 0.0000E+00 0.0000E+00
       23  1    3    3    0    0 0.15555406E+03 -.16581513E+02 -.26117069E+01 0.18109137E+03 0.91188000E+02 0.0000E+00 0.9000E+01
      -13  1    4    4    0    0 -.17765906E+03 -.11482499E+03 -.12491632E+03 0.24566566E+03 0.10565837E+00 0.0000E+00 0.9000E+01
       13  1    4    4    0    0 0.52366986E+00 -.18920525E+02 0.10211884E+02 0.21507074E+02 0.10565837E+00 0.0000E+00 0.9000E+01
       23  1    3    3    0    0 0.21581333E+02 0.15032702E+03 0.84520199E+02 0.19627247E+03 0.91188000E+02 0.0000E+00 0.9000E+01
#aMCatNLO 1  0  0  2  1 0.41141318D+02 0.00000000D+00  -5  7  0 0.00000000D+00 0.00000000D+00 0.00000000D+00 0.00000000D+00 0.00000000D+00
  <mgrwgt>
 0.2633362110D-03    9    2    0
 0.321850826820708D+03 0.000000000000000D+00 0.000000000000000D+00 0.321850826820708D+03
 0.321850826820708D+03 0.000000000000000D+00 0.000000000000000D+00 -.321850826820708D+03
 0.181193189737698D+03 0.155554056576917D+03 -.165815109646529D+02 0.661132663811347D+01
 0.239620215104142D+03 -.177659281949121D+03 -.114825107953816D+03 -.112562078904364D+03
 0.220549820140194D+02 0.523889989089369D+00 -.189204048857491D+02 0.113210445576975D+02
 0.200833266785557D+03 0.215813353831148D+02 0.150327023804218D+03 0.946297077085534D+02
 0.000000000000000D+00 0.000000000000000D+00 0.000000000000000D+00 -.000000000000000D+00
 0.330804181895276D+03 0.000000000000000D+00 0.000000000000000D+00 0.330804181895276D+03
 0.373510270941354D+03 0.000000000000000D+00 0.000000000000000D+00 -.373510270941354D+03
 0.176202626371473D+03 0.148450773606218D+03 -.255102405320800D+02 0.661132663811347D+01
 0.252921483651650D+03 -.187448604888656D+03 -.127130153034502D+03 -.112562078904364D+03
 0.230254687736401D+02 -.372089157721950D+00 -.200466384221198D+02 0.113210445576975D+02
 0.192865480651688D+03 0.137565274748924D+02 0.140491347256096D+03 0.946297077085534D+02
 0.592993933881793D+02 0.256133929652680D+02 0.321956847326052D+02 -.427060890460775D+02
0.414628962080D-05 0.000000000000D+00 0.000000000000D+00 0.658426309616D-09 0.000000000000D+00  7 2 -2 23 -13 13 23 21 0 0.47056972D-01 0.52102501D-01 0.86635548D+05 0.86635548D+05 0.86635548D+05 0.11268709D+01  1  2  2  2  7  2       -2 0.190312473981D-03 0.100000000000D+01
-.228113224406D-06 0.000000000000D+00 -.159228438870D-07 0.658426309616D-09 0.000000000000D+00  7 2 -2 23 -13 13 23 21 2 0.47056972D-01 0.52102501D-01 0.86635548D+05 0.86635548D+05 0.86635548D+05 0.11268709D+01  1  2  3  2  7  2       -2 -.132955540439D-04 0.100000000000D+01
0.268347068103D-06 0.000000000000D+00 0.000000000000D+00 0.658426309616D-09 0.000000000000D+00  7 2 -2 23 -13 13 23 21 2 0.47056972D-01 0.52102501D-01 0.86635548D+05 0.86635548D+05 0.86635548D+05 0.11268709D+01  1  2 15  2  7  2       -2 0.156405791720D-04 0.100000000000D+01
0.116404117972D-04 0.000000000000D+00 0.000000000000D+00 0.658426309616D-09 0.000000000000D+00  7 2 -2 23 -13 13 23 21 2 0.47056972D-01 0.61111739D-01 0.99798306D+05 0.99798306D+05 0.99798306D+05 0.11217940D+01  1  2 12  2  7  2       -2 0.486660860661D-03 0.100000000000D+01
-.118222141837D-04 0.000000000000D+00 0.000000000000D+00 0.658426309616D-09 0.000000000000D+00  7 2 -2 23 -13 13 23 21 2 0.47056972D-01 0.52102501D-01 0.86635548D+05 0.86635548D+05 0.86635548D+05 0.11268709D+01  1  2  4  2  7  2       -2 -.689056445579D-03 0.100000000000D+01
-.199806997291D-04 0.000000000000D+00 -.339136956845D-05 0.658426309616D-09 0.000000000000D+00  7 2 -2 23 -13 13 23 21 2 0.47056972D-01 0.61685308D-01 0.86635548D+05 0.86635548D+05 0.86635548D+05 0.11268709D+01  1  2  5  2  7  2       -2 -.828088409556D-03 0.100000000000D+01
0.203108772329D-04 0.000000000000D+00 0.334360236982D-05 0.658426309616D-09 0.000000000000D+00  7 2 -2 23 -13 13 23 21 2 0.47056972D-01 0.52102501D-01 0.86635548D+05 0.86635548D+05 0.86635548D+05 0.11268709D+01  1  2  6  2  7  2       -2 0.118381723214D-02 0.100000000000D+01
0.278972426630D-06 0.000000000000D+00 0.000000000000D+00 0.658426309616D-09 0.000000000000D+00  7 2 21 23 -13 13 23 2 2 0.47056972D-01 0.61111739D-01 0.99798306D+05 0.99798306D+05 0.99798306D+05 0.11217940D+01  1  2 12  4  7  2       -2 0.121200575387D-03 0.100000000000D+01
-.471995154028D-06 0.000000000000D+00 -.850455804956D-07 0.658426309616D-09 0.000000000000D+00  7 2 21 23 -13 13 23 2 2 0.47056972D-01 0.61685308D-01 0.86635548D+05 0.86635548D+05 0.86635548D+05 0.11268709D+01  1  2  5  4  7  2       -2 -.203855101186D-03 0.100000000000D+01
  </mgrwgt>
  </event>
  <event>
  8     66 0.55102590E-06 0.41268494E+03 0.75467711E-02 0.86792897E-01
        2 -1    0    0  501    0 0.00000000E+00 0.00000000E+00 0.28882604E+03 0.28882622E+03 0.32000000E+00 0.0000E+00 0.9000E+01
       -2 -1    0    0    0  501 0.00000000E+00 0.00000000E+00 -.68672269E+03 0.68672277E+03 0.32000000E+00 0.0000E+00 0.9000E+01
       25  2    1    2    0    0 0.15478487E+03 -.32439426E+03 -.56585719E+02 0.47132816E+03 0.29959690E+03 0.0000E+00 0.0000E+00
       23  2    1    2    0    0 -.15478487E+03 0.32439426E+03 -.34131093E+03 0.50422082E+03 0.92495917E+02 0.0000E+00 0.0000E+00
       23  1    3    3    0    0 0.19854039E+03 -.28078916E+03 -.24546652E+02 0.35662113E+03 0.91188000E+02 0.0000E+00 0.9000E+01
      -13  1    4    4    0    0 -.55119656E+02 0.12004203E+03 -.67561351E+02 0.14836716E+03 0.10565837E+00 0.0000E+00 0.9000E+01
       13  1    4    4    0    0 -.99665212E+02 0.20435223E+03 -.27374958E+03 0.35585367E+03 0.10565837E+00 0.0000E+00 0.9000E+01
       23  1    3    3    0    0 -.43755523E+02 -.43605102E+02 -.32039067E+02 0.11470703E+03 0.91188000E+02 0.0000E+00 0.9000E+01
#aMCatNLO 1  0  0  2  2 0.90144611D+03 0.00000000D+00  -5  7  0 0.00000000D+00 0.00000000D+00 0.00000000D+00 0.00000000D+00 0.00000000D+00
  <mgrwgt>
 0.1963735076D-03    5    2    0
 0.445357743063993D+03 0.000000000000000D+00 0.000000000000000D+00 0.445357743063993D+03
 0.445357743063993D+03 0.000000000000000D+00 0.000000000000000D+00 -.445357743063993D+03
 0.379621049417419D+03 0.198540390969974D+03 -.280789158741596D+03 0.132423756567540D+03
 0.132317039165608D+03 -.551195979522791D+02 0.120041920618025D+03 -.771790576956509D+01
 0.267457794943951D+03 -.996652703730150D+02 0.204352340253088D+03 -.140856760543613D+03
 0.111319602601008D+03 -.437555226446800D+02 -.436051021295166D+02 0.161509097456391D+02
 0.000000000000000D+00 -.000000000000000D+00 -.000000000000000D+00 -.000000000000000D+00
 0.105088263315230D+04 0.000000000000000D+00 0.000000000000000D+00 0.105088263315230D+04
 0.112052171437264D+04 0.000000000000000D+00 0.000000000000000D+00 -.112052171437264D+04
 0.568051962748583D+03 0.539074870978882D+03 -.789304327503632D+02 0.132423756567540D+03
 0.202217303703465D+03 0.650911467155097D+02 0.191299279838925D+03 -.771790576956509D+01
 0.399218054756646D+03 0.139896383169697D+03 0.346357373573708D+03 -.140856760543613D+03
 0.977850139320093D+02 0.313836138975561D+02 0.935146405963046D+00 0.161509097456391D+02
 0.904132012384236D+03 -.775446014761645D+03 -.459661367068233D+03 -.696390812203399D+02
0.188126305561D-04 0.000000000000D+00 0.000000000000D+00 0.432907792325D-06 0.000000000000D+00  7 2 -2 23 -13 13 23 21 0 0.44434795D-01 0.10564966D+00 0.17030886D+06 0.17030886D+06 0.17030886D+06 0.11032262D+01  1  2  2  2  7  2       -2 0.193233771647D-03 0.100000000000D+01
-.103776890679D-05 0.000000000000D+00 -.722454548148D-07 0.432907792325D-06 0.000000000000D+00  7 2 -2 23 -13 13 23 21 2 0.44434795D-01 0.10564966D+00 0.17030886D+06 0.17030886D+06 0.17030886D+06 0.11032262D+01  1  2  3  2  7  2       -2 -.129736837297D-04 0.100000000000D+01
0.119814457490D-05 0.000000000000D+00 0.000000000000D+00 0.432907792325D-06 0.000000000000D+00  7 2 -2 23 -13 13 23 21 2 0.44434795D-01 0.10564966D+00 0.17030886D+06 0.17030886D+06 0.17030886D+06 0.11032262D+01  1  2 15  2  7  2       -2 0.149786225773D-04 0.100000000000D+01
0.737283413243D-05 0.000000000000D+00 -.634080937069D-05 0.432907792325D-06 0.000000000000D+00  7 2 -2 23 -13 13 23 21 2 0.44434795D-01 0.42752940D+00 0.17030886D+06 0.17030886D+06 0.17030886D+06 0.11032262D+01  1  2  5  2  7  2       -2 0.475758571218D-06 0.100000000000D+01
0.129367011903D-05 0.000000000000D+00 -.105937899835D-05 0.432907792325D-06 0.000000000000D+00  7 2 21 23 -13 13 23 2 2 0.44434795D-01 0.42752940D+00 0.17030886D+06 0.17030886D+06 0.17030886D+06 0.11032262D+01  1  2  5  4  7  2       -2 0.659038578282D-06 0.100000000000D+01
  </mgrwgt>
  </event>
  <event>
  8     66 0.55102590E-06 0.18940801E+03 0.75467711E-02 0.97055852E-01
        2 -1    0    0  501    0 0.00000000E+00 0.00000000E+00 0.32777316E+04 0.32777316E+04 0.32000000E+00 0.0000E+00 0.9000E+01
       -2 -1    0    0    0  501 0.00000000E+00 0.00000000E+00 -.32622301E+02 0.32623870E+02 0.32000000E+00 0.0000E+00 0.9000E+01
       25  2    1    2    0    0 0.14301515E+03 -.19643123E+03 0.16731988E+04 0.17171914E+04 0.30018935E+03 0.0000E+00 0.0000E+00
       23  2    1    2    0    0 -.14301515E+03 0.19643123E+03 0.15719105E+04 0.15931640E+04 0.90722127E+02 0.0000E+00 0.0000E+00
       23  1    3    3    0    0 0.93107696E+02 0.24917149E+02 0.77605956E+03 0.78732052E+03 0.91188000E+02 0.0000E+00 0.9000E+01
      -11  1    4    4    0    0 -.86009409E+02 0.87083480E+02 0.10383385E+04 0.10455276E+04 0.51099893E-03 0.0000E+00 0.9000E+01
       11  1    4    4    0    0 -.57005739E+02 0.10934775E+03 0.53357195E+03 0.54763639E+03 0.51099893E-03 0.0000E+00 0.9000E+01
       23  1    3    3    0    0 0.49907453E+02 -.22134838E+03 0.89713921E+03 0.92987089E+03 0.91188000E+02 0.0000E+00 0.9000E+01
#aMCatNLO 1  0  0  1  2 0.16535233D+03 0.00000000D+00  -5  7  0 0.00000000D+00 0.00000000D+00 0.00000000D+00 0.00000000D+00 0.00000000D+00
  <mgrwgt>
 0.2714562376D-03    9    2    0
 0.327001173374997D+03 0.000000000000000D+00 0.000000000000000D+00 0.327001173374997D+03
 0.327001173374997D+03 0.000000000000000D+00 0.000000000000000D+00 -.327001173374997D+03
 0.134422610479127D+03 0.931076955641767D+02 0.249171487000711D+02 0.215471481038750D+02
 0.139978321170381D+03 -.860094088868462D+02 0.870834804131324D+02 0.679174456214994D+02
 0.124421284866909D+03 -.570057394231037D+02 0.109347746175868D+03 -.165551263062390D+02
 0.255180130233577D+03 0.499074527457731D+02 -.221348375289072D+03 -.729094674191355D+02
 0.000000000000000D+00 0.000000000000000D+00 0.000000000000000D+00 0.000000000000000D+00
 0.497767038872787D+03 0.000000000000000D+00 0.000000000000000D+00 0.497767038872787D+03
 0.379885006170048D+03 0.000000000000000D+00 0.000000000000000D+00 -.379885006170048D+03
 0.114319657476825D+03 0.628108421826587D+02 0.185540091223832D+02 0.215471481038750D+02
 0.161139047976676D+03 -.122685559099050D+03 0.793805199758328D+02 0.679174456214994D+02
 0.136758998639229D+03 -.888175453560221D+02 0.102666426541105D+03 -.165551263062390D+02
 0.262363990769298D+03 -.131295151219771D+02 -.234587803821324D+03 -.729094674191355D+02
 0.203070350180808D+03 0.161821777394391D+03 0.339868481820027D+02 0.117882032702739D+03
0.788779695875D-05 0.000000000000D+00 0.000000000000D+00 0.420088144142D-06 0.000000000000D+00  7 2 -2 23 -11 11 23 21 0 0.50426651D+00 0.50189374D-02 0.97013428D+05 0.97013428D+05 0.97013428D+05 0.11228042D+01  1  2  2  1  7  1        2 0.215261444484D-03 0.100000000000D+01
-.436949305743D-06 0.000000000000D+00 -.302912172262D-07 0.420088144142D-06 0.000000000000D+00  7 2 -2 23 -11 11 23 21 2 0.50426651D+00 0.50189374D-02 0.97013428D+05 0.97013428D+05 0.97013428D+05 0.11228042D+01  1  2  3  1  7  1        2 -.150331390388D-04 0.100000000000D+01
0.504069630355D-06 0.000000000000D+00 0.000000000000D+00 0.420088144142D-06 0.000000000000D+00  7 2 -2 23 -11 11 23 21 2 0.50426651D+00 0.50189374D-02 0.97013428D+05 0.97013428D+05 0.97013428D+05 0.11228042D+01  1  2 15  1  7  1        2 0.173423981656D-04 0.100000000000D+01
0.188380860657D-05 0.000000000000D+00 0.000000000000D+00 0.420088144142D-06 0.000000000000D+00  7 2 -2 23 -11 11 23 21 2 0.79120810D+00 0.50189374D-02 0.16464641D+06 0.16464641D+06 0.16464641D+06 0.11043730D+01  1  2 12  1  7  1        2 0.113320777458D-05 0.100000000000D+01
-.331002641549D-05 0.000000000000D+00 0.000000000000D+00 0.420088144142D-06 0.000000000000D+00  7 2 -2 23 -11 11 23 21 2 0.50426651D+00 0.50189374D-02 0.97013428D+05 0.97013428D+05 0.97013428D+05 0.11228042D+01  1  2  4  1  7  1        2 -.113880687467D-03 0.100000000000D+01
-.452494085655D-05 0.000000000000D+00 -.167524184193D-05 0.420088144142D-06 0.000000000000D+00  7 2 -2 23 -11 11 23 21 2 0.78023614D+00 0.50189374D-02 0.97013428D+05 0.97013428D+05 0.97013428D+05 0.11228042D+01  1  2  5  1  7  1        2 -.370000294152D-05 0.100000000000D+01
0.495087014604D-05 0.000000000000D+00 0.153675097217D-05 0.420088144142D-06 0.000000000000D+00  7 2 -2 23 -11 11 23 21 2 0.50426651D+00 0.50189374D-02 0.97013428D+05 0.97013428D+05 0.97013428D+05 0.11228042D+01  1  2  6  1  7  1        2 0.170333533640D-03 0.100000000000D+01
0.979676646426D-07 0.000000000000D+00 0.000000000000D+00 0.420088144142D-06 0.000000000000D+00  7 21 -2 23 -11 11 23 -2 2 0.79120810D+00 0.50189374D-02 0.16464641D+06 0.16464641D+06 0.16464641D+06 0.11043730D+01  1  2 12  3  7  1        2 0.340178529256D-09 0.100000000000D+01
-.165645037040D-06 0.000000000000D+00 -.850754526492D-07 0.420088144142D-06 0.000000000000D+00  7 21 -2 23 -11 11 23 -2 2 0.78023614D+00 0.50189374D-02 0.97013428D+05 0.97013428D+05 0.97013428D+05 0.11228042D+01  1  2  5  3  7  1        2 -.857163327065D-09 0.100000000000D+01
  </mgrwgt>
  </event>
  <event>
  9     66 0.55102590E-06 0.40975191E+03 0.75467711E-02 0.94730132E-01
        2 -1    0    0  501    0 0.00000000E+00 0.00000000E+00 0.30749496E+03 0.30749512E+03 0.32000000E+00 0.0000E+00 0.9000E+01
       21 -1    0    0  502  501 0.00000000E+00 0.00000000E+00 -.17568538E+04 0.17568540E+04 0.75000000E+00 0.0000E+00 0.9000E+01
       25  2    1    2    0    0 0.42430163E+03 -.14995247E+03 -.33178417E+02 0.54225302E+03 0.30069904E+03 0.0000E+00 0.0000E+00
       23  2    1    2    0    0 -.26442364E+03 0.11134867E+03 -.44220019E+03 0.53432644E+03 0.87437660E+02 0.0000E+00 0.0000E+00
       23  1    3    3    0    0 0.24385979E+03 0.38346664E+02 -.38251099E+02 0.26592567E+03 0.91188000E+02 0.0000E+00 0.9000E+01
      -11  1    4    4    0    0 -.16695517E+03 0.68790039E+02 -.19801568E+03 0.26798565E+03 0.51099893E-03 0.0000E+00 0.9000E+01
       11  1    4    4    0    0 -.97468469E+02 0.42558633E+02 -.24418451E+03 0.26634079E+03 0.51099893E-03 0.0000E+00 0.9000E+01
       23  1    3    3    0    0 0.18044184E+03 -.18829913E+03 0.50726820E+01 0.27632735E+03 0.91188000E+02 0.0000E+00 0.9000E+01
        2  1    1    2  502    0 -.15987799E+03 0.38603798E+02 -.97398028E+03 0.98776966E+03 0.32000000E+00 0.0000E+00 0.9000E+01
#aMCatNLO 2  0  0  2  1 0.16447257D+03 0.00000000D+00  -5  7  0 0.00000000D+00 0.00000000D+00 0.00000000D+00 0.00000000D+00 0.00000000D+00
  <mgrwgt>
 0.1477594526D-04    2    2    0
 0.475916822953083D+03 0.000000000000000D+00 0.000000000000000D+00 0.475916822953083D+03
 0.475916822953083D+03 0.000000000000000D+00 0.000000000000000D+00 -.475916822953083D+03
 0.242268044967566D+03 0.200523529703966D+03 0.488105458842957D+02 0.882405740798781D+02
 0.235044688376860D+03 -.203325818490902D+03 0.775720173970147D+02 -.888099047749593D+02
 0.197390497148950D+03 -.128652963763659D+03 0.500883744252545D+02 -.141076497075068D+03
 0.277130415412791D+03 0.131455252550595D+03 -.176470937706565D+03 0.141645827770150D+03
 0.000000000000000D+00 -.000000000000000D+00 0.000000000000000D+00 -.000000000000000D+00
 0.494047139533611D+03 0.000000000000000D+00 0.000000000000000D+00 0.494047139533611D+03
 0.109346639334713D+04 0.000000000000000D+00 0.000000000000000D+00 -.109346639334713D+04
 0.277560292238510D+03 0.243859793558292D+03 0.383466642002691D+02 0.882405740798781D+02
 0.201229467559486D+03 -.166955173450469D+03 0.687900391500174D+02 -.888099047749593D+02
 0.176674609582056D+03 -.974684687991893D+02 0.425586328955919D+02 -.141076497075068D+03
 0.310474818284987D+03 0.180441838365779D+03 -.188299134059568D+03 0.141645827770150D+03
 0.621574345215701D+03 -.159877989674413D+03 0.386037978136893D+02 -.599419253813519D+03
-.830745365381D-05 0.000000000000D+00 0.000000000000D+00 0.557726015751D-07 0.000000000000D+00  7 2 21 23 -11 11 23 2 2 0.45570889D-01 0.26944756D+00 0.24544096D+06 0.24544096D+06 0.24544096D+06 0.10910609D+01  1  2 13  4  7  2       -2 -.441723349344D-04 0.100000000000D+01
0.117049337521D-04 0.000000000000D+00 0.000000000000D+00 0.557726015751D-07 0.175140105996D-11  7 2 21 23 -11 11 23 2 2 0.47306938D-01 0.27028521D+00 0.24544096D+06 0.24544096D+06 0.24544096D+06 0.10910609D+01  1  2  1  4  7  2       -2 0.589482801922D-04 0.100000000000D+01
  </mgrwgt>
  </event>
  <event>
  8     66 0.55102590E-06 0.18576107E+03 0.75467711E-02 0.89531115E-01
        2 -1    0    0  501    0 0.00000000E+00 0.00000000E+00 0.32234184E+04 0.32234184E+04 0.32000000E+00 0.0000E+00 0.9000E+01
       -2 -1    0    0    0  501 0.00000000E+00 0.00000000E+00 -.10506242E+03 0.10506290E+03 0.32000000E+00 0.0000E+00 0.9000E+01
       25  2    1    2    0    0 -.17454500E+02 -.12695394E+03 0.15442776E+03 0.36042247E+03 0.29939014E+03 0.0000E+00 0.0000E+00
       23  2    1    2    0    0 0.17454500E+02 0.12695394E+03 0.29639282E+04 0.29680588E+04 0.89893725E+02 0.0000E+00 0.0000E+00
       23  1    3    3    0    0 -.49577138E+02 -.36563865E+02 -.46788392E+02 0.11957932E+03 0.91188000E+02 0.0000E+00 0.9000E+01
      -13  1    4    4    0    0 0.64030603E+01 0.11677187E+02 0.13156859E+04 0.13157533E+04 0.10565837E+00 0.0000E+00 0.9000E+01
       13  1    4    4    0    0 0.11051440E+02 0.11527675E+03 0.16482423E+04 0.16523055E+04 0.10565837E+00 0.0000E+00 0.9000E+01
       23  1    3    3    0    0 0.32122637E+02 -.90390074E+02 0.20121615E+03 0.24084315E+03 0.91188000E+02 0.0000E+00 0.9000E+01
#aMCatNLO 1  0  0  1  1 0.75294195D+03 0.00000000D+00  -5  7  0 0.00000000D+00 0.00000000D+00 0.00000000D+00 0.00000000D+00 0.00000000D+00
  <mgrwgt>
 0.2624001709D-03    3    2    0
 0.581945841349661D+03 0.000000000000000D+00 0.000000000000000D+00 0.581945841349661D+03
 0.581945841349661D+03 0.000000000000000D+00 0.000000000000000D+00 -.581945841349661D+03
 0.467329051167797D+03 -.495771377148439D+02 -.365638654470924D+02 -.454187606481026D+03
 0.237722444989395D+03 0.640305389052268D+01 0.116770437003110D+02 0.237349127664359D+03
 0.309188531130019D+03 0.110514465641099D+02 0.115276895873695D+03 0.286682142082314D+03
 0.149651655412111D+03 0.321226372602114D+02 -.903900741269141D+02 -.698436632656470D+02
 0.000000000000000D+00 -.000000000000000D+00 -.000000000000000D+00 -.000000000000000D+00
 0.101648953952781D+04 0.000000000000000D+00 0.000000000000000D+00 0.101648953952781D+04
 0.113137161732959D+04 0.000000000000000D+00 0.000000000000000D+00 -.113137161732959D+04
 0.521459193248154D+03 0.239352818201569D+03 0.531840361565114D+01 -.454187606481026D+03
 0.288312649158119D+03 0.160113716836664D+03 0.339584001726922D+02 0.237349127664359D+03
 0.386019997214032D+03 0.214195618818916D+03 0.144723959795878D+03 0.286682142082314D+03
 0.190413569277258D+03 0.131491770068056D+03 -.759858745222401D+02 -.698436632656470D+02
 0.761655747959837D+03 -.745153923925206D+03 -.108014889061982D+03 -.114882077801785D+03
0.446900750382D-04 0.000000000000D+00 0.000000000000D+00 0.549954433026D-06 0.000000000000D+00  7 2 -2 23 -13 13 23 21 0 0.49591056D+00 0.16163487D-01 0.34507175D+05 0.34507175D+05 0.34507175D+05 0.11617376D+01  1  2  2  1  7  1        2 0.233121882794D-03 0.100000000000D+01
0.145352065973D-05 0.000000000000D+00 -.171621655314D-06 0.549954433026D-06 0.000000000000D+00  7 2 -2 23 -13 13 23 21 2 0.49591056D+00 0.16163487D-01 0.34507175D+05 0.34507175D+05 0.34507175D+05 0.11617376D+01  1  2  3  1  7  1        2 0.102331474169D-04 0.100000000000D+01
0.270517997088D-05 0.000000000000D+00 0.000000000000D+00 0.549954433026D-06 0.000000000000D+00  7 2 -2 23 -13 13 23 21 2 0.49591056D+00 0.16163487D-01 0.34507175D+05 0.34507175D+05 0.34507175D+05 0.11617376D+01  1  2 15  1  7  1        2 0.190451406699D-04 0.100000000000D+01
  </mgrwgt>
  </event>
  <event>
  8     66 0.55102590E-06 0.42598822E+03 0.75467711E-02 0.85831309E-01
        4 -1    0    0  501    0 0.00000000E+00 0.00000000E+00 0.28211094E+03 0.28211520E+03 0.15500000E+01 0.0000E+00 0.9000E+01
       -4 -1    0    0    0  501 0.00000000E+00 0.00000000E+00 -.73347142E+03 0.73347305E+03 0.15500000E+01 0.0000E+00 0.9000E+01
       25  2    1    2    0    0 0.35521267E+03 -.12424759E+03 -.39888643E+03 0.62493240E+03 0.29969421E+03 0.0000E+00 0.0000E+00
       23  2    1    2    0    0 -.35521267E+03 0.12424759E+03 -.52474052E+02 0.39065585E+03 0.90801800E+02 0.0000E+00 0.0000E+00
       23  1    3    3    0    0 0.48305827E+02 0.35458572E+02 -.34946525E+02 0.11457432E+03 0.91188000E+02 0.0000E+00 0.9000E+01
      -13  1    4    4    0    0 -.29675219E+03 0.69069152E+02 -.25024269E+02 0.30571005E+03 0.10565837E+00 0.0000E+00 0.9000E+01
       13  1    4    4    0    0 -.58460475E+02 0.55178439E+02 -.27449783E+02 0.84945800E+02 0.10565837E+00 0.0000E+00 0.9000E+01
       23  1    3    3    0    0 0.30690684E+03 -.15970616E+03 -.36393990E+03 0.51035808E+03 0.91188000E+02 0.0000E+00 0.9000E+01
#aMCatNLO 1  0  0  2  1 0.10320352D+04 0.00000000D+00  -5  7  0 0.00000000D+00 0.00000000D+00 0.00000000D+00 0.00000000D+00 0.00000000D+00
  <mgrwgt>
 0.1475532016D-04    3    2    0
 0.454888230351522D+03 0.000000000000000D+00 0.000000000000000D+00 0.454888230351522D+03
 0.454888230351522D+03 0.000000000000000D+00 0.000000000000000D+00 -.454888230351522D+03
 0.110562159539804D+03 0.483058274498177D+02 0.354585718889665D+02 0.178318953588356D+02
 0.328850973661470D+03 -.296752513623726D+03 0.690691705022485D+02 0.123735032315948D+03
 0.812066559509258D+02 -.584601521589146D+02 0.551784198230560D+02 0.115010245682366D+02
 0.389156671550844D+03 0.306906838332822D+03 -.159706162214271D+03 -.153067952243020D+03
 0.000000000000000D+00 0.000000000000000D+00 -.000000000000000D+00 0.000000000000000D+00
 0.205030279862802D+04 0.000000000000000D+00 0.000000000000000D+00 0.205030279862802D+04
 0.883337081803975D+03 0.000000000000000D+00 0.000000000000000D+00 -.883337081803975D+03
 0.188824139065729D+03 0.714463688121652D+01 0.164226312817590D+03 0.178318953588356D+02
 0.674424038191124D+03 -.434687997471606D+03 0.500583429531901D+03 0.123735032315948D+03
 0.202616051559588D+03 -.974815790109472D+02 0.177252172164437D+03 0.115010245682366D+02
 0.309922762986908D+03 0.210793749785935D+03 0.140971857903455D+03 -.153067952243020D+03
 0.155785288862864D+04 0.314231189815401D+03 -.983033772417383D+03 0.116696571682404D+04
0.233541957537D-04 0.000000000000D+00 0.000000000000D+00 0.559117201060D-06 0.000000000000D+00  7 4 -4 23 -13 13 23 21 0 0.43402136D-01 0.11284221D+00 0.18146596D+06 0.18146596D+06 0.18146596D+06 0.11010839D+01  1  2  2  2  7  2       -4 0.145891088271D-04 0.100000000000D+01
-.129065840518D-05 0.000000000000D+00 -.896862609952D-07 0.559117201060D-06 0.000000000000D+00  7 4 -4 23 -13 13 23 21 2 0.43402136D-01 0.11284221D+00 0.18146596D+06 0.18146596D+06 0.18146596D+06 0.11010839D+01  1  2  3  2  7  2       -4 -.977498305490D-06 0.100000000000D+01
0.151011868341D-05 0.000000000000D+00 0.000000000000D+00 0.559117201060D-06 0.000000000000D+00  7 4 -4 23 -13 13 23 21 2 0.43402136D-01 0.11284221D+00 0.18146596D+06 0.18146596D+06 0.18146596D+06 0.11010839D+01  1  2 15  2  7  2       -4 0.114370963548D-05 0.100000000000D+01
  </mgrwgt>
  </event>
  <event>
  8     66 0.55102590E-06 0.13475069E+03 0.75467711E-02 0.10166563E+00
        2 -1    0    0  501    0 0.00000000E+00 0.00000000E+00 0.31777424E+04 0.31777424E+04 0.32000000E+00 0.0000E+00 0.9000E+01
       -2 -1    0    0    0  501 0.00000000E+00 0.00000000E+00 -.32263913E+02 0.32265500E+02 0.32000000E+00 0.0000E+00 0.9000E+01
       25  2    1    2    0    0 -.99637901E+02 -.20599565E+03 0.22456269E+04 0.22770733E+04 0.29976800E+03 0.0000E+00 0.0000E+00
       23  2    1    2    0    0 0.99637901E+02 0.20599565E+03 0.89985162E+03 0.93293462E+03 0.90951343E+02 0.0000E+00 0.0000E+00
       23  1    3    3    0    0 -.39785612E+00 -.10898753E+03 0.17195314E+04 0.17253933E+04 0.91188000E+02 0.0000E+00 0.9000E+01
      -11  1    4    4    0    0 0.19699975E+02 0.10638638E+03 0.28250195E+03 0.30251199E+03 0.51099893E-03 0.0000E+00 0.9000E+01
       11  1    4    4    0    0 0.79937926E+02 0.99609265E+02 0.61734967E+03 0.63042263E+03 0.51099893E-03 0.0000E+00 0.9000E+01
       23  1    3    3    0    0 -.99240045E+02 -.97008122E+02 0.52609544E+03 0.55168000E+03 0.91188000E+02 0.0000E+00 0.9000E+01
#aMCatNLO 1  0  0  1  2 0.18157333D+02 0.00000000D+00  -5  7  0 0.00000000D+00 0.00000000D+00 0.00000000D+00 0.00000000D+00 0.00000000D+00
  <mgrwgt>
 0.2967138869D-03    9    2    0
 0.320201464075194D+03 0.000000000000000D+00 0.000000000000000D+00 0.320201464075194D+03
 0.320201464075194D+03 0.000000000000000D+00 0.000000000000000D+00 -.320201464075194D+03
 0.202649012925388D+03 -.397856117257916D+00 -.108987527944557D+03 0.144474674454308D+03
 0.128765921734827D+03 0.196999754551791D+02 0.106386384656008D+03 -.698176963749786D+02
 0.127734468750104D+03 0.799379257138962D+02 0.996092653023853D+02 -.200419693393550D+01
 0.181253524740069D+03 -.992400450518174D+02 -.970081220138372D+02 -.726527811453942D+02
 0.000000000000000D+00 0.000000000000000D+00 -.000000000000000D+00 0.000000000000000D+00
 0.413607134895220D+03 0.000000000000000D+00 0.000000000000000D+00 0.413607134895220D+03
 0.321213770129355D+03 0.000000000000000D+00 0.000000000000000D+00 -.321213770129355D+03
 0.199737330509277D+03 -.179559501549754D+01 -.103458175775693D+03 0.144474674454308D+03
 0.131605163608740D+03 0.187955441793680D+02 0.109964248191746D+03 -.698176963749786D+02
 0.129968432384164D+03 0.790427627070457D+02 0.103150464248518D+03 -.200419693393550D+01
 0.179349357217209D+03 -.100492643911477D+03 -.920529331512398D+02 -.726527811453942D+02
 0.941606213051838D+02 0.444993204056121D+01 -.176036035133307D+02 0.923933647658644D+02
0.630196379753D-05 0.000000000000D+00 0.000000000000D+00 0.388223023547D-06 0.000000000000D+00  7 2 -2 23 -11 11 23 21 0 0.48888357D+00 0.49638023D-02 0.74004041D+05 0.74004041D+05 0.74004041D+05 0.11326117D+01  1  2  2  1  7  1        2 0.205249784641D-03 0.100000000000D+01
-.338797377261D-06 0.000000000000D+00 -.242012003277D-07 0.388223023547D-06 0.000000000000D+00  7 2 -2 23 -11 11 23 21 2 0.48888357D+00 0.49638023D-02 0.74004041D+05 0.74004041D+05 0.74004041D+05 0.11326117D+01  1  2  3  1  7  1        2 -.141549694852D-04 0.100000000000D+01
0.397029524768D-06 0.000000000000D+00 0.000000000000D+00 0.388223023547D-06 0.000000000000D+00  7 2 -2 23 -11 11 23 21 2 0.48888357D+00 0.49638023D-02 0.74004041D+05 0.74004041D+05 0.74004041D+05 0.11326117D+01  1  2 15  1  7  1        2 0.165879111971D-04 0.100000000000D+01
0.847203047093D-04 0.000000000000D+00 0.000000000000D+00 0.388223023547D-06 0.000000000000D+00  7 2 -2 23 -11 11 23 21 2 0.63211180D+00 0.49638023D-02 0.78838732D+05 0.78838732D+05 0.78838732D+05 0.11302955D+01  1  2 12  1  7  1        2 0.734435245203D-03 0.100000000000D+01
-.825022604327D-04 0.000000000000D+00 0.000000000000D+00 0.388223023547D-06 0.000000000000D+00  7 2 -2 23 -11 11 23 21 2 0.48888357D+00 0.49638023D-02 0.74004041D+05 0.74004041D+05 0.74004041D+05 0.11326117D+01  1  2  4  1  7  1        2 -.344694810901D-02 0.100000000000D+01
-.877001685908D-04 0.000000000000D+00 -.203221020627D-05 0.388223023547D-06 0.000000000000D+00  7 2 -2 23 -11 11 23 21 2 0.63181791D+00 0.49638023D-02 0.74004041D+05 0.74004041D+05 0.74004041D+05 0.11326117D+01  1  2  5  1  7  1        2 -.768969186266D-03 0.100000000000D+01
0.854601950115D-04 0.000000000000D+00 0.196715466631D-05 0.388223023547D-06 0.000000000000D+00  7 2 -2 23 -11 11 23 21 2 0.48888357D+00 0.49638023D-02 0.74004041D+05 0.74004041D+05 0.74004041D+05 0.11326117D+01  1  2  6  1  7  1        2 0.357053074723D-02 0.100000000000D+01
0.292561123207D-05 0.000000000000D+00 0.000000000000D+00 0.388223023547D-06 0.000000000000D+00  7 21 -2 23 -11 11 23 -2 2 0.63211180D+00 0.49638023D-02 0.78838732D+05 0.78838732D+05 0.78838732D+05 0.11302955D+01  1  2 12  3  7  1        2 0.456273136025D-06 0.100000000000D+01
-.298897451848D-05 0.000000000000D+00 -.700841131190D-07 0.388223023547D-06 0.000000000000D+00  7 21 -2 23 -11 11 23 -2 2 0.63181791D+00 0.49638023D-02 0.74004041D+05 0.74004041D+05 0.74004041D+05 0.11326117D+01  1  2  5  3  7  1        2 -.473809693917D-06 0.100000000000D+01
  </mgrwgt>
  </event>
  <event>
  9     66 0.55102590E-06 0.20349131E+03 0.75467711E-02 0.10265025E+00
        2 -1    0    0  501    0 0.00000000E+00 0.00000000E+00 0.62715788E+03 0.62715796E+03 0.32000000E+00 0.0000E+00 0.9000E+01
       21 -1    0    0  502  501 0.00000000E+00 0.00000000E+00 -.20755788E+03 0.20755924E+03 0.75000000E+00 0.0000E+00 0.9000E+01
       25  2    1    2    0    0 -.11124837E+02 -.10785922E+03 0.26901529E+03 0.41773656E+03 0.30062807E+03 0.0000E+00 0.0000E+00
       23  2    1    2    0    0 0.10590587E+03 0.13915362E+03 -.42221427E+02 0.19986986E+03 0.87094937E+02 0.0000E+00 0.0000E+00
       23  1    3    3    0    0 0.40629284E+02 -.81357470E+02 0.28082413E+03 0.30894533E+03 0.91188000E+02 0.0000E+00 0.9000E+01
      -11  1    4    4    0    0 0.43583165E+01 0.47889517E+02 0.17058956E+02 0.51023609E+02 0.51099893E-03 0.0000E+00 0.9000E+01
       11  1    4    4    0    0 0.10154755E+03 0.91264102E+02 -.59280383E+02 0.14884625E+03 0.51099893E-03 0.0000E+00 0.9000E+01
       23  1    3    3    0    0 -.51754121E+02 -.26501754E+02 -.11808840E+02 0.10879123E+03 0.91188000E+02 0.0000E+00 0.9000E+01
        2  1    1    2  502    0 -.94781031E+02 -.31294395E+02 0.19280613E+03 0.21711078E+03 0.32000000E+00 0.0000E+00 0.9000E+01
#aMCatNLO 2  0  0  2  2 0.99813742D+02 0.00000000D+00  -5  7  0 0.00000000D+00 0.00000000D+00 0.00000000D+00 0.00000000D+00 0.00000000D+00
  <mgrwgt>
 0.6808753937D-04    1    2    0
 0.282860147321558D+03 0.000000000000000D+00 0.000000000000000D+00 0.282860147321558D+03
 0.282860147321558D+03 0.000000000000000D+00 0.000000000000000D+00 -.282860147321558D+03
 0.222393612884724D+03 0.374728717033651D+01 -.935350098212987D+02 0.179946735131575D+03
 0.454851686095627D+02 -.342301946935352D+01 0.453203083909610D+02 -.180364866339422D+01
 0.164201264782188D+03 0.726495827840202D+02 0.817226945836707D+02 -.122496916970845D+03
 0.133640248366642D+03 -.729738504850032D+02 -.335079931533330D+02 -.556461694973360D+02
 0.000000000000000D+00 -.000000000000000D+00 -.000000000000000D+00 0.000000000000000D+00
 0.426665206939487D+03 0.000000000000000D+00 0.000000000000000D+00 0.426665206939487D+03
 0.305091736687244D+03 0.000000000000000D+00 0.000000000000000D+00 -.305091736687244D+03
 0.221282298158653D+03 0.406292842632943D+02 -.813574699097402D+02 0.179946735131575D+03
 0.481212413792642D+02 0.435831653550477D+01 0.478895166018283D+02 -.180364866339422D+01
 0.183429921537808D+03 0.101547551062542D+03 0.912641020402056D+02 -.122496916970845D+03
 0.121624748696118D+03 -.517541208461719D+02 -.265017536609850D+02 -.556461694973360D+02
 0.157298733854887D+03 -.947810310151688D+02 -.312943950713087D+02 0.121573470252243D+03
0.859071671123D-07 0.000000000000D+00 0.000000000000D+00 0.129281905385D-07 0.198329347533D-12  7 2 21 23 -11 11 23 2 2 0.96485888D-01 0.31932076D-01 0.67955280D+05 0.67955280D+05 0.67955280D+05 0.11357557D+01  1  2  1  4  7  2       -2 0.680875393725D-04 0.100000000000D+01
  </mgrwgt>
  </event>
  <event>
  8     66 0.55102590E-06 0.30891393E+03 0.75467711E-02 0.93389853E-01
        2 -1    0    0  501    0 0.00000000E+00 0.00000000E+00 0.54826405E+03 0.54826415E+03 0.32000000E+00 0.0000E+00 0.9000E+01
       -2 -1    0    0    0  501 0.00000000E+00 0.00000000E+00 -.28350287E+03 0.28350305E+03 0.32000000E+00 0.0000E+00 0.9000E+01
       25  2    1    2    0    0 0.22281518E+03 -.67532694E+02 0.39712914E+03 0.54967685E+03 0.30037612E+03 0.0000E+00 0.0000E+00
       23  2    1    2    0    0 -.22281518E+03 0.67532694E+02 -.13236796E+03 0.28209035E+03 0.88580010E+02 0.0000E+00 0.0000E+00
       23  1    3    3    0    0 0.33023893E+02 0.72396745E+02 0.84450312E+02 0.14757701E+03 0.91188000E+02 0.0000E+00 0.9000E+01
      -13  1    4    4    0    0 -.22134323E+03 0.50682862E+02 -.10559843E+03 0.25042487E+03 0.10565837E+00 0.0000E+00 0.9000E+01
       13  1    4    4    0    0 -.14719534E+01 0.16849832E+02 -.26769530E+02 0.31665476E+02 0.10565837E+00 0.0000E+00 0.9000E+01
       23  1    3    3    0    0 0.18979129E+03 -.13992944E+03 0.31267883E+03 0.40209984E+03 0.91188000E+02 0.0000E+00 0.9000E+01
#aMCatNLO 1  0  0  1  1 0.39075857D+03 0.00000000D+00  -5  7  0 0.00000000D+00 0.00000000D+00 0.00000000D+00 0.00000000D+00 0.00000000D+00
  <mgrwgt>
 0.4005916700D-03    3    2    0
 0.394251881022356D+03 0.000000000000000D+00 0.000000000000000D+00 0.394251881022356D+03
 0.394251881022356D+03 0.000000000000000D+00 0.000000000000000D+00 -.394251881022356D+03
 0.127317778790260D+03 0.330238930263313D+02 0.723967443279426D+02 0.395309922995302D+02
 0.299622978991882D+03 -.221343541323609D+03 0.506829103782366D+02 -.195479433316872D+03
 0.423911083447594D+02 -.147164065700579D+01 0.168497838384757D+02 -.388706203329767D+02
 0.319171895917810D+03 0.189791288954283D+03 -.139929438544655D+03 0.194819061350318D+03
 0.000000000000000D+00 -.000000000000000D+00 -.000000000000000D+00 -.000000000000000D+00
 0.526374213658780D+03 0.000000000000000D+00 0.000000000000000D+00 0.526374213658780D+03
 0.882002684336929D+03 0.000000000000000D+00 0.000000000000000D+00 -.882002684336929D+03
 0.178409055765495D+03 0.349960982497349D+02 0.143969141104074D+03 0.395309922995302D+02
 0.356483090100689D+03 -.217111083880181D+03 0.204281085600757D+03 -.195479433316872D+03
 0.556379943183965D+02 -.839267288149355D+00 0.397989562315715D+02 -.388706203329767D+02
 0.289487156299557D+03 0.193717671680220D+03 0.256111924359502D+01 0.194819061350318D+03
 0.528359601511571D+03 -.107634187616242D+02 -.390610302179997D+03 -.355628470678149D+03
0.115706128044D-04 0.000000000000D+00 0.000000000000D+00 0.161214095702D-06 0.000000000000D+00  7 2 -2 23 -13 13 23 21 0 0.84348337D-01 0.43615847D-01 0.95427817D+05 0.95427817D+05 0.95427817D+05 0.11233938D+01  1  2  2  1  7  1        2 0.394185079888D-03 0.100000000000D+01
-.596308265989D-06 0.000000000000D+00 -.444341997812D-07 0.161214095702D-06 0.000000000000D+00  7 2 -2 23 -13 13 23 21 2 0.84348337D-01 0.43615847D-01 0.95427817D+05 0.95427817D+05 0.95427817D+05 0.11233938D+01  1  2  3  1  7  1        2 -.256376771283D-04 0.100000000000D+01
0.745319528519D-06 0.000000000000D+00 0.000000000000D+00 0.161214095702D-06 0.000000000000D+00  7 2 -2 23 -13 13 23 21 2 0.84348337D-01 0.43615847D-01 0.95427817D+05 0.95427817D+05 0.95427817D+05 0.11233938D+01  1  2 15  1  7  1        2 0.320442672347D-04 0.100000000000D+01
  </mgrwgt>
  </event>
  <event>
  8     66 0.55102590E-06 0.13753012E+03 0.75467711E-02 0.10539544E+00
        2 -1    0    0  501    0 0.00000000E+00 0.00000000E+00 0.20590629E+03 0.20590654E+03 0.32000000E+00 0.0000E+00 0.9000E+01
       -2 -1    0    0    0  501 0.00000000E+00 0.00000000E+00 -.26181833E+03 0.26181852E+03 0.32000000E+00 0.0000E+00 0.9000E+01
       25  2    1    2    0    0 0.36745901E+02 0.93390496E+02 0.11789123E+02 0.31607837E+03 0.29949042E+03 0.0000E+00 0.0000E+00
       23  2    1    2    0    0 -.36745901E+02 -.93390496E+02 -.67701156E+02 0.15164669E+03 0.91330311E+02 0.0000E+00 0.0000E+00
       23  1    3    3    0    0 -.33091579E+02 0.12384724E+03 0.82670261E+02 0.17771554E+03 0.91188000E+02 0.0000E+00 0.9000E+01
      -13  1    4    4    0    0 0.15166989E+02 0.31726146E+01 0.89319778E+01 0.17885592E+02 0.10565837E+00 0.0000E+00 0.9000E+01
       13  1    4    4    0    0 -.51912890E+02 -.96563111E+02 -.76633134E+02 0.13376110E+03 0.10565837E+00 0.0000E+00 0.9000E+01
       23  1    3    3    0    0 0.69837480E+02 -.30456739E+02 -.70881138E+02 0.13836283E+03 0.91188000E+02 0.0000E+00 0.9000E+01
#aMCatNLO 1  0  0  1  2 0.24991380D+02 0.00000000D+00  -5  7  0 0.00000000D+00 0.00000000D+00 0.00000000D+00 0.00000000D+00 0.00000000D+00
  <mgrwgt>
 0.1721707735D-03    9    2    0
 0.232185582714155D+03 0.000000000000000D+00 0.000000000000000D+00 0.232185582714155D+03
 0.232185582714155D+03 0.000000000000000D+00 0.000000000000000D+00 -.232185582714155D+03
 0.188952892903469D+03 -.330915761255583D+02 0.123847236104096D+03 0.104664961145039D+03
 0.190900698999456D+02 0.151670773595988D+02 0.317274683358766D+01 0.111500767119654D+02
 0.125500408862996D+03 -.519129805906502D+02 -.965632484713387D+02 -.610813729023534D+02
 0.130827793761900D+03 0.698374793566096D+02 -.304567344663451D+02 -.547336649546507D+02
 0.000000000000000D+00 -.000000000000000D+00 -.000000000000000D+00 0.000000000000000D+00
 0.260846481740789D+03 0.000000000000000D+00 0.000000000000000D+00 0.260846481740789D+03
 0.238034129111393D+03 0.000000000000000D+00 0.000000000000000D+00 -.238034129111393D+03
 0.190564268635605D+03 -.239305225063544D+02 0.128343543420397D+03 0.104664961145039D+03
 0.199256849556519D+02 0.161088672401311D+02 0.363498370134038D+01 0.111500767119654D+02
 0.120884275292220D+03 -.459655728546125D+02 -.936442203739030D+02 -.610813729023534D+02
 0.133668939401219D+03 0.762220885394598D+02 -.273231249303859D+02 -.547336649546507D+02
 0.338374425674871D+02 -.224348604186240D+02 -.110111818174487D+02 0.228123526293965D+02
0.111206687516D-05 0.000000000000D+00 0.000000000000D+00 0.102017354861D-06 0.000000000000D+00  7 2 -2 23 -13 13 23 21 0 0.31677925D-01 0.40279777D-01 0.40255013D+05 0.40255013D+05 0.40255013D+05 0.11556700D+01  1  2  2  1  7  1        2 0.128868564741D-03 0.100000000000D+01
-.601793701706D-07 0.000000000000D+00 -.427062961454D-08 0.102017354861D-06 0.000000000000D+00  7 2 -2 23 -13 13 23 21 2 0.31677925D-01 0.40279777D-01 0.40255013D+05 0.40255013D+05 0.40255013D+05 0.11556700D+01  1  2  3  1  7  1        2 -.931389677818D-05 0.100000000000D+01
0.714660662546D-07 0.000000000000D+00 0.000000000000D+00 0.102017354861D-06 0.000000000000D+00  7 2 -2 23 -13 13 23 21 2 0.31677925D-01 0.40279777D-01 0.40255013D+05 0.40255013D+05 0.40255013D+05 0.11556700D+01  1  2 15  1  7  1        2 0.110607266635D-04 0.100000000000D+01
0.359932614873D-05 0.000000000000D+00 0.000000000000D+00 0.102017354861D-06 0.000000000000D+00  7 2 -2 23 -13 13 23 21 2 0.35954371D-01 0.40279777D-01 0.45586490D+05 0.45586490D+05 0.45586490D+05 0.11508424D+01  1  2 12  1  7  1        2 0.480514096575D-03 0.100000000000D+01
-.364694897360D-05 0.000000000000D+00 0.000000000000D+00 0.102017354861D-06 0.000000000000D+00  7 2 -2 23 -13 13 23 21 2 0.31677925D-01 0.40279777D-01 0.40255013D+05 0.40255013D+05 0.40255013D+05 0.11556700D+01  1  2  4  1  7  1        2 -.564434393366D-03 0.100000000000D+01
-.682159634918D-05 0.000000000000D+00 -.117177109707D-05 0.102017354861D-06 0.000000000000D+00  7 2 -2 23 -13 13 23 21 2 0.36334747D-01 0.40279777D-01 0.40255013D+05 0.40255013D+05 0.40255013D+05 0.11556700D+01  1  2  5  1  7  1        2 -.907217355895D-03 0.100000000000D+01
0.692798099439D-05 0.000000000000D+00 0.116083553784D-05 0.102017354861D-06 0.000000000000D+00  7 2 -2 23 -13 13 23 21 2 0.31677925D-01 0.40279777D-01 0.40255013D+05 0.40255013D+05 0.40255013D+05 0.11556700D+01  1  2  6  1  7  1        2 0.107223621118D-02 0.100000000000D+01
0.714380384259D-07 0.000000000000D+00 0.000000000000D+00 0.102017354861D-06 0.000000000000D+00  7 21 -2 23 -13 13 23 -2 2 0.35954371D-01 0.40279777D-01 0.45586490D+05 0.45586490D+05 0.45586490D+05 0.11508424D+01  1  2 12  3  7  1        2 0.434264756996D-04 0.100000000000D+01
-.137726097533D-06 0.000000000000D+00 -.248461654402D-07 0.102017354861D-06 0.000000000000D+00  7 21 -2 23 -13 13 23 -2 2 0.36334747D-01 0.40279777D-01 0.40255013D+05 0.40255013D+05 0.40255013D+05 0.11556700D+01  1  2  5  3  7  1        2 -.829696553089D-04 0.100000000000D+01
  </mgrwgt>
  </event>
  <event>
  8     66 0.55102590E-06 0.32994641E+03 0.75467711E-02 0.96756871E-01
        4 -1    0    0  501    0 0.00000000E+00 0.00000000E+00 0.18337823E+03 0.18338478E+03 0.15500000E+01 0.0000E+00 0.9000E+01
       -4 -1    0    0    0  501 0.00000000E+00 0.00000000E+00 -.11419632E+04 0.11419643E+04 0.15500000E+01 0.0000E+00 0.9000E+01
       25  2    1    2    0    0 -.20358479E+03 0.16467723E+03 -.96859399E+03 0.10472931E+04 0.30013868E+03 0.0000E+00 0.0000E+00
       23  2    1    2    0    0 0.20358479E+03 -.16467723E+03 0.10009000E+02 0.27805592E+03 0.93003012E+02 0.0000E+00 0.0000E+00
       23  1    3    3    0    0 -.20205440E+03 0.26627576E+02 -.43995421E+03 0.49336596E+03 0.91188000E+02 0.0000E+00 0.9000E+01
      -11  1    4    4    0    0 -.37817577E+01 -.14881602E+02 -.14440854E+02 0.21078473E+02 0.51099893E-03 0.0000E+00 0.9000E+01
       11  1    4    4    0    0 0.20736655E+03 -.14979563E+03 0.24449854E+02 0.25697745E+03 0.51099893E-03 0.0000E+00 0.9000E+01
       23  1    3    3    0    0 -.15303914E+01 0.13804965E+03 -.52863977E+03 0.55392717E+03 0.91188000E+02 0.0000E+00 0.9000E+01
#aMCatNLO 1  0  0  2  1 0.16697870D+03 0.00000000D+00  -5  7  0 0.00000000D+00 0.00000000D+00 0.00000000D+00 0.00000000D+00 0.00000000D+00
  <mgrwgt>
 0.2489099428D-04    4    2    0
 0.457620184577447D+03 0.000000000000000D+00 0.000000000000000D+00 0.457620184577447D+03
 0.457620184577447D+03 0.000000000000000D+00 0.000000000000000D+00 -.457620184577447D+03
 0.253647684973750D+03 -.202054397610876D+03 0.266275758386780D+02 -.120361494505528D+03
 0.153987399032975D+02 -.378175771900586D+01 -.148816016770978D+02 0.116508827491579D+01
 0.397733858349250D+03 0.207366546732250D+03 -.149795627722356D+03 0.304553127202772D+03
 0.248460085928597D+03 -.153039140236878D+01 0.138049653560776D+03 -.185356720972159D+03
 0.000000000000000D+00 0.000000000000000D+00 0.000000000000000D+00 0.000000000000000D+00
 0.690598477151296D+03 0.000000000000000D+00 0.000000000000000D+00 0.690598477151296D+03
 0.496095358253946D+03 0.000000000000000D+00 0.000000000000000D+00 -.496095358253946D+03
 0.290517209298526D+03 -.248026177248821D+03 0.900686373470158D+01 -.120361494505528D+03
 0.172688894761466D+02 -.654156283494275D+01 -.159394187073279D+02 0.116508827491579D+01
 0.378753822808898D+03 0.141767826665019D+03 -.174939230380278D+03 0.304553127202772D+03
 0.243807765065008D+03 -.431178392640821D+02 0.122109429978361D+03 -.185356720972159D+03
 0.256346148756663D+03 0.155917752682827D+03 0.597623553745432D+02 0.194503118897350D+03
0.749386304020D-04 0.000000000000D+00 0.000000000000D+00 0.800045498914D-06 0.000000000000D+00  7 4 -4 23 -11 11 23 21 0 0.28212620D-01 0.17568723D+00 0.10886463D+06 0.10886463D+06 0.10886463D+06 0.11187076D+01  1  2  2  2  7  2       -4 0.278148620264D-04 0.100000000000D+01
-.362162997244D-05 0.000000000000D+00 -.287784072538D-06 0.800045498914D-06 0.000000000000D+00  7 4 -4 23 -11 11 23 21 2 0.28212620D-01 0.17568723D+00 0.10886463D+06 0.10886463D+06 0.10886463D+06 0.11187076D+01  1  2  3  2  7  2       -4 -.168231913341D-05 0.100000000000D+01
0.457004695304D-05 0.000000000000D+00 0.000000000000D+00 0.800045498914D-06 0.000000000000D+00  7 4 -4 23 -11 11 23 21 2 0.28212620D-01 0.17568723D+00 0.10886463D+06 0.10886463D+06 0.10886463D+06 0.11187076D+01  1  2 15  2  7  2       -4 0.212287767889D-05 0.100000000000D+01
-.724280361625D-05 0.000000000000D+00 0.000000000000D+00 0.800045498914D-06 0.000000000000D+00  7 4 -4 23 -11 11 23 21 2 0.28212620D-01 0.17568723D+00 0.10886463D+06 0.10886463D+06 0.10886463D+06 0.11187076D+01  1  2  4  2  7  2       -4 -.336442629310D-05 0.100000000000D+01
  </mgrwgt>
  </event>
  <event>
  8     66 0.55102590E-06 0.15776628E+04 0.75467711E-02 0.78796794E-01
        2 -1    0    0  501    0 0.00000000E+00 0.00000000E+00 0.15383753E+04 0.15383753E+04 0.32000000E+00 0.0000E+00 0.9000E+01
       -2 -1    0    0    0  501 0.00000000E+00 0.00000000E+00 -.41366117E+04 0.41366117E+04 0.32000000E+00 0.0000E+00 0.9000E+01
       25  2    1    2    0    0 -.31660437E+03 -.22385539E+04 -.69533933E+02 0.22816526E+04 0.29956926E+03 0.0000E+00 0.0000E+00
       23  2    1    2    0    0 0.31660437E+03 0.22385539E+04 -.25287025E+04 0.33933344E+04 0.94975409E+02 0.0000E+00 0.0000E+00
       23  1    3    3    0    0 -.91977335E+02 -.13836814E+04 -.92152512E+02 0.13927819E+04 0.91188000E+02 0.0000E+00 0.9000E+01
      -11  1    4    4    0    0 0.31984832E+03 0.21927755E+04 -.24903249E+04 0.33335094E+04 0.51099893E-03 0.0000E+00 0.9000E+01
       11  1    4    4    0    0 -.32439545E+01 0.45778391E+02 -.38377645E+02 0.59824977E+02 0.51099893E-03 0.0000E+00 0.9000E+01
       23  1    3    3    0    0 -.22462703E+03 -.85487244E+03 0.22618579E+02 0.88887066E+03 0.91188000E+02 0.0000E+00 0.9000E+01
#aMCatNLO 1  0  0  1  2 0.77852577D+03 0.00000000D+00  -5  7  0 0.00000000D+00 0.00000000D+00 0.00000000D+00 0.00000000D+00 0.00000000D+00
  <mgrwgt>
 0.2380245032D-04    9    2    0
 0.252262982497970D+04 0.000000000000000D+00 0.000000000000000D+00 0.252262982497970D+04
 0.252262982497970D+04 0.000000000000000D+00 0.000000000000000D+00 -.252262982497970D+04
 0.151916568669987D+04 -.919773352914948D+02 -.138368144435475D+04 0.613608150730844D+03
 0.246710196330262D+04 0.319848321488628D+03 0.219277549291480D+04 -.108444676505802D+04
 0.475281333540685D+02 -.324395454779999D+01 0.457783904995179D+02 -.123587694487570D+02
 0.101146386660283D+04 -.224627031649333D+03 -.854872439059564D+03 0.483197383775937D+03
 0.000000000000000D+00 -.000000000000000D+00 -.000000000000000D+00 0.000000000000000D+00
 0.294856013847178D+04 0.000000000000000D+00 0.000000000000000D+00 0.294856013847178D+04
 0.293505555505638D+04 0.000000000000000D+00 0.000000000000000D+00 -.293505555505638D+04
 0.134461349357589D+04 0.167787198811072D+02 -.119284270030804D+04 0.613608150730844D+03
 0.281471569016266D+04 0.520432799540661D+03 0.254474936513703D+04 -.108444676505802D+04
 0.539801443705142D+02 0.610965527297243D+00 0.525427780489234D+02 -.123587694487570D+02
 0.891663474324581D+03 -.152353085558818D+03 -.728050359338817D+03 0.483197383775937D+03
 0.778642891094519D+03 -.385469399390247D+03 -.676399083539096D+03 0.135045834154058D+02
0.163641246272D+00 0.000000000000D+00 0.000000000000D+00 0.427639574917D-05 0.000000000000D+00  7 2 -2 23 -11 11 23 21 0 0.23667312D+00 0.63640180D+00 0.51533222D+07 0.51533222D+07 0.51533222D+07 0.10035145D+01  1  2  2  1  7  1        2 0.170614029302D-04 0.100000000000D+01
-.896819555148D-02 0.000000000000D+00 -.628425473413D-03 0.427639574917D-05 0.000000000000D+00  7 2 -2 23 -11 11 23 21 2 0.23667312D+00 0.63640180D+00 0.51533222D+07 0.51533222D+07 0.51533222D+07 0.10035145D+01  1  2  3  1  7  1        2 -.941617074885D-06 0.100000000000D+01
0.103424340858D-01 0.000000000000D+00 0.000000000000D+00 0.427639574917D-05 0.000000000000D+00  7 2 -2 23 -11 11 23 21 2 0.23667312D+00 0.63640180D+00 0.51533222D+07 0.51533222D+07 0.51533222D+07 0.10035145D+01  1  2 15  1  7  1        2 0.108590546171D-05 0.100000000000D+01
0.564301961222D-01 0.000000000000D+00 0.000000000000D+00 0.427639574917D-05 0.000000000000D+00  7 2 -2 23 -11 11 23 21 2 0.29297301D+00 0.63640180D+00 0.72208388D+07 0.72208388D+07 0.72208388D+07 0.99508277D+00  1  2 12  1  7  1        2 0.351827282415D-05 0.100000000000D+01
-.524383384695D-01 0.000000000000D+00 0.000000000000D+00 0.427639574917D-05 0.000000000000D+00  7 2 -2 23 -11 11 23 21 2 0.23667312D+00 0.63640180D+00 0.51533222D+07 0.51533222D+07 0.51533222D+07 0.10035145D+01  1  2  4  1  7  1        2 -.550577143396D-05 0.100000000000D+01
-.100150162470D+00 0.000000000000D+00 -.556477792676D-01 0.427639574917D-05 0.000000000000D+00  7 2 -2 23 -11 11 23 21 2 0.35676602D+00 0.63640180D+00 0.51533222D+07 0.51533222D+07 0.51533222D+07 0.10035145D+01  1  2  5  1  7  1        2 -.374320210596D-05 0.100000000000D+01
0.117344968883D+00 0.000000000000D+00 0.512692411324D-01 0.427639574917D-05 0.000000000000D+00  7 2 -2 23 -11 11 23 21 2 0.23667312D+00 0.63640180D+00 0.51533222D+07 0.51533222D+07 0.51533222D+07 0.10035145D+01  1  2  6  1  7  1        2 0.123206531033D-04 0.100000000000D+01
0.169669848696D-02 0.000000000000D+00 0.000000000000D+00 0.427639574917D-05 0.000000000000D+00  7 21 -2 23 -11 11 23 -2 2 0.29297301D+00 0.63640180D+00 0.72208388D+07 0.72208388D+07 0.72208388D+07 0.99508277D+00  1  2 12  3  7  1        2 0.201315900554D-07 0.100000000000D+01
-.289193971959D-02 0.000000000000D+00 -.269933741600D-02 0.427639574917D-05 0.000000000000D+00  7 21 -2 23 -11 11 23 -2 2 0.35676602D+00 0.63640180D+00 0.51533222D+07 0.51533222D+07 0.51533222D+07 0.10035145D+01  1  2  5  3  7  1        2 -.133249714959D-07 0.100000000000D+01
  </mgrwgt>
  </event>
  <event>
  8     66 0.55102590E-06 0.40750374E+03 0.75467711E-02 0.91154295E-01
        2 -1    0    0  501    0 0.00000000E+00 0.00000000E+00 0.29637944E+03 0.29637961E+03 0.32000000E+00 0.0000E+00 0.9000E+01
       -2 -1    0    0    0  501 0.00000000E+00 0.00000000E+00 -.64734361E+03 0.64734369E+03 0.32000000E+00 0.0000E+00 0.9000E+01
       25  2    1    2    0    0 0.55397597E+02 -.36961452E+03 -.27015526E+03 0.54716605E+03 0.29448774E+03 0.0000E+00 0.0000E+00
       23  2    1    2    0    0 -.55397597E+02 0.36961452E+03 -.80808909E+02 0.39655725E+03 0.10508942E+03 0.0000E+00 0.0000E+00
       23  1    3    3    0    0 0.13663993E+02 -.30668901E+03 -.91897568E+02 0.33317453E+03 0.91188000E+02 0.0000E+00 0.9000E+01
      -13  1    4    4    0    0 -.51223108E+02 0.19239321E+03 -.91185164E+02 0.21898333E+03 0.10565837E+00 0.0000E+00 0.9000E+01
       13  1    4    4    0    0 -.41744887E+01 0.17722131E+03 0.10376255E+02 0.17757392E+03 0.10565837E+00 0.0000E+00 0.9000E+01
       23  1    3    3    0    0 0.41733604E+02 -.62925514E+02 -.17825769E+03 0.21399152E+03 0.91188000E+02 0.0000E+00 0.9000E+01
#aMCatNLO 1  0  0  2  2 0.44574900D+03 0.00000000D+00  -5  7  0 0.00000000D+00 0.00000000D+00 0.00000000D+00 0.00000000D+00 0.00000000D+00
  <mgrwgt>
 0.1687004960D-03    5    2    0
 0.438017640911393D+03 0.000000000000000D+00 0.000000000000000D+00 0.438017640911393D+03
 0.438017640911393D+03 0.000000000000000D+00 0.000000000000000D+00 -.438017640911393D+03
 0.322100973785535D+03 0.136639942464053D+02 -.306689015177378D+03 0.344808526628047D+02
 0.199372045433367D+03 -.512231391302215D+02 0.192393227351634D+03 -.104999327213570D+02
 0.195451410479334D+03 -.417445929513455D+01 0.177221305232636D+03 0.823191151531371D+02
 0.159110852124550D+03 0.417336041789507D+02 -.629255174068917D+02 -.106300035094585D+03
 0.000000000000000D+00 -.000000000000000D+00 -.000000000000000D+00 -.000000000000000D+00
 0.656046410747263D+03 0.000000000000000D+00 0.000000000000000D+00 0.656046410747263D+03
 0.793263998474193D+03 0.000000000000000D+00 0.000000000000000D+00 -.793263998474193D+03
 0.230329476208690D+03 0.807054556023001D+02 -.192442501808308D+03 0.344808526628047D+02
 0.294937168243863D+03 0.876488659672970D+01 0.294619859119344D+03 -.104999327213570D+02
 0.295996072473991D+03 0.554662745514729D+02 0.278856110902761D+03 0.823191151531371D+02
 0.161656398525365D+03 0.806610478759948D+02 0.341141240955579D+01 -.106300035094585D+03
 0.466391293769547D+03 -.225597664626498D+03 -.384444880623354D+03 -.137217587726930D+03
0.145435106198D-04 0.000000000000D+00 0.000000000000D+00 0.970391593340D-10 0.000000000000D+00  7 2 -2 23 -13 13 23 21 0 0.45596856D-01 0.99591343D-01 0.16605930D+06 0.16605930D+06 0.16605930D+06 0.11040829D+01  1  2  2  2  7  2       -2 0.167659873003D-03 0.100000000000D+01
-.802850549338D-06 0.000000000000D+00 -.558509101743D-07 0.970391593340D-10 0.000000000000D+00  7 2 -2 23 -13 13 23 21 2 0.45596856D-01 0.99591343D-01 0.16605930D+06 0.16605930D+06 0.16605930D+06 0.11040829D+01  1  2  3  2  7  2       -2 -.112823078712D-04 0.100000000000D+01
0.937475491513D-06 0.000000000000D+00 0.000000000000D+00 0.970391593340D-10 0.000000000000D+00  7 2 -2 23 -13 13 23 21 2 0.45596856D-01 0.99591343D-01 0.16605930D+06 0.16605930D+06 0.16605930D+06 0.11040829D+01  1  2 15  2  7  2       -2 0.131741668803D-04 0.100000000000D+01
-.157793071703D-05 0.000000000000D+00 -.417978365553D-05 0.970391593340D-10 0.000000000000D+00  7 2 -2 23 -13 13 23 21 2 0.45596856D-01 0.23545813D+00 0.16605930D+06 0.16605930D+06 0.16605930D+06 0.11040829D+01  1  2  5  2  7  2       -2 -.195770545671D-05 0.100000000000D+01
0.115328285922D-06 0.000000000000D+00 -.392703377877D-06 0.970391593340D-10 0.000000000000D+00  7 2 21 23 -13 13 23 2 2 0.45596856D-01 0.23545813D+00 0.16605930D+06 0.16605930D+06 0.16605930D+06 0.11040829D+01  1  2  5  4  7  2       -2 0.110646947975D-05 0.100000000000D+01
  </mgrwgt>
  </event>
  <event>
  8     66 0.55102590E-06 0.22907838E+03 0.75467711E-02 0.93258015E-01
        2 -1    0    0  501    0 0.00000000E+00 0.00000000E+00 0.28956901E+04 0.28956901E+04 0.32000000E+00 0.0000E+00 0.9000E+01
       -2 -1    0    0    0  501 0.00000000E+00 0.00000000E+00 -.10306604E+03 0.10306653E+03 0.32000000E+00 0.0000E+00 0.9000E+01
       25  2    1    2    0    0 0.49587210E+03 0.58077450E+02 0.16469663E+04 0.17472315E+04 0.30175750E+03 0.0000E+00 0.0000E+00
       23  2    1    2    0    0 -.49587210E+03 -.58077450E+02 0.11456577E+04 0.12515252E+04 0.67242227E+02 0.0000E+00 0.0000E+00
       23  1    3    3    0    0 0.38858014E+03 0.15717679E+02 0.88164447E+03 0.96791208E+03 0.91188000E+02 0.0000E+00 0.9000E+01
      -11  1    4    4    0    0 -.44692327E+03 -.53763388E+02 0.97431691E+03 0.10732774E+04 0.51099893E-03 0.0000E+00 0.9000E+01
       11  1    4    4    0    0 -.48948830E+02 -.43140622E+01 0.17134084E+03 0.17824781E+03 0.51099893E-03 0.0000E+00 0.9000E+01
       23  1    3    3    0    0 0.10729196E+03 0.42359771E+02 0.76532186E+03 0.77931939E+03 0.91188000E+02 0.0000E+00 0.9000E+01
#aMCatNLO 1  0  0  2  1 0.81816620D+02 0.00000000D+00  -5  7  0 0.00000000D+00 0.00000000D+00 0.00000000D+00 0.00000000D+00 0.00000000D+00
  <mgrwgt>
 0.1434426043D-02    9    2    0
 0.546304015902076D+03 0.000000000000000D+00 0.000000000000000D+00 0.546304015902076D+03
 0.546304015902076D+03 0.000000000000000D+00 0.000000000000000D+00 -.546304015902076D+03
 0.403100845191041D+03 0.388580135244672D+03 0.157176792354227D+02 -.541615463443989D+02
 0.455421198175824D+03 -.446923267728643D+03 -.537633880777741D+02 -.691198858003479D+02
 0.512821228302215D+02 -.489488296299415D+02 -.431406218095386D+01 0.146716416031659D+02
 0.182803865607066D+03 0.107291962113913D+03 0.423597710233052D+02 0.108609790541581D+03
 0.000000000000000D+00 -.000000000000000D+00 0.000000000000000D+00 -.000000000000000D+00
 0.573030516531508D+03 0.000000000000000D+00 0.000000000000000D+00 0.573030516531508D+03
 0.614249768976615D+03 0.000000000000000D+00 0.000000000000000D+00 -.614249768976615D+03
 0.405309736521588D+03 0.390921234259478D+03 -.144168886320391D+02 -.541615463443989D+02
 0.458117930370197D+03 -.444277723988610D+03 -.878167608211530D+02 -.691198858003479D+02
 0.514638725861088D+02 -.486512846025930D+02 -.814405431864207D+01 0.146716416031659D+02
 0.180775504144242D+03 0.108344861870031D+03 0.288068717406552D+02 0.108609790541581D+03
 0.916132418859873D+02 -.633708753830631D+01 0.815708320311790D+02 -.412192524451068D+02
0.144622774420D-03 0.000000000000D+00 0.000000000000D+00 0.399688032389D-09 0.000000000000D+00  7 2 -2 23 -11 11 23 21 0 0.44549083D+00 0.15856353D-01 0.27340926D+06 0.27340926D+06 0.27340926D+06 0.10875467D+01  1  2  2  2  7  2       -2 0.111756404995D-02 0.100000000000D+01
-.801584631809D-05 0.000000000000D+00 -.555389533823D-06 0.399688032389D-09 0.000000000000D+00  7 2 -2 23 -11 11 23 21 2 0.44549083D+00 0.15856353D-01 0.27340926D+06 0.27340926D+06 0.27340926D+06 0.10875467D+01  1  2  3  2  7  2       -2 -.732623653407D-04 0.100000000000D+01
0.921237754569D-05 0.000000000000D+00 0.000000000000D+00 0.399688032389D-09 0.000000000000D+00  7 2 -2 23 -11 11 23 21 2 0.44549083D+00 0.15856353D-01 0.27340926D+06 0.27340926D+06 0.27340926D+06 0.10875467D+01  1  2 15  2  7  2       -2 0.841982920612D-04 0.100000000000D+01
0.224710189730D-03 0.000000000000D+00 0.000000000000D+00 0.399688032389D-09 0.000000000000D+00  7 2 -2 23 -11 11 23 21 2 0.44549083D+00 0.18180744D-01 0.31934082D+06 0.31934082D+06 0.31934082D+06 0.10825501D+01  1  2 12  2  7  2       -2 0.161276265893D-02 0.100000000000D+01
-.219458384720D-03 0.000000000000D+00 0.000000000000D+00 0.399688032389D-09 0.000000000000D+00  7 2 -2 23 -11 11 23 21 2 0.44549083D+00 0.15856353D-01 0.27340926D+06 0.27340926D+06 0.27340926D+06 0.10875467D+01  1  2  4  2  7  2       -2 -.200578201233D-02 0.100000000000D+01
-.502061740566D-03 0.000000000000D+00 -.115467158551D-03 0.399688032389D-09 0.000000000000D+00  7 2 -2 23 -11 11 23 21 2 0.44549083D+00 0.19002937D-01 0.27340926D+06 0.27340926D+06 0.27340926D+06 0.10875467D+01  1  2  5  2  7  2       -2 -.340776259975D-02 0.100000000000D+01
0.516347061946D-03 0.000000000000D+00 0.113600754042D-03 0.399688032389D-09 0.000000000000D+00  7 2 -2 23 -11 11 23 21 2 0.44549083D+00 0.15856353D-01 0.27340926D+06 0.27340926D+06 0.27340926D+06 0.10875467D+01  1  2  6  2  7  2       -2 0.471925303876D-02 0.100000000000D+01
0.475440382884D-05 0.000000000000D+00 0.000000000000D+00 0.399688032389D-09 0.000000000000D+00  7 2 21 23 -11 11 23 2 2 0.44549083D+00 0.18180744D-01 0.31934082D+06 0.31934082D+06 0.31934082D+06 0.10825501D+01  1  2 12  4  7  2       -2 0.434282124088D-03 0.100000000000D+01
-.121815736810D-04 0.000000000000D+00 -.305884769684D-05 0.399688032389D-09 0.000000000000D+00  7 2 21 23 -11 11 23 2 2 0.44549083D+00 0.19002937D-01 0.27340926D+06 0.27340926D+06 0.27340926D+06 0.10875467D+01  1  2  5  4  7  2       -2 -.104682714366D-02 0.100000000000D+01
  </mgrwgt>
  </event>
  <event>
  8     66 0.55102590E-06 0.39300885E+03 0.75467711E-02 0.97112247E-01
        2 -1    0    0  501    0 0.00000000E+00 0.00000000E+00 0.35048717E+03 0.35048731E+03 0.32000000E+00 0.0000E+00 0.9000E+01
       -2 -1    0    0    0  501 0.00000000E+00 0.00000000E+00 -.51911639E+03 0.51911649E+03 0.32000000E+00 0.0000E+00 0.9000E+01
       25  2    1    2    0    0 0.22169317E+03 -.24771487E+03 -.25352097E+03 0.51521900E+03 0.30110998E+03 0.0000E+00 0.0000E+00
       23  2    1    2    0    0 -.22169317E+03 0.24771487E+03 0.84891747E+02 0.35438480E+03 0.88721266E+02 0.0000E+00 0.0000E+00
       23  1    3    3    0    0 0.22800057E+03 -.93292541E+02 -.10734933E+03 0.28377260E+03 0.91188000E+02 0.0000E+00 0.9000E+01
      -13  1    4    4    0    0 -.17400130E+02 -.57633166E+01 0.71486760E+01 0.19674732E+02 0.10565837E+00 0.0000E+00 0.9000E+01
       13  1    4    4    0    0 -.20429304E+03 0.25347818E+03 0.77743070E+02 0.33471007E+03 0.10565837E+00 0.0000E+00 0.9000E+01
       23  1    3    3    0    0 -.63073940E+01 -.15442233E+03 -.14617164E+03 0.23144640E+03 0.91188000E+02 0.0000E+00 0.9000E+01
#aMCatNLO 1  0  0  1  2 0.21686294D+02 0.00000000D+00  -5  7  0 0.00000000D+00 0.00000000D+00 0.00000000D+00 0.00000000D+00 0.00000000D+00
  <mgrwgt>
 0.1974946024D-03    4    2    0
 0.426548638124570D+03 0.000000000000000D+00 0.000000000000000D+00 0.426548638124570D+03
 0.426548638124570D+03 0.000000000000000D+00 0.000000000000000D+00 -.426548638124570D+03
 0.268043870143610D+03 0.228000566064384D+03 -.932925413234762D+02 -.533339346503919D+02
 0.214679992243532D+02 -.173998645291589D+02 -.576368415833278D+01 0.111758511974135D+02
 0.356554078053003D+03 -.204293308244893D+03 0.253478551252965D+03 0.145408661493333D+03
 0.207031328828173D+03 -.630739329033275D+01 -.154422325771156D+03 -.103250578040355D+03
 0.000000000000000D+00 -.000000000000000D+00 0.000000000000000D+00 -.000000000000000D+00
 0.430000399961257D+03 0.000000000000000D+00 0.000000000000000D+00 0.430000399961257D+03
 0.462164742309728D+03 0.000000000000000D+00 0.000000000000000D+00 -.462164742309728D+03
 0.273692157975958D+03 0.232461127242012D+03 -.985366009644027D+02 -.533339346503919D+02
 0.212999573775342D+02 -.170477205384279D+02 -.617768231149115D+01 0.111758511974135D+02
 0.348396299772317D+03 -.198488868214577D+03 0.246654560169998D+03 0.145408661493333D+03
 0.209984456533582D+03 -.287375711682758D+01 -.158459080825523D+03 -.103250578040355D+03
 0.387922706115937D+02 -.140507813721788D+02 0.165188039314194D+02 -.321643423484715D+02
0.184681288708D-04 0.000000000000D+00 0.000000000000D+00 0.523152847311D-07 0.000000000000D+00  7 2 -2 23 -13 13 23 21 0 0.53921122D-01 0.79864079D-01 0.15445595D+06 0.15445595D+06 0.15445595D+06 0.11065500D+01  1  2  2  1  7  1        2 0.295617935668D-03 0.100000000000D+01
-.101764075160D-05 0.000000000000D+00 -.709224776340D-07 0.523152847311D-07 0.000000000000D+00  7 2 -2 23 -13 13 23 21 2 0.53921122D-01 0.79864079D-01 0.15445595D+06 0.15445595D+06 0.15445595D+06 0.11065500D+01  1  2  3  1  7  1        2 -.199454794227D-04 0.100000000000D+01
0.120306758084D-05 0.000000000000D+00 0.000000000000D+00 0.523152847311D-07 0.000000000000D+00  7 2 -2 23 -13 13 23 21 2 0.53921122D-01 0.79864079D-01 0.15445595D+06 0.15445595D+06 0.15445595D+06 0.11065500D+01  1  2 15  1  7  1        2 0.235797943822D-04 0.100000000000D+01
-.519178945003D-05 0.000000000000D+00 0.000000000000D+00 0.523152847311D-07 0.000000000000D+00  7 2 -2 23 -13 13 23 21 2 0.53921122D-01 0.79864079D-01 0.15445595D+06 0.15445595D+06 0.15445595D+06 0.11065500D+01  1  2  4  1  7  1        2 -.101757648246D-03 0.100000000000D+01
  </mgrwgt>
  </event>
  <event>
  8     66 0.55102590E-06 0.12855373E+03 0.75467711E-02 0.10638460E+00
        2 -1    0    0  501    0 0.00000000E+00 0.00000000E+00 0.21825794E+04 0.21825795E+04 0.32000000E+00 0.0000E+00 0.9000E+01
       -2 -1    0    0    0  501 0.00000000E+00 0.00000000E+00 -.18235955E+02 0.18238762E+02 0.32000000E+00 0.0000E+00 0.9000E+01
       25  2    1    2    0    0 -.11471492E+02 0.27877236E+02 0.17148920E+04 0.17412333E+04 0.30021640E+03 0.0000E+00 0.0000E+00
       23  2    1    2    0    0 0.11471492E+02 -.27877236E+02 0.44945147E+03 0.45958497E+03 0.91120719E+02 0.0000E+00 0.0000E+00
       23  1    3    3    0    0 0.92880669E+02 -.53439796E+02 0.75927357E+03 0.77220091E+03 0.91188000E+02 0.0000E+00 0.9000E+01
      -13  1    4    4    0    0 0.47635754E+02 -.39667303E+01 0.16276417E+03 0.16963810E+03 0.10565837E+00 0.0000E+00 0.9000E+01
       13  1    4    4    0    0 -.36164262E+02 -.23910506E+02 0.28668731E+03 0.28994687E+03 0.10565837E+00 0.0000E+00 0.9000E+01
       23  1    3    3    0    0 -.10435216E+03 0.81317033E+02 0.95561844E+03 0.96903234E+03 0.91188000E+02 0.0000E+00 0.9000E+01
#aMCatNLO 1  0  0  1  2 0.58856726D+01 0.00000000D+00  -5  7  0 0.00000000D+00 0.00000000D+00 0.00000000D+00 0.00000000D+00 0.00000000D+00
  <mgrwgt>
 0.6239133440D-03   11    2    0
 0.199510737968091D+03 0.000000000000000D+00 0.000000000000000D+00 0.199510737968091D+03
 0.199510737968091D+03 0.000000000000000D+00 0.000000000000000D+00 -.199510737968091D+03
 0.140706043482973D+03 0.928800703073793D+02 -.534389613658508D+02 -.713636089042945D+00
 0.527922581293020D+02 0.476361487865082D+02 -.396739873278949D+01 -.224071326696560D+02
 0.441845310291450D+02 -.361641320380940D+02 -.239111129996546D+02 0.852566779287866D+01
 0.161338643294762D+03 -.104352087055793D+03 0.813174730982949D+02 0.145951009658203D+02
 0.000000000000000D+00 0.000000000000000D+00 0.000000000000000D+00 0.000000000000000D+00
 0.213403032620233D+03 0.000000000000000D+00 0.000000000000000D+00 0.213403032620233D+03
 0.200156803677880D+03 0.000000000000000D+00 0.000000000000000D+00 -.200156803677880D+03
 0.139367553208349D+03 0.908150245448489D+02 -.534807029098607D+02 -.713636089042945D+00
 0.520966811471878D+02 0.468627789931822D+02 -.398303114629325D+01 -.224071326696560D+02
 0.447297866955140D+02 -.368197173457228D+02 -.239243645912015D+02 0.852566779287866D+01
 0.162870860140754D+03 -.106742556807855D+03 0.812691536372105D+02 0.145951009658203D+02
 0.144949551063088D+02 0.588447061554646D+01 0.118945010144976D+00 0.132462289423534D+02
0.774529160619D-06 0.000000000000D+00 0.000000000000D+00 0.796804436584D-07 0.000000000000D+00  7 2 -2 23 -13 13 23 21 0 0.33578167D+00 0.28057492D-02 0.38521252D+05 0.38521252D+05 0.38521252D+05 0.11573938D+01  1  2  2  1  7  1        2 0.225417322731D-03 0.100000000000D+01
-.430153515882D-07 0.000000000000D+00 -.297439591499D-08 0.796804436584D-07 0.000000000000D+00  7 2 -2 23 -13 13 23 21 2 0.33578167D+00 0.28057492D-02 0.38521252D+05 0.38521252D+05 0.38521252D+05 0.11573938D+01  1  2  3  1  7  1        2 -.167700872435D-04 0.100000000000D+01
0.496385481247D-07 0.000000000000D+00 0.000000000000D+00 0.796804436584D-07 0.000000000000D+00  7 2 -2 23 -13 13 23 21 2 0.33578167D+00 0.28057492D-02 0.38521252D+05 0.38521252D+05 0.38521252D+05 0.11573938D+01  1  2 15  1  7  1        2 0.193522254720D-04 0.100000000000D+01
0.736158781153D-05 0.000000000000D+00 0.000000000000D+00 0.796804436584D-07 0.000000000000D+00  7 2 -2 23 -13 13 23 21 2 0.35968481D+00 0.28057492D-02 0.39682332D+05 0.39682332D+05 0.39682332D+05 0.11562302D+01  1  2 12  1  7  1        2 0.235920718037D-02 0.100000000000D+01
-.105491816554D-04 0.000000000000D+00 0.000000000000D+00 0.796804436584D-07 0.000000000000D+00  7 2 -2 23 -13 13 23 21 2 0.33578167D+00 0.28057492D-02 0.38521252D+05 0.38521252D+05 0.38521252D+05 0.11573938D+01  1  2  4  1  7  1        2 -.411273394674D-02 0.100000000000D+01
-.167620029009D-04 0.000000000000D+00 -.107838048247D-05 0.796804436584D-07 0.000000000000D+00  7 2 -2 23 -13 13 23 21 2 0.35953467D+00 0.28057492D-02 0.38521252D+05 0.38521252D+05 0.38521252D+05 0.11573938D+01  1  2  5  1  7  1        2 -.539026868491D-02 0.100000000000D+01
0.167989689192D-04 0.000000000000D+00 0.107586646966D-05 0.796804436584D-07 0.000000000000D+00  7 2 -2 23 -13 13 23 21 2 0.33578167D+00 0.28057492D-02 0.38521252D+05 0.38521252D+05 0.38521252D+05 0.11573938D+01  1  2  6  1  7  1        2 0.654929377474D-02 0.100000000000D+01
0.310013320708D-05 0.000000000000D+00 0.000000000000D+00 0.796804436584D-07 0.164270136795D-07  7 2 -2 23 -13 13 23 21 2 0.35916276D+00 0.28148349D-02 0.39682332D+05 0.39682332D+05 0.39682332D+05 0.11562302D+01  1  2 11  1  7  1        2 0.993072653900D-03 0.100000000000D+01
0.104675747764D-06 0.000000000000D+00 0.000000000000D+00 0.796804436584D-07 0.000000000000D+00  7 21 -2 23 -13 13 23 -2 2 0.35968481D+00 0.28057492D-02 0.39682332D+05 0.39682332D+05 0.39682332D+05 0.11562302D+01  1  2 12  3  7  1        2 0.525133629958D-05 0.100000000000D+01
-.192856682142D-06 0.000000000000D+00 -.125089637669D-07 0.796804436584D-07 0.000000000000D+00  7 21 -2 23 -13 13 23 -2 2 0.35953467D+00 0.28057492D-02 0.38521252D+05 0.38521252D+05 0.38521252D+05 0.11573938D+01  1  2  5  3  7  1        2 -.973702840137D-05 0.100000000000D+01
0.363377325252D-07 0.000000000000D+00 0.000000000000D+00 0.796804436584D-07 0.190543373328D-09  7 21 -2 23 -13 13 23 -2 2 0.35916276D+00 0.28148349D-02 0.39682332D+05 0.39682332D+05 0.39682332D+05 0.11562302D+01  1  2 11  3  7  1        2 0.182859773826D-05 0.100000000000D+01
  </mgrwgt>
  </event>
  <event>
  8     66 0.55102590E-06 0.33484125E+03 0.75467711E-02 0.92552838E-01
        2 -1    0    0  501    0 0.00000000E+00 0.00000000E+00 0.71237099E+03 0.71237107E+03 0.32000000E+00 0.0000E+00 0.9000E+01
       -2 -1    0    0    0  501 0.00000000E+00 0.00000000E+00 -.36818656E+03 0.36818670E+03 0.32000000E+00 0.0000E+00 0.9000E+01
       25  2    1    2    0    0 -.50628587E+02 -.28906830E+03 0.56449341E+03 0.70290587E+03 0.29883124E+03 0.0000E+00 0.0000E+00
       23  2    1    2    0    0 0.50628587E+02 0.28906830E+03 -.22030898E+03 0.37765190E+03 0.89225421E+02 0.0000E+00 0.0000E+00
       23  1    3    3    0    0 -.69530209E+02 -.99728722E+02 0.42138266E+03 0.44794962E+03 0.91188000E+02 0.0000E+00 0.9000E+01
      -11  1    4    4    0    0 -.19662347E+02 0.14585936E+03 -.10332943E+03 0.17982918E+03 0.51099893E-03 0.0000E+00 0.9000E+01
       11  1    4    4    0    0 0.70290934E+02 0.14320894E+03 -.11697956E+03 0.19782273E+03 0.51099893E-03 0.0000E+00 0.9000E+01
       23  1    3    3    0    0 0.18901622E+02 -.18933958E+03 0.14311075E+03 0.25495624E+03 0.91188000E+02 0.0000E+00 0.9000E+01
#aMCatNLO 1  0  0  1  1 0.42246127D+03 0.00000000D+00  -5  7  0 0.00000000D+00 0.00000000D+00 0.00000000D+00 0.00000000D+00 0.00000000D+00
  <mgrwgt>
 0.1344242760D-03    5    2    0
 0.512138206583433D+03 0.000000000000000D+00 0.000000000000000D+00 0.512138206583433D+03
 0.512138206583433D+03 0.000000000000000D+00 0.000000000000000D+00 -.512138206583433D+03
 0.330967395095279D+03 -.695302092293626D+02 -.997287223819689D+02 0.294013430320344D+03
 0.224431794998045D+03 -.196623472486725D+02 0.145859362570669D+03 -.169434556856608D+03
 0.248000853924713D+03 0.702909343931042D+02 0.143208935756673D+03 -.189881038571449D+03
 0.220876369148830D+03 0.189016220849310D+02 -.189339575945373D+03 0.653021651077140D+02
 0.000000000000000D+00 0.000000000000000D+00 -.000000000000000D+00 0.000000000000000D+00
 0.991015819921467D+03 0.000000000000000D+00 0.000000000000000D+00 0.991015819921467D+03
 0.656084418362558D+03 0.000000000000000D+00 0.000000000000000D+00 -.656084418362558D+03
 0.317006045125264D+03 -.700908593813824D+02 0.286523214487826D+02 0.294013430320344D+03
 0.302966222895180D+03 -.201186711665265D+02 0.250351157833692D+03 -.169434556856608D+03
 0.327206121454416D+03 0.697932444290227D+02 0.257172977080293D+03 -.189881038571449D+03
 0.160799812743599D+03 0.185713819915601D+02 -.113719213141601D+03 0.653021651077140D+02
 0.539122036065566D+03 0.184490412732609D+01 -.422457243221166D+03 0.334931401558909D+03
0.931799257736D-05 0.000000000000D+00 0.000000000000D+00 0.552789330242D-07 0.000000000000D+00  7 2 -2 23 -11 11 23 21 0 0.10959555D+00 0.56644103D-01 0.11211866D+06 0.11211866D+06 0.11211866D+06 0.11176681D+01  1  2  2  1  7  1        2 0.139744224327D-03 0.100000000000D+01
-.404012839074D-06 0.000000000000D+00 -.357835449808D-07 0.552789330242D-07 0.000000000000D+00  7 2 -2 23 -11 11 23 21 2 0.10959555D+00 0.56644103D-01 0.11211866D+06 0.11211866D+06 0.11211866D+06 0.11176681D+01  1  2  3  1  7  1        2 -.756889271088D-05 0.100000000000D+01
0.564580408731D-06 0.000000000000D+00 0.000000000000D+00 0.552789330242D-07 0.000000000000D+00  7 2 -2 23 -11 11 23 21 2 0.10959555D+00 0.56644103D-01 0.11211866D+06 0.11211866D+06 0.11211866D+06 0.11176681D+01  1  2 15  1  7  1        2 0.105770117359D-04 0.100000000000D+01
-.147566458704D-05 0.000000000000D+00 -.278611383297D-05 0.552789330242D-07 0.000000000000D+00  7 2 -2 23 -11 11 23 21 2 0.24276086D+00 0.56644103D-01 0.11211866D+06 0.11211866D+06 0.11211866D+06 0.11176681D+01  1  2  5  1  7  1        2 -.842066212508D-05 0.100000000000D+01
0.484694607879D-07 0.000000000000D+00 -.240286195899D-06 0.552789330242D-07 0.000000000000D+00  7 21 -2 23 -11 11 23 -2 2 0.24276086D+00 0.56644103D-01 0.11211866D+06 0.11211866D+06 0.11211866D+06 0.11176681D+01  1  2  5  3  7  1        2 0.925947361147D-07 0.100000000000D+01
  </mgrwgt>
  </event>
  <event>
  9     66 0.55102590E-06 0.23663054E+03 0.75467711E-02 0.10084763E+00
        2 -1    0    0  501    0 0.00000000E+00 0.00000000E+00 0.22589425E+04 0.22589425E+04 0.32000000E+00 0.0000E+00 0.9000E+01
       21 -1    0    0  502  501 0.00000000E+00 0.00000000E+00 -.17458298E+03 0.17458460E+03 0.75000000E+00 0.0000E+00 0.9000E+01
       25  2    1    2    0    0 0.80899114E+02 -.10657669E+03 0.18878048E+04 0.19160228E+04 0.29905374E+03 0.0000E+00 0.0000E+00
       23  2    1    2    0    0 -.11398710E+03 0.21964824E+03 0.27081670E+03 0.37823852E+03 0.92110168E+02 0.0000E+00 0.0000E+00
       23  1    3    3    0    0 0.37546974E+02 -.75796196E+02 0.16632698E+04 0.16679138E+04 0.91188000E+02 0.0000E+00 0.9000E+01
      -13  1    4    4    0    0 -.29356750E+02 0.96058037E+02 0.17073959E+03 0.19809337E+03 0.10565837E+00 0.0000E+00 0.9000E+01
       13  1    4    4    0    0 -.84630346E+02 0.12359021E+03 0.10007711E+03 0.18014515E+03 0.10565837E+00 0.0000E+00 0.9000E+01
       23  1    3    3    0    0 0.43352140E+02 -.30780493E+02 0.22453502E+03 0.24810900E+03 0.91188000E+02 0.0000E+00 0.9000E+01
        2  1    1    2  502    0 0.33087981E+02 -.11307155E+03 -.74262051E+02 0.13926574E+03 0.32000000E+00 0.0000E+00 0.9000E+01
#aMCatNLO 2  0  0  2  1 0.11781337D+03 0.00000000D+00  -5  7  0 0.00000000D+00 0.00000000D+00 0.00000000D+00 0.00000000D+00 0.00000000D+00
  <mgrwgt>
 0.1265010591D-03    2    2    0
 0.384092508734231D+03 0.000000000000000D+00 0.000000000000000D+00 0.384092508734231D+03
 0.384092508734231D+03 0.000000000000000D+00 0.000000000000000D+00 -.384092508734231D+03
 0.320330326705814D+03 0.509147358687373D+02 -.121477845692653D+03 0.277393384096922D+03
 0.964388545995891D+02 -.249247813810533D+02 0.809128832365265D+02 -.461769777696593D+02
 0.234965269143415D+03 -.741645871004384D+02 0.878253599069031D+02 -.204926811035262D+03
 0.116450567019643D+03 0.481746326127544D+02 -.472603974507763D+02 -.262895952920005D+02
 0.000000000000000D+00 0.000000000000000D+00 -.000000000000000D+00 -.000000000000000D+00
 0.394255935795310D+03 0.000000000000000D+00 0.000000000000000D+00 0.394255935795310D+03
 0.100030155626585D+04 0.000000000000000D+00 0.000000000000000D+00 -.100030155626585D+04
 0.304001939943492D+03 0.375469743099826D+02 -.757961959786246D+02 0.277393384096922D+03
 0.110549839983264D+03 -.293566771236702D+02 0.960579999408811D+02 -.461769777696593D+02
 0.253834304015971D+03 -.846304183461684D+02 0.123590243566162D+03 -.204926811035262D+03
 0.108780701211350D+03 0.433521397670033D+02 -.307804933202501D+02 -.262895952920005D+02
 0.617390706907078D+03 0.330879813928527D+02 -.113071554208168D+03 -.606045620470536D+03
-.166839537190D-05 0.000000000000D+00 0.000000000000D+00 0.150774378688D-06 0.000000000000D+00  7 2 21 23 -13 13 23 2 2 0.33857082D+00 0.26745508D-01 0.89395464D+05 0.89395464D+05 0.89395464D+05 0.11257392D+01  1  2 13  4  7  2       -2 -.221464633978D-03 0.100000000000D+01
0.284427353450D-05 0.000000000000D+00 0.000000000000D+00 0.150774378688D-06 0.118541395610D-10  7 2 21 23 -13 13 23 2 2 0.34752970D+00 0.26859044D-01 0.89395464D+05 0.89395464D+05 0.89395464D+05 0.11257392D+01  1  2  1  4  7  2       -2 0.347965693087D-03 0.100000000000D+01
  </mgrwgt>
  </event>
  <event>
  9     66 -.55102590E-06 0.21764250E+03 0.75467711E-02 0.10475949E+00
        2 -1    0    0  502    0 0.00000000E+00 0.00000000E+00 0.24910337E+04 0.24910337E+04 0.32000000E+00 0.0000E+00 0.9000E+01
       -2 -1    0    0    0  501 0.00000000E+00 0.00000000E+00 -.26483949E+02 0.26485882E+02 0.32000000E+00 0.0000E+00 0.9000E+01
       25  2    1    2    0    0 0.33271007E+01 0.12210301E+03 0.18487386E+04 0.18768570E+04 0.29972960E+03 0.0000E+00 0.0000E+00
       23  2    1    2    0    0 -.15102076E+01 -.13357114E+03 0.54368239E+03 0.56760132E+03 0.93472957E+02 0.0000E+00 0.0000E+00
       23  1    3    3    0    0 -.92333732E+02 0.74294783E+02 0.13635116E+04 0.13716867E+04 0.91188000E+02 0.0000E+00 0.9000E+01
      -11  1    4    4    0    0 0.17134212E+02 -.12195363E+03 0.52343102E+03 0.53772326E+03 0.51099893E-03 0.0000E+00 0.9000E+01
       11  1    4    4    0    0 -.18644419E+02 -.11617513E+02 0.20251368E+02 0.29878067E+02 0.51099893E-03 0.0000E+00 0.9000E+01
       23  1    3    3    0    0 0.95660833E+02 0.47808222E+02 0.48522695E+03 0.50517033E+03 0.91188000E+02 0.0000E+00 0.9000E+01
       21  1    1    2  502  501 -.18168932E+01 0.11468138E+02 0.72128825E+02 0.73061270E+02 0.75000000E+00 0.0000E+00 0.9000E+01
#aMCatNLO 2  0  0  1  2 0.11611171D+02 0.00000000D+00  -5  7  0 0.00000000D+00 0.00000000D+00 0.00000000D+00 0.00000000D+00 0.00000000D+00
  <mgrwgt>
 -.5840858938D-04    3    2    0
 0.250780699885501D+03 0.000000000000000D+00 0.000000000000000D+00 0.250780699885501D+03
 0.250780699885501D+03 0.000000000000000D+00 0.000000000000000D+00 -.250780699885501D+03
 0.183341565255896D+03 -.929940232673505D+02 0.784625072329211D+02 0.102443276020232D+03
 0.121111914020001D+03 0.166904434838150D+02 -.119152588740714D+03 -.138630952636085D+02
 0.488206169246780D+02 -.188215819154920D+02 -.104992707330156D+02 -.438060042137995D+02
 0.148287303570426D+03 0.951251616990275D+02 0.511893522408087D+02 -.447741765428237D+02
 0.000000000000000D+00 -.000000000000000D+00 0.000000000000000D+00 0.000000000000000D+00
 0.258365876101405D+03 0.000000000000000D+00 0.000000000000000D+00 0.258365876101405D+03
 0.255331116351497D+03 0.000000000000000D+00 0.000000000000000D+00 -.255331116351497D+03
 0.181259783502504D+03 -.923337322597939D+02 0.742947835086271D+02 0.102443276020232D+03
 0.123929232802197D+03 0.171342116329978D+02 -.121953631042167D+03 -.138630952636085D+02
 0.490055810780832D+02 -.186444192169320D+02 -.116175128011319D+02 -.438060042137995D+02
 0.147501183983817D+03 0.956608329990266D+02 0.478082218605980D+02 -.447741765428237D+02
 0.120012110863015D+02 -.181689315529843D+01 0.114681384740740D+02 0.303475974990760D+01
-.151706855855D-05 0.000000000000D+00 0.000000000000D+00 0.423609064260D-07 0.000000000000D+00  7 2 -2 23 -11 11 23 21 2 0.38651129D+00 0.40018053D-02 0.49908875D+05 0.49908875D+05 0.49908875D+05 0.11473651D+01  1  2 13  1  7  1        2 -.226832838602D-03 0.100000000000D+01
-.177557319818D-05 0.000000000000D+00 0.000000000000D+00 0.423609064260D-07 0.000000000000D+00  7 2 -2 23 -11 11 23 21 2 0.37196798D+00 0.40018053D-02 0.47368259D+05 0.47368259D+05 0.47368259D+05 0.11493666D+01  1  2  8  1  7  1        2 -.301137571504D-03 0.100000000000D+01
0.313678848670D-05 0.000000000000D+00 0.000000000000D+00 0.423609064260D-07 0.220807729308D-08  7 2 -2 23 -11 11 23 21 2 0.38321862D+00 0.40744180D-02 0.49908875D+05 0.49908875D+05 0.49908875D+05 0.11473651D+01  1  2  1  1  7  1        2 0.469561820729D-03 0.100000000000D+01
  </mgrwgt>
  </event>
  <event>
  8     66 0.55102590E-06 0.40982006E+03 0.75467711E-02 0.86390969E-01
        2 -1    0    0  501    0 0.00000000E+00 0.00000000E+00 0.19656607E+04 0.19656608E+04 0.32000000E+00 0.0000E+00 0.9000E+01
       -2 -1    0    0    0  501 0.00000000E+00 0.00000000E+00 -.14139214E+03 0.14139250E+03 0.32000000E+00 0.0000E+00 0.9000E+01
       25  2    1    2    0    0 0.41058144E+02 0.35655542E+03 0.16132513E+04 0.16806534E+04 0.30528456E+03 0.0000E+00 0.0000E+00
       23  2    1    2    0    0 -.41058144E+02 -.35655542E+03 0.21101732E+03 0.42639986E+03 0.92037994E+02 0.0000E+00 0.0000E+00
       23  1    3    3    0    0 -.28305218E+01 0.25239503E+01 0.49491228E+03 0.50325719E+03 0.91188000E+02 0.0000E+00 0.9000E+01
      -13  1    4    4    0    0 -.45902595E+02 -.32840652E+03 0.21819732E+03 0.39694833E+03 0.10565837E+00 0.0000E+00 0.9000E+01
       13  1    4    4    0    0 0.48444501E+01 -.28148898E+02 -.71800025E+01 0.29451532E+02 0.10565837E+00 0.0000E+00 0.9000E+01
       23  1    3    3    0    0 0.43888666E+02 0.35403147E+03 0.11183390E+04 0.11773962E+04 0.91188000E+02 0.0000E+00 0.9000E+01
#aMCatNLO 1  0  0  1  1 0.10115566D+04 0.00000000D+00  -5  7  0 0.00000000D+00 0.00000000D+00 0.00000000D+00 0.00000000D+00 0.00000000D+00
  <mgrwgt>
 0.5857982966D-03    3    2    0
 0.527190088163890D+03 0.000000000000000D+00 0.000000000000000D+00 0.527190088163890D+03
 0.527190088163890D+03 0.000000000000000D+00 0.000000000000000D+00 -.527190088163890D+03
 0.149411737206719D+03 -.283052091700309D+01 0.252395677914866D+01 0.118297225938079D+03
 0.415733560254348D+03 -.459026616326041D+02 -.328406918110848D+03 -.250751340801466D+03
 0.712776317012638D+02 0.484451689024051D+01 -.281485024912241D+02 -.653046188607110D+02
 0.417957247165449D+03 0.438886656593667D+02 0.354031463822924D+03 0.197758733724098D+03
 0.000000000000000D+00 -.000000000000000D+00 -.000000000000000D+00 -.000000000000000D+00
 0.952392133415301D+03 0.000000000000000D+00 0.000000000000000D+00 0.952392133415301D+03
 0.188383536898606D+04 0.000000000000000D+00 0.000000000000000D+00 -.188383536898606D+04
 0.207929946443910D+03 0.641558329300894D+02 0.129651096102458D+03 0.118297225938079D+03
 0.276850913660259D+03 0.839274442892262D+02 -.820144961324895D+02 -.250751340801466D+03
 0.770511662583324D+02 0.326498522329536D+02 0.246206443131117D+02 -.653046188607110D+02
 0.899319713669430D+03 0.290822020065844D+03 0.822663194710405D+03 0.197758733724098D+03
 0.137507576236943D+04 -.471555149518113D+03 -.894920438993485D+03 -.931443235570759D+03
0.360963358127D-04 0.000000000000D+00 0.000000000000D+00 0.205292436926D-07 0.000000000000D+00  7 2 -2 23 -13 13 23 21 0 0.30240937D+00 0.21752667D-01 0.16795248D+06 0.16795248D+06 0.16795248D+06 0.11036983D+01  1  2  2  1  7  1        2 0.577275640610D-03 0.100000000000D+01
-.185070840689D-05 0.000000000000D+00 -.138619433904D-06 0.205292436926D-07 0.000000000000D+00  7 2 -2 23 -13 13 23 21 2 0.30240937D+00 0.21752667D-01 0.16795248D+06 0.16795248D+06 0.16795248D+06 0.11036983D+01  1  2  3  1  7  1        2 -.360544494017D-04 0.100000000000D+01
0.228818425992D-05 0.000000000000D+00 0.000000000000D+00 0.205292436926D-07 0.000000000000D+00  7 2 -2 23 -13 13 23 21 2 0.30240937D+00 0.21752667D-01 0.16795248D+06 0.16795248D+06 0.16795248D+06 0.11036983D+01  1  2 15  1  7  1        2 0.445771053474D-04 0.100000000000D+01
  </mgrwgt>
  </event>
  <event>
  8     66 0.55102590E-06 0.19415122E+03 0.75467711E-02 0.96324739E-01
        2 -1    0    0  501    0 0.00000000E+00 0.00000000E+00 0.14018994E+04 0.14018994E+04 0.32000000E+00 0.0000E+00 0.9000E+01
       -2 -1    0    0    0  501 0.00000000E+00 0.00000000E+00 -.64319291E+02 0.64320087E+02 0.32000000E+00 0.0000E+00 0.9000E+01
       25  2    1    2    0    0 0.17316716E+03 0.12379854E+03 0.78650732E+03 0.86838401E+03 0.30030666E+03 0.0000E+00 0.0000E+00
       23  2    1    2    0    0 -.17316716E+03 -.12379854E+03 0.55107277E+03 0.59783549E+03 0.91723108E+02 0.0000E+00 0.0000E+00
       23  1    3    3    0    0 0.29173087E+02 0.15962418E+03 0.31690613E+03 0.36752645E+03 0.91188000E+02 0.0000E+00 0.9000E+01
      -13  1    4    4    0    0 -.17649010E+03 -.12579530E+03 0.55266527E+03 0.59364309E+03 0.10565837E+00 0.0000E+00 0.9000E+01
       13  1    4    4    0    0 0.33229369E+01 0.19967530E+01 -.15925019E+01 0.41923929E+01 0.10565837E+00 0.0000E+00 0.9000E+01
       23  1    3    3    0    0 0.14399407E+03 -.35825632E+02 0.46960119E+03 0.50085756E+03 0.91188000E+02 0.0000E+00 0.9000E+01
#aMCatNLO 1  0  0  2  1 0.23573754D+03 0.00000000D+00  -5  7  0 0.00000000D+00 0.00000000D+00 0.00000000D+00 0.00000000D+00 0.00000000D+00
  <mgrwgt>
 0.2541469479D-03    7    2    0
 0.300282840460395D+03 0.000000000000000D+00 0.000000000000000D+00 0.300282840460395D+03
 0.300282840460395D+03 0.000000000000000D+00 0.000000000000000D+00 -.300282840460395D+03
 0.191464691040983D+03 0.291730882301469D+02 0.159624175860896D+03 -.448612302023135D+02
 0.218422713230009D+03 -.176490337774030D+03 -.125795467502226D+03 0.271135147678036D+02
 0.137818460083260D+02 0.332317524813894D+01 0.199692243118943D+01 -.132252820942005D+02
 0.176896430641472D+03 0.143994074295744D+03 -.358256307898590D+02 0.309729975287104D+02
 0.000000000000000D+00 0.000000000000000D+00 -.000000000000000D+00 -.000000000000000D+00
 0.386500580820697D+03 0.000000000000000D+00 0.000000000000000D+00 0.386500580820697D+03
 0.539962506429948D+03 0.000000000000000D+00 0.000000000000000D+00 -.539962506429948D+03
 0.242778176924468D+03 -.279383772921350D+02 0.218707359148671D+03 -.448612302023135D+02
 0.247292244691539D+03 -.237741001226869D+03 -.624301845036663D+02 0.271135147678036D+02
 0.144625500283417D+02 -.391517541183191D+00 0.583986137387281D+01 -.132252820942005D+02
 0.140642450332679D+03 0.102231475090126D+03 0.737878150939692D+01 0.309729975287104D+02
 0.281287665273617D+03 0.163839420970061D+03 -.169495817528275D+03 -.153461925609251D+03
0.241543194836D-05 0.000000000000D+00 0.000000000000D+00 0.306456179292D-06 0.000000000000D+00  7 2 -2 23 -13 13 23 21 0 0.21567689D+00 0.98953396D-02 0.84363820D+05 0.84363820D+05 0.84363820D+05 0.11278326D+01  1  2  2  2  7  2       -2 0.278841296025D-03 0.100000000000D+01
-.134009981763D-06 0.000000000000D+00 -.927589467955D-08 0.306456179292D-06 0.000000000000D+00  7 2 -2 23 -13 13 23 21 2 0.21567689D+00 0.98953396D-02 0.84363820D+05 0.84363820D+05 0.84363820D+05 0.11278326D+01  1  2  3  2  7  2       -2 -.196783525823D-04 0.100000000000D+01
0.156997071585D-06 0.000000000000D+00 0.000000000000D+00 0.306456179292D-06 0.000000000000D+00  7 2 -2 23 -13 13 23 21 2 0.21567689D+00 0.98953396D-02 0.84363820D+05 0.84363820D+05 0.84363820D+05 0.11278326D+01  1  2 15  2  7  2       -2 0.230538329191D-04 0.100000000000D+01
0.759009058731D-07 0.000000000000D+00 0.000000000000D+00 0.306456179292D-06 0.000000000000D+00  7 2 -2 23 -13 13 23 21 2 0.21567689D+00 0.18279147D-01 0.18626942D+06 0.18626942D+06 0.18626942D+06 0.11002056D+01  1  2 12  2  7  2       -2 0.395513518309D-05 0.100000000000D+01
-.715951878829D-06 0.000000000000D+00 -.763604321533D-06 0.306456179292D-06 0.000000000000D+00  7 2 -2 23 -13 13 23 21 2 0.21567689D+00 0.23213037D-01 0.84363820D+05 0.84363820D+05 0.84363820D+05 0.11278326D+01  1  2  5  2  7  2       -2 -.268150349045D-04 0.100000000000D+01
0.508248441262D-08 0.000000000000D+00 0.000000000000D+00 0.306456179292D-06 0.000000000000D+00  7 2 21 23 -13 13 23 2 2 0.21567689D+00 0.18279147D-01 0.18626942D+06 0.18626942D+06 0.18626942D+06 0.11002056D+01  1  2 12  4  7  2       -2 0.340806037600D-05 0.100000000000D+01
-.183718404640D-07 0.000000000000D+00 -.710218352053D-07 0.306456179292D-06 0.000000000000D+00  7 2 21 23 -13 13 23 2 2 0.21567689D+00 0.23213037D-01 0.84363820D+05 0.84363820D+05 0.84363820D+05 0.11278326D+01  1  2  5  4  7  2       -2 -.861798908842D-05 0.100000000000D+01
  </mgrwgt>
  </event>
  <event>
  8     66 0.55102590E-06 0.27989265E+03 0.75467711E-02 0.94134865E-01
        2 -1    0    0  501    0 0.00000000E+00 0.00000000E+00 0.41421212E+03 0.41421225E+03 0.32000000E+00 0.0000E+00 0.9000E+01
       -2 -1    0    0    0  501 0.00000000E+00 0.00000000E+00 -.26617527E+03 0.26617546E+03 0.32000000E+00 0.0000E+00 0.9000E+01
       25  2    1    2    0    0 0.19074544E+03 -.13121959E+03 0.19593755E+03 0.42647746E+03 0.29981510E+03 0.0000E+00 0.0000E+00
       23  2    1    2    0    0 -.19074544E+03 0.13121959E+03 -.47900688E+02 0.25391025E+03 0.92593389E+02 0.0000E+00 0.0000E+00
       23  1    3    3    0    0 0.60788425E+02 -.10554265E+03 0.21621460E+03 0.26438322E+03 0.91188000E+02 0.0000E+00 0.9000E+01
      -11  1    4    4    0    0 -.44406053E+02 0.80497788E+02 -.48663625E+00 0.91934913E+02 0.51099893E-03 0.0000E+00 0.9000E+01
       11  1    4    4    0    0 -.14633939E+03 0.50721799E+02 -.47414052E+02 0.16197534E+03 0.51099893E-03 0.0000E+00 0.9000E+01
       23  1    3    3    0    0 0.12995702E+03 -.25676939E+02 -.20277054E+02 0.16209424E+03 0.91188000E+02 0.0000E+00 0.9000E+01
#aMCatNLO 1  0  0  1  2 0.37377834D+03 0.00000000D+00  -5  7  0 0.00000000D+00 0.00000000D+00 0.00000000D+00 0.00000000D+00 0.00000000D+00
  <mgrwgt>
 0.8955038236D-04    5    2    0
 0.332043867732122D+03 0.000000000000000D+00 0.000000000000000D+00 0.332043867732122D+03
 0.332043867732122D+03 0.000000000000000D+00 0.000000000000000D+00 -.332043867732122D+03
 0.222674438430570D+03 0.607884253479124D+02 -.105542648125726D+03 0.162585887938345D+03
 0.942999265123931D+02 -.444060529902713D+02 0.804977878582051D+02 -.209924926581708D+02
 0.176520433919785D+03 -.146339388098122D+03 0.507217994817722D+02 -.846849817832375D+02
 0.170592936601497D+03 0.129957015740481D+03 -.256769392142511D+02 -.569084134969371D+02
 0.000000000000000D+00 -.000000000000000D+00 0.000000000000000D+00 0.000000000000000D+00
 0.657752951022301D+03 0.000000000000000D+00 0.000000000000000D+00 0.657752951022301D+03
 0.507242464071076D+03 0.000000000000000D+00 0.000000000000000D+00 -.507242464071076D+03
 0.314378820946456D+03 0.183641014279786D+03 -.174242929937702D+03 0.162585887938345D+03
 0.642824977440405D+02 -.812983449828283D+01 0.602117975087918D+02 -.209924926581708D+02
 0.116736858337732D+03 -.792558783196349D+02 0.132080924708912D+02 -.846849817832375D+02
 0.266653504848137D+03 0.229978487345824D+03 -.816098531746249D+02 -.569084134969371D+02
 0.402943733217013D+03 -.326233788807691D+03 0.182432893132644D+03 0.150510486951225D+03
0.165483412600D-05 0.000000000000D+00 0.000000000000D+00 0.102231560180D-06 0.000000000000D+00  7 2 -2 23 -11 11 23 21 0 0.63724966D-01 0.40950065D-01 0.78339893D+05 0.78339893D+05 0.78339893D+05 0.11305272D+01  1  2  2  1  7  1        2 0.867670506394D-04 0.100000000000D+01
-.886719877315D-07 0.000000000000D+00 -.635499877165D-08 0.102231560180D-06 0.000000000000D+00  7 2 -2 23 -11 11 23 21 2 0.63724966D-01 0.40950065D-01 0.78339893D+05 0.78339893D+05 0.78339893D+05 0.11305272D+01  1  2  3  1  7  1        2 -.594222157396D-05 0.100000000000D+01
0.105344506750D-06 0.000000000000D+00 0.000000000000D+00 0.102231560180D-06 0.000000000000D+00  7 2 -2 23 -11 11 23 21 2 0.63724966D-01 0.40950065D-01 0.78339893D+05 0.78339893D+05 0.78339893D+05 0.11305272D+01  1  2 15  1  7  1        2 0.705950567620D-05 0.100000000000D+01
0.612571366878D-07 0.000000000000D+00 -.522320032462D-06 0.102231560180D-06 0.000000000000D+00  7 2 -2 23 -11 11 23 21 2 0.17278055D+00 0.40950065D-01 0.78339893D+05 0.78339893D+05 0.78339893D+05 0.11305272D+01  1  2  5  1  7  1        2 0.121401770284D-05 0.100000000000D+01
0.370930380198D-07 0.000000000000D+00 -.581582699909D-07 0.102231560180D-06 0.000000000000D+00  7 21 -2 23 -11 11 23 -2 2 0.17278055D+00 0.40950065D-01 0.78339893D+05 0.78339893D+05 0.78339893D+05 0.11305272D+01  1  2  5  3  7  1        2 0.452029912786D-06 0.100000000000D+01
  </mgrwgt>
  </event>
  <event>
  8     66 0.55102590E-06 0.39568949E+03 0.75467711E-02 0.88818411E-01
        2 -1    0    0  501    0 0.00000000E+00 0.00000000E+00 0.28298667E+03 0.28298685E+03 0.32000000E+00 0.0000E+00 0.9000E+01
       -2 -1    0    0    0  501 0.00000000E+00 0.00000000E+00 -.64947325E+03 0.64947333E+03 0.32000000E+00 0.0000E+00 0.9000E+01
       25  2    1    2    0    0 -.18801367E+03 0.31383564E+03 -.15152332E+03 0.49707668E+03 0.30047290E+03 0.0000E+00 0.0000E+00
       23  2    1    2    0    0 0.18801367E+03 -.31383564E+03 -.21496327E+03 0.43538350E+03 0.97507133E+02 0.0000E+00 0.0000E+00
       23  1    3    3    0    0 -.16240136E+03 0.24207689E+03 -.11736409E+01 0.30543748E+03 0.91188000E+02 0.0000E+00 0.9000E+01
      -13  1    4    4    0    0 0.16257600E+03 -.28884044E+03 -.15565965E+03 0.36618260E+03 0.10565837E+00 0.0000E+00 0.9000E+01
       13  1    4    4    0    0 0.25437665E+02 -.24995191E+02 -.59303618E+02 0.69200901E+02 0.10565837E+00 0.0000E+00 0.9000E+01
       23  1    3    3    0    0 -.25612307E+02 0.71758743E+02 -.15034968E+03 0.19163920E+03 0.91188000E+02 0.0000E+00 0.9000E+01
#aMCatNLO 1  0  0  2  2 0.70272171D+03 0.00000000D+00  -5  7  0 0.00000000D+00 0.00000000D+00 0.00000000D+00 0.00000000D+00 0.00000000D+00
  <mgrwgt>
 0.2595513364D-03    5    2    0
 0.428710150240373D+03 0.000000000000000D+00 0.000000000000000D+00 0.428710150240373D+03
 0.428710150240373D+03 0.000000000000000D+00 0.000000000000000D+00 -.428710150240373D+03
 0.331667167315470D+03 -.162401361453611D+03 0.242076892646654D+03 0.129276580924858D+03
 0.331697072661873D+03 0.162576164269376D+03 -.288840753603027D+03 -.127654957580260D+02
 0.499088012588582D+02 0.254375044006083D+02 -.249948829074677D+02 -.349152923717849D+02
 0.144147259244546D+03 -.256123072163724D+02 0.717587438638402D+02 -.815957927950474D+02
 0.000000000000000D+00 -.000000000000000D+00 0.000000000000000D+00 -.000000000000000D+00
 0.796440229301387D+03 0.000000000000000D+00 0.000000000000000D+00 0.796440229301387D+03
 0.106414231282710D+04 0.000000000000000D+00 0.000000000000000D+00 -.106414231282710D+04
 0.201682673488493D+03 -.110495996121301D+03 0.586417079134480D+02 0.129276580924858D+03
 0.692928208462176D+03 0.262292233304471D+03 -.641240460785816D+03 -.127654957580260D+02
 0.899169518519885D+02 0.390452834657409D+02 -.730851997878198D+02 -.349152923717849D+02
 0.124069196648495D+03 0.490396986707999D+00 -.204890293070717D+02 -.815957927950474D+02
 0.751985511677338D+03 -.191331917635619D+03 0.676172981967259D+03 -.267702083525715D+03
0.211089681045D-04 0.000000000000D+00 0.000000000000D+00 0.274889580341D-07 0.000000000000D+00  7 2 -2 23 -13 13 23 21 0 0.43536430D-01 0.99918982D-01 0.15657017D+06 0.15657017D+06 0.15657017D+06 0.11060857D+01  1  2  2  2  7  2       -2 0.254380492697D-03 0.100000000000D+01
-.116356042268D-05 0.000000000000D+00 -.810639956404D-07 0.274889580341D-07 0.000000000000D+00  7 2 -2 23 -13 13 23 21 2 0.43536430D-01 0.99918982D-01 0.15657017D+06 0.15657017D+06 0.15657017D+06 0.11060857D+01  1  2  3  2  7  2       -2 -.171547061496D-04 0.100000000000D+01
0.135075641552D-05 0.000000000000D+00 0.000000000000D+00 0.274889580341D-07 0.000000000000D+00  7 2 -2 23 -13 13 23 21 2 0.43536430D-01 0.99918982D-01 0.15657017D+06 0.15657017D+06 0.15657017D+06 0.11060857D+01  1  2 15  2  7  2       -2 0.199145905414D-04 0.100000000000D+01
0.420693549431D-05 0.000000000000D+00 -.667231494067D-05 0.274889580341D-07 0.000000000000D+00  7 2 -2 23 -13 13 23 21 2 0.43536430D-01 0.35182244D+00 0.15657017D+06 0.15657017D+06 0.15657017D+06 0.11060857D+01  1  2  5  2  7  2       -2 0.984979397618D-06 0.100000000000D+01
0.827765772058D-06 0.000000000000D+00 -.983582088158D-06 0.274889580341D-07 0.000000000000D+00  7 2 21 23 -13 13 23 2 2 0.43536430D-01 0.35182244D+00 0.15657017D+06 0.15657017D+06 0.15657017D+06 0.11060857D+01  1  2  5  4  7  2       -2 0.142597990546D-05 0.100000000000D+01
  </mgrwgt>
  </event>
  <event>
  8     66 0.55102590E-06 0.52412661E+03 0.75467711E-02 0.89497932E-01
        2 -1    0    0  501    0 0.00000000E+00 0.00000000E+00 0.93185448E+03 0.93185454E+03 0.32000000E+00 0.0000E+00 0.9000E+01
       -2 -1    0    0    0  501 0.00000000E+00 0.00000000E+00 -.32593008E+03 0.32593024E+03 0.32000000E+00 0.0000E+00 0.9000E+01
       25  2    1    2    0    0 0.44518756E+03 0.18787921E+03 0.15603501E+03 0.59120993E+03 0.30280637E+03 0.0000E+00 0.0000E+00
       23  2    1    2    0    0 -.44518756E+03 -.18787921E+03 0.44988940E+03 0.66657484E+03 0.91820447E+02 0.0000E+00 0.0000E+00
       23  1    3    3    0    0 0.32196124E+03 0.16655115E+02 0.52437768E+02 0.33911857E+03 0.91188000E+02 0.0000E+00 0.9000E+01
      -13  1    4    4    0    0 -.30411904E+03 -.12158260E+03 0.24440812E+03 0.40866375E+03 0.10565837E+00 0.0000E+00 0.9000E+01
       13  1    4    4    0    0 -.14106852E+03 -.66296614E+02 0.20548128E+03 0.25791110E+03 0.10565837E+00 0.0000E+00 0.9000E+01
       23  1    3    3    0    0 0.12322632E+03 0.17122409E+03 0.10359724E+03 0.25209136E+03 0.91188000E+02 0.0000E+00 0.9000E+01
#aMCatNLO 1  0  0  2  1 0.47021030D+03 0.00000000D+00  -5  7  0 0.00000000D+00 0.00000000D+00 0.00000000D+00 0.00000000D+00 0.00000000D+00
  <mgrwgt>
 0.2067220649D-03    5    2    0
 0.551107556889840D+03 0.000000000000000D+00 0.000000000000000D+00 0.551107556889840D+03
 0.551107556889840D+03 0.000000000000000D+00 0.000000000000000D+00 -.551107556889840D+03
 0.358155901053578D+03 0.321961238119006D+03 0.166551167056488D+02 -.126585806281346D+03
 0.331984573462301D+03 -.304119255006710D+03 -.121582669446905D+03 0.542484123387459D+02
 0.181353267026989D+03 -.141068302670414D+03 -.662965412575166D+02 0.927011869413837D+02
 0.230721372236811D+03 0.123226319558118D+03 0.171224093998773D+03 -.203637929987837D+02
 0.000000000000000D+00 -.000000000000000D+00 -.000000000000000D+00 -.000000000000000D+00
 0.741208891587389D+03 0.000000000000000D+00 0.000000000000000D+00 0.741208891587389D+03
 0.988286526861253D+03 0.000000000000000D+00 0.000000000000000D+00 -.988286526861253D+03
 0.414061120117242D+03 0.342220165622090D+03 0.173184155564057D+03 -.126585806281346D+03
 0.292840384920445D+03 -.287727122760257D+03 0.506987447411448D+01 0.542484123387459D+02
 0.161393295729104D+03 -.132076429173144D+03 0.317847492238002D+01 0.927011869413837D+02
 0.330027310240803D+03 0.137937426143855D+03 0.284888322969353D+03 -.203637929987837D+02
 0.531173307441050D+03 -.603540398325439D+02 -.466320827929904D+03 -.247077635273864D+03
0.162639814769D-04 0.000000000000D+00 0.000000000000D+00 0.675643525662D-07 0.000000000000D+00  7 2 -2 23 -13 13 23 21 0 0.14336224D+00 0.50143105D-01 0.27470870D+06 0.27470870D+06 0.27470870D+06 0.10873931D+01  1  2  2  2  7  2       -2 0.215184024161D-03 0.100000000000D+01
-.900786395980D-06 0.000000000000D+00 -.624579712760D-07 0.675643525662D-07 0.000000000000D+00  7 2 -2 23 -13 13 23 21 2 0.14336224D+00 0.50143105D-01 0.27470870D+06 0.27470870D+06 0.27470870D+06 0.10873931D+01  1  2  3  2  7  2       -2 -.140921773126D-04 0.100000000000D+01
0.104682041030D-05 0.000000000000D+00 0.000000000000D+00 0.675643525662D-07 0.000000000000D+00  7 2 -2 23 -13 13 23 21 2 0.14336224D+00 0.50143105D-01 0.27470870D+06 0.27470870D+06 0.27470870D+06 0.10873931D+01  1  2 15  2  7  2       -2 0.163767780045D-04 0.100000000000D+01
-.394222919034D-05 0.000000000000D+00 -.494305268068D-05 0.675643525662D-07 0.000000000000D+00  7 2 -2 23 -13 13 23 21 2 0.14336224D+00 0.11441318D+00 0.27470870D+06 0.27470870D+06 0.27470870D+06 0.10873931D+01  1  2  5  2  7  2       -2 -.982728098550D-05 0.100000000000D+01
-.409115602835D-07 0.000000000000D+00 -.443401225961D-06 0.675643525662D-07 0.000000000000D+00  7 2 21 23 -13 13 23 2 2 0.14336224D+00 0.11441318D+00 0.27470870D+06 0.27470870D+06 0.27470870D+06 0.10873931D+01  1  2  5  4  7  2       -2 -.919278950807D-06 0.100000000000D+01
  </mgrwgt>
  </event>
  <event>
  8     66 0.55102590E-06 0.15560940E+03 0.75467711E-02 0.10172356E+00
        2 -1    0    0  501    0 0.00000000E+00 0.00000000E+00 0.12636506E+04 0.12636506E+04 0.32000000E+00 0.0000E+00 0.9000E+01
       -2 -1    0    0    0  501 0.00000000E+00 0.00000000E+00 -.47084595E+02 0.47085682E+02 0.32000000E+00 0.0000E+00 0.9000E+01
       25  2    1    2    0    0 -.12764239E+03 0.35281883E+02 0.88292475E+03 0.94191572E+03 0.30018614E+03 0.0000E+00 0.0000E+00
       23  2    1    2    0    0 0.12764239E+03 -.35281883E+02 0.33364126E+03 0.36882061E+03 0.84703960E+02 0.0000E+00 0.0000E+00
       23  1    3    3    0    0 0.57321184E+02 0.16562833E+02 0.19361088E+03 0.22217216E+03 0.91188000E+02 0.0000E+00 0.9000E+01
      -13  1    4    4    0    0 0.10428010E+03 -.61536319E+01 0.30305271E+03 0.32055134E+03 0.10565837E+00 0.0000E+00 0.9000E+01
       13  1    4    4    0    0 0.23362291E+02 -.29128251E+02 0.30588548E+02 0.48269267E+02 0.10565837E+00 0.0000E+00 0.9000E+01
       23  1    3    3    0    0 -.18496357E+03 0.18719050E+02 0.68931387E+03 0.71974356E+03 0.91188000E+02 0.0000E+00 0.9000E+01
#aMCatNLO 1  0  0  1  2 0.91021269D+02 0.00000000D+00  -5  7  0 0.00000000D+00 0.00000000D+00 0.00000000D+00 0.00000000D+00 0.00000000D+00
  <mgrwgt>
 0.2533500346D-03    9    2    0
 0.243924612097569D+03 0.000000000000000D+00 0.000000000000000D+00 0.243924612097569D+03
 0.243924612097569D+03 0.000000000000000D+00 0.000000000000000D+00 -.243924612097569D+03
 0.114110475628991D+03 0.573211781243617D+02 0.165628344391737D+02 -.338512091076550D+02
 0.105513542886753D+03 0.104280223346324D+03 -.615360806094763D+01 0.148618928534564D+02
 0.534084078337753D+02 0.233621808044575D+02 -.291282798281605D+02 -.381865139761551D+02
 0.214816797845619D+03 -.184963582275143D+03 0.187190534499345D+02 0.571758302303537D+02
 0.000000000000000D+00 -.000000000000000D+00 0.000000000000000D+00 0.000000000000000D+00
 0.390142621856591D+03 0.000000000000000D+00 0.000000000000000D+00 0.390142621856591D+03
 0.262719049464995D+03 0.000000000000000D+00 0.000000000000000D+00 -.262719049464995D+03
 0.124782588394188D+03 0.777404569726976D+02 0.812157706232077D+01 -.338512091076550D+02
 0.125753390930895D+03 0.124047662092742D+03 -.143253970540386D+02 0.148618928534564D+02
 0.604345043069917D+02 0.330928533018532D+02 -.331509052896408D+02 -.381865139761551D+02
 0.185297324000019D+03 -.150764004909723D+03 0.458106959333823D+01 0.571758302303537D+02
 0.156593863689492D+03 -.841169674575699D+02 0.347736556880203D+02 0.127423572391596D+03
0.103061341468D-05 0.000000000000D+00 0.000000000000D+00 0.526836708707D-08 0.000000000000D+00  7 2 -2 23 -13 13 23 21 0 0.19440787D+00 0.72438706D-02 0.52405088D+05 0.52405088D+05 0.52405088D+05 0.11455050D+01  1  2  2  1  7  1        2 0.227619548955D-03 0.100000000000D+01
-.569757736890D-07 0.000000000000D+00 -.395782687910D-08 0.526836708707D-08 0.000000000000D+00  7 2 -2 23 -13 13 23 21 2 0.19440787D+00 0.72438706D-02 0.52405088D+05 0.52405088D+05 0.52405088D+05 0.11455050D+01  1  2  3  1  7  1        2 -.165119359391D-04 0.100000000000D+01
0.669431549819D-07 0.000000000000D+00 0.000000000000D+00 0.526836708707D-08 0.000000000000D+00  7 2 -2 23 -13 13 23 21 2 0.19440787D+00 0.72438706D-02 0.52405088D+05 0.52405088D+05 0.52405088D+05 0.11455050D+01  1  2 15  1  7  1        2 0.194005454434D-04 0.100000000000D+01
0.103397438865D-05 0.000000000000D+00 0.000000000000D+00 0.526836708707D-08 0.000000000000D+00  7 2 -2 23 -13 13 23 21 2 0.31469831D+00 0.72438706D-02 0.78146413D+05 0.78146413D+05 0.78146413D+05 0.11306175D+01  1  2 12  1  7  1        2 0.111171571785D-03 0.100000000000D+01
-.120743471960D-05 0.000000000000D+00 0.000000000000D+00 0.526836708707D-08 0.000000000000D+00  7 2 -2 23 -13 13 23 21 2 0.19440787D+00 0.72438706D-02 0.52405088D+05 0.52405088D+05 0.52405088D+05 0.11455050D+01  1  2  4  1  7  1        2 -.349922141462D-03 0.100000000000D+01
-.139915774213D-05 0.000000000000D+00 -.330536110879D-06 0.526836708707D-08 0.000000000000D+00  7 2 -2 23 -13 13 23 21 2 0.31892790D+00 0.72438706D-02 0.52405088D+05 0.52405088D+05 0.52405088D+05 0.11455050D+01  1  2  5  1  7  1        2 -.150293539604D-03 0.100000000000D+01
0.142173994892D-05 0.000000000000D+00 0.293799950308D-06 0.526836708707D-08 0.000000000000D+00  7 2 -2 23 -13 13 23 21 2 0.19440787D+00 0.72438706D-02 0.52405088D+05 0.52405088D+05 0.52405088D+05 0.11455050D+01  1  2  6  1  7  1        2 0.412029138679D-03 0.100000000000D+01
0.566112274137D-07 0.000000000000D+00 0.000000000000D+00 0.526836708707D-08 0.000000000000D+00  7 21 -2 23 -13 13 23 -2 2 0.31469831D+00 0.72438706D-02 0.78146413D+05 0.78146413D+05 0.78146413D+05 0.11306175D+01  1  2 12  3  7  1        2 0.123930096719D-05 0.100000000000D+01
-.635246747753D-07 0.000000000000D+00 -.184891838561D-07 0.526836708707D-08 0.000000000000D+00  7 21 -2 23 -13 13 23 -2 2 0.31892790D+00 0.72438706D-02 0.52405088D+05 0.52405088D+05 0.52405088D+05 0.11455050D+01  1  2  5  3  7  1        2 -.138245426914D-05 0.100000000000D+01
  </mgrwgt>
  </event>
  <event>
  8     66 0.55102590E-06 0.18921062E+03 0.75467711E-02 0.94263448E-01
        2 -1    0    0  501    0 0.00000000E+00 0.00000000E+00 0.47953402E+03 0.47953413E+03 0.32000000E+00 0.0000E+00 0.9000E+01
       -2 -1    0    0    0  501 0.00000000E+00 0.00000000E+00 -.62152469E+03 0.62152477E+03 0.32000000E+00 0.0000E+00 0.9000E+01
       25  2    1    2    0    0 0.36310302E+03 -.79221560E+02 -.41378079E+03 0.63174568E+03 0.29961342E+03 0.0000E+00 0.0000E+00
       23  2    1    2    0    0 -.36310302E+03 0.79221560E+02 0.27179012E+03 0.46931323E+03 0.90913024E+02 0.0000E+00 0.0000E+00
       23  1    3    3    0    0 0.22901078E+03 -.14218889E+03 -.16743631E+03 0.33017236E+03 0.91188000E+02 0.0000E+00 0.9000E+01
      -11  1    4    4    0    0 -.23962868E+03 0.11839346E+02 0.14771700E+03 0.28174881E+03 0.51099893E-03 0.0000E+00 0.9000E+01
       11  1    4    4    0    0 -.12347434E+03 0.67382213E+02 0.12407312E+03 0.18756442E+03 0.51099893E-03 0.0000E+00 0.9000E+01
       23  1    3    3    0    0 0.13409224E+03 0.62967329E+02 -.24634447E+03 0.30157332E+03 0.91188000E+02 0.0000E+00 0.9000E+01
#aMCatNLO 1  0  0  1  2 0.17118419D+03 0.00000000D+00  -5  7  0 0.00000000D+00 0.00000000D+00 0.00000000D+00 0.00000000D+00 0.00000000D+00
  <mgrwgt>
 0.1532494549D-03    9    2    0
 0.545932541666332D+03 0.000000000000000D+00 0.000000000000000D+00 0.545932541666332D+03
 0.545932541666332D+03 0.000000000000000D+00 0.000000000000000D+00 -.545932541666332D+03
 0.311178393493643D+03 0.229010777876507D+03 -.142188889047622D+03 -.125909192202493D+03
 0.303330944146778D+03 -.239628683522480D+03 0.118393461856855D+02 0.185600607736490D+03
 0.205278752662280D+03 -.123474336261251D+03 0.673822134490173D+02 0.149509504347170D+03
 0.272076993029963D+03 0.134092241907223D+03 0.629673294129190D+02 -.209200919881166D+03
 0.000000000000000D+00 0.000000000000000D+00 -.000000000000000D+00 0.000000000000000D+00
 0.664510083483239D+03 0.000000000000000D+00 0.000000000000000D+00 0.664510083483239D+03
 0.618065604545144D+03 0.000000000000000D+00 0.000000000000000D+00 -.618065604545144D+03
 0.273149417864358D+03 0.194152651304434D+03 -.112902508590431D+03 -.125909192202493D+03
 0.336995096153905D+03 -.277827389328254D+03 0.439323454720105D+02 0.185600607736490D+03
 0.229403696637119D+03 -.149405355702415D+03 0.891684015112627D+02 0.149509504347170D+03
 0.265654660629652D+03 0.102013813188394D+03 0.899183207688674D+02 -.209200919881166D+03
 0.177372816743349D+03 0.131066280537842D+03 -.110116559161709D+03 0.464444789380954D+02
0.162079786964D-04 0.000000000000D+00 0.000000000000D+00 0.830118426976D-06 0.000000000000D+00  7 2 -2 23 -11 11 23 21 0 0.73774480D-01 0.95619198D-01 0.17602599D+06 0.17602599D+06 0.17602599D+06 0.11021099D+01  1  2  2  1  7  1        2 0.120899324517D-03 0.100000000000D+01
-.824542527833D-06 0.000000000000D+00 -.622429058529D-07 0.830118426976D-06 0.000000000000D+00  7 2 -2 23 -11 11 23 21 2 0.73774480D-01 0.95619198D-01 0.17602599D+06 0.17602599D+06 0.17602599D+06 0.11021099D+01  1  2  3  1  7  1        2 -.747064128357D-05 0.100000000000D+01
0.103756818849D-05 0.000000000000D+00 0.000000000000D+00 0.830118426976D-06 0.000000000000D+00  7 2 -2 23 -11 11 23 21 2 0.73774480D-01 0.95619198D-01 0.17602599D+06 0.17602599D+06 0.17602599D+06 0.11021099D+01  1  2 15  1  7  1        2 0.940072765422D-05 0.100000000000D+01
0.977953477805D-05 0.000000000000D+00 0.000000000000D+00 0.830118426976D-06 0.000000000000D+00  7 2 -2 23 -11 11 23 21 2 0.93806469D-01 0.95619198D-01 0.26655737D+06 0.26655737D+06 0.26655737D+06 0.10883701D+01  1  2 12  1  7  1        2 0.647886734872D-04 0.100000000000D+01
-.113904070709D-04 0.000000000000D+00 0.000000000000D+00 0.830118426976D-06 0.000000000000D+00  7 2 -2 23 -11 11 23 21 2 0.73774480D-01 0.95619198D-01 0.17602599D+06 0.17602599D+06 0.17602599D+06 0.11021099D+01  1  2  4  1  7  1        2 -.103201038671D-03 0.100000000000D+01
-.207857677129D-04 0.000000000000D+00 -.845031237152D-05 0.830118426976D-06 0.000000000000D+00  7 2 -2 23 -11 11 23 21 2 0.99197534D-01 0.95619198D-01 0.17602599D+06 0.17602599D+06 0.17602599D+06 0.11021099D+01  1  2  5  1  7  1        2 -.134048941619D-03 0.100000000000D+01
0.226452913838D-04 0.000000000000D+00 0.809293704327D-05 0.830118426976D-06 0.000000000000D+00  7 2 -2 23 -11 11 23 21 2 0.73774480D-01 0.95619198D-01 0.17602599D+06 0.17602599D+06 0.17602599D+06 0.11021099D+01  1  2  6  1  7  1        2 0.205174194150D-03 0.100000000000D+01
0.321341345815D-06 0.000000000000D+00 0.000000000000D+00 0.830118426976D-06 0.000000000000D+00  7 21 -2 23 -11 11 23 -2 2 0.93806469D-01 0.95619198D-01 0.26655737D+06 0.26655737D+06 0.26655737D+06 0.10883701D+01  1  2 12  3  7  1        2 0.309176961569D-05 0.100000000000D+01
-.610261346237D-06 0.000000000000D+00 -.323573997444D-06 0.830118426976D-06 0.000000000000D+00  7 21 -2 23 -11 11 23 -2 2 0.99197534D-01 0.95619198D-01 0.17602599D+06 0.17602599D+06 0.17602599D+06 0.11021099D+01  1  2  5  3  7  1        2 -.538461292340D-05 0.100000000000D+01
  </mgrwgt>
  </event>
  <event>
  8     66 0.55102590E-06 0.25417172E+03 0.75467711E-02 0.10209489E+00
        2 -1    0    0  501    0 0.00000000E+00 0.00000000E+00 0.12997423E+04 0.12997424E+04 0.32000000E+00 0.0000E+00 0.9000E+01
       -2 -1    0    0    0  501 0.00000000E+00 0.00000000E+00 -.62003896E+02 0.62004722E+02 0.32000000E+00 0.0000E+00 0.9000E+01
       25  2    1    2    0    0 -.14826221E+03 0.85656795E+02 0.98728356E+03 0.10454311E+04 0.29812530E+03 0.0000E+00 0.0000E+00
       23  2    1    2    0    0 0.14826221E+03 -.85656795E+02 0.25045487E+03 0.31631593E+03 0.89495028E+02 0.0000E+00 0.0000E+00
       23  1    3    3    0    0 -.52972451E+02 -.65481769E+02 0.55731683E+03 0.57097394E+03 0.91188000E+02 0.0000E+00 0.9000E+01
      -13  1    4    4    0    0 0.75572482E+02 -.80994224E+02 0.10034453E+03 0.14946672E+03 0.10565837E+00 0.0000E+00 0.9000E+01
       13  1    4    4    0    0 0.72689724E+02 -.46625710E+01 0.15011033E+03 0.16684921E+03 0.10565837E+00 0.0000E+00 0.9000E+01
       23  1    3    3    0    0 -.95289755E+02 0.15113856E+03 0.42996673E+03 0.47445721E+03 0.91188000E+02 0.0000E+00 0.9000E+01
#aMCatNLO 1  0  0  1  2 0.35350585D+02 0.00000000D+00  -5  7  0 0.00000000D+00 0.00000000D+00 0.00000000D+00 0.00000000D+00 0.00000000D+00
  <mgrwgt>
 0.3340444742D-04    4    2    0
 0.283883208897202D+03 0.000000000000000D+00 0.000000000000000D+00 0.283883208897202D+03
 0.283883208897202D+03 0.000000000000000D+00 0.000000000000000D+00 -.283883208897202D+03
 0.154481916060492D+03 -.529724516488625D+02 -.654817673431493D+02 0.919536217755860D+02
 0.139732886782686D+03 0.755724874241638D+02 -.809943300788206D+02 -.851704014798024D+02
 0.729332400188381D+02 0.726897200109039D+02 -.466246518975406D+01 -.370452732965735D+01
 0.200618374932388D+03 -.952897557862052D+02 0.151138562611724D+03 -.307869296612629D+01
 0.000000000000000D+00 0.000000000000000D+00 -.000000000000000D+00 -.000000000000000D+00
 0.296719934601864D+03 0.000000000000000D+00 0.000000000000000D+00 0.296719934601864D+03
 0.309859469050238D+03 0.000000000000000D+00 0.000000000000000D+00 -.309859469050238D+03
 0.156338509116228D+03 -.619545924965023D+02 -.619083031557931D+02 0.919536217755860D+02
 0.133767262069850D+03 0.676688341895116D+02 -.778499325167704D+02 -.851704014798024D+02
 0.687618921599856D+02 0.685949902841444D+02 -.303341368814881D+01 -.370452732965735D+01
 0.209998198723600D+03 -.107155822492910D+03 0.155859370840013D+03 -.307869296612629D+01
 0.377135415824392D+02 0.328465905157564D+02 -.130677214793007D+02 -.131395344483744D+02
0.138361733559D-05 0.000000000000D+00 0.000000000000D+00 0.887969134868D-08 0.000000000000D+00  7 2 -2 23 -13 13 23 21 0 0.19996042D+00 0.95391274D-02 0.64603264D+05 0.64603264D+05 0.64603264D+05 0.11376336D+01  1  2  2  1  7  1        2 0.192461507936D-03 0.100000000000D+01
-.757253707646D-07 0.000000000000D+00 -.531345488349D-08 0.887969134868D-08 0.000000000000D+00  7 2 -2 23 -13 13 23 21 2 0.19996042D+00 0.95391274D-02 0.64603264D+05 0.64603264D+05 0.64603264D+05 0.11376336D+01  1  2  3  1  7  1        2 -.136324571471D-04 0.100000000000D+01
0.896110462880D-07 0.000000000000D+00 0.000000000000D+00 0.887969134868D-08 0.000000000000D+00  7 2 -2 23 -13 13 23 21 2 0.19996042D+00 0.95391274D-02 0.64603264D+05 0.64603264D+05 0.64603264D+05 0.11376336D+01  1  2 15  1  7  1        2 0.161322253835D-04 0.100000000000D+01
-.897413476144D-06 0.000000000000D+00 0.000000000000D+00 0.887969134868D-08 0.000000000000D+00  7 2 -2 23 -13 13 23 21 2 0.19996042D+00 0.95391274D-02 0.64603264D+05 0.64603264D+05 0.64603264D+05 0.11376336D+01  1  2  4  1  7  1        2 -.161556828751D-03 0.100000000000D+01
  </mgrwgt>
  </event>
  <event>
  8     66 0.55102590E-06 0.21157441E+03 0.75467711E-02 0.96825147E-01
        2 -1    0    0  501    0 0.00000000E+00 0.00000000E+00 0.84723466E+03 0.84723472E+03 0.32000000E+00 0.0000E+00 0.9000E+01
       -2 -1    0    0    0  501 0.00000000E+00 0.00000000E+00 -.33794803E+03 0.33794818E+03 0.32000000E+00 0.0000E+00 0.9000E+01
       25  2    1    2    0    0 -.27209773E+03 0.18741806E+03 0.67230630E+03 0.80577991E+03 0.29685486E+03 0.0000E+00 0.0000E+00
       23  2    1    2    0    0 0.27209773E+03 -.18741806E+03 -.16301967E+03 0.37940299E+03 0.90600837E+02 0.0000E+00 0.0000E+00
       23  1    3    3    0    0 -.13640967E+03 0.17282059E+02 0.45882019E+03 0.48758331E+03 0.91188000E+02 0.0000E+00 0.9000E+01
      -13  1    4    4    0    0 0.13914215E+03 -.11267515E+03 -.40015321E+02 0.18345970E+03 0.10565837E+00 0.0000E+00 0.9000E+01
       13  1    4    4    0    0 0.13295558E+03 -.74742913E+02 -.12300435E+03 0.19594328E+03 0.10565837E+00 0.0000E+00 0.9000E+01
       23  1    3    3    0    0 -.13568806E+03 0.17013600E+03 0.21348611E+03 0.31819660E+03 0.91188000E+02 0.0000E+00 0.9000E+01
#aMCatNLO 1  0  0  1  2 0.91922492D+02 0.00000000D+00  -5  7  0 0.00000000D+00 0.00000000D+00 0.00000000D+00 0.00000000D+00 0.00000000D+00
  <mgrwgt>
 0.2722668807D-03    9    2    0
 0.535090096800039D+03 0.000000000000000D+00 0.000000000000000D+00 0.535090096800039D+03
 0.535090096800039D+03 0.000000000000000D+00 0.000000000000000D+00 -.535090096800039D+03
 0.321632206001068D+03 -.136409667774560D+03 0.172820590535781D+02 0.276090125802457D+03
 0.222217246685508D+03 0.139142153903845D+03 -.112675201745658D+03 -.131621672391221D+03
 0.275536007851240D+03 0.132955574531949D+03 -.747428609819275D+02 -.229469848903323D+03
 0.250794733062261D+03 -.135688060661235D+03 0.170136003674007D+03 0.850013954920875D+02
 0.000000000000000D+00 0.000000000000000D+00 -.000000000000000D+00 0.000000000000000D+00
 0.638416163851871D+03 0.000000000000000D+00 0.000000000000000D+00 0.638416163851871D+03
 0.557902167220938D+03 0.000000000000000D+00 0.000000000000000D+00 -.557902167220938D+03
 0.334612853067705D+03 -.164458212493600D+03 0.194486213368132D+02 0.276090125802457D+03
 0.210374092554134D+03 0.120652784184322D+03 -.111247021728606D+03 -.131621672391221D+03
 0.264669920293851D+03 0.109866653825149D+03 -.729593964469565D+02 -.229469848903323D+03
 0.264463886742422D+03 -.157710709425967D+03 0.171837105840574D+03 0.850013954920875D+02
 0.122197578414697D+03 0.916494839100964D+02 -.707930900182420D+01 0.805139966309324D+02
0.145194185910D-04 0.000000000000D+00 0.000000000000D+00 0.436550573549D-07 0.000000000000D+00  7 2 -2 23 -13 13 23 21 0 0.13034381D+00 0.51992021D-01 0.13414167D+06 0.13414167D+06 0.13414167D+06 0.11114019D+01  1  2  2  1  7  1        2 0.207163117228D-03 0.100000000000D+01
-.665677264507D-06 0.000000000000D+00 -.557583904402D-07 0.436550573549D-07 0.000000000000D+00  7 2 -2 23 -13 13 23 21 2 0.13034381D+00 0.51992021D-01 0.13414167D+06 0.13414167D+06 0.13414167D+06 0.11114019D+01  1  2  3  1  7  1        2 -.117319227845D-04 0.100000000000D+01
0.926003661619D-06 0.000000000000D+00 0.000000000000D+00 0.436550573549D-07 0.000000000000D+00  7 2 -2 23 -13 13 23 21 2 0.13034381D+00 0.51992021D-01 0.13414167D+06 0.13414167D+06 0.13414167D+06 0.11114019D+01  1  2 15  1  7  1        2 0.163199256389D-04 0.100000000000D+01
0.267608824394D-04 0.000000000000D+00 0.000000000000D+00 0.436550573549D-07 0.000000000000D+00  7 2 -2 23 -13 13 23 21 2 0.15791435D+00 0.51992021D-01 0.17114866D+06 0.17114866D+06 0.17114866D+06 0.11030597D+01  1  2 12  1  7  1        2 0.355064265415D-03 0.100000000000D+01
-.280243926555D-04 0.000000000000D+00 0.000000000000D+00 0.436550573549D-07 0.000000000000D+00  7 2 -2 23 -13 13 23 21 2 0.13034381D+00 0.51992021D-01 0.13414167D+06 0.13414167D+06 0.13414167D+06 0.11114019D+01  1  2  4  1  7  1        2 -.493903019146D-03 0.100000000000D+01
-.429289685800D-04 0.000000000000D+00 -.982220642886D-05 0.436550573549D-07 0.000000000000D+00  7 2 -2 23 -13 13 23 21 2 0.15918359D+00 0.51992021D-01 0.13414167D+06 0.13414167D+06 0.13414167D+06 0.11114019D+01  1  2  5  1  7  1        2 -.576124711270D-03 0.100000000000D+01
0.441993626535D-04 0.000000000000D+00 0.962920709296D-05 0.436550573549D-07 0.000000000000D+00  7 2 -2 23 -13 13 23 21 2 0.13034381D+00 0.51992021D-01 0.13414167D+06 0.13414167D+06 0.13414167D+06 0.11114019D+01  1  2  6  1  7  1        2 0.778971338549D-03 0.100000000000D+01
0.741748926874D-06 0.000000000000D+00 0.000000000000D+00 0.436550573549D-07 0.000000000000D+00  7 21 -2 23 -13 13 23 -2 2 0.15791435D+00 0.51992021D-01 0.17114866D+06 0.17114866D+06 0.17114866D+06 0.11030597D+01  1  2 12  3  7  1        2 0.674245919767D-05 0.100000000000D+01
-.111493290599D-05 0.000000000000D+00 -.280953691801D-06 0.436550573549D-07 0.000000000000D+00  7 21 -2 23 -13 13 23 -2 2 0.15918359D+00 0.51992021D-01 0.13414167D+06 0.13414167D+06 0.13414167D+06 0.11114019D+01  1  2  5  3  7  1        2 -.102345721401D-04 0.100000000000D+01
  </mgrwgt>
  </event>
  <event>
  8     66 0.55102590E-06 0.18604162E+03 0.75467711E-02 0.94004704E-01
        2 -1    0    0  501    0 0.00000000E+00 0.00000000E+00 0.67741106E+03 0.67741114E+03 0.32000000E+00 0.0000E+00 0.9000E+01
       -2 -1    0    0    0  501 0.00000000E+00 0.00000000E+00 -.53948940E+03 0.53948950E+03 0.32000000E+00 0.0000E+00 0.9000E+01
       25  2    1    2    0    0 0.38426814E+03 -.15006895E+02 -.34171882E+03 0.59556229E+03 0.30005911E+03 0.0000E+00 0.0000E+00
       23  2    1    2    0    0 -.38426814E+03 0.15006895E+02 0.47964048E+03 0.62133835E+03 0.90106257E+02 0.0000E+00 0.0000E+00
       23  1    3    3    0    0 0.37288444E+03 -.55651095E+01 -.32206846E+03 0.50111588E+03 0.91188000E+02 0.0000E+00 0.9000E+01
      -11  1    4    4    0    0 -.15202352E+03 -.34962918E+02 0.16467859E+03 0.22683164E+03 0.51099893E-03 0.0000E+00 0.9000E+01
       11  1    4    4    0    0 -.23224463E+03 0.49969812E+02 0.31496189E+03 0.39450671E+03 0.51099893E-03 0.0000E+00 0.9000E+01
       23  1    3    3    0    0 0.11383701E+02 -.94417850E+01 -.19650362E+02 0.94446408E+02 0.91188000E+02 0.0000E+00 0.9000E+01
#aMCatNLO 1  0  0  2  1 0.17923647D+03 0.00000000D+00  -5  7  0 0.00000000D+00 0.00000000D+00 0.00000000D+00 0.00000000D+00 0.00000000D+00
  <mgrwgt>
 0.2094224183D-03    9    2    0
 0.604529729356631D+03 0.000000000000000D+00 0.000000000000000D+00 0.604529729356631D+03
 0.604529729356631D+03 0.000000000000000D+00 0.000000000000000D+00 -.604529729356631D+03
 0.541105273105828D+03 0.372884443704611D+03 -.556510951937343D+01 -.381321237853432D+03
 0.209517260064797D+03 -.152023515614259D+03 -.349629175899532D+02 0.139871109808063D+03
 0.361136413238061D+03 -.232244629198266D+03 0.499698121015429D+02 0.272001762960368D+03
 0.973005123045761D+02 0.113837011079137D+02 -.944178499221622D+01 -.305516349149995D+02
 0.000000000000000D+00 -.000000000000000D+00 0.000000000000000D+00 -.000000000000000D+00
 0.661971692996984D+03 0.000000000000000D+00 0.000000000000000D+00 0.661971692996984D+03
 0.769125355979781D+03 0.000000000000000D+00 0.000000000000000D+00 -.769125355979781D+03
 0.598458830378350D+03 0.450583024949883D+03 -.375069527256348D+02 -.381321237853432D+03
 0.192933661520445D+03 -.124583316741357D+03 -.462435679686264D+02 0.139871109808063D+03
 0.330423297270724D+03 -.185092206452905D+03 0.305854775359835D+02 0.272001762960368D+03
 0.100456883848962D+03 0.248673384609241D+02 -.149849007515681D+02 -.305516349149995D+02
 0.208824375958284D+03 -.165774840216544D+03 0.681499439098459D+02 -.107153662982797D+03
0.245431086342D-04 0.000000000000D+00 0.000000000000D+00 0.119296819697D-05 0.000000000000D+00  7 2 -2 23 -11 11 23 21 0 0.10421710D+00 0.82998383D-01 0.18915719D+06 0.18915719D+06 0.18915719D+06 0.10996894D+01  1  2  2  2  7  2       -2 0.170106043183D-03 0.100000000000D+01
-.118375149043D-05 0.000000000000D+00 -.942519995042D-07 0.119296819697D-05 0.000000000000D+00  7 2 -2 23 -11 11 23 21 2 0.10421710D+00 0.82998383D-01 0.18915719D+06 0.18915719D+06 0.18915719D+06 0.10996894D+01  1  2  3  2  7  2       -2 -.992180746289D-05 0.100000000000D+01
0.154443289281D-05 0.000000000000D+00 0.000000000000D+00 0.119296819697D-05 0.000000000000D+00  7 2 -2 23 -11 11 23 21 2 0.10421710D+00 0.82998383D-01 0.18915719D+06 0.18915719D+06 0.18915719D+06 0.10996894D+01  1  2 15  2  7  2       -2 0.129449178528D-04 0.100000000000D+01
0.185008389646D-04 0.000000000000D+00 0.000000000000D+00 0.119296819697D-05 0.000000000000D+00  7 2 -2 23 -11 11 23 21 2 0.10421710D+00 0.10872050D+00 0.27913850D+06 0.27913850D+06 0.27913850D+06 0.10868753D+01  1  2 12  2  7  2       -2 0.787756026738D-04 0.100000000000D+01
-.231980808020D-04 0.000000000000D+00 0.000000000000D+00 0.119296819697D-05 0.000000000000D+00  7 2 -2 23 -11 11 23 21 2 0.10421710D+00 0.82998383D-01 0.18915719D+06 0.18915719D+06 0.18915719D+06 0.10996894D+01  1  2  4  2  7  2       -2 -.194438522855D-03 0.100000000000D+01
-.331345126049D-04 0.000000000000D+00 -.118222430563D-04 0.119296819697D-05 0.000000000000D+00  7 2 -2 23 -11 11 23 21 2 0.10421710D+00 0.11268542D+00 0.18915719D+06 0.18915719D+06 0.18915719D+06 0.10996894D+01  1  2  5  2  7  2       -2 -.134120930309D-03 0.100000000000D+01
0.356039483656D-04 0.000000000000D+00 0.112902922775D-04 0.119296819697D-05 0.000000000000D+00  7 2 -2 23 -11 11 23 21 2 0.10421710D+00 0.82998383D-01 0.18915719D+06 0.18915719D+06 0.18915719D+06 0.10996894D+01  1  2  6  2  7  2       -2 0.298420338608D-03 0.100000000000D+01
0.662426708726D-06 0.000000000000D+00 0.000000000000D+00 0.119296819697D-05 0.000000000000D+00  7 2 21 23 -11 11 23 2 2 0.10421710D+00 0.10872050D+00 0.27913850D+06 0.27913850D+06 0.27913850D+06 0.10868753D+01  1  2 12  4  7  2       -2 0.256449296714D-04 0.100000000000D+01
-.102558415567D-05 0.000000000000D+00 -.463331790334D-06 0.119296819697D-05 0.000000000000D+00  7 2 21 23 -11 11 23 2 2 0.10421710D+00 0.11268542D+00 0.18915719D+06 0.18915719D+06 0.18915719D+06 0.10996894D+01  1  2  5  4  7  2       -2 -.379881530592D-04 0.100000000000D+01
  </mgrwgt>
  </event>
  <event>
  8     66 0.55102590E-06 0.10439092E+03 0.75467711E-02 0.99913023E-01
        2 -1    0    0  501    0 0.00000000E+00 0.00000000E+00 0.28090536E+04 0.28090536E+04 0.32000000E+00 0.0000E+00 0.9000E+01
       -2 -1    0    0    0  501 0.00000000E+00 0.00000000E+00 -.39684905E+02 0.39686195E+02 0.32000000E+00 0.0000E+00 0.9000E+01
       25  2    1    2    0    0 0.11004340E+03 -.17420910E+03 0.99122053E+03 0.10561152E+04 0.30067049E+03 0.0000E+00 0.0000E+00
       23  2    1    2    0    0 -.11004340E+03 0.17420910E+03 0.17781482E+04 0.17926247E+04 0.96093016E+02 0.0000E+00 0.0000E+00
       23  1    3    3    0    0 -.31601186E+02 0.28570476E+02 0.29084588E+03 0.30776856E+03 0.91188000E+02 0.0000E+00 0.9000E+01
      -11  1    4    4    0    0 -.84618681E+02 0.14300375E+03 0.10232157E+04 0.10366199E+04 0.51099893E-03 0.0000E+00 0.9000E+01
       11  1    4    4    0    0 -.25424719E+02 0.31205352E+02 0.75493251E+03 0.75600482E+03 0.51099893E-03 0.0000E+00 0.9000E+01
       23  1    3    3    0    0 0.14164459E+03 -.20277958E+03 0.70037465E+03 0.74834661E+03 0.91188000E+02 0.0000E+00 0.9000E+01
#aMCatNLO 1  0  0  1  2 0.68987535D+02 0.00000000D+00  -5  7  0 0.00000000D+00 0.00000000D+00 0.00000000D+00 0.00000000D+00 0.00000000D+00
  <mgrwgt>
 0.3608895156D-03    9    2    0
 0.333884544016251D+03 0.000000000000000D+00 0.000000000000000D+00 0.333884544016251D+03
 0.333884544016251D+03 0.000000000000000D+00 0.000000000000000D+00 -.333884544016251D+03
 0.106763050618133D+03 -.316011856462008D+02 0.285704764603750D+02 -.356116634527435D+02
 0.178802490388598D+03 -.846186805786672D+02 0.143003749103964D+03 0.660298206002465D+02
 0.943058985720673D+02 -.254247190949291D+02 0.312053518636568D+02 0.852843020695741D+02
 0.287897648453705D+03 0.141644585319797D+03 -.202779577427995D+03 -.115702459217077D+03
 0.000000000000000D+00 -.000000000000000D+00 -.000000000000000D+00 0.000000000000000D+00
 0.431182535404153D+03 0.000000000000000D+00 0.000000000000000D+00 0.431182535404153D+03
 0.348117716020856D+03 0.000000000000000D+00 0.000000000000000D+00 -.348117716020856D+03
 0.105939477253557D+03 -.220589180999209D+02 0.339578423217143D+02 -.356116634527435D+02
 0.179404929965313D+03 -.685487679345556D+02 0.152076487669897D+03 0.660298206002465D+02
 0.941055045160061D+02 -.169722007585184D+02 0.359774679783089D+02 0.852843020695741D+02
 0.291873285370720D+03 0.167654287326942D+03 -.188095040447943D+03 -.115702459217077D+03
 0.107977054319413D+03 -.600744005339476D+02 -.339167575219776D+02 0.830648193832968D+02
0.604075414209D-05 0.000000000000D+00 0.000000000000D+00 0.162751989946D-07 0.000000000000D+00  7 2 -2 23 -11 11 23 21 0 0.43216220D+00 0.61054706D-02 0.81421415D+05 0.81421415D+05 0.81421415D+05 0.11291214D+01  1  2  2  1  7  1        2 0.243820314249D-03 0.100000000000D+01
-.325527115370D-06 0.000000000000D+00 -.231980864727D-07 0.162751989946D-07 0.000000000000D+00  7 2 -2 23 -11 11 23 21 2 0.43216220D+00 0.61054706D-02 0.81421415D+05 0.81421415D+05 0.81421415D+05 0.11291214D+01  1  2  3  1  7  1        2 -.167512483860D-04 0.100000000000D+01
0.381719529404D-06 0.000000000000D+00 0.000000000000D+00 0.162751989946D-07 0.000000000000D+00  7 2 -2 23 -11 11 23 21 2 0.43216220D+00 0.61054706D-02 0.81421415D+05 0.81421415D+05 0.81421415D+05 0.11291214D+01  1  2 15  1  7  1        2 0.196428449395D-04 0.100000000000D+01
0.773155853542D-05 0.000000000000D+00 0.000000000000D+00 0.162751989946D-07 0.000000000000D+00  7 2 -2 23 -11 11 23 21 2 0.56536699D+00 0.61054706D-02 0.10346342D+06 0.10346342D+06 0.10346342D+06 0.11205106D+01  1  2 12  1  7  1        2 0.104252391735D-03 0.100000000000D+01
-.799548442081D-05 0.000000000000D+00 0.000000000000D+00 0.162751989946D-07 0.000000000000D+00  7 2 -2 23 -11 11 23 21 2 0.43216220D+00 0.61054706D-02 0.81421415D+05 0.81421415D+05 0.81421415D+05 0.11291214D+01  1  2  4  1  7  1        2 -.411438369264D-03 0.100000000000D+01
-.109909900368D-04 0.000000000000D+00 -.211048068075D-05 0.162751989946D-07 0.000000000000D+00  7 2 -2 23 -11 11 23 21 2 0.56304771D+00 0.61054706D-02 0.81421415D+05 0.81421415D+05 0.81421415D+05 0.11291214D+01  1  2  5  1  7  1        2 -.156269502690D-03 0.100000000000D+01
0.112259417833D-04 0.000000000000D+00 0.203871485841D-05 0.162751989946D-07 0.000000000000D+00  7 2 -2 23 -11 11 23 21 2 0.43216220D+00 0.61054706D-02 0.81421415D+05 0.81421415D+05 0.81421415D+05 0.11291214D+01  1  2  6  1  7  1        2 0.577673964164D-03 0.100000000000D+01
0.275867296587D-06 0.000000000000D+00 0.000000000000D+00 0.162751989946D-07 0.000000000000D+00  7 21 -2 23 -11 11 23 -2 2 0.56536699D+00 0.61054706D-02 0.10346342D+06 0.10346342D+06 0.10346342D+06 0.11205106D+01  1  2 12  3  7  1        2 0.108395408721D-06 0.100000000000D+01
-.348989861994D-06 0.000000000000D+00 -.744593310083D-07 0.162751989946D-07 0.000000000000D+00  7 21 -2 23 -11 11 23 -2 2 0.56304771D+00 0.61054706D-02 0.81421415D+05 0.81421415D+05 0.81421415D+05 0.11291214D+01  1  2  5  3  7  1        2 -.149274582283D-06 0.100000000000D+01
  </mgrwgt>
  </event>
  <event>
  8     66 0.55102590E-06 0.22418228E+03 0.75467711E-02 0.93064560E-01
        2 -1    0    0  501    0 0.00000000E+00 0.00000000E+00 0.90973618E+03 0.90973624E+03 0.32000000E+00 0.0000E+00 0.9000E+01
       -2 -1    0    0    0  501 0.00000000E+00 0.00000000E+00 -.94054238E+03 0.94054244E+03 0.32000000E+00 0.0000E+00 0.9000E+01
       25  2    1    2    0    0 -.28701314E+03 0.30171883E+03 -.81026842E+03 0.96167804E+03 0.30802426E+03 0.0000E+00 0.0000E+00
       23  2    1    2    0    0 0.28701314E+03 -.30171883E+03 0.77946222E+03 0.88860064E+03 0.92945897E+02 0.0000E+00 0.0000E+00
       23  1    3    3    0    0 -.11082217E+03 -.14707980E+02 -.23859097E+03 0.27881675E+03 0.91188000E+02 0.0000E+00 0.9000E+01
      -13  1    4    4    0    0 0.12396586E+03 -.74989778E+02 0.31349129E+03 0.34535171E+03 0.10565837E+00 0.0000E+00 0.9000E+01
       13  1    4    4    0    0 0.16304728E+03 -.22672905E+03 0.46597093E+03 0.54324893E+03 0.10565837E+00 0.0000E+00 0.9000E+01
       23  1    3    3    0    0 -.17619097E+03 0.31642681E+03 -.57167746E+03 0.68286129E+03 0.91188000E+02 0.0000E+00 0.9000E+01
#aMCatNLO 1  0  0  2  1 0.21123472D+03 0.00000000D+00  -5  7  0 0.00000000D+00 0.00000000D+00 0.00000000D+00 0.00000000D+00 0.00000000D+00
  <mgrwgt>
 0.2692361659D-03    9    2    0
 0.925011103268531D+03 0.000000000000000D+00 0.000000000000000D+00 0.925011103268531D+03
 0.925011103268531D+03 0.000000000000000D+00 0.000000000000000D+00 -.925011103268531D+03
 0.274882431877379D+03 -.110822171739862D+03 -.147079804724886D+02 -.233981241923585D+03
 0.350619522557768D+03 0.123965809711835D+03 -.749895820139362D+02 0.319285280290998D+03
 0.551083750349133D+03 0.163047331075219D+03 -.226729245493041D+03 0.475081800289456D+03
 0.673436501752781D+03 -.176190969047192D+03 0.316426807979466D+03 -.560385838656868D+03
 0.000000000000000D+00 0.000000000000000D+00 -.000000000000000D+00 -.000000000000000D+00
 0.100988322224617D+04 0.000000000000000D+00 0.000000000000000D+00 0.100988322224617D+04
 0.107247125534792D+04 0.000000000000000D+00 0.000000000000000D+00 -.107247125534792D+04
 0.280566561459591D+03 -.124350591162906D+03 0.138583177402819D+02 -.233981241923585D+03
 0.339101066223607D+03 0.107167094579260D+03 -.395178028605559D+02 0.319285280290998D+03
 0.523299471667167D+03 0.136879839509167D+03 -.171474574257557D+03 0.475081800289456D+03
 0.719075400279354D+03 -.210106747612376D+03 0.388042583208983D+03 -.560385838656868D+03
 0.220311977964378D+03 0.904104046868559D+02 -.190908523831153D+03 -.625880331017502D+02
0.177191158305D-03 0.000000000000D+00 0.000000000000D+00 0.115978307827D-07 0.000000000000D+00  7 2 -2 23 -13 13 23 21 0 0.13995942D+00 0.14469884D+00 0.22179118D+06 0.22179118D+06 0.22179118D+06 0.10943924D+01  1  2  2  2  7  2       -2 0.211011869868D-03 0.100000000000D+01
-.438969472716D-05 0.000000000000D+00 -.680460703396D-06 0.115978307827D-07 0.000000000000D+00  7 2 -2 23 -13 13 23 21 2 0.13995942D+00 0.14469884D+00 0.22179118D+06 0.22179118D+06 0.22179118D+06 0.10943924D+01  1  2  3  2  7  2       -2 -.626102317711D-05 0.100000000000D+01
0.109893828353D-04 0.000000000000D+00 0.000000000000D+00 0.115978307827D-07 0.000000000000D+00  7 2 -2 23 -13 13 23 21 2 0.13995942D+00 0.14469884D+00 0.22179118D+06 0.22179118D+06 0.22179118D+06 0.10943924D+01  1  2 15  2  7  2       -2 0.156741607129D-04 0.100000000000D+01
0.122762914850D-03 0.000000000000D+00 0.000000000000D+00 0.115978307827D-07 0.000000000000D+00  7 2 -2 23 -13 13 23 21 2 0.13995942D+00 0.17355135D+00 0.33078791D+06 0.33078791D+06 0.33078791D+06 0.10814267D+01  1  2 12  2  7  2       -2 0.100261008699D-03 0.100000000000D+01
-.158406863451D-03 0.000000000000D+00 0.000000000000D+00 0.115978307827D-07 0.000000000000D+00  7 2 -2 23 -13 13 23 21 2 0.13995942D+00 0.14469884D+00 0.22179118D+06 0.22179118D+06 0.22179118D+06 0.10943924D+01  1  2  4  2  7  2       -2 -.225935766637D-03 0.100000000000D+01
-.268344619464D-03 0.000000000000D+00 -.110006298648D-03 0.115978307827D-07 0.000000000000D+00  7 2 -2 23 -13 13 23 21 2 0.13995942D+00 0.17774971D+00 0.22179118D+06 0.22179118D+06 0.22179118D+06 0.10943924D+01  1  2  5  2  7  2       -2 -.214016692980D-03 0.100000000000D+01
0.287164700677D-03 0.000000000000D+00 0.107718837994D-03 0.115978307827D-07 0.000000000000D+00  7 2 -2 23 -13 13 23 21 2 0.13995942D+00 0.14469884D+00 0.22179118D+06 0.22179118D+06 0.22179118D+06 0.10943924D+01  1  2  6  2  7  2       -2 0.409583116444D-03 0.100000000000D+01
0.326328259268D-05 0.000000000000D+00 0.000000000000D+00 0.115978307827D-07 0.000000000000D+00  7 2 21 23 -13 13 23 2 2 0.13995942D+00 0.17355135D+00 0.33078791D+06 0.33078791D+06 0.33078791D+06 0.10814267D+01  1  2 12  4  7  2       -2 0.218275516238D-04 0.100000000000D+01
-.651695597926D-05 0.000000000000D+00 -.321669421507D-05 0.115978307827D-07 0.000000000000D+00  7 2 21 23 -13 13 23 2 2 0.13995942D+00 0.17774971D+00 0.22179118D+06 0.22179118D+06 0.22179118D+06 0.10943924D+01  1  2  5  4  7  2       -2 -.429080586506D-04 0.100000000000D+01
  </mgrwgt>
  </event>
  <event>
  8     66 0.55102590E-06 0.17441172E+03 0.75467711E-02 0.10337724E+00
        2 -1    0    0  501    0 0.00000000E+00 0.00000000E+00 0.20546765E+04 0.20546766E+04 0.32000000E+00 0.0000E+00 0.9000E+01
       -2 -1    0    0    0  501 0.00000000E+00 0.00000000E+00 -.40734359E+02 0.40735616E+02 0.32000000E+00 0.0000E+00 0.9000E+01
       25  2    1    2    0    0 0.16018201E+02 -.79112963E+00 0.19691717E+04 0.19919594E+04 0.30001363E+03 0.0000E+00 0.0000E+00
       23  2    1    2    0    0 -.16018201E+02 0.79112963E+00 0.44770513E+02 0.10345273E+03 0.91874155E+02 0.0000E+00 0.0000E+00
       23  1    3    3    0    0 -.59094096E+02 0.95801014E+02 0.10993150E+04 0.11088186E+04 0.91188000E+02 0.0000E+00 0.9000E+01
      -11  1    4    4    0    0 0.17666485E+02 0.45897582E-01 0.62801086E+02 0.65238664E+02 0.51099893E-03 0.0000E+00 0.9000E+01
       11  1    4    4    0    0 -.33684686E+02 0.74523205E+00 -.18030573E+02 0.38214069E+02 0.51099893E-03 0.0000E+00 0.9000E+01
       23  1    3    3    0    0 0.75112297E+02 -.96592144E+02 0.86985661E+03 0.88314080E+03 0.91188000E+02 0.0000E+00 0.9000E+01
#aMCatNLO 1  0  0  2  1 0.10645596D+03 0.00000000D+00  -5  7  0 0.00000000D+00 0.00000000D+00 0.00000000D+00 0.00000000D+00 0.00000000D+00
  <mgrwgt>
 0.3416260921D-03    4    2    0
 0.289304811237129D+03 0.000000000000000D+00 0.000000000000000D+00 0.289304811237129D+03
 0.289304811237129D+03 0.000000000000000D+00 0.000000000000000D+00 -.289304811237129D+03
 0.189203792040570D+03 -.590940957547648D+02 0.958010139073923D+02 0.121708163899442D+03
 0.176701761683983D+02 0.176664853323223D+02 0.458975814883748D-01 0.358211162705537D+00
 0.201149015104394D+03 -.336846863864047D+02 0.745232046542762D+00 -.198307117395504D+03
 0.170586639160895D+03 0.751122968088472D+02 -.965921435354234D+02 0.762407423333562D+02
 0.000000000000000D+00 0.000000000000000D+00 -.000000000000000D+00 0.000000000000000D+00
 0.430608926158968D+03 0.000000000000000D+00 0.000000000000000D+00 0.430608926158968D+03
 0.314924698540596D+03 0.000000000000000D+00 0.000000000000000D+00 -.314924698540596D+03
 0.211577605488584D+03 -.885582633852039D+02 0.117449515225505D+03 0.121708163899442D+03
 0.153523951660161D+02 0.152387714130041D+02 0.182963600714360D+01 0.358211162705537D+00
 0.209600736587388D+03 -.638816955605333D+02 0.229321813304534D+02 -.198307117395504D+03
 0.151790574631316D+03 0.514121542224721D+02 -.791787017421260D+02 0.762407423333562D+02
 0.157212312826260D+03 0.857890333102610D+02 -.630326308209763D+02 0.115684227618372D+03
0.353973874948D-05 0.000000000000D+00 0.000000000000D+00 0.521076512493D-06 0.000000000000D+00  7 2 -2 23 -11 11 23 21 0 0.31610418D+00 0.62669230D-02 0.30419448D+05 0.30419448D+05 0.30419448D+05 0.11667769D+01  1  2  2  2  7  2       -2 0.370674451134D-03 0.100000000000D+01
-.135418821526D-06 0.000000000000D+00 -.135935288326D-07 0.521076512493D-06 0.000000000000D+00  7 2 -2 23 -11 11 23 21 2 0.31610418D+00 0.62669230D-02 0.30419448D+05 0.30419448D+05 0.30419448D+05 0.11667769D+01  1  2  3  2  7  2       -2 -.193052789641D-04 0.100000000000D+01
0.215484056660D-06 0.000000000000D+00 0.000000000000D+00 0.521076512493D-06 0.000000000000D+00  7 2 -2 23 -11 11 23 21 2 0.31610418D+00 0.62669230D-02 0.30419448D+05 0.30419448D+05 0.30419448D+05 0.11667769D+01  1  2 15  2  7  2       -2 0.307193621926D-04 0.100000000000D+01
-.283827872213D-06 0.000000000000D+00 0.000000000000D+00 0.521076512493D-06 0.000000000000D+00  7 2 -2 23 -11 11 23 21 2 0.31610418D+00 0.62669230D-02 0.30419448D+05 0.30419448D+05 0.30419448D+05 0.11667769D+01  1  2  4  2  7  2       -2 -.404624422892D-04 0.100000000000D+01
  </mgrwgt>
  </event>
  <event>
  8     66 0.55102590E-06 0.29704433E+03 0.75467711E-02 0.10066307E+00
        2 -1    0    0  501    0 0.00000000E+00 0.00000000E+00 0.66892045E+03 0.66892053E+03 0.32000000E+00 0.0000E+00 0.9000E+01
       -2 -1    0    0    0  501 0.00000000E+00 0.00000000E+00 -.14981598E+03 0.14981632E+03 0.32000000E+00 0.0000E+00 0.9000E+01
       25  2    1    2    0    0 -.61809652E+02 -.20724299E+03 0.19460992E+03 0.41820104E+03 0.30041471E+03 0.0000E+00 0.0000E+00
       23  2    1    2    0    0 0.61809652E+02 0.20724299E+03 0.32449455E+03 0.40053581E+03 0.91444672E+02 0.0000E+00 0.0000E+00
       23  1    3    3    0    0 -.22122359E+02 -.24533003E+03 0.15220418E+03 0.30357468E+03 0.91188000E+02 0.0000E+00 0.9000E+01
      -11  1    4    4    0    0 0.56281914E+01 0.12617202E+03 0.12350432E+03 0.17664759E+03 0.51099893E-03 0.0000E+00 0.9000E+01
       11  1    4    4    0    0 0.56181461E+02 0.81070972E+02 0.20099024E+03 0.22388822E+03 0.51099893E-03 0.0000E+00 0.9000E+01
       23  1    3    3    0    0 -.39687294E+02 0.38087043E+02 0.42405742E+02 0.11462636E+03 0.91188000E+02 0.0000E+00 0.9000E+01
#aMCatNLO 1  0  0  2  1 0.11968500D+02 0.00000000D+00  -5  7  0 0.00000000D+00 0.00000000D+00 0.00000000D+00 0.00000000D+00 0.00000000D+00
  <mgrwgt>
 0.1856236122D-03    4    2    0
 0.316567753249755D+03 0.000000000000000D+00 0.000000000000000D+00 0.316567753249755D+03
 0.316567753249755D+03 0.000000000000000D+00 0.000000000000000D+00 -.316567753249755D+03
 0.267775072651856D+03 -.221223587726945D+02 -.245330031402911D+03 -.520770114722973D+02
 0.127170637900216D+03 0.562819137901439D+01 0.126172016469707D+03 0.148767222773334D+02
 0.124729385703446D+03 0.561814609851235D+02 0.810709717117418D+02 0.763450106113687D+02
 0.113460410243992D+03 -.396872935914434D+02 0.380870432214620D+02 -.391447214164048D+02
 0.000000000000000D+00 -.000000000000000D+00 -.000000000000000D+00 0.000000000000000D+00
 0.417314434234214D+03 0.000000000000000D+00 0.000000000000000D+00 0.417314434234214D+03
 0.316979967964864D+03 0.000000000000000D+00 0.000000000000000D+00 -.316979967964864D+03
 0.263573528366332D+03 -.196657652876779D+02 -.240950194154813D+03 -.520770114722973D+02
 0.129325628940462D+03 0.681405515440492D+01 0.128286281758736D+03 0.148767222773334D+02
 0.126607839543753D+03 0.573434728712963D+02 0.831427116934825D+02 0.763450106113687D+02
 0.113741623038567D+03 -.386368663697006D+02 0.399598399622604D+02 -.391447214164048D+02
 0.101045782309964D+03 -.585489636832281D+01 -.104386392596665D+02 0.100334466269351D+03
0.223004995938D-05 0.000000000000D+00 0.000000000000D+00 0.269547614662D-06 0.000000000000D+00  7 2 -2 23 -11 11 23 21 0 0.10291087D+00 0.23048644D-01 0.88235336D+05 0.88235336D+05 0.88235336D+05 0.11262102D+01  1  2  2  2  7  2       -2 0.187778383862D-03 0.100000000000D+01
-.123281283702D-06 0.000000000000D+00 -.856397902967D-08 0.269547614662D-06 0.000000000000D+00  7 2 -2 23 -11 11 23 21 2 0.10291087D+00 0.23048644D-01 0.88235336D+05 0.88235336D+05 0.88235336D+05 0.11262102D+01  1  2  3  2  7  2       -2 -.131664001908D-04 0.100000000000D+01
0.140725305810D-06 0.000000000000D+00 0.000000000000D+00 0.269547614662D-06 0.000000000000D+00  7 2 -2 23 -11 11 23 21 2 0.10291087D+00 0.23048644D-01 0.88235336D+05 0.88235336D+05 0.88235336D+05 0.11262102D+01  1  2 15  2  7  2       -2 0.150294159634D-04 0.100000000000D+01
-.376198494740D-07 0.000000000000D+00 0.000000000000D+00 0.269547614662D-06 0.000000000000D+00  7 2 -2 23 -11 11 23 21 2 0.10291087D+00 0.23048644D-01 0.88235336D+05 0.88235336D+05 0.88235336D+05 0.11262102D+01  1  2  4  2  7  2       -2 -.401778744039D-05 0.100000000000D+01
  </mgrwgt>
  </event>
  <event>
  8     66 0.55102590E-06 0.22268533E+03 0.75467711E-02 0.94194715E-01
        2 -1    0    0  501    0 0.00000000E+00 0.00000000E+00 0.15881322E+03 0.15881354E+03 0.32000000E+00 0.0000E+00 0.9000E+01
       -2 -1    0    0    0  501 0.00000000E+00 0.00000000E+00 -.43426814E+03 0.43426826E+03 0.32000000E+00 0.0000E+00 0.9000E+01
       25  2    1    2    0    0 -.94638045E+02 -.74129401E+02 -.58730486E+02 0.32859579E+03 0.30012396E+03 0.0000E+00 0.0000E+00
       23  2    1    2    0    0 0.94638045E+02 0.74129401E+02 -.21672444E+03 0.26448602E+03 0.92367990E+02 0.0000E+00 0.0000E+00
       23  1    3    3    0    0 -.16077024E+03 -.15220347E+02 0.68004000E+01 0.18558078E+03 0.91188000E+02 0.0000E+00 0.9000E+01
      -13  1    4    4    0    0 0.29177341E+02 -.55239791E+01 -.11821972E+03 0.12189235E+03 0.10565837E+00 0.0000E+00 0.9000E+01
       13  1    4    4    0    0 0.65460704E+02 0.79653380E+02 -.98504720E+02 0.14259367E+03 0.10565837E+00 0.0000E+00 0.9000E+01
       23  1    3    3    0    0 0.66132195E+02 -.58909054E+02 -.65530886E+02 0.14301501E+03 0.91188000E+02 0.0000E+00 0.9000E+01
#aMCatNLO 1  0  0  2  1 0.43065759D+03 0.00000000D+00  -5  7  0 0.00000000D+00 0.00000000D+00 0.00000000D+00 0.00000000D+00 0.00000000D+00
  <mgrwgt>
 0.1725298143D-03    3    2    0
 0.262616933072560D+03 0.000000000000000D+00 0.000000000000000D+00 0.262616933072560D+03
 0.262616933072560D+03 0.000000000000000D+00 0.000000000000000D+00 -.262616933072560D+03
 0.213119900992142D+03 -.160770242790964D+03 -.152203491692170D+02 0.105005289671530D+03
 0.756385065253470D+02 0.291772973528869D+02 -.552408115234539D+01 -.695654620913891D+02
 0.109353432284275D+03 0.654607519463053D+02 0.796534855052443D+02 -.364470211929825D+02
 0.127122026343356D+03 0.661321934917717D+02 -.589090551836819D+02 0.100719361284187D+01
 0.000000000000000D+00 -.000000000000000D+00 -.000000000000000D+00 0.000000000000000D+00
 0.750573974362236D+03 0.000000000000000D+00 0.000000000000000D+00 0.750573974362236D+03
 0.452432212205554D+03 0.000000000000000D+00 0.000000000000000D+00 -.452432212205554D+03
 0.143688966548452D+03 -.352807082930996D+02 0.777357878313227D+01 0.105005289671530D+03
 0.120528948461296D+03 0.981693119840926D+02 0.711758988472719D+01 -.695654620913891D+02
 0.205978516713258D+03 0.176362870956850D+03 0.999745054571889D+02 -.364470211929825D+02
 0.209021184516637D+03 0.184353624887781D+03 -.372468895949674D+02 0.100719361284187D+01
 0.523788570328148D+03 -.423605099535624D+03 -.776187845300809D+02 0.298141762156682D+03
0.295496711750D-05 0.000000000000D+00 0.000000000000D+00 0.151483701788D-06 0.000000000000D+00  7 2 -2 23 -13 13 23 21 0 0.24432837D-01 0.66810517D-01 0.49588758D+05 0.49588758D+05 0.49588758D+05 0.11476110D+01  1  2  2  2  7  2       -2 0.170177611634D-03 0.100000000000D+01
-.158734882885D-06 0.000000000000D+00 -.113478517919D-07 0.151483701788D-06 0.000000000000D+00  7 2 -2 23 -13 13 23 21 2 0.24432837D-01 0.66810517D-01 0.49588758D+05 0.49588758D+05 0.49588758D+05 0.11476110D+01  1  2  3  2  7  2       -2 -.120395862386D-04 0.100000000000D+01
0.189747295474D-06 0.000000000000D+00 0.000000000000D+00 0.151483701788D-06 0.000000000000D+00  7 2 -2 23 -13 13 23 21 2 0.24432837D-01 0.66810517D-01 0.49588758D+05 0.49588758D+05 0.49588758D+05 0.11476110D+01  1  2 15  2  7  2       -2 0.143917889116D-04 0.100000000000D+01
  </mgrwgt>
  </event>
  <event>
  8     66 0.55102590E-06 0.15995252E+03 0.75467711E-02 0.10027997E+00
        2 -1    0    0  501    0 0.00000000E+00 0.00000000E+00 0.76243603E+03 0.76243609E+03 0.32000000E+00 0.0000E+00 0.9000E+01
       -2 -1    0    0    0  501 0.00000000E+00 0.00000000E+00 -.18758413E+03 0.18758440E+03 0.32000000E+00 0.0000E+00 0.9000E+01
       25  2    1    2    0    0 -.25260504E+03 0.51477432E+02 0.54990000E+03 0.67514536E+03 0.29491018E+03 0.0000E+00 0.0000E+00
       23  2    1    2    0    0 0.25260504E+03 -.51477432E+02 0.24951896E+02 0.27487514E+03 0.92057121E+02 0.0000E+00 0.0000E+00
       23  1    3    3    0    0 -.18967911E+03 -.10060398E+02 0.49316699E+03 0.53629125E+03 0.91188000E+02 0.0000E+00 0.9000E+01
      -11  1    4    4    0    0 0.12962510E+03 -.40585228E+02 -.31006569E+02 0.13932421E+03 0.51099893E-03 0.0000E+00 0.9000E+01
       11  1    4    4    0    0 0.12297993E+03 -.10892204E+02 0.55958465E+02 0.13555093E+03 0.51099893E-03 0.0000E+00 0.9000E+01
       23  1    3    3    0    0 -.62925931E+02 0.61537831E+02 0.56733013E+02 0.13885411E+03 0.91188000E+02 0.0000E+00 0.9000E+01
#aMCatNLO 1  0  0  2  1 0.26793468D+02 0.00000000D+00  -5  7  0 0.00000000D+00 0.00000000D+00 0.00000000D+00 0.00000000D+00 0.00000000D+00
  <mgrwgt>
 0.2773799298D-03    6    2    0
 0.378181252874819D+03 0.000000000000000D+00 0.000000000000000D+00 0.378181252874819D+03
 0.378181252874819D+03 0.000000000000000D+00 0.000000000000000D+00 -.378181252874819D+03
 0.298784906355793D+03 -.189679106056829D+03 -.100603982777588D+02 0.211843796307598D+03
 0.198562249076911D+03 0.129625103359356D+03 -.405852279970345D+02 -.144834866679216D+03
 0.127727550551631D+03 0.122979934041940D+03 -.108922043096884D+02 -.327356514863453D+02
 0.131287799765303D+03 -.629259313444668D+02 0.615378305844818D+02 -.342732781420372D+02
 0.000000000000000D+00 0.000000000000000D+00 0.000000000000000D+00 0.000000000000000D+00
 0.395306828046872D+03 0.000000000000000D+00 0.000000000000000D+00 0.395306828046872D+03
 0.389045451328108D+03 0.000000000000000D+00 0.000000000000000D+00 -.389045451328108D+03
 0.301260884080105D+03 -.192758554678763D+03 -.202290508147381D+02 0.211843796307598D+03
 0.198731882823006D+03 0.127586180852970D+03 -.473179574764569D+02 -.144834866679216D+03
 0.126914282910058D+03 0.121673106370388D+03 -.152074821886820D+02 -.327356514863453D+02
 0.129929874516459D+03 -.642665063804277D+02 0.571111154760241D+02 -.342732781420372D+02
 0.275153550453527D+02 0.776577383583319D+01 0.256433750038530D+02 0.626137671876361D+01
0.295248174094D-05 0.000000000000D+00 0.000000000000D+00 0.712567969548D-08 0.000000000000D+00  7 2 -2 23 -11 11 23 21 0 0.11729788D+00 0.28859123D-01 0.89020804D+05 0.89020804D+05 0.89020804D+05 0.11258906D+01  1  2  2  2  7  2       -2 0.144483149754D-03 0.100000000000D+01
-.152819074280D-06 0.000000000000D+00 -.113383072915D-07 0.712567969548D-08 0.000000000000D+00  7 2 -2 23 -11 11 23 21 2 0.11729788D+00 0.28859123D-01 0.89020804D+05 0.89020804D+05 0.89020804D+05 0.11258906D+01  1  2  3  2  7  2       -2 -.947981590646D-05 0.100000000000D+01
0.188936123739D-06 0.000000000000D+00 0.000000000000D+00 0.712567969548D-08 0.000000000000D+00  7 2 -2 23 -11 11 23 21 2 0.11729788D+00 0.28859123D-01 0.89020804D+05 0.89020804D+05 0.89020804D+05 0.11258906D+01  1  2 15  2  7  2       -2 0.117202625364D-04 0.100000000000D+01
0.527508213992D-05 0.000000000000D+00 0.000000000000D+00 0.712567969548D-08 0.000000000000D+00  7 2 -2 23 -11 11 23 21 2 0.11729788D+00 0.30318269D-01 0.97661319D+05 0.97661319D+05 0.97661319D+05 0.11225664D+01  1  2 12  2  7  2       -2 0.298048474236D-03 0.100000000000D+01
-.327771611719D-05 0.000000000000D+00 0.000000000000D+00 0.712567969548D-08 0.000000000000D+00  7 2 -2 23 -11 11 23 21 2 0.11729788D+00 0.28859123D-01 0.89020804D+05 0.89020804D+05 0.89020804D+05 0.11258906D+01  1  2  4  2  7  2       -2 -.203326355241D-03 0.100000000000D+01
0.536753023496D-07 0.000000000000D+00 0.000000000000D+00 0.712567969548D-08 0.000000000000D+00  7 2 21 23 -11 11 23 2 2 0.11729788D+00 0.30318269D-01 0.97661319D+05 0.97661319D+05 0.97661319D+05 0.11225664D+01  1  2 12  4  7  2       -2 0.359342144082D-04 0.100000000000D+01
  </mgrwgt>
  </event>
  <event>
  8     66 0.55102590E-06 0.47893581E+03 0.75467711E-02 0.81272554E-01
        2 -1    0    0  501    0 0.00000000E+00 0.00000000E+00 0.15285644E+04 0.15285645E+04 0.32000000E+00 0.0000E+00 0.9000E+01
       -2 -1    0    0    0  501 0.00000000E+00 0.00000000E+00 -.40659613E+03 0.40659625E+03 0.32000000E+00 0.0000E+00 0.9000E+01
       25  2    1    2    0    0 0.33589113E+03 -.26847523E+03 -.18531418E+03 0.55601193E+03 0.29984349E+03 0.0000E+00 0.0000E+00
       23  2    1    2    0    0 -.33589113E+03 0.26847523E+03 0.13072825E+04 0.13791488E+04 0.90344356E+02 0.0000E+00 0.0000E+00
       23  1    3    3    0    0 0.29073985E+03 -.28935381E+03 -.15375443E+03 0.44744940E+03 0.91188000E+02 0.0000E+00 0.9000E+01
      -13  1    4    4    0    0 -.14427947E+03 0.15193642E+03 0.52235079E+03 0.56280690E+03 0.10565837E+00 0.0000E+00 0.9000E+01
       13  1    4    4    0    0 -.19161166E+03 0.11653881E+03 0.78493170E+03 0.81634191E+03 0.10565837E+00 0.0000E+00 0.9000E+01
       23  1    3    3    0    0 0.45151280E+02 0.20878580E+02 -.31559745E+02 0.10856253E+03 0.91188000E+02 0.0000E+00 0.9000E+01
#aMCatNLO 1  0  0  1  1 0.18721881D+04 0.00000000D+00  -5  7  0 0.00000000D+00 0.00000000D+00 0.00000000D+00 0.00000000D+00 0.00000000D+00
  <mgrwgt>
 0.2386628585D-03    5    2    0
 0.788358127361351D+03 0.000000000000000D+00 0.000000000000000D+00 0.788358127361351D+03
 0.788358127361351D+03 0.000000000000000D+00 0.000000000000000D+00 -.788358127361351D+03
 0.658580201725856D+03 0.290739853824284D+03 -.289353808488885D+03 -.507106834574807D+03
 0.319055819684858D+03 -.144279405800156D+03 0.151936465216988D+03 0.240614587409197D+03
 0.443380074298355D+03 -.191611727985416D+03 0.116538762811401D+03 0.382478172900946D+03
 0.155700159013633D+03 0.451512799612874D+02 0.208785804604968D+02 -.115985925735335D+03
 0.000000000000000D+00 0.000000000000000D+00 0.000000000000000D+00 0.000000000000000D+00
 0.254740496327219D+04 0.000000000000000D+00 0.000000000000000D+00 0.254740496327219D+04
 0.188589214293154D+04 0.000000000000000D+00 0.000000000000000D+00 -.188589214293154D+04
 0.780793391947481D+03 -.354824842156603D+03 -.467188462272896D+03 -.507106834574807D+03
 0.612550698720505D+03 -.562108579179211D+03 0.368364499105065D+02 0.240614587409197D+03
 0.870896868383923D+03 -.781070085889631D+03 -.458401957199552D+02 0.382478172900946D+03
 0.183435978496068D+03 -.106952606388923D+03 -.210217002343649D+02 -.115985925735335D+03
 0.198562016865575D+04 0.180495611361437D+04 0.497213908316710D+03 0.661512820340655D+03
0.607047145484D-04 0.000000000000D+00 0.000000000000D+00 0.306957607984D-05 0.000000000000D+00  7 2 -2 23 -13 13 23 21 0 0.23516377D+00 0.62553263D-01 0.22937951D+06 0.22937951D+06 0.22937951D+06 0.10932828D+01  1  2  2  1  7  1        2 0.232308425454D-03 0.100000000000D+01
-.235397984177D-05 0.000000000000D+00 -.233122087784D-06 0.306957607984D-05 0.000000000000D+00  7 2 -2 23 -13 13 23 21 2 0.23516377D+00 0.62553263D-01 0.22937951D+06 0.22937951D+06 0.22937951D+06 0.10932828D+01  1  2  3  1  7  1        2 -.107673865256D-04 0.100000000000D+01
0.373060663491D-05 0.000000000000D+00 0.000000000000D+00 0.306957607984D-05 0.000000000000D+00  7 2 -2 23 -13 13 23 21 2 0.23516377D+00 0.62553263D-01 0.22937951D+06 0.22937951D+06 0.22937951D+06 0.10932828D+01  1  2 15  1  7  1        2 0.170642428199D-04 0.100000000000D+01
0.268354755313D-04 0.000000000000D+00 -.172047285525D-04 0.306957607984D-05 0.000000000000D+00  7 2 -2 23 -13 13 23 21 2 0.84488510D+00 0.62553263D-01 0.22937951D+06 0.22937951D+06 0.22937951D+06 0.10932828D+01  1  2  5  1  7  1        2 0.575392798338D-07 0.100000000000D+01
0.451879808060D-05 0.000000000000D+00 -.258524975680D-05 0.306957607984D-05 0.000000000000D+00  7 21 -2 23 -13 13 23 -2 2 0.84488510D+00 0.62553263D-01 0.22937951D+06 0.22937951D+06 0.22937951D+06 0.10932828D+01  1  2  5  3  7  1        2 0.375051636646D-10 0.100000000000D+01
  </mgrwgt>
  </event>
  <event>
  8     66 0.55102590E-06 0.39110488E+03 0.75467711E-02 0.90401362E-01
        2 -1    0    0  501    0 0.00000000E+00 0.00000000E+00 0.97634616E+03 0.97634621E+03 0.32000000E+00 0.0000E+00 0.9000E+01
       -2 -1    0    0    0  501 0.00000000E+00 0.00000000E+00 -.21339052E+03 0.21339076E+03 0.32000000E+00 0.0000E+00 0.9000E+01
       25  2    1    2    0    0 0.35736927E+03 0.12904502E+02 0.18240007E+03 0.50082316E+03 0.29945740E+03 0.0000E+00 0.0000E+00
       23  2    1    2    0    0 -.35736927E+03 -.12904502E+02 0.58055557E+03 0.68891381E+03 0.98377587E+02 0.0000E+00 0.0000E+00
       23  1    3    3    0    0 0.10487928E+03 0.46475585E+02 -.38540495E+02 0.15152645E+03 0.91188000E+02 0.0000E+00 0.9000E+01
      -11  1    4    4    0    0 -.29210883E+03 0.18512285E+02 0.41132426E+03 0.50483454E+03 0.51099893E-03 0.0000E+00 0.9000E+01
       11  1    4    4    0    0 -.65260439E+02 -.31416787E+02 0.16923131E+03 0.18407926E+03 0.51099893E-03 0.0000E+00 0.9000E+01
       23  1    3    3    0    0 0.25248999E+03 -.33571083E+02 0.22094057E+03 0.34929672E+03 0.91188000E+02 0.0000E+00 0.9000E+01
#aMCatNLO 1  0  0  1  1 0.54018993D+03 0.00000000D+00  -5  7  0 0.00000000D+00 0.00000000D+00 0.00000000D+00 0.00000000D+00 0.00000000D+00
  <mgrwgt>
 0.2195987813D-03    5    2    0
 0.456446260864975D+03 0.000000000000000D+00 0.000000000000000D+00 0.456446260864975D+03
 0.456446260864975D+03 0.000000000000000D+00 0.000000000000000D+00 -.456446260864975D+03
 0.229688927572100D+03 0.104879277866577D+03 0.464755854786852D+02 -.176867490324877D+03
 0.314164211696521D+03 -.292108826297224D+03 0.185122849053292D+02 0.114144123010073D+03
 0.984671498753276D+02 -.652604390490969D+02 -.314167872824215D+02 0.667071223823995D+02
 0.270572232586002D+03 0.252489987479744D+03 -.335710831015929D+02 -.398375506759587D+01
 0.000000000000000D+00 -.000000000000000D+00 0.000000000000000D+00 0.000000000000000D+00
 0.128702449050472D+04 0.000000000000000D+00 0.000000000000000D+00 0.128702449050472D+04
 0.626785222110457D+03 0.000000000000000D+00 0.000000000000000D+00 -.626785222110457D+03
 0.317552124938157D+03 0.247470403393696D+03 0.625315184332045D+00 -.176867490324877D+03
 0.197139679111824D+03 -.158881618758018D+03 -.243270113948650D+02 0.114144123010073D+03
 0.833425845835540D+02 -.178874312139569D+02 -.466496091419038D+02 0.667071223823995D+02
 0.462709648257364D+03 0.443556590101152D+03 -.950086749715666D+02 -.398375506759587D+01
 0.853065675724279D+03 -.514257943522874D+03 0.165359980324003D+03 0.660239268394263D+03
0.790238242505D-05 0.000000000000D+00 0.000000000000D+00 0.160454084640D-07 0.000000000000D+00  7 2 -2 23 -11 11 23 21 0 0.15020712D+00 0.32829333D-01 0.15296302D+06 0.15296302D+06 0.15296302D+06 0.11068821D+01  1  2  2  1  7  1        2 0.220830730704D-03 0.100000000000D+01
-.426280432553D-06 0.000000000000D+00 -.303472292573D-07 0.160454084640D-07 0.000000000000D+00  7 2 -2 23 -11 11 23 21 2 0.15020712D+00 0.32829333D-01 0.15296302D+06 0.15296302D+06 0.15296302D+06 0.11068821D+01  1  2  3  1  7  1        2 -.145948493382D-04 0.100000000000D+01
0.494154686903D-06 0.000000000000D+00 0.000000000000D+00 0.160454084640D-07 0.000000000000D+00  7 2 -2 23 -11 11 23 21 2 0.15020712D+00 0.32829333D-01 0.15296302D+06 0.15296302D+06 0.15296302D+06 0.11068821D+01  1  2 15  1  7  1        2 0.169187057494D-04 0.100000000000D+01
-.150342101736D-05 0.000000000000D+00 -.234357678762D-05 0.160454084640D-07 0.000000000000D+00  7 2 -2 23 -11 11 23 21 2 0.46549674D+00 0.32829333D-01 0.15296302D+06 0.15296302D+06 0.15296302D+06 0.11068821D+01  1  2  5  1  7  1        2 -.354229666433D-05 0.100000000000D+01
-.851026495654D-07 0.000000000000D+00 -.303462246727D-06 0.160454084640D-07 0.000000000000D+00  7 21 -2 23 -11 11 23 -2 2 0.46549674D+00 0.32829333D-01 0.15296302D+06 0.15296302D+06 0.15296302D+06 0.11068821D+01  1  2  5  3  7  1        2 -.135091547337D-07 0.100000000000D+01
  </mgrwgt>
  </event>
  <event>
  8     66 0.55102590E-06 0.32008985E+03 0.75467711E-02 0.94323224E-01
        2 -1    0    0  501    0 0.00000000E+00 0.00000000E+00 0.44245703E+03 0.44245714E+03 0.32000000E+00 0.0000E+00 0.9000E+01
       -2 -1    0    0    0  501 0.00000000E+00 0.00000000E+00 -.62602006E+03 0.62602014E+03 0.32000000E+00 0.0000E+00 0.9000E+01
       25  2    1    2    0    0 -.25994714E+03 -.39086913E+03 -.19455825E+03 0.59011824E+03 0.30005903E+03 0.0000E+00 0.0000E+00
       23  2    1    2    0    0 0.25994714E+03 0.39086913E+03 0.10995223E+02 0.47835904E+03 0.91407227E+02 0.0000E+00 0.0000E+00
       23  1    3    3    0    0 -.24919541E+03 -.27820838E+03 -.21941461E+03 0.44266949E+03 0.91188000E+02 0.0000E+00 0.9000E+01
      -13  1    4    4    0    0 0.22421129E+03 0.26377296E+03 0.60557099E+01 0.34624206E+03 0.10565837E+00 0.0000E+00 0.9000E+01
       13  1    4    4    0    0 0.35735850E+02 0.12709617E+03 0.49395134E+01 0.13211698E+03 0.10565837E+00 0.0000E+00 0.9000E+01
       23  1    3    3    0    0 -.10751739E+02 -.11266075E+03 0.24856353E+02 0.14744875E+03 0.91188000E+02 0.0000E+00 0.9000E+01
#aMCatNLO 1  0  0  2  1 0.19338392D+02 0.00000000D+00  -5  7  0 0.00000000D+00 0.00000000D+00 0.00000000D+00 0.00000000D+00 0.00000000D+00
  <mgrwgt>
 0.1001701847D-03    9    2    0
 0.526295618139334D+03 0.000000000000000D+00 0.000000000000000D+00 0.526295618139334D+03
 0.526295618139334D+03 0.000000000000000D+00 0.000000000000000D+00 -.526295618139334D+03
 0.411086342208419D+03 -.249195405557750D+03 -.278208384797085D+03 -.145528258025039D+03
 0.352524011264146D+03 0.224211546078281D+03 0.263773147314743D+03 0.665288499722156D+02
 0.134972052016578D+03 0.357355982585706D+02 0.127095985186458D+03 0.280540976000227D+02
 0.154008830789526D+03 -.107517387791007D+02 -.112660747704116D+03 0.509453104528010D+02
 0.000000000000000D+00 -.000000000000000D+00 -.000000000000000D+00 -.000000000000000D+00
 0.534263797827517D+03 0.000000000000000D+00 0.000000000000000D+00 0.534263797827517D+03
 0.538250027858211D+03 0.000000000000000D+00 0.000000000000000D+00 -.538250027858211D+03
 0.404303724168585D+03 -.244505425030589D+03 -.272369002053090D+03 -.145528258025039D+03
 0.358941289787534D+03 0.228303769598380D+03 0.268868277085421D+03 0.665288499722156D+02
 0.137226492620349D+03 0.373012365052335D+02 0.129045323975384D+03 0.280540976000227D+02
 0.152297358898999D+03 -.898991934540158D+01 -.110467148404589D+03 0.509453104528010D+02
 0.197449602102605D+02 -.121096617276234D+02 -.150774506031259D+02 -.398623003069322D+01
0.535363237390D-05 0.000000000000D+00 0.000000000000D+00 0.504202877729D-06 0.000000000000D+00  7 2 -2 23 -13 13 23 21 0 0.68070327D-01 0.96310793D-01 0.25402481D+06 0.25402481D+06 0.25402481D+06 0.10899377D+01  1  2  2  2  7  2       -2 0.425104799817D-04 0.100000000000D+01
-.296746971453D-06 0.000000000000D+00 -.205593579595D-07 0.504202877729D-06 0.000000000000D+00  7 2 -2 23 -13 13 23 21 2 0.68070327D-01 0.96310793D-01 0.25402481D+06 0.25402481D+06 0.25402481D+06 0.10899377D+01  1  2  3  2  7  2       -2 -.279922042602D-05 0.100000000000D+01
0.335067222127D-06 0.000000000000D+00 0.000000000000D+00 0.504202877729D-06 0.000000000000D+00  7 2 -2 23 -13 13 23 21 2 0.68070327D-01 0.96310793D-01 0.25402481D+06 0.25402481D+06 0.25402481D+06 0.10899377D+01  1  2 15  2  7  2       -2 0.316069615697D-05 0.100000000000D+01
0.742240502685D-05 0.000000000000D+00 0.000000000000D+00 0.504202877729D-06 0.000000000000D+00  7 2 -2 23 -13 13 23 21 2 0.68070327D-01 0.99213690D-01 0.26374209D+06 0.26374209D+06 0.26374209D+06 0.10887151D+01  1  2 12  2  7  2       -2 0.649988790998D-04 0.100000000000D+01
-.645905925885D-05 0.000000000000D+00 0.000000000000D+00 0.504202877729D-06 0.000000000000D+00  7 2 -2 23 -13 13 23 21 2 0.68070327D-01 0.96310793D-01 0.25402481D+06 0.25402481D+06 0.25402481D+06 0.10899377D+01  1  2  4  2  7  2       -2 -.609284419035D-04 0.100000000000D+01
-.136881133941D-03 0.000000000000D+00 -.189779462925D-04 0.504202877729D-06 0.000000000000D+00  7 2 -2 23 -13 13 23 21 2 0.68070327D-01 0.99670849D-01 0.25402481D+06 0.25402481D+06 0.25402481D+06 0.10899377D+01  1  2  5  2  7  2       -2 -.118942583657D-02 0.100000000000D+01
0.137462259768D-03 0.000000000000D+00 0.189667927253D-04 0.504202877729D-06 0.000000000000D+00  7 2 -2 23 -13 13 23 21 2 0.68070327D-01 0.96310793D-01 0.25402481D+06 0.25402481D+06 0.25402481D+06 0.10899377D+01  1  2  6  2  7  2       -2 0.129668438894D-02 0.100000000000D+01
0.156259539739D-06 0.000000000000D+00 0.000000000000D+00 0.504202877729D-06 0.000000000000D+00  7 2 21 23 -13 13 23 2 2 0.68070327D-01 0.99213690D-01 0.26374209D+06 0.26374209D+06 0.26374209D+06 0.10887151D+01  1  2 12  4  7  2       -2 0.126727534002D-04 0.100000000000D+01
-.828556323435D-06 0.000000000000D+00 -.115986807672D-06 0.504202877729D-06 0.000000000000D+00  7 2 21 23 -13 13 23 2 2 0.68070327D-01 0.99670849D-01 0.25402481D+06 0.25402481D+06 0.25402481D+06 0.10899377D+01  1  2  5  4  7  2       -2 -.667035140023D-04 0.100000000000D+01
  </mgrwgt>
  </event>
  <event>
  7     66 0.55102590E-06 0.73197459E+03 0.75467711E-02 0.88359447E-01
        2 -1    0    0  501    0 0.00000000E+00 0.00000000E+00 0.25827536E+04 0.25827536E+04 0.32000000E+00 0.0000E+00 0.9000E+01
       -2 -1    0    0    0  501 0.00000000E+00 0.00000000E+00 -.21242206E+03 0.21242231E+03 0.32000000E+00 0.0000E+00 0.9000E+01
       25  2    1    2    0    0 -.66981600E+03 0.15182008E+03 0.11472398E+04 0.13704774E+04 0.30057665E+03 0.0000E+00 0.0000E+00
       23  1    3    3    0    0 -.58895981E+03 0.68022350E+02 0.87910397E+03 0.10642555E+04 0.91188000E+02 0.0000E+00 0.9000E+01
      -13  1    1    2    0    0 0.64396451E+03 -.91318419E+02 0.10067370E+04 0.11985611E+04 0.10565837E+00 0.0000E+00 0.9000E+01
       13  1    1    2    0    0 0.25851484E+02 -.60501657E+02 0.21635472E+03 0.22613741E+03 0.10565837E+00 0.0000E+00 0.9000E+01
       23  1    3    3    0    0 -.80856189E+02 0.83797725E+02 0.26813588E+03 0.30622195E+03 0.91188000E+02 0.0000E+00 0.9000E+01
#aMCatNLO 1  0  0  1  1 0.31395901D+03 0.00000000D+00  -5  7  0 0.00000000D+00 0.00000000D+00 0.00000000D+00 0.00000000D+00 0.00000000D+00
  <mgrwgt>
 0.8382200518D-03    4    2    0
 0.740698467206587D+03 0.000000000000000D+00 0.000000000000000D+00 0.740698467206587D+03
 0.740698467206587D+03 0.000000000000000D+00 0.000000000000000D+00 -.740698467206587D+03
 0.601468567667142D+03 -.588959970762949D+03 0.680223870195832D+02 -.441394862977275D+02
 0.650662110942642D+03 0.643964587304047D+03 -.913186633474303D+02 -.182124858023640D+02
 0.805057655794288D+02 0.258516122015035D+02 -.605014577344607D+02 0.463944614164050D+02
 0.148760490223961D+03 -.808562287426012D+02 0.837977340623078D+02 0.159575106836865D+02
 0.000000000000000D+00 -.000000000000000D+00 -.000000000000000D+00 -.000000000000000D+00
 0.902878203406358D+03 0.000000000000000D+00 0.000000000000000D+00 0.902878203406358D+03
 0.926250435466192D+03 0.000000000000000D+00 0.000000000000000D+00 -.926250435466192D+03
 0.596709585199323D+03 -.556715472347222D+03 0.189384968578106D+03 -.441394862977275D+02
 0.681454332450390D+03 0.679813535514120D+03 0.436104288914551D+02 -.182124858023640D+02
 0.713083545467237D+02 0.299371233120022D+02 -.451243174557237D+02 0.463944614164050D+02
 0.164828601966147D+03 -.724171473237630D+02 0.115560941967357D+03 0.159575106836865D+02
 0.314827764709967D+03 -.806180391551373D+02 -.303432021981195D+03 -.233722320598339D+02
0.384949463548D-03 0.000000000000D+00 0.000000000000D+00 0.248455256619D-09 0.000000000000D+00  7 2 -2 23 -13 13 23 21 0 0.39734673D+00 0.32680338D-01 0.53578680D+06 0.53578680D+06 0.53578680D+06 0.10663951D+01  1  2  2  1  7  1        2 0.128544832544D-02 0.100000000000D+01
-.213824313358D-04 0.000000000000D+00 -.147830729955D-05 0.248455256619D-09 0.000000000000D+00  7 2 -2 23 -13 13 23 21 2 0.39734673D+00 0.32680338D-01 0.53578680D+06 0.53578680D+06 0.53578680D+06 0.10663951D+01  1  2  3  1  7  1        2 -.811977941578D-04 0.100000000000D+01
0.242312493138D-04 0.000000000000D+00 0.000000000000D+00 0.248455256619D-09 0.000000000000D+00  7 2 -2 23 -13 13 23 21 2 0.39734673D+00 0.32680338D-01 0.53578680D+06 0.53578680D+06 0.53578680D+06 0.10663951D+01  1  2 15  1  7  1        2 0.920159154527D-04 0.100000000000D+01
-.120620833224D-03 0.000000000000D+00 0.000000000000D+00 0.248455256619D-09 0.000000000000D+00  7 2 -2 23 -13 13 23 21 2 0.39734673D+00 0.32680338D-01 0.53578680D+06 0.53578680D+06 0.53578680D+06 0.10663951D+01  1  2  4  1  7  1        2 -.458046394886D-03 0.100000000000D+01
  </mgrwgt>
  </event>
  <event>
  8     66 0.55102590E-06 0.20809712E+03 0.75467711E-02 0.98125364E-01
        2 -1    0    0  501    0 0.00000000E+00 0.00000000E+00 0.33746491E+04 0.33746492E+04 0.32000000E+00 0.0000E+00 0.9000E+01
       -2 -1    0    0    0  501 0.00000000E+00 0.00000000E+00 -.45099234E+02 0.45100369E+02 0.32000000E+00 0.0000E+00 0.9000E+01
       25  2    1    2    0    0 0.24732265E+03 -.12255405E+03 0.26448999E+04 0.26758658E+04 0.29761440E+03 0.0000E+00 0.0000E+00
       23  2    1    2    0    0 -.24732265E+03 0.12255405E+03 0.68465000E+03 0.74388372E+03 0.91811619E+02 0.0000E+00 0.0000E+00
       23  1    3    3    0    0 0.14885537E+03 -.15894947E+03 0.21107784E+04 0.21239405E+04 0.91188000E+02 0.0000E+00 0.9000E+01
      -11  1    4    4    0    0 -.21979953E+03 0.80056291E+02 0.61327241E+03 0.65637177E+03 0.51099893E-03 0.0000E+00 0.9000E+01
       11  1    4    4    0    0 -.27523115E+02 0.42497757E+02 0.71377586E+02 0.87511948E+02 0.51099893E-03 0.0000E+00 0.9000E+01
       23  1    3    3    0    0 0.98467276E+02 0.36395425E+02 0.53412154E+03 0.55192526E+03 0.91188000E+02 0.0000E+00 0.9000E+01
#aMCatNLO 1  0  0  2  1 0.78737469D+02 0.00000000D+00  -5  7  0 0.00000000D+00 0.00000000D+00 0.00000000D+00 0.00000000D+00 0.00000000D+00
  <mgrwgt>
 0.3176360403D-03    9    2    0
 0.390123132187239D+03 0.000000000000000D+00 0.000000000000000D+00 0.390123132187239D+03
 0.390123132187239D+03 0.000000000000000D+00 0.000000000000000D+00 -.390123132187239D+03
 0.301703132747149D+03 0.148855371460281D+03 -.158949472870715D+03 0.187847471175386D+03
 0.259797376539549D+03 -.219799531791410D+03 0.800562909978760D+02 -.113021382723678D+03
 0.789669997137820D+02 -.275231152277086D+02 0.424977567405834D+02 -.605987280722700D+02
 0.139778755373998D+03 0.984672755588378D+02 0.363954251322552D+02 -.142273603794371D+02
 0.000000000000000D+00 -.000000000000000D+00 0.000000000000000D+00 -.000000000000000D+00
 0.419379493779674D+03 0.000000000000000D+00 0.000000000000000D+00 0.419379493779674D+03
 0.448929408313206D+03 0.000000000000000D+00 0.000000000000000D+00 -.448929408313206D+03
 0.320327575573506D+03 0.179861781124140D+03 -.163271465947559D+03 0.187847471175386D+03
 0.238033164972837D+03 -.194984136816799D+03 0.765972653821356D+02 -.113021382723678D+03
 0.760251368888108D+02 -.197972109951808D+02 0.414208405491460D+02 -.605987280722700D+02
 0.149823164872612D+03 0.112903083403196D+03 0.343832133915745D+02 -.142273603794371D+02
 0.840998597851138D+02 -.779835167153558D+02 0.108701466247031D+02 -.295499145335326D+02
0.169081463314D-04 0.000000000000D+00 0.000000000000D+00 0.325540784028D-07 0.000000000000D+00  7 2 -2 23 -11 11 23 21 0 0.51917688D+00 0.69384322D-02 0.10880059D+06 0.10880059D+06 0.10880059D+06 0.11187284D+01  1  2  2  2  7  2       -2 0.243376113990D-03 0.100000000000D+01
-.907173354103D-06 0.000000000000D+00 -.649317339298D-07 0.325540784028D-07 0.000000000000D+00  7 2 -2 23 -11 11 23 21 2 0.51917688D+00 0.69384322D-02 0.10880059D+06 0.10880059D+06 0.10880059D+06 0.11187284D+01  1  2  3  2  7  2       -2 -.163426146210D-04 0.100000000000D+01
0.108126141261D-05 0.000000000000D+00 0.000000000000D+00 0.325540784028D-07 0.000000000000D+00  7 2 -2 23 -11 11 23 21 2 0.51917688D+00 0.69384322D-02 0.10880059D+06 0.10880059D+06 0.10880059D+06 0.11187284D+01  1  2 15  2  7  2       -2 0.194787892425D-04 0.100000000000D+01
0.161854763650D-04 0.000000000000D+00 0.000000000000D+00 0.325540784028D-07 0.000000000000D+00  7 2 -2 23 -11 11 23 21 2 0.51917688D+00 0.82139037D-02 0.13791903D+06 0.13791903D+06 0.13791903D+06 0.11104412D+01  1  2 12  2  7  2       -2 0.219868081257D-03 0.100000000000D+01
-.157866439010D-04 0.000000000000D+00 0.000000000000D+00 0.325540784028D-07 0.000000000000D+00  7 2 -2 23 -11 11 23 21 2 0.51917688D+00 0.69384322D-02 0.10880059D+06 0.10880059D+06 0.10880059D+06 0.11187284D+01  1  2  4  2  7  2       -2 -.284394417305D-03 0.100000000000D+01
-.310340461446D-04 0.000000000000D+00 -.100160203856D-04 0.325540784028D-07 0.000000000000D+00  7 2 -2 23 -11 11 23 21 2 0.51917688D+00 0.90003969D-02 0.10880059D+06 0.10880059D+06 0.10880059D+06 0.11187284D+01  1  2  5  2  7  2       -2 -.376502119108D-03 0.100000000000D+01
0.328515607582D-04 0.000000000000D+00 0.968628416059D-05 0.325540784028D-07 0.000000000000D+00  7 2 -2 23 -11 11 23 21 2 0.51917688D+00 0.69384322D-02 0.10880059D+06 0.10880059D+06 0.10880059D+06 0.11187284D+01  1  2  6  2  7  2       -2 0.591816762191D-03 0.100000000000D+01
0.405731118705D-06 0.000000000000D+00 0.000000000000D+00 0.325540784028D-07 0.000000000000D+00  7 2 21 23 -11 11 23 2 2 0.51917688D+00 0.82139037D-02 0.13791903D+06 0.13791903D+06 0.13791903D+06 0.11104412D+01  1  2 12  4  7  2       -2 0.826330375552D-04 0.100000000000D+01
-.902469428703D-06 0.000000000000D+00 -.349086277562D-06 0.325540784028D-07 0.000000000000D+00  7 2 21 23 -11 11 23 2 2 0.51917688D+00 0.90003969D-02 0.10880059D+06 0.10880059D+06 0.10880059D+06 0.11187284D+01  1  2  5  4  7  2       -2 -.162297592882D-03 0.100000000000D+01
  </mgrwgt>
  </event>
  <event>
  8     66 0.55102590E-06 0.88776159E+02 0.75467711E-02 0.10459617E+00
        2 -1    0    0  501    0 0.00000000E+00 0.00000000E+00 0.63092848E+03 0.63092856E+03 0.32000000E+00 0.0000E+00 0.9000E+01
       -2 -1    0    0    0  501 0.00000000E+00 0.00000000E+00 -.88671855E+02 0.88672432E+02 0.32000000E+00 0.0000E+00 0.9000E+01
       25  2    1    2    0    0 -.11516442E+02 -.41250701E+02 0.54074746E+03 0.61980854E+03 0.29986758E+03 0.0000E+00 0.0000E+00
       23  2    1    2    0    0 0.11516442E+02 0.41250701E+02 0.15091608E+01 0.99792447E+02 0.90122174E+02 0.0000E+00 0.0000E+00
       23  1    3    3    0    0 0.72832004E+02 -.86248630E+02 0.40575022E+03 0.43091974E+03 0.91188000E+02 0.0000E+00 0.9000E+01
      -11  1    4    4    0    0 0.15537670E+02 0.66088367E+02 0.17334490E+02 0.70068366E+02 0.51099893E-03 0.0000E+00 0.9000E+01
       11  1    4    4    0    0 -.40212278E+01 -.24837666E+02 -.15825330E+02 0.29724081E+02 0.51099893E-03 0.0000E+00 0.9000E+01
       23  1    3    3    0    0 -.84348446E+02 0.44997929E+02 0.13499724E+03 0.18888880E+03 0.91188000E+02 0.0000E+00 0.9000E+01
#aMCatNLO 1  0  0  2  1 0.72100554D+02 0.00000000D+00  -5  7  0 0.00000000D+00 0.00000000D+00 0.00000000D+00 0.00000000D+00 0.00000000D+00
  <mgrwgt>
 0.2026743952D-03    9    2    0
 0.236528719057867D+03 0.000000000000000D+00 0.000000000000000D+00 0.236528719057867D+03
 0.236528719057867D+03 0.000000000000000D+00 0.000000000000000D+00 -.236528719057867D+03
 0.190398709716255D+03 0.728320041975207D+02 -.862486301214937D+02 0.123260254276685D+03
 0.867157348719031D+02 0.155376697677521D+02 0.660883666074830D+02 -.539493029771228D+02
 0.633556632012319D+02 -.402122784394224D+01 -.248376659657965D+02 -.581451643360525D+02
 0.132587330326344D+03 -.843484461213306D+02 0.449979294798071D+02 -.111657869635096D+02
 0.000000000000000D+00 0.000000000000000D+00 0.000000000000000D+00 -.000000000000000D+00
 0.271251267223722D+03 0.000000000000000D+00 0.000000000000000D+00 0.271251267223722D+03
 0.279884808853593D+03 0.000000000000000D+00 0.000000000000000D+00 -.279884808853593D+03
 0.197143133957320D+03 0.561994836212867D+02 -.110447687521565D+03 0.123260254276685D+03
 0.780746698555175D+02 0.846519529270320D+01 0.557984520393447D+02 -.539493029771228D+02
 0.675542335013580D+02 -.963961869923394D+01 -.330119990249428D+02 -.581451643360525D+02
 0.135748421574667D+03 -.958648797340892D+02 0.282423910295813D+02 -.111657869635096D+02
 0.726156171884524D+02 0.408398195193333D+02 0.594188434775822D+02 -.863354162987159D+01
0.717988585118D-06 0.000000000000D+00 0.000000000000D+00 0.107318808513D-06 0.000000000000D+00  7 2 -2 23 -11 11 23 21 0 0.97065970D-01 0.13641874D-01 0.34277457D+05 0.34277457D+05 0.34277457D+05 0.11620028D+01  1  2  2  2  7  2       -2 0.150747587103D-03 0.100000000000D+01
-.369783787807D-07 0.000000000000D+00 -.275726521759D-08 0.107318808513D-06 0.000000000000D+00  7 2 -2 23 -11 11 23 21 2 0.97065970D-01 0.13641874D-01 0.34277457D+05 0.34277457D+05 0.34277457D+05 0.11620028D+01  1  2  3  2  7  2       -2 -.104832290339D-04 0.100000000000D+01
0.439563927592D-07 0.000000000000D+00 0.000000000000D+00 0.107318808513D-06 0.000000000000D+00  7 2 -2 23 -11 11 23 21 2 0.97065970D-01 0.13641874D-01 0.34277457D+05 0.34277457D+05 0.34277457D+05 0.11620028D+01  1  2 15  2  7  2       -2 0.124614693233D-04 0.100000000000D+01
0.395459008885D-06 0.000000000000D+00 0.000000000000D+00 0.107318808513D-06 0.000000000000D+00  7 2 -2 23 -11 11 23 21 2 0.97065970D-01 0.16983884D-01 0.51092874D+05 0.51092874D+05 0.51092874D+05 0.11464703D+01  1  2 12  2  7  2       -2 0.773752976606D-04 0.100000000000D+01
-.417655660506D-06 0.000000000000D+00 0.000000000000D+00 0.107318808513D-06 0.000000000000D+00  7 2 -2 23 -11 11 23 21 2 0.97065970D-01 0.13641874D-01 0.34277457D+05 0.34277457D+05 0.34277457D+05 0.11620028D+01  1  2  4  2  7  2       -2 -.118403783259D-03 0.100000000000D+01
-.849145165713D-06 0.000000000000D+00 -.374482993112D-06 0.107318808513D-06 0.000000000000D+00  7 2 -2 23 -11 11 23 21 2 0.97065970D-01 0.18472551D-01 0.34277457D+05 0.34277457D+05 0.34277457D+05 0.11620028D+01  1  2  5  2  7  2       -2 -.148775578847D-03 0.100000000000D+01
0.935905268114D-06 0.000000000000D+00 0.357911537277D-06 0.107318808513D-06 0.000000000000D+00  7 2 -2 23 -11 11 23 21 2 0.97065970D-01 0.13641874D-01 0.34277457D+05 0.34277457D+05 0.34277457D+05 0.11620028D+01  1  2  6  2  7  2       -2 0.265325565999D-03 0.100000000000D+01
0.121305129895D-07 0.000000000000D+00 0.000000000000D+00 0.107318808513D-06 0.000000000000D+00  7 2 21 23 -11 11 23 2 2 0.97065970D-01 0.16983884D-01 0.51092874D+05 0.51092874D+05 0.51092874D+05 0.11464703D+01  1  2 12  4  7  2       -2 0.319213465547D-04 0.100000000000D+01
-.245388303593D-07 0.000000000000D+00 -.145850799835D-07 0.107318808513D-06 0.000000000000D+00  7 2 21 23 -11 11 23 2 2 0.97065970D-01 0.18472551D-01 0.34277457D+05 0.34277457D+05 0.34277457D+05 0.11620028D+01  1  2  5  4  7  2       -2 -.574942803380D-04 0.100000000000D+01
  </mgrwgt>
  </event>
  <event>
  8     66 0.55102590E-06 0.17578439E+03 0.75467711E-02 0.10213487E+00
        2 -1    0    0  501    0 0.00000000E+00 0.00000000E+00 0.68572027E+03 0.68572035E+03 0.32000000E+00 0.0000E+00 0.9000E+01
       -2 -1    0    0    0  501 0.00000000E+00 0.00000000E+00 -.32063926E+03 0.32063942E+03 0.32000000E+00 0.0000E+00 0.9000E+01
       25  2    1    2    0    0 0.13809934E+03 0.13171701E+02 0.61795716E+03 0.70064677E+03 0.29964967E+03 0.0000E+00 0.0000E+00
       23  2    1    2    0    0 -.13809934E+03 -.13171701E+02 -.25287615E+03 0.30571300E+03 0.10133690E+03 0.0000E+00 0.0000E+00
       23  1    3    3    0    0 0.12016383E+03 0.39606241E+02 0.57342751E+03 0.59425782E+03 0.91188000E+02 0.0000E+00 0.9000E+01
      -11  1    4    4    0    0 -.98893189E+02 -.55695210E+02 -.15672398E+03 0.19350510E+03 0.51099893E-03 0.0000E+00 0.9000E+01
       11  1    4    4    0    0 -.39206152E+02 0.42523509E+02 -.96152173E+02 0.11220789E+03 0.51099893E-03 0.0000E+00 0.9000E+01
       23  1    3    3    0    0 0.17935514E+02 -.26434540E+02 0.44529654E+02 0.10638895E+03 0.91188000E+02 0.0000E+00 0.9000E+01
#aMCatNLO 1  0  0  1  2 0.11288151D+03 0.00000000D+00  -5  7  0 0.00000000D+00 0.00000000D+00 0.00000000D+00 0.00000000D+00 0.00000000D+00
  <mgrwgt>
 0.1761265627D-03    9    2    0
 0.468901865443434D+03 0.000000000000000D+00 0.000000000000000D+00 0.468901865443434D+03
 0.468901865443434D+03 0.000000000000000D+00 0.000000000000000D+00 -.468901865443434D+03
 0.414468033547542D+03 0.120163826839211D+03 0.396062411334040D+02 0.384005859162859D+03
 0.268662502058418D+03 -.988931887572466D+02 -.556952102550118D+02 -.243511233384341D+03
 0.157842028506351D+03 -.392061524496718D+02 0.425235092286519D+02 -.146862979460358D+03
 0.968311667745574D+02 0.179355143677070D+02 -.264345401070440D+02 0.636835368184038D+01
 0.000000000000000D+00 0.000000000000000D+00 0.000000000000000D+00 0.000000000000000D+00
 0.551233280622021D+03 0.000000000000000D+00 0.000000000000000D+00 0.551233280622021D+03
 0.512637181128171D+03 0.000000000000000D+00 0.000000000000000D+00 -.512637181128171D+03
 0.402828919937553D+03 0.797036926853802D+02 0.119460828293057D+02 0.384005859162859D+03
 0.284211912781550D+03 -.126263134159905D+03 -.744063944476715D+02 -.243511233384341D+03
 0.159988481984560D+03 -.549402929451282D+02 0.317670244570354D+02 -.146862979460358D+03
 0.975436433834467D+02 0.831302542830373D+01 -.330128565884323D+02 0.636835368184038D+01
 0.119297503663082D+03 0.931867089913492D+02 0.637061437497627D+02 0.385960994938496D+02
0.915446304502D-05 0.000000000000D+00 0.000000000000D+00 0.185184696113D-07 0.000000000000D+00  7 2 -2 23 -11 11 23 21 0 0.10549544D+00 0.49329135D-01 0.44926606D+05 0.44926606D+05 0.44926606D+05 0.11514051D+01  1  2  2  1  7  1        2 0.192833402850D-03 0.100000000000D+01
-.118743676757D-06 0.000000000000D+00 -.351555485184D-07 0.185184696113D-07 0.000000000000D+00  7 2 -2 23 -11 11 23 21 2 0.10549544D+00 0.49329135D-01 0.44926606D+05 0.44926606D+05 0.44926606D+05 0.11514051D+01  1  2  3  1  7  1        2 -.331601274126D-05 0.100000000000D+01
0.559089313130D-06 0.000000000000D+00 0.000000000000D+00 0.185184696113D-07 0.000000000000D+00  7 2 -2 23 -11 11 23 21 2 0.10549544D+00 0.49329135D-01 0.44926606D+05 0.44926606D+05 0.44926606D+05 0.11514051D+01  1  2 15  1  7  1        2 0.156130190379D-04 0.100000000000D+01
0.499230914314D-05 0.000000000000D+00 0.000000000000D+00 0.185184696113D-07 0.000000000000D+00  7 2 -2 23 -11 11 23 21 2 0.12825291D+00 0.49329135D-01 0.73423475D+05 0.73423475D+05 0.73423475D+05 0.11329010D+01  1  2 12  1  7  1        2 0.105151718553D-03 0.100000000000D+01
-.867101957804D-05 0.000000000000D+00 0.000000000000D+00 0.185184696113D-07 0.000000000000D+00  7 2 -2 23 -11 11 23 21 2 0.10549544D+00 0.49329135D-01 0.44926606D+05 0.44926606D+05 0.44926606D+05 0.11514051D+01  1  2  4  1  7  1        2 -.242145200365D-03 0.100000000000D+01
-.118675261622D-04 0.000000000000D+00 -.573010460000D-05 0.185184696113D-07 0.000000000000D+00  7 2 -2 23 -11 11 23 21 2 0.13228593D+00 0.49329135D-01 0.44926606D+05 0.44926606D+05 0.44926606D+05 0.11514051D+01  1  2  5  1  7  1        2 -.251304348601D-03 0.100000000000D+01
0.129742606779D-04 0.000000000000D+00 0.558644994241D-05 0.185184696113D-07 0.000000000000D+00  7 2 -2 23 -11 11 23 21 2 0.10549544D+00 0.49329135D-01 0.44926606D+05 0.44926606D+05 0.44926606D+05 0.11514051D+01  1  2  6  1  7  1        2 0.362316671432D-03 0.100000000000D+01
0.140296317928D-06 0.000000000000D+00 0.000000000000D+00 0.185184696113D-07 0.000000000000D+00  7 21 -2 23 -11 11 23 -2 2 0.12825291D+00 0.49329135D-01 0.73423475D+05 0.73423475D+05 0.73423475D+05 0.11329010D+01  1  2 12  3  7  1        2 0.290098868266D-05 0.100000000000D+01
-.291554349934D-06 0.000000000000D+00 -.180080143977D-06 0.185184696113D-07 0.000000000000D+00  7 21 -2 23 -11 11 23 -2 2 0.13228593D+00 0.49329135D-01 0.44926606D+05 0.44926606D+05 0.44926606D+05 0.11514051D+01  1  2  5  3  7  1        2 -.592367617986D-05 0.100000000000D+01
  </mgrwgt>
  </event>
  <event>
  7     66 0.55102590E-06 0.39563457E+03 0.75467711E-02 0.86118568E-01
        2 -1    0    0  501    0 0.00000000E+00 0.00000000E+00 0.28660728E+03 0.28660746E+03 0.32000000E+00 0.0000E+00 0.9000E+01
       -2 -1    0    0    0  501 0.00000000E+00 0.00000000E+00 -.10074668E+04 0.10074669E+04 0.32000000E+00 0.0000E+00 0.9000E+01
       25  2    1    2    0    0 -.25564221E+03 -.27161286E+03 -.72583597E+02 0.48400319E+03 0.29977362E+03 0.0000E+00 0.0000E+00
       23  1    3    3    0    0 -.14937961E+03 -.17663305E+03 -.15785860E+03 0.29453029E+03 0.91188000E+02 0.0000E+00 0.9000E+01
      -13  1    1    2    0    0 0.11360691E+03 0.13349766E+03 -.53666744E+02 0.18332563E+03 0.10565837E+00 0.0000E+00 0.9000E+01
       13  1    1    2    0    0 0.14203530E+03 0.13811520E+03 -.59460922E+03 0.62674554E+03 0.10565837E+00 0.0000E+00 0.9000E+01
       23  1    3    3    0    0 -.10626260E+03 -.94979812E+02 0.85274999E+02 0.18947290E+03 0.91188000E+02 0.0000E+00 0.9000E+01
#aMCatNLO 1  0  0  1  1 0.10165821D+04 0.00000000D+00  -5  7  0 0.00000000D+00 0.00000000D+00 0.00000000D+00 0.00000000D+00 0.00000000D+00
  <mgrwgt>
 0.1978635077D-02    3    2    0
 0.537352291060782D+03 0.000000000000000D+00 0.000000000000000D+00 0.537352291060782D+03
 0.537352291060782D+03 0.000000000000000D+00 0.000000000000000D+00 -.537352291060782D+03
 0.248767767532739D+03 -.149380716295381D+03 -.176634227596624D+03 0.747676799465448D+01
 0.184746682657642D+03 0.113606727309047D+03 0.133496988215202D+03 0.583386869975807D+02
 0.355841638390344D+03 0.142037855856139D+03 0.138118400137392D+03 -.295587257268649D+03
 0.285348493540839D+03 -.106263866869804D+03 -.949811607559699D+02 0.229771802276414D+03
 0.000000000000000D+00 -.000000000000000D+00 -.000000000000000D+00 -.000000000000000D+00
 0.960554351142760D+03 0.000000000000000D+00 0.000000000000000D+00 0.960554351142760D+03
 0.190931221036925D+04 0.000000000000000D+00 0.000000000000000D+00 -.190931221036925D+04
 0.129030505443183D+03 -.292827983969874D+02 -.861407896952358D+02 0.747676799465448D+01
 0.416122003229162D+03 0.304616277291685D+03 0.277422138229457D+03 0.583386869975807D+02
 0.675744106946152D+03 0.469967624228773D+03 0.385212543395996D+03 -.295587257268649D+03
 0.258437416518574D+03 0.665996961798357D+02 0.352710399647771D+02 0.229771802276414D+03
 0.139053252937494D+04 -.811900799303307D+03 -.611764931894994D+03 -.948757859226488D+03
0.508819628191D-03 0.000000000000D+00 0.000000000000D+00 0.200655673984D-09 0.000000000000D+00  7 2 -2 23 -13 13 23 21 0 0.44093446D-01 0.15499492D+00 0.15652671D+06 0.15652671D+06 0.15652671D+06 0.11060952D+01  1  2  2  1  7  1        2 0.194808215483D-02 0.100000000000D+01
-.250461090597D-04 0.000000000000D+00 -.195400134754D-05 0.200655673984D-09 0.000000000000D+00  7 2 -2 23 -13 13 23 21 2 0.44093446D-01 0.15499492D+00 0.15652671D+06 0.15652671D+06 0.15652671D+06 0.11060952D+01  1  2  3  1  7  1        2 -.117319083729D-03 0.100000000000D+01
0.315687633278D-04 0.000000000000D+00 0.000000000000D+00 0.200655673984D-09 0.000000000000D+00  7 2 -2 23 -13 13 23 21 2 0.44093446D-01 0.15499492D+00 0.15652671D+06 0.15652671D+06 0.15652671D+06 0.11060952D+01  1  2 15  1  7  1        2 0.147872005957D-03 0.100000000000D+01
  </mgrwgt>
  </event>
  <event>
  9     66 0.55102590E-06 0.29431559E+03 0.75467711E-02 0.98244625E-01
        2 -1    0    0  502    0 0.00000000E+00 0.00000000E+00 0.18176141E+03 0.18176169E+03 0.32000000E+00 0.0000E+00 0.9000E+01
       -2 -1    0    0    0  501 0.00000000E+00 0.00000000E+00 -.82301787E+03 0.82301793E+03 0.32000000E+00 0.0000E+00 0.9000E+01
       25  2    1    2    0    0 0.32590889E+02 -.22641907E+03 -.21402065E+03 0.43412797E+03 0.30055696E+03 0.0000E+00 0.0000E+00
       23  2    1    2    0    0 0.97105537E+02 0.20602876E+03 -.25841387E+03 0.35678642E+03 0.92959604E+02 0.0000E+00 0.0000E+00
       23  1    3    3    0    0 -.97846134E+02 -.12408323E+03 -.14381005E+03 0.23230819E+03 0.91188000E+02 0.0000E+00 0.9000E+01
      -11  1    4    4    0    0 -.33260408E+01 0.27936975E+02 -.11317359E+01 0.28157023E+02 0.51099893E-03 0.0000E+00 0.9000E+01
       11  1    4    4    0    0 0.10043158E+03 0.17809178E+03 -.25728213E+03 0.32862940E+03 0.51099893E-03 0.0000E+00 0.9000E+01
       23  1    3    3    0    0 0.13043702E+03 -.10233583E+03 -.70210605E+02 0.20181977E+03 0.91188000E+02 0.0000E+00 0.9000E+01
       21  1    1    2  502  501 -.12969643E+03 0.20390312E+02 -.16882194E+03 0.21386523E+03 0.75000000E+00 0.0000E+00 0.9000E+01
#aMCatNLO 2  0  0  1  1 0.13128948D+03 0.00000000D+00  -5  7  0 0.00000000D+00 0.00000000D+00 0.00000000D+00 0.00000000D+00 0.00000000D+00
  <mgrwgt>
 0.3257337884D-04    1    2    0
 0.310287874224400D+03 0.000000000000000D+00 0.000000000000000D+00 0.310287874224400D+03
 0.310287874224400D+03 0.000000000000000D+00 0.000000000000000D+00 -.310287874224400D+03
 0.202965163218735D+03 -.137690540725687D+03 -.117819069347118D+03 -.629190187897348D+01
 0.366371759023880D+02 -.106540677637188D+02 0.290890559110647D+02 0.195601718906446D+02
 0.207830368624095D+03 0.564062393959307D+02 0.185013256194636D+03 -.760387619040072D+02
 0.173143040703581D+03 0.919383690934749D+02 -.962832427585827D+02 0.627704918923361D+02
 0.000000000000000D+00 -.000000000000000D+00 0.000000000000000D+00 -.000000000000000D+00
 0.362010864044540D+03 0.000000000000000D+00 0.000000000000000D+00 0.362010864044540D+03
 0.413225909123244D+03 0.000000000000000D+00 0.000000000000000D+00 -.413225909123244D+03
 0.182552333438773D+03 -.978461338755059D+02 -.124083234791422D+03 -.629190187897348D+01
 0.342656891720652D+02 -.332604081976972D+01 0.279369751854106D+02 0.195601718906446D+02
 0.218140042784440D+03 0.100431578130113D+03 0.178091782708799D+03 -.760387619040072D+02
 0.199353519937063D+03 0.130437022568714D+03 -.102335834673393D+03 0.627704918923361D+02
 0.140925187835442D+03 -.129696426003551D+03 0.203903115706053D+02 -.512150450787041D+02
0.239644684249D-05 0.000000000000D+00 0.000000000000D+00 0.795163077951D-07 0.313276347709D-10  7 2 -2 23 -11 11 23 21 2 0.27963246D-01 0.12661783D+00 0.13525449D+06 0.13525449D+06 0.13525449D+06 0.11111158D+01  1  2  1  1  7  1        2 0.325733788368D-04 0.100000000000D+01
  </mgrwgt>
  </event>
  <event>
  8     66 0.55102590E-06 0.25610826E+03 0.75467711E-02 0.10241125E+00
        2 -1    0    0  501    0 0.00000000E+00 0.00000000E+00 0.16438920E+04 0.16438920E+04 0.32000000E+00 0.0000E+00 0.9000E+01
       -2 -1    0    0    0  501 0.00000000E+00 0.00000000E+00 -.61556665E+02 0.61557496E+02 0.32000000E+00 0.0000E+00 0.9000E+01
       25  2    1    2    0    0 0.44337594E+01 0.21646539E+03 0.12126512E+04 0.12675834E+04 0.29894462E+03 0.0000E+00 0.0000E+00
       23  2    1    2    0    0 -.44337594E+01 -.21646539E+03 0.36968415E+03 0.43786612E+03 0.90462381E+02 0.0000E+00 0.0000E+00
       23  1    3    3    0    0 -.40399923E+01 0.16910350E+03 0.10924450E+04 0.11092176E+04 0.91188000E+02 0.0000E+00 0.9000E+01
      -11  1    4    4    0    0 -.27546504E+01 -.77322191E+01 -.45263831E+01 0.93735509E+01 0.51099893E-03 0.0000E+00 0.9000E+01
       11  1    4    4    0    0 -.16791090E+01 -.20873317E+03 0.37421053E+03 0.42849256E+03 0.51099893E-03 0.0000E+00 0.9000E+01
       23  1    3    3    0    0 0.84737517E+01 0.47361887E+02 0.12020611E+03 0.15836576E+03 0.91188000E+02 0.0000E+00 0.9000E+01
#aMCatNLO 1  0  0  2  1 0.17836654D+02 0.00000000D+00  -5  7  0 0.00000000D+00 0.00000000D+00 0.00000000D+00 0.00000000D+00 0.00000000D+00
  <mgrwgt>
 0.4704024847D-03    4    2    0
 0.318108854243730D+03 0.000000000000000D+00 0.000000000000000D+00 0.318108854243730D+03
 0.318108854243730D+03 0.000000000000000D+00 0.000000000000000D+00 -.318108854243730D+03
 0.256359227488764D+03 -.403999234899445D+01 0.169103498668305D+03 0.169683491756253D+03
 0.363843591976599D+02 -.275465035448027D+01 -.773221913819958D+01 -.354463860336672D+02
 0.217922085975328D+03 -.167910899916060D+01 -.208733166692659D+03 -.625913833627409D+02
 0.125552035825710D+03 0.847375170263532D+01 0.473618871625539D+02 -.716457223598448D+02
 0.000000000000000D+00 0.000000000000000D+00 -.000000000000000D+00 0.000000000000000D+00
 0.374802402021256D+03 0.000000000000000D+00 0.000000000000000D+00 0.374802402021256D+03
 0.319639865014285D+03 0.000000000000000D+00 0.000000000000000D+00 -.319639865014285D+03
 0.257300626983733D+03 -.111533628464759D+02 0.170210094955742D+03 0.169683491756253D+03
 0.364416430756618D+02 -.376317444198671D+01 -.757532740713890D+01 -.354463860336672D+02
 0.217154686466559D+03 -.770422902806739D+01 -.207795864824619D+03 -.625913833627409D+02
 0.125570732230245D+03 0.499610151451698D+01 0.479028901636686D+02 -.716457223598448D+02
 0.579745782793422D+02 0.176246648020131D+02 -.274179288765313D+01 0.551625370069713D+02
0.545346682588D-05 0.000000000000D+00 0.000000000000D+00 0.104293238013D-06 0.000000000000D+00  7 2 -2 23 -11 11 23 21 0 0.25290652D+00 0.94703225D-02 0.65591439D+05 0.65591439D+05 0.65591439D+05 0.11370691D+01  1  2  2  2  7  2       -2 0.500904329226D-03 0.100000000000D+01
-.285657321263D-06 0.000000000000D+00 -.209427485422D-07 0.104293238013D-06 0.000000000000D+00  7 2 -2 23 -11 11 23 21 2 0.25290652D+00 0.94703225D-02 0.65591439D+05 0.65591439D+05 0.65591439D+05 0.11370691D+01  1  2  3  2  7  2       -2 -.339235402845D-04 0.100000000000D+01
0.346205730016D-06 0.000000000000D+00 0.000000000000D+00 0.104293238013D-06 0.000000000000D+00  7 2 -2 23 -11 11 23 21 2 0.25290652D+00 0.94703225D-02 0.65591439D+05 0.65591439D+05 0.65591439D+05 0.11370691D+01  1  2 15  2  7  2       -2 0.411140312350D-04 0.100000000000D+01
-.317392922302D-06 0.000000000000D+00 0.000000000000D+00 0.104293238013D-06 0.000000000000D+00  7 2 -2 23 -11 11 23 21 2 0.25290652D+00 0.94703225D-02 0.65591439D+05 0.65591439D+05 0.65591439D+05 0.11370691D+01  1  2  4  2  7  2       -2 -.376923354813D-04 0.100000000000D+01
  </mgrwgt>
  </event>
  <event>
  8     66 0.55102590E-06 0.26015781E+03 0.75467711E-02 0.99051681E-01
        2 -1    0    0  501    0 0.00000000E+00 0.00000000E+00 0.75553352E+03 0.75553358E+03 0.32000000E+00 0.0000E+00 0.9000E+01
       -2 -1    0    0    0  501 0.00000000E+00 0.00000000E+00 -.19042520E+03 0.19042546E+03 0.32000000E+00 0.0000E+00 0.9000E+01
       25  2    1    2    0    0 -.11464291E+03 0.11255779E+03 0.65875834E+03 0.74108583E+03 0.29905420E+03 0.0000E+00 0.0000E+00
       23  2    1    2    0    0 0.11464291E+03 -.11255779E+03 -.93650014E+02 0.20487322E+03 0.85967760E+02 0.0000E+00 0.0000E+00
       23  1    3    3    0    0 -.15079076E+03 0.15166685E+03 0.48294704E+03 0.53599793E+03 0.91188000E+02 0.0000E+00 0.9000E+01
      -11  1    4    4    0    0 0.10299064E+03 -.42863472E+02 -.57474686E+02 0.12548979E+03 0.51099893E-03 0.0000E+00 0.9000E+01
       11  1    4    4    0    0 0.11652276E+02 -.69694319E+02 -.36175328E+02 0.79383424E+02 0.51099893E-03 0.0000E+00 0.9000E+01
       23  1    3    3    0    0 0.36147849E+02 -.39109057E+02 0.17581129E+03 0.20508790E+03 0.91188000E+02 0.0000E+00 0.9000E+01
#aMCatNLO 1  0  0  1  1 0.15549303D+03 0.00000000D+00  -5  7  0 0.00000000D+00 0.00000000D+00 0.00000000D+00 0.00000000D+00 0.00000000D+00
  <mgrwgt>
 0.3164494688D-03    3    2    0
 0.379305650764066D+03 0.000000000000000D+00 0.000000000000000D+00 0.379305650764066D+03
 0.379305650764066D+03 0.000000000000000D+00 0.000000000000000D+00 -.379305650764066D+03
 0.308609562403872D+03 -.150790760261883D+03 0.151666847917601D+03 0.202938228349151D+03
 0.199295247195940D+03 0.102990635477914D+03 -.428634716921879D+02 -.165149166977128D+03
 0.125935965561057D+03 0.116522758725948D+02 -.696943189147962D+02 -.104243914929301D+03
 0.124770526367263D+03 0.361478489113741D+02 -.391090573106170D+02 0.664548535572784D+02
 0.000000000000000D+00 0.000000000000000D+00 0.000000000000000D+00 -.000000000000000D+00
 0.401151523002282D+03 0.000000000000000D+00 0.000000000000000D+00 0.401151523002282D+03
 0.820180997691485D+03 0.000000000000000D+00 0.000000000000000D+00 -.820180997691485D+03
 0.336129572524738D+03 -.213636194978162D+03 0.133579526318308D+03 0.202938228349151D+03
 0.185582051498260D+03 0.654750267014393D+02 -.536607059542586D+02 -.165149166977128D+03
 0.130210029834067D+03 -.133153514348790D+02 -.768801631486746D+02 -.104243914929301D+03
 0.122461448288453D+03 0.120491086903030D+02 -.460448302348421D+02 0.664548535572784D+02
 0.446949418548250D+03 0.149427411021299D+03 0.430061730194669D+02 -.419029474689204D+03
0.641088587474D-05 0.000000000000D+00 0.000000000000D+00 0.947771578819D-08 0.000000000000D+00  7 2 -2 23 -11 11 23 21 0 0.11623595D+00 0.29296210D-01 0.67682085D+05 0.67682085D+05 0.67682085D+05 0.11359049D+01  1  2  2  1  7  1        2 0.310015050330D-03 0.100000000000D+01
-.294595305740D-06 0.000000000000D+00 -.246194897840D-07 0.947771578819D-08 0.000000000000D+00  7 2 -2 23 -11 11 23 21 2 0.11623595D+00 0.29296210D-01 0.67682085D+05 0.67682085D+05 0.67682085D+05 0.11359049D+01  1  2  3  1  7  1        2 -.183812281710D-04 0.100000000000D+01
0.397719506723D-06 0.000000000000D+00 0.000000000000D+00 0.947771578819D-08 0.000000000000D+00  7 2 -2 23 -11 11 23 21 2 0.11623595D+00 0.29296210D-01 0.67682085D+05 0.67682085D+05 0.67682085D+05 0.11359049D+01  1  2 15  1  7  1        2 0.248156466132D-04 0.100000000000D+01
  </mgrwgt>
  </event>
  <event>
  8     66 0.55102590E-06 0.42785587E+03 0.75467711E-02 0.96342487E-01
        2 -1    0    0  501    0 0.00000000E+00 0.00000000E+00 0.16606005E+04 0.16606006E+04 0.32000000E+00 0.0000E+00 0.9000E+01
       -2 -1    0    0    0  502 0.00000000E+00 0.00000000E+00 -.16206863E+03 0.16206895E+03 0.32000000E+00 0.0000E+00 0.9000E+01
       25  2    1    2    0    0 -.18722876E+03 0.27216170E+03 0.35331593E+03 0.56920209E+03 0.30005379E+03 0.0000E+00 0.0000E+00
       23  1    3    3    0    0 -.45820036E+02 0.25632779E+03 0.24049151E+03 0.36599840E+03 0.91188000E+02 0.0000E+00 0.9000E+01
      -11  1    1    2    0    0 0.52174449E+02 0.40681335E+02 0.13818004E+03 0.15320205E+03 0.51099893E-03 0.0000E+00 0.9000E+01
       11  1    1    2    0    0 0.14092828E+03 -.31456903E+03 0.10249290E+04 0.10813390E+04 0.51099893E-03 0.0000E+00 0.9000E+01
       23  1    3    3    0    0 -.14140872E+03 0.15833910E+02 0.11282442E+03 0.20320369E+03 0.91188000E+02 0.0000E+00 0.9000E+01
       21  1    1    2  501  502 -.58739687E+01 0.17260006E+01 -.17893106E+02 0.18926393E+02 0.75000000E+00 0.0000E+00 0.9000E+01
#aMCatNLO 2  0  0  2  1 0.61223024D+01 0.00000000D+00  -5  7  0 0.00000000D+00 0.00000000D+00 0.00000000D+00 0.00000000D+00 0.00000000D+00
  <mgrwgt>
 0.1077225212D-03    2    2    0
 0.488340801662031D+03 0.000000000000000D+00 0.000000000000000D+00 0.488340801662031D+03
 0.488340801662031D+03 0.000000000000000D+00 0.000000000000000D+00 -.488340801662031D+03
 0.303262931719686D+03 -.476416998799618D+02 0.256863067085157D+03 -.124116024796852D+03
 0.681503652137359D+02 0.517638560360477D+02 0.408019691924326D+02 0.173255532975051D+02
 0.404286273728392D+03 0.138492650406732D+03 -.313853343276130D+03 0.213923481233133D+03
 0.200982032662247D+03 -.142614806562818D+03 0.161883069985398D+02 -.107133009733786D+03
 0.000000000000000D+00 -.000000000000000D+00 0.000000000000000D+00 -.000000000000000D+00
 0.488500136924209D+03 0.000000000000000D+00 0.000000000000000D+00 0.488500136924209D+03
 0.550929432723126D+03 0.000000000000000D+00 0.000000000000000D+00 -.550929432723126D+03
 0.302528431880409D+03 -.458200394018213D+02 0.256327792347733D+03 -.124116024796852D+03
 0.683909172561015D+02 0.521744460062179D+02 0.406813218813066D+02 0.173255532975051D+02
 0.405681785032130D+03 0.140928285659820D+03 -.314569027694935D+03 0.213923481233133D+03
 0.200099657710818D+03 -.141408723565008D+03 0.158339128797058D+02 -.107133009733786D+03
 0.627287777678757D+02 -.587396869920835D+01 0.172600058619033D+01 -.624292957989174D+02
-.361869526318D-02 0.000000000000D+00 0.000000000000D+00 0.316794094710D-09 0.000000000000D+00  7 2 -2 23 -11 11 23 21 2 0.25539253D+00 0.24936880D-01 0.18570809D+06 0.18570809D+06 0.18570809D+06 0.11003070D+01  1  2 13  2  7  2       -2 -.809560199532D-01 0.100000000000D+01
0.362512190394D-02 0.000000000000D+00 0.000000000000D+00 0.316794094710D-09 0.549933828750D-10  7 2 -2 23 -11 11 23 21 2 0.25547586D+00 0.24933548D-01 0.18570809D+06 0.18570809D+06 0.18570809D+06 0.11003070D+01  1  2  1  2  7  2       -2 0.810637424744D-01 0.100000000000D+01
  </mgrwgt>
  </event>
  <event>
  8     66 0.55102590E-06 0.26547242E+03 0.75467711E-02 0.93318426E-01
        2 -1    0    0  501    0 0.00000000E+00 0.00000000E+00 0.71777850E+03 0.71777857E+03 0.32000000E+00 0.0000E+00 0.9000E+01
       -2 -1    0    0    0  501 0.00000000E+00 0.00000000E+00 -.27239904E+03 0.27239923E+03 0.32000000E+00 0.0000E+00 0.9000E+01
       25  2    1    2    0    0 0.13225631E+03 0.12181923E+03 0.62760378E+03 0.71844637E+03 0.29991170E+03 0.0000E+00 0.0000E+00
       23  2    1    2    0    0 -.13225631E+03 -.12181923E+03 -.18222432E+03 0.27173144E+03 0.91107713E+02 0.0000E+00 0.0000E+00
       23  1    3    3    0    0 0.34096959E+02 0.17875316E+03 0.38585309E+03 0.43624896E+03 0.91188000E+02 0.0000E+00 0.9000E+01
      -11  1    4    4    0    0 -.10551763E+03 -.11050361E+03 -.18786573E+03 0.24215398E+03 0.51099893E-03 0.0000E+00 0.9000E+01
       11  1    4    4    0    0 -.26738680E+02 -.11315617E+02 0.56414134E+01 0.29577454E+02 0.51099893E-03 0.0000E+00 0.9000E+01
       23  1    3    3    0    0 0.98159348E+02 -.56933933E+02 0.24175068E+03 0.28219740E+03 0.91188000E+02 0.0000E+00 0.9000E+01
#aMCatNLO 1  0  0  1  1 0.48463345D+03 0.00000000D+00  -5  7  0 0.00000000D+00 0.00000000D+00 0.00000000D+00 0.00000000D+00 0.00000000D+00
  <mgrwgt>
 0.2364151024D-03    5    2    0
 0.442179040472842D+03 0.000000000000000D+00 0.000000000000000D+00 0.442179040472842D+03
 0.442179040472842D+03 0.000000000000000D+00 0.000000000000000D+00 -.442179040472842D+03
 0.294126330544005D+03 0.340969586756167D+02 0.178753164677391D+03 0.212319924882644D+03
 0.365742159884071D+03 -.105517626648196D+03 -.110503614268182D+03 -.332298524247199D+03
 0.302754832157438D+02 -.267386802105943D+02 -.113156171813749D+02 -.857931654311290D+01
 0.194214107301864D+03 0.981593481831736D+02 -.569339332278346D+02 0.128557915907668D+03
 0.000000000000000D+00 -.000000000000000D+00 -.000000000000000D+00 0.000000000000000D+00
 0.822571832482847D+03 0.000000000000000D+00 0.000000000000000D+00 0.822571832482847D+03
 0.688664798121467D+03 0.000000000000000D+00 0.000000000000000D+00 -.688664798121467D+03
 0.433611621517032D+03 0.100191467543596D+03 0.352967004548469D+03 0.212319924882644D+03
 0.339929896470581D+03 -.414271833031365D+02 0.584278510746512D+02 -.332298524247199D+03
 0.235280350696497D+02 -.218521450142766D+02 0.156445523002789D+01 -.857931654311290D+01
 0.211374198714397D+03 0.134995629447356D+03 0.401602144633555D+02 0.128557915907668D+03
 0.502792878832654D+03 -.171907768673539D+03 -.453119525316503D+03 0.133907034361381D+03
0.800726544950D-05 0.000000000000D+00 0.000000000000D+00 0.260732070370D-05 0.000000000000D+00  7 2 -2 23 -11 11 23 21 0 0.11042748D+00 0.41907565D-01 0.70475607D+05 0.70475607D+05 0.70475607D+05 0.11344097D+01  1  2  2  1  7  1        2 0.216029452551D-03 0.100000000000D+01
-.304055174014D-06 0.000000000000D+00 -.307500076875D-07 0.260732070370D-05 0.000000000000D+00  7 2 -2 23 -11 11 23 21 2 0.11042748D+00 0.41907565D-01 0.70475607D+05 0.70475607D+05 0.70475607D+05 0.11344097D+01  1  2  3  1  7  1        2 -.105565256382D-04 0.100000000000D+01
0.490399198556D-06 0.000000000000D+00 0.000000000000D+00 0.260732070370D-05 0.000000000000D+00  7 2 -2 23 -11 11 23 21 2 0.11042748D+00 0.41907565D-01 0.70475607D+05 0.70475607D+05 0.70475607D+05 0.11344097D+01  1  2 15  1  7  1        2 0.170262246952D-04 0.100000000000D+01
0.153388971603D-05 0.000000000000D+00 -.237649477430D-05 0.260732070370D-05 0.000000000000D+00  7 2 -2 23 -11 11 23 21 2 0.27121722D+00 0.41907565D-01 0.70475607D+05 0.70475607D+05 0.70475607D+05 0.11344097D+01  1  2  5  1  7  1        2 0.131998509537D-04 0.100000000000D+01
0.299417607963D-06 0.000000000000D+00 -.234415721829D-06 0.260732070370D-05 0.000000000000D+00  7 21 -2 23 -11 11 23 -2 2 0.27121722D+00 0.41907565D-01 0.70475607D+05 0.70475607D+05 0.70475607D+05 0.11344097D+01  1  2  5  3  7  1        2 0.716099837070D-06 0.100000000000D+01
  </mgrwgt>
  </event>
  <event>
  8     66 0.55102590E-06 0.15359092E+03 0.75467711E-02 0.10391731E+00
        2 -1    0    0  501    0 0.00000000E+00 0.00000000E+00 0.14502753E+03 0.14502788E+03 0.32000000E+00 0.0000E+00 0.9000E+01
       -2 -1    0    0    0  501 0.00000000E+00 0.00000000E+00 -.58642721E+03 0.58642729E+03 0.32000000E+00 0.0000E+00 0.9000E+01
       25  2    1    2    0    0 -.75206322E+01 -.18154044E+03 -.39947509E+03 0.53108885E+03 0.29910119E+03 0.0000E+00 0.0000E+00
       23  2    1    2    0    0 0.75206322E+01 0.18154044E+03 -.41924589E+02 0.20036633E+03 0.73317818E+02 0.0000E+00 0.0000E+00
       23  1    3    3    0    0 0.54349478E+02 -.56521272E+02 -.32873647E+03 0.35004491E+03 0.91188000E+02 0.0000E+00 0.9000E+01
      -11  1    4    4    0    0 0.24292494E+02 0.14179002E+03 -.55962932E+01 0.14396476E+03 0.51099893E-03 0.0000E+00 0.9000E+01
       11  1    4    4    0    0 -.16771862E+02 0.39750425E+02 -.36328295E+02 0.56401566E+02 0.51099893E-03 0.0000E+00 0.9000E+01
       23  1    3    3    0    0 -.61870110E+02 -.12501917E+03 -.70738619E+02 0.18104393E+03 0.91188000E+02 0.0000E+00 0.9000E+01
#aMCatNLO 1  0  0  2  1 0.91442823D+00 0.00000000D+00  -5  7  0 0.00000000D+00 0.00000000D+00 0.00000000D+00 0.00000000D+00 0.00000000D+00
  <mgrwgt>
 0.1287664618D-02   11    2    0
 0.291630327200258D+03 0.000000000000000D+00 0.000000000000000D+00 0.291630327200258D+03
 0.291630327200258D+03 0.000000000000000D+00 0.000000000000000D+00 -.291630327200258D+03
 0.190203103646243D+03 0.543494776339953D+02 -.565212722018802D+02 -.147354841665472D+03
 0.176308080622208D+03 0.242924942673118D+02 0.141790015172723D+03 0.101931376976272D+03
 0.432395345369106D+02 -.167718620222683D+02 0.397504245043881D+02 -.287502052090457D+01
 0.173509935595155D+03 -.618701098790389D+02 -.125019167475230D+03 0.482984852101044D+02
 0.000000000000000D+00 0.000000000000000D+00 0.000000000000000D+00 -.000000000000000D+00
 0.291687743962115D+03 0.000000000000000D+00 0.000000000000000D+00 0.291687743962115D+03
 0.295294386514576D+03 0.000000000000000D+00 0.000000000000000D+00 -.295294386514576D+03
 0.190288574056148D+03 0.543378920904756D+02 -.568193117982753D+02 -.147354841665472D+03
 0.176084689220554D+03 0.242817643039242D+02 0.141513985485212D+03 0.101931376976272D+03
 0.431783358960698D+02 -.167744933491998D+02 0.396827332808094D+02 -.287502052090457D+01
 0.173709772041461D+03 -.618806823285022D+02 -.125291145096789D+03 0.482984852101044D+02
 0.372075926245857D+01 0.355192833023389D-01 0.913738129042996D+00 -.360664255246038D+01
0.247237443433D-04 0.000000000000D+00 0.000000000000D+00 0.363290510555D-09 0.000000000000D+00  7 2 -2 23 -11 11 23 21 0 0.22311961D-01 0.90219604D-01 0.56149428D+05 0.56149428D+05 0.56149428D+05 0.11428906D+01  1  2  2  2  7  2       -2 0.817491195833D-03 0.100000000000D+01
-.130156620119D-05 0.000000000000D+00 -.949456881896D-07 0.363290510555D-09 0.000000000000D+00  7 2 -2 23 -11 11 23 21 2 0.22311961D-01 0.90219604D-01 0.56149428D+05 0.56149428D+05 0.56149428D+05 0.11428906D+01  1  2  3  2  7  2       -2 -.562139900394D-04 0.100000000000D+01
0.158113018602D-05 0.000000000000D+00 0.000000000000D+00 0.363290510555D-09 0.000000000000D+00  7 2 -2 23 -11 11 23 21 2 0.22311961D-01 0.90219604D-01 0.56149428D+05 0.56149428D+05 0.56149428D+05 0.11428906D+01  1  2 15  2  7  2       -2 0.682882180306D-04 0.100000000000D+01
0.680808134684D-09 0.000000000000D+00 0.000000000000D+00 0.363290510555D-09 0.000000000000D+00  7 2 -2 23 -11 11 23 21 2 0.22311961D-01 0.91361952D-01 0.56368211D+05 0.56368211D+05 0.56368211D+05 0.11427438D+01  1  2 12  2  7  2       -2 0.285560547084D-07 0.100000000000D+01
-.776629676502D-02 0.000000000000D+00 0.000000000000D+00 0.363290510555D-09 0.000000000000D+00  7 2 -2 23 -11 11 23 21 2 0.22311961D-01 0.90219604D-01 0.56149428D+05 0.56149428D+05 0.56149428D+05 0.11428906D+01  1  2  4  2  7  2       -2 -.335422453805D+00 0.100000000000D+01
-.947933954296D-02 0.000000000000D+00 -.237841454213D-03 0.363290510555D-09 0.000000000000D+00  7 2 -2 23 -11 11 23 21 2 0.22311961D-01 0.91361604D-01 0.56149428D+05 0.56149428D+05 0.56149428D+05 0.11428906D+01  1  2  5  2  7  2       -2 -.397722451238D+00 0.100000000000D+01
0.948159995973D-02 0.000000000000D+00 0.237822639810D-03 0.363290510555D-09 0.000000000000D+00  7 2 -2 23 -11 11 23 21 2 0.22311961D-01 0.90219604D-01 0.56149428D+05 0.56149428D+05 0.56149428D+05 0.11428906D+01  1  2  6  2  7  2       -2 0.409505536643D+00 0.100000000000D+01
0.776682354464D-02 0.000000000000D+00 0.000000000000D+00 0.363290510555D-09 0.302608261051D-08  7 2 -2 23 -11 11 23 21 2 0.22316354D-01 0.91353128D-01 0.56368211D+05 0.56368211D+05 0.56368211D+05 0.11427438D+01  1  2 11  2  7  2       -2 0.325772452223D+00 0.100000000000D+01
0.773833373752D-10 0.000000000000D+00 0.000000000000D+00 0.363290510555D-09 0.000000000000D+00  7 2 21 23 -11 11 23 2 2 0.22311961D-01 0.91361952D-01 0.56368211D+05 0.56368211D+05 0.56368211D+05 0.11427438D+01  1  2 12  4  7  2       -2 0.321100621482D-07 0.100000000000D+01
-.219270496640D-04 0.000000000000D+00 -.550507797305D-06 0.363290510555D-09 0.000000000000D+00  7 2 21 23 -11 11 23 2 2 0.22311961D-01 0.91361604D-01 0.56149428D+05 0.56149428D+05 0.56149428D+05 0.11428906D+01  1  2  5  4  7  2       -2 -.910252421428D-02 0.100000000000D+01
0.178995995304D-04 0.000000000000D+00 0.000000000000D+00 0.363290510555D-09 0.696020006563D-11  7 2 21 23 -11 11 23 2 2 0.22316354D-01 0.91353128D-01 0.56368211D+05 0.56368211D+05 0.56368211D+05 0.11427438D+01  1  2 11  4  7  2       -2 0.742747891935D-02 0.100000000000D+01
  </mgrwgt>
  </event>
  <event>
  8     66 0.55102590E-06 0.48060709E+02 0.75467711E-02 0.10555418E+00
        2 -1    0    0  501    0 0.00000000E+00 0.00000000E+00 0.32888684E+03 0.32888700E+03 0.32000000E+00 0.0000E+00 0.9000E+01
       -2 -1    0    0    0  501 0.00000000E+00 0.00000000E+00 -.18438257E+03 0.18438285E+03 0.32000000E+00 0.0000E+00 0.9000E+01
       25  2    1    2    0    0 0.35029178E+02 -.56246222E+02 0.21959907E+03 0.37851065E+03 0.30109115E+03 0.0000E+00 0.0000E+00
       23  2    1    2    0    0 -.35029178E+02 0.56246222E+02 -.75094794E+02 0.13475919E+03 0.90167240E+02 0.0000E+00 0.0000E+00
       23  1    3    3    0    0 0.49814251E+02 0.34059937E+02 0.22398402E+03 0.24925014E+03 0.91188000E+02 0.0000E+00 0.9000E+01
      -13  1    4    4    0    0 -.59808933E+02 0.33898328E+02 -.74517008E+02 0.10138541E+03 0.10565837E+00 0.0000E+00 0.9000E+01
       13  1    4    4    0    0 0.24779754E+02 0.22347894E+02 -.57778613E+00 0.33373786E+02 0.10565837E+00 0.0000E+00 0.9000E+01
       23  1    3    3    0    0 -.14785073E+02 -.90306158E+02 -.43849569E+01 0.12926051E+03 0.91188000E+02 0.0000E+00 0.9000E+01
#aMCatNLO 1  0  0  2  1 0.69257727D+02 0.00000000D+00  -5  7  0 0.00000000D+00 0.00000000D+00 0.00000000D+00 0.00000000D+00 0.00000000D+00
  <mgrwgt>
 0.1401085339D-03    9    2    0
 0.246254162130736D+03 0.000000000000000D+00 0.000000000000000D+00 0.246254162130736D+03
 0.246254162130736D+03 0.000000000000000D+00 0.000000000000000D+00 -.246254162130736D+03
 0.194039226484907D+03 0.498142517335945D+02 0.340599353096860D+02 0.160294825873398D+03
 0.127523044824403D+03 -.598090454751673D+02 0.338983468396447D+02 -.107405340287041D+03
 0.349500416349551D+02 0.247798656939733D+02 0.223478772509594D+02 -.103940391018020D+02
 0.135996011317207D+03 -.147850719524005D+02 -.903061594002901D+02 -.424954464845547D+02
 0.000000000000000D+00 -.000000000000000D+00 -.000000000000000D+00 -.000000000000000D+00
 0.264028168788127D+03 0.000000000000000D+00 0.000000000000000D+00 0.264028168788127D+03
 0.326792354829445D+03 0.000000000000000D+00 0.000000000000000D+00 -.326792354829445D+03
 0.203354937392473D+03 0.621879705293094D+02 0.589593447857033D+02 0.160294825873398D+03
 0.129303662276507D+03 -.518121956425244D+02 0.499902624382237D+02 -.107405340287041D+03
 0.396589183821909D+02 0.271029755300245D+02 0.270226289582340D+02 -.103940391018020D+02
 0.125036563309043D+03 -.665726342237060D+01 -.739507179947552D+02 -.424954464845547D+02
 0.934664422573592D+02 -.308214869944389D+02 -.620215181874058D+02 -.627641860413180D+02
0.103348147795D-05 0.000000000000D+00 0.000000000000D+00 0.396155074525D-07 0.000000000000D+00  7 2 -2 23 -13 13 23 21 0 0.50598009D-01 0.28366583D-01 0.29010507D+05 0.29010507D+05 0.29010507D+05 0.11686898D+01  1  2  2  2  7  2       -2 0.133661064285D-03 0.100000000000D+01
-.479280049533D-07 0.000000000000D+00 -.396884099723D-08 0.396155074525D-07 0.000000000000D+00  7 2 -2 23 -13 13 23 21 2 0.50598009D-01 0.28366583D-01 0.29010507D+05 0.29010507D+05 0.29010507D+05 0.11686898D+01  1  2  3  2  7  2       -2 -.846623004028D-05 0.100000000000D+01
0.631622333090D-07 0.000000000000D+00 0.000000000000D+00 0.396155074525D-07 0.000000000000D+00  7 2 -2 23 -13 13 23 21 2 0.50598009D-01 0.28366583D-01 0.29010507D+05 0.29010507D+05 0.29010507D+05 0.11686898D+01  1  2 15  2  7  2       -2 0.111572763684D-04 0.100000000000D+01
0.103514175311D-05 0.000000000000D+00 0.000000000000D+00 0.396155074525D-07 0.000000000000D+00  7 2 -2 23 -13 13 23 21 2 0.50598009D-01 0.38415754D-01 0.44575015D+05 0.44575015D+05 0.44575015D+05 0.11517087D+01  1  2 12  2  7  2       -2 0.104147373812D-03 0.100000000000D+01
-.129962053030D-05 0.000000000000D+00 0.000000000000D+00 0.396155074525D-07 0.000000000000D+00  7 2 -2 23 -13 13 23 21 2 0.50598009D-01 0.28366583D-01 0.29010507D+05 0.29010507D+05 0.29010507D+05 0.11686898D+01  1  2  4  2  7  2       -2 -.229571132479D-03 0.100000000000D+01
-.155506156426D-05 0.000000000000D+00 -.485171879560D-06 0.396155074525D-07 0.000000000000D+00  7 2 -2 23 -13 13 23 21 2 0.50598009D-01 0.39935779D-01 0.29010507D+05 0.29010507D+05 0.29010507D+05 0.11686898D+01  1  2  5  2  7  2       -2 -.150059387572D-03 0.100000000000D+01
0.165057440648D-05 0.000000000000D+00 0.458108880633D-06 0.396155074525D-07 0.000000000000D+00  7 2 -2 23 -13 13 23 21 2 0.50598009D-01 0.28366583D-01 0.29010507D+05 0.29010507D+05 0.29010507D+05 0.11686898D+01  1  2  6  2  7  2       -2 0.291565289176D-03 0.100000000000D+01
0.403268669647D-07 0.000000000000D+00 0.000000000000D+00 0.396155074525D-07 0.000000000000D+00  7 2 21 23 -13 13 23 2 2 0.50598009D-01 0.38415754D-01 0.44575015D+05 0.44575015D+05 0.44575015D+05 0.11517087D+01  1  2 12  4  7  2       -2 0.469805616751D-04 0.100000000000D+01
-.528069368930D-07 0.000000000000D+00 -.206148615805D-07 0.396155074525D-07 0.000000000000D+00  7 2 21 23 -13 13 23 2 2 0.50598009D-01 0.39935779D-01 0.29010507D+05 0.29010507D+05 0.29010507D+05 0.11686898D+01  1  2  5  4  7  2       -2 -.593062813266D-04 0.100000000000D+01
  </mgrwgt>
  </event>
  <event>
  8     66 0.55102590E-06 0.16943222E+03 0.75467711E-02 0.98318512E-01
        2 -1    0    0  501    0 0.00000000E+00 0.00000000E+00 0.21299009E+03 0.21299033E+03 0.32000000E+00 0.0000E+00 0.9000E+01
       -2 -1    0    0    0  501 0.00000000E+00 0.00000000E+00 -.67402091E+03 0.67402099E+03 0.32000000E+00 0.0000E+00 0.9000E+01
       25  2    1    2    0    0 0.16983475E+03 0.24194336E+03 -.14571353E+03 0.44562885E+03 0.29995368E+03 0.0000E+00 0.0000E+00
       23  2    1    2    0    0 -.16983475E+03 -.24194336E+03 -.31531729E+03 0.44138247E+03 0.89515678E+02 0.0000E+00 0.0000E+00
       23  1    3    3    0    0 0.16296904E+03 0.15643930E+03 -.19402528E+03 0.31143735E+03 0.91188000E+02 0.0000E+00 0.9000E+01
      -11  1    4    4    0    0 -.16058097E+03 -.24867805E+03 -.31040768E+03 0.42892884E+03 0.51099893E-03 0.0000E+00 0.9000E+01
       11  1    4    4    0    0 -.92537730E+01 0.67346956E+01 -.49096102E+01 0.12453622E+02 0.51099893E-03 0.0000E+00 0.9000E+01
       23  1    3    3    0    0 0.68657057E+01 0.85504060E+02 0.48311747E+02 0.13419150E+03 0.91188000E+02 0.0000E+00 0.9000E+01
#aMCatNLO 1  0  0  1  2 0.53488200D+02 0.00000000D+00  -5  7  0 0.00000000D+00 0.00000000D+00 0.00000000D+00 0.00000000D+00 0.00000000D+00
  <mgrwgt>
 0.4324824573D-03    9    2    0
 0.378893009032067D+03 0.000000000000000D+00 0.000000000000000D+00 0.378893009032067D+03
 0.378893009032067D+03 0.000000000000000D+00 0.000000000000000D+00 -.378893009032067D+03
 0.246503383977942D+03 0.162969040121661D+03 0.156439298496545D+03 -.376364825177650D+02
 0.313224605702349D+03 -.160580972795463D+03 -.248678053686860D+03 -.102384717648534D+03
 0.115903727117117D+02 -.925377300938836D+01 0.673469562655446D+01 0.182983592291061D+01
 0.186467655672130D+03 0.686570568319047D+01 0.855040595637599D+02 0.138191364243389D+03
 0.000000000000000D+00 0.000000000000000D+00 0.000000000000000D+00 0.000000000000000D+00
 0.407771440225685D+03 0.000000000000000D+00 0.000000000000000D+00 0.407771440225685D+03
 0.405438991722148D+03 0.000000000000000D+00 0.000000000000000D+00 -.405438991722148D+03
 0.231827094838001D+03 0.147991977083451D+03 0.148695731141311D+03 -.376364825177650D+02
 0.332133947389134D+03 -.180787871916391D+03 -.259125594969429D+03 -.102384717648534D+03
 0.119810988912462D+02 -.999182218613068D+01 0.635310322108757D+01 0.182983592291061D+01
 0.183729259386669D+03 -.472557436049625D+01 0.795110382669485D+02 0.138191364243389D+03
 0.535390314427827D+02 0.475132913795666D+02 0.245657223400825D+02 0.233244850353676D+01
0.161827421374D-04 0.000000000000D+00 0.000000000000D+00 0.369462428083D-06 0.000000000000D+00  7 2 -2 23 -11 11 23 21 0 0.32767730D-01 0.10369555D+00 0.11433530D+06 0.11433530D+06 0.11433530D+06 0.11169787D+01  1  2  2  1  7  1        2 0.246122865434D-03 0.100000000000D+01
-.884882938939D-06 0.000000000000D+00 -.621459908216D-07 0.369462428083D-06 0.000000000000D+00  7 2 -2 23 -11 11 23 21 2 0.32767730D-01 0.10369555D+00 0.11433530D+06 0.11433530D+06 0.11433530D+06 0.11169787D+01  1  2  3  1  7  1        2 -.167909575938D-04 0.100000000000D+01
0.102640181510D-05 0.000000000000D+00 0.000000000000D+00 0.369462428083D-06 0.000000000000D+00  7 2 -2 23 -11 11 23 21 2 0.32767730D-01 0.10369555D+00 0.11433530D+06 0.11433530D+06 0.11433530D+06 0.11169787D+01  1  2 15  1  7  1        2 0.194763268599D-04 0.100000000000D+01
0.220897799060D-04 0.000000000000D+00 0.000000000000D+00 0.369462428083D-06 0.000000000000D+00  7 2 -2 23 -11 11 23 21 2 0.36331365D-01 0.10369555D+00 0.13363284D+06 0.13363284D+06 0.13363284D+06 0.11115336D+01  1  2 12  1  7  1        2 0.368660732680D-03 0.100000000000D+01
-.178689773550D-04 0.000000000000D+00 0.000000000000D+00 0.369462428083D-06 0.000000000000D+00  7 2 -2 23 -11 11 23 21 2 0.32767730D-01 0.10369555D+00 0.11433530D+06 0.11433530D+06 0.11433530D+06 0.11169787D+01  1  2  4  1  7  1        2 -.339069980683D-03 0.100000000000D+01
-.691887113956D-04 0.000000000000D+00 -.169731614811D-04 0.369462428083D-06 0.000000000000D+00  7 2 -2 23 -11 11 23 21 2 0.37604437D-01 0.10369555D+00 0.11433530D+06 0.11433530D+06 0.11433530D+06 0.11169787D+01  1  2  5  1  7  1        2 -.112555397067D-02 0.100000000000D+01
0.710110659023D-04 0.000000000000D+00 0.168135575022D-04 0.369462428083D-06 0.000000000000D+00  7 2 -2 23 -11 11 23 21 2 0.32767730D-01 0.10369555D+00 0.11433530D+06 0.11433530D+06 0.11433530D+06 0.11169787D+01  1  2  6  1  7  1        2 0.134745935738D-02 0.100000000000D+01
0.368778015116D-06 0.000000000000D+00 0.000000000000D+00 0.369462428083D-06 0.000000000000D+00  7 21 -2 23 -11 11 23 -2 2 0.36331365D-01 0.10369555D+00 0.13363284D+06 0.13363284D+06 0.13363284D+06 0.11115336D+01  1  2 12  3  7  1        2 0.268208778122D-04 0.100000000000D+01
-.137076311715D-05 0.000000000000D+00 -.361026770787D-06 0.369462428083D-06 0.000000000000D+00  7 21 -2 23 -11 11 23 -2 2 0.37604437D-01 0.10369555D+00 0.11433530D+06 0.11433530D+06 0.11433530D+06 0.11169787D+01  1  2  5  3  7  1        2 -.946427938956D-04 0.100000000000D+01
  </mgrwgt>
  </event>
  <event>
  8     66 0.55102590E-06 0.98480365E+02 0.75467711E-02 0.99789999E-01
        2 -1    0    0  501    0 0.00000000E+00 0.00000000E+00 0.10158659E+04 0.10158659E+04 0.32000000E+00 0.0000E+00 0.9000E+01
       -2 -1    0    0    0  501 0.00000000E+00 0.00000000E+00 -.84503938E+02 0.84504544E+02 0.32000000E+00 0.0000E+00 0.9000E+01
       25  2    1    2    0    0 -.17136875E+03 0.10940494E+03 0.57495199E+03 0.67975448E+03 0.30026600E+03 0.0000E+00 0.0000E+00
       23  2    1    2    0    0 0.17136875E+03 -.10940494E+03 0.35640995E+03 0.42061599E+03 0.92482828E+02 0.0000E+00 0.0000E+00
       23  1    3    3    0    0 -.94635255E+02 -.66018436E+02 0.19023842E+03 0.24045825E+03 0.91188000E+02 0.0000E+00 0.9000E+01
      -13  1    4    4    0    0 0.69762684E+02 -.49441381E+02 0.24040004E+03 0.25515382E+03 0.10565837E+00 0.0000E+00 0.9000E+01
       13  1    4    4    0    0 0.10160606E+03 -.59963555E+02 0.11600991E+03 0.16546218E+03 0.10565837E+00 0.0000E+00 0.9000E+01
       23  1    3    3    0    0 -.76733493E+02 0.17542337E+03 0.38471358E+03 0.43929623E+03 0.91188000E+02 0.0000E+00 0.9000E+01
#aMCatNLO 1  0  0  1  2 0.81936407D+02 0.00000000D+00  -5  7  0 0.00000000D+00 0.00000000D+00 0.00000000D+00 0.00000000D+00 0.00000000D+00
  <mgrwgt>
 0.4021436752D-03    9    2    0
 0.292993222490542D+03 0.000000000000000D+00 0.000000000000000D+00 0.292993222490542D+03
 0.292993222490542D+03 0.000000000000000D+00 0.000000000000000D+00 -.292993222490542D+03
 0.149171269383592D+03 -.946352553240279D+02 -.660184354050737D+02 -.249509699597894D+02
 0.970402320145834D+02 0.697626430853964D+02 -.494413673130292D+02 0.458860704070626D+02
 0.126321175022481D+03 0.101606106405840D+03 -.599635694508985D+02 -.451398796942627D+02
 0.213453768560428D+03 -.767334941672089D+02 0.175423372169001D+03 0.242047792469895D+02
 0.000000000000000D+00 0.000000000000000D+00 0.000000000000000D+00 0.000000000000000D+00
 0.351417430675395D+03 0.000000000000000D+00 0.000000000000000D+00 0.351417430675395D+03
 0.326044716431578D+03 0.000000000000000D+00 0.000000000000000D+00 -.326044716431578D+03
 0.166756201286112D+03 -.112759612334226D+03 -.784544342129558D+02 -.249509699597894D+02
 0.938522548783136D+02 0.588113840015400D+02 -.569555563590196D+02 0.458860704070626D+02
 0.120579054583401D+03 0.874417543860844D+02 -.696824171172183D+02 -.451398796942627D+02
 0.210499643479014D+03 -.101055161982945D+03 0.158735098384060D+03 0.242047792469895D+02
 0.857749928801329D+02 0.675616359295467D+02 0.463573093051336D+02 0.253727142438174D+02
0.206813171712D-05 0.000000000000D+00 0.000000000000D+00 0.179757709437D-06 0.000000000000D+00  7 2 -2 23 -13 13 23 21 0 0.15628711D+00 0.13000656D-01 0.79139076D+05 0.79139076D+05 0.79139076D+05 0.11301568D+01  1  2  2  1  7  1        2 0.258584495877D-03 0.100000000000D+01
-.114665158322D-06 0.000000000000D+00 -.794217034534D-08 0.179757709437D-06 0.000000000000D+00  7 2 -2 23 -13 13 23 21 2 0.15628711D+00 0.13000656D-01 0.79139076D+05 0.79139076D+05 0.79139076D+05 0.11301568D+01  1  2  3  1  7  1        2 -.183118913762D-04 0.100000000000D+01
0.132825381360D-06 0.000000000000D+00 0.000000000000D+00 0.179757709437D-06 0.000000000000D+00  7 2 -2 23 -13 13 23 21 2 0.15628711D+00 0.13000656D-01 0.79139076D+05 0.79139076D+05 0.79139076D+05 0.11301568D+01  1  2 15  1  7  1        2 0.212120577084D-04 0.100000000000D+01
0.162995168776D-05 0.000000000000D+00 0.000000000000D+00 0.179757709437D-06 0.000000000000D+00  7 2 -2 23 -13 13 23 21 2 0.19485012D+00 0.13000656D-01 0.10549500D+06 0.10549500D+06 0.10549500D+06 0.11198206D+01  1  2 12  1  7  1        2 0.182740449792D-03 0.100000000000D+01
-.162128733869D-05 0.000000000000D+00 0.000000000000D+00 0.179757709437D-06 0.000000000000D+00  7 2 -2 23 -13 13 23 21 2 0.15628711D+00 0.13000656D-01 0.79139076D+05 0.79139076D+05 0.79139076D+05 0.11301568D+01  1  2  4  1  7  1        2 -.258917687553D-03 0.100000000000D+01
-.375027903396D-05 0.000000000000D+00 -.112798438337D-05 0.179757709437D-06 0.000000000000D+00  7 2 -2 23 -13 13 23 21 2 0.20046660D+00 0.13000656D-01 0.79139076D+05 0.79139076D+05 0.79139076D+05 0.11301568D+01  1  2  5  1  7  1        2 -.409903012140D-03 0.100000000000D+01
0.394236698680D-05 0.000000000000D+00 0.109391001296D-05 0.179757709437D-06 0.000000000000D+00  7 2 -2 23 -13 13 23 21 2 0.15628711D+00 0.13000656D-01 0.79139076D+05 0.79139076D+05 0.79139076D+05 0.11301568D+01  1  2  6  1  7  1        2 0.629591386639D-03 0.100000000000D+01
0.502411468646D-07 0.000000000000D+00 0.000000000000D+00 0.179757709437D-06 0.000000000000D+00  7 21 -2 23 -13 13 23 -2 2 0.19485012D+00 0.13000656D-01 0.10549500D+06 0.10549500D+06 0.10549500D+06 0.11198206D+01  1  2 12  3  7  1        2 0.279390991929D-05 0.100000000000D+01
-.107754974726D-06 0.000000000000D+00 -.380565841322D-07 0.179757709437D-06 0.000000000000D+00  7 21 -2 23 -13 13 23 -2 2 0.20046660D+00 0.13000656D-01 0.79139076D+05 0.79139076D+05 0.79139076D+05 0.11301568D+01  1  2  5  3  7  1        2 -.564603364473D-05 0.100000000000D+01
  </mgrwgt>
  </event>
  <event>
  8     66 0.55102590E-06 0.17330904E+03 0.75467711E-02 0.90065130E-01
        2 -1    0    0  501    0 0.00000000E+00 0.00000000E+00 0.16431924E+04 0.16431924E+04 0.32000000E+00 0.0000E+00 0.9000E+01
       -2 -1    0    0    0  501 0.00000000E+00 0.00000000E+00 -.30370309E+02 0.30371995E+02 0.32000000E+00 0.0000E+00 0.9000E+01
       25  2    1    2    0    0 0.45169818E+02 -.42718881E+02 0.14088931E+04 0.14418419E+04 0.30010535E+03 0.0000E+00 0.0000E+00
       23  2    1    2    0    0 -.45169818E+02 0.42718881E+02 0.20392901E+03 0.23172249E+03 0.90791291E+02 0.0000E+00 0.0000E+00
       23  1    3    3    0    0 0.10602134E+03 -.79363778E+02 0.11062789E+04 0.11179031E+04 0.91188000E+02 0.0000E+00 0.9000E+01
      -13  1    4    4    0    0 -.10513723E+02 0.32418553E+02 0.18991206E+03 0.19294585E+03 0.10565837E+00 0.0000E+00 0.9000E+01
       13  1    4    4    0    0 -.34656095E+02 0.10300328E+02 0.14016945E+02 0.38776637E+02 0.10565837E+00 0.0000E+00 0.9000E+01
       23  1    3    3    0    0 -.60851523E+02 0.36644898E+02 0.30261416E+03 0.32393878E+03 0.91188000E+02 0.0000E+00 0.9000E+01
#aMCatNLO 1  0  0  2  2 0.72486743D+03 0.00000000D+00  -5  7  0 0.00000000D+00 0.00000000D+00 0.00000000D+00 0.00000000D+00 0.00000000D+00
  <mgrwgt>
 0.2876514564D-03    5    2    0
 0.223395830498872D+03 0.000000000000000D+00 0.000000000000000D+00 0.223395830498872D+03
 0.223395830498872D+03 0.000000000000000D+00 0.000000000000000D+00 -.223395830498872D+03
 0.193942417326358D+03 0.106021349256347D+03 -.793637862456562D+02 0.108440180878716D+03
 0.371826802423375D+02 -.105136954419538D+02 0.324185769883861D+02 0.148677430770725D+02
 0.946490311621939D+02 -.346561361332750D+02 0.103003161242717D+02 -.874716800798631D+02
 0.121017532266854D+03 -.608515176811179D+02 0.366448931329985D+02 -.358362438759257D+02
 0.000000000000000D+00 -.000000000000000D+00 -.000000000000000D+00 -.000000000000000D+00
 0.517024442971987D+03 0.000000000000000D+00 0.000000000000000D+00 0.517024442971987D+03
 0.186492275811893D+04 0.000000000000000D+00 0.000000000000000D+00 -.186492275811893D+04
 0.476727232926891D+03 0.449981164201030D+03 0.686387813514179D+02 0.108440180878716D+03
 0.759834338268850D+02 0.475247078741355D+02 0.573919382265214D+02 0.148677430770725D+02
 0.135341342120971D+03 0.832967877893511D+02 0.610543136484841D+02 -.874716800798631D+02
 0.163449944503601D+03 0.850405480039770D+02 0.994208319934948D+02 -.358362438759257D+02
 0.153044524771257D+04 -.665843207868493D+03 -.286505865219918D+03 -.134789831514695D+04
0.100434866031D-05 0.000000000000D+00 0.000000000000D+00 0.181438346313D-06 0.000000000000D+00  7 2 -2 23 -13 13 23 21 0 0.25279896D+00 0.46724873D-02 0.30036024D+05 0.30036024D+05 0.30036024D+05 0.11672876D+01  1  2  2  2  7  2       -2 0.266005859771D-03 0.100000000000D+01
-.514248238592D-07 0.000000000000D+00 -.385696330667D-08 0.181438346313D-06 0.000000000000D+00  7 2 -2 23 -13 13 23 21 2 0.25279896D+00 0.46724873D-02 0.30036024D+05 0.30036024D+05 0.30036024D+05 0.11672876D+01  1  2  3  2  7  2       -2 -.185581734458D-04 0.100000000000D+01
0.619115016395D-07 0.000000000000D+00 0.000000000000D+00 0.181438346313D-06 0.000000000000D+00  7 2 -2 23 -13 13 23 21 2 0.25279896D+00 0.46724873D-02 0.30036024D+05 0.30036024D+05 0.30036024D+05 0.11672876D+01  1  2 15  2  7  2       -2 0.223426022588D-04 0.100000000000D+01
0.424099151414D-05 0.000000000000D+00 -.167227911744D-05 0.181438346313D-06 0.000000000000D+00  7 2 -2 23 -13 13 23 21 2 0.25279896D+00 0.11321079D+00 0.30036024D+05 0.30036024D+05 0.30036024D+05 0.11672876D+01  1  2  5  2  7  2       -2 0.563566736634D-05 0.100000000000D+01
0.942023510907D-06 0.000000000000D+00 -.552701444340D-06 0.181438346313D-06 0.000000000000D+00  7 2 21 23 -13 13 23 2 2 0.25279896D+00 0.11321079D+00 0.30036024D+05 0.30036024D+05 0.30036024D+05 0.11672876D+01  1  2  5  4  7  2       -2 0.122255004224D-04 0.100000000000D+01
  </mgrwgt>
  </event>
  <event>
  8     66 0.55102590E-06 0.89978802E+02 0.75467711E-02 0.10820458E+00
        2 -1    0    0  501    0 0.00000000E+00 0.00000000E+00 0.14012462E+04 0.14012462E+04 0.32000000E+00 0.0000E+00 0.9000E+01
       -2 -1    0    0    0  501 0.00000000E+00 0.00000000E+00 -.38220856E+02 0.38222196E+02 0.32000000E+00 0.0000E+00 0.9000E+01
       25  2    1    2    0    0 0.11258269E+02 -.66414214E+02 0.66462624E+03 0.73188273E+03 0.29897609E+03 0.0000E+00 0.0000E+00
       23  2    1    2    0    0 -.11258269E+02 0.66414214E+02 0.69839910E+03 0.70758570E+03 0.91534775E+02 0.0000E+00 0.0000E+00
       23  1    3    3    0    0 0.68836410E+02 0.36663789E+02 0.47867421E+03 0.49348448E+03 0.91188000E+02 0.0000E+00 0.9000E+01
      -13  1    4    4    0    0 -.64406400E+01 0.61754158E+02 0.69812083E+03 0.70087643E+03 0.10565837E+00 0.0000E+00 0.9000E+01
       13  1    4    4    0    0 -.48176291E+01 0.46600559E+01 0.27826763E+00 0.67092673E+01 0.10565837E+00 0.0000E+00 0.9000E+01
       23  1    3    3    0    0 -.57578141E+02 -.10307800E+03 0.18595203E+03 0.23839825E+03 0.91188000E+02 0.0000E+00 0.9000E+01
#aMCatNLO 1  0  0  1  2 0.12384860D+02 0.00000000D+00  -5  7  0 0.00000000D+00 0.00000000D+00 0.00000000D+00 0.00000000D+00 0.00000000D+00
  <mgrwgt>
 0.3044277378D-03    9    2    0
 0.231425624258173D+03 0.000000000000000D+00 0.000000000000000D+00 0.231425624258173D+03
 0.231425624258173D+03 0.000000000000000D+00 0.000000000000000D+00 -.231425624258173D+03
 0.125116341080847D+03 0.688364111594110D+02 0.366637844436985D+02 0.354423880461979D+02
 0.123869538226294D+03 -.644064506536671D+01 0.617542425121066D+02 0.107184859580508D+03
 0.200462302627942D+02 -.481762596795311D+01 0.465998313948107D+01 -.188924954657034D+02
 0.193819138946412D+03 -.575781401260911D+02 -.103078010095286D+03 -.123734752161003D+03
 0.000000000000000D+00 0.000000000000000D+00 -.000000000000000D+00 0.000000000000000D+00
 0.253356350064666D+03 0.000000000000000D+00 0.000000000000000D+00 0.253356350064666D+03
 0.233263600766901D+03 0.000000000000000D+00 0.000000000000000D+00 -.233263600766901D+03
 0.124316151214829D+03 0.662098651089787D+02 0.387213765341823D+02 0.354423880461979D+02
 0.125068555021118D+03 -.906198505039984D+01 0.638077562583383D+02 0.107184859580508D+03
 0.202317785466663D+02 -.524175693815709D+01 0.499224022268634D+01 -.188924954657034D+02
 0.193400429604122D+03 -.616555961907199D+02 -.998837994525698D+02 -.123734752161003D+03
 0.236030364448309D+02 0.974947307029817D+01 -.763757356263709D+01 0.200927492977655D+02
0.719847755902D-06 0.000000000000D+00 0.000000000000D+00 0.534314863340D-07 0.000000000000D+00  7 2 -2 23 -13 13 23 21 0 0.21557644D+00 0.58802376D-02 0.28555290D+05 0.28555290D+05 0.28555290D+05 0.11693299D+01  1  2  2  1  7  1        2 0.182137518180D-03 0.100000000000D+01
-.351833709228D-07 0.000000000000D+00 -.276440492293D-08 0.534314863340D-07 0.000000000000D+00  7 2 -2 23 -13 13 23 21 2 0.21557644D+00 0.58802376D-02 0.28555290D+05 0.28555290D+05 0.28555290D+05 0.11693299D+01  1  2  3  1  7  1        2 -.121722346225D-04 0.100000000000D+01
0.448654492475D-07 0.000000000000D+00 0.000000000000D+00 0.534314863340D-07 0.000000000000D+00  7 2 -2 23 -13 13 23 21 2 0.21557644D+00 0.58802376D-02 0.28555290D+05 0.28555290D+05 0.28555290D+05 0.11693299D+01  1  2 15  1  7  1        2 0.155219002717D-04 0.100000000000D+01
0.563759695753D-05 0.000000000000D+00 0.000000000000D+00 0.534314863340D-07 0.000000000000D+00  7 2 -2 23 -13 13 23 21 2 0.23681237D+00 0.58802376D-02 0.30952594D+05 0.30952594D+05 0.30952594D+05 0.11660784D+01  1  2 12  1  7  1        2 0.164046187826D-02 0.100000000000D+01
-.573307454888D-05 0.000000000000D+00 0.000000000000D+00 0.534314863340D-07 0.000000000000D+00  7 2 -2 23 -13 13 23 21 2 0.21557644D+00 0.58802376D-02 0.28555290D+05 0.28555290D+05 0.28555290D+05 0.11693299D+01  1  2  4  1  7  1        2 -.198344634659D-02 0.100000000000D+01
-.844122168643D-05 0.000000000000D+00 -.875830479149D-06 0.534314863340D-07 0.000000000000D+00  7 2 -2 23 -13 13 23 21 2 0.23675854D+00 0.58802376D-02 0.28555290D+05 0.28555290D+05 0.28555290D+05 0.11693299D+01  1  2  5  1  7  1        2 -.247074717193D-02 0.100000000000D+01
0.848982550692D-05 0.000000000000D+00 0.871997676968D-06 0.534314863340D-07 0.000000000000D+00  7 2 -2 23 -13 13 23 21 2 0.21557644D+00 0.58802376D-02 0.28555290D+05 0.28555290D+05 0.28555290D+05 0.11693299D+01  1  2  6  1  7  1        2 0.293718723545D-02 0.100000000000D+01
0.871283812619D-07 0.000000000000D+00 0.000000000000D+00 0.534314863340D-07 0.000000000000D+00  7 21 -2 23 -13 13 23 -2 2 0.23681237D+00 0.58802376D-02 0.30952594D+05 0.30952594D+05 0.30952594D+05 0.11660784D+01  1  2 12  3  7  1        2 0.952888639555D-05 0.100000000000D+01
-.127049992138D-06 0.000000000000D+00 -.134477132505D-07 0.534314863340D-07 0.000000000000D+00  7 21 -2 23 -13 13 23 -2 2 0.23675854D+00 0.58802376D-02 0.28555290D+05 0.28555290D+05 0.28555290D+05 0.11693299D+01  1  2  5  3  7  1        2 -.140439276529D-04 0.100000000000D+01
  </mgrwgt>
  </event>
  <event>
  8     66 0.55102590E-06 0.30288378E+03 0.75467711E-02 0.93852929E-01
        2 -1    0    0  501    0 0.00000000E+00 0.00000000E+00 0.26686648E+03 0.26686667E+03 0.32000000E+00 0.0000E+00 0.9000E+01
       -2 -1    0    0    0  501 0.00000000E+00 0.00000000E+00 -.53184662E+03 0.53184672E+03 0.32000000E+00 0.0000E+00 0.9000E+01
       25  2    1    2    0    0 0.15441030E+03 0.21442139E+03 0.18454717E+02 0.40034527E+03 0.30019441E+03 0.0000E+00 0.0000E+00
       23  2    1    2    0    0 -.15441030E+03 -.21442139E+03 -.28343486E+03 0.39836813E+03 0.92427107E+02 0.0000E+00 0.0000E+00
       23  1    3    3    0    0 0.77464142E+02 0.14821332E+03 -.10398169E+03 0.21701457E+03 0.91188000E+02 0.0000E+00 0.9000E+01
      -13  1    4    4    0    0 -.16632735E+03 -.19995323E+03 -.25448746E+03 0.36388180E+03 0.10565837E+00 0.0000E+00 0.9000E+01
       13  1    4    4    0    0 0.11917054E+02 -.14468160E+02 -.28947397E+02 0.34486328E+02 0.10565837E+00 0.0000E+00 0.9000E+01
       23  1    3    3    0    0 0.76946155E+02 0.66208074E+02 0.12243641E+03 0.18333070E+03 0.91188000E+02 0.0000E+00 0.9000E+01
#aMCatNLO 1  0  0  2  2 0.36758380D+03 0.00000000D+00  -5  7  0 0.00000000D+00 0.00000000D+00 0.00000000D+00 0.00000000D+00 0.00000000D+00
  <mgrwgt>
 0.2992750874D-03    3    2    0
 0.376738837715524D+03 0.000000000000000D+00 0.000000000000000D+00 0.376738837715524D+03
 0.376738837715524D+03 0.000000000000000D+00 0.000000000000000D+00 -.376738837715524D+03
 0.193475354785961D+03 0.774641422470335D+02 0.148213316889258D+03 -.339054704755641D+02
 0.296230948220292D+03 -.166327583557164D+03 -.199953473338020D+03 -.141797454601941D+03
 0.263762831817489D+02 0.119172865090778D+02 -.144679179712001D+02 -.185570996204414D+02
 0.237395089243046D+03 0.769461548010531D+02 0.662080744199627D+02 0.194260024697947D+03
 0.000000000000000D+00 -.000000000000000D+00 -.000000000000000D+00 0.000000000000000D+00
 0.765948494723182D+03 0.000000000000000D+00 0.000000000000000D+00 0.765948494723182D+03
 0.516591749113107D+03 0.000000000000000D+00 0.000000000000000D+00 -.516591749113107D+03
 0.296723595484252D+03 0.124076311032137D+03 0.251366523000953D+03 -.339054704755641D+02
 0.207296029395799D+03 -.118448075745986D+03 -.939956330035993D+02 -.141797454601941D+03
 0.253097245053264D+02 0.168320194207049D+02 -.359156378664576D+01 -.185570996204414D+02
 0.309030034729932D+03 0.128904773017207D+03 0.181193027787821D+03 0.194260024697947D+03
 0.444180859720981D+03 -.151365027724063D+03 -.334972353998530D+03 0.249356745610075D+03
0.143165515606D-04 0.000000000000D+00 0.000000000000D+00 0.490873052767D-06 0.000000000000D+00  7 2 -2 23 -13 13 23 21 0 0.41056404D-01 0.81822580D-01 0.91738587D+05 0.91738587D+05 0.91738587D+05 0.11248081D+01  1  2  2  2  7  2       -2 0.295286012579D-03 0.100000000000D+01
-.749320408445D-06 0.000000000000D+00 -.549793276273D-07 0.490873052767D-06 0.000000000000D+00  7 2 -2 23 -13 13 23 21 2 0.41056404D-01 0.81822580D-01 0.91738587D+05 0.91738587D+05 0.91738587D+05 0.11248081D+01  1  2  3  2  7  2       -2 -.195536970215D-04 0.100000000000D+01
0.902186395166D-06 0.000000000000D+00 0.000000000000D+00 0.490873052767D-06 0.000000000000D+00  7 2 -2 23 -13 13 23 21 2 0.41056404D-01 0.81822580D-01 0.91738587D+05 0.91738587D+05 0.91738587D+05 0.11248081D+01  1  2 15  2  7  2       -2 0.235427718626D-04 0.100000000000D+01
  </mgrwgt>
  </event>
  <event>
  8     66 0.55102590E-06 0.18006268E+03 0.75467711E-02 0.98080856E-01
        2 -1    0    0  501    0 0.00000000E+00 0.00000000E+00 0.19004821E+04 0.19004821E+04 0.32000000E+00 0.0000E+00 0.9000E+01
       -2 -1    0    0    0  501 0.00000000E+00 0.00000000E+00 -.40207458E+02 0.40208731E+02 0.32000000E+00 0.0000E+00 0.9000E+01
       25  2    1    2    0    0 -.18299785E+01 -.53715255E+02 0.17845043E+04 0.18103107E+04 0.29980118E+03 0.0000E+00 0.0000E+00
       23  2    1    2    0    0 0.18299785E+01 0.53715255E+02 0.75770360E+02 0.13038012E+03 0.91483067E+02 0.0000E+00 0.0000E+00
       23  1    3    3    0    0 0.63142214E+02 0.30682121E+02 0.33856015E+03 0.35758433E+03 0.91188000E+02 0.0000E+00 0.9000E+01
      -13  1    4    4    0    0 0.36908192E+01 -.25414026E+02 0.27710359E+02 0.37780551E+02 0.10565837E+00 0.0000E+00 0.9000E+01
       13  1    4    4    0    0 -.18608407E+01 0.79129281E+02 0.48060001E+02 0.92599572E+02 0.10565837E+00 0.0000E+00 0.9000E+01
       23  1    3    3    0    0 -.64972192E+02 -.84397376E+02 0.14459441E+04 0.14527264E+04 0.91188000E+02 0.0000E+00 0.9000E+01
#aMCatNLO 1  0  0  2  1 0.30110028D+03 0.00000000D+00  -5  7  0 0.00000000D+00 0.00000000D+00 0.00000000D+00 0.00000000D+00 0.00000000D+00
  <mgrwgt>
 0.3246615206D-03    5    2    0
 0.276432297197215D+03 0.000000000000000D+00 0.000000000000000D+00 0.276432297197215D+03
 0.276432297197215D+03 0.000000000000000D+00 0.000000000000000D+00 -.276432297197215D+03
 0.116024416724962D+03 0.631422138003318D+02 0.306821210158820D+02 -.147676070752077D+02
 0.393792618386519D+02 0.369082638706755D+01 -.254141633311423D+02 -.298533811437775D+02
 0.163335530002924D+03 -.186084785941712D+01 0.791294184014293D+02 -.142876057301536D+03
 0.234125385827891D+03 -.649721923279822D+02 -.843973760861689D+02 0.187497045520521D+03
 0.000000000000000D+00 -.000000000000000D+00 -.000000000000000D+00 -.000000000000000D+00
 0.439670487309451D+03 0.000000000000000D+00 0.000000000000000D+00 0.439670487309451D+03
 0.496237246203924D+03 0.000000000000000D+00 0.000000000000000D+00 -.496237246203924D+03
 0.169733350509478D+03 0.121854999385726D+03 0.736711329976011D+02 -.147676070752077D+02
 0.382857205397512D+02 0.196481440201368D+02 -.137303484331696D+02 -.298533811437775D+02
 0.210629632394064D+03 0.749753361880602D+02 0.135388231600513D+03 -.142876057301536D+03
 0.210891316890556D+03 0.264624885259996D+02 -.174496652666997D+02 0.187497045520521D+03
 0.306367713179525D+03 -.242940968119923D+03 -.177879350898245D+03 -.565667588944728D+02
0.189332952704D-05 0.000000000000D+00 0.000000000000D+00 0.357660371252D-06 0.000000000000D+00  7 2 -2 23 -13 13 23 21 0 0.29238196D+00 0.61858627D-02 0.32422570D+05 0.32422570D+05 0.32422570D+05 0.11642196D+01  1  2  2  2  7  2       -2 0.243422837598D-03 0.100000000000D+01
-.816852386920D-07 0.000000000000D+00 -.727088390896D-08 0.357660371252D-06 0.000000000000D+00  7 2 -2 23 -13 13 23 21 2 0.29238196D+00 0.61858627D-02 0.32422570D+05 0.32422570D+05 0.32422570D+05 0.11642196D+01  1  2  3  2  7  2       -2 -.142347068077D-04 0.100000000000D+01
0.116558474663D-06 0.000000000000D+00 0.000000000000D+00 0.357660371252D-06 0.000000000000D+00  7 2 -2 23 -13 13 23 21 2 0.29238196D+00 0.61858627D-02 0.32422570D+05 0.32422570D+05 0.32422570D+05 0.11642196D+01  1  2 15  2  7  2       -2 0.203118181368D-04 0.100000000000D+01
0.828893174252D-06 0.000000000000D+00 -.639770417174D-06 0.357660371252D-06 0.000000000000D+00  7 2 -2 23 -13 13 23 21 2 0.29238196D+00 0.20170311D-01 0.32422570D+05 0.32422570D+05 0.32422570D+05 0.11642196D+01  1  2  5  2  7  2       -2 0.233654298859D-04 0.100000000000D+01
0.139475342856D-06 0.000000000000D+00 -.873824143676D-07 0.357660371252D-06 0.000000000000D+00  7 2 21 23 -13 13 23 2 2 0.29238196D+00 0.20170311D-01 0.32422570D+05 0.32422570D+05 0.32422570D+05 0.11642196D+01  1  2  5  4  7  2       -2 0.517961417615D-04 0.100000000000D+01
  </mgrwgt>
  </event>
  <event>
  8     66 0.55102590E-06 0.36914299E+03 0.75467711E-02 0.87752887E-01
        2 -1    0    0  501    0 0.00000000E+00 0.00000000E+00 0.13861396E+04 0.13861397E+04 0.32000000E+00 0.0000E+00 0.9000E+01
       -2 -1    0    0    0  501 0.00000000E+00 0.00000000E+00 -.29388466E+03 0.29388484E+03 0.32000000E+00 0.0000E+00 0.9000E+01
       25  2    1    2    0    0 -.88525206E+02 0.30364541E+03 -.97270705E+02 0.44584839E+03 0.29880085E+03 0.0000E+00 0.0000E+00
       23  2    1    2    0    0 0.88525206E+02 -.30364541E+03 0.11895257E+04 0.12341761E+04 0.90454964E+02 0.0000E+00 0.0000E+00
       23  1    3    3    0    0 0.48901392E+02 0.17373193E+03 -.11924407E+03 0.23475206E+03 0.91188000E+02 0.0000E+00 0.9000E+01
      -11  1    4    4    0    0 -.85712408E+01 -.14232210E+01 0.69315880E+02 0.69858306E+02 0.51099893E-03 0.0000E+00 0.9000E+01
       11  1    4    4    0    0 0.97096447E+02 -.30222219E+03 0.11202098E+04 0.11643178E+04 0.51099893E-03 0.0000E+00 0.9000E+01
       23  1    3    3    0    0 -.13742660E+03 0.12991348E+03 0.21973361E+02 0.21109633E+03 0.91188000E+02 0.0000E+00 0.9000E+01
#aMCatNLO 1  0  0  1  1 0.83374830D+03 0.00000000D+00  -5  7  0 0.00000000D+00 0.00000000D+00 0.00000000D+00 0.00000000D+00 0.00000000D+00
  <mgrwgt>
 0.6634183508D-03    3    2    0
 0.638251795765977D+03 0.000000000000000D+00 0.000000000000000D+00 0.638251795765977D+03
 0.638251795765977D+03 0.000000000000000D+00 0.000000000000000D+00 -.638251795765977D+03
 0.410993071607825D+03 0.489013923647096D+02 0.173731929740751D+03 -.357807104427766D+03
 0.326305794996393D+02 -.857124083557566D+01 -.142322098672702D+01 0.314525514234344D+02
 0.573854815364572D+03 0.970964468799458D+02 -.302222189065881D+03 0.478062106380148D+03
 0.259025125059917D+03 -.137426598409080D+03 0.129913480311857D+03 -.151707553375816D+03
 0.000000000000000D+00 0.000000000000000D+00 0.000000000000000D+00 -.000000000000000D+00
 0.896766622884523D+03 0.000000000000000D+00 0.000000000000000D+00 0.896766622884523D+03
 0.205503051269150D+04 0.000000000000000D+00 0.000000000000000D+00 -.205503051269150D+04
 0.431100278125583D+03 -.193473266611254D+03 0.109883436348448D+03 -.357807104427766D+03
 0.446245658511017D+02 -.308071242022502D+02 -.728079561192720D+01 0.314525514234344D+02
 0.674373527193729D+03 -.262173601918656D+03 -.396864308145851D+03 0.478062106380148D+03
 0.374564757246358D+03 -.319788959664183D+03 0.818739613836179D+02 -.151707553375816D+03
 0.142713400715925D+04 0.806242952396343D+03 0.212387706025713D+03 -.115826388980698D+04
0.716660848443D-04 0.000000000000D+00 0.000000000000D+00 0.682213402413D-06 0.000000000000D+00  7 2 -2 23 -11 11 23 21 0 0.21325227D+00 0.45213041D-01 0.13626655D+06 0.13626655D+06 0.13626655D+06 0.11108579D+01  1  2  2  1  7  1        2 0.643368129013D-03 0.100000000000D+01
-.253011200398D-05 0.000000000000D+00 -.275216635915D-06 0.682213402413D-06 0.000000000000D+00  7 2 -2 23 -11 11 23 21 2 0.21325227D+00 0.45213041D-01 0.13626655D+06 0.13626655D+06 0.13626655D+06 0.11108579D+01  1  2  3  1  7  1        2 -.280286781521D-04 0.100000000000D+01
0.434001922053D-05 0.000000000000D+00 0.000000000000D+00 0.682213402413D-06 0.000000000000D+00  7 2 -2 23 -11 11 23 21 2 0.21325227D+00 0.45213041D-01 0.13626655D+06 0.13626655D+06 0.13626655D+06 0.11108579D+01  1  2 15  1  7  1        2 0.480788999518D-04 0.100000000000D+01
  </mgrwgt>
  </event>
  <event>
  8     66 0.55102590E-06 0.21550353E+03 0.75467711E-02 0.96813631E-01
        2 -1    0    0  501    0 0.00000000E+00 0.00000000E+00 0.86197507E+03 0.86197513E+03 0.32000000E+00 0.0000E+00 0.9000E+01
       -2 -1    0    0    0  501 0.00000000E+00 0.00000000E+00 -.31315776E+03 0.31315793E+03 0.32000000E+00 0.0000E+00 0.9000E+01
       25  2    1    2    0    0 -.15871047E+03 -.30783519E+02 -.20622147E+03 0.39723446E+03 0.29854863E+03 0.0000E+00 0.0000E+00
       23  2    1    2    0    0 0.15871047E+03 0.30783519E+02 0.75503878E+03 0.77789860E+03 0.94371772E+02 0.0000E+00 0.0000E+00
       23  1    3    3    0    0 -.80637963E+02 0.15152396E+00 -.23969090E+03 0.26882984E+03 0.91188000E+02 0.0000E+00 0.9000E+01
      -11  1    4    4    0    0 0.35859846E+02 -.31360991E+02 0.24602951E+03 0.25059920E+03 0.51099893E-03 0.0000E+00 0.9000E+01
       11  1    4    4    0    0 0.12285063E+03 0.62144511E+02 0.50900927E+03 0.52729940E+03 0.51099893E-03 0.0000E+00 0.9000E+01
       23  1    3    3    0    0 -.78072510E+02 -.30935043E+02 0.33469431E+02 0.12840463E+03 0.91188000E+02 0.0000E+00 0.9000E+01
#aMCatNLO 1  0  0  2  2 0.30824538D+03 0.00000000D+00  -5  7  0 0.00000000D+00 0.00000000D+00 0.00000000D+00 0.00000000D+00 0.00000000D+00
  <mgrwgt>
 0.2518576732D-03    5    2    0
 0.519552034721456D+03 0.000000000000000D+00 0.000000000000000D+00 0.519552034721456D+03
 0.519552034721456D+03 0.000000000000000D+00 0.000000000000000D+00 -.519552034721456D+03
 0.430618411666080D+03 -.806379633889138D+02 0.151523959542534D+00 -.413055033891122D+03
 0.153461193694171D+03 0.358598462313760D+02 -.313609913422464D+02 0.145879736839403D+03
 0.327487751390476D+03 0.122850626783393D+03 0.621445106976497D+02 0.297143081023045D+03
 0.127536712692185D+03 -.780725096258547D+02 -.309350433149458D+02 -.299677839713262D+02
 0.000000000000000D+00 0.000000000000000D+00 0.000000000000000D+00 -.000000000000000D+00
 0.578932550427125D+03 0.000000000000000D+00 0.000000000000000D+00 0.578932550427125D+03
 0.118388036776156D+04 0.000000000000000D+00 0.000000000000000D+00 -.118388036776156D+04
 0.454708264437692D+03 -.110656553473930D+03 -.124839979791787D+03 -.413055033891122D+03
 0.166632734038381D+03 0.250064870537293D+02 -.765522438469565D+02 0.145879736839403D+03
 0.315157660869650D+03 0.101060580553732D+03 -.285849551880832D+02 0.297143081023045D+03
 0.147361332415187D+03 -.873934212779998D+02 -.697454857919370D+02 -.299677839713262D+02
 0.678952926427774D+03 0.719829071444687D+02 0.299722664618764D+03 -.604947817334435D+03
0.174227219228D-04 0.000000000000D+00 0.000000000000D+00 0.359012484906D-07 0.000000000000D+00  7 2 -2 23 -11 11 23 21 0 0.13261157D+00 0.48178134D-01 0.46441772D+05 0.46441772D+05 0.46441772D+05 0.11501262D+01  1  2  2  2  7  2       -2 0.290106280103D-03 0.100000000000D+01
-.565895879618D-07 0.000000000000D+00 -.669078396915D-07 0.359012484906D-07 0.000000000000D+00  7 2 -2 23 -11 11 23 21 2 0.13261157D+00 0.48178134D-01 0.46441772D+05 0.46441772D+05 0.46441772D+05 0.11501262D+01  1  2  3  2  7  2       -2 -.124643217231D-05 0.100000000000D+01
0.107985430502D-05 0.000000000000D+00 0.000000000000D+00 0.359012484906D-07 0.000000000000D+00  7 2 -2 23 -11 11 23 21 2 0.13261157D+00 0.48178134D-01 0.46441772D+05 0.46441772D+05 0.46441772D+05 0.11501262D+01  1  2 15  2  7  2       -2 0.237846783421D-04 0.100000000000D+01
-.115090664854D-04 0.000000000000D+00 -.529121594928D-05 0.359012484906D-07 0.000000000000D+00  7 2 -2 23 -11 11 23 21 2 0.13261157D+00 0.11667151D+00 0.46441772D+05 0.46441772D+05 0.46441772D+05 0.11501262D+01  1  2  5  2  7  2       -2 -.368168863352D-04 0.100000000000D+01
-.783565889120D-06 0.000000000000D+00 -.512665501048D-06 0.359012484906D-07 0.000000000000D+00  7 2 21 23 -11 11 23 2 2 0.13261157D+00 0.11667151D+00 0.46441772D+05 0.46441772D+05 0.46441772D+05 0.11501262D+01  1  2  5  4  7  2       -2 -.239699667313D-04 0.100000000000D+01
  </mgrwgt>
  </event>
  <event>
  8     66 0.55102590E-06 0.19168332E+03 0.75467711E-02 0.10289386E+00
        2 -1    0    0  501    0 0.00000000E+00 0.00000000E+00 0.67519921E+03 0.67519929E+03 0.32000000E+00 0.0000E+00 0.9000E+01
       -2 -1    0    0    0  501 0.00000000E+00 0.00000000E+00 -.10255160E+03 0.10255210E+03 0.32000000E+00 0.0000E+00 0.9000E+01
       25  2    1    2    0    0 0.13144831E+03 -.78705618E+02 0.28921964E+03 0.44318882E+03 0.29882285E+03 0.0000E+00 0.0000E+00
       23  2    1    2    0    0 -.13144831E+03 0.78705618E+02 0.28342796E+03 0.33456257E+03 0.90152473E+02 0.0000E+00 0.0000E+00
       23  1    3    3    0    0 -.61770867E+02 -.17655142E+02 0.12036546E+03 0.16410497E+03 0.91188000E+02 0.0000E+00 0.9000E+01
      -11  1    4    4    0    0 -.36523451E+02 -.12379812E+02 0.29410917E+02 0.48499734E+02 0.51099893E-03 0.0000E+00 0.9000E+01
       11  1    4    4    0    0 -.94924862E+02 0.91085430E+02 0.25401705E+03 0.28606283E+03 0.51099893E-03 0.0000E+00 0.9000E+01
       23  1    3    3    0    0 0.19321918E+03 -.61050476E+02 0.16885418E+03 0.27908385E+03 0.91188000E+02 0.0000E+00 0.9000E+01
#aMCatNLO 1  0  0  2  1 0.79125343D+01 0.00000000D+00  -5  7  0 0.00000000D+00 0.00000000D+00 0.00000000D+00 0.00000000D+00 0.00000000D+00
  <mgrwgt>
 0.8701058507D-04   11    2    0
 0.263140619034892D+03 0.000000000000000D+00 0.000000000000000D+00 0.263140619034892D+03
 0.263140619034892D+03 0.000000000000000D+00 0.000000000000000D+00 -.263140619034892D+03
 0.111548478693740D+03 -.617708671471285D+02 -.176551420907894D+02 -.683874647552503D+00
 0.396720289530926D+02 -.365234505530069D+02 -.123798123602618D+02 -.930847392872678D+01
 0.146354281950211D+03 -.949248618882715D+02 0.910854303952388D+02 0.641271456589830D+02
 0.228706448472741D+03 0.193219179588407D+03 -.610504759441876D+02 -.541347970827037D+02
 0.000000000000000D+00 0.000000000000000D+00 -.000000000000000D+00 -.000000000000000D+00
 0.266930251507214D+03 0.000000000000000D+00 0.000000000000000D+00 0.266930251507214D+03
 0.267333255532654D+03 0.000000000000000D+00 0.000000000000000D+00 -.267333255532654D+03
 0.112233605106333D+03 -.632288166730641D+02 -.168160586569744D+02 -.683874647552503D+00
 0.400596001664579D+02 -.370429054124083D+02 -.120808541594567D+02 -.930847392872678D+01
 0.148290869479423D+03 -.968444872289214D+02 0.921902188627526D+02 0.641271456589830D+02
 0.225756641650666D+03 0.190258333771131D+03 -.593464411808702D+02 -.541347970827037D+02
 0.792279063698709D+01 0.685787554326229D+01 -.394686486545133D+01 -.403004025440426D+00
0.634034633865D-06 0.000000000000D+00 0.000000000000D+00 0.289116217802D-07 0.000000000000D+00  7 2 -2 23 -11 11 23 21 0 0.10387685D+00 0.15777214D-01 0.63472582D+05 0.63472582D+05 0.63472582D+05 0.11382914D+01  1  2  2  2  7  2       -2 0.982460104838D-04 0.100000000000D+01
-.351430803958D-07 0.000000000000D+00 -.243485993920D-08 0.289116217802D-07 0.000000000000D+00  7 2 -2 23 -11 11 23 21 2 0.10387685D+00 0.15777214D-01 0.63472582D+05 0.63472582D+05 0.63472582D+05 0.11382914D+01  1  2  3  2  7  2       -2 -.705583888464D-05 0.100000000000D+01
0.406903241422D-07 0.000000000000D+00 0.000000000000D+00 0.289116217802D-07 0.000000000000D+00  7 2 -2 23 -11 11 23 21 2 0.10387685D+00 0.15777214D-01 0.63472582D+05 0.63472582D+05 0.63472582D+05 0.11382914D+01  1  2 15  2  7  2       -2 0.816958468290D-05 0.100000000000D+01
0.574132145624D-06 0.000000000000D+00 0.000000000000D+00 0.289116217802D-07 0.000000000000D+00  7 2 -2 23 -11 11 23 21 2 0.10387685D+00 0.16140488D-01 0.65532259D+05 0.65532259D+05 0.65532259D+05 0.11371026D+01  1  2 12  2  7  2       -2 0.110929719986D-03 0.100000000000D+01
-.471128631689D-06 0.000000000000D+00 0.000000000000D+00 0.289116217802D-07 0.000000000000D+00  7 2 -2 23 -11 11 23 21 2 0.10387685D+00 0.15777214D-01 0.63472582D+05 0.63472582D+05 0.63472582D+05 0.11382914D+01  1  2  4  2  7  2       -2 -.945906756523D-04 0.100000000000D+01
-.204061956194D-04 0.000000000000D+00 -.279903040605D-05 0.289116217802D-07 0.000000000000D+00  7 2 -2 23 -11 11 23 21 2 0.10387685D+00 0.16256420D-01 0.63472582D+05 0.63472582D+05 0.63472582D+05 0.11382914D+01  1  2  5  2  7  2       -2 -.390539197302D-02 0.100000000000D+01
0.204820291926D-04 0.000000000000D+00 0.279777791864D-05 0.289116217802D-07 0.000000000000D+00  7 2 -2 23 -11 11 23 21 2 0.10387685D+00 0.15777214D-01 0.63472582D+05 0.63472582D+05 0.63472582D+05 0.11382914D+01  1  2  6  2  7  2       -2 0.411227178683D-02 0.100000000000D+01
0.188530937458D-07 0.000000000000D+00 0.000000000000D+00 0.289116217802D-07 0.318554098911D-08  7 2 -2 23 -11 11 23 21 2 0.10537283D+00 0.16028593D-01 0.65532259D+05 0.65532259D+05 0.65532259D+05 0.11371026D+01  1  2 11  2  7  2       -2 0.362179507892D-05 0.100000000000D+01
0.156957156105D-07 0.000000000000D+00 0.000000000000D+00 0.289116217802D-07 0.000000000000D+00  7 2 21 23 -11 11 23 2 2 0.10387685D+00 0.16140488D-01 0.65532259D+05 0.65532259D+05 0.65532259D+05 0.11371026D+01  1  2 12  4  7  2       -2 0.409303917357D-04 0.100000000000D+01
-.108609783046D-06 0.000000000000D+00 -.150216670637D-07 0.289116217802D-07 0.000000000000D+00  7 2 21 23 -11 11 23 2 2 0.10387685D+00 0.16256420D-01 0.63472582D+05 0.63472582D+05 0.63472582D+05 0.11382914D+01  1  2  5  4  7  2       -2 -.280382717462D-03 0.100000000000D+01
0.101111908285D-09 0.000000000000D+00 0.000000000000D+00 0.289116217802D-07 0.918372119998D-11  7 2 21 23 -11 11 23 2 2 0.10537283D+00 0.16028593D-01 0.65532259D+05 0.65532259D+05 0.65532259D+05 0.11371026D+01  1  2 11  4  7  2       -2 0.262501303997D-06 0.100000000000D+01
  </mgrwgt>
  </event>
  <event>
  8     66 0.55102590E-06 0.13171856E+03 0.75467711E-02 0.10169616E+00
        4 -1    0    0  501    0 0.00000000E+00 0.00000000E+00 0.94380639E+03 0.94380766E+03 0.15500000E+01 0.0000E+00 0.9000E+01
       -4 -1    0    0    0  501 0.00000000E+00 0.00000000E+00 -.80374399E+02 0.80389344E+02 0.15500000E+01 0.0000E+00 0.9000E+01
       25  2    1    2    0    0 0.13506051E+03 0.52607844E+02 0.35158719E+03 0.48457138E+03 0.30031141E+03 0.0000E+00 0.0000E+00
       23  2    1    2    0    0 -.13506051E+03 -.52607844E+02 0.51184479E+03 0.53962562E+03 0.90563738E+02 0.0000E+00 0.0000E+00
       23  1    3    3    0    0 0.77514784E+02 0.13166393E+03 0.11212843E+03 0.21031397E+03 0.91188000E+02 0.0000E+00 0.9000E+01
      -13  1    4    4    0    0 -.10403892E+03 -.46124324E+02 0.48475090E+03 0.49793071E+03 0.10565837E+00 0.0000E+00 0.9000E+01
       13  1    4    4    0    0 -.31021590E+02 -.64835204E+01 0.27093899E+02 0.41694911E+02 0.10565837E+00 0.0000E+00 0.9000E+01
       23  1    3    3    0    0 0.57545729E+02 -.79056082E+02 0.23945876E+03 0.27425741E+03 0.91188000E+02 0.0000E+00 0.9000E+01
#aMCatNLO 1  0  0  1  2 0.89727833D+02 0.00000000D+00  -5  7  0 0.00000000D+00 0.00000000D+00 0.00000000D+00 0.00000000D+00 0.00000000D+00
  <mgrwgt>
 0.5235330854D-05    9    2    0
 0.275438153156123D+03 0.000000000000000D+00 0.000000000000000D+00 0.275438153156123D+03
 0.275438153156123D+03 0.000000000000000D+00 0.000000000000000D+00 -.275438153156123D+03
 0.215270955614695D+03 0.775147850335472D+02 0.131663926958233D+03 -.121170959501046D+03
 0.165971580431991D+03 -.104039024411032D+03 -.461243782033072D+02 0.120809720825983D+03
 0.350531782498704D+02 -.310214904570640D+02 -.648346660258137D+01 -.149785545381617D+02
 0.134580592015690D+03 0.575457298345487D+02 -.790560821523440D+02 0.153397932132251D+02
 0.000000000000000D+00 0.000000000000000D+00 -.000000000000000D+00 0.000000000000000D+00
 0.360815534013349D+03 0.000000000000000D+00 0.000000000000000D+00 0.360815534013349D+03
 0.303689791470691D+03 0.000000000000000D+00 0.000000000000000D+00 -.303689791470691D+03
 0.214466813571488D+03 0.452941344864946D+02 0.144730103068513D+03 -.121170959501046D+03
 0.181039486644350D+03 -.130057036161315D+03 -.355735073240210D+02 0.120809720825983D+03
 0.398007445187832D+02 -.366338481797103D+02 -.420753321349908D+01 -.149785545381617D+02
 0.122828950226370D+03 0.382458136932126D+02 -.712295454768015D+02 0.153397932132251D+02
 0.106369330523049D+03 0.831509361613185D+02 -.337195170541915D+02 0.571257425426579D+02
0.128248978148D-05 0.000000000000D+00 0.000000000000D+00 0.265150322867D-06 0.000000000000D+00  7 4 -4 23 -13 13 23 21 0 0.14520223D+00 0.12366540D-01 0.52242083D+05 0.52242083D+05 0.52242083D+05 0.11456235D+01  1  2  2  1  7  1        4 0.398623532173D-05 0.100000000000D+01
-.682349489579D-07 0.000000000000D+00 -.492509844819D-08 0.265150322867D-06 0.000000000000D+00  7 4 -4 23 -13 13 23 21 2 0.14520223D+00 0.12366540D-01 0.52242083D+05 0.52242083D+05 0.52242083D+05 0.11456235D+01  1  2  3  1  7  1        4 -.278355432415D-06 0.100000000000D+01
0.810340754656D-07 0.000000000000D+00 0.000000000000D+00 0.265150322867D-06 0.000000000000D+00  7 4 -4 23 -13 13 23 21 2 0.14520223D+00 0.12366540D-01 0.52242083D+05 0.52242083D+05 0.52242083D+05 0.11456235D+01  1  2 15  1  7  1        4 0.330567772982D-06 0.100000000000D+01
0.961113267266D-06 0.000000000000D+00 0.000000000000D+00 0.265150322867D-06 0.000000000000D+00  7 4 -4 23 -13 13 23 21 2 0.19588435D+00 0.12366540D-01 0.78473020D+05 0.78473020D+05 0.78473020D+05 0.11304652D+01  1  2 12  1  7  1        4 0.138497952188D-05 0.100000000000D+01
-.115817410195D-05 0.000000000000D+00 0.000000000000D+00 0.265150322867D-06 0.000000000000D+00  7 4 -4 23 -13 13 23 21 2 0.14520223D+00 0.12366540D-01 0.52242083D+05 0.52242083D+05 0.52242083D+05 0.11456235D+01  1  2  4  1  7  1        4 -.472461777845D-05 0.100000000000D+01
-.173576687316D-05 0.000000000000D+00 -.574899460871D-06 0.265150322867D-06 0.000000000000D+00  7 4 -4 23 -13 13 23 21 2 0.20097162D+00 0.12366540D-01 0.52242083D+05 0.52242083D+05 0.52242083D+05 0.11456235D+01  1  2  5  1  7  1        4 -.231110747506D-05 0.100000000000D+01
0.185297030735D-05 0.000000000000D+00 0.545812569100D-06 0.265150322867D-06 0.000000000000D+00  7 4 -4 23 -13 13 23 21 2 0.14520223D+00 0.12366540D-01 0.52242083D+05 0.52242083D+05 0.52242083D+05 0.11456235D+01  1  2  6  1  7  1        4 0.755894683048D-05 0.100000000000D+01
0.370981035215D-07 0.000000000000D+00 0.000000000000D+00 0.265150322867D-06 0.000000000000D+00  7 21 -4 23 -13 13 23 -4 2 0.19588435D+00 0.12366540D-01 0.78473020D+05 0.78473020D+05 0.78473020D+05 0.11304652D+01  1  2 12  3  7  1        4 0.154334721635D-05 0.100000000000D+01
-.565189703142D-07 0.000000000000D+00 -.235452905793D-07 0.265150322867D-06 0.000000000000D+00  7 21 -4 23 -13 13 23 -4 2 0.20097162D+00 0.12366540D-01 0.52242083D+05 0.52242083D+05 0.52242083D+05 0.11456235D+01  1  2  5  3  7  1        4 -.225466512386D-05 0.100000000000D+01
  </mgrwgt>
  </event>
  <event>
  8     66 0.55102590E-06 0.49436346E+03 0.75467711E-02 0.83036567E-01
        2 -1    0    0  501    0 0.00000000E+00 0.00000000E+00 0.14382314E+04 0.14382314E+04 0.32000000E+00 0.0000E+00 0.9000E+01
       -2 -1    0    0    0  501 0.00000000E+00 0.00000000E+00 -.42683794E+03 0.42683806E+03 0.32000000E+00 0.0000E+00 0.9000E+01
       25  2    1    2    0    0 0.67189307E+02 0.44648178E+03 0.12384639E+04 0.13515373E+04 0.29832864E+03 0.0000E+00 0.0000E+00
       23  2    1    2    0    0 -.67189307E+02 -.44648178E+03 -.22707047E+03 0.51353212E+03 0.91070605E+02 0.0000E+00 0.0000E+00
       23  1    3    3    0    0 0.10090013E+03 0.82978000E+02 0.46211977E+03 0.48881092E+03 0.91188000E+02 0.0000E+00 0.9000E+01
      -11  1    4    4    0    0 -.89020443E+01 -.18577960E+03 -.13919501E+03 0.23231134E+03 0.51099893E-03 0.0000E+00 0.9000E+01
       11  1    4    4    0    0 -.58287263E+02 -.26070218E+03 -.87875462E+02 0.28122078E+03 0.51099893E-03 0.0000E+00 0.9000E+01
       23  1    3    3    0    0 -.33710824E+02 0.36350378E+03 0.77634411E+03 0.86272641E+03 0.91188000E+02 0.0000E+00 0.9000E+01
#aMCatNLO 1  0  0  2  2 0.14736692D+04 0.00000000D+00  -5  7  0 0.00000000D+00 0.00000000D+00 0.00000000D+00 0.00000000D+00 0.00000000D+00
  <mgrwgt>
 0.3008768257D-03    5    2    0
 0.783512511873467D+03 0.000000000000000D+00 0.000000000000000D+00 0.783512511873467D+03
 0.783512511873467D+03 0.000000000000000D+00 0.000000000000000D+00 -.783512511873467D+03
 0.283519038369072D+03 0.100900131121449D+03 0.829779997859149D+02 0.234524218077635D+03
 0.366336013288718D+03 -.890204434107488D+01 -.185779602411091D+03 -.315608567004761D+03
 0.391425115778145D+03 -.582872629539380D+02 -.260702179193486D+03 -.286095421150078D+03
 0.525744856310999D+03 -.337108238264365D+02 0.363503781818661D+03 0.367179770077203D+03
 0.000000000000000D+00 -.000000000000000D+00 -.000000000000000D+00 -.000000000000000D+00
 0.143595605279734D+04 0.000000000000000D+00 0.000000000000000D+00 0.143595605279734D+04
 0.258199888902584D+04 0.000000000000000D+00 0.000000000000000D+00 -.258199888902584D+04
 0.508043026828060D+03 0.385797315633969D+03 0.214362515728181D+03 0.234524218077635D+03
 0.422114184907169D+03 0.274875124210332D+03 -.549115982593857D+02 -.315608567004761D+03
 0.384873696436281D+03 0.221116406908922D+03 -.131851078119121D+03 -.286095421150078D+03
 0.836077728857660D+03 0.456433205781007D+03 0.589540891248697D+03 0.367179770077203D+03
 0.186684630479402D+04 -.133822205253423D+04 -.617140730598372D+03 -.114604283622850D+04
0.749332242425D-04 0.000000000000D+00 0.000000000000D+00 0.437017657418D-06 0.000000000000D+00  7 2 -2 23 -11 11 23 21 0 0.22126637D+00 0.65667388D-01 0.24439523D+06 0.24439523D+06 0.24439523D+06 0.10912007D+01  1  2  2  2  7  2       -2 0.289296739820D-03 0.100000000000D+01
-.308952891006D-05 0.000000000000D+00 -.287763311462D-06 0.437017657418D-06 0.000000000000D+00  7 2 -2 23 -11 11 23 21 2 0.22126637D+00 0.65667388D-01 0.24439523D+06 0.24439523D+06 0.24439523D+06 0.10912007D+01  1  2  3  2  7  2       -2 -.142026912329D-04 0.100000000000D+01
0.453208103781D-05 0.000000000000D+00 0.000000000000D+00 0.437017657418D-06 0.000000000000D+00  7 2 -2 23 -11 11 23 21 2 0.22126637D+00 0.65667388D-01 0.24439523D+06 0.24439523D+06 0.24439523D+06 0.10912007D+01  1  2 15  2  7  2       -2 0.208341625848D-04 0.100000000000D+01
0.507436332989D-04 0.000000000000D+00 -.297844760170D-04 0.437017657418D-06 0.000000000000D+00  7 2 -2 23 -11 11 23 21 2 0.22126637D+00 0.32365898D+00 0.24439523D+06 0.24439523D+06 0.24439523D+06 0.10912007D+01  1  2  5  2  7  2       -2 0.215720939123D-05 0.100000000000D+01
0.909157768427D-05 0.000000000000D+00 -.578519858739D-05 0.437017657418D-06 0.000000000000D+00  7 2 21 23 -11 11 23 2 2 0.22126637D+00 0.32365898D+00 0.24439523D+06 0.24439523D+06 0.24439523D+06 0.10912007D+01  1  2  5  4  7  2       -2 0.279140508667D-05 0.100000000000D+01
  </mgrwgt>
  </event>
  <event>
  9     66 0.55102590E-06 0.24644362E+03 0.75467711E-02 0.94791082E-01
        2 -1    0    0  501    0 0.00000000E+00 0.00000000E+00 0.96296427E+03 0.96296432E+03 0.32000000E+00 0.0000E+00 0.9000E+01
       21 -1    0    0  502  501 0.00000000E+00 0.00000000E+00 -.43413611E+03 0.43413676E+03 0.75000000E+00 0.0000E+00 0.9000E+01
       25  2    1    2    0    0 -.11365510E+03 -.25679161E+02 0.11185647E+03 0.34283104E+03 0.30239767E+03 0.0000E+00 0.0000E+00
       23  2    1    2    0    0 -.15386011E+03 0.28096532E+03 0.56487054E+03 0.65601186E+03 0.93050475E+02 0.0000E+00 0.0000E+00
       23  1    3    3    0    0 0.41710509E+02 0.14227420E+02 0.12136191E+03 0.15807008E+03 0.91188000E+02 0.0000E+00 0.9000E+01
      -11  1    4    4    0    0 0.64961586E+01 0.40015618E+02 0.10599416E+03 0.11348221E+03 0.51099893E-03 0.0000E+00 0.9000E+01
       11  1    4    4    0    0 -.16035626E+03 0.24094970E+03 0.45887637E+03 0.54252965E+03 0.51099893E-03 0.0000E+00 0.9000E+01
       23  1    3    3    0    0 -.15536560E+03 -.39906580E+02 -.95054450E+01 0.18476096E+03 0.91188000E+02 0.0000E+00 0.9000E+01
        2  1    1    2  502    0 0.26751520E+03 -.25528616E+03 -.14789885E+03 0.39825818E+03 0.32000000E+00 0.0000E+00 0.9000E+01
#aMCatNLO 2  0  0  2  1 0.36977751D+03 0.00000000D+00  -5  7  0 0.00000000D+00 0.00000000D+00 0.00000000D+00 0.00000000D+00 0.00000000D+00
  <mgrwgt>
 0.7155915758D-04    1    2    0
 0.317408368554483D+03 0.000000000000000D+00 0.000000000000000D+00 0.317408368554483D+03
 0.317408368554483D+03 0.000000000000000D+00 0.000000000000000D+00 -.317408368554483D+03
 0.131194442962893D+03 0.874817120269482D+02 -.294514237710142D+02 0.193983045402955D+02
 0.522106214844737D+02 0.277619485522125D+02 0.197219602101269D+02 0.395760975065691D+02
 0.199993132540960D+03 -.597704605983022D+02 0.144962022785117D+03 0.124140070297467D+03
 0.251418540120640D+03 -.554731999808586D+02 -.135232559224229D+03 -.183114472344331D+03
 0.000000000000000D+00 0.000000000000000D+00 -.000000000000000D+00 -.000000000000000D+00
 0.422216398152512D+03 0.000000000000000D+00 0.000000000000000D+00 0.422216398152512D+03
 0.990150982365619D+03 0.000000000000000D+00 0.000000000000000D+00 -.990150982365619D+03
 0.103119986468473D+03 0.417105091618496D+02 0.142274197126284D+02 0.193983045402955D+02
 0.566543663470352D+02 0.649615858343024D+01 0.400156176510314D+02 0.395760975065691D+02
 0.314931179174687D+03 -.160356263994639D+03 0.240949702553418D+03 0.124140070297467D+03
 0.259956087906005D+03 -.155365604798924D+03 -.399065803961761D+02 -.183114472344331D+03
 0.677705760621931D+03 0.267515201048283D+03 -.255286159520901D+03 -.567934584213108D+03
0.856786417825D-06 0.000000000000D+00 0.000000000000D+00 0.166443807447D-07 0.357637693904D-12  7 2 21 23 -11 11 23 2 2 0.14814839D+00 0.66790219D-01 0.24282439D+06 0.24282439D+06 0.24282439D+06 0.10914119D+01  1  2  1  4  7  2       -2 0.715591575753D-04 0.100000000000D+01
  </mgrwgt>
  </event>
  <event>
  8     66 0.55102590E-06 0.33672656E+03 0.75467711E-02 0.98179934E-01
        2 -1    0    0  501    0 0.00000000E+00 0.00000000E+00 0.14543449E+04 0.14543450E+04 0.32000000E+00 0.0000E+00 0.9000E+01
       -2 -1    0    0    0  501 0.00000000E+00 0.00000000E+00 -.13525498E+03 0.13525536E+03 0.32000000E+00 0.0000E+00 0.9000E+01
       25  2    1    2    0    0 0.11248817E+03 -.27917811E+03 0.29224652E+03 0.51548880E+03 0.29954410E+03 0.0000E+00 0.0000E+00
       23  2    1    2    0    0 -.11248817E+03 0.27917811E+03 0.10268434E+04 0.10741115E+04 0.93349582E+02 0.0000E+00 0.0000E+00
       23  1    3    3    0    0 0.34112206E+02 -.28579416E+03 0.18404362E+03 0.35359475E+03 0.91188000E+02 0.0000E+00 0.9000E+01
      -11  1    4    4    0    0 -.58220398E+02 0.42574714E+02 0.25395207E+03 0.26399597E+03 0.51099893E-03 0.0000E+00 0.9000E+01
       11  1    4    4    0    0 -.54267767E+02 0.23660340E+03 0.77289136E+03 0.81011555E+03 0.51099893E-03 0.0000E+00 0.9000E+01
       23  1    3    3    0    0 0.78375960E+02 0.66160461E+01 0.10820290E+03 0.16189404E+03 0.91188000E+02 0.0000E+00 0.9000E+01
#aMCatNLO 1  0  0  1  1 0.22258786D+01 0.00000000D+00  -5  7  0 0.00000000D+00 0.00000000D+00 0.00000000D+00 0.00000000D+00 0.00000000D+00
  <mgrwgt>
 0.3486610096D-03   10    2    0
 0.443517449630697D+03 0.000000000000000D+00 0.000000000000000D+00 0.443517449630697D+03
 0.443517449630697D+03 0.000000000000000D+00 0.000000000000000D+00 -.443517449630697D+03
 0.359968076137365D+03 0.341122056925600D+02 -.285794159884142D+03 -.196009744892803D+03
 0.954443453760958D+02 -.582203980673842D+02 0.425747138039836D+02 0.625092157818002D+02
 0.302408315619566D+03 -.542677674521941D+02 0.236603399939625D+03 0.180345861911572D+03
 0.129214162128368D+03 0.783759598270184D+02 0.661604614053424D+01 -.468453328005687D+02
 0.000000000000000D+00 0.000000000000000D+00 0.000000000000000D+00 0.000000000000000D+00
 0.444840175242342D+03 0.000000000000000D+00 0.000000000000000D+00 0.444840175242342D+03
 0.444456261026071D+03 0.000000000000000D+00 0.000000000000000D+00 -.444456261026071D+03
 0.360521887543833D+03 0.336163382762011D+02 -.286549998712487D+03 -.196009744892803D+03
 0.954354576023937D+02 -.583517684951615D+02 0.423744690068171D+02 0.625092157818002D+02
 0.301987541771446D+03 -.546837346791784D+02 0.235969351056594D+03 0.180345861911572D+03
 0.129092805090498D+03 0.781981835706943D+02 0.634506605018241D+01 -.468453328005687D+02
 0.225874426024344D+01 0.122098132744455D+01 0.186111259889316D+01 0.383914216271796D+00
0.318050086083D-05 0.000000000000D+00 0.000000000000D+00 0.161707391533D-06 0.000000000000D+00  7 2 -2 23 -11 11 23 21 0 0.22374540D+00 0.20808491D-01 0.13587315D+06 0.13587315D+06 0.13587315D+06 0.11109579D+01  1  2  2  1  7  1        2 0.104109442028D-03 0.100000000000D+01
-.169341881992D-06 0.000000000000D+00 -.122139607507D-07 0.161707391533D-06 0.000000000000D+00  7 2 -2 23 -11 11 23 21 2 0.22374540D+00 0.20808491D-01 0.13587315D+06 0.13587315D+06 0.13587315D+06 0.11109579D+01  1  2  3  1  7  1        2 -.684154496273D-05 0.100000000000D+01
0.204398305657D-06 0.000000000000D+00 0.000000000000D+00 0.161707391533D-06 0.000000000000D+00  7 2 -2 23 -11 11 23 21 2 0.22374540D+00 0.20808491D-01 0.13587315D+06 0.13587315D+06 0.13587315D+06 0.11109579D+01  1  2 15  1  7  1        2 0.825785199744D-05 0.100000000000D+01
-.103681944720D-03 0.000000000000D+00 0.000000000000D+00 0.161707391533D-06 0.000000000000D+00  7 2 -2 23 -11 11 23 21 2 0.22374540D+00 0.20808491D-01 0.13587315D+06 0.13587315D+06 0.13587315D+06 0.11109579D+01  1  2  4  1  7  1        2 -.418883195512D-02 0.100000000000D+01
-.892951198185D-03 0.000000000000D+00 -.806734671020D-04 0.161707391533D-06 0.000000000000D+00  7 2 -2 23 -11 11 23 21 2 0.22469547D+00 0.20808491D-01 0.13587315D+06 0.13587315D+06 0.13587315D+06 0.11109579D+01  1  2  5  1  7  1        2 -.357974170109D-01 0.100000000000D+01
0.893285733840D-03 0.000000000000D+00 0.806727429036D-04 0.161707391533D-06 0.000000000000D+00  7 2 -2 23 -11 11 23 21 2 0.22374540D+00 0.20808491D-01 0.13587315D+06 0.13587315D+06 0.13587315D+06 0.11109579D+01  1  2  6  1  7  1        2 0.360894448600D-01 0.100000000000D+01
0.103683097353D-03 0.000000000000D+00 0.000000000000D+00 0.161707391533D-06 0.214764791135D-06  7 2 -2 23 -11 11 23 21 2 0.22441269D+00 0.20852537D-01 0.13669254D+06 0.13669254D+06 0.13669254D+06 0.11107499D+01  1  2 11  1  7  1        2 0.414930834907D-02 0.100000000000D+01
0.222820753284D-09 0.000000000000D+00 0.000000000000D+00 0.161707391533D-06 0.000000000000D+00  7 21 -2 23 -11 11 23 -2 2 0.22464889D+00 0.20808491D-01 0.13669254D+06 0.13669254D+06 0.13669254D+06 0.11107499D+01  1  2 12  3  7  1        2 0.341039519534D-08 0.100000000000D+01
-.704401113067D-06 0.000000000000D+00 -.636877652913D-07 0.161707391533D-06 0.000000000000D+00  7 21 -2 23 -11 11 23 -2 2 0.22469547D+00 0.20808491D-01 0.13587315D+06 0.13587315D+06 0.13587315D+06 0.11109579D+01  1  2  5  3  7  1        2 -.107820784091D-04 0.100000000000D+01
0.920763863263D-07 0.000000000000D+00 0.000000000000D+00 0.161707391533D-06 0.119326203072D-09  7 21 -2 23 -11 11 23 -2 2 0.22441269D+00 0.20852537D-01 0.13669254D+06 0.13669254D+06 0.13669254D+06 0.11107499D+01  1  2 11  3  7  1        2 0.140968551298D-05 0.100000000000D+01
  </mgrwgt>
  </event>
  <event>
  8     66 0.55102590E-06 0.41255541E+03 0.75467711E-02 0.92342955E-01
        2 -1    0    0  501    0 0.00000000E+00 0.00000000E+00 0.12339759E+04 0.12339759E+04 0.32000000E+00 0.0000E+00 0.9000E+01
       -2 -1    0    0    0  501 0.00000000E+00 0.00000000E+00 -.15574712E+03 0.15574745E+03 0.32000000E+00 0.0000E+00 0.9000E+01
       25  2    1    2    0    0 -.13150444E+03 0.33370181E+03 0.80052329E+03 0.92710763E+03 0.30006783E+03 0.0000E+00 0.0000E+00
       23  2    1    2    0    0 0.13150444E+03 -.33370181E+03 0.27770546E+03 0.46261573E+03 0.90789182E+02 0.0000E+00 0.0000E+00
       23  1    3    3    0    0 -.17675317E+02 0.30304533E+03 0.57974987E+03 0.66073751E+03 0.91188000E+02 0.0000E+00 0.9000E+01
      -11  1    4    4    0    0 0.37844447E+02 -.75615568E+02 0.21871059E+02 0.87339908E+02 0.51099893E-03 0.0000E+00 0.9000E+01
       11  1    4    4    0    0 0.93659998E+02 -.25808625E+03 0.25583440E+03 0.37527582E+03 0.51099893E-03 0.0000E+00 0.9000E+01
       23  1    3    3    0    0 -.11382913E+03 0.30656487E+02 0.22077342E+03 0.26637013E+03 0.91188000E+02 0.0000E+00 0.9000E+01
#aMCatNLO 1  0  0  2  2 0.33807073D+03 0.00000000D+00  -5  7  0 0.00000000D+00 0.00000000D+00 0.00000000D+00 0.00000000D+00 0.00000000D+00
  <mgrwgt>
 0.2357474994D-03    5    2    0
 0.438393031211141D+03 0.000000000000000D+00 0.000000000000000D+00 0.438393031211141D+03
 0.438393031211141D+03 0.000000000000000D+00 0.000000000000000D+00 -.438393031211141D+03
 0.334333978247372D+03 -.176753172801482D+02 0.303045326406394D+03 0.106372322382292D+03
 0.111539530979324D+03 0.378444466611975D+02 -.756155684864875D+02 -.727402957820532D+02
 0.280206985048613D+03 0.936599982934931D+02 -.258086245025135D+03 -.559932970856561D+02
 0.150705568146974D+03 -.113829127674542D+03 0.306564871052279D+02 0.223612704854174D+02
 0.000000000000000D+00 -.000000000000000D+00 0.000000000000000D+00 -.000000000000000D+00
 0.601659750888340D+03 0.000000000000000D+00 0.000000000000000D+00 0.601659750888340D+03
 0.686630914228933D+03 0.000000000000000D+00 0.000000000000000D+00 -.686630914228933D+03
 0.244968005719331D+03 0.152120662729925D+02 0.200368646631179D+03 0.106372322382292D+03
 0.151761079752318D+03 0.527922086481570D+02 -.122283512393038D+03 -.727402957820532D+02
 0.406100851118275D+03 0.132622179795091D+03 -.379728862988927D+03 -.559932970856561D+02
 0.136875133098840D+03 -.975029677681129D+02 -.203149101773431D+02 0.223612704854174D+02
 0.348585595428509D+03 -.103123486948128D+03 0.321958638928129D+03 -.849711633405933D+02
0.724853688379D-05 0.000000000000D+00 0.000000000000D+00 0.120874263579D-05 0.000000000000D+00  7 2 -2 23 -11 11 23 21 0 0.18984247D+00 0.23961124D-01 0.17020196D+06 0.17020196D+06 0.17020196D+06 0.11032475D+01  1  2  2  2  7  2       -2 0.246696381600D-03 0.100000000000D+01
-.400889797692D-06 0.000000000000D+00 -.278362902173D-07 0.120874263579D-05 0.000000000000D+00  7 2 -2 23 -11 11 23 21 2 0.18984247D+00 0.23961124D-01 0.17020196D+06 0.17020196D+06 0.17020196D+06 0.11032475D+01  1  2  3  2  7  2       -2 -.166066991339D-04 0.100000000000D+01
0.452222084642D-06 0.000000000000D+00 0.000000000000D+00 0.120874263579D-05 0.000000000000D+00  7 2 -2 23 -11 11 23 21 2 0.18984247D+00 0.23961124D-01 0.17020196D+06 0.17020196D+06 0.17020196D+06 0.11032475D+01  1  2 15  2  7  2       -2 0.187331185393D-04 0.100000000000D+01
-.148876412178D-05 0.000000000000D+00 -.228491739772D-05 0.120874263579D-05 0.000000000000D+00  7 2 -2 23 -11 11 23 21 2 0.18984247D+00 0.51597775D-01 0.17020196D+06 0.17020196D+06 0.17020196D+06 0.11032475D+01  1  2  5  2  7  2       -2 -.151598258301D-04 0.100000000000D+01
0.194175203288D-07 0.000000000000D+00 -.189720955177D-06 0.120874263579D-05 0.000000000000D+00  7 2 21 23 -11 11 23 2 2 0.18984247D+00 0.51597775D-01 0.17020196D+06 0.17020196D+06 0.17020196D+06 0.11032475D+01  1  2  5  4  7  2       -2 0.208452422168D-05 0.100000000000D+01
  </mgrwgt>
  </event>
  <event>
  9     66 0.55102590E-06 0.22486679E+03 0.75467711E-02 0.96215467E-01
        2 -1    0    0  501    0 0.00000000E+00 0.00000000E+00 0.59603856E+03 0.59603865E+03 0.32000000E+00 0.0000E+00 0.9000E+01
       21 -1    0    0  502  501 0.00000000E+00 0.00000000E+00 -.62934734E+03 0.62934778E+03 0.75000000E+00 0.0000E+00 0.9000E+01
       25  2    1    2    0    0 -.16877107E+03 -.30875177E+02 0.40463901E+03 0.53193036E+03 0.29963348E+03 0.0000E+00 0.0000E+00
       23  2    1    2    0    0 -.83614384E+02 0.20118817E+03 -.18564724E+03 0.29803149E+03 0.83004981E+02 0.0000E+00 0.0000E+00
       23  1    3    3    0    0 -.13786953E+03 0.91960885E+02 0.21724285E+03 0.28805298E+03 0.91188000E+02 0.0000E+00 0.9000E+01
      -11  1    4    4    0    0 -.73036507E+02 0.12619086E+03 -.16361232E+03 0.21915167E+03 0.51099893E-03 0.0000E+00 0.9000E+01
       11  1    4    4    0    0 -.10577877E+02 0.74997308E+02 -.22034921E+02 0.78879816E+02 0.51099893E-03 0.0000E+00 0.9000E+01
       23  1    3    3    0    0 -.30901543E+02 -.12283606E+03 0.18739616E+03 0.24387738E+03 0.91188000E+02 0.0000E+00 0.9000E+01
        2  1    1    2  502    0 0.25238545E+03 -.17031299E+03 -.25230055E+03 0.39542458E+03 0.32000000E+00 0.0000E+00 0.9000E+01
#aMCatNLO 2  0  0  2  2 0.30447485D+03 0.00000000D+00  -5  7  0 0.00000000D+00 0.00000000D+00 0.00000000D+00 0.00000000D+00 0.00000000D+00
  <mgrwgt>
 0.1935652166D-04    1    2    0
 0.370193983680093D+03 0.000000000000000D+00 0.000000000000000D+00 0.370193983680093D+03
 0.370193983680093D+03 0.000000000000000D+00 0.000000000000000D+00 -.370193983680093D+03
 0.190494979926708D+03 -.674896198349549D+02 0.444676075173791D+02 0.146427009562753D+03
 0.240133542756891D+03 0.108377170552914D+02 0.695914398003503D+02 -.229572850643362D+03
 0.740827632589656D+02 0.159373252458635D+02 0.571045048912499D+02 -.444222128806831D+02
 0.235676681417621D+03 0.407145775338000D+02 -.171163552208979D+03 0.127568053961292D+03
 0.000000000000000D+00 0.000000000000000D+00 -.000000000000000D+00 -.000000000000000D+00
 0.454889940567051D+03 0.000000000000000D+00 0.000000000000000D+00 0.454889940567051D+03
 0.824629195960579D+03 0.000000000000000D+00 0.000000000000000D+00 -.824629195960579D+03
 0.239208970414754D+03 -.137869527626563D+03 0.919608851926992D+02 0.146427009562753D+03
 0.271959845780220D+03 -.730365071339301D+02 0.126190857790718D+03 -.229572850643362D+03
 0.878055847236506D+02 -.105778766611665D+02 0.749973081969387D+02 -.444222128806831D+02
 0.201574956839636D+03 -.309015431879692D+02 -.122836061960778D+03 0.127568053961292D+03
 0.478969778769369D+03 0.252385454609629D+03 -.170312989219578D+03 -.369739255393529D+03
0.302059829088D-06 0.000000000000D+00 0.000000000000D+00 0.179984682692D-07 0.138057195736D-12  7 2 21 23 -11 11 23 2 2 0.91698271D-01 0.96822698D-01 0.18976770D+06 0.18976770D+06 0.18976770D+06 0.10995814D+01  1  2  1  4  7  2       -2 0.193565216589D-04 0.100000000000D+01
  </mgrwgt>
  </event>
  <event>
  8     66 0.55102590E-06 0.21965583E+03 0.75467711E-02 0.91953285E-01
        2 -1    0    0  501    0 0.00000000E+00 0.00000000E+00 0.79644062E+03 0.79644068E+03 0.32000000E+00 0.0000E+00 0.9000E+01
       -2 -1    0    0    0  501 0.00000000E+00 0.00000000E+00 -.13647853E+03 0.13647890E+03 0.32000000E+00 0.0000E+00 0.9000E+01
       25  2    1    2    0    0 -.55595723E+02 -.70253103E+02 0.62409337E+02 0.31904200E+03 0.29977741E+03 0.0000E+00 0.0000E+00
       23  2    1    2    0    0 0.55595723E+02 0.70253103E+02 0.59755276E+03 0.61387758E+03 0.10839745E+03 0.0000E+00 0.0000E+00
       23  1    3    3    0    0 -.13982668E+03 -.14564967E+01 0.59051044E+02 0.17707597E+03 0.91188000E+02 0.0000E+00 0.9000E+01
      -11  1    4    4    0    0 0.76733498E+02 0.76552000E+02 0.55943579E+03 0.56983914E+03 0.51099893E-03 0.0000E+00 0.9000E+01
       11  1    4    4    0    0 -.21137775E+02 -.62988977E+01 0.38116965E+02 0.44038445E+02 0.51099893E-03 0.0000E+00 0.9000E+01
       23  1    3    3    0    0 0.84230953E+02 -.68796606E+02 0.33582933E+01 0.14196604E+03 0.91188000E+02 0.0000E+00 0.9000E+01
#aMCatNLO 1  0  0  1  1 0.59681882D+03 0.00000000D+00  -5  7  0 0.00000000D+00 0.00000000D+00 0.00000000D+00 0.00000000D+00 0.00000000D+00
  <mgrwgt>
 0.2222229534D-03    5    2    0
 0.329692657048177D+03 0.000000000000000D+00 0.000000000000000D+00 0.329692657048177D+03
 0.329692657048177D+03 0.000000000000000D+00 0.000000000000000D+00 -.329692657048177D+03
 0.191430086419021D+03 -.139826676889422D+03 -.145649684293341D+01 -.936835401199236D+02
 0.246301629933101D+03 0.767334974526241D+02 0.765520002401409D+02 0.221170193596750D+03
 0.241567037204356D+02 -.211377738528212D+02 -.629889738309943D+01 0.985214407837598D+01
 0.197496894023798D+03 0.842309532896195D+02 -.687966060141081D+02 -.137338797555202D+03
 0.000000000000000D+00 0.000000000000000D+00 0.000000000000000D+00 0.000000000000000D+00
 0.203127606101486D+04 0.000000000000000D+00 0.000000000000000D+00 0.203127606101486D+04
 0.500811259307452D+03 0.000000000000000D+00 0.000000000000000D+00 -.500811259307452D+03
 0.357413884029804D+03 -.304244069402029D+03 -.134493024717130D+03 -.936835401199236D+02
 0.234633533909308D+03 -.673404285885564D+02 -.400238351067972D+02 0.221170193596750D+03
 0.510415776157268D+02 -.436649509822528D+02 -.245265154124804D+02 0.985214407837598D+01
 0.246282521132106D+03 -.487122112878012D+02 -.176366107936673D+03 -.137338797555202D+03
 0.164271580363536D+04 0.463961660260639D+03 0.375409483173081D+03 0.153046480170741D+04
0.272162822227D-05 0.000000000000D+00 0.000000000000D+00 0.456539591012D-08 0.000000000000D+00  7 2 -2 23 -11 11 23 21 0 0.12252936D+00 0.20996730D-01 0.48248683D+05 0.48248683D+05 0.48248683D+05 0.11486599D+01  1  2  2  1  7  1        2 0.217325361525D-03 0.100000000000D+01
-.120883495892D-06 0.000000000000D+00 -.104517689947D-07 0.456539591012D-08 0.000000000000D+00  7 2 -2 23 -11 11 23 21 2 0.12252936D+00 0.20996730D-01 0.48248683D+05 0.48248683D+05 0.48248683D+05 0.11486599D+01  1  2  3  1  7  1        2 -.127359556796D-04 0.100000000000D+01
0.167686005881D-06 0.000000000000D+00 0.000000000000D+00 0.456539591012D-08 0.000000000000D+00  7 2 -2 23 -11 11 23 21 2 0.12252936D+00 0.20996730D-01 0.48248683D+05 0.48248683D+05 0.48248683D+05 0.11486599D+01  1  2 15  1  7  1        2 0.176669405796D-04 0.100000000000D+01
-.347618946738D-06 0.000000000000D+00 -.127979123035D-05 0.456539591012D-08 0.000000000000D+00  7 2 -2 23 -11 11 23 21 2 0.78249104D+00 0.20996730D-01 0.48248683D+05 0.48248683D+05 0.48248683D+05 0.11486599D+01  1  2  5  1  7  1        2 -.332859072404D-07 0.100000000000D+01
-.176468511429D-06 0.000000000000D+00 -.290727371328D-06 0.456539591012D-08 0.000000000000D+00  7 21 -2 23 -11 11 23 -2 2 0.78249104D+00 0.20996730D-01 0.48248683D+05 0.48248683D+05 0.48248683D+05 0.11486599D+01  1  2  5  3  7  1        2 -.107165884142D-09 0.100000000000D+01
  </mgrwgt>
  </event>
  <event>
  8     66 0.55102590E-06 0.31735938E+03 0.75467711E-02 0.97045333E-01
        2 -1    0    0  501    0 0.00000000E+00 0.00000000E+00 0.89058423E+03 0.89058428E+03 0.32000000E+00 0.0000E+00 0.9000E+01
       -2 -1    0    0    0  501 0.00000000E+00 0.00000000E+00 -.14341504E+03 0.14341540E+03 0.32000000E+00 0.0000E+00 0.9000E+01
       25  2    1    2    0    0 0.19145507E+03 0.18269785E+03 0.27597899E+03 0.48608051E+03 0.30012716E+03 0.0000E+00 0.0000E+00
       23  2    1    2    0    0 -.19145507E+03 -.18269785E+03 0.47119020E+03 0.54791917E+03 0.90341937E+02 0.0000E+00 0.0000E+00
       23  1    3    3    0    0 0.91319161E+02 0.83613557E+00 0.20532615E+00 0.12905496E+03 0.91188000E+02 0.0000E+00 0.9000E+01
      -13  1    4    4    0    0 -.11886146E+02 0.99877225E+01 0.18203259E+02 0.23924984E+02 0.10565837E+00 0.0000E+00 0.9000E+01
       13  1    4    4    0    0 -.17956893E+03 -.19268557E+03 0.45298694E+03 0.52399419E+03 0.10565837E+00 0.0000E+00 0.9000E+01
       23  1    3    3    0    0 0.10013591E+03 0.18186172E+03 0.27577366E+03 0.35702556E+03 0.91188000E+02 0.0000E+00 0.9000E+01
#aMCatNLO 1  0  0  2  1 0.15381923D+03 0.00000000D+00  -5  7  0 0.00000000D+00 0.00000000D+00 0.00000000D+00 0.00000000D+00 0.00000000D+00
  <mgrwgt>
 0.4998200221D-03    3    2    0
 0.357384092484317D+03 0.000000000000000D+00 0.000000000000000D+00 0.357384092484317D+03
 0.357384092484317D+03 0.000000000000000D+00 0.000000000000000D+00 -.357384092484317D+03
 0.186479160363184D+03 0.913191611865964D+02 0.836135608914532D+00 -.134608088847506D+03
 0.155816234929698D+02 -.118859161891277D+02 0.998799955819564D+01 0.132357540290832D+01
 0.284500920111677D+03 -.179569158771683D+03 -.192685851350315D+03 0.107553956002672D+03
 0.228206481000803D+03 0.100135913774215D+03 0.181861716183205D+03 0.257305574419260D+02
 0.000000000000000D+00 -.000000000000000D+00 0.000000000000000D+00 0.000000000000000D+00
 0.966386925763144D+03 0.000000000000000D+00 0.000000000000000D+00 0.966386925763144D+03
 0.375410980038702D+03 0.000000000000000D+00 0.000000000000000D+00 -.375410980038702D+03
 0.202720074801812D+03 0.116840452762627D+03 -.317670961640900D+02 -.134608088847506D+03
 0.126691466960493D+02 -.100334044725111D+02 0.762143167979783D+01 0.132357540290832D+01
 0.299846702999278D+03 -.141251236423114D+03 -.241636669519868D+03 0.107553956002672D+03
 0.215896014727406D+03 0.129257423425480D+03 0.144659236602128D+03 0.257305574419260D+02
 0.610665966577300D+03 -.948132352924813D+02 0.121123097402032D+03 0.590975945724442D+03
0.779539149466D-05 0.000000000000D+00 0.000000000000D+00 0.589832670962D-06 0.000000000000D+00  7 2 -2 23 -13 13 23 21 0 0.13701299D+00 0.22063885D-01 0.10071698D+06 0.10071698D+06 0.10071698D+06 0.11214675D+01  1  2  2  2  7  2       -2 0.494230620420D-03 0.100000000000D+01
-.425648717023D-06 0.000000000000D+00 -.299363559132D-07 0.589832670962D-06 0.000000000000D+00  7 2 -2 23 -13 13 23 21 2 0.13701299D+00 0.22063885D-01 0.10071698D+06 0.10071698D+06 0.10071698D+06 0.11214675D+01  1  2  3  2  7  2       -2 -.339403603316D-04 0.100000000000D+01
0.495745840972D-06 0.000000000000D+00 0.000000000000D+00 0.589832670962D-06 0.000000000000D+00  7 2 -2 23 -13 13 23 21 2 0.13701299D+00 0.22063885D-01 0.10071698D+06 0.10071698D+06 0.10071698D+06 0.11214675D+01  1  2 15  2  7  2       -2 0.395297619905D-04 0.100000000000D+01
  </mgrwgt>
  </event>
  <event>
  8     66 0.55102590E-06 0.25522335E+03 0.75467711E-02 0.95733701E-01
        2 -1    0    0  501    0 0.00000000E+00 0.00000000E+00 0.32835229E+04 0.32835229E+04 0.32000000E+00 0.0000E+00 0.9000E+01
       -2 -1    0    0    0  501 0.00000000E+00 0.00000000E+00 -.27873218E+02 0.27875055E+02 0.32000000E+00 0.0000E+00 0.9000E+01
       25  2    1    2    0    0 0.19516921E+03 0.21786986E+02 0.15263710E+04 0.15686450E+04 0.30376458E+03 0.0000E+00 0.0000E+00
       23  2    1    2    0    0 -.19516921E+03 -.21786986E+02 0.17292786E+04 0.17427530E+04 0.90650774E+02 0.0000E+00 0.0000E+00
       23  1    3    3    0    0 0.13341540E+03 0.72860974E+02 0.12976655E+04 0.13097173E+04 0.91188000E+02 0.0000E+00 0.9000E+01
      -11  1    4    4    0    0 0.72139560E+01 0.31437030E+01 0.22498125E+02 0.23834631E+02 0.51099893E-03 0.0000E+00 0.9000E+01
       11  1    4    4    0    0 -.20238317E+03 -.24930689E+02 0.17067805E+04 0.17189183E+04 0.51099893E-03 0.0000E+00 0.9000E+01
       23  1    3    3    0    0 0.61753813E+02 -.51073988E+02 0.22870552E+03 0.25892770E+03 0.91188000E+02 0.0000E+00 0.9000E+01
#aMCatNLO 1  0  0  1  2 0.31216348D+03 0.00000000D+00  -5  7  0 0.00000000D+00 0.00000000D+00 0.00000000D+00 0.00000000D+00 0.00000000D+00
  <mgrwgt>
 0.4639471786D-03    3    2    0
 0.302531676349431D+03 0.000000000000000D+00 0.000000000000000D+00 0.302531676349431D+03
 0.302531676349431D+03 0.000000000000000D+00 0.000000000000000D+00 -.302531676349431D+03
 0.185519279092005D+03 0.133415397686365D+03 0.728609739849016D+02 0.547152784967591D+02
 0.938734229530291D+01 0.721395597317191D+01 0.314370297327403D+01 -.511841442266528D+01
 0.223684368976586D+03 -.202383166716047D+03 -.249306892643088D+02 0.919467861713764D+02
 0.186472362334968D+03 0.617538130565102D+02 -.510739876938668D+02 -.141543650245470D+03
 0.000000000000000D+00 -.000000000000000D+00 -.000000000000000D+00 -.000000000000000D+00
 0.399696195756348D+03 0.000000000000000D+00 0.000000000000000D+00 0.399696195756348D+03
 0.751416398989056D+03 0.000000000000000D+00 0.000000000000000D+00 -.751416398989056D+03
 0.280320944836886D+03 0.246153533450434D+03 0.817267216957379D+02 0.547152784967591D+02
 0.144005551879223D+02 0.129708723540446D+02 0.359642793523374D+01 -.511841442266528D+01
 0.146599039736627D+03 -.112770765170694D+03 -.178835535415230D+02 0.919467861713764D+02
 0.239522834011790D+03 0.164849041449483D+03 -.429665599904681D+02 -.141543650245470D+03
 0.470269220972177D+03 -.311202682083267D+03 -.244730360989805D+02 -.351720203232708D+03
0.132217550176D-04 0.000000000000D+00 0.000000000000D+00 0.115371239298D-07 0.000000000000D+00  7 2 -2 23 -11 11 23 21 0 0.50515751D+00 0.42883298D-02 0.65138958D+05 0.65138958D+05 0.65138958D+05 0.11373264D+01  1  2  2  1  7  1        2 0.458516502590D-03 0.100000000000D+01
-.708717216419D-06 0.000000000000D+00 -.507750206357D-07 0.115371239298D-07 0.000000000000D+00  7 2 -2 23 -11 11 23 21 2 0.50515751D+00 0.42883298D-02 0.65138958D+05 0.65138958D+05 0.65138958D+05 0.11373264D+01  1  2  3  1  7  1        2 -.317913594672D-04 0.100000000000D+01
0.829781986143D-06 0.000000000000D+00 0.000000000000D+00 0.115371239298D-07 0.000000000000D+00  7 2 -2 23 -11 11 23 21 2 0.50515751D+00 0.42883298D-02 0.65138958D+05 0.65138958D+05 0.65138958D+05 0.11373264D+01  1  2 15  1  7  1        2 0.372220355167D-04 0.100000000000D+01
  </mgrwgt>
  </event>
  <event>
  7     66 0.55102590E-06 0.15923771E+03 0.75467711E-02 0.97953395E-01
        2 -1    0    0  501    0 0.00000000E+00 0.00000000E+00 0.85568673E+03 0.85568679E+03 0.32000000E+00 0.0000E+00 0.9000E+01
       -2 -1    0    0    0  501 0.00000000E+00 0.00000000E+00 -.19562487E+03 0.19562513E+03 0.32000000E+00 0.0000E+00 0.9000E+01
       25  2    1    2    0    0 0.35024561E+02 0.54158128E+02 0.75508739E+03 0.81446593E+03 0.29839228E+03 0.0000E+00 0.0000E+00
       23  1    3    3    0    0 -.14104509E+00 -.32854701E+01 0.66064279E+03 0.66691451E+03 0.91188000E+02 0.0000E+00 0.9000E+01
      -11  1    1    2    0    0 -.31889639E+02 0.21294180E+02 0.56070847E+02 0.67928867E+02 0.51099893E-03 0.0000E+00 0.9000E+01
       11  1    1    2    0    0 -.31349224E+01 -.75452308E+02 -.15109638E+03 0.16891712E+03 0.51099893E-03 0.0000E+00 0.9000E+01
       23  1    3    3    0    0 0.35165606E+02 0.57443598E+02 0.94444604E+02 0.14755142E+03 0.91188000E+02 0.0000E+00 0.9000E+01
#aMCatNLO 1  0  0  2  1 0.30738541D+03 0.00000000D+00  -5  7  0 0.00000000D+00 0.00000000D+00 0.00000000D+00 0.00000000D+00 0.00000000D+00
  <mgrwgt>
 0.7809605061D-03    5    2    0
 0.409137838618500D+03 0.000000000000000D+00 0.000000000000000D+00 0.409137838618500D+03
 0.409137838618500D+03 0.000000000000000D+00 0.000000000000000D+00 -.409137838618500D+03
 0.323937361981942D+03 -.141044414470912D+00 -.328546907428662D+01 0.310820444860460D+03
 0.420447478498404D+02 -.318896356069434D+02 0.212941766589400D+02 0.172444194750325D+02
 0.338904782468652D+03 -.313492640116843D+01 -.754523063540845D+02 -.330383978549858D+03
 0.113388784936565D+03 0.351656064225827D+02 0.574435987694311D+02 0.231911421436487D+01
 0.000000000000000D+00 0.000000000000000D+00 -.000000000000000D+00 -.000000000000000D+00
 0.509739361817873D+03 0.000000000000000D+00 0.000000000000000D+00 0.509739361817873D+03
 0.762030051731796D+03 0.000000000000000D+00 0.000000000000000D+00 -.762030051731796D+03
 0.345592033769078D+03 -.111505174424061D+03 0.455614924475987D+02 0.310820444860460D+03
 0.590969743917740D+02 -.487127354985837D+02 0.286731892100642D+02 0.172444194750325D+02
 0.351721192509604D+03 -.118008091572962D+03 -.250661983805333D+02 -.330383978549858D+03
 0.117695556746419D+03 -.327110275505930D+01 0.743028554624659D+02 0.231911421436487D+01
 0.397663656132794D+03 0.281497104250666D+03 -.123471338739595D+03 -.252290689913923D+03
0.157454474531D-04 0.000000000000D+00 0.000000000000D+00 0.414762646935D-10 0.000000000000D+00  7 2 -2 23 -11 11 23 21 0 0.13164414D+00 0.30096158D-01 0.25356649D+05 0.25356649D+05 0.25356649D+05 0.11741729D+01  1  2  2  2  7  2       -2 0.630129962831D-03 0.100000000000D+01
0.723392349438D-07 0.000000000000D+00 -.604666640915D-07 0.414762646935D-10 0.000000000000D+00  7 2 -2 23 -11 11 23 21 2 0.13164414D+00 0.30096158D-01 0.25356649D+05 0.25356649D+05 0.25356649D+05 0.11741729D+01  1  2  3  2  7  2       -2 0.399128902022D-05 0.100000000000D+01
0.969050632109D-06 0.000000000000D+00 0.000000000000D+00 0.414762646935D-10 0.000000000000D+00  7 2 -2 23 -11 11 23 21 2 0.13164414D+00 0.30096158D-01 0.25356649D+05 0.25356649D+05 0.25356649D+05 0.11741729D+01  1  2 15  2  7  2       -2 0.534669899534D-04 0.100000000000D+01
0.232850837923D-05 0.000000000000D+00 -.489491984030D-05 0.414762646935D-10 0.000000000000D+00  7 2 -2 23 -11 11 23 21 2 0.13164414D+00 0.67662032D-01 0.25356649D+05 0.25356649D+05 0.25356649D+05 0.11741729D+01  1  2  5  2  7  2       -2 0.278111138878D-04 0.100000000000D+01
0.514235843751D-06 0.000000000000D+00 -.430580697706D-06 0.414762646935D-10 0.000000000000D+00  7 2 21 23 -11 11 23 2 2 0.13164414D+00 0.67662032D-01 0.25356649D+05 0.25356649D+05 0.25356649D+05 0.11741729D+01  1  2  5  4  7  2       -2 0.655611504048D-04 0.100000000000D+01
  </mgrwgt>
  </event>
  <event>
  9     66 0.55102590E-06 0.24589733E+03 0.75467711E-02 0.95421749E-01
       21 -1    0    0  501  502 0.00000000E+00 0.00000000E+00 0.25459242E+03 0.25459353E+03 0.75000000E+00 0.0000E+00 0.9000E+01
       -2 -1    0    0    0  501 0.00000000E+00 0.00000000E+00 -.12191146E+04 0.12191147E+04 0.32000000E+00 0.0000E+00 0.9000E+01
       25  2    1    2    0    0 -.22075835E+03 -.10326920E+03 -.41364836E+03 0.56556375E+03 0.29892912E+03 0.0000E+00 0.0000E+00
       23  2    1    2    0    0 -.10247230E+03 0.17343928E+03 -.53285641E+03 0.57689437E+03 0.91046148E+02 0.0000E+00 0.0000E+00
       23  1    3    3    0    0 -.14983911E+03 0.58963044E+02 -.17453909E+03 0.25437677E+03 0.91188000E+02 0.0000E+00 0.9000E+01
      -11  1    4    4    0    0 -.44075109E+02 0.11357432E+02 -.15642180E+03 0.16290913E+03 0.51099893E-03 0.0000E+00 0.9000E+01
       11  1    4    4    0    0 -.58397195E+02 0.16208185E+03 -.37643461E+03 0.41398523E+03 0.51099893E-03 0.0000E+00 0.9000E+01
       23  1    3    3    0    0 -.70919238E+02 -.16223225E+03 -.23910927E+03 0.31118698E+03 0.91188000E+02 0.0000E+00 0.9000E+01
       -2  1    1    2    0  502 0.32323065E+03 -.70170080E+02 -.18017450E+02 0.33125009E+03 0.32000000E+00 0.0000E+00 0.9000E+01
#aMCatNLO 2  0  0  1  1 0.33075957D+03 0.00000000D+00  -5  7  0 0.00000000D+00 0.00000000D+00 0.00000000D+00 0.00000000D+00 0.00000000D+00
  <mgrwgt>
 0.1938177639D-04    1    2    0
 0.273832697538328D+03 0.000000000000000D+00 0.000000000000000D+00 0.273832697538328D+03
 0.273832697538328D+03 0.000000000000000D+00 0.000000000000000D+00 -.273832697538328D+03
 0.133005845157874D+03 -.602773372787120D+02 0.395200959180799D+02 0.646537557406713D+02
 0.420320614809416D+02 -.164399009457844D+02 0.535810992647393D+01 -.383107622900702D+02
 0.157787181389355D+03 0.341878051246016D+02 0.141982590136183D+03 -.597405447730423D+02
 0.214840307048487D+03 0.425294330998947D+02 -.186860795980737D+03 0.333975513224412D+02
 0.000000000000000D+00 0.000000000000000D+00 -.000000000000000D+00 0.000000000000000D+00
 0.831257202015356D+03 0.000000000000000D+00 0.000000000000000D+00 0.831257202015356D+03
 0.373383988168509D+03 0.000000000000000D+00 0.000000000000000D+00 -.373383988168509D+03
 0.196019790602298D+03 -.149839108138825D+03 0.589630435489527D+02 0.646537557406713D+02
 0.594921930634604D+02 -.440751093733650D+02 0.113574320151911D+02 -.383107622900702D+02
 0.182344978562320D+03 -.583971951334082D+02 0.162081850056272D+03 -.597405447730423D+02
 0.201939316802675D+03 -.709192381086011D+02 -.162232245741996D+03 0.333975513224412D+02
 0.564844911153112D+03 0.323230650754199D+03 -.701700798784194D+02 0.457873213846847D+03
0.162325258576D-05 0.000000000000D+00 0.000000000000D+00 0.630626848950D-07 0.116908358226D-11  7 21 -2 23 -11 11 23 -2 2 0.39168149D-01 0.18755617D+00 0.21751235D+06 0.21751235D+06 0.21751235D+06 0.10950366D+01  1  2  1  3  7  1        2 0.193817763885D-04 0.100000000000D+01
  </mgrwgt>
  </event>
  <event>
  8     66 0.55102590E-06 0.22001654E+03 0.75467711E-02 0.99822294E-01
        2 -1    0    0  501    0 0.00000000E+00 0.00000000E+00 0.13403801E+04 0.13403801E+04 0.32000000E+00 0.0000E+00 0.9000E+01
       -2 -1    0    0    0  501 0.00000000E+00 0.00000000E+00 -.19197589E+03 0.19197615E+03 0.32000000E+00 0.0000E+00 0.9000E+01
       25  2    1    2    0    0 -.32635915E+02 0.19862871E+03 -.20246862E+01 0.36106870E+03 0.29974663E+03 0.0000E+00 0.0000E+00
       23  2    1    2    0    0 0.32635915E+02 -.19862871E+03 0.11504289E+04 0.11712875E+04 0.88935381E+02 0.0000E+00 0.0000E+00
       23  1    3    3    0    0 0.94418539E+02 0.43167506E+02 0.19323926E+02 0.13952405E+03 0.91188000E+02 0.0000E+00 0.9000E+01
      -11  1    4    4    0    0 -.10672210E+02 -.48082571E+02 0.49294449E+03 0.49539893E+03 0.51099893E-03 0.0000E+00 0.9000E+01
       11  1    4    4    0    0 0.43308125E+02 -.15054613E+03 0.65748436E+03 0.67588861E+03 0.51099893E-03 0.0000E+00 0.9000E+01
       23  1    3    3    0    0 -.12705445E+03 0.15546120E+03 -.21348612E+02 0.22154465E+03 0.91188000E+02 0.0000E+00 0.9000E+01
#aMCatNLO 1  0  0  2  1 0.78668167D+02 0.00000000D+00  -5  7  0 0.00000000D+00 0.00000000D+00 0.00000000D+00 0.00000000D+00 0.00000000D+00
  <mgrwgt>
 0.2755908457D-03    9    2    0
 0.507268058411949D+03 0.000000000000000D+00 0.000000000000000D+00 0.507268058411949D+03
 0.507268058411949D+03 0.000000000000000D+00 0.000000000000000D+00 -.507268058411949D+03
 0.188863524797922D+03 0.944185386692763D+02 0.431675060781422D+02 -.128747371350436D+03
 0.190262462428269D+03 -.106722102657086D+02 -.480825714347716D+02 0.183776970433004D+03
 0.276623328054511D+03 0.433081251428563D+02 -.150546134808706D+03 0.227992835884646D+03
 0.358786801543197D+03 -.127054453546424D+03 0.155461200165335D+03 -.283022434967213D+03
 0.000000000000000D+00 0.000000000000000D+00 -.000000000000000D+00 -.000000000000000D+00
 0.523344970194954D+03 0.000000000000000D+00 0.000000000000000D+00 0.523344970194954D+03
 0.615094843380568D+03 0.000000000000000D+00 0.000000000000000D+00 -.615094843380568D+03
 0.183617717799504D+03 0.808014217295202D+02 0.479109545170969D+02 -.128747371350436D+03
 0.190388594410516D+03 -.245879981267839D+02 -.432350826088715D+02 0.183776970433004D+03
 0.270442354515876D+03 0.233085747726387D+02 -.143579400484318D+03 0.227992835884646D+03
 0.373132884189667D+03 -.153811870595491D+03 0.164782000500192D+03 -.283022434967213D+03
 0.120858262659959D+03 0.742898722201156D+02 -.258784719240990D+02 -.917498731856139D+02
0.123659894096D-04 0.000000000000D+00 0.000000000000D+00 0.356382468582D-06 0.000000000000D+00  7 2 -2 23 -11 11 23 21 0 0.20621234D+00 0.29534775D-01 0.79692552D+05 0.79692552D+05 0.79692552D+05 0.11299028D+01  1  2  2  2  7  2       -2 0.260727193515D-03 0.100000000000D+01
-.400091459800D-06 0.000000000000D+00 -.474886553728D-07 0.356382468582D-06 0.000000000000D+00  7 2 -2 23 -11 11 23 21 2 0.20621234D+00 0.29534775D-01 0.79692552D+05 0.79692552D+05 0.79692552D+05 0.11299028D+01  1  2  3  2  7  2       -2 -.107695828341D-04 0.100000000000D+01
0.761703763235D-06 0.000000000000D+00 0.000000000000D+00 0.356382468582D-06 0.000000000000D+00  7 2 -2 23 -11 11 23 21 2 0.20621234D+00 0.29534775D-01 0.79692552D+05 0.79692552D+05 0.79692552D+05 0.11299028D+01  1  2 15  2  7  2       -2 0.205033913428D-04 0.100000000000D+01
0.296889570903D-04 0.000000000000D+00 0.000000000000D+00 0.356382468582D-06 0.000000000000D+00  7 2 -2 23 -11 11 23 21 2 0.20621234D+00 0.36212187D-01 0.10495736D+06 0.10495736D+06 0.10495736D+06 0.11200018D+01  1  2 12  2  7  2       -2 0.541460050221D-03 0.100000000000D+01
-.318146032476D-04 0.000000000000D+00 0.000000000000D+00 0.356382468582D-06 0.000000000000D+00  7 2 -2 23 -11 11 23 21 2 0.20621234D+00 0.29534775D-01 0.79692552D+05 0.79692552D+05 0.79692552D+05 0.11299028D+01  1  2  4  2  7  2       -2 -.856379201846D-03 0.100000000000D+01
-.394047740348D-04 0.000000000000D+00 -.828096586071D-05 0.356382468582D-06 0.000000000000D+00  7 2 -2 23 -11 11 23 21 2 0.20621234D+00 0.36739800D-01 0.79692552D+05 0.79692552D+05 0.79692552D+05 0.11299028D+01  1  2  5  2  7  2       -2 -.718828518913D-03 0.100000000000D+01
0.404385901810D-04 0.000000000000D+00 0.808750849284D-05 0.356382468582D-06 0.000000000000D+00  7 2 -2 23 -11 11 23 21 2 0.20621234D+00 0.29534775D-01 0.79692552D+05 0.79692552D+05 0.79692552D+05 0.11299028D+01  1  2  6  2  7  2       -2 0.108851797753D-02 0.100000000000D+01
0.862023453338D-06 0.000000000000D+00 0.000000000000D+00 0.356382468582D-06 0.000000000000D+00  7 2 21 23 -11 11 23 2 2 0.20621234D+00 0.36212187D-01 0.10495736D+06 0.10495736D+06 0.10495736D+06 0.11200018D+01  1  2 12  4  7  2       -2 0.179612214501D-03 0.100000000000D+01
-.109455095827D-05 0.000000000000D+00 -.253289642433D-06 0.356382468582D-06 0.000000000000D+00  7 2 21 23 -11 11 23 2 2 0.20621234D+00 0.36739800D-01 0.79692552D+05 0.79692552D+05 0.79692552D+05 0.11299028D+01  1  2  5  4  7  2       -2 -.229252677839D-03 0.100000000000D+01
  </mgrwgt>
  </event>
  <event>
  8     66 0.55102590E-06 0.77656525E+02 0.75467711E-02 0.10625864E+00
        2 -1    0    0  501    0 0.00000000E+00 0.00000000E+00 0.18280657E+04 0.18280658E+04 0.32000000E+00 0.0000E+00 0.9000E+01
       -2 -1    0    0    0  501 0.00000000E+00 0.00000000E+00 -.25727006E+02 0.25728996E+02 0.32000000E+00 0.0000E+00 0.9000E+01
       25  2    1    2    0    0 0.33444899E+02 -.62936516E+02 0.14538346E+04 0.14863429E+04 0.30083311E+03 0.0000E+00 0.0000E+00
       23  2    1    2    0    0 -.33444899E+02 0.62936516E+02 0.34850411E+03 0.36745186E+03 0.92120490E+02 0.0000E+00 0.0000E+00
       23  1    3    3    0    0 0.20447419E+02 0.70904674E+02 0.31799775E+03 0.33894453E+03 0.91188000E+02 0.0000E+00 0.9000E+01
      -11  1    4    4    0    0 -.42084323E+02 0.43447858E+02 0.92250224E+02 0.11031278E+03 0.51099893E-03 0.0000E+00 0.9000E+01
       11  1    4    4    0    0 0.86394235E+01 0.19488658E+02 0.25625389E+03 0.25713907E+03 0.51099893E-03 0.0000E+00 0.9000E+01
       23  1    3    3    0    0 0.12997480E+02 -.13384119E+03 0.11358369E+04 0.11473984E+04 0.91188000E+02 0.0000E+00 0.9000E+01
#aMCatNLO 1  0  0  2  1 0.37103373D+02 0.00000000D+00  -5  7  0 0.00000000D+00 0.00000000D+00 0.00000000D+00 0.00000000D+00 0.00000000D+00
  <mgrwgt>
 0.2185937900D-03    9    2    0
 0.216869841753954D+03 0.000000000000000D+00 0.000000000000000D+00 0.216869841753954D+03
 0.216869841753954D+03 0.000000000000000D+00 0.000000000000000D+00 -.216869841753954D+03
 0.127251258308731D+03 0.204474188216618D+02 0.709046734714065D+02 -.493159379977723D+02
 0.881429847313887D+02 -.420843227679694D+02 0.434478583028008D+02 -.641122386398957D+02
 0.341835398043129D+02 0.863942340286225D+01 0.194886583106651D+02 0.267220312489389D+02
 0.184161900663475D+03 0.129974805434454D+02 -.133841190084872D+03 0.867061453887291D+02
 0.000000000000000D+00 0.000000000000000D+00 -.000000000000000D+00 -.000000000000000D+00
 0.235496642490286D+03 0.000000000000000D+00 0.000000000000000D+00 0.235496642490286D+03
 0.236959306307751D+03 0.000000000000000D+00 0.000000000000000D+00 -.236959306307751D+03
 0.128704209348427D+03 0.105511221374708D+02 0.755389584323470D+02 -.493159379977723D+02
 0.933013363748478D+02 -.490997104436650D+02 0.467330574675126D+02 -.641122386398957D+02
 0.343460960752902D+02 0.598978432880059D+01 0.207294439201406D+02 0.267220312489389D+02
 0.178972115120187D+03 -.104278196475933D+01 -.127266349064456D+03 0.867061453887291D+02
 0.371321918792852D+02 0.336015859421529D+02 -.157351107555443D+02 -.146266381746505D+01
0.625844887975D-06 0.000000000000D+00 0.000000000000D+00 0.410489816603D-07 0.000000000000D+00  7 2 -2 23 -11 11 23 21 0 0.28124104D+00 0.39581561D-02 0.32686092D+05 0.32686092D+05 0.32686092D+05 0.11638963D+01  1  2  2  2  7  2       -2 0.169404661879D-03 0.100000000000D+01
-.333697166194D-07 0.000000000000D+00 -.240340915857D-08 0.410489816603D-07 0.000000000000D+00  7 2 -2 23 -11 11 23 21 2 0.28124104D+00 0.39581561D-02 0.32686092D+05 0.32686092D+05 0.32686092D+05 0.11638963D+01  1  2  3  2  7  2       -2 -.122360068909D-04 0.100000000000D+01
0.396490048880D-07 0.000000000000D+00 0.000000000000D+00 0.410489816603D-07 0.000000000000D+00  7 2 -2 23 -11 11 23 21 2 0.28124104D+00 0.39581561D-02 0.32686092D+05 0.32686092D+05 0.32686092D+05 0.11638963D+01  1  2 15  2  7  2       -2 0.145384961628D-04 0.100000000000D+01
0.625676561299D-06 0.000000000000D+00 0.000000000000D+00 0.410489816603D-07 0.000000000000D+00  7 2 -2 23 -11 11 23 21 2 0.28124104D+00 0.44801187D-02 0.40383529D+05 0.40383529D+05 0.40383529D+05 0.11555455D+01  1  2 12  2  7  2       -2 0.188458715554D-03 0.100000000000D+01
-.514348693223D-06 0.000000000000D+00 0.000000000000D+00 0.410489816603D-07 0.000000000000D+00  7 2 -2 23 -11 11 23 21 2 0.28124104D+00 0.39581561D-02 0.32686092D+05 0.32686092D+05 0.32686092D+05 0.11638963D+01  1  2  4  2  7  2       -2 -.188601366513D-03 0.100000000000D+01
-.165156218405D-05 0.000000000000D+00 -.495544237508D-06 0.410489816603D-07 0.000000000000D+00  7 2 -2 23 -11 11 23 21 2 0.28124104D+00 0.47637721D-02 0.32686092D+05 0.32686092D+05 0.32686092D+05 0.11638963D+01  1  2  5  2  7  2       -2 -.461293812819D-03 0.100000000000D+01
0.172211384519D-05 0.000000000000D+00 0.487160183486D-06 0.410489816603D-07 0.000000000000D+00  7 2 -2 23 -11 11 23 21 2 0.28124104D+00 0.39581561D-02 0.32686092D+05 0.32686092D+05 0.32686092D+05 0.11638963D+01  1  2  6  2  7  2       -2 0.631464663514D-03 0.100000000000D+01
0.121918143102D-07 0.000000000000D+00 0.000000000000D+00 0.410489816603D-07 0.000000000000D+00  7 2 21 23 -11 11 23 2 2 0.28124104D+00 0.44801187D-02 0.40383529D+05 0.40383529D+05 0.40383529D+05 0.11555455D+01  1  2 12  4  7  2       -2 0.617933358879D-04 0.100000000000D+01
-.395499795684D-07 0.000000000000D+00 -.133665835528D-07 0.410489816603D-07 0.000000000000D+00  7 2 21 23 -11 11 23 2 2 0.28124104D+00 0.47637721D-02 0.32686092D+05 0.32686092D+05 0.32686092D+05 0.11638963D+01  1  2  5  4  7  2       -2 -.184934896816D-03 0.100000000000D+01
  </mgrwgt>
  </event>
  <event>
  8     66 0.55102590E-06 0.50729364E+03 0.75467711E-02 0.86193796E-01
        2 -1    0    0  501    0 0.00000000E+00 0.00000000E+00 0.20592334E+04 0.20592334E+04 0.32000000E+00 0.0000E+00 0.9000E+01
       -2 -1    0    0    0  501 0.00000000E+00 0.00000000E+00 -.33462526E+03 0.33462542E+03 0.32000000E+00 0.0000E+00 0.9000E+01
       25  2    1    2    0    0 0.23412809E+02 0.79060116E+03 0.10625895E+04 0.13581652E+04 0.29986340E+03 0.0000E+00 0.0000E+00
       23  2    1    2    0    0 -.23412809E+02 -.79060116E+03 0.66201863E+03 0.10356936E+04 0.93777128E+02 0.0000E+00 0.0000E+00
       23  1    3    3    0    0 0.52070067E+01 0.71531804E+03 0.85437439E+03 0.11180241E+04 0.91188000E+02 0.0000E+00 0.9000E+01
      -13  1    4    4    0    0 -.87785766E+00 -.23166189E+01 0.16200582E+02 0.16389246E+02 0.10565837E+00 0.0000E+00 0.9000E+01
       13  1    4    4    0    0 -.22534951E+02 -.78828455E+03 0.64581805E+03 0.10193043E+04 0.10565837E+00 0.0000E+00 0.9000E+01
       23  1    3    3    0    0 0.18205802E+02 0.75283128E+02 0.20821507E+03 0.24014114E+03 0.91188000E+02 0.0000E+00 0.9000E+01
#aMCatNLO 1  0  0  2  1 0.54453721D+03 0.00000000D+00  -5  7  0 0.00000000D+00 0.00000000D+00 0.00000000D+00 0.00000000D+00 0.00000000D+00
  <mgrwgt>
 0.3933914094D-03    7    2    0
 0.830103439664646D+03 0.000000000000000D+00 0.000000000000000D+00 0.830103439664646D+03
 0.830103439664646D+03 0.000000000000000D+00 0.000000000000000D+00 -.830103439664646D+03
 0.724566813724915D+03 0.520700671818981D+01 0.715318036050484D+03 0.705323371893471D+02
 0.680169228740851D+01 -.877830164832260D+00 -.231562114467530D+01 0.633485050246936D+01
 0.798869879838217D+03 -.225349787133244D+02 -.788285543040375D+03 -.127636837475154D+03
 0.129968493478751D+03 0.182058021599669D+02 0.752831281345666D+02 0.507696497833373D+02
 0.000000000000000D+00 -.000000000000000D+00 0.000000000000000D+00 -.000000000000000D+00
 0.100096955951225D+04 0.000000000000000D+00 0.000000000000000D+00 0.100096955951225D+04
 0.145568825686890D+04 0.000000000000000D+00 0.000000000000000D+00 -.145568825686890D+04
 0.592509775049032D+03 0.149124685656087D+03 0.561729115965370D+03 0.705323371893471D+02
 0.751556064987704D+01 0.686623891267117D+00 -.398520622117424D+01 0.633485050246936D+01
 0.102435751570495D+04 0.176690075607033D+03 -.100089848380470D+04 -.127636837475154D+03
 0.122845712132736D+03 0.458309486277235D+02 0.458015769833232D+02 0.507696497833373D+02
 0.709429252844550D+03 -.372332333782111D+03 0.397352997077177D+03 -.454718697356649D+03
0.154868818436D-03 0.000000000000D+00 0.000000000000D+00 0.100313783988D-05 0.000000000000D+00  7 2 -2 23 -13 13 23 21 0 0.31680515D+00 0.51480824D-01 0.66573514D+06 0.66573514D+06 0.66573514D+06 0.10598327D+01  1  2  2  2  7  2       -2 0.427950790881D-03 0.100000000000D+01
-.860071884026D-05 0.000000000000D+00 -.594737040689D-06 0.100313783988D-05 0.000000000000D+00  7 2 -2 23 -13 13 23 21 2 0.31680515D+00 0.51480824D-01 0.66573514D+06 0.66573514D+06 0.66573514D+06 0.10598327D+01  1  2  3  2  7  2       -2 -.266955721206D-04 0.100000000000D+01
0.984754618981D-05 0.000000000000D+00 0.000000000000D+00 0.100313783988D-05 0.000000000000D+00  7 2 -2 23 -13 13 23 21 2 0.31680515D+00 0.51480824D-01 0.66573514D+06 0.66573514D+06 0.66573514D+06 0.10598327D+01  1  2 15  2  7  2       -2 0.305655706696D-04 0.100000000000D+01
0.241914401247D-04 0.000000000000D+00 0.000000000000D+00 0.100313783988D-05 0.000000000000D+00  7 2 -2 23 -13 13 23 21 2 0.31680515D+00 0.92223152D-01 0.12826878D+07 0.12826878D+07 0.12826878D+07 0.10407416D+01  1  2 12  2  7  2       -2 0.194854837810D-04 0.100000000000D+01
-.819652044066D-04 0.000000000000D+00 -.479068982930D-04 0.100313783988D-05 0.000000000000D+00  7 2 -2 23 -13 13 23 21 2 0.31680515D+00 0.10683452D+00 0.66573514D+06 0.66573514D+06 0.66573514D+06 0.10598327D+01  1  2  5  2  7  2       -2 -.500021421006D-04 0.100000000000D+01
0.154850637468D-05 0.000000000000D+00 0.000000000000D+00 0.100313783988D-05 0.000000000000D+00  7 2 21 23 -13 13 23 2 2 0.31680515D+00 0.92223152D-01 0.12826878D+07 0.12826878D+07 0.12826878D+07 0.10407416D+01  1  2 12  4  7  2       -2 0.111616619098D-04 0.100000000000D+01
-.352262632075D-05 0.000000000000D+00 -.378200791899D-05 0.100313783988D-05 0.000000000000D+00  7 2 21 23 -13 13 23 2 2 0.31680515D+00 0.10683452D+00 0.66573514D+06 0.66573514D+06 0.66573514D+06 0.10598327D+01  1  2  5  4  7  2       -2 -.190743835732D-04 0.100000000000D+01
  </mgrwgt>
  </event>
  <event>
  8     66 0.55102590E-06 0.25943932E+03 0.75467711E-02 0.98579608E-01
        2 -1    0    0  501    0 0.00000000E+00 0.00000000E+00 0.19105106E+04 0.19105106E+04 0.32000000E+00 0.0000E+00 0.9000E+01
       -2 -1    0    0    0  501 0.00000000E+00 0.00000000E+00 -.79198402E+02 0.79199048E+02 0.32000000E+00 0.0000E+00 0.9000E+01
       25  2    1    2    0    0 0.31753217E+03 0.57694586E+02 0.97268462E+03 0.10678518E+04 0.30006118E+03 0.0000E+00 0.0000E+00
       23  2    1    2    0    0 -.31753217E+03 -.57694586E+02 0.85862757E+03 0.92185788E+03 0.91789461E+02 0.0000E+00 0.0000E+00
       23  1    3    3    0    0 0.98099402E+02 0.59884269E+02 0.14326183E+03 0.20505809E+03 0.91188000E+02 0.0000E+00 0.9000E+01
      -13  1    4    4    0    0 -.31799691E+03 -.56171105E+02 0.79323136E+03 0.85644219E+03 0.10565837E+00 0.0000E+00 0.9000E+01
       13  1    4    4    0    0 0.46473824E+00 -.15234812E+01 0.65396206E+02 0.65415685E+02 0.10565837E+00 0.0000E+00 0.9000E+01
       23  1    3    3    0    0 0.21943277E+03 -.21896827E+01 0.82942279E+03 0.86279369E+03 0.91188000E+02 0.0000E+00 0.9000E+01
#aMCatNLO 1  0  0  2  1 0.65695150D+01 0.00000000D+00  -5  7  0 0.00000000D+00 0.00000000D+00 0.00000000D+00 0.00000000D+00 0.00000000D+00
  <mgrwgt>
 0.3586941661D-03   11    2    0
 0.388985931852834D+03 0.000000000000000D+00 0.000000000000000D+00 0.388985931852834D+03
 0.388985931852834D+03 0.000000000000000D+00 0.000000000000000D+00 -.388985931852834D+03
 0.187216197918290D+03 0.980994018568980D+02 0.598842688231509D+02 -.116297184496512D+03
 0.323170263957031D+03 -.317997335184192D+03 -.561711773132466D+02 0.127087828313063D+02
 0.133642788932278D+02 0.465160072592809D+00 -.152340879438854D+01 0.132690166209865D+02
 0.254221122937119D+03 0.219432773254702D+03 -.218968271551572D+01 0.903193850442187D+02
 0.000000000000000D+00 -.000000000000000D+00 -.000000000000000D+00 -.000000000000000D+00
 0.389673897013747D+03 0.000000000000000D+00 0.000000000000000D+00 0.389673897013747D+03
 0.405005864837927D+03 0.000000000000000D+00 0.000000000000000D+00 -.405005864837927D+03
 0.188153559668873D+03 0.991623743905682D+02 0.610597990127485D+02 -.116297184496512D+03
 0.321028919245790D+03 -.316173091157825D+03 -.541537649547318D+02 0.127087828313063D+02
 0.133578481393301D+02 0.540831824252922D+00 -.143972419694268D+01 0.132690166209865D+02
 0.255459274002751D+03 0.220876086819384D+03 -.593537364062362D+00 0.903193850442187D+02
 0.166801607949302D+02 -.440620187638006D+01 -.487277249701162D+01 -.153319678241796D+02
0.402678133900D-05 0.000000000000D+00 0.000000000000D+00 0.825369668285D-06 0.000000000000D+00  7 2 -2 23 -13 13 23 21 0 0.29392476D+00 0.12184421D-01 0.12562152D+06 0.12562152D+06 0.12562152D+06 0.11136822D+01  1  2  2  2  7  2       -2 0.178219340958D-03 0.100000000000D+01
-.221356101008D-06 0.000000000000D+00 -.154639006176D-07 0.825369668285D-06 0.000000000000D+00  7 2 -2 23 -13 13 23 21 2 0.29392476D+00 0.12184421D-01 0.12562152D+06 0.12562152D+06 0.12562152D+06 0.11136822D+01  1  2  3  2  7  2       -2 -.121509674507D-04 0.100000000000D+01
0.253827977776D-06 0.000000000000D+00 0.000000000000D+00 0.825369668285D-06 0.000000000000D+00  7 2 -2 23 -13 13 23 21 2 0.29392476D+00 0.12184421D-01 0.12562152D+06 0.12562152D+06 0.12562152D+06 0.11136822D+01  1  2 15  2  7  2       -2 0.139334560104D-04 0.100000000000D+01
0.468798391307D-04 0.000000000000D+00 0.000000000000D+00 0.825369668285D-06 0.000000000000D+00  7 2 -2 23 -13 13 23 21 2 0.29392476D+00 0.12696753D-01 0.12807541D+06 0.12807541D+06 0.12807541D+06 0.11130085D+01  1  2 12  2  7  2       -2 0.240758261727D-02 0.100000000000D+01
-.621439724200D-04 0.000000000000D+00 0.000000000000D+00 0.825369668285D-06 0.000000000000D+00  7 2 -2 23 -13 13 23 21 2 0.29392476D+00 0.12184421D-01 0.12562152D+06 0.12562152D+06 0.12562152D+06 0.11136822D+01  1  2  4  2  7  2       -2 -.341128788722D-02 0.100000000000D+01
-.220341193468D-03 0.000000000000D+00 -.128591313981D-04 0.825369668285D-06 0.000000000000D+00  7 2 -2 23 -13 13 23 21 2 0.29392476D+00 0.12704243D-01 0.12562152D+06 0.12562152D+06 0.12562152D+06 0.11136822D+01  1  2  5  2  7  2       -2 -.113246363611D-01 0.100000000000D+01
0.220697005240D-03 0.000000000000D+00 0.128479174589D-04 0.825369668285D-06 0.000000000000D+00  7 2 -2 23 -13 13 23 21 2 0.29392476D+00 0.12184421D-01 0.12562152D+06 0.12562152D+06 0.12562152D+06 0.11136822D+01  1  2  6  2  7  2       -2 0.121147875072D-01 0.100000000000D+01
0.146846590483D-04 0.000000000000D+00 0.000000000000D+00 0.825369668285D-06 0.126467355820D-06  7 2 -2 23 -13 13 23 21 2 0.29444460D+00 0.12686223D-01 0.12807541D+06 0.12807541D+06 0.12807541D+06 0.11130085D+01  1  2 11  2  7  2       -2 0.751985940733D-03 0.100000000000D+01
0.103173588485D-05 0.000000000000D+00 0.000000000000D+00 0.825369668285D-06 0.000000000000D+00  7 2 21 23 -13 13 23 2 2 0.29392476D+00 0.12696753D-01 0.12807541D+06 0.12807541D+06 0.12807541D+06 0.11130085D+01  1  2 12  4  7  2       -2 0.736422080939D-03 0.100000000000D+01
-.163930214497D-05 0.000000000000D+00 -.947077782563D-07 0.825369668285D-06 0.000000000000D+00  7 2 21 23 -13 13 23 2 2 0.29392476D+00 0.12704243D-01 0.12562152D+06 0.12562152D+06 0.12562152D+06 0.11136822D+01  1  2  5  4  7  2       -2 -.117133736758D-02 0.100000000000D+01
0.105609558403D-06 0.000000000000D+00 0.000000000000D+00 0.825369668285D-06 0.901277792276D-09  7 2 21 23 -13 13 23 2 2 0.29444460D+00 0.12686223D-01 0.12807541D+06 0.12807541D+06 0.12807541D+06 0.11130085D+01  1  2 11  4  7  2       -2 0.751758063426D-04 0.100000000000D+01
  </mgrwgt>
  </event>
  <event>
  8     66 0.55102590E-06 0.32495340E+03 0.75467711E-02 0.92324730E-01
        2 -1    0    0  501    0 0.00000000E+00 0.00000000E+00 0.13162904E+04 0.13162904E+04 0.32000000E+00 0.0000E+00 0.9000E+01
       -2 -1    0    0    0  501 0.00000000E+00 0.00000000E+00 -.20417371E+03 0.20417396E+03 0.32000000E+00 0.0000E+00 0.9000E+01
       25  2    1    2    0    0 0.27835683E+03 -.80034442E+02 0.56617889E+02 0.42158833E+03 0.30106993E+03 0.0000E+00 0.0000E+00
       23  2    1    2    0    0 -.27835683E+03 0.80034442E+02 0.10554988E+04 0.10988760E+04 0.97789823E+02 0.0000E+00 0.0000E+00
       23  1    3    3    0    0 0.17230983E+03 -.39183346E+02 0.14951420E+03 0.24878858E+03 0.91188000E+02 0.0000E+00 0.9000E+01
      -13  1    4    4    0    0 -.66519586E+02 -.22211436E+02 0.22107554E+03 0.23193233E+03 0.10565837E+00 0.0000E+00 0.9000E+01
       13  1    4    4    0    0 -.21183724E+03 0.10224588E+03 0.83442325E+03 0.86694371E+03 0.10565837E+00 0.0000E+00 0.9000E+01
       23  1    3    3    0    0 0.10604700E+03 -.40851096E+02 -.92896312E+02 0.17279975E+03 0.91188000E+02 0.0000E+00 0.9000E+01
#aMCatNLO 1  0  0  2  1 0.46307691D+03 0.00000000D+00  -5  7  0 0.00000000D+00 0.00000000D+00 0.00000000D+00 0.00000000D+00 0.00000000D+00
  <mgrwgt>
 0.2747527330D-03    5    2    0
 0.518413068633867D+03 0.000000000000000D+00 0.000000000000000D+00 0.518413068633867D+03
 0.518413068633867D+03 0.000000000000000D+00 0.000000000000000D+00 -.518413068633867D+03
 0.204467207881362D+03 0.172309829883542D+03 -.391833461905722D+02 -.475980636330375D+02
 0.102990005979114D+03 -.665194159421827D+02 -.222115792788290D+02 0.754238316464308D+02
 0.376322845150650D+03 -.211837409623860D+03 0.102246021571189D+03 0.293750824235434D+03
 0.353046078256607D+03 0.106046995682501D+03 -.408510961017883D+02 -.321576592248827D+03
 0.000000000000000D+00 -.000000000000000D+00 0.000000000000000D+00 -.000000000000000D+00
 0.682061037540235D+03 0.000000000000000D+00 0.000000000000000D+00 0.682061037540235D+03
 0.103683341373534D+04 0.000000000000000D+00 0.000000000000000D+00 -.103683341373534D+04
 0.277459918490624D+03 0.223507818211005D+03 -.128247551874355D+03 -.475980636330375D+02
 0.106589622751955D+03 -.442545240150058D+02 -.609436658101588D+02 0.754238316464308D+02
 0.325408322339897D+03 -.137288329158806D+03 -.274398284588790D+02 0.293750824235434D+03
 0.426081067193477D+03 0.188818311749845D+03 -.184840376926423D+03 -.321576592248827D+03
 0.583355520499625D+03 -.230783276787038D+03 0.401471423069816D+03 -.354772376195108D+03
0.132704780424D-04 0.000000000000D+00 0.000000000000D+00 0.163059276353D-07 0.000000000000D+00  7 2 -2 23 -13 13 23 21 0 0.20250623D+00 0.31411362D-01 0.10559471D+06 0.10559471D+06 0.10559471D+06 0.11197871D+01  1  2  2  2  7  2       -2 0.256788276775D-03 0.100000000000D+01
-.541680806479D-06 0.000000000000D+00 -.509621298798D-07 0.163059276353D-07 0.000000000000D+00  7 2 -2 23 -13 13 23 21 2 0.20250623D+00 0.31411362D-01 0.10559471D+06 0.10559471D+06 0.10559471D+06 0.11197871D+01  1  2  3  2  7  2       -2 -.131432562729D-04 0.100000000000D+01
0.826959213110D-06 0.000000000000D+00 0.000000000000D+00 0.163059276353D-07 0.000000000000D+00  7 2 -2 23 -13 13 23 21 2 0.20250623D+00 0.31411362D-01 0.10559471D+06 0.10559471D+06 0.10559471D+06 0.11197871D+01  1  2 15  2  7  2       -2 0.200652058097D-04 0.100000000000D+01
0.222644390325D-06 0.000000000000D+00 -.411345732787D-05 0.163059276353D-07 0.000000000000D+00  7 2 -2 23 -13 13 23 21 2 0.20250623D+00 0.80562488D-01 0.10559471D+06 0.10559471D+06 0.10559471D+06 0.11197871D+01  1  2  5  2  7  2       -2 0.839889605450D-06 0.100000000000D+01
0.273460454001D-06 0.000000000000D+00 -.428263618119D-06 0.163059276353D-07 0.000000000000D+00  7 2 21 23 -13 13 23 2 2 0.20250623D+00 0.80562488D-01 0.10559471D+06 0.10559471D+06 0.10559471D+06 0.11197871D+01  1  2  5  4  7  2       -2 0.102026171100D-04 0.100000000000D+01
  </mgrwgt>
  </event>
  <event>
  8     66 0.55102590E-06 0.37848127E+03 0.75467711E-02 0.85156919E-01
        2 -1    0    0  501    0 0.00000000E+00 0.00000000E+00 0.11804206E+04 0.11804206E+04 0.32000000E+00 0.0000E+00 0.9000E+01
       -2 -1    0    0    0  501 0.00000000E+00 0.00000000E+00 -.67792665E+03 0.67792673E+03 0.32000000E+00 0.0000E+00 0.9000E+01
       25  2    1    2    0    0 -.25705405E+03 -.82197619E+03 0.15540179E+03 0.92541281E+03 0.30086128E+03 0.0000E+00 0.0000E+00
       23  2    1    2    0    0 0.25705405E+03 0.82197619E+03 0.34709215E+03 0.93293455E+03 0.90400572E+02 0.0000E+00 0.0000E+00
       23  1    3    3    0    0 -.12655271E+03 -.62269964E+03 0.33752890E+02 0.64282574E+03 0.91188000E+02 0.0000E+00 0.9000E+01
      -11  1    4    4    0    0 -.74833090E-01 0.92265742E+02 0.38417167E+02 0.99944242E+02 0.51099893E-03 0.0000E+00 0.9000E+01
       11  1    4    4    0    0 0.25712888E+03 0.72971045E+03 0.30867498E+03 0.83299030E+03 0.51099893E-03 0.0000E+00 0.9000E+01
       23  1    3    3    0    0 -.13050134E+03 -.19927655E+03 0.12164890E+03 0.28258707E+03 0.91188000E+02 0.0000E+00 0.9000E+01
#aMCatNLO 1  0  0  2  1 0.65932694D+03 0.00000000D+00  -5  7  0 0.00000000D+00 0.00000000D+00 0.00000000D+00 0.00000000D+00 0.00000000D+00
  <mgrwgt>
 0.2842905367D-03    7    2    0
 0.894560611424987D+03 0.000000000000000D+00 0.000000000000000D+00 0.894560611424987D+03
 0.894560611424987D+03 0.000000000000000D+00 0.000000000000000D+00 -.894560611424987D+03
 0.658218618764821D+03 -.126552705639015D+03 -.622699639228592D+03 -.145485637589058D+03
 0.930214917239180D+02 -.748330981757945D-01 0.922657424449652D+02 0.118332199180825D+02
 0.778526356224484D+03 0.257128881391805D+03 0.729710450999779D+03 0.866641990216871D+02
 0.259354756136751D+03 -.130501342654615D+03 -.199276554216152D+03 0.469882186492887D+02
 0.000000000000000D+00 -.000000000000000D+00 -.000000000000000D+00 -.000000000000000D+00
 0.101354176732927D+04 0.000000000000000D+00 0.000000000000000D+00 0.101354176732927D+04
 0.275953749676630D+04 0.000000000000000D+00 0.000000000000000D+00 -.275953749676630D+04
 0.474369152912823D+03 -.393174095833029D+02 -.440453076331853D+03 -.145485637589058D+03
 0.129794365691280D+03 0.170871103499071D+02 0.128119408878835D+03 0.118332199180825D+02
 0.111317750889574D+04 0.402833568348699D+03 0.103410763420967D+04 0.866641990216871D+02
 0.189401421951035D+03 -.959368002577545D+02 -.127066458821927D+03 0.469882186492887D+02
 0.186633681464469D+04 -.284666468857549D+03 -.594707507934723D+03 -.174599572943703D+04
0.166530308720D-03 0.000000000000D+00 0.000000000000D+00 0.887184208839D-06 0.000000000000D+00  7 2 -2 23 -11 11 23 21 0 0.18160318D+00 0.10429642D+00 0.77700273D+06 0.77700273D+06 0.77700273D+06 0.10552370D+01  1  2  2  2  7  2       -2 0.296108495950D-03 0.100000000000D+01
-.924924213159D-05 0.000000000000D+00 -.639520233920D-06 0.887184208839D-06 0.000000000000D+00  7 2 -2 23 -11 11 23 21 2 0.18160318D+00 0.10429642D+00 0.77700273D+06 0.77700273D+06 0.77700273D+06 0.10552370D+01  1  2  3  2  7  2       -2 -.183131790430D-04 0.100000000000D+01
0.105419809205D-04 0.000000000000D+00 0.000000000000D+00 0.887184208839D-06 0.000000000000D+00  7 2 -2 23 -11 11 23 21 2 0.18160318D+00 0.10429642D+00 0.77700273D+06 0.77700273D+06 0.77700273D+06 0.10552370D+01  1  2 15  2  7  2       -2 0.208727570668D-04 0.100000000000D+01
0.378397476910D-04 0.000000000000D+00 0.000000000000D+00 0.887184208839D-06 0.000000000000D+00  7 2 -2 23 -11 11 23 21 2 0.18160318D+00 0.31234450D+00 0.16044890D+07 0.16044890D+07 0.16044890D+07 0.10344629D+01  1  2 12  2  7  2       -2 0.203770212733D-05 0.100000000000D+01
-.223982567990D-03 0.000000000000D+00 -.503047127058D-04 0.887184208839D-06 0.000000000000D+00  7 2 -2 23 -11 11 23 21 2 0.18160318D+00 0.33276926D+00 0.77700273D+06 0.77700273D+06 0.77700273D+06 0.10552370D+01  1  2  5  2  7  2       -2 -.977370132712D-05 0.100000000000D+01
0.472090446320D-05 0.000000000000D+00 0.000000000000D+00 0.887184208839D-06 0.000000000000D+00  7 2 21 23 -11 11 23 2 2 0.18160318D+00 0.31234450D+00 0.16044890D+07 0.16044890D+07 0.16044890D+07 0.10344629D+01  1  2 12  4  7  2       -2 0.171957989985D-05 0.100000000000D+01
-.277189319715D-04 0.000000000000D+00 -.671778237393D-05 0.887184208839D-06 0.000000000000D+00  7 2 21 23 -11 11 23 2 2 0.18160318D+00 0.33276926D+00 0.77700273D+06 0.77700273D+06 0.77700273D+06 0.10552370D+01  1  2  5  4  7  2       -2 -.836111793556D-05 0.100000000000D+01
  </mgrwgt>
  </event>
  <event>
  7     66 0.55102590E-06 0.32033453E+03 0.75467711E-02 0.98694415E-01
        2 -1    0    0  501    0 0.00000000E+00 0.00000000E+00 0.11852383E+04 0.11852383E+04 0.32000000E+00 0.0000E+00 0.9000E+01
       -2 -1    0    0    0  501 0.00000000E+00 0.00000000E+00 -.19347767E+03 0.19347793E+03 0.32000000E+00 0.0000E+00 0.9000E+01
       25  2    1    2    0    0 -.21710199E+03 -.14026289E+02 0.89946965E+03 0.97268544E+03 0.29956854E+03 0.0000E+00 0.0000E+00
       23  1    3    3    0    0 -.12149564E+03 0.96857521E+02 0.31053757E+03 0.35901449E+03 0.91188000E+02 0.0000E+00 0.9000E+01
      -13  1    1    2    0    0 0.15522370E+03 -.80645102E+02 -.85978351E+02 0.19491105E+03 0.10565837E+00 0.0000E+00 0.9000E+01
       13  1    1    2    0    0 0.61878295E+02 0.94671390E+02 0.17826934E+03 0.21111979E+03 0.10565837E+00 0.0000E+00 0.9000E+01
       23  1    3    3    0    0 -.95606347E+02 -.11088381E+03 0.58893208E+03 0.61367095E+03 0.91188000E+02 0.0000E+00 0.9000E+01
#aMCatNLO 1  0  0  2  1 0.62423799D+02 0.00000000D+00  -5  7  0 0.00000000D+00 0.00000000D+00 0.00000000D+00 0.00000000D+00 0.00000000D+00
  <mgrwgt>
 0.3393584246D-02    4    2    0
 0.478870913829291D+03 0.000000000000000D+00 0.000000000000000D+00 0.478870913829291D+03
 0.478870913829291D+03 0.000000000000000D+00 0.000000000000000D+00 -.478870913829291D+03
 0.195254063811534D+03 -.121498300031683D+03 0.968573493833821D+02 0.752709442663976D+02
 0.369615913196853D+03 0.155229163256568D+03 -.806382762699493D+02 -.325602976895513D+03
 0.119308065722159D+03 0.618792048546247D+02 0.946649770810288D+02 0.379989561326451D+02
 0.273563784928036D+03 -.956100680795098D+02 -.110884050194462D+03 0.212333076496471D+03
 0.000000000000000D+00 0.000000000000000D+00 0.000000000000000D+00 0.000000000000000D+00
 0.834741488289619D+03 0.000000000000000D+00 0.000000000000000D+00 0.834741488289619D+03
 0.482632303943465D+03 0.000000000000000D+00 0.000000000000000D+00 -.482632303943465D+03
 0.195269049676069D+03 -.129025065869041D+03 0.866115912804382D+02 0.752709442663976D+02
 0.368645936191645D+03 0.141000238322070D+03 -.100007302235954D+03 -.325602976895513D+03
 0.112200896878892D+03 0.574172058318627D+02 0.885911116744704D+02 0.379989561326451D+02
 0.283658121456845D+03 -.106349711045452D+03 -.125503315137565D+03 0.212333076496471D+03
 0.357599788029633D+03 0.369573327605598D+02 0.503079144186104D+02 0.352109184346154D+03
0.134293370712D-03 0.000000000000D+00 0.000000000000D+00 0.142770877134D-09 0.000000000000D+00  7 2 -2 23 -13 13 23 21 0 0.18234438D+00 0.29765818D-01 0.10261421D+06 0.10261421D+06 0.10261421D+06 0.11208035D+01  1  2  2  2  7  2       -2 0.338764422868D-02 0.100000000000D+01
-.599432894690D-05 0.000000000000D+00 -.515721903791D-06 0.142770877134D-09 0.000000000000D+00  7 2 -2 23 -13 13 23 21 2 0.18234438D+00 0.29765818D-01 0.10261421D+06 0.10261421D+06 0.10261421D+06 0.11208035D+01  1  2  3  2  7  2       -2 -.189951508189D-03 0.100000000000D+01
0.819504583156D-05 0.000000000000D+00 0.000000000000D+00 0.142770877134D-09 0.000000000000D+00  7 2 -2 23 -13 13 23 21 2 0.18234438D+00 0.29765818D-01 0.10261421D+06 0.10261421D+06 0.10261421D+06 0.11208035D+01  1  2 15  2  7  2       -2 0.259689004253D-03 0.100000000000D+01
-.201326684120D-05 0.000000000000D+00 0.000000000000D+00 0.142770877134D-09 0.000000000000D+00  7 2 -2 23 -13 13 23 21 2 0.18234438D+00 0.29765818D-01 0.10261421D+06 0.10261421D+06 0.10261421D+06 0.11208035D+01  1  2  4  2  7  2       -2 -.637974786269D-04 0.100000000000D+01
  </mgrwgt>
  </event>
  <event>
  8     66 0.55102590E-06 0.15087430E+03 0.75467711E-02 0.10427753E+00
        2 -1    0    0  501    0 0.00000000E+00 0.00000000E+00 0.18277099E+03 0.18277127E+03 0.32000000E+00 0.0000E+00 0.9000E+01
       -2 -1    0    0    0  501 0.00000000E+00 0.00000000E+00 -.32239764E+03 0.32239780E+03 0.32000000E+00 0.0000E+00 0.9000E+01
       25  2    1    2    0    0 0.96713118E+02 0.23084340E+02 -.46156626E+01 0.31403359E+03 0.29784136E+03 0.0000E+00 0.0000E+00
       23  2    1    2    0    0 -.96713118E+02 -.23084340E+02 -.13501099E+03 0.19113548E+03 0.91752326E+02 0.0000E+00 0.0000E+00
       23  1    3    3    0    0 0.12256374E+03 -.45940961E+02 0.70898581E+02 0.17456890E+03 0.91188000E+02 0.0000E+00 0.9000E+01
      -13  1    4    4    0    0 -.84056575E+02 0.23055845E+02 -.93056789E+02 0.12750160E+03 0.10565837E+00 0.0000E+00 0.9000E+01
       13  1    4    4    0    0 -.12656542E+02 -.46140184E+02 -.41954199E+02 0.63633880E+02 0.10565837E+00 0.0000E+00 0.9000E+01
       23  1    3    3    0    0 -.25850622E+02 0.69025301E+02 -.75514243E+02 0.13946469E+03 0.91188000E+02 0.0000E+00 0.9000E+01
#aMCatNLO 1  0  0  1  2 0.48479571D+02 0.00000000D+00  -5  7  0 0.00000000D+00 0.00000000D+00 0.00000000D+00 0.00000000D+00 0.00000000D+00
  <mgrwgt>
 0.1419018107D-03    9    2    0
 0.242744817321362D+03 0.000000000000000D+00 0.000000000000000D+00 0.242744817321362D+03
 0.242744817321362D+03 0.000000000000000D+00 0.000000000000000D+00 -.242744817321362D+03
 0.202035501294511D+03 0.122563740414956D+03 -.459409573188544D+02 0.123978427217991D+03
 0.105906874620670D+03 -.840566733601815D+02 0.230559339476779D+02 -.601595018707637D+02
 0.541472125771037D+02 -.126564504564298D+02 -.461402750156601D+02 -.253536962432155D+02
 0.123400046150439D+03 -.258506165983445D+02 0.690252983868366D+02 -.384652291040119D+02
 0.000000000000000D+00 -.000000000000000D+00 -.000000000000000D+00 0.000000000000000D+00
 0.288350542738260D+03 0.000000000000000D+00 0.000000000000000D+00 0.288350542738260D+03
 0.257186023566921D+03 0.000000000000000D+00 0.000000000000000D+00 -.257186023566921D+03
 0.203507385832050D+03 0.130324299707327D+03 -.272934284131399D+02 0.123978427217991D+03
 0.105334104240752D+03 -.800143187943105D+02 0.327691415625373D+02 -.601595018707637D+02
 0.496771448076997D+02 -.106696443576075D+02 -.413662603136191D+02 -.253536962432155D+02
 0.129385509539942D+03 -.210132557285978D+02 0.806487939684824D+02 -.384652291040119D+02
 0.576324218847378D+02 -.186270808268109D+02 -.447582468042607D+02 0.311645191713387D+02
0.118256507721D-05 0.000000000000D+00 0.000000000000D+00 0.820847767393D-08 0.000000000000D+00  7 2 -2 23 -13 13 23 21 0 0.28118647D-01 0.49599671D-01 0.42390936D+05 0.42390936D+05 0.42390936D+05 0.11536557D+01  1  2  2  1  7  1        2 0.105732680126D-03 0.100000000000D+01
-.635321467434D-07 0.000000000000D+00 -.454136127304D-08 0.820847767393D-08 0.000000000000D+00  7 2 -2 23 -13 13 23 21 2 0.28118647D-01 0.49599671D-01 0.42390936D+05 0.42390936D+05 0.42390936D+05 0.11536557D+01  1  2  3  1  7  1        2 -.756014588533D-05 0.100000000000D+01
0.770156353173D-07 0.000000000000D+00 0.000000000000D+00 0.820847767393D-08 0.000000000000D+00  7 2 -2 23 -13 13 23 21 2 0.28118647D-01 0.49599671D-01 0.42390936D+05 0.42390936D+05 0.42390936D+05 0.11536557D+01  1  2 15  1  7  1        2 0.916464291378D-05 0.100000000000D+01
0.173398664234D-05 0.000000000000D+00 0.000000000000D+00 0.820847767393D-08 0.000000000000D+00  7 2 -2 23 -13 13 23 21 2 0.34122975D-01 0.49599671D-01 0.53495795D+05 0.53495795D+05 0.53495795D+05 0.11447227D+01  1  2 12  1  7  1        2 0.163713536956D-03 0.100000000000D+01
-.177102691581D-05 0.000000000000D+00 0.000000000000D+00 0.820847767393D-08 0.000000000000D+00  7 2 -2 23 -13 13 23 21 2 0.28118647D-01 0.49599671D-01 0.42390936D+05 0.42390936D+05 0.42390936D+05 0.11536557D+01  1  2  4  1  7  1        2 -.210747197075D-03 0.100000000000D+01
-.320740516783D-05 0.000000000000D+00 -.813323998611D-06 0.820847767393D-08 0.000000000000D+00  7 2 -2 23 -13 13 23 21 2 0.35153792D-01 0.49599671D-01 0.42390936D+05 0.42390936D+05 0.42390936D+05 0.11536557D+01  1  2  5  1  7  1        2 -.297577407460D-03 0.100000000000D+01
0.332562695378D-05 0.000000000000D+00 0.793459650533D-06 0.820847767393D-08 0.000000000000D+00  7 2 -2 23 -13 13 23 21 2 0.28118647D-01 0.49599671D-01 0.42390936D+05 0.42390936D+05 0.42390936D+05 0.11536557D+01  1  2  6  1  7  1        2 0.395740207430D-03 0.100000000000D+01
0.483830367683D-07 0.000000000000D+00 0.000000000000D+00 0.820847767393D-08 0.000000000000D+00  7 21 -2 23 -13 13 23 -2 2 0.34122975D-01 0.49599671D-01 0.53495795D+05 0.53495795D+05 0.53495795D+05 0.11447227D+01  1  2 12  3  7  1        2 0.216614198249D-04 0.100000000000D+01
-.884961875236D-07 0.000000000000D+00 -.253056806673D-07 0.820847767393D-08 0.000000000000D+00  7 21 -2 23 -13 13 23 -2 2 0.35153792D-01 0.49599671D-01 0.42390936D+05 0.42390936D+05 0.42390936D+05 0.11536557D+01  1  2  5  3  7  1        2 -.382259261794D-04 0.100000000000D+01
  </mgrwgt>
  </event>
  <event>
  8     66 0.55102590E-06 0.15742208E+03 0.75467711E-02 0.94324123E-01
        2 -1    0    0  501    0 0.00000000E+00 0.00000000E+00 0.72103936E+03 0.72103943E+03 0.32000000E+00 0.0000E+00 0.9000E+01
       -2 -1    0    0    0  501 0.00000000E+00 0.00000000E+00 -.30937452E+03 0.30937468E+03 0.32000000E+00 0.0000E+00 0.9000E+01
       25  2    1    2    0    0 0.14902683E+03 0.38954506E+03 0.27304512E+03 0.58164524E+03 0.29967183E+03 0.0000E+00 0.0000E+00
       23  2    1    2    0    0 -.14902683E+03 -.38954506E+03 0.13861972E+03 0.44876887E+03 0.90684784E+02 0.0000E+00 0.0000E+00
       23  1    3    3    0    0 -.26768442E+02 0.48454586E+02 0.91011941E+01 0.10706297E+03 0.91188000E+02 0.0000E+00 0.9000E+01
      -13  1    4    4    0    0 -.89982896E+02 -.17015947E+03 0.10451595E+03 0.21903142E+03 0.10565837E+00 0.0000E+00 0.9000E+01
       13  1    4    4    0    0 -.59043931E+02 -.21938558E+03 0.34103770E+02 0.22973746E+03 0.10565837E+00 0.0000E+00 0.9000E+01
       23  1    3    3    0    0 0.17579527E+03 0.34109047E+03 0.26394393E+03 0.47458227E+03 0.91188000E+02 0.0000E+00 0.9000E+01
#aMCatNLO 1  0  0  2  1 0.10094344D+03 0.00000000D+00  -5  7  0 0.00000000D+00 0.00000000D+00 0.00000000D+00 0.00000000D+00 0.00000000D+00
  <mgrwgt>
 0.2136172612D-03    9    2    0
 0.472304274406632D+03 0.000000000000000D+00 0.000000000000000D+00 0.472304274406632D+03
 0.472304274406632D+03 0.000000000000000D+00 0.000000000000000D+00 -.472304274406632D+03
 0.112821923741019D+03 -.267684418704434D+02 0.484545860316663D+02 -.367306240751898D+02
 0.193379013048785D+03 -.899829378068690D+02 -.170159404373843D+03 0.185550719348156D+02
 0.235743631388755D+03 -.590438892889541D+02 -.219385651647935D+03 -.629191125891145D+02
 0.402663980634705D+03 0.175795268966266D+03 0.341090469990112D+03 0.810946647294887D+02
 0.000000000000000D+00 -.000000000000000D+00 0.000000000000000D+00 -.000000000000000D+00
 0.488381955002405D+03 0.000000000000000D+00 0.000000000000000D+00 0.488381955002405D+03
 0.665259838855002D+03 0.000000000000000D+00 0.000000000000000D+00 -.665259838855002D+03
 0.107560428131791D+03 -.204546337655134D+02 0.385546828343837D+02 -.367306240751898D+02
 0.204640605547589D+03 -.785799399149812D+02 -.188039037934508D+03 0.185550719348156D+02
 0.253459467644621D+03 -.450285452045221D+02 -.241361382840041D+03 -.629191125891145D+02
 0.384326281791967D+03 0.198342017629146D+03 0.305737696281060D+03 0.810946647294887D+02
 0.203655010741441D+03 -.542788987441293D+02 0.851080416591060D+02 -.176877883852597D+03
0.814023287927D-05 0.000000000000D+00 0.000000000000D+00 0.735249865660D-06 0.000000000000D+00  7 2 -2 23 -13 13 23 21 0 0.11092915D+00 0.47596098D-01 0.21195328D+06 0.21195328D+06 0.21195328D+06 0.10958944D+01  1  2  2  2  7  2       -2 0.167505810423D-03 0.100000000000D+01
-.451875854216D-06 0.000000000000D+00 -.312606376289D-07 0.735249865660D-06 0.000000000000D+00  7 2 -2 23 -13 13 23 21 2 0.11092915D+00 0.47596098D-01 0.21195328D+06 0.21195328D+06 0.21195328D+06 0.10958944D+01  1  2  3  2  7  2       -2 -.111673366086D-04 0.100000000000D+01
0.518613190982D-06 0.000000000000D+00 0.000000000000D+00 0.735249865660D-06 0.000000000000D+00  7 2 -2 23 -13 13 23 21 2 0.11092915D+00 0.47596098D-01 0.21195328D+06 0.21195328D+06 0.21195328D+06 0.10958944D+01  1  2 15  2  7  2       -2 0.128166354084D-04 0.100000000000D+01
0.205699873037D-04 0.000000000000D+00 0.000000000000D+00 0.735249865660D-06 0.000000000000D+00  7 2 -2 23 -13 13 23 21 2 0.11092915D+00 0.67598547D-01 0.26370000D+06 0.26370000D+06 0.26370000D+06 0.10887203D+01  1  2 12  2  7  2       -2 0.243642719871D-03 0.100000000000D+01
-.204724412774D-04 0.000000000000D+00 0.000000000000D+00 0.735249865660D-06 0.000000000000D+00  7 2 -2 23 -13 13 23 21 2 0.11092915D+00 0.47596098D-01 0.21195328D+06 0.21195328D+06 0.21195328D+06 0.10958944D+01  1  2  4  2  7  2       -2 -.505941268629D-03 0.100000000000D+01
-.248557055723D-04 0.000000000000D+00 -.358939031182D-05 0.735249865660D-06 0.000000000000D+00  7 2 -2 23 -13 13 23 21 2 0.11092915D+00 0.68432693D-01 0.21195328D+06 0.21195328D+06 0.21195328D+06 0.10958944D+01  1  2  5  2  7  2       -2 -.292424496593D-03 0.100000000000D+01
0.247347636362D-04 0.000000000000D+00 0.336511162373D-05 0.735249865660D-06 0.000000000000D+00  7 2 -2 23 -13 13 23 21 2 0.11092915D+00 0.47596098D-01 0.21195328D+06 0.21195328D+06 0.21195328D+06 0.10958944D+01  1  2  6  2  7  2       -2 0.611277254323D-03 0.100000000000D+01
0.890127274452D-06 0.000000000000D+00 0.000000000000D+00 0.735249865660D-06 0.000000000000D+00  7 2 21 23 -13 13 23 2 2 0.11092915D+00 0.67598547D-01 0.26370000D+06 0.26370000D+06 0.26370000D+06 0.10887203D+01  1  2 12  4  7  2       -2 0.104487339947D-03 0.100000000000D+01
-.995577400021D-06 0.000000000000D+00 -.159228434106D-06 0.735249865660D-06 0.000000000000D+00  7 2 21 23 -13 13 23 2 2 0.11092915D+00 0.68432693D-01 0.21195328D+06 0.21195328D+06 0.21195328D+06 0.10958944D+01  1  2  5  4  7  2       -2 -.116579396987D-03 0.100000000000D+01
  </mgrwgt>
  </event>
  <event>
  8     66 0.55102590E-06 0.16355675E+03 0.75467711E-02 0.96646737E-01
        2 -1    0    0  501    0 0.00000000E+00 0.00000000E+00 0.32997301E+03 0.32997316E+03 0.32000000E+00 0.0000E+00 0.9000E+01
       -2 -1    0    0    0  501 0.00000000E+00 0.00000000E+00 -.56121762E+03 0.56121771E+03 0.32000000E+00 0.0000E+00 0.9000E+01
       25  2    1    2    0    0 0.20828227E+03 0.14393463E+03 -.41161992E+03 0.56858463E+03 0.29959782E+03 0.0000E+00 0.0000E+00
       23  2    1    2    0    0 -.20828227E+03 -.14393463E+03 0.18037531E+03 0.32260624E+03 0.86260373E+02 0.0000E+00 0.0000E+00
       23  1    3    3    0    0 0.21081867E+03 0.51032258E+02 -.35660553E+03 0.42723713E+03 0.91188000E+02 0.0000E+00 0.9000E+01
      -13  1    4    4    0    0 -.86394539E+02 -.41053282E+02 0.11662875E+03 0.15083655E+03 0.10565837E+00 0.0000E+00 0.9000E+01
       13  1    4    4    0    0 -.12188773E+03 -.10288135E+03 0.63746554E+02 0.17176968E+03 0.10565837E+00 0.0000E+00 0.9000E+01
       23  1    3    3    0    0 -.25364095E+01 0.92902372E+02 -.55014381E+02 0.14134751E+03 0.91188000E+02 0.0000E+00 0.9000E+01
#aMCatNLO 1  0  0  2  1 0.19899831D+03 0.00000000D+00  -5  7  0 0.00000000D+00 0.00000000D+00 0.00000000D+00 0.00000000D+00 0.00000000D+00
  <mgrwgt>
 0.2051362590D-03    9    2    0
 0.430333330211350D+03 0.000000000000000D+00 0.000000000000000D+00 0.430333330211350D+03
 0.430333330211350D+03 0.000000000000000D+00 0.000000000000000D+00 -.430333330211350D+03
 0.346576363912426D+03 0.210818674593921D+03 0.510322579428708D+02 -.254462413276446D+03
 0.187521984931537D+03 -.863944859112735D+02 -.410531898575838D+02 0.161292043322997D+03
 0.194989113989293D+03 -.121887779199909D+03 -.102881440315732D+03 0.112158517708661D+03
 0.131579197589444D+03 -.253640948273849D+01 0.929023722304449D+02 -.189881477552111D+02
 0.000000000000000D+00 -.000000000000000D+00 -.000000000000000D+00 -.000000000000000D+00
 0.506358136737385D+03 0.000000000000000D+00 0.000000000000000D+00 0.506358136737385D+03
 0.594768367354322D+03 0.000000000000000D+00 0.000000000000000D+00 -.594768367354322D+03
 0.375212567059353D+03 0.224077453122578D+03 0.132315510681459D+03 -.254462413276446D+03
 0.179885038198141D+03 -.796454653312671D+02 0.321839098283654D+00 0.161292043322997D+03
 0.172118894112724D+03 -.115144251325400D+03 -.615400845197359D+02 0.112158517708661D+03
 0.156156256743472D+03 0.274909781744432D+01 0.125305298699415D+03 -.189881477552111D+02
 0.217753747978017D+03 -.320368342833556D+02 -.196402563959421D+03 -.884102306169365D+02
0.136033695022D-04 0.000000000000D+00 0.000000000000D+00 0.420852047875D-07 0.000000000000D+00  7 2 -2 23 -13 13 23 21 0 0.50765097D-01 0.86341191D-01 0.96302529D+05 0.96302529D+05 0.96302529D+05 0.11230672D+01  1  2  2  2  7  2       -2 0.196871134105D-03 0.100000000000D+01
-.657527535780D-06 0.000000000000D+00 -.522405207380D-07 0.420852047875D-07 0.000000000000D+00  7 2 -2 23 -13 13 23 21 2 0.50765097D-01 0.86341191D-01 0.96302529D+05 0.96302529D+05 0.96302529D+05 0.11230672D+01  1  2  3  2  7  2       -2 -.120022041581D-04 0.100000000000D+01
0.866912676495D-06 0.000000000000D+00 0.000000000000D+00 0.420852047875D-07 0.000000000000D+00  7 2 -2 23 -13 13 23 21 2 0.50765097D-01 0.86341191D-01 0.96302529D+05 0.96302529D+05 0.96302529D+05 0.11230672D+01  1  2 15  2  7  2       -2 0.158242238756D-04 0.100000000000D+01
0.247743624196D-05 0.000000000000D+00 0.000000000000D+00 0.420852047875D-07 0.000000000000D+00  7 2 -2 23 -13 13 23 21 2 0.50765097D-01 0.12463080D+00 0.17637536D+06 0.17637536D+06 0.17637536D+06 0.11020430D+01  1  2 12  2  7  2       -2 0.176121370114D-04 0.100000000000D+01
-.768846254031D-05 0.000000000000D+00 0.000000000000D+00 0.420852047875D-07 0.000000000000D+00  7 2 -2 23 -13 13 23 21 2 0.50765097D-01 0.86341191D-01 0.96302529D+05 0.96302529D+05 0.96302529D+05 0.11230672D+01  1  2  4  2  7  2       -2 -.140341646622D-03 0.100000000000D+01
-.853507202943D-05 0.000000000000D+00 -.505607857517D-05 0.420852047875D-07 0.000000000000D+00  7 2 -2 23 -13 13 23 21 2 0.50765097D-01 0.13429927D+00 0.96302529D+05 0.96302529D+05 0.96302529D+05 0.11230672D+01  1  2  5  2  7  2       -2 -.528095516783D-04 0.100000000000D+01
0.102120763673D-04 0.000000000000D+00 0.459988525923D-05 0.420852047875D-07 0.000000000000D+00  7 2 -2 23 -13 13 23 21 2 0.50765097D-01 0.86341191D-01 0.96302529D+05 0.96302529D+05 0.96302529D+05 0.11230672D+01  1  2  6  2  7  2       -2 0.186406528654D-03 0.100000000000D+01
0.110765215315D-06 0.000000000000D+00 0.000000000000D+00 0.420852047875D-07 0.000000000000D+00  7 2 21 23 -13 13 23 2 2 0.50765097D-01 0.12463080D+00 0.17637536D+06 0.17637536D+06 0.17637536D+06 0.11020430D+01  1  2 12  4  7  2       -2 0.709144310178D-05 0.100000000000D+01
-.240788543584D-06 0.000000000000D+00 -.259096858863D-06 0.420852047875D-07 0.000000000000D+00  7 2 21 23 -13 13 23 2 2 0.50765097D-01 0.13429927D+00 0.96302529D+05 0.96302529D+05 0.96302529D+05 0.11230672D+01  1  2  5  4  7  2       -2 -.135158053235D-04 0.100000000000D+01
  </mgrwgt>
  </event>
  <event>
  8     66 0.55102590E-06 0.19803936E+03 0.75467711E-02 0.92701333E-01
        2 -1    0    0  501    0 0.00000000E+00 0.00000000E+00 0.13158827E+04 0.13158827E+04 0.32000000E+00 0.0000E+00 0.9000E+01
       -2 -1    0    0    0  501 0.00000000E+00 0.00000000E+00 -.23736051E+03 0.23736073E+03 0.32000000E+00 0.0000E+00 0.9000E+01
       25  2    1    2    0    0 0.21364450E+03 -.32202643E+03 0.10290881E+03 0.50003847E+03 0.30017205E+03 0.0000E+00 0.0000E+00
       23  2    1    2    0    0 -.21364450E+03 0.32202643E+03 0.97561334E+03 0.10532050E+04 0.89857189E+02 0.0000E+00 0.0000E+00
       23  1    3    3    0    0 0.13457340E+03 -.37154771E+02 0.92032688E+02 0.19046192E+03 0.91188000E+02 0.0000E+00 0.9000E+01
      -11  1    4    4    0    0 -.37214997E+02 0.34549365E+02 0.21903722E+03 0.22484643E+03 0.51099893E-03 0.0000E+00 0.9000E+01
       11  1    4    4    0    0 -.17642950E+03 0.28747706E+03 0.75657612E+03 0.82835853E+03 0.51099893E-03 0.0000E+00 0.9000E+01
       23  1    3    3    0    0 0.79071100E+02 -.28487165E+03 0.10876126E+02 0.30957655E+03 0.91188000E+02 0.0000E+00 0.9000E+01
#aMCatNLO 1  0  0  1  2 0.29141057D+03 0.00000000D+00  -5  7  0 0.00000000D+00 0.00000000D+00 0.00000000D+00 0.00000000D+00 0.00000000D+00
  <mgrwgt>
 0.4137645253D-03    9    2    0
 0.558872777571574D+03 0.000000000000000D+00 0.000000000000000D+00 0.558872777571574D+03
 0.558872777571574D+03 0.000000000000000D+00 0.000000000000000D+00 -.558872777571574D+03
 0.175866890239429D+03 0.134573397255890D+03 -.371547705471765D+02 -.558877045071877D+02
 0.101100604175084D+03 -.372149969409337D+02 0.345493654037591D+02 0.874226373283875D+02
 0.421078248335829D+03 -.176429500311683D+03 0.287477059608376D+03 0.252064402167903D+03
 0.419699812392806D+03 0.790710999967266D+02 -.284871654464958D+03 -.283599334989103D+03
 0.000000000000000D+00 -.000000000000000D+00 -.000000000000000D+00 0.000000000000000D+00
 0.812846584266338D+03 0.000000000000000D+00 0.000000000000000D+00 0.812846584266338D+03
 0.667782444765204D+03 0.000000000000000D+00 0.000000000000000D+00 -.667782444765204D+03
 0.216701734099999D+03 0.184901747957330D+03 -.365006617089055D+02 -.558877045071877D+02
 0.948955360999075D+02 -.120877660001353D+02 0.348759396628115D+02 0.874226373283875D+02
 0.390134061712025D+03 -.724299060952247D+02 0.288828724282570D+03 0.252064402167903D+03
 0.453376995702479D+03 0.191001888813718D+03 -.283416909431206D+03 -.283599334989103D+03
 0.325520701417132D+03 -.291385964675687D+03 -.378709280526954D+01 0.145064139501135D+03
0.278736583949D-04 0.000000000000D+00 0.000000000000D+00 0.116684544815D-05 0.000000000000D+00  7 2 -2 23 -11 11 23 21 0 0.20244351D+00 0.36517021D-01 0.18671677D+06 0.18671677D+06 0.18671677D+06 0.11001251D+01  1  2  2  1  7  1        2 0.404209938245D-03 0.100000000000D+01
-.142393995934D-05 0.000000000000D+00 -.107042187539D-06 0.116684544815D-05 0.000000000000D+00  7 2 -2 23 -11 11 23 21 2 0.20244351D+00 0.36517021D-01 0.18671677D+06 0.18671677D+06 0.18671677D+06 0.11001251D+01  1  2  3  1  7  1        2 -.249912980008D-04 0.100000000000D+01
0.175252027918D-05 0.000000000000D+00 0.000000000000D+00 0.116684544815D-05 0.000000000000D+00  7 2 -2 23 -11 11 23 21 2 0.20244351D+00 0.36517021D-01 0.18671677D+06 0.18671677D+06 0.18671677D+06 0.11001251D+01  1  2 15  1  7  1        2 0.307581483770D-04 0.100000000000D+01
0.375334111500D-05 0.000000000000D+00 0.000000000000D+00 0.116684544815D-05 0.000000000000D+00  7 2 -2 23 -11 11 23 21 2 0.30697819D+00 0.36517021D-01 0.35354372D+06 0.35354372D+06 0.35354372D+06 0.10793143D+01  1  2 12  1  7  1        2 0.262462723752D-04 0.100000000000D+01
-.146129472712D-04 0.000000000000D+00 0.000000000000D+00 0.116684544815D-05 0.000000000000D+00  7 2 -2 23 -11 11 23 21 2 0.20244351D+00 0.36517021D-01 0.18671677D+06 0.18671677D+06 0.18671677D+06 0.11001251D+01  1  2  4  1  7  1        2 -.256469043888D-03 0.100000000000D+01
-.167768361168D-04 0.000000000000D+00 -.925440553198D-05 0.116684544815D-05 0.000000000000D+00  7 2 -2 23 -11 11 23 21 2 0.31995026D+00 0.36517021D-01 0.18671677D+06 0.18671677D+06 0.18671677D+06 0.11001251D+01  1  2  5  1  7  1        2 -.113009607041D-03 0.100000000000D+01
0.197941909351D-04 0.000000000000D+00 0.836300720841D-05 0.116684544815D-05 0.000000000000D+00  7 2 -2 23 -11 11 23 21 2 0.20244351D+00 0.36517021D-01 0.18671677D+06 0.18671677D+06 0.18671677D+06 0.11001251D+01  1  2  6  1  7  1        2 0.347404060893D-03 0.100000000000D+01
0.184002133715D-06 0.000000000000D+00 0.000000000000D+00 0.116684544815D-05 0.000000000000D+00  7 21 -2 23 -11 11 23 -2 2 0.30697819D+00 0.36517021D-01 0.35354372D+06 0.35354372D+06 0.35354372D+06 0.10793143D+01  1  2 12  3  7  1        2 0.254351762847D-06 0.100000000000D+01
-.507051285620D-06 0.000000000000D+00 -.487156700328D-06 0.116684544815D-05 0.000000000000D+00  7 21 -2 23 -11 11 23 -2 2 0.31995026D+00 0.36517021D-01 0.18671677D+06 0.18671677D+06 0.18671677D+06 0.11001251D+01  1  2  5  3  7  1        2 -.638297453451D-06 0.100000000000D+01
  </mgrwgt>
  </event>
  <event>
  9     66 0.55102590E-06 0.22878633E+03 0.75467711E-02 0.10205988E+00
        2 -1    0    0  501    0 0.00000000E+00 0.00000000E+00 0.32067610E+04 0.32067610E+04 0.32000000E+00 0.0000E+00 0.9000E+01
       21 -1    0    0  502  501 0.00000000E+00 0.00000000E+00 -.76180410E+02 0.76184101E+02 0.75000000E+00 0.0000E+00 0.9000E+01
       25  2    1    2    0    0 -.73932573E+02 -.21876046E+03 0.26039941E+04 0.26311585E+04 0.29814092E+03 0.0000E+00 0.0000E+00
       23  2    1    2    0    0 0.19402257E+02 0.15660552E+03 0.81862949E+02 0.19944163E+03 0.90408433E+02 0.0000E+00 0.0000E+00
       23  1    3    3    0    0 -.18053981E+02 -.93710099E+02 0.40392800E+03 0.42494777E+03 0.91188000E+02 0.0000E+00 0.9000E+01
      -11  1    4    4    0    0 0.36603985E+02 0.94423712E+02 0.88621431E+02 0.13457135E+03 0.51099893E-03 0.0000E+00 0.9000E+01
       11  1    4    4    0    0 -.17201728E+02 0.62181803E+02 -.67584827E+01 0.64870279E+02 0.51099893E-03 0.0000E+00 0.9000E+01
       23  1    3    3    0    0 -.55878592E+02 -.12505036E+03 0.22000661E+04 0.22062108E+04 0.91188000E+02 0.0000E+00 0.9000E+01
        2  1    1    2  502    0 0.54530316E+02 0.62154946E+02 0.44472355E+03 0.45234493E+03 0.32000000E+00 0.0000E+00 0.9000E+01
#aMCatNLO 2  0  0  2  2 0.82684900D+02 0.00000000D+00  -5  7  0 0.00000000D+00 0.00000000D+00 0.00000000D+00 0.00000000D+00 0.00000000D+00
  <mgrwgt>
 0.3785686032D-04    1    2    0
 0.444868691616566D+03 0.000000000000000D+00 0.000000000000000D+00 0.444868691616566D+03
 0.444868691616566D+03 0.000000000000000D+00 0.000000000000000D+00 -.444868691616566D+03
 0.124930513555085D+03 -.101970708290006D+02 -.847546062518871D+02 0.224907508393156D+01
 0.169441132717602D+03 0.466750166155329D+02 0.105902912826997D+03 -.123759093949985D+03
 0.230069048780039D+03 -.326188775163667D+01 0.780707630697606D+02 -.216393353060007D+03
 0.365296688180406D+03 -.332160580348957D+02 -.992190696448707D+02 0.337903371926061D+03
 0.000000000000000D+00 0.000000000000000D+00 0.000000000000000D+00 0.000000000000000D+00
 0.519440119051575D+03 0.000000000000000D+00 0.000000000000000D+00 0.519440119051575D+03
 0.470310576883620D+03 0.000000000000000D+00 0.000000000000000D+00 -.470310576883620D+03
 0.132014538944596D+03 -.180539809950130D+02 -.937100986033670D+02 0.224907508393156D+01
 0.159912483816360D+03 0.366039848802093D+02 0.944237122543152D+02 -.123759093949985D+03
 0.225806464298704D+03 -.172017278781516D+02 0.621818030338060D+02 -.216393353060007D+03
 0.375837665038286D+03 -.558785922130631D+02 -.125050363017127D+03 0.337903371926061D+03
 0.961795438372491D+02 0.545303162060184D+02 0.621549463323726D+02 0.491295421679547D+02
0.243597002384D-06 0.000000000000D+00 0.000000000000D+00 0.679684071360D-07 0.746504386116D-12  7 2 21 23 -11 11 23 2 2 0.49334786D+00 0.11720342D-01 0.74259938D+05 0.74259938D+05 0.74259938D+05 0.11324850D+01  1  2  1  4  7  2       -2 0.378568603234D-04 0.100000000000D+01
  </mgrwgt>
  </event>
  <event>
  8     66 0.55102590E-06 0.43017662E+03 0.75467711E-02 0.85583374E-01
        2 -1    0    0  501    0 0.00000000E+00 0.00000000E+00 0.23243618E+04 0.23243618E+04 0.32000000E+00 0.0000E+00 0.9000E+01
       -2 -1    0    0    0  501 0.00000000E+00 0.00000000E+00 -.28492156E+03 0.28492174E+03 0.32000000E+00 0.0000E+00 0.9000E+01
       25  2    1    2    0    0 0.42457947E+02 -.38319704E+03 0.21448477E+04 0.21997150E+04 0.29955244E+03 0.0000E+00 0.0000E+00
       23  2    1    2    0    0 -.42457947E+02 0.38319704E+03 -.10540748E+03 0.40956857E+03 0.89403728E+02 0.0000E+00 0.0000E+00
       23  1    3    3    0    0 0.12512106E+03 -.19773055E+03 0.13989721E+04 0.14213341E+04 0.91188000E+02 0.0000E+00 0.9000E+01
      -13  1    4    4    0    0 -.26595985E+02 0.11804341E+03 -.74624018E+02 0.14216310E+03 0.10565837E+00 0.0000E+00 0.9000E+01
       13  1    4    4    0    0 -.15861962E+02 0.26515363E+03 -.30783463E+02 0.26740547E+03 0.10565837E+00 0.0000E+00 0.9000E+01
       23  1    3    3    0    0 -.82663110E+02 -.18546649E+03 0.74587564E+03 0.77838084E+03 0.91188000E+02 0.0000E+00 0.9000E+01
#aMCatNLO 1  0  0  1  1 0.10815219D+04 0.00000000D+00  -5  7  0 0.00000000D+00 0.00000000D+00 0.00000000D+00 0.00000000D+00 0.00000000D+00
  <mgrwgt>
 0.1911775415D-03    5    2    0
 0.813794234828134D+03 0.000000000000000D+00 0.000000000000000D+00 0.813794234828134D+03
 0.813794234828134D+03 0.000000000000000D+00 0.000000000000000D+00 -.813794234828134D+03
 0.525651237468090D+03 0.125121056567347D+03 -.197730552295078D+03 0.461780599419560D+03
 0.321417086327609D+03 -.265960000681967D+02 0.118043204614614D+03 -.297770713818560D+03
 0.467266796930147D+03 -.158619469505456D+02 0.265153838012882D+03 -.384421774018246D+03
 0.313253348930423D+03 -.826631095486044D+02 -.185466490332418D+03 0.220411888417245D+03
 0.000000000000000D+00 -.000000000000000D+00 0.000000000000000D+00 0.000000000000000D+00
 0.222392367418337D+04 0.000000000000000D+00 0.000000000000000D+00 0.222392367418337D+04
 0.121160900615162D+04 0.000000000000000D+00 0.000000000000000D+00 -.121160900615162D+04
 0.770930197219204D+03 0.458133471186547D+03 -.403596974987075D+03 0.461780599419560D+03
 0.329630342940270D+03 0.140618237812981D+03 0.146722927069290D+02 -.297770713818560D+03
 0.459409267460325D+03 0.222144417722503D+03 0.118019627027997D+03 -.384421774018246D+03
 0.394188293386283D+03 0.990353501141913D+02 -.297791467592498D+03 0.220411888417245D+03
 0.148137457932890D+04 -.919931476836222D+03 0.568696522844647D+03 0.101231466803175D+04
0.634978701527D-04 0.000000000000D+00 0.000000000000D+00 0.963651610627D-06 0.000000000000D+00  7 2 -2 23 -13 13 23 21 0 0.35759414D+00 0.43834102D-01 0.18505192D+06 0.18505192D+06 0.18505192D+06 0.11004259D+01  1  2  2  1  7  1        2 0.183832219995D-03 0.100000000000D+01
-.178447055244D-05 0.000000000000D+00 -.243848540760D-06 0.963651610627D-06 0.000000000000D+00  7 2 -2 23 -13 13 23 21 2 0.35759414D+00 0.43834102D-01 0.18505192D+06 0.18505192D+06 0.18505192D+06 0.11004259D+01  1  2  3  1  7  1        2 -.625595241620D-05 0.100000000000D+01
0.387967156631D-05 0.000000000000D+00 0.000000000000D+00 0.963651610627D-06 0.000000000000D+00  7 2 -2 23 -13 13 23 21 2 0.35759414D+00 0.43834102D-01 0.18505192D+06 0.18505192D+06 0.18505192D+06 0.11004259D+01  1  2 15  1  7  1        2 0.136012559446D-04 0.100000000000D+01
0.658910254762D-05 0.000000000000D+00 -.137804065682D-04 0.963651610627D-06 0.000000000000D+00  7 2 -2 23 -13 13 23 21 2 0.98073238D+00 0.43834102D-01 0.18505192D+06 0.18505192D+06 0.18505192D+06 0.11004259D+01  1  2  5  1  7  1        2 0.179620597698D-10 0.100000000000D+01
0.153228971405D-05 0.000000000000D+00 -.155529672037D-05 0.963651610627D-06 0.000000000000D+00  7 21 -2 23 -13 13 23 -2 2 0.98073238D+00 0.43834102D-01 0.18505192D+06 0.18505192D+06 0.18505192D+06 0.11004259D+01  1  2  5  3  7  1        2 0.219918405726D-13 0.100000000000D+01
  </mgrwgt>
  </event>
  <event>
  9     66 0.55102590E-06 0.34621168E+03 0.75467711E-02 0.97320673E-01
        2 -1    0    0  502    0 0.00000000E+00 0.00000000E+00 0.98181566E+03 0.98181571E+03 0.32000000E+00 0.0000E+00 0.9000E+01
       -2 -1    0    0    0  501 0.00000000E+00 0.00000000E+00 -.19904528E+03 0.19904554E+03 0.32000000E+00 0.0000E+00 0.9000E+01
       25  2    1    2    0    0 -.69814933E+02 -.24136181E+03 0.29466910E+03 0.48942701E+03 0.29929797E+03 0.0000E+00 0.0000E+00
       23  2    1    2    0    0 -.19877249E+01 0.30214421E+03 0.50576792E+03 0.59571175E+03 0.88182950E+02 0.0000E+00 0.0000E+00
       23  1    3    3    0    0 -.41097503E+02 -.27224341E+03 0.22681462E+03 0.36819234E+03 0.91188000E+02 0.0000E+00 0.9000E+01
      -13  1    4    4    0    0 0.20994475E+02 0.26282394E+03 0.46518584E+03 0.53471027E+03 0.10565837E+00 0.0000E+00 0.9000E+01
       13  1    4    4    0    0 -.22982200E+02 0.39320274E+02 0.40582072E+02 0.61001485E+02 0.10565837E+00 0.0000E+00 0.9000E+01
       23  1    3    3    0    0 -.28717430E+02 0.30881598E+02 0.67854480E+02 0.12123467E+03 0.91188000E+02 0.0000E+00 0.9000E+01
       21  1    1    2  502  501 0.71802658E+02 -.60782402E+02 -.17666638E+02 0.95722488E+02 0.75000000E+00 0.0000E+00 0.9000E+01
#aMCatNLO 2  0  0  1  2 0.94075088D+02 0.00000000D+00  -5  7  0 0.00000000D+00 0.00000000D+00 0.00000000D+00 0.00000000D+00 0.00000000D+00
  <mgrwgt>
 0.2055010345D-04    1    2    0
 0.363309991977091D+03 0.000000000000000D+00 0.000000000000000D+00 0.363309991977091D+03
 0.363309991977091D+03 0.000000000000000D+00 0.000000000000000D+00 -.363309991977091D+03
 0.318716341030113D+03 -.107765740915091D+02 -.297910684818115D+03 -.663169964464251D+02
 0.266185212190072D+03 0.480521033856814D+02 0.239919481219799D+03 0.104805558440896D+03
 0.408346664607957D+02 -.187091743879026D+02 0.357026966443990D+02 -.653867196038351D+01
 0.100883764273200D+03 -.185663549062697D+02 0.222885069539173D+02 -.319498900340870D+02
 0.000000000000000D+00 0.000000000000000D+00 -.000000000000000D+00 -.000000000000000D+00
 0.381506667876858D+03 0.000000000000000D+00 0.000000000000000D+00 0.381506667876858D+03
 0.512245548204259D+03 0.000000000000000D+00 0.000000000000000D+00 -.512245548204259D+03
 0.297520876341310D+03 -.410975026143517D+02 -.272243405385860D+03 -.663169964464251D+02
 0.283727978883113D+03 0.209945383924127D+02 0.262824257401552D+03 0.104805558440896D+03
 0.460108393971008D+02 -.229822632267747D+02 0.393199527974734D+02 -.653867196038351D+01
 0.105424905448522D+03 -.287174302583199D+02 0.308815976108432D+02 -.319498900340870D+02
 0.161067616011072D+03 0.718026577070337D+02 -.607824024240095D+02 -.130738880327401D+03
0.535614036008D-06 0.000000000000D+00 0.000000000000D+00 0.342149085020D-07 0.267306551045D-10  7 2 -2 23 -13 13 23 21 2 0.15104825D+00 0.30622307D-01 0.15752291D+06 0.15752291D+06 0.15752291D+06 0.11058787D+01  1  2  1  1  7  1        2 0.205501034519D-04 0.100000000000D+01
  </mgrwgt>
  </event>
  <event>
  8     66 0.55102590E-06 0.16489444E+03 0.75467711E-02 0.98508382E-01
        2 -1    0    0  501    0 0.00000000E+00 0.00000000E+00 0.14671718E+04 0.14671718E+04 0.32000000E+00 0.0000E+00 0.9000E+01
       -2 -1    0    0    0  501 0.00000000E+00 0.00000000E+00 -.11711357E+03 0.11711401E+03 0.32000000E+00 0.0000E+00 0.9000E+01
       25  2    1    2    0    0 -.92945259E+02 -.21658825E+03 0.12620747E+04 0.13167221E+04 0.29219023E+03 0.0000E+00 0.0000E+00
       23  2    1    2    0    0 0.92945259E+02 0.21658825E+03 0.87983513E+02 0.26756377E+03 0.91104245E+02 0.0000E+00 0.0000E+00
       23  1    3    3    0    0 -.97144788E+02 -.26646555E+02 0.76259145E+03 0.77460191E+03 0.91188000E+02 0.0000E+00 0.9000E+01
      -13  1    4    4    0    0 0.28019114E+02 0.10644477E+03 -.38626246E+01 0.11013851E+03 0.10565837E+00 0.0000E+00 0.9000E+01
       13  1    4    4    0    0 0.64926145E+02 0.11014348E+03 0.91846137E+02 0.15742527E+03 0.10565837E+00 0.0000E+00 0.9000E+01
       23  1    3    3    0    0 0.41995286E+01 -.18994169E+03 0.49948325E+03 0.54212015E+03 0.91188000E+02 0.0000E+00 0.9000E+01
#aMCatNLO 1  0  0  1  2 0.11561225D+03 0.00000000D+00  -5  7  0 0.00000000D+00 0.00000000D+00 0.00000000D+00 0.00000000D+00 0.00000000D+00
  <mgrwgt>
 0.3157267535D-02    9    2    0
 0.414519120519100D+03 0.000000000000000D+00 0.000000000000000D+00 0.414519120519100D+03
 0.414519120519100D+03 0.000000000000000D+00 0.000000000000000D+00 -.414519120519100D+03
 0.238406347146886D+03 -.971447878865800D+02 -.266465554159255D+02 0.195895855716396D+03
 0.216764084220019D+03 0.280190644220800D+02 0.106444763195657D+03 -.186738085630316D+03
 0.151270360672448D+03 0.649261949096008D+02 0.110143484332009D+03 -.808438253160849D+02
 0.222597448998846D+03 0.419952855489925D+01 -.189941692111740D+03 0.716860552300051D+02
 0.000000000000000D+00 -.000000000000000D+00 -.000000000000000D+00 0.000000000000000D+00
 0.502162296218849D+03 0.000000000000000D+00 0.000000000000000D+00 0.502162296218849D+03
 0.458485743528364D+03 0.000000000000000D+00 0.000000000000000D+00 -.458485743528364D+03
 0.233906100846819D+03 -.894123088191274D+02 0.520244309303415D+01 0.195895855716396D+03
 0.234208574886826D+03 0.354021784207684D+02 0.136854775907554D+03 -.186738085630316D+03
 0.169796618702858D+03 0.701825537199933D+02 0.131793690230322D+03 -.808438253160849D+02
 0.199149394586580D+03 0.111041711355495D+02 -.161502436170958D+03 0.716860552300051D+02
 0.123587350724131D+03 -.272765944571838D+02 -.112348473059953D+03 0.436765526904852D+02
0.558812689279D-04 0.000000000000D+00 0.000000000000D+00 0.563513889545D-08 0.000000000000D+00  7 2 -2 23 -13 13 23 21 0 0.22571877D+00 0.18017509D-01 0.85422052D+05 0.85422052D+05 0.85422052D+05 0.11273811D+01  1  2  2  1  7  1        2 0.230633936249D-02 0.100000000000D+01
-.264360210442D-05 0.000000000000D+00 -.214598786559D-06 0.563513889545D-08 0.000000000000D+00  7 2 -2 23 -13 13 23 21 2 0.22571877D+00 0.18017509D-01 0.85422052D+05 0.85422052D+05 0.85422052D+05 0.11273811D+01  1  2  3  1  7  1        2 -.138673851097D-03 0.100000000000D+01
0.340683604383D-05 0.000000000000D+00 0.000000000000D+00 0.563513889545D-08 0.000000000000D+00  7 2 -2 23 -13 13 23 21 2 0.22571877D+00 0.18017509D-01 0.85422052D+05 0.85422052D+05 0.85422052D+05 0.11273811D+01  1  2 15  1  7  1        2 0.178710356398D-03 0.100000000000D+01
0.381697620978D-04 0.000000000000D+00 0.000000000000D+00 0.563513889545D-08 0.000000000000D+00  7 2 -2 23 -13 13 23 21 2 0.28341556D+00 0.18017509D-01 0.12956516D+06 0.12956516D+06 0.12956516D+06 0.11126063D+01  1  2 12  1  7  1        2 0.121456490059D-02 0.100000000000D+01
-.446770620830D-04 0.000000000000D+00 0.000000000000D+00 0.563513889545D-08 0.000000000000D+00  7 2 -2 23 -13 13 23 21 2 0.22571877D+00 0.18017509D-01 0.85422052D+05 0.85422052D+05 0.85422052D+05 0.11273811D+01  1  2  4  1  7  1        2 -.234359786762D-02 0.100000000000D+01
-.819265561472D-04 0.000000000000D+00 -.285973580896D-04 0.563513889545D-08 0.000000000000D+00  7 2 -2 23 -13 13 23 21 2 0.28761558D+00 0.18017509D-01 0.85422052D+05 0.85422052D+05 0.85422052D+05 0.11273811D+01  1  2  5  1  7  1        2 -.262114706745D-02 0.100000000000D+01
0.871060874055D-04 0.000000000000D+00 0.277777184779D-04 0.563513889545D-08 0.000000000000D+00  7 2 -2 23 -13 13 23 21 2 0.22571877D+00 0.18017509D-01 0.85422052D+05 0.85422052D+05 0.85422052D+05 0.11273811D+01  1  2  6  1  7  1        2 0.456927181831D-02 0.100000000000D+01
0.120482786345D-05 0.000000000000D+00 0.000000000000D+00 0.563513889545D-08 0.000000000000D+00  7 21 -2 23 -13 13 23 -2 2 0.28341556D+00 0.18017509D-01 0.12956516D+06 0.12956516D+06 0.12956516D+06 0.11126063D+01  1  2 12  3  7  1        2 0.944023772317D-05 0.100000000000D+01
-.225421356807D-05 0.000000000000D+00 -.945795026706D-06 0.563513889545D-08 0.000000000000D+00  7 21 -2 23 -13 13 23 -2 2 0.28761558D+00 0.18017509D-01 0.85422052D+05 0.85422052D+05 0.85422052D+05 0.11273811D+01  1  2  5  3  7  1        2 -.176403545920D-04 0.100000000000D+01
  </mgrwgt>
  </event>
  <event>
  8     66 0.55102590E-06 0.74247158E+03 0.75467711E-02 0.84030549E-01
        2 -1    0    0  501    0 0.00000000E+00 0.00000000E+00 0.10344446E+04 0.10344447E+04 0.32000000E+00 0.0000E+00 0.9000E+01
       -2 -1    0    0    0  501 0.00000000E+00 0.00000000E+00 -.14527295E+04 0.14527295E+04 0.32000000E+00 0.0000E+00 0.9000E+01
       25  2    1    2    0    0 0.11589821E+04 0.30701526E+03 -.34258923E+03 0.12821030E+04 0.29819947E+03 0.0000E+00 0.0000E+00
       23  2    1    2    0    0 -.11589821E+04 -.30701526E+03 -.75695605E+02 0.12050712E+04 0.94703681E+02 0.0000E+00 0.0000E+00
       23  1    3    3    0    0 0.41207356E+03 0.12775443E+02 -.17444972E+03 0.45685423E+03 0.91188000E+02 0.0000E+00 0.9000E+01
      -11  1    4    4    0    0 -.86165877E+02 -.15351786E+01 0.75425537E+01 0.86508989E+02 0.51099893E-03 0.0000E+00 0.9000E+01
       11  1    4    4    0    0 -.10728162E+04 -.30548008E+03 -.83238158E+02 0.11185622E+04 0.51099893E-03 0.0000E+00 0.9000E+01
       23  1    3    3    0    0 0.74690856E+03 0.29423982E+03 -.16813950E+03 0.82524881E+03 0.91188000E+02 0.0000E+00 0.9000E+01
#aMCatNLO 1  0  0  1  2 0.40558763D+03 0.00000000D+00  -5  7  0 0.00000000D+00 0.00000000D+00 0.00000000D+00 0.00000000D+00 0.00000000D+00
  <mgrwgt>
 0.5333375242D-03    7    2    0
 0.122587451953044D+04 0.000000000000000D+00 0.000000000000000D+00 0.122587451953044D+04
 0.122587451953044D+04 0.000000000000000D+00 0.000000000000000D+00 -.122587451953044D+04
 0.433692992556679D+03 0.412073555746809D+03 0.127754426580484D+02 -.990279413490923D+02
 0.890457623430552D+02 -.861658766225991D+02 -.153517860103884D+01 0.224105493858983D+02
 0.112052322685666D+04 -.107281623675686D+04 -.305480080219795D+03 0.106393348781851D+03
 0.808487057304485D+03 0.746908557632652D+03 0.294239816162786D+03 -.297759568186570D+02
 0.000000000000000D+00 0.000000000000000D+00 0.000000000000000D+00 0.000000000000000D+00
 0.298207939185971D+04 0.000000000000000D+00 0.000000000000000D+00 0.298207939185971D+04
 0.126617661946728D+04 0.000000000000000D+00 0.000000000000000D+00 -.126617661946728D+04
 0.377033158170986D+03 0.351834518269763D+03 -.156425574134247D+02 -.990279413490923D+02
 0.103256029359769D+03 -.100454394177994D+03 -.827584229549386D+01 0.224105493858983D+02
 0.131782267542864D+04 -.125399160658789D+04 -.390950265143800D+03 0.106393348781851D+03
 0.686958493877755D+03 0.635793108202909D+03 0.241820671002318D+03 -.297759568186570D+02
 0.176318565448985D+04 0.366818374293209D+03 0.173047993850400D+03 0.171590277239243D+04
0.232109288318D-02 0.000000000000D+00 0.000000000000D+00 0.967873010986D-07 0.000000000000D+00  7 2 -2 23 -11 11 23 21 0 0.15914534D+00 0.22349685D+00 0.14784307D+07 0.14784307D+07 0.14784307D+07 0.10367445D+01  1  2  2  1  7  1        2 0.554305126317D-03 0.100000000000D+01
-.128939155104D-03 0.000000000000D+00 -.891360782919D-05 0.967873010986D-07 0.000000000000D+00  7 2 -2 23 -11 11 23 21 2 0.15914534D+00 0.22349685D+00 0.14784307D+07 0.14784307D+07 0.14784307D+07 0.10367445D+01  1  2  3  1  7  1        2 -.330966975831D-04 0.100000000000D+01
0.148285856825D-03 0.000000000000D+00 0.000000000000D+00 0.967873010986D-07 0.000000000000D+00  7 2 -2 23 -11 11 23 21 2 0.15914534D+00 0.22349685D+00 0.14784307D+07 0.14784307D+07 0.14784307D+07 0.10367445D+01  1  2 15  1  7  1        2 0.380626982954D-04 0.100000000000D+01
0.933092631100D-02 0.000000000000D+00 0.000000000000D+00 0.967873010986D-07 0.000000000000D+00  7 2 -2 23 -11 11 23 21 2 0.38564543D+00 0.22349685D+00 0.20592422D+07 0.20592422D+07 0.20592422D+07 0.10275987D+01  1  2 12  1  7  1        2 0.324508917768D-03 0.100000000000D+01
-.993976406866D-02 0.000000000000D+00 -.651101996134D-03 0.967873010986D-07 0.000000000000D+00  7 2 -2 23 -11 11 23 21 2 0.38964804D+00 0.22349685D+00 0.14784307D+07 0.14784307D+07 0.14784307D+07 0.10367445D+01  1  2  5  1  7  1        2 -.350324849908D-03 0.100000000000D+01
0.904813922201D-03 0.000000000000D+00 0.000000000000D+00 0.967873010986D-07 0.000000000000D+00  7 21 -2 23 -11 11 23 -2 2 0.38564543D+00 0.22349685D+00 0.20592422D+07 0.20592422D+07 0.20592422D+07 0.10275987D+01  1  2 12  3  7  1        2 0.330858342713D-05 0.100000000000D+01
-.935938884857D-03 0.000000000000D+00 -.639700988771D-04 0.967873010986D-07 0.000000000000D+00  7 21 -2 23 -11 11 23 -2 2 0.38964804D+00 0.22349685D+00 0.14784307D+07 0.14784307D+07 0.14784307D+07 0.10367445D+01  1  2  5  3  7  1        2 -.342625413354D-05 0.100000000000D+01
  </mgrwgt>
  </event>
  <event>
  8     66 0.55102590E-06 0.21726763E+03 0.75467711E-02 0.93890155E-01
        2 -1    0    0  501    0 0.00000000E+00 0.00000000E+00 0.18747078E+04 0.18747079E+04 0.32000000E+00 0.0000E+00 0.9000E+01
       -2 -1    0    0    0  501 0.00000000E+00 0.00000000E+00 -.71080084E+02 0.71080805E+02 0.32000000E+00 0.0000E+00 0.9000E+01
       25  2    1    2    0    0 0.28304112E+03 -.57510516E+02 0.87791479E+03 0.97153636E+03 0.29954764E+03 0.0000E+00 0.0000E+00
       23  2    1    2    0    0 -.28304112E+03 0.57510516E+02 0.92571296E+03 0.97425230E+03 0.93826076E+02 0.0000E+00 0.0000E+00
       23  1    3    3    0    0 0.18751125E+02 -.86302173E+02 0.36819687E+03 0.38946612E+03 0.91188000E+02 0.0000E+00 0.9000E+01
      -13  1    4    4    0    0 -.24322925E+03 0.46115946E+02 0.65186944E+03 0.69729543E+03 0.10565837E+00 0.0000E+00 0.9000E+01
       13  1    4    4    0    0 -.39811867E+02 0.11394570E+02 0.27384352E+03 0.27695687E+03 0.10565837E+00 0.0000E+00 0.9000E+01
       23  1    3    3    0    0 0.26428999E+03 0.28791657E+02 0.50971792E+03 0.58207024E+03 0.91188000E+02 0.0000E+00 0.9000E+01
#aMCatNLO 1  0  0  1  2 0.30706796D+03 0.00000000D+00  -5  7  0 0.00000000D+00 0.00000000D+00 0.00000000D+00 0.00000000D+00 0.00000000D+00
  <mgrwgt>
 0.2675870311D-03    7    2    0
 0.365041255317926D+03 0.000000000000000D+00 0.000000000000000D+00 0.365041255317926D+03
 0.365041255317926D+03 0.000000000000000D+00 0.000000000000000D+00 -.365041255317926D+03
 0.128380919341525D+03 0.187511255782126D+02 -.863021731579097D+02 0.191504387612225D+02
 0.247999258483099D+03 -.243229510387576D+03 0.461159906366233D+02 0.147089392000230D+02
 0.616198653415054D+02 -.398116109134054D+02 0.113945259394301D+02 0.456312197930378D+02
 0.292082467469723D+03 0.264289995722768D+03 0.287916565818563D+02 -.794905977542834D+02
 0.000000000000000D+00 0.000000000000000D+00 0.000000000000000D+00 0.000000000000000D+00
 0.878101998358944D+03 0.000000000000000D+00 0.000000000000000D+00 0.878101998358944D+03
 0.444912043387093D+03 0.000000000000000D+00 0.000000000000000D+00 -.444912043387093D+03
 0.174123435535495D+03 0.102679810974440D+02 -.146736323785622D+03 0.191504387612225D+02
 0.264054692304236D+03 -.257589064478105D+03 -.561818609231588D+02 0.147089392000230D+02
 0.644299651470022D+02 -.433464325005033D+02 -.137876386130008D+02 0.456312197930378D+02
 0.289421705555387D+03 0.247982845639103D+03 -.873809214874075D+02 -.794905977542834D+02
 0.530984243203917D+03 0.426846702420612D+02 0.304086744809189D+03 0.433189954971851D+03
0.486509791911D-05 0.000000000000D+00 0.000000000000D+00 0.935093120758D-07 0.000000000000D+00  7 2 -2 23 -13 13 23 21 0 0.28841665D+00 0.10935455D-01 0.12144355D+06 0.12144355D+06 0.12144355D+06 0.11148632D+01  1  2  2  1  7  1        2 0.266803887313D-03 0.100000000000D+01
-.269575458762D-06 0.000000000000D+00 -.186832570191D-07 0.935093120758D-07 0.000000000000D+00  7 2 -2 23 -13 13 23 21 2 0.28841665D+00 0.10935455D-01 0.12144355D+06 0.12144355D+06 0.12144355D+06 0.11148632D+01  1  2  3  1  7  1        2 -.183748620951D-04 0.100000000000D+01
0.308485589455D-06 0.000000000000D+00 0.000000000000D+00 0.935093120758D-07 0.000000000000D+00  7 2 -2 23 -13 13 23 21 2 0.28841665D+00 0.10935455D-01 0.12144355D+06 0.12144355D+06 0.12144355D+06 0.11148632D+01  1  2 15  1  7  1        2 0.210270630369D-04 0.100000000000D+01
0.764802010529D-07 0.000000000000D+00 0.000000000000D+00 0.935093120758D-07 0.000000000000D+00  7 2 -2 23 -13 13 23 21 2 0.68302570D+00 0.10935455D-01 0.28491986D+06 0.28491986D+06 0.28491986D+06 0.10862129D+01  1  2 12  1  7  1        2 0.846925327272D-07 0.100000000000D+01
-.236559394855D-05 0.000000000000D+00 -.115513762373D-05 0.935093120758D-07 0.000000000000D+00  7 2 -2 23 -13 13 23 21 2 0.71070728D+00 0.10935455D-01 0.12144355D+06 0.12144355D+06 0.12144355D+06 0.11148632D+01  1  2  5  1  7  1        2 -.195246744604D-05 0.100000000000D+01
0.720103663324D-08 0.000000000000D+00 0.000000000000D+00 0.935093120758D-07 0.000000000000D+00  7 21 -2 23 -13 13 23 -2 2 0.68302570D+00 0.10935455D-01 0.28491986D+06 0.28491986D+06 0.28491986D+06 0.10862129D+01  1  2 12  3  7  1        2 0.959472639974D-10 0.100000000000D+01
-.162420612498D-06 0.000000000000D+00 -.114416625442D-06 0.935093120758D-07 0.000000000000D+00  7 21 -2 23 -13 13 23 -2 2 0.71070728D+00 0.10935455D-01 0.12144355D+06 0.12144355D+06 0.12144355D+06 0.11148632D+01  1  2  5  3  7  1        2 -.137820755831D-08 0.100000000000D+01
  </mgrwgt>
  </event>
  <event>
  7     66 0.55102590E-06 0.10451631E+04 0.75467711E-02 0.81407319E-01
        2 -1    0    0  501    0 0.00000000E+00 0.00000000E+00 0.19222269E+04 0.19222269E+04 0.32000000E+00 0.0000E+00 0.9000E+01
       -2 -1    0    0    0  501 0.00000000E+00 0.00000000E+00 -.84983746E+03 0.84983752E+03 0.32000000E+00 0.0000E+00 0.9000E+01
       25  2    1    2    0    0 0.79549246E+03 0.64099615E+03 -.24855513E+03 0.10933582E+04 0.29994691E+03 0.0000E+00 0.0000E+00
       23  1    3    3    0    0 0.10170640E+03 0.67679635E+02 -.83440831E+02 0.17378823E+03 0.91188000E+02 0.0000E+00 0.9000E+01
      -11  1    1    2    0    0 -.71325716E+03 -.50358999E+03 0.11576391E+04 0.14499886E+04 0.51099893E-03 0.0000E+00 0.9000E+01
       11  1    1    2    0    0 -.82235296E+02 -.13740616E+03 0.16330542E+03 0.22871764E+03 0.51099893E-03 0.0000E+00 0.9000E+01
       23  1    3    3    0    0 0.69378605E+03 0.57331652E+03 -.16511430E+03 0.91956995E+03 0.91188000E+02 0.0000E+00 0.9000E+01
#aMCatNLO 1  0  0  1  1 0.13840931D+04 0.00000000D+00  -5  7  0 0.00000000D+00 0.00000000D+00 0.00000000D+00 0.00000000D+00 0.00000000D+00
  <mgrwgt>
 0.5528752014D-03    3    2    0
 0.127811601762874D+04 0.000000000000000D+00 0.000000000000000D+00 0.127811601762874D+04
 0.127811601762874D+04 0.000000000000000D+00 0.000000000000000D+00 -.127811601762874D+04
 0.223466896392848D+03 0.101706401634533D+03 0.676796349660498D+02 -.163393626916319D+03
 0.108676439346066D+04 -.713257159244935D+03 -.503589993636116D+03 0.647084376251920D+03
 0.179519313222832D+03 -.822352964094280D+02 -.137406157236625D+03 0.811423921135854D+02
 0.106648143218115D+04 0.693786054019831D+03 0.573316515906691D+03 -.564833141449186D+03
 0.000000000000000D+00 0.000000000000000D+00 -.000000000000000D+00 -.000000000000000D+00
 0.181646525526962D+04 0.000000000000000D+00 0.000000000000000D+00 0.181646525526962D+04
 0.277274410716981D+04 0.000000000000000D+00 0.000000000000000D+00 -.277274410716981D+04
 0.235132913148838D+03 0.122810867293980D+02 0.141858849190788D+03 -.163393626916319D+03
 0.135900354705001D+04 -.119017311889967D+04 -.107983322572625D+03 0.647084376251920D+03
 0.190916392132812D+03 -.154468927811587D+03 -.774876204811693D+02 0.811423921135854D+02
 0.112184171715083D+04 0.267070903529956D+03 0.927281101826334D+03 -.564833141449186D+03
 0.168231479295694D+04 0.106529005645190D+04 -.883669007963328D+03 -.956278851900194D+03
0.146880295452D-02 0.000000000000D+00 0.000000000000D+00 0.442445655400D-08 0.000000000000D+00  7 2 -2 23 -11 11 23 21 0 0.29572722D+00 0.13074423D+00 0.10923659D+07 0.10923659D+07 0.10923659D+07 0.10453194D+01  1  2  2  1  7  1        2 0.546983084564D-03 0.100000000000D+01
-.775832762528D-04 0.000000000000D+00 -.564059009005D-05 0.442445655400D-08 0.000000000000D+00  7 2 -2 23 -11 11 23 21 2 0.29572722D+00 0.13074423D+00 0.10923659D+07 0.10923659D+07 0.10923659D+07 0.10453194D+01  1  2  3  1  7  1        2 -.315701408255D-04 0.100000000000D+01
0.920630889549D-04 0.000000000000D+00 0.000000000000D+00 0.442445655400D-08 0.000000000000D+00  7 2 -2 23 -11 11 23 21 2 0.29572722D+00 0.13074423D+00 0.10923659D+07 0.10923659D+07 0.10923659D+07 0.10453194D+01  1  2 15  1  7  1        2 0.374622576349D-04 0.100000000000D+01
  </mgrwgt>
  </event>
  <event>
  8     66 0.55102590E-06 0.16657926E+03 0.75467711E-02 0.95317962E-01
        2 -1    0    0  501    0 0.00000000E+00 0.00000000E+00 0.15601890E+04 0.15601891E+04 0.32000000E+00 0.0000E+00 0.9000E+01
       -2 -1    0    0    0  501 0.00000000E+00 0.00000000E+00 -.11436422E+03 0.11436467E+03 0.32000000E+00 0.0000E+00 0.9000E+01
       25  2    1    2    0    0 -.18284428E+03 0.30967240E+03 0.89750052E+03 0.10126373E+04 0.30099507E+03 0.0000E+00 0.0000E+00
       23  2    1    2    0    0 0.18284428E+03 -.30967240E+03 0.54832429E+03 0.66191647E+03 0.90248860E+02 0.0000E+00 0.0000E+00
       23  1    3    3    0    0 0.24175603E+02 0.12773555E+02 0.20191500E+03 0.22323204E+03 0.91188000E+02 0.0000E+00 0.9000E+01
      -11  1    4    4    0    0 -.70741817E+00 -.35310643E+02 0.93343873E+02 0.99801907E+02 0.51099893E-03 0.0000E+00 0.9000E+01
       11  1    4    4    0    0 0.18355170E+03 -.27436176E+03 0.45498042E+03 0.56211456E+03 0.51099893E-03 0.0000E+00 0.9000E+01
       23  1    3    3    0    0 -.20701988E+03 0.29689885E+03 0.69558552E+03 0.78940523E+03 0.91188000E+02 0.0000E+00 0.9000E+01
#aMCatNLO 1  0  0  1  2 0.10087776D+03 0.00000000D+00  -5  7  0 0.00000000D+00 0.00000000D+00 0.00000000D+00 0.00000000D+00 0.00000000D+00
  <mgrwgt>
 0.2921275545D-03    9    2    0
 0.422410001217823D+03 0.000000000000000D+00 0.000000000000000D+00 0.422410001217823D+03
 0.422410001217823D+03 0.000000000000000D+00 0.000000000000000D+00 -.422410001217823D+03
 0.969204373458133D+02 0.241756026928577D+02 0.127735547913670D+02 0.181850588047652D+02
 0.380729249781212D+02 -.707418171066266D+00 -.353106432885591D+02 0.142199031807194D+02
 0.335537820703414D+03 0.183551695101566D+03 -.274361758186354D+03 -.601666850726482D+02
 0.374288819408298D+03 -.207019879623357D+03 0.296898846683546D+03 0.277617230871637D+02
 0.000000000000000D+00 0.000000000000000D+00 0.000000000000000D+00 0.000000000000000D+00
 0.641553864551745D+03 0.000000000000000D+00 0.000000000000000D+00 0.641553864551745D+03
 0.437181082868334D+03 0.000000000000000D+00 0.000000000000000D+00 -.437181082868334D+03
 0.947045462672173D+02 0.176416461803173D+02 0.343157339936422D+01 0.181850588047652D+02
 0.418469161906976D+02 -.343249481212010D+01 -.392068454171846D+02 0.142199031807194D+02
 0.352205654431385D+03 0.160101277136293D+03 -.307890198090386D+03 -.601666850726482D+02
 0.362064344767178D+03 -.232127772455901D+03 0.261000617611489D+03 0.277617230871637D+02
 0.227913485763601D+03 0.578173439514114D+02 0.826648524967170D+02 0.204372781683411D+03
0.631093994876D-05 0.000000000000D+00 0.000000000000D+00 0.353992981468D-06 0.000000000000D+00  7 2 -2 23 -11 11 23 21 0 0.24002912D+00 0.17594533D-01 0.17383649D+06 0.17383649D+06 0.17383649D+06 0.11025327D+01  1  2  2  1  7  1        2 0.237355147097D-03 0.100000000000D+01
-.350535274947D-06 0.000000000000D+00 -.242356711119D-07 0.353992981468D-06 0.000000000000D+00  7 2 -2 23 -11 11 23 21 2 0.24002912D+00 0.17594533D-01 0.17383649D+06 0.17383649D+06 0.17383649D+06 0.11025327D+01  1  2  3  1  7  1        2 -.160257832727D-04 0.100000000000D+01
0.399455247806D-06 0.000000000000D+00 0.000000000000D+00 0.353992981468D-06 0.000000000000D+00  7 2 -2 23 -11 11 23 21 2 0.24002912D+00 0.17594533D-01 0.17383649D+06 0.17383649D+06 0.17383649D+06 0.11025327D+01  1  2 15  1  7  1        2 0.182623082069D-04 0.100000000000D+01
0.138865079248D-04 0.000000000000D+00 0.000000000000D+00 0.353992981468D-06 0.000000000000D+00  7 2 -2 23 -11 11 23 21 2 0.36699315D+00 0.17594533D-01 0.22146613D+06 0.22146613D+06 0.22146613D+06 0.10944409D+01  1  2 12  1  7  1        2 0.219291971774D-03 0.100000000000D+01
-.135896472498D-04 0.000000000000D+00 0.000000000000D+00 0.353992981468D-06 0.000000000000D+00  7 2 -2 23 -11 11 23 21 2 0.24002912D+00 0.17594533D-01 0.17383649D+06 0.17383649D+06 0.17383649D+06 0.11025327D+01  1  2  4  1  7  1        2 -.621291941616D-03 0.100000000000D+01
-.158937404108D-04 0.000000000000D+00 -.208129222221D-05 0.353992981468D-06 0.000000000000D+00  7 2 -2 23 -11 11 23 21 2 0.36810539D+00 0.17594533D-01 0.17383649D+06 0.17383649D+06 0.17383649D+06 0.11025327D+01  1  2  5  1  7  1        2 -.254911924722D-03 0.100000000000D+01
0.155198563974D-04 0.000000000000D+00 0.190450407207D-05 0.353992981468D-06 0.000000000000D+00  7 2 -2 23 -11 11 23 21 2 0.24002912D+00 0.17594533D-01 0.17383649D+06 0.17383649D+06 0.17383649D+06 0.11025327D+01  1  2  6  1  7  1        2 0.709537307154D-03 0.100000000000D+01
0.690779232089D-06 0.000000000000D+00 0.000000000000D+00 0.353992981468D-06 0.000000000000D+00  7 21 -2 23 -11 11 23 -2 2 0.36699315D+00 0.17594533D-01 0.22146613D+06 0.22146613D+06 0.22146613D+06 0.10944409D+01  1  2 12  3  7  1        2 0.146242541917D-05 0.100000000000D+01
-.717206949644D-06 0.000000000000D+00 -.104082576403D-06 0.353992981468D-06 0.000000000000D+00  7 21 -2 23 -11 11 23 -2 2 0.36810539D+00 0.17594533D-01 0.17383649D+06 0.17383649D+06 0.17383649D+06 0.11025327D+01  1  2  5  3  7  1        2 -.155195553311D-05 0.100000000000D+01
  </mgrwgt>
  </event>
  <event>
  8     66 0.55102590E-06 0.17618137E+03 0.75467711E-02 0.93997820E-01
        2 -1    0    0  501    0 0.00000000E+00 0.00000000E+00 0.28220168E+04 0.28220168E+04 0.32000000E+00 0.0000E+00 0.9000E+01
       -2 -1    0    0    0  501 0.00000000E+00 0.00000000E+00 -.10096600E+03 0.10096650E+03 0.32000000E+00 0.0000E+00 0.9000E+01
       25  2    1    2    0    0 0.23676526E+03 0.41146683E+03 0.11588239E+04 0.12876654E+04 0.29974430E+03 0.0000E+00 0.0000E+00
       23  2    1    2    0    0 -.23676526E+03 -.41146683E+03 0.15622269E+04 0.16353179E+04 0.91372981E+02 0.0000E+00 0.0000E+00
       23  1    3    3    0    0 -.16223538E+02 0.17071799E+03 0.31765712E+03 0.37232933E+03 0.91188000E+02 0.0000E+00 0.9000E+01
      -13  1    4    4    0    0 -.24135104E+03 -.39690396E+03 0.15385389E+04 0.16071356E+04 0.10565837E+00 0.0000E+00 0.9000E+01
       13  1    4    4    0    0 0.45857733E+01 -.14562869E+02 0.23688020E+02 0.28182263E+02 0.10565837E+00 0.0000E+00 0.9000E+01
       23  1    3    3    0    0 0.25298880E+03 0.24074884E+03 0.84116679E+03 0.91533609E+03 0.91188000E+02 0.0000E+00 0.9000E+01
#aMCatNLO 1  0  0  1  2 0.22034937D+02 0.00000000D+00  -5  7  0 0.00000000D+00 0.00000000D+00 0.00000000D+00 0.00000000D+00 0.00000000D+00
  <mgrwgt>
 0.5675840791D-03    9    2    0
 0.533786949523566D+03 0.000000000000000D+00 0.000000000000000D+00 0.533786949523566D+03
 0.533786949523566D+03 0.000000000000000D+00 0.000000000000000D+00 -.533786949523566D+03
 0.209775895253760D+03 -.162235382656555D+02 0.170717989843896D+03 -.792643654823444D+02
 0.478832317800516D+03 -.241351366043383D+03 -.396904472998585D+03 0.116175496525398D+03
 0.167850844396656D+02 0.458610210681777D+01 -.145623577085391D+02 -.697455841477424D+01
 0.362180601553190D+03 0.252988802202221D+03 0.240748840863228D+03 -.299365726282789D+02
 0.000000000000000D+00 0.000000000000000D+00 0.000000000000000D+00 0.000000000000000D+00
 0.550598599415751D+03 0.000000000000000D+00 0.000000000000000D+00 0.550598599415751D+03
 0.541170065988016D+03 0.000000000000000D+00 0.000000000000000D+00 -.541170065988016D+03
 0.207701132995735D+03 -.194142768039426D+02 0.167823584530224D+03 -.792643654823444D+02
 0.488128081966508D+03 -.248741755463062D+03 -.403608495327506D+03 0.116175496525398D+03
 0.169204953944737D+02 0.432849345950357D+01 -.147960414869769D+02 -.697455841477424D+01
 0.355051567205748D+03 0.247507062688662D+03 0.235776206538660D+03 -.299365726282789D+02
 0.239673878413019D+02 0.163204761188395D+02 0.148047457455995D+02 0.942853342773557D+01
0.177448745536D-04 0.000000000000D+00 0.000000000000D+00 0.163620408959D-05 0.000000000000D+00  7 2 -2 23 -13 13 23 21 0 0.43415647D+00 0.15533271D-01 0.26778461D+06 0.26778461D+06 0.26778461D+06 0.10882209D+01  1  2  2  1  7  1        2 0.157527056463D-03 0.100000000000D+01
-.984672432787D-06 0.000000000000D+00 -.681449906187D-07 0.163620408959D-05 0.000000000000D+00  7 2 -2 23 -13 13 23 21 2 0.43415647D+00 0.15533271D-01 0.26778461D+06 0.26778461D+06 0.26778461D+06 0.10882209D+01  1  2  3  1  7  1        2 -.103516156618D-04 0.100000000000D+01
0.112886599587D-05 0.000000000000D+00 0.000000000000D+00 0.163620408959D-05 0.000000000000D+00  7 2 -2 23 -13 13 23 21 2 0.43415647D+00 0.15533271D-01 0.26778461D+06 0.26778461D+06 0.26778461D+06 0.10882209D+01  1  2 15  1  7  1        2 0.118674866218D-04 0.100000000000D+01
0.286471736430D-04 0.000000000000D+00 0.000000000000D+00 0.163620408959D-05 0.000000000000D+00  7 2 -2 23 -13 13 23 21 2 0.45076381D+00 0.15533271D-01 0.27948218D+06 0.27948218D+06 0.27948218D+06 0.10868355D+01  1  2 12  1  7  1        2 0.257161469746D-03 0.100000000000D+01
-.272230689821D-04 0.000000000000D+00 0.000000000000D+00 0.163620408959D-05 0.000000000000D+00  7 2 -2 23 -13 13 23 21 2 0.43415647D+00 0.15533271D-01 0.26778461D+06 0.26778461D+06 0.26778461D+06 0.10882209D+01  1  2  4  1  7  1        2 -.286189333482D-03 0.100000000000D+01
-.300406057247D-03 0.000000000000D+00 -.397940514490D-04 0.163620408959D-05 0.000000000000D+00  7 2 -2 23 -13 13 23 21 2 0.44984848D+00 0.15533271D-01 0.26778461D+06 0.26778461D+06 0.26778461D+06 0.10882209D+01  1  2  5  1  7  1        2 -.273271551916D-02 0.100000000000D+01
0.301653885632D-03 0.000000000000D+00 0.397689811855D-04 0.163620408959D-05 0.000000000000D+00  7 2 -2 23 -13 13 23 21 2 0.43415647D+00 0.15533271D-01 0.26778461D+06 0.26778461D+06 0.26778461D+06 0.10882209D+01  1  2  6  1  7  1        2 0.317121205283D-02 0.100000000000D+01
0.505817661346D-06 0.000000000000D+00 0.000000000000D+00 0.163620408959D-05 0.000000000000D+00  7 21 -2 23 -13 13 23 -2 2 0.45076381D+00 0.15533271D-01 0.27948218D+06 0.27948218D+06 0.27948218D+06 0.10868355D+01  1  2 12  3  7  1        2 0.331127707899D-06 0.100000000000D+01
-.187957144247D-05 0.000000000000D+00 -.251365090631D-06 0.163620408959D-05 0.000000000000D+00  7 21 -2 23 -13 13 23 -2 2 0.44984848D+00 0.15533271D-01 0.26778461D+06 0.26778461D+06 0.26778461D+06 0.10882209D+01  1  2  5  3  7  1        2 -.125864598498D-05 0.100000000000D+01
  </mgrwgt>
  </event>
  <event>
  8     66 0.55102590E-06 0.22741970E+03 0.75467711E-02 0.89781162E-01
        2 -1    0    0  501    0 0.00000000E+00 0.00000000E+00 0.68800775E+03 0.68800782E+03 0.32000000E+00 0.0000E+00 0.9000E+01
       -2 -1    0    0    0  501 0.00000000E+00 0.00000000E+00 -.12370530E+03 0.12370571E+03 0.32000000E+00 0.0000E+00 0.9000E+01
       25  2    1    2    0    0 -.92851169E+02 0.12069671E+03 0.15791232E+03 0.36833635E+03 0.29588229E+03 0.0000E+00 0.0000E+00
       23  2    1    2    0    0 0.92851169E+02 -.12069671E+03 0.40639013E+03 0.44337719E+03 0.90781924E+02 0.0000E+00 0.0000E+00
       23  1    3    3    0    0 -.24247131E+02 0.14338720E+03 0.18129642E+03 0.24966268E+03 0.91188000E+02 0.0000E+00 0.9000E+01
      -13  1    4    4    0    0 -.70532022E+01 0.31501216E+01 0.78900038E+02 0.79277349E+02 0.10565837E+00 0.0000E+00 0.9000E+01
       13  1    4    4    0    0 0.99904371E+02 -.12384683E+03 0.32749009E+03 0.36409984E+03 0.10565837E+00 0.0000E+00 0.9000E+01
       23  1    3    3    0    0 -.68604038E+02 -.22690487E+02 -.23384098E+02 0.11867367E+03 0.91188000E+02 0.0000E+00 0.9000E+01
#aMCatNLO 1  0  0  1  2 0.72810376D+03 0.00000000D+00  -5  7  0 0.00000000D+00 0.00000000D+00 0.00000000D+00 0.00000000D+00 0.00000000D+00
  <mgrwgt>
 0.3344938968D-03    5    2    0
 0.291736874421936D+03 0.000000000000000D+00 0.000000000000000D+00 0.291736874421936D+03
 0.291736874421936D+03 0.000000000000000D+00 0.000000000000000D+00 -.291736874421936D+03
 0.171984714712636D+03 -.242471316044915D+02 0.143387198711638D+03 0.107553988940709D+02
 0.339807741854150D+02 -.705334672043107D+01 0.315029323984560D+01 0.330910708014192D+02
 0.189796769338259D+03 0.999045166635848D+02 -.123847007177584D+03 0.103459267417719D+03
 0.187711490607562D+03 -.686040383386622D+02 -.226904847738996D+02 -.147305737113209D+03
 0.000000000000000D+00 0.000000000000000D+00 -.000000000000000D+00 0.000000000000000D+00
 0.136892983901439D+04 0.000000000000000D+00 0.000000000000000D+00 0.136892983901439D+04
 0.613390567108824D+03 0.000000000000000D+00 0.000000000000000D+00 -.613390567108824D+03
 0.371154853884003D+03 -.265359189547970D+03 0.242712785272490D+03 0.107553988940709D+02
 0.639750701079869D+02 -.505381829775242D+02 0.210637767237403D+02 0.330910708014192D+02
 0.129372028891618D+03 -.417818015904679D+02 -.654796372987611D+02 0.103459267417719D+03
 0.368545047314831D+03 -.315539018512399D+03 0.790338419036911D+02 -.147305737113209D+03
 0.104927340592478D+04 0.673218192628361D+03 -.277330766601160D+03 0.755539271905571D+03
0.291937513922D-05 0.000000000000D+00 0.000000000000D+00 0.731542269549D-08 0.000000000000D+00  7 2 -2 23 -13 13 23 21 0 0.10584738D+00 0.19031622D-01 0.51719721D+05 0.51719721D+05 0.51719721D+05 0.11460058D+01  1  2  2  1  7  1        2 0.326773436772D-03 0.100000000000D+01
-.149955728538D-06 0.000000000000D+00 -.112111692237D-07 0.731542269549D-08 0.000000000000D+00  7 2 -2 23 -13 13 23 21 2 0.10584738D+00 0.19031622D-01 0.51719721D+05 0.51719721D+05 0.51719721D+05 0.11460058D+01  1  2  3  1  7  1        2 -.220441602859D-04 0.100000000000D+01
0.184889903646D-06 0.000000000000D+00 0.000000000000D+00 0.731542269549D-08 0.000000000000D+00  7 2 -2 23 -13 13 23 21 2 0.10584738D+00 0.19031622D-01 0.51719721D+05 0.51719721D+05 0.51719721D+05 0.11460058D+01  1  2 15  1  7  1        2 0.271796396906D-04 0.100000000000D+01
0.176518505749D-05 0.000000000000D+00 -.130039235929D-05 0.731542269549D-08 0.000000000000D+00  7 2 -2 23 -13 13 23 21 2 0.61329633D+00 0.19031622D-01 0.51719721D+05 0.51719721D+05 0.51719721D+05 0.11460058D+01  1  2  5  1  7  1        2 0.257559669156D-05 0.100000000000D+01
0.305774238309D-06 0.000000000000D+00 -.279911344058D-06 0.731542269549D-08 0.000000000000D+00  7 21 -2 23 -13 13 23 -2 2 0.61329633D+00 0.19031622D-01 0.51719721D+05 0.51719721D+05 0.51719721D+05 0.11460058D+01  1  2  5  3  7  1        2 0.938393275171D-08 0.100000000000D+01
  </mgrwgt>
  </event>
  <event>
  8     66 0.55102590E-06 0.74167604E+03 0.75467711E-02 0.88085420E-01
        2 -1    0    0  501    0 0.00000000E+00 0.00000000E+00 0.23755322E+04 0.23755322E+04 0.32000000E+00 0.0000E+00 0.9000E+01
       -2 -1    0    0    0  501 0.00000000E+00 0.00000000E+00 -.23765311E+03 0.23765332E+03 0.32000000E+00 0.0000E+00 0.9000E+01
       25  2    1    2    0    0 0.71636183E+03 0.25292791E+02 0.11929371E+04 0.14234086E+04 0.29862854E+03 0.0000E+00 0.0000E+00
       23  2    1    2    0    0 -.71636183E+03 -.25292791E+02 0.94494195E+03 0.11897769E+04 0.94020759E+02 0.0000E+00 0.0000E+00
       23  1    3    3    0    0 0.85799579E+02 0.28080587E+02 0.30171928E+03 0.32787172E+03 0.91188000E+02 0.0000E+00 0.9000E+01
      -13  1    4    4    0    0 -.65593169E+03 -.12047614E+02 0.89802788E+03 0.11121356E+04 0.10565837E+00 0.0000E+00 0.9000E+01
       13  1    4    4    0    0 -.60430139E+02 -.13245177E+02 0.46914064E+02 0.77641335E+02 0.10565837E+00 0.0000E+00 0.9000E+01
       23  1    3    3    0    0 0.63056225E+03 -.27877963E+01 0.89121785E+03 0.10955369E+04 0.91188000E+02 0.0000E+00 0.9000E+01
#aMCatNLO 1  0  0  2  2 0.33897150D+03 0.00000000D+00  -5  7  0 0.00000000D+00 0.00000000D+00 0.00000000D+00 0.00000000D+00 0.00000000D+00
  <mgrwgt>
 0.3988553470D-03    3    2    0
 0.751367363310503D+03 0.000000000000000D+00 0.000000000000000D+00 0.751367363310503D+03
 0.751367363310503D+03 0.000000000000000D+00 0.000000000000000D+00 -.751367363310503D+03
 0.140909958993404D+03 0.857995794321566D+02 0.280805872553064D+02 0.582260937053571D+02
 0.656365197629284D+03 -.655932440471206D+03 -.120476123623966D+02 -.205611583521616D+02
 0.682711988204395D+02 -.604293865486927D+02 -.132451786306747D+02 -.288757869636514D+02
 0.637188371177879D+03 0.630562247587742D+03 -.278779626223506D+01 -.878914838954416D+01
 0.000000000000000D+00 0.000000000000000D+00 0.000000000000000D+00 0.000000000000000D+00
 0.143087423672722D+04 0.000000000000000D+00 0.000000000000000D+00 0.143087423672722D+04
 0.813727582159454D+03 0.000000000000000D+00 0.000000000000000D+00 -.813727582159454D+03
 0.124589794894915D+03 0.563558610602334D+02 0.253200431265773D+02 0.582260937053571D+02
 0.820422669429580D+03 -.819707078360493D+03 -.274025722675667D+02 -.205611583521616D+02
 0.838369457090237D+02 -.772980627113275D+02 -.148267290432951D+02 -.288757869636514D+02
 0.511641854944612D+03 0.503157859675081D+03 -.147328037026674D+02 -.878914838954416D+01
 0.704110553908544D+03 0.337491420336506D+03 0.316420618869518D+02 0.617146654567767D+03
0.110325132651D-03 0.000000000000D+00 0.000000000000D+00 0.916216540196D-07 0.000000000000D+00  7 2 -2 23 -13 13 23 21 0 0.36546651D+00 0.36562035D-01 0.55008335D+06 0.55008335D+06 0.55008335D+06 0.10655926D+01  1  2  2  2  7  2       -2 0.395294652089D-03 0.100000000000D+01
-.612791807358D-05 0.000000000000D+00 -.423677558655D-06 0.916216540196D-07 0.000000000000D+00  7 2 -2 23 -13 13 23 21 2 0.36546651D+00 0.36562035D-01 0.55008335D+06 0.55008335D+06 0.55008335D+06 0.10655926D+01  1  2  3  2  7  2       -2 -.249311224589D-04 0.100000000000D+01
0.700311518990D-05 0.000000000000D+00 0.000000000000D+00 0.916216540196D-07 0.000000000000D+00  7 2 -2 23 -13 13 23 21 2 0.36546651D+00 0.36562035D-01 0.55008335D+06 0.55008335D+06 0.55008335D+06 0.10655926D+01  1  2 15  2  7  2       -2 0.284918173345D-04 0.100000000000D+01
  </mgrwgt>
  </event>
  <event>
  8     66 0.55102590E-06 0.29824879E+03 0.75467711E-02 0.92757694E-01
        2 -1    0    0  501    0 0.00000000E+00 0.00000000E+00 0.12966739E+04 0.12966740E+04 0.32000000E+00 0.0000E+00 0.9000E+01
       -2 -1    0    0    0  501 0.00000000E+00 0.00000000E+00 -.89076962E+02 0.89077537E+02 0.32000000E+00 0.0000E+00 0.9000E+01
       25  2    1    2    0    0 -.13418396E+03 0.22041210E+03 0.58445306E+03 0.70521857E+03 0.29859843E+03 0.0000E+00 0.0000E+00
       23  2    1    2    0    0 0.13418396E+03 -.22041210E+03 0.62314390E+03 0.68053292E+03 0.90718880E+02 0.0000E+00 0.0000E+00
       23  1    3    3    0    0 -.93847554E+02 0.19471418E+03 0.20339270E+03 0.31049125E+03 0.91188000E+02 0.0000E+00 0.9000E+01
      -11  1    4    4    0    0 0.67027572E+02 -.89710114E+02 0.38264234E+03 0.39869256E+03 0.51099893E-03 0.0000E+00 0.9000E+01
       11  1    4    4    0    0 0.67156387E+02 -.13070199E+03 0.24050156E+03 0.28184036E+03 0.51099893E-03 0.0000E+00 0.9000E+01
       23  1    3    3    0    0 -.40336405E+02 0.25697925E+02 0.38106036E+03 0.39472732E+03 0.91188000E+02 0.0000E+00 0.9000E+01
#aMCatNLO 1  0  0  1  1 0.43956165D+03 0.00000000D+00  -5  7  0 0.00000000D+00 0.00000000D+00 0.00000000D+00 0.00000000D+00 0.00000000D+00
  <mgrwgt>
 0.3502325638D-03    3    2    0
 0.339859086860614D+03 0.000000000000000D+00 0.000000000000000D+00 0.339859086860614D+03
 0.339859086860614D+03 0.000000000000000D+00 0.000000000000000D+00 -.339859086860614D+03
 0.271652744304151D+03 -.938475539702749D+02 0.194714178191968D+03 -.136963453405642D+03
 0.133012613043202D+03 0.670275723232362D+02 -.897101138194651D+02 0.717757288749660D+02
 0.147313633115982D+03 0.671563869967255D+02 -.130701989419266D+03 -.104075044665978D+02
 0.127739183257893D+03 -.403364053496867D+02 0.256979250467627D+02 0.755952289972736D+02
 0.000000000000000D+00 -.000000000000000D+00 -.000000000000000D+00 -.000000000000000D+00
 0.532057202937435D+03 0.000000000000000D+00 0.000000000000000D+00 0.532057202937435D+03
 0.784103047449244D+03 0.000000000000000D+00 0.000000000000000D+00 -.784103047449244D+03
 0.392334205180513D+03 0.179176465539303D+02 0.355711747885551D+03 -.136963453405642D+03
 0.135464289974260D+03 0.112218784176350D+03 -.246122546850069D+02 0.717757288749660D+02
 0.130766695592579D+03 0.113964089654241D+03 -.632755781977530D+02 -.104075044665978D+02
 0.150898357488196D+03 0.656508968606358D+01 0.932594440198897D+02 0.755952289972736D+02
 0.506696702151131D+03 -.250665610070585D+03 -.361083359022681D+03 -.252045844511809D+03
0.436998789414D-05 0.000000000000D+00 0.000000000000D+00 0.671673131183D-07 0.000000000000D+00  7 2 -2 23 -11 11 23 21 0 0.19948834D+00 0.13704195D-01 0.88952342D+05 0.88952342D+05 0.88952342D+05 0.11259183D+01  1  2  2  1  7  1        2 0.346468522894D-03 0.100000000000D+01
-.237742145578D-06 0.000000000000D+00 -.167819041577D-07 0.671673131183D-07 0.000000000000D+00  7 2 -2 23 -11 11 23 21 2 0.19948834D+00 0.13704195D-01 0.88952342D+05 0.88952342D+05 0.88952342D+05 0.11259183D+01  1  2  3  1  7  1        2 -.238948045907D-04 0.100000000000D+01
0.275192594585D-06 0.000000000000D+00 0.000000000000D+00 0.671673131183D-07 0.000000000000D+00  7 2 -2 23 -11 11 23 21 2 0.19948834D+00 0.13704195D-01 0.88952342D+05 0.88952342D+05 0.88952342D+05 0.11259183D+01  1  2 15  1  7  1        2 0.276588454959D-04 0.100000000000D+01
  </mgrwgt>
  </event>
  <event>
  8     66 0.55102590E-06 0.43897030E+03 0.75467711E-02 0.93365130E-01
        2 -1    0    0  501    0 0.00000000E+00 0.00000000E+00 0.38660734E+03 0.38660747E+03 0.32000000E+00 0.0000E+00 0.9000E+01
       -2 -1    0    0    0  501 0.00000000E+00 0.00000000E+00 -.56569347E+03 0.56569356E+03 0.32000000E+00 0.0000E+00 0.9000E+01
       25  2    1    2    0    0 -.61962323E+02 0.38262425E+03 -.24710376E+03 0.54852981E+03 0.29930593E+03 0.0000E+00 0.0000E+00
       23  2    1    2    0    0 0.61962323E+02 -.38262425E+03 0.68017632E+02 0.40377122E+03 0.90355707E+02 0.0000E+00 0.0000E+00
       23  1    3    3    0    0 -.13738074E+03 0.30930169E+03 -.17648763E+03 0.39243361E+03 0.91188000E+02 0.0000E+00 0.9000E+01
      -11  1    4    4    0    0 0.61821573E+02 -.33858270E+03 0.29815202E+02 0.34546939E+03 0.51099893E-03 0.0000E+00 0.9000E+01
       11  1    4    4    0    0 0.14075027E+00 -.44041548E+02 0.38202430E+02 0.58301830E+02 0.51099893E-03 0.0000E+00 0.9000E+01
       23  1    3    3    0    0 0.75418414E+02 0.73322555E+02 -.70616127E+02 0.15609620E+03 0.91188000E+02 0.0000E+00 0.9000E+01
#aMCatNLO 1  0  0  1  1 0.21793778D+03 0.00000000D+00  -5  7  0 0.00000000D+00 0.00000000D+00 0.00000000D+00 0.00000000D+00 0.00000000D+00
  <mgrwgt>
 0.1786484357D-03    4    2    0
 0.467655163781548D+03 0.000000000000000D+00 0.000000000000000D+00 0.467655163781548D+03
 0.467655163781548D+03 0.000000000000000D+00 0.000000000000000D+00 -.467655163781548D+03
 0.365769987315845D+03 -.137380736606691D+03 0.309301694393787D+03 -.104553466377585D+03
 0.357453920162167D+03 0.618215725312108D+02 -.338582701036165D+03 0.965046774416872D+02
 0.666756437479741D+02 0.140750265107100D+00 -.440415478993019D+02 0.500596016484662D+02
 0.145410776337109D+03 0.754184138103728D+02 0.733225545416799D+02 -.420108127125684D+02
 0.000000000000000D+00 0.000000000000000D+00 -.000000000000000D+00 -.000000000000000D+00
 0.573764780573675D+03 0.000000000000000D+00 0.000000000000000D+00 0.573764780573675D+03
 0.607068661157305D+03 0.000000000000000D+00 0.000000000000000D+00 -.607068661157305D+03
 0.442027469822079D+03 -.214838739452546D+03 0.360535603556960D+03 -.104553466377585D+03
 0.311490886296236D+03 -.232214105011090D+01 -.296155410449369D+03 0.965046774416872D+02
 0.627729891741277D+02 -.122718074728163D+02 -.358313716455588D+02 0.500596016484662D+02
 0.144074358006805D+03 0.476602918186430D+02 0.916829182021620D+02 -.420108127125684D+02
 0.220467738431732D+03 0.181772396156830D+03 -.120231739664194D+03 -.333038805836292D+02
0.236367260548D-04 0.000000000000D+00 0.000000000000D+00 0.383287004705D-06 0.000000000000D+00  7 2 -2 23 -11 11 23 21 0 0.59478069D-01 0.87029781D-01 0.19269493D+06 0.19269493D+06 0.19269493D+06 0.10990687D+01  1  2  2  1  7  1        2 0.278225310494D-03 0.100000000000D+01
-.130675415974D-05 0.000000000000D+00 -.907712517434D-07 0.383287004705D-06 0.000000000000D+00  7 2 -2 23 -11 11 23 21 2 0.59478069D-01 0.87029781D-01 0.19269493D+06 0.19269493D+06 0.19269493D+06 0.10990687D+01  1  2  3  1  7  1        2 -.185803053345D-04 0.100000000000D+01
0.150602595827D-05 0.000000000000D+00 0.000000000000D+00 0.383287004705D-06 0.000000000000D+00  7 2 -2 23 -11 11 23 21 2 0.59478069D-01 0.87029781D-01 0.19269493D+06 0.19269493D+06 0.19269493D+06 0.10990687D+01  1  2 15  1  7  1        2 0.214136851508D-04 0.100000000000D+01
-.720252029403D-05 0.000000000000D+00 0.000000000000D+00 0.383287004705D-06 0.000000000000D+00  7 2 -2 23 -11 11 23 21 2 0.59478069D-01 0.87029781D-01 0.19269493D+06 0.19269493D+06 0.19269493D+06 0.10990687D+01  1  2  4  1  7  1        2 -.102410254632D-03 0.100000000000D+01
  </mgrwgt>
  </event>
  <event>
  8     66 0.55102590E-06 0.24507765E+03 0.75467711E-02 0.86642882E-01
        2 -1    0    0  501    0 0.00000000E+00 0.00000000E+00 0.11766039E+04 0.11766040E+04 0.32000000E+00 0.0000E+00 0.9000E+01
       -2 -1    0    0    0  501 0.00000000E+00 0.00000000E+00 -.13137719E+03 0.13137758E+03 0.32000000E+00 0.0000E+00 0.9000E+01
       25  2    1    2    0    0 -.36668851E+01 -.14675239E+03 0.10794952E+04 0.11298390E+04 0.29946038E+03 0.0000E+00 0.0000E+00
       23  2    1    2    0    0 0.36668851E+01 0.14675239E+03 -.34268474E+02 0.17814256E+03 0.94924885E+02 0.0000E+00 0.0000E+00
       23  1    3    3    0    0 -.82322207E+02 -.16740500E+03 0.75741552E+03 0.78536291E+03 0.91188000E+02 0.0000E+00 0.9000E+01
      -11  1    4    4    0    0 0.26608662E+02 0.12788614E+03 0.27834155E+01 0.13065464E+03 0.51099893E-03 0.0000E+00 0.9000E+01
       11  1    4    4    0    0 -.22941777E+02 0.18866244E+02 -.37051890E+02 0.47487923E+02 0.51099893E-03 0.0000E+00 0.9000E+01
       23  1    3    3    0    0 0.78655322E+02 0.20652607E+02 0.32207968E+03 0.34447607E+03 0.91188000E+02 0.0000E+00 0.9000E+01
#aMCatNLO 1  0  0  2  1 0.10528207D+04 0.00000000D+00  -5  7  0 0.00000000D+00 0.00000000D+00 0.00000000D+00 0.00000000D+00 0.00000000D+00
  <mgrwgt>
 0.3199666527D-03    3    2    0
 0.393165612155334D+03 0.000000000000000D+00 0.000000000000000D+00 0.393165612155334D+03
 0.393165612155334D+03 0.000000000000000D+00 0.000000000000000D+00 -.393165612155334D+03
 0.299580169659930D+03 -.823222068632535D+02 -.167404995305703D+03 0.215943623460693D+03
 0.213630779714045D+03 0.266086619406094D+02 0.127886143967206D+03 -.169042075626633D+03
 0.128242334889727D+03 -.229417768672112D+02 0.188662439557516D+02 -.124755104789929D+03
 0.144877940046965D+03 0.786553217898553D+02 0.206526073827453D+02 0.778535569558678D+02
 0.000000000000000D+00 0.000000000000000D+00 0.000000000000000D+00 0.000000000000000D+00
 0.132167551217104D+04 0.000000000000000D+00 0.000000000000000D+00 0.132167551217104D+04
 0.107395409182014D+04 0.000000000000000D+00 0.000000000000000D+00 -.107395409182014D+04
 0.745354901371940D+03 -.214695641637135D+03 -.674175652633540D+03 0.215943623460693D+03
 0.182331434485370D+03 -.235522330157524D+02 -.641468704560441D+02 -.169042075626633D+03
 0.197632017994099D+03 -.642238704554283D+02 -.139175690510225D+03 -.124755104789929D+03
 0.188739562542446D+03 0.363923181423321D+02 -.141144585352257D+03 0.778535569558678D+02
 0.108157168759732D+04 0.266079426965984D+03 0.101864279895207D+04 0.247721420350906D+03
0.626660923187D-05 0.000000000000D+00 0.000000000000D+00 0.525255574398D-07 0.000000000000D+00  7 2 -2 23 -11 11 23 21 0 0.18101602D+00 0.20211909D-01 0.60063053D+05 0.60063053D+05 0.60063053D+05 0.11403557D+01  1  2  2  2  7  2       -2 0.311649222536D-03 0.100000000000D+01
-.253579686796D-06 0.000000000000D+00 -.240654294865D-07 0.525255574398D-07 0.000000000000D+00  7 2 -2 23 -11 11 23 21 2 0.18101602D+00 0.20211909D-01 0.60063053D+05 0.60063053D+05 0.60063053D+05 0.11403557D+01  1  2  3  2  7  2       -2 -.163994234184D-04 0.100000000000D+01
0.382189777957D-06 0.000000000000D+00 0.000000000000D+00 0.525255574398D-07 0.000000000000D+00  7 2 -2 23 -11 11 23 21 2 0.18101602D+00 0.20211909D-01 0.60063053D+05 0.60063053D+05 0.60063053D+05 0.11403557D+01  1  2 15  2  7  2       -2 0.247168536017D-04 0.100000000000D+01
  </mgrwgt>
  </event>
  <event>
  8     66 0.55102590E-06 0.26366981E+03 0.75467711E-02 0.94005830E-01
        2 -1    0    0  501    0 0.00000000E+00 0.00000000E+00 0.31103568E+03 0.31103585E+03 0.32000000E+00 0.0000E+00 0.9000E+01
       -2 -1    0    0    0  501 0.00000000E+00 0.00000000E+00 -.39903437E+03 0.39903450E+03 0.32000000E+00 0.0000E+00 0.9000E+01
       25  2    1    2    0    0 -.11754113E+03 0.16871593E+03 -.24229931E+03 0.43738789E+03 0.30052991E+03 0.0000E+00 0.0000E+00
       23  2    1    2    0    0 0.11754113E+03 -.16871593E+03 0.15430062E+03 0.27268246E+03 0.90917865E+02 0.0000E+00 0.0000E+00
       23  1    3    3    0    0 -.55894103E+01 0.14010672E+03 -.16806349E+02 0.16810365E+03 0.91188000E+02 0.0000E+00 0.9000E+01
      -11  1    4    4    0    0 0.12362386E+03 -.15877652E+03 0.11517414E+03 0.23185755E+03 0.51099893E-03 0.0000E+00 0.9000E+01
       11  1    4    4    0    0 -.60827310E+01 -.99394113E+01 0.39126475E+02 0.40824901E+02 0.51099893E-03 0.0000E+00 0.9000E+01
       23  1    3    3    0    0 -.11195172E+03 0.28609216E+02 -.22549296E+03 0.26928424E+03 0.91188000E+02 0.0000E+00 0.9000E+01
#aMCatNLO 1  0  0  1  1 0.41048050D+03 0.00000000D+00  -5  7  0 0.00000000D+00 0.00000000D+00 0.00000000D+00 0.00000000D+00 0.00000000D+00
  <mgrwgt>
 0.2204063249D-03    5    2    0
 0.352298213138081D+03 0.000000000000000D+00 0.000000000000000D+00 0.352298213138081D+03
 0.352298213138081D+03 0.000000000000000D+00 0.000000000000000D+00 -.352298213138081D+03
 0.167310643879788D+03 -.558941025368987D+01 0.140106715829886D+03 0.405794083851730D+01
 0.248043192557710D+03 0.123623860577572D+03 -.158776521035015D+03 0.145026145360537D+03
 0.460286608557017D+02 -.608273098976297D+01 -.993941127931494D+01 0.445291601907784D+02
 0.243213928982962D+03 -.111951719334119D+03 0.286092164844439D+02 -.193613246389833D+03
 0.000000000000000D+00 0.000000000000000D+00 -.000000000000000D+00 0.000000000000000D+00
 0.102572540418545D+04 0.000000000000000D+00 0.000000000000000D+00 0.102572540418545D+04
 0.475883215285483D+03 0.000000000000000D+00 0.000000000000000D+00 -.475883215285483D+03
 0.274161222578246D+03 -.302669448314435D+02 0.256742224397001D+03 0.405794083851730D+01
 0.181662020623745D+03 0.996040621210960D+02 -.452497260537910D+02 0.145026145360537D+03
 0.483384534107740D+02 -.113576939086858D+02 0.149920899118888D+02 0.445291601907784D+02
 0.311283188805876D+03 -.142947175301186D+03 0.175105648638062D+03 -.193613246389833D+03
 0.686163734052298D+03 0.849677519202195D+02 -.401590236893160D+03 0.549842188899971D+03
0.686163237014D-05 0.000000000000D+00 0.000000000000D+00 0.372553846573D-06 0.000000000000D+00  7 2 -2 23 -11 11 23 21 0 0.47851666D-01 0.61389926D-01 0.69521768D+05 0.69521768D+05 0.69521768D+05 0.11349128D+01  1  2  2  1  7  1        2 0.222616593552D-03 0.100000000000D+01
-.342281648086D-06 0.000000000000D+00 -.263504750106D-07 0.372553846573D-06 0.000000000000D+00  7 2 -2 23 -11 11 23 21 2 0.47851666D-01 0.61389926D-01 0.69521768D+05 0.69521768D+05 0.69521768D+05 0.11349128D+01  1  2  3  1  7  1        2 -.143033804731D-04 0.100000000000D+01
0.432315608051D-06 0.000000000000D+00 0.000000000000D+00 0.372553846573D-06 0.000000000000D+00  7 2 -2 23 -11 11 23 21 2 0.47851666D-01 0.61389926D-01 0.69521768D+05 0.69521768D+05 0.69521768D+05 0.11349128D+01  1  2 15  1  7  1        2 0.180657498320D-04 0.100000000000D+01
-.624224649314D-06 0.000000000000D+00 -.240125542762D-05 0.372553846573D-06 0.000000000000D+00  7 2 -2 23 -11 11 23 21 2 0.16891239D+00 0.61389926D-01 0.69521768D+05 0.69521768D+05 0.69521768D+05 0.11349128D+01  1  2  5  1  7  1        2 -.586200901328D-05 0.100000000000D+01
-.183615482687D-07 0.000000000000D+00 -.354826505286D-06 0.372553846573D-06 0.000000000000D+00  7 21 -2 23 -11 11 23 -2 2 0.16891239D+00 0.61389926D-01 0.69521768D+05 0.69521768D+05 0.69521768D+05 0.11349128D+01  1  2  5  3  7  1        2 -.110629015148D-06 0.100000000000D+01
  </mgrwgt>
  </event>
  <event>
  8     66 0.55102590E-06 0.40457896E+03 0.75467711E-02 0.88828358E-01
        2 -1    0    0  501    0 0.00000000E+00 0.00000000E+00 0.20988684E+04 0.20988684E+04 0.32000000E+00 0.0000E+00 0.9000E+01
       -2 -1    0    0    0  501 0.00000000E+00 0.00000000E+00 -.95423853E+02 0.95424390E+02 0.32000000E+00 0.0000E+00 0.9000E+01
       25  2    1    2    0    0 -.26844706E+03 0.22221182E+03 0.15358834E+04 0.16030408E+04 0.29893150E+03 0.0000E+00 0.0000E+00
       23  2    1    2    0    0 0.26844706E+03 -.22221182E+03 0.46756116E+03 0.59125203E+03 0.97589009E+02 0.0000E+00 0.0000E+00
       23  1    3    3    0    0 -.21672197E+03 0.25399403E+03 0.10763791E+04 0.11306584E+04 0.91188000E+02 0.0000E+00 0.9000E+01
      -13  1    4    4    0    0 0.15509192E+03 -.16525338E+03 0.23587158E+03 0.32710487E+03 0.10565837E+00 0.0000E+00 0.9000E+01
       13  1    4    4    0    0 0.11335514E+03 -.56958437E+02 0.23168958E+03 0.26414716E+03 0.10565837E+00 0.0000E+00 0.9000E+01
       23  1    3    3    0    0 -.51725091E+02 -.31782213E+02 0.45950434E+03 0.47238235E+03 0.91188000E+02 0.0000E+00 0.9000E+01
#aMCatNLO 1  0  0  1  2 0.67552565D+03 0.00000000D+00  -5  7  0 0.00000000D+00 0.00000000D+00 0.00000000D+00 0.00000000D+00 0.00000000D+00
  <mgrwgt>
 0.2776242908D-03    3    2    0
 0.447529582171071D+03 0.000000000000000D+00 0.000000000000000D+00 0.447529582171071D+03
 0.447529582171071D+03 0.000000000000000D+00 0.000000000000000D+00 -.447529582171071D+03
 0.362579314470486D+03 -.216721969996808D+03 0.253994032800527D+03 0.108014475698006D+03
 0.273957750827776D+03 0.155091974617882D+03 -.165253507811128D+03 -.153917532477160D+03
 0.128973421491875D+03 0.113355086677995D+03 -.569583118024427D+02 -.232490535755930D+02
 0.129548677552005D+03 -.517250912990690D+02 -.317822131869560D+02 0.691521103547471D+02
 0.000000000000000D+00 -.000000000000000D+00 0.000000000000000D+00 -.000000000000000D+00
 0.895688646530960D+03 0.000000000000000D+00 0.000000000000000D+00 0.895688646530960D+03
 0.901227545780928D+03 0.000000000000000D+00 0.000000000000000D+00 -.901227545780928D+03
 0.217769512294493D+03 -.472057162338906D+02 0.158785397740194D+03 0.108014475698006D+03
 0.506358431721310D+03 0.383017439296850D+03 -.293267617997438D+03 -.153917532477160D+03
 0.257226752761952D+03 0.226161736270149D+03 -.120316054172205D+03 -.232490535755930D+02
 0.140013135429169D+03 0.270122242372191D+02 -.760049480228091D+02 0.691521103547471D+02
 0.675548360104963D+03 -.588985683570328D+03 0.330803222452257D+03 -.553889924996851D+01
0.106288447466D-04 0.000000000000D+00 0.000000000000D+00 0.100515946529D-07 0.000000000000D+00  7 2 -2 23 -13 13 23 21 0 0.32290288D+00 0.14680636D-01 0.16368413D+06 0.16368413D+06 0.16368413D+06 0.11045722D+01  1  2  2  1  7  1        2 0.274489022173D-03 0.100000000000D+01
-.583182667659D-06 0.000000000000D+00 -.408175624660D-07 0.100515946529D-07 0.000000000000D+00  7 2 -2 23 -13 13 23 21 2 0.32290288D+00 0.14680636D-01 0.16368413D+06 0.16368413D+06 0.16368413D+06 0.11045722D+01  1  2  3  1  7  1        2 -.183751864272D-04 0.100000000000D+01
0.682688288082D-06 0.000000000000D+00 0.000000000000D+00 0.100515946529D-07 0.000000000000D+00  7 2 -2 23 -13 13 23 21 2 0.32290288D+00 0.14680636D-01 0.16368413D+06 0.16368413D+06 0.16368413D+06 0.11045722D+01  1  2 15  1  7  1        2 0.215104550613D-04 0.100000000000D+01
  </mgrwgt>
  </event>
  <event>
  8     66 0.55102590E-06 0.14771543E+03 0.75467711E-02 0.96378198E-01
        2 -1    0    0  501    0 0.00000000E+00 0.00000000E+00 0.18635081E+04 0.18635081E+04 0.32000000E+00 0.0000E+00 0.9000E+01
       -2 -1    0    0    0  501 0.00000000E+00 0.00000000E+00 -.17390775E+03 0.17390804E+03 0.32000000E+00 0.0000E+00 0.9000E+01
       25  2    1    2    0    0 0.48105034E+02 0.22971284E+03 0.17393209E+04 0.17806446E+04 0.30062617E+03 0.0000E+00 0.0000E+00
       23  2    1    2    0    0 -.48105034E+02 -.22971284E+03 -.49720553E+02 0.25677151E+03 0.91528093E+02 0.0000E+00 0.0000E+00
       23  1    3    3    0    0 -.43729577E+02 0.11594500E+03 0.37275766E+03 0.40326052E+03 0.91188000E+02 0.0000E+00 0.9000E+01
      -13  1    4    4    0    0 0.14343420E+02 -.14569476E+03 -.18706615E+02 0.14758945E+03 0.10565837E+00 0.0000E+00 0.9000E+01
       13  1    4    4    0    0 -.62448454E+02 -.84018083E+02 -.31013938E+02 0.10918206E+03 0.10565837E+00 0.0000E+00 0.9000E+01
       23  1    3    3    0    0 0.91834611E+02 0.11376784E+03 0.13665632E+04 0.13773841E+04 0.91188000E+02 0.0000E+00 0.9000E+01
#aMCatNLO 1  0  0  2  1 0.22629272D+03 0.00000000D+00  -5  7  0 0.00000000D+00 0.00000000D+00 0.00000000D+00 0.00000000D+00 0.00000000D+00
  <mgrwgt>
 0.1107482367D-03    9    2    0
 0.569279206902579D+03 0.000000000000000D+00 0.000000000000000D+00 0.569279206902579D+03
 0.569279206902579D+03 0.000000000000000D+00 0.000000000000000D+00 -.569279206902579D+03
 0.168456898597570D+03 -.437295770961754D+02 0.115945000197372D+03 0.686072616953405D+02
 0.291867235558016D+03 0.143435218491090D+02 -.145694839146887D+03 -.252495070088913D+03
 0.241402091059879D+03 -.624485561265640D+02 -.840180007520585D+02 -.217522695265153D+03
 0.436832188589693D+03 0.918346113736304D+02 0.113767839701574D+03 0.401410503658726D+03
 0.000000000000000D+00 -.000000000000000D+00 0.000000000000000D+00 -.000000000000000D+00
 0.630504148745406D+03 0.000000000000000D+00 0.000000000000000D+00 0.630504148745406D+03
 0.835997811090805D+03 0.000000000000000D+00 0.000000000000000D+00 -.835997811090805D+03
 0.147450769317695D+03 -.281735658399434D+02 0.890268041598115D+02 0.686072616953405D+02
 0.324074525345675D+03 0.446738934701336D+02 -.198178658793116D+03 -.252495070088913D+03
 0.254371825098199D+03 -.380355221815635D+02 -.126262431074123D+03 -.217522695265153D+03
 0.434931746422184D+03 0.134762248031881D+03 0.394856525803067D+02 0.401410503658726D+03
 0.305673093652458D+03 -.113227053480508D+03 0.195928633127121D+03 -.205493662345399D+03
0.171378588492D-04 0.000000000000D+00 0.000000000000D+00 0.858077563585D-06 0.000000000000D+00  7 2 -2 23 -13 13 23 21 0 0.28669357D+00 0.26755063D-01 0.83304493D+05 0.83304493D+05 0.83304493D+05 0.11282908D+01  1  2  2  2  7  2       -2 0.224613041139D-03 0.100000000000D+01
-.418012855538D-06 0.000000000000D+00 -.658138904830D-07 0.858077563585D-06 0.000000000000D+00  7 2 -2 23 -13 13 23 21 2 0.28669357D+00 0.26755063D-01 0.83304493D+05 0.83304493D+05 0.83304493D+05 0.11282908D+01  1  2  3  2  7  2       -2 -.697445325213D-05 0.100000000000D+01
0.101843089524D-05 0.000000000000D+00 0.000000000000D+00 0.858077563585D-06 0.000000000000D+00  7 2 -2 23 -13 13 23 21 2 0.28669357D+00 0.26755063D-01 0.83304493D+05 0.83304493D+05 0.83304493D+05 0.11282908D+01  1  2 15  2  7  2       -2 0.169922971872D-04 0.100000000000D+01
0.145137389813D-05 0.000000000000D+00 0.000000000000D+00 0.858077563585D-06 0.000000000000D+00  7 2 -2 23 -13 13 23 21 2 0.28669357D+00 0.40193824D-01 0.18458443D+06 0.18458443D+06 0.18458443D+06 0.11005109D+01  1  2 12  2  7  2       -2 0.107389869743D-04 0.100000000000D+01
-.154920261836D-04 0.000000000000D+00 0.000000000000D+00 0.858077563585D-06 0.000000000000D+00  7 2 -2 23 -13 13 23 21 2 0.28669357D+00 0.26755063D-01 0.83304493D+05 0.83304493D+05 0.83304493D+05 0.11282908D+01  1  2  4  2  7  2       -2 -.258481075323D-03 0.100000000000D+01
-.109152270096D-04 0.000000000000D+00 -.643082319792D-05 0.858077563585D-06 0.000000000000D+00  7 2 -2 23 -13 13 23 21 2 0.28669357D+00 0.43414735D-01 0.83304493D+05 0.83304493D+05 0.83304493D+05 0.11282908D+01  1  2  5  2  7  2       -2 -.762712017506D-04 0.100000000000D+01
0.131441890423D-04 0.000000000000D+00 0.574452348957D-05 0.858077563585D-06 0.000000000000D+00  7 2 -2 23 -13 13 23 21 2 0.28669357D+00 0.26755063D-01 0.83304493D+05 0.83304493D+05 0.83304493D+05 0.11282908D+01  1  2  6  2  7  2       -2 0.219307925099D-03 0.100000000000D+01
0.699706943198D-07 0.000000000000D+00 0.000000000000D+00 0.858077563585D-06 0.000000000000D+00  7 2 21 23 -13 13 23 2 2 0.28669357D+00 0.40193824D-01 0.18458443D+06 0.18458443D+06 0.18458443D+06 0.11005109D+01  1  2 12  4  7  2       -2 0.570750780724D-05 0.100000000000D+01
-.320474827701D-06 0.000000000000D+00 -.353472822521D-06 0.858077563585D-06 0.000000000000D+00  7 2 21 23 -13 13 23 2 2 0.28669357D+00 0.43414735D-01 0.83304493D+05 0.83304493D+05 0.83304493D+05 0.11282908D+01  1  2  5  4  7  2       -2 -.248847911833D-04 0.100000000000D+01
  </mgrwgt>
  </event>
  <event>
  7     66 0.55102590E-06 0.55374139E+03 0.75467711E-02 0.88148608E-01
        2 -1    0    0  501    0 0.00000000E+00 0.00000000E+00 0.14417128E+04 0.14417128E+04 0.32000000E+00 0.0000E+00 0.9000E+01
       -2 -1    0    0    0  501 0.00000000E+00 0.00000000E+00 -.41780374E+03 0.41780386E+03 0.32000000E+00 0.0000E+00 0.9000E+01
       25  2    1    2    0    0 -.58037264E+02 0.27864507E+03 -.10504090E+03 0.42709407E+03 0.30060664E+03 0.0000E+00 0.0000E+00
       23  1    3    3    0    0 0.89161065E+02 0.90854444E+02 -.60152054E+02 0.16774310E+03 0.91188000E+02 0.0000E+00 0.9000E+01
      -13  1    1    2    0    0 0.31321308E+03 0.59030157E+01 0.90817830E+02 0.32616739E+03 0.10565837E+00 0.0000E+00 0.9000E+01
       13  1    1    2    0    0 -.25517581E+03 -.28454809E+03 0.10381321E+04 0.11062552E+04 0.10565837E+00 0.0000E+00 0.9000E+01
       23  1    3    3    0    0 -.14719833E+03 0.18779063E+03 -.44888847E+02 0.25935097E+03 0.91188000E+02 0.0000E+00 0.9000E+01
#aMCatNLO 1  0  0  1  1 0.60811792D+03 0.00000000D+00  -5  7  0 0.00000000D+00 0.00000000D+00 0.00000000D+00 0.00000000D+00 0.00000000D+00
  <mgrwgt>
 0.1961128537D-01    6    2    0
 0.776114122868371D+03 0.000000000000000D+00 0.000000000000000D+00 0.776114122868371D+03
 0.776114122868371D+03 0.000000000000000D+00 0.000000000000000D+00 -.776114122868371D+03
 0.240641827931778D+03 0.891591891675069D+02 0.908634514800090D+02 -.182723042275681D+03
 0.330801850099571D+03 0.313192911988318D+03 0.588815208067817D+01 -.106326824341985D+03
 0.640460032331711D+03 -.255151118368070D+03 -.284554969541116D+03 0.513921617680472D+03
 0.340324535373681D+03 -.147200982787755D+03 0.187803365980429D+03 -.224871751062805D+03
 0.000000000000000D+00 0.000000000000000D+00 -.000000000000000D+00 0.000000000000000D+00
 0.140926723038882D+04 0.000000000000000D+00 0.000000000000000D+00 0.140926723038882D+04
 0.994135045561015D+03 0.000000000000000D+00 0.000000000000000D+00 -.994135045561015D+03
 0.283025566512532D+03 0.618598462949011D+02 0.185940499067929D+03 -.182723042275681D+03
 0.323637278017011D+03 0.279076298394948D+03 0.124708114498548D+03 -.106326824341985D+03
 0.608292631503314D+03 -.320249933942194D+03 -.578314467390676D+02 0.513921617680472D+03
 0.452143780760716D+03 -.188513205980085D+03 0.331683906576205D+03 -.224871751062805D+03
 0.736303019156267D+03 0.167826995232431D+03 -.584501073403614D+03 0.415132184827809D+03
0.344515009940D-02 0.000000000000D+00 0.000000000000D+00 0.507198985938D-10 0.000000000000D+00  7 2 -2 23 -13 13 23 21 0 0.22180198D+00 0.64277511D-01 0.30662953D+06 0.30662953D+06 0.30662953D+06 0.10838503D+01  1  2  2  1  7  1        2 0.137092884674D-01 0.100000000000D+01
-.164873983823D-03 0.000000000000D+00 -.132302835106D-04 0.507198985938D-10 0.000000000000D+00  7 2 -2 23 -13 13 23 21 2 0.22180198D+00 0.64277511D-01 0.30662953D+06 0.30662953D+06 0.30662953D+06 0.10838503D+01  1  2  3  1  7  1        2 -.770721481019D-03 0.100000000000D+01
0.213479209880D-03 0.000000000000D+00 0.000000000000D+00 0.507198985938D-10 0.000000000000D+00  7 2 -2 23 -13 13 23 21 2 0.22180198D+00 0.64277511D-01 0.30662953D+06 0.30662953D+06 0.30662953D+06 0.10838503D+01  1  2 15  1  7  1        2 0.997931929530D-03 0.100000000000D+01
-.863438104822D-03 0.000000000000D+00 -.930299209287D-03 0.507198985938D-10 0.000000000000D+00  7 2 -2 23 -13 13 23 21 2 0.43871331D+00 0.64277511D-01 0.30662953D+06 0.30662953D+06 0.30662953D+06 0.10838503D+01  1  2  5  1  7  1        2 -.645608950609D-03 0.100000000000D+01
0.135217653292D-02 0.000000000000D+00 0.749176663514D-03 0.507198985938D-10 0.000000000000D+00  7 2 -2 23 -13 13 23 21 2 0.22180198D+00 0.64277511D-01 0.30662953D+06 0.30662953D+06 0.30662953D+06 0.10838503D+01  1  2  6  1  7  1        2 0.632089718392D-02 0.100000000000D+01
-.845436906581D-05 0.000000000000D+00 -.686951882822D-04 0.507198985938D-10 0.000000000000D+00  7 21 -2 23 -13 13 23 -2 2 0.43871331D+00 0.64277511D-01 0.30662953D+06 0.30662953D+06 0.30662953D+06 0.10838503D+01  1  2  5  3  7  1        2 -.501776581724D-06 0.100000000000D+01
  </mgrwgt>
  </event>
  <event>
  9     66 -.55102590E-06 0.48107709E+03 0.75467711E-02 0.94145608E-01
        2 -1    0    0  501    0 0.00000000E+00 0.00000000E+00 0.16317632E+04 0.16317632E+04 0.32000000E+00 0.0000E+00 0.9000E+01
       -2 -1    0    0    0  502 0.00000000E+00 0.00000000E+00 -.18656500E+03 0.18656528E+03 0.32000000E+00 0.0000E+00 0.9000E+01
       25  2    1    2    0    0 0.42993189E+03 -.17614127E+03 0.52096837E+03 0.76013447E+03 0.30088069E+03 0.0000E+00 0.0000E+00
       23  2    1    2    0    0 -.35874189E+03 0.20954204E+03 0.83899647E+03 0.94222457E+03 0.10615302E+03 0.0000E+00 0.0000E+00
       23  1    3    3    0    0 0.22798666E+03 0.29099360E+02 0.18820004E+03 0.31073976E+03 0.91188000E+02 0.0000E+00 0.9000E+01
      -11  1    4    4    0    0 -.33531933E+03 0.19819902E+03 0.70242247E+03 0.80319315E+03 0.51099893E-03 0.0000E+00 0.9000E+01
       11  1    4    4    0    0 -.23422556E+02 0.11343015E+02 0.13657400E+03 0.13903142E+03 0.51099893E-03 0.0000E+00 0.9000E+01
       23  1    3    3    0    0 0.20194523E+03 -.20524063E+03 0.33276832E+03 0.44939470E+03 0.91188000E+02 0.0000E+00 0.9000E+01
       21  1    1    2  501  502 -.71190007E+02 -.33400766E+02 0.85233327E+02 0.11596944E+03 0.75000000E+00 0.0000E+00 0.9000E+01
#aMCatNLO 2  0  0  2  1 0.78636049D+02 0.00000000D+00  -5  7  0 0.00000000D+00 0.00000000D+00 0.00000000D+00 0.00000000D+00 0.00000000D+00
  <mgrwgt>
 -.4880841442D-04    2    2    0
 0.510474855898463D+03 0.000000000000000D+00 0.000000000000000D+00 0.510474855898463D+03
 0.510474855898463D+03 0.000000000000000D+00 0.000000000000000D+00 -.510474855898463D+03
 0.250593036245848D+03 0.209979769542479D+03 0.206509257183747D+02 -.998181051752368D+02
 0.420495384647378D+03 -.363967037097287D+03 0.184758155895158D+03 0.101038548319880D+03
 0.511623177161737D+02 -.269357191172583D+02 0.969471686143014D+01 0.424035641745311D+02
 0.298698973187525D+03 0.180922986672067D+03 -.215103798474963D+03 -.436240073191744D+02
 0.000000000000000D+00 -.000000000000000D+00 -.000000000000000D+00 -.000000000000000D+00
 0.545623937038464D+03 0.000000000000000D+00 0.000000000000000D+00 0.545623937038464D+03
 0.557945147341559D+03 0.000000000000000D+00 0.000000000000000D+00 -.557945147341559D+03
 0.266652577825811D+03 0.227986664214025D+03 0.290993597341393D+02 -.998181051752368D+02
 0.402406130236979D+03 -.335319329895027D+03 0.198199022208643D+03 0.101038548319880D+03
 0.497528127299084D+02 -.234225561724756D+02 0.113430146866252D+02 0.424035641745311D+02
 0.305162083480537D+03 0.201945228616420D+03 -.205240630662305D+03 -.436240073191744D+02
 0.795954801067876D+02 -.711900067629426D+02 -.334007659671019D+02 -.123212103030949D+02
-.131765107906D-04 0.000000000000D+00 0.000000000000D+00 0.402652704378D-08 0.000000000000D+00  7 2 -2 23 -11 11 23 21 2 0.23486773D+00 0.29533790D-01 0.27220659D+06 0.27220659D+06 0.27220659D+06 0.10876896D+01  1  2 13  2  7  2       -2 -.250309943962D-03 0.100000000000D+01
0.115106619566D-04 0.000000000000D+00 0.000000000000D+00 0.402652704377D-08 0.413457090792D-11  7 2 -2 23 -11 11 23 21 2 0.25103971D+00 0.28702240D-01 0.27220659D+06 0.27220659D+06 0.27220659D+06 0.10876896D+01  1  2  1  2  7  2       -2 0.201501529541D-03 0.100000000000D+01
  </mgrwgt>
  </event>
  <event>
  8     66 0.55102590E-06 0.34145209E+03 0.75467711E-02 0.84163851E-01
        2 -1    0    0  501    0 0.00000000E+00 0.00000000E+00 0.14406876E+04 0.14406876E+04 0.32000000E+00 0.0000E+00 0.9000E+01
       -2 -1    0    0    0  501 0.00000000E+00 0.00000000E+00 -.16339565E+03 0.16339596E+03 0.32000000E+00 0.0000E+00 0.9000E+01
       25  2    1    2    0    0 -.68728468E+02 0.29396498E+03 0.12110042E+04 0.12838680E+04 0.30107636E+03 0.0000E+00 0.0000E+00
       23  2    1    2    0    0 0.68728468E+02 -.29396498E+03 0.66287748E+02 0.32021555E+03 0.83695402E+02 0.0000E+00 0.0000E+00
       23  1    3    3    0    0 -.66761951E+02 0.78421545E+02 0.79262876E+03 0.80447666E+03 0.91188000E+02 0.0000E+00 0.9000E+01
      -13  1    4    4    0    0 0.17214200E+02 -.22269951E+03 0.31171477E+02 0.22552843E+03 0.10565837E+00 0.0000E+00 0.9000E+01
       13  1    4    4    0    0 0.51514268E+02 -.71265472E+02 0.35116271E+02 0.94687122E+02 0.10565837E+00 0.0000E+00 0.9000E+01
       23  1    3    3    0    0 -.19665171E+01 0.21554343E+03 0.41837543E+03 0.47939138E+03 0.91188000E+02 0.0000E+00 0.9000E+01
#aMCatNLO 1  0  0  2  1 0.13235315D+04 0.00000000D+00  -5  7  0 0.00000000D+00 0.00000000D+00 0.00000000D+00 0.00000000D+00 0.00000000D+00
  <mgrwgt>
 0.3205989492D-03    3    2    0
 0.485182813594599D+03 0.000000000000000D+00 0.000000000000000D+00 0.485182813594599D+03
 0.485182813594599D+03 0.000000000000000D+00 0.000000000000000D+00 -.485182813594599D+03
 0.286520331470291D+03 -.667619508903346D+02 0.784215449155729D+02 0.251339515811216D+03
 0.331783920520287D+03 0.172141459734661D+02 -.222699747993126D+03 -.245334598738161D+03
 0.110300676015165D+03 0.515143220892950D+02 -.712652311115013D+02 -.665866396787447D+02
 0.241760699183456D+03 -.196651717242656D+01 0.215543434189054D+03 0.605817226056899D+02
 0.000000000000000D+00 0.000000000000000D+00 0.000000000000000D+00 0.000000000000000D+00
 0.176344481779256D+04 0.000000000000000D+00 0.000000000000000D+00 0.176344481779256D+04
 0.128503763133220D+04 0.000000000000000D+00 0.000000000000000D+00 -.128503763133220D+04
 0.447181580000846D+03 -.275508495295387D+03 -.229302487906059D+03 0.251339515811216D+03
 0.799324587372838D+03 -.304599098176891D+03 -.697101226530673D+03 -.245334598738161D+03
 0.227543577040975D+03 -.446062130626017D+02 -.212961462769932D+03 -.665866396787447D+02
 0.167091614274782D+03 -.118289653683399D+03 0.440655073106092D+02 0.605817226056899D+02
 0.140734109043531D+04 0.743003460218278D+03 0.109529966989605D+04 0.478407186460360D+03
0.129357975735D-04 0.000000000000D+00 0.000000000000D+00 0.805901244275D-08 0.000000000000D+00  7 2 -2 23 -13 13 23 21 0 0.22164427D+00 0.25137819D-01 0.11658953D+06 0.11658953D+06 0.11658953D+06 0.11162926D+01  1  2  2  2  7  2       -2 0.314314808858D-03 0.100000000000D+01
-.610809449351D-06 0.000000000000D+00 -.496768687561D-07 0.805901244275D-08 0.000000000000D+00  7 2 -2 23 -13 13 23 21 2 0.22164427D+00 0.25137819D-01 0.11658953D+06 0.11658953D+06 0.11658953D+06 0.11162926D+01  1  2  3  2  7  2       -2 -.184941101398D-04 0.100000000000D+01
0.818357273925D-06 0.000000000000D+00 0.000000000000D+00 0.805901244275D-08 0.000000000000D+00  7 2 -2 23 -13 13 23 21 2 0.22164427D+00 0.25137819D-01 0.11658953D+06 0.11658953D+06 0.11658953D+06 0.11162926D+01  1  2 15  2  7  2       -2 0.247782505228D-04 0.100000000000D+01
  </mgrwgt>
  </event>
  <event>
  8     66 0.55102590E-06 0.33513758E+03 0.75467711E-02 0.90593915E-01
        2 -1    0    0  501    0 0.00000000E+00 0.00000000E+00 0.35397337E+04 0.35397337E+04 0.32000000E+00 0.0000E+00 0.9000E+01
       -2 -1    0    0    0  501 0.00000000E+00 0.00000000E+00 -.48153869E+02 0.48154932E+02 0.32000000E+00 0.0000E+00 0.9000E+01
       25  2    1    2    0    0 0.56237795E+02 -.26839664E+03 0.99967051E+03 0.10792744E+04 0.30048749E+03 0.0000E+00 0.0000E+00
       23  2    1    2    0    0 -.56237795E+02 0.26839664E+03 0.24919093E+04 0.25086142E+04 0.91289351E+02 0.0000E+00 0.0000E+00
       23  1    3    3    0    0 0.13530575E+03 -.17999343E+03 0.74833884E+03 0.78678559E+03 0.91188000E+02 0.0000E+00 0.9000E+01
      -11  1    4    4    0    0 -.15805296E+02 0.17799865E+03 0.12422329E+04 0.12550203E+04 0.51099893E-03 0.0000E+00 0.9000E+01
       11  1    4    4    0    0 -.40432499E+02 0.90397994E+02 0.12496764E+04 0.12535939E+04 0.51099893E-03 0.0000E+00 0.9000E+01
       23  1    3    3    0    0 -.79067956E+02 -.88403214E+02 0.25133167E+03 0.29248885E+03 0.91188000E+02 0.0000E+00 0.9000E+01
#aMCatNLO 1  0  0  1  1 0.60506525D+03 0.00000000D+00  -5  7  0 0.00000000D+00 0.00000000D+00 0.00000000D+00 0.00000000D+00 0.00000000D+00
  <mgrwgt>
 0.2192069237D-03    3    2    0
 0.412860515537799D+03 0.000000000000000D+00 0.000000000000000D+00 0.412860515537799D+03
 0.412860515537799D+03 0.000000000000000D+00 0.000000000000000D+00 -.412860515537799D+03
 0.254340446162325D+03 0.135305750733567D+03 -.179993429763782D+03 -.752896425170622D+02
 0.200452294830843D+03 -.158052959467009D+02 0.177998649106009D+03 0.908173774088660D+02
 0.162779482713626D+03 -.404324987235673D+02 0.903979942688491D+02 0.129192010866204D+03
 0.208148807368805D+03 -.790679560632985D+02 -.884032136110764D+02 -.144719745758008D+03
 0.000000000000000D+00 -.000000000000000D+00 0.000000000000000D+00 -.000000000000000D+00
 0.654973537362872D+03 0.000000000000000D+00 0.000000000000000D+00 0.654973537362872D+03
 0.115128266390220D+04 0.000000000000000D+00 0.000000000000000D+00 -.115128266390220D+04
 0.448311668868386D+03 0.137878959248831D+03 -.409864567175145D+03 -.752896425170622D+02
 0.117954797118985D+03 -.146392454605511D+02 0.738324496160203D+02 0.908173774088660D+02
 0.135235599458600D+03 -.393411265769266D+02 -.709700281327932D+01 0.129192010866204D+03
 0.322177170670366D+03 -.771258295210671D+02 -.261898223677800D+03 -.144719745758008D+03
 0.782576965148738D+03 -.677275769028600D+01 0.605027344050205D+03 -.496309126539329D+03
0.216234648763D-04 0.000000000000D+00 0.000000000000D+00 0.592758007634D-06 0.000000000000D+00  7 2 -2 23 -11 11 23 21 0 0.54457450D+00 0.74083704D-02 0.11231720D+06 0.11231720D+06 0.11231720D+06 0.11176057D+01  1  2  2  1  7  1        2 0.216266598097D-03 0.100000000000D+01
-.113776576432D-05 0.000000000000D+00 -.830397987141D-07 0.592758007634D-06 0.000000000000D+00  7 2 -2 23 -11 11 23 21 2 0.54457450D+00 0.74083704D-02 0.11231720D+06 0.11231720D+06 0.11231720D+06 0.11176057D+01  1  2  3  1  7  1        2 -.142132778289D-04 0.100000000000D+01
0.137313735369D-05 0.000000000000D+00 0.000000000000D+00 0.592758007634D-06 0.000000000000D+00  7 2 -2 23 -11 11 23 21 2 0.54457450D+00 0.74083704D-02 0.11231720D+06 0.11231720D+06 0.11231720D+06 0.11176057D+01  1  2 15  1  7  1        2 0.171536034193D-04 0.100000000000D+01
  </mgrwgt>
  </event>
  <event>
  8     66 0.55102590E-06 0.80137171E+02 0.75467711E-02 0.10881807E+00
        2 -1    0    0  501    0 0.00000000E+00 0.00000000E+00 0.97987066E+03 0.97987071E+03 0.32000000E+00 0.0000E+00 0.9000E+01
       -2 -1    0    0    0  501 0.00000000E+00 0.00000000E+00 -.39101128E+02 0.39102437E+02 0.32000000E+00 0.0000E+00 0.9000E+01
       25  2    1    2    0    0 -.98464381E+01 0.15025613E+02 0.72581517E+03 0.78559888E+03 0.30005868E+03 0.0000E+00 0.0000E+00
       23  2    1    2    0    0 0.98464381E+01 -.15025613E+02 0.21495436E+03 0.23337427E+03 0.89081159E+02 0.0000E+00 0.0000E+00
       23  1    3    3    0    0 0.39791607E+02 0.76251488E+02 0.14174171E+03 0.18921846E+03 0.91188000E+02 0.0000E+00 0.9000E+01
      -11  1    4    4    0    0 0.65381557E+01 -.49826581E+01 -.72245585E+01 0.10943885E+02 0.51099893E-03 0.0000E+00 0.9000E+01
       11  1    4    4    0    0 0.33082824E+01 -.10042954E+02 0.22217892E+03 0.22243039E+03 0.51099893E-03 0.0000E+00 0.9000E+01
       23  1    3    3    0    0 -.49638045E+02 -.61225875E+02 0.58407346E+03 0.59638042E+03 0.91188000E+02 0.0000E+00 0.9000E+01
#aMCatNLO 1  0  0  1  2 0.62769224D+02 0.00000000D+00  -5  7  0 0.00000000D+00 0.00000000D+00 0.00000000D+00 0.00000000D+00 0.00000000D+00
  <mgrwgt>
 0.2057530174D-03    9    2    0
 0.195741517919019D+03 0.000000000000000D+00 0.000000000000000D+00 0.195741517919019D+03
 0.195741517919019D+03 0.000000000000000D+00 0.000000000000000D+00 -.195741517919019D+03
 0.151889713145493D+03 0.397915706979103D+02 0.762515226874222D+02 -.857762776335206D+02
 0.458466203223570D+02 0.653818516182557D+01 -.498270304630095D+01 -.451036295670806D+02
 0.450375556237657D+02 0.330831131614025D+01 -.100429985203930D+02 0.437787011401511D+02
 0.148709146746423D+03 -.496380671758761D+02 -.612258211207283D+02 0.871012060604501D+02
 0.000000000000000D+00 -.000000000000000D+00 -.000000000000000D+00 0.000000000000000D+00
 0.248949345073945D+03 0.000000000000000D+00 0.000000000000000D+00 0.248949345073945D+03
 0.217666532315744D+03 0.000000000000000D+00 0.000000000000000D+00 -.217666532315744D+03
 0.164546414428390D+03 0.629188595585344D+02 0.862781459260116D+02 -.857762776335206D+02
 0.470762237983873D+02 0.133296140489378D+02 -.203834155572072D+01 -.451036295670806D+02
 0.454589584593039D+02 0.992240762089931D+01 -.717551793885039D+01 0.437787011401511D+02
 0.139401622098651D+03 -.285809867912074D+02 -.520967177141794D+02 0.871012060604501D+02
 0.701326586049576D+02 -.575898944371641D+02 -.249675687172611D+02 0.312828127582011D+02
0.440471305433D-06 0.000000000000D+00 0.000000000000D+00 0.399253171274D-07 0.000000000000D+00  7 2 -2 23 -11 11 23 21 0 0.15074944D+00 0.60156629D-02 0.17513443D+05 0.17513443D+05 0.17513443D+05 0.11896656D+01  1  2  2  1  7  1        2 0.183577480188D-03 0.100000000000D+01
-.199119237430D-07 0.000000000000D+00 -.169152579162D-08 0.399253171274D-07 0.000000000000D+00  7 2 -2 23 -11 11 23 21 2 0.15074944D+00 0.60156629D-02 0.17513443D+05 0.17513443D+05 0.17513443D+05 0.11896656D+01  1  2  3  1  7  1        2 -.117453180038D-04 0.100000000000D+01
0.277434968412D-07 0.000000000000D+00 0.000000000000D+00 0.399253171274D-07 0.000000000000D+00  7 2 -2 23 -11 11 23 21 2 0.15074944D+00 0.60156629D-02 0.17513443D+05 0.17513443D+05 0.17513443D+05 0.11896656D+01  1  2 15  1  7  1        2 0.163648775046D-04 0.100000000000D+01
0.248926759783D-06 0.000000000000D+00 0.000000000000D+00 0.399253171274D-07 0.000000000000D+00  7 2 -2 23 -11 11 23 21 2 0.19838723D+00 0.60156629D-02 0.28520407D+05 0.28520407D+05 0.28520407D+05 0.11693794D+01  1  2 12  1  7  1        2 0.956043972123D-04 0.100000000000D+01
-.361963939566D-06 0.000000000000D+00 0.000000000000D+00 0.399253171274D-07 0.000000000000D+00  7 2 -2 23 -11 11 23 21 2 0.15074944D+00 0.60156629D-02 0.17513443D+05 0.17513443D+05 0.17513443D+05 0.11896656D+01  1  2  4  1  7  1        2 -.213509333953D-03 0.100000000000D+01
-.518013800416D-06 0.000000000000D+00 -.206969052114D-06 0.399253171274D-07 0.000000000000D+00  7 2 -2 23 -11 11 23 21 2 0.20405855D+00 0.60156629D-02 0.17513443D+05 0.17513443D+05 0.17513443D+05 0.11896656D+01  1  2  5  1  7  1        2 -.195935872268D-03 0.100000000000D+01
0.563777865688D-06 0.000000000000D+00 0.197830936880D-06 0.399253171274D-07 0.000000000000D+00  7 2 -2 23 -11 11 23 21 2 0.15074944D+00 0.60156629D-02 0.17513443D+05 0.17513443D+05 0.17513443D+05 0.11896656D+01  1  2  6  1  7  1        2 0.332552012626D-03 0.100000000000D+01
0.902438651724D-08 0.000000000000D+00 0.000000000000D+00 0.399253171274D-07 0.000000000000D+00  7 21 -2 23 -11 11 23 -2 2 0.19838723D+00 0.60156629D-02 0.28520407D+05 0.28520407D+05 0.28520407D+05 0.11693794D+01  1  2 12  3  7  1        2 0.178367443463D-05 0.100000000000D+01
-.154506731552D-07 0.000000000000D+00 -.805407622972D-08 0.399253171274D-07 0.000000000000D+00  7 21 -2 23 -11 11 23 -2 2 0.20405855D+00 0.60156629D-02 0.17513443D+05 0.17513443D+05 0.17513443D+05 0.11896656D+01  1  2  5  3  7  1        2 -.293890031169D-05 0.100000000000D+01
  </mgrwgt>
  </event>
  <event>
  8     66 0.55102590E-06 0.35244730E+03 0.75467711E-02 0.95378950E-01
        2 -1    0    0  501    0 0.00000000E+00 0.00000000E+00 0.26928746E+04 0.26928746E+04 0.32000000E+00 0.0000E+00 0.9000E+01
       -2 -1    0    0    0  501 0.00000000E+00 0.00000000E+00 -.77879351E+02 0.77880008E+02 0.32000000E+00 0.0000E+00 0.9000E+01
       25  2    1    2    0    0 -.35992356E+03 -.18171445E+03 0.14951617E+04 0.15771194E+04 0.29871716E+03 0.0000E+00 0.0000E+00
       23  2    1    2    0    0 0.35992356E+03 0.18171445E+03 0.11198336E+04 0.11936352E+04 0.90403471E+02 0.0000E+00 0.0000E+00
       23  1    3    3    0    0 -.30407143E+03 -.46180864E+02 0.82764251E+03 0.88763702E+03 0.91188000E+02 0.0000E+00 0.9000E+01
      -11  1    4    4    0    0 0.10680831E+03 0.22699530E+02 0.38896215E+03 0.40399856E+03 0.51099893E-03 0.0000E+00 0.9000E+01
       11  1    4    4    0    0 0.25311525E+03 0.15901492E+03 0.73087140E+03 0.78963668E+03 0.51099893E-03 0.0000E+00 0.9000E+01
       23  1    3    3    0    0 -.55852134E+02 -.13553359E+03 0.66751917E+03 0.68948235E+03 0.91188000E+02 0.0000E+00 0.9000E+01
#aMCatNLO 1  0  0  1  2 0.34186044D+02 0.00000000D+00  -5  7  0 0.00000000D+00 0.00000000D+00 0.00000000D+00 0.00000000D+00 0.00000000D+00
  <mgrwgt>
 0.4958610430D-03    9    2    0
 0.457952247952002D+03 0.000000000000000D+00 0.000000000000000D+00 0.457952247952002D+03
 0.457952247952002D+03 0.000000000000000D+00 0.000000000000000D+00 -.457952247952002D+03
 0.322242279987279D+03 -.304071430364106D+03 -.461808641753201D+02 -.305406071934915D+02
 0.111634685103703D+03 0.106808310396276D+03 0.226995304927037D+02 0.232167840991474D+02
 0.302066685369032D+03 0.253115254190888D+03 0.159014922415437D+03 -.434879863287393D+02
 0.179960845443990D+03 -.558521342230578D+02 -.135533588732820D+03 0.508118094230834D+02
 0.000000000000000D+00 0.000000000000000D+00 -.000000000000000D+00 0.000000000000000D+00
 0.475846940550592D+03 0.000000000000000D+00 0.000000000000000D+00 0.475846940550592D+03
 0.474894634529543D+03 0.000000000000000D+00 0.000000000000000D+00 -.474894634529543D+03
 0.327875353905018D+03 -.311327441028189D+03 -.364622013794172D+02 -.305406071934915D+02
 0.110006309626427D+03 0.104334558974198D+03 0.260128602306376D+02 0.232167840991474D+02
 0.301380890893786D+03 0.246380131468001D+03 0.168035910622742D+03 -.434879863287393D+02
 0.177279714786764D+03 -.598393223557004D+02 -.130193169767232D+03 0.508118094230834D+02
 0.341993058681410D+02 0.204520729416909D+02 -.273933997067303D+02 0.952306021049242D+00
0.927625793855D-05 0.000000000000D+00 0.000000000000D+00 0.947138893238D-07 0.000000000000D+00  7 2 -2 23 -11 11 23 21 0 0.41428845D+00 0.11981491D-01 0.20319537D+06 0.20319537D+06 0.20319537D+06 0.10972971D+01  1  2  2  1  7  1        2 0.151087261852D-03 0.100000000000D+01
-.515191176515D-06 0.000000000000D+00 -.356232729788D-07 0.947138893238D-07 0.000000000000D+00  7 2 -2 23 -11 11 23 21 2 0.41428845D+00 0.11981491D-01 0.20319537D+06 0.20319537D+06 0.20319537D+06 0.10972971D+01  1  2  3  1  7  1        2 -.101035011909D-04 0.100000000000D+01
0.595183948430D-06 0.000000000000D+00 0.000000000000D+00 0.947138893238D-07 0.000000000000D+00  7 2 -2 23 -11 11 23 21 2 0.41428845D+00 0.11981491D-01 0.20319537D+06 0.20319537D+06 0.20319537D+06 0.10972971D+01  1  2 15  1  7  1        2 0.116722529536D-04 0.100000000000D+01
0.168789680982D-04 0.000000000000D+00 0.000000000000D+00 0.947138893238D-07 0.000000000000D+00  7 2 -2 23 -11 11 23 21 2 0.43785352D+00 0.11981491D-01 0.21913308D+06 0.21913308D+06 0.21913308D+06 0.10947910D+01  1  2 12  1  7  1        2 0.265589100394D-03 0.100000000000D+01
-.132285562999D-04 0.000000000000D+00 0.000000000000D+00 0.947138893238D-07 0.000000000000D+00  7 2 -2 23 -11 11 23 21 2 0.41428845D+00 0.11981491D-01 0.20319537D+06 0.20319537D+06 0.20319537D+06 0.10972971D+01  1  2  4  1  7  1        2 -.259427452219D-03 0.100000000000D+01
-.907516517444D-04 0.000000000000D+00 -.146609557394D-04 0.947138893238D-07 0.000000000000D+00  7 2 -2 23 -11 11 23 21 2 0.43667794D+00 0.11981491D-01 0.20319537D+06 0.20319537D+06 0.20319537D+06 0.10972971D+01  1  2  5  1  7  1        2 -.145491033447D-02 0.100000000000D+01
0.914169383214D-04 0.000000000000D+00 0.146406716531D-04 0.947138893238D-07 0.000000000000D+00  7 2 -2 23 -11 11 23 21 2 0.41428845D+00 0.11981491D-01 0.20319537D+06 0.20319537D+06 0.20319537D+06 0.10972971D+01  1  2  6  1  7  1        2 0.179279301995D-02 0.100000000000D+01
0.185994961772D-06 0.000000000000D+00 0.000000000000D+00 0.947138893238D-07 0.000000000000D+00  7 21 -2 23 -11 11 23 -2 2 0.43785352D+00 0.11981491D-01 0.21913308D+06 0.21913308D+06 0.21913308D+06 0.10947910D+01  1  2 12  3  7  1        2 0.238302258654D-06 0.100000000000D+01
-.814735354891D-06 0.000000000000D+00 -.133922464635D-06 0.947138893238D-07 0.000000000000D+00  7 21 -2 23 -11 11 23 -2 2 0.43667794D+00 0.11981491D-01 0.20319537D+06 0.20319537D+06 0.20319537D+06 0.10972971D+01  1  2  5  3  7  1        2 -.107760648551D-05 0.100000000000D+01
  </mgrwgt>
  </event>
  <event>
  8     66 0.55102590E-06 0.42792976E+03 0.75467711E-02 0.87765585E-01
        2 -1    0    0  501    0 0.00000000E+00 0.00000000E+00 0.20330467E+04 0.20330467E+04 0.32000000E+00 0.0000E+00 0.9000E+01
       -2 -1    0    0    0  501 0.00000000E+00 0.00000000E+00 -.10155822E+03 0.10155872E+03 0.32000000E+00 0.0000E+00 0.9000E+01
       25  2    1    2    0    0 -.36347758E+03 -.16219153E+03 0.11241282E+04 0.12297352E+04 0.30027051E+03 0.0000E+00 0.0000E+00
       23  2    1    2    0    0 0.36347758E+03 0.16219153E+03 0.80736022E+03 0.90487020E+03 0.92398610E+02 0.0000E+00 0.0000E+00
       23  1    3    3    0    0 -.13261046E+03 -.10644806E+03 0.76929440E+03 0.79312411E+03 0.91188000E+02 0.0000E+00 0.9000E+01
      -13  1    4    4    0    0 0.31040558E+03 0.98642412E+02 0.65198934E+03 0.72881552E+03 0.10565837E+00 0.0000E+00 0.9000E+01
       13  1    4    4    0    0 0.53072000E+02 0.63549123E+02 0.15537087E+03 0.17605467E+03 0.10565837E+00 0.0000E+00 0.9000E+01
       23  1    3    3    0    0 -.23086712E+03 -.55743479E+02 0.35483383E+03 0.43661111E+03 0.91188000E+02 0.0000E+00 0.9000E+01
#aMCatNLO 1  0  0  2  2 0.78719862D+03 0.00000000D+00  -5  7  0 0.00000000D+00 0.00000000D+00 0.00000000D+00 0.00000000D+00 0.00000000D+00
  <mgrwgt>
 0.1982685905D-03    5    2    0
 0.454393176172210D+03 0.000000000000000D+00 0.000000000000000D+00 0.454393176172210D+03
 0.454393176172210D+03 0.000000000000000D+00 0.000000000000000D+00 -.454393176172210D+03
 0.227912490903546D+03 -.132610458787879D+03 -.106448055854699D+03 0.121293568628688D+03
 0.326175628060474D+03 0.310405916228842D+03 0.986424579891708D+02 -.175605521733266D+02
 0.833088214813035D+02 0.530716634832080D+02 0.635490764378198D+02 -.923434651878433D+01
 0.271389411899097D+03 -.230867120924171D+03 -.557434785722914D+02 -.944986699365770D+02
 0.000000000000000D+00 -.000000000000000D+00 -.000000000000000D+00 -.000000000000000D+00
 0.864805614762963D+03 0.000000000000000D+00 0.000000000000000D+00 0.864805614762963D+03
 0.118876915537785D+04 0.000000000000000D+00 0.000000000000000D+00 -.118876915537785D+04
 0.175597300294950D+03 -.811545606163575D+02 0.349423529167461D+02 0.121293568628688D+03
 0.603773657583649D+03 0.428993808742319D+03 0.424498019618541D+03 -.175605521733266D+02
 0.177666382964805D+03 0.863514347258964D+02 0.154995161863031D+03 -.923434651878433D+01
 0.245283038944869D+03 -.164980627960289D+03 0.125299288218556D+03 -.944986699365770D+02
 0.851254390352540D+03 -.269210054891569D+03 -.739734822616875D+03 -.323963540614887D+03
0.717658427080D-05 0.000000000000D+00 0.000000000000D+00 0.258944126868D-06 0.000000000000D+00  7 2 -2 23 -13 13 23 21 0 0.31277645D+00 0.15624382D-01 0.18312388D+06 0.18312388D+06 0.18312388D+06 0.11007779D+01  1  2  2  2  7  2       -2 0.181441117493D-03 0.100000000000D+01
-.396953770251D-06 0.000000000000D+00 -.275599732379D-07 0.258944126868D-06 0.000000000000D+00  7 2 -2 23 -13 13 23 21 2 0.31277645D+00 0.15624382D-01 0.18312388D+06 0.18312388D+06 0.18312388D+06 0.11007779D+01  1  2  3  2  7  2       -2 -.121606638384D-04 0.100000000000D+01
0.459121553181D-06 0.000000000000D+00 0.000000000000D+00 0.258944126868D-06 0.000000000000D+00  7 2 -2 23 -13 13 23 21 2 0.31277645D+00 0.15624382D-01 0.18312388D+06 0.18312388D+06 0.18312388D+06 0.11007779D+01  1  2 15  2  7  2       -2 0.140651715328D-04 0.100000000000D+01
0.599935159339D-05 0.000000000000D+00 -.357130318201D-05 0.258944126868D-06 0.000000000000D+00  7 2 -2 23 -13 13 23 21 2 0.31277645D+00 0.97976751D-01 0.18312388D+06 0.18312388D+06 0.18312388D+06 0.11007779D+01  1  2  5  2  7  2       -2 0.551265508651D-05 0.100000000000D+01
0.109044826159D-05 0.000000000000D+00 -.803468560339D-06 0.258944126868D-06 0.000000000000D+00  7 2 21 23 -13 13 23 2 2 0.31277645D+00 0.97976751D-01 0.18312388D+06 0.18312388D+06 0.18312388D+06 0.11007779D+01  1  2  5  4  7  2       -2 0.941031020470D-05 0.100000000000D+01
  </mgrwgt>
  </event>
  <event>
  8     66 0.55102590E-06 0.29054083E+03 0.75467711E-02 0.93483747E-01
        2 -1    0    0  501    0 0.00000000E+00 0.00000000E+00 0.13981272E+04 0.13981272E+04 0.32000000E+00 0.0000E+00 0.9000E+01
       -2 -1    0    0    0  501 0.00000000E+00 0.00000000E+00 -.13755554E+03 0.13755592E+03 0.32000000E+00 0.0000E+00 0.9000E+01
       25  2    1    2    0    0 -.43909117E+02 -.20952399E+03 0.13628769E+03 0.38759601E+03 0.29296419E+03 0.0000E+00 0.0000E+00
       23  2    1    2    0    0 0.43909117E+02 0.20952399E+03 0.11242839E+04 0.11480871E+04 0.90891951E+02 0.0000E+00 0.0000E+00
       23  1    3    3    0    0 0.66186105E+02 -.16742026E+03 0.28799716E+02 0.20384999E+03 0.91188000E+02 0.0000E+00 0.9000E+01
      -11  1    4    4    0    0 -.19715687E+02 0.12833477E+02 0.73907303E+02 0.77560917E+02 0.51099893E-03 0.0000E+00 0.9000E+01
       11  1    4    4    0    0 0.63624803E+02 0.19669051E+03 0.10503766E+04 0.10705262E+04 0.51099893E-03 0.0000E+00 0.9000E+01
       23  1    3    3    0    0 -.11009522E+03 -.42103729E+02 0.10748798E+03 0.18374602E+03 0.91188000E+02 0.0000E+00 0.9000E+01
#aMCatNLO 1  0  0  1  2 0.41624425D+03 0.00000000D+00  -5  7  0 0.00000000D+00 0.00000000D+00 0.00000000D+00 0.00000000D+00 0.00000000D+00
  <mgrwgt>
 0.4616085971D-02    3    2    0
 0.438543565773400D+03 0.000000000000000D+00 0.000000000000000D+00 0.438543565773400D+03
 0.438543565773400D+03 0.000000000000000D+00 0.000000000000000D+00 -.438543565773400D+03
 0.315527249790938D+03 0.661861053970795D+02 -.167420260774737D+03 -.242553189529881D+03
 0.295792075935511D+02 -.197156867134025D+02 0.128334765780461D+02 0.179310651719885D+02
 0.364746019997266D+03 0.636248034364306D+02 0.196690513570989D+03 0.300506880724389D+03
 0.167234654165046D+03 -.110095222120108D+03 -.421037293742980D+02 -.758847563664960D+02
 0.000000000000000D+00 0.000000000000000D+00 -.000000000000000D+00 -.000000000000000D+00
 0.617463046450939D+03 0.000000000000000D+00 0.000000000000000D+00 0.617463046450939D+03
 0.813465278752705D+03 0.000000000000000D+00 0.000000000000000D+00 -.813465278752705D+03
 0.314359085816416D+03 -.755557830734649D+02 -.161138627846864D+03 -.242553189529881D+03
 0.423582110136077D+02 -.359036002918785D+02 0.135508829288812D+02 0.179310651719885D+02
 0.377704015633189D+03 -.103447038253566D+03 0.204094704339186D+03 0.300506880724389D+03
 0.236424251283808D+03 -.200929666879264D+03 -.380781823370660D+02 -.758847563664960D+02
 0.460082761456623D+03 0.415836088498173D+03 -.184287770841381D+02 -.196002232301765D+03
0.130665226043D-03 0.000000000000D+00 0.000000000000D+00 0.111726805003D-07 0.000000000000D+00  7 2 -2 23 -11 11 23 21 0 0.21509652D+00 0.21162423D-01 0.84413976D+05 0.84413976D+05 0.84413976D+05 0.11278111D+01  1  2  2  1  7  1        2 0.451223003976D-02 0.100000000000D+01
-.576307291045D-05 0.000000000000D+00 -.501788872948D-06 0.111726805003D-07 0.000000000000D+00  7 2 -2 23 -11 11 23 21 2 0.21509652D+00 0.21162423D-01 0.84413976D+05 0.84413976D+05 0.84413976D+05 0.11278111D+01  1  2  3  1  7  1        2 -.253138404154D-03 0.100000000000D+01
0.812750792108D-05 0.000000000000D+00 0.000000000000D+00 0.111726805003D-07 0.000000000000D+00  7 2 -2 23 -11 11 23 21 2 0.21509652D+00 0.21162423D-01 0.84413976D+05 0.84413976D+05 0.84413976D+05 0.11278111D+01  1  2 15  1  7  1        2 0.356994335637D-03 0.100000000000D+01
  </mgrwgt>
  </event>
  <event>
  8     66 0.55102590E-06 0.20272454E+03 0.75467711E-02 0.95943019E-01
        2 -1    0    0  501    0 0.00000000E+00 0.00000000E+00 0.40354805E+03 0.40354818E+03 0.32000000E+00 0.0000E+00 0.9000E+01
       -2 -1    0    0    0  501 0.00000000E+00 0.00000000E+00 -.30931076E+03 0.30931092E+03 0.32000000E+00 0.0000E+00 0.9000E+01
       25  2    1    2    0    0 -.12493756E+03 0.29050541E+02 0.30642242E+03 0.44872019E+03 0.30166503E+03 0.0000E+00 0.0000E+00
       23  2    1    2    0    0 0.12493756E+03 -.29050541E+02 -.21218512E+03 0.26413891E+03 0.91068711E+02 0.0000E+00 0.0000E+00
       23  1    3    3    0    0 -.45912429E+02 -.59168655E+02 0.27031161E+03 0.29494491E+03 0.91188000E+02 0.0000E+00 0.9000E+01
      -11  1    4    4    0    0 0.91296188E+02 -.43777669E+02 -.20211841E+03 0.22606046E+03 0.51099893E-03 0.0000E+00 0.9000E+01
       11  1    4    4    0    0 0.33641368E+02 0.14727128E+02 -.10066714E+02 0.38078454E+02 0.51099893E-03 0.0000E+00 0.9000E+01
       23  1    3    3    0    0 -.79025127E+02 0.88219195E+02 0.36110807E+02 0.15377529E+03 0.91188000E+02 0.0000E+00 0.9000E+01
#aMCatNLO 1  0  0  2  1 0.39645319D+03 0.00000000D+00  -5  7  0 0.00000000D+00 0.00000000D+00 0.00000000D+00 0.00000000D+00 0.00000000D+00
  <mgrwgt>
 0.1927433596D-03    5    2    0
 0.353301370672298D+03 0.000000000000000D+00 0.000000000000000D+00 0.353301370672298D+03
 0.353301370672298D+03 0.000000000000000D+00 0.000000000000000D+00 -.353301370672298D+03
 0.261505818086482D+03 -.459124289994067D+02 -.591686547396326D+02 0.233369151150611D+03
 0.255017896865684D+03 0.912961880643544D+02 -.437776685956817D+02 -.234056936447184D+03
 0.397581710573807D+02 0.336413679908358D+02 0.147271279123565D+02 -.152342452713022D+02
 0.150320855335050D+03 -.790251270557836D+02 0.882191954229578D+02 0.159220305678754D+02
 0.000000000000000D+00 0.000000000000000D+00 -.000000000000000D+00 -.000000000000000D+00
 0.497717983304253D+03 0.000000000000000D+00 0.000000000000000D+00 0.497717983304253D+03
 0.829422866620586D+03 0.000000000000000D+00 0.000000000000000D+00 -.829422866620586D+03
 0.298921619041612D+03 -.159615095969628D+03 0.331774534331391D+02 0.233369151150611D+03
 0.237168753536033D+03 -.856140471268208D+01 0.373238597165422D+02 -.234056936447184D+03
 0.361462465115841D+02 0.182414533174220D+02 0.272345054803337D+02 -.152342452713022D+02
 0.237987156375453D+03 -.157807238016737D+03 0.152203810161897D+03 0.159220305678754D+02
 0.516917074460156D+03 0.307742285381625D+03 -.249939628791912D+03 -.331704883316333D+03
0.429321310063D-05 0.000000000000D+00 0.000000000000D+00 0.127943670983D-06 0.000000000000D+00  7 2 -2 23 -11 11 23 21 0 0.62084338D-01 0.47586293D-01 0.41097240D+05 0.41097240D+05 0.41097240D+05 0.11548620D+01  1  2  2  2  7  2       -2 0.175149294257D-03 0.100000000000D+01
-.149033516231D-06 0.000000000000D+00 -.164870687354D-07 0.127943670983D-06 0.000000000000D+00  7 2 -2 23 -11 11 23 21 2 0.62084338D-01 0.47586293D-01 0.41097240D+05 0.41097240D+05 0.41097240D+05 0.11548620D+01  1  2  3  2  7  2       -2 -.810905149046D-05 0.100000000000D+01
0.266834652766D-06 0.000000000000D+00 0.000000000000D+00 0.127943670983D-06 0.000000000000D+00  7 2 -2 23 -11 11 23 21 2 0.62084338D-01 0.47586293D-01 0.41097240D+05 0.41097240D+05 0.41097240D+05 0.11548620D+01  1  2 15  2  7  2       -2 0.145187203083D-04 0.100000000000D+01
0.853905822349D-06 0.000000000000D+00 -.135330131743D-05 0.127943670983D-06 0.000000000000D+00  7 2 -2 23 -11 11 23 21 2 0.62084338D-01 0.14356561D+00 0.41097240D+05 0.41097240D+05 0.41097240D+05 0.11548620D+01  1  2  5  2  7  2       -2 0.387179403445D-05 0.100000000000D+01
0.174334380209D-06 0.000000000000D+00 -.170212136537D-06 0.127943670983D-06 0.000000000000D+00  7 2 21 23 -11 11 23 2 2 0.62084338D-01 0.14356561D+00 0.41097240D+05 0.41097240D+05 0.41097240D+05 0.11548620D+01  1  2  5  4  7  2       -2 0.731260246052D-05 0.100000000000D+01
  </mgrwgt>
  </event>
  <event>
  8     66 0.55102590E-06 0.36734057E+03 0.75467711E-02 0.87032886E-01
        2 -1    0    0  501    0 0.00000000E+00 0.00000000E+00 0.22334703E+04 0.22334703E+04 0.32000000E+00 0.0000E+00 0.9000E+01
       -2 -1    0    0    0  501 0.00000000E+00 0.00000000E+00 -.49942065E+03 0.49942076E+03 0.32000000E+00 0.0000E+00 0.9000E+01
       25  2    1    2    0    0 0.99591077E+03 0.83466411E+02 0.54573725E+03 0.11774719E+04 0.29967646E+03 0.0000E+00 0.0000E+00
       23  2    1    2    0    0 -.99591077E+03 -.83466411E+02 0.11883124E+04 0.15554192E+04 0.91856590E+02 0.0000E+00 0.0000E+00
       23  1    3    3    0    0 0.92855853E+02 0.26774863E+02 0.87872803E+02 0.15929841E+03 0.91188000E+02 0.0000E+00 0.9000E+01
      -13  1    4    4    0    0 -.28880225E+03 -.26922165E+02 0.28242125E+03 0.40483739E+03 0.10565837E+00 0.0000E+00 0.9000E+01
       13  1    4    4    0    0 -.70710852E+03 -.56544245E+02 0.90589113E+03 0.11505818E+04 0.10565837E+00 0.0000E+00 0.9000E+01
       23  1    3    3    0    0 0.90305491E+03 0.56691548E+02 0.45786444E+03 0.10181735E+04 0.91188000E+02 0.0000E+00 0.9000E+01
#aMCatNLO 1  0  0  1  2 0.31217011D+02 0.00000000D+00  -5  7  0 0.00000000D+00 0.00000000D+00 0.00000000D+00 0.00000000D+00 0.00000000D+00
  <mgrwgt>
 0.3092307461D-03    9    2    0
 0.105614457447240D+04 0.000000000000000D+00 0.000000000000000D+00 0.105614457447240D+04
 0.105614457447240D+04 0.000000000000000D+00 0.000000000000000D+00 -.105614457447240D+04
 0.133963382968391D+03 0.928558525940927D+02 0.267748626781313D+02 -.170831495903752D+02
 0.291931038710787D+03 -.288801695230297D+03 -.269221260206039D+02 0.330531590834592D+02
 0.744952832328155D+03 -.707109070951761D+03 -.565442845061121D+02 0.227495556134993D+03
 0.941441894937460D+03 0.903054913587965D+03 0.566915478485847D+02 -.243465565628077D+03
 0.000000000000000D+00 -.000000000000000D+00 0.000000000000000D+00 0.000000000000000D+00
 0.107262285222265D+04 0.000000000000000D+00 0.000000000000000D+00 0.107262285222265D+04
 0.107114875453542D+04 0.000000000000000D+00 0.000000000000000D+00 -.107114875453542D+04
 0.135204419405515D+03 0.947792421294202D+02 0.262687065579553D+02 -.170831495903752D+02
 0.287936574576705D+03 -.284658141322898D+03 -.280125370533084D+02 0.330531590834592D+02
 0.735140734436424D+03 -.696532781913795D+03 -.593275238484253D+02 0.227495556134993D+03
 0.954238082268019D+03 0.916600854069442D+03 0.531268197722867D+02 -.243465565628077D+03
 0.312517960714082D+02 -.301891729621694D+02 0.794453457149155D+01 0.147409768722434D+01
0.963284964959D-04 0.000000000000D+00 0.000000000000D+00 0.590922058544D-05 0.000000000000D+00  7 2 -2 23 -13 13 23 21 0 0.34361082D+00 0.76833957D-01 0.10421406D+07 0.10421406D+07 0.10421406D+07 0.10466727D+01  1  2  2  1  7  1        2 0.882434274872D-04 0.100000000000D+01
-.534406723859D-05 0.000000000000D+00 -.369926790420D-06 0.590922058544D-05 0.000000000000D+00  7 2 -2 23 -13 13 23 21 2 0.34361082D+00 0.76833957D-01 0.10421406D+07 0.10421406D+07 0.10421406D+07 0.10466727D+01  1  2  3  1  7  1        2 -.536316712986D-05 0.100000000000D+01
0.603076857249D-05 0.000000000000D+00 0.000000000000D+00 0.590922058544D-05 0.000000000000D+00  7 2 -2 23 -13 13 23 21 2 0.34361082D+00 0.76833957D-01 0.10421406D+07 0.10421406D+07 0.10421406D+07 0.10466727D+01  1  2 15  1  7  1        2 0.605232275938D-05 0.100000000000D+01
0.787776375455D-04 0.000000000000D+00 0.000000000000D+00 0.590922058544D-05 0.000000000000D+00  7 2 -2 23 -13 13 23 21 2 0.35137653D+00 0.76833957D-01 0.10744175D+07 0.10744175D+07 0.10744175D+07 0.10457952D+01  1  2 12  1  7  1        2 0.737004732099D-04 0.100000000000D+01
-.618788953742D-04 0.000000000000D+00 0.000000000000D+00 0.590922058544D-05 0.000000000000D+00  7 2 -2 23 -13 13 23 21 2 0.34361082D+00 0.76833957D-01 0.10421406D+07 0.10421406D+07 0.10421406D+07 0.10466727D+01  1  2  4  1  7  1        2 -.621000528037D-04 0.100000000000D+01
-.315186061284D-02 0.000000000000D+00 -.398662149945D-03 0.590922058544D-05 0.000000000000D+00  7 2 -2 23 -13 13 23 21 2 0.35131093D+00 0.76833957D-01 0.10421406D+07 0.10421406D+07 0.10421406D+07 0.10466727D+01  1  2  5  1  7  1        2 -.296126723808D-02 0.100000000000D+01
0.316001758268D-02 0.000000000000D+00 0.398564267757D-03 0.590922058544D-05 0.000000000000D+00  7 2 -2 23 -13 13 23 21 2 0.34361082D+00 0.76833957D-01 0.10421406D+07 0.10421406D+07 0.10421406D+07 0.10466727D+01  1  2  6  1  7  1        2 0.317131160081D-02 0.100000000000D+01
0.220475826743D-05 0.000000000000D+00 0.000000000000D+00 0.590922058544D-05 0.000000000000D+00  7 21 -2 23 -13 13 23 -2 2 0.35137653D+00 0.76833957D-01 0.10744175D+07 0.10744175D+07 0.10744175D+07 0.10457952D+01  1  2 12  3  7  1        2 0.283454553245D-06 0.100000000000D+01
-.126010261022D-04 0.000000000000D+00 -.160286918108D-05 0.590922058544D-05 0.000000000000D+00  7 21 -2 23 -13 13 23 -2 2 0.35131093D+00 0.76833957D-01 0.10421406D+07 0.10421406D+07 0.10421406D+07 0.10466727D+01  1  2  5  3  7  1        2 -.163007470596D-05 0.100000000000D+01
  </mgrwgt>
  </event>
  <event>
  9     66 -.55102590E-06 0.50477971E+03 0.75467711E-02 0.94007946E-01
        2 -1    0    0  501    0 0.00000000E+00 0.00000000E+00 0.21058799E+04 0.21058799E+04 0.32000000E+00 0.0000E+00 0.9000E+01
       -2 -1    0    0    0  502 0.00000000E+00 0.00000000E+00 -.17905736E+03 0.17905765E+03 0.32000000E+00 0.0000E+00 0.9000E+01
       25  2    1    2    0    0 0.33619147E+03 0.33270135E+03 0.45154437E+03 0.71948517E+03 0.30008616E+03 0.0000E+00 0.0000E+00
       23  2    1    2    0    0 -.36089487E+03 -.29493011E+03 0.13906416E+04 0.14695314E+04 0.91704001E+02 0.0000E+00 0.0000E+00
       23  1    3    3    0    0 0.22732158E+03 0.30658482E+03 0.22941992E+03 0.45455264E+03 0.91188000E+02 0.0000E+00 0.9000E+01
      -11  1    4    4    0    0 -.11028701E+02 -.40117251E+02 0.10268266E+03 0.11079150E+03 0.51099893E-03 0.0000E+00 0.9000E+01
       11  1    4    4    0    0 -.34986617E+03 -.25481286E+03 0.12879589E+04 0.13587399E+04 0.51099893E-03 0.0000E+00 0.9000E+01
       23  1    3    3    0    0 0.10886988E+03 0.26116539E+02 0.22212444E+03 0.26493253E+03 0.91188000E+02 0.0000E+00 0.9000E+01
       21  1    1    2  501  502 0.24703403E+02 -.37771243E+02 0.84636534E+02 0.95920959E+02 0.75000000E+00 0.0000E+00 0.9000E+01
#aMCatNLO 2  0  0  2  1 0.45132304D+02 0.00000000D+00  -5  7  0 0.00000000D+00 0.00000000D+00 0.00000000D+00 0.00000000D+00 0.00000000D+00
  <mgrwgt>
 -.1543918942D-03    3    2    0
 0.590784969524362D+03 0.000000000000000D+00 0.000000000000000D+00 0.590784969524362D+03
 0.590784969524362D+03 0.000000000000000D+00 0.000000000000000D+00 -.590784969524362D+03
 0.479383075439154D+03 0.237389583267560D+03 0.291190949884709D+03 -.283455284189229D+03
 0.462153690094781D+02 -.100741515152060D+02 -.415767472107517D+02 0.174855910767737D+02
 0.510021464501579D+03 -.339219458524874D+03 -.271091568829598D+03 0.267509653134113D+03
 0.145950030098513D+03 0.111904026772520D+03 0.214773661556402D+02 -.153996002165758D+01
 0.000000000000000D+00 0.000000000000000D+00 -.000000000000000D+00 0.000000000000000D+00
 0.617693238812312D+03 0.000000000000000D+00 0.000000000000000D+00 0.617693238812312D+03
 0.610448431005557D+03 0.000000000000000D+00 0.000000000000000D+00 -.610448431005557D+03
 0.484077990531157D+03 0.227321583442169D+03 0.306584815571860D+03 -.283455284189229D+03
 0.451306101565996D+02 -.110287010396001D+02 -.401172510421882D+02 0.174855910767737D+02
 0.508819560027274D+03 -.349866169242475D+03 -.254812860283798D+03 0.267509653134113D+03
 0.144403421138709D+03 0.108869883931041D+03 0.261165386017473D+02 -.153996002165758D+01
 0.457100879641300D+02 0.247034029088650D+02 -.377712428476209D+02 0.724480780675576D+01
-.348244799352D-04 0.000000000000D+00 0.000000000000D+00 0.266290784821D-05 0.000000000000D+00  7 2 -2 23 -11 11 23 21 2 0.30986654D+00 0.28131140D-01 0.27897678D+06 0.27897678D+06 0.27897678D+06 0.10868941D+01  1  2 13  2  7  2       -2 -.389996700699D-03 0.100000000000D+01
-.276636712194D-05 0.000000000000D+00 0.000000000000D+00 0.266290784821D-05 0.000000000000D+00  7 2 -2 23 -11 11 23 21 2 0.30986654D+00 0.26659837D-01 0.25480256D+06 0.25480256D+06 0.25480256D+06 0.10898380D+01  1  2  8  2  7  2       -2 -.343494471225D-04 0.100000000000D+01
0.260979939330D-04 0.000000000000D+00 0.000000000000D+00 0.266290784821D-05 0.824860162315D-08  7 2 -2 23 -11 11 23 21 2 0.32397992D+00 0.27547172D-01 0.27897678D+06 0.27897678D+06 0.27897678D+06 0.10868941D+01  1  2  1  2  7  2       -2 0.269954253639D-03 0.100000000000D+01
  </mgrwgt>
  </event>
  <event>
  8     66 0.55102590E-06 0.31089995E+03 0.75467711E-02 0.97009896E-01
        4 -1    0    0  501    0 0.00000000E+00 0.00000000E+00 0.42761606E+02 0.42789689E+02 0.15500000E+01 0.0000E+00 0.9000E+01
       -4 -1    0    0    0  501 0.00000000E+00 0.00000000E+00 -.24964933E+04 0.24964937E+04 0.15500000E+01 0.0000E+00 0.9000E+01
       25  2    1    2    0    0 -.18455227E+03 -.14053615E+03 -.11223571E+04 0.11848345E+04 0.30056180E+03 0.0000E+00 0.0000E+00
       23  2    1    2    0    0 0.18455227E+03 0.14053615E+03 -.13313746E+04 0.13544490E+04 0.90353401E+02 0.0000E+00 0.0000E+00
       23  1    3    3    0    0 -.17510928E+03 0.14863920E+02 -.63508526E+03 0.66523134E+03 0.91188000E+02 0.0000E+00 0.9000E+01
      -13  1    4    4    0    0 0.48660270E+02 0.82152451E+02 -.66777986E+03 0.67457157E+03 0.10565837E+00 0.0000E+00 0.9000E+01
       13  1    4    4    0    0 0.13589200E+03 0.58383695E+02 -.66359473E+03 0.67987739E+03 0.10565837E+00 0.0000E+00 0.9000E+01
       23  1    3    3    0    0 -.94429869E+01 -.15540007E+03 -.48727181E+03 0.51960313E+03 0.91188000E+02 0.0000E+00 0.9000E+01
#aMCatNLO 1  0  0  1  1 0.16872113D+03 0.00000000D+00  -5  7  0 0.00000000D+00 0.00000000D+00 0.00000000D+00 0.00000000D+00 0.00000000D+00
  <mgrwgt>
 0.5903207488D-05    4    2    0
 0.326787894651596D+03 0.000000000000000D+00 0.000000000000000D+00 0.326787894651596D+03
 0.326787894651596D+03 0.000000000000000D+00 0.000000000000000D+00 -.326787894651596D+03
 0.200255452535111D+03 -.175109284508554D+03 0.148639201369704D+02 0.300465852154031D+02
 0.113798265855182D+03 0.486601508417466D+02 0.821524831570416D+02 -.619128786508692D+02
 0.150124954828650D+03 0.135892120697910D+03 0.583836631295161D+02 -.257328870146383D+02
 0.189397116084248D+03 -.944298703110314D+01 -.155400066423528D+03 0.575991804501044D+02
 0.000000000000000D+00 -.000000000000000D+00 0.000000000000000D+00 -.000000000000000D+00
 0.370934916503060D+03 0.000000000000000D+00 0.000000000000000D+00 0.370934916503060D+03
 0.550361032123030D+03 0.000000000000000D+00 0.000000000000000D+00 -.550361032123030D+03
 0.161540672741449D+03 -.129175199452309D+03 0.138241878282137D+02 0.300465852154031D+02
 0.129607497209783D+03 0.795632485884670D+02 0.814529819232936D+02 -.619128786508692D+02
 0.189777195827581D+03 0.179046519565806D+03 0.574068498825998D+02 -.257328870146383D+02
 0.194076954705963D+03 0.392433568900135D+02 -.156502096968123D+03 0.575991804501044D+02
 0.246293628141314D+03 -.168677925591978D+03 0.381807733401638D+01 -.179426115619969D+03
0.622842112592D-04 0.000000000000D+00 0.000000000000D+00 0.111834629995D-06 0.000000000000D+00  7 4 -4 23 -13 13 23 21 0 0.65809059D-02 0.38407808D+00 0.96658780D+05 0.96658780D+05 0.96658780D+05 0.11229352D+01  1  2  2  1  7  1        4 0.637601905960D-05 0.100000000000D+01
-.344978324810D-05 0.000000000000D+00 -.239187771045D-06 0.111834629995D-06 0.000000000000D+00  7 4 -4 23 -13 13 23 21 2 0.65809059D-02 0.38407808D+00 0.96658780D+05 0.96658780D+05 0.96658780D+05 0.11229352D+01  1  2  3  1  7  1        4 -.445320638161D-06 0.100000000000D+01
0.396926270414D-05 0.000000000000D+00 0.000000000000D+00 0.111834629995D-06 0.000000000000D+00  7 4 -4 23 -13 13 23 21 2 0.65809059D-02 0.38407808D+00 0.96658780D+05 0.96658780D+05 0.96658780D+05 0.11229352D+01  1  2 15  1  7  1        4 0.512378452011D-06 0.100000000000D+01
-.418222782229D-05 0.000000000000D+00 0.000000000000D+00 0.111834629995D-06 0.000000000000D+00  7 4 -4 23 -13 13 23 21 2 0.65809059D-02 0.38407808D+00 0.96658780D+05 0.96658780D+05 0.96658780D+05 0.11229352D+01  1  2  4  1  7  1        4 -.539869385644D-06 0.100000000000D+01
  </mgrwgt>
  </event>
  <event>
  9     66 -.55102590E-06 0.27499759E+03 0.75467711E-02 0.10073412E+00
        2 -1    0    0  502    0 0.00000000E+00 0.00000000E+00 0.15966402E+04 0.15966402E+04 0.32000000E+00 0.0000E+00 0.9000E+01
       -2 -1    0    0    0  501 0.00000000E+00 0.00000000E+00 -.13249216E+03 0.13249254E+03 0.32000000E+00 0.0000E+00 0.9000E+01
       25  2    1    2    0    0 0.10465893E+03 0.19011615E+03 0.17739880E+03 0.41092403E+03 0.30048391E+03 0.0000E+00 0.0000E+00
       23  2    1    2    0    0 -.55131067E+02 -.17465341E+03 0.11975981E+04 0.12150555E+04 0.92603386E+02 0.0000E+00 0.0000E+00
       23  1    3    3    0    0 0.12576271E+03 0.19942992E+03 0.58776603E+02 0.25953515E+03 0.91188000E+02 0.0000E+00 0.9000E+01
      -13  1    4    4    0    0 -.37586839E+01 -.14532786E+03 0.80407475E+03 0.81711109E+03 0.10565837E+00 0.0000E+00 0.9000E+01
       13  1    4    4    0    0 -.51372384E+02 -.29325550E+02 0.39352333E+03 0.39794438E+03 0.10565837E+00 0.0000E+00 0.9000E+01
       23  1    3    3    0    0 -.21103775E+02 -.93137726E+01 0.11862220E+03 0.15138888E+03 0.91188000E+02 0.0000E+00 0.9000E+01
       21  1    1    2  502  501 -.49527863E+02 -.15462745E+02 0.89151137E+02 0.10315325E+03 0.75000000E+00 0.0000E+00 0.9000E+01
#aMCatNLO 2  0  0  1  2 0.51885506D+02 0.00000000D+00  -5  7  0 0.00000000D+00 0.00000000D+00 0.00000000D+00 0.00000000D+00 0.00000000D+00
  <mgrwgt>
 -.4823272845D-04    2    2    0
 0.433157247035712D+03 0.000000000000000D+00 0.000000000000000D+00 0.433157247035712D+03
 0.433157247035712D+03 0.000000000000000D+00 0.000000000000000D+00 -.433157247035712D+03
 0.383081081948502D+03 0.103594386450126D+03 0.192508909548713D+03 -.301072062541881D+03
 0.260227762118714D+03 -.185293551802172D+02 -.149939473618283D+03 0.211880403588892D+03
 0.125766939870582D+03 -.584511238006447D+02 -.315353838081242D+02 0.106800322372766D+03
 0.972387101336258D+02 -.266139074692639D+02 -.110340521223061D+02 -.176086634197767D+02
 0.000000000000000D+00 -.000000000000000D+00 -.000000000000000D+00 0.000000000000000D+00
 0.461737439374554D+03 0.000000000000000D+00 0.000000000000000D+00 0.461737439374554D+03
 0.458139534470083D+03 0.000000000000000D+00 0.000000000000000D+00 -.458139534470083D+03
 0.393126177255511D+03 0.125762706121638D+03 0.199429924548128D+03 -.301072062541881D+03
 0.256958483656926D+03 -.375862237642850D+01 -.145328007129068D+03 0.211880403588892D+03
 0.122087739059900D+03 -.513724451494743D+02 -.293253993868085D+02 0.106800322372766D+03
 0.956944725154184D+02 -.211037754555641D+02 -.931377260267341D+01 -.176086634197767D+02
 0.520101013568810D+02 -.495278631401709D+02 -.154627454295775D+02 0.359790490447165D+01
-.614105871697D-05 0.000000000000D+00 0.000000000000D+00 0.266043721800D-06 0.000000000000D+00  7 2 -2 23 -13 13 23 21 2 0.25187752D+00 0.19271821D-01 0.90983017D+05 0.90983017D+05 0.90983017D+05 0.11251055D+01  1  2 13  1  7  1        2 -.232640261074D-03 0.100000000000D+01
0.507969757383D-05 0.000000000000D+00 0.000000000000D+00 0.266043721800D-06 0.669012430736D-09  7 2 -2 23 -13 13 23 21 2 0.24563554D+00 0.20383321D-01 0.90983017D+05 0.90983017D+05 0.90983017D+05 0.11251055D+01  1  2  1  1  7  1        2 0.184407532626D-03 0.100000000000D+01
  </mgrwgt>
  </event>
  <event>
  8     66 0.55102590E-06 0.27612548E+03 0.75467711E-02 0.95796929E-01
        2 -1    0    0  501    0 0.00000000E+00 0.00000000E+00 0.16648672E+04 0.16648672E+04 0.32000000E+00 0.0000E+00 0.9000E+01
       -2 -1    0    0    0  501 0.00000000E+00 0.00000000E+00 -.66147157E+02 0.66147931E+02 0.32000000E+00 0.0000E+00 0.9000E+01
       25  2    1    2    0    0 -.29107782E+02 0.20931520E+03 0.58030379E+03 0.68669636E+03 0.30023207E+03 0.0000E+00 0.0000E+00
       23  2    1    2    0    0 0.29107782E+02 -.20931520E+03 0.10184163E+04 0.10443188E+04 0.93648057E+02 0.0000E+00 0.0000E+00
       23  1    3    3    0    0 -.75526857E+02 0.18615453E+03 0.52192019E+03 0.56663370E+03 0.91188000E+02 0.0000E+00 0.9000E+01
      -13  1    4    4    0    0 -.21075280E+02 -.14591779E+02 0.19633735E+03 0.19800367E+03 0.10565837E+00 0.0000E+00 0.9000E+01
       13  1    4    4    0    0 0.50183062E+02 -.19472343E+03 0.82207892E+03 0.84631514E+03 0.10565837E+00 0.0000E+00 0.9000E+01
       23  1    3    3    0    0 0.46419074E+02 0.23160679E+02 0.58383593E+02 0.12006266E+03 0.91188000E+02 0.0000E+00 0.9000E+01
#aMCatNLO 1  0  0  2  2 0.29236334D+03 0.00000000D+00  -5  7  0 0.00000000D+00 0.00000000D+00 0.00000000D+00 0.00000000D+00 0.00000000D+00
  <mgrwgt>
 0.5364447663D-03    3    2    0
 0.331853775511666D+03 0.000000000000000D+00 0.000000000000000D+00 0.331853775511666D+03
 0.331853775511666D+03 0.000000000000000D+00 0.000000000000000D+00 -.331853775511666D+03
 0.220650280305873D+03 -.755268568958255D+02 0.186154526801329D+03 -.367163367877620D+01
 0.434811121143296D+02 -.210753672201122D+02 -.145915526383240D+02 0.351215403824966D+02
 0.227073572951378D+03 0.501831498379517D+02 -.194723654380285D+03 0.105483446236998D+03
 0.172502585651751D+03 0.464190742779860D+02 0.231606802172797D+02 -.136933352940719D+03
 0.000000000000000D+00 0.000000000000000D+00 -.000000000000000D+00 0.000000000000000D+00
 0.697542136433106D+03 0.000000000000000D+00 0.000000000000000D+00 0.697542136433106D+03
 0.426427633275576D+03 0.000000000000000D+00 0.000000000000000D+00 -.426427633275576D+03
 0.329521150563750D+03 -.123626311303097D+03 0.291499556748507D+03 -.367163367877620D+01
 0.455217314617793D+02 -.288565568212151D+02 0.245042136437737D+01 0.351215403824966D+02
 0.160919511600921D+03 0.162623487319006D+02 -.120432004872324D+03 0.105483446236998D+03
 0.189285173799041D+03 0.147893078735285D+02 0.924346196030884D+02 -.136933352940719D+03
 0.398722202283192D+03 0.121431211518883D+03 -.265952592843649D+03 0.271114503157531D+03
0.661029835964D-05 0.000000000000D+00 0.000000000000D+00 0.115865005362D-06 0.000000000000D+00  7 2 -2 23 -13 13 23 21 0 0.25613348D+00 0.10176548D-01 0.76245278D+05 0.76245278D+05 0.76245278D+05 0.11315179D+01  1  2  2  2  7  2       -2 0.528848030544D-03 0.100000000000D+01
-.352148229289D-06 0.000000000000D+00 -.253852862325D-07 0.115865005362D-06 0.000000000000D+00  7 2 -2 23 -13 13 23 21 2 0.25613348D+00 0.10176548D-01 0.76245278D+05 0.76245278D+05 0.76245278D+05 0.11315179D+01  1  2  3  2  7  2       -2 -.360710027294D-04 0.100000000000D+01
0.426312429080D-06 0.000000000000D+00 0.000000000000D+00 0.115865005362D-06 0.000000000000D+00  7 2 -2 23 -13 13 23 21 2 0.25613348D+00 0.10176548D-01 0.76245278D+05 0.76245278D+05 0.76245278D+05 0.11315179D+01  1  2 15  2  7  2       -2 0.436677385089D-04 0.100000000000D+01
  </mgrwgt>
  </event>
  <event>
  9     66 0.55102590E-06 0.39234603E+03 0.75467711E-02 0.97112440E-01
       21 -1    0    0  501  502 0.00000000E+00 0.00000000E+00 0.27462759E+03 0.27462861E+03 0.75000000E+00 0.0000E+00 0.9000E+01
       -2 -1    0    0    0  501 0.00000000E+00 0.00000000E+00 -.74691923E+03 0.74691930E+03 0.32000000E+00 0.0000E+00 0.9000E+01
       25  2    1    2    0    0 0.32454817E+03 -.25461549E+01 -.43752356E+03 0.62309346E+03 0.30245760E+03 0.0000E+00 0.0000E+00
       23  2    1    2    0    0 -.34593052E+03 -.40684135E+01 0.20595745E+01 0.35535762E+03 0.81180801E+02 0.0000E+00 0.0000E+00
       23  1    3    3    0    0 0.29065966E+03 0.75831838E+02 -.35226037E+03 0.47184333E+03 0.91188000E+02 0.0000E+00 0.9000E+01
      -11  1    4    4    0    0 -.11235315E+03 -.10127826E+02 -.36446198E+02 0.11855011E+03 0.51099893E-03 0.0000E+00 0.9000E+01
       11  1    4    4    0    0 -.23357737E+03 0.60594127E+01 0.38505773E+02 0.23680751E+03 0.51099893E-03 0.0000E+00 0.9000E+01
       23  1    3    3    0    0 0.33888517E+02 -.78377993E+02 -.85263183E+02 0.15125013E+03 0.91188000E+02 0.0000E+00 0.9000E+01
       -2  1    1    2    0  502 0.21382345E+02 0.66145684E+01 -.36827665E+02 0.43096827E+02 0.32000000E+00 0.0000E+00 0.9000E+01
#aMCatNLO 2  0  0  1  2 0.22382073D+02 0.00000000D+00  -5  7  0 0.00000000D+00 0.00000000D+00 0.00000000D+00 0.00000000D+00 0.00000000D+00
  <mgrwgt>
 0.1156214225D-04    1    2    0
 0.437960239947243D+03 0.000000000000000D+00 0.000000000000000D+00 0.437960239947243D+03
 0.437960239947243D+03 0.000000000000000D+00 0.000000000000000D+00 -.437960239947243D+03
 0.359616537461810D+03 0.299341946566143D+03 0.785176803878747D+02 -.158865274885738D+03
 0.111488560516216D+03 -.109598067855851D+03 -.927554871454632D+01 0.182188595769938D+02
 0.278013926006316D+03 -.226723900702921D+03 0.817951322181965D+01 0.160689487730067D+03
 0.126801455910144D+03 0.369800219926298D+02 -.774216448951480D+02 -.200430724213231D+02
 0.000000000000000D+00 0.000000000000000D+00 0.000000000000000D+00 -.000000000000000D+00
 0.443160549471816D+03 0.000000000000000D+00 0.000000000000000D+00 0.443160549471816D+03
 0.462867002152514D+03 0.000000000000000D+00 0.000000000000000D+00 -.462867002152514D+03
 0.351833668892900D+03 0.290659656568842D+03 0.758318383095167D+02 -.158865274885738D+03
 0.114270426677579D+03 -.112353151737767D+03 -.101278261922343D+02 0.182188595769938D+02
 0.283577527715553D+03 -.233577366789047D+03 0.605941269506486D+01 0.160689487730067D+03
 0.126524770370104D+03 0.338885171468354D+02 -.783779932551847D+02 -.200430724213231D+02
 0.298211579681928D+02 0.213823448111371D+02 0.661456844283747D+01 -.197064526806975D+02
0.285683941689D-06 0.000000000000D+00 0.000000000000D+00 0.980324156310D-09 0.287303805604D-13  7 21 -2 23 -11 11 23 -2 2 0.42250401D-01 0.11491051D+00 0.16309427D+06 0.16309427D+06 0.16309427D+06 0.11046949D+01  1  2  1  3  7  1        2 0.115621422490D-04 0.100000000000D+01
  </mgrwgt>
  </event>
  <event>
  8     66 0.55102590E-06 0.16586659E+03 0.75467711E-02 0.96262142E-01
        2 -1    0    0  501    0 0.00000000E+00 0.00000000E+00 0.18570020E+03 0.18570047E+03 0.32000000E+00 0.0000E+00 0.9000E+01
       -2 -1    0    0    0  501 0.00000000E+00 0.00000000E+00 -.32237679E+03 0.32237695E+03 0.32000000E+00 0.0000E+00 0.9000E+01
       25  2    1    2    0    0 0.68268382E+02 -.27063029E+02 0.23693777E+02 0.31026593E+03 0.30051718E+03 0.0000E+00 0.0000E+00
       23  2    1    2    0    0 -.68268382E+02 0.27063029E+02 -.16037037E+03 0.19781149E+03 0.89541892E+02 0.0000E+00 0.0000E+00
       23  1    3    3    0    0 0.72722147E+02 -.89374622E+02 -.72393272E+02 0.16380589E+03 0.91188000E+02 0.0000E+00 0.9000E+01
      -13  1    4    4    0    0 -.15380820E+02 0.11253851E+02 -.13624193E+03 0.13756851E+03 0.10565837E+00 0.0000E+00 0.9000E+01
       13  1    4    4    0    0 -.52887562E+02 0.15809178E+02 -.24128438E+02 0.60242983E+02 0.10565837E+00 0.0000E+00 0.9000E+01
       23  1    3    3    0    0 -.44537656E+01 0.62311593E+02 0.96087049E+02 0.14646004E+03 0.91188000E+02 0.0000E+00 0.9000E+01
#aMCatNLO 1  0  0  2  2 0.36732760D+03 0.00000000D+00  -5  7  0 0.00000000D+00 0.00000000D+00 0.00000000D+00 0.00000000D+00 0.00000000D+00
  <mgrwgt>
 0.1470038664D-03    5    2    0
 0.244674363568836D+03 0.000000000000000D+00 0.000000000000000D+00 0.244674363568836D+03
 0.244674363568836D+03 0.000000000000000D+00 0.000000000000000D+00 -.244674363568836D+03
 0.149855522567928D+03 0.727221470226885D+02 -.893746191147780D+02 -.294124648849027D+02
 0.104780909671027D+03 -.153807711445917D+02 0.112538454648374D+02 -.103033110565192D+03
 0.558094304636329D+02 -.528876142004046D+02 0.158091846357757D+02 -.822572027339823D+01
 0.178902864435085D+03 -.445376167769230D+01 0.623115890141649D+02 0.140671295723493D+03
 0.000000000000000D+00 -.000000000000000D+00 -.000000000000000D+00 -.000000000000000D+00
 0.346512542153656D+03 0.000000000000000D+00 0.000000000000000D+00 0.346512542153656D+03
 0.113730206100092D+04 0.000000000000000D+00 0.000000000000000D+00 -.113730206100092D+04
 0.238059541293863D+03 0.201906517705282D+03 -.820107241436459D+02 -.294124648849027D+02
 0.119970714175630D+03 0.594665338233484D+02 0.155203653986646D+02 -.103033110565192D+03
 0.308232583162876D+02 -.240369960543599D+02 0.174537560398638D+02 -.822572027339823D+01
 0.223022082500619D+03 0.129396212630145D+03 0.699414373269566D+02 0.140671295723493D+03
 0.871939006868176D+03 -.366732268104416D+03 -.209048346218391D+02 -.790789518847262D+03
0.165146495655D-05 0.000000000000D+00 0.000000000000D+00 0.642498469358D-07 0.000000000000D+00  7 2 -2 23 -13 13 23 21 0 0.28569295D-01 0.49596463D-01 0.27511725D+05 0.27511725D+05 0.27511725D+05 0.11708410D+01  1  2  2  2  7  2       -2 0.144792107447D-03 0.100000000000D+01
-.748900274549D-07 0.000000000000D+00 -.634206027386D-08 0.642498469358D-07 0.000000000000D+00  7 2 -2 23 -13 13 23 21 2 0.28569295D-01 0.49596463D-01 0.27511725D+05 0.27511725D+05 0.27511725D+05 0.11708410D+01  1  2  3  2  7  2       -2 -.900109503424D-05 0.100000000000D+01
0.101604329053D-06 0.000000000000D+00 0.000000000000D+00 0.642498469358D-07 0.000000000000D+00  7 2 -2 23 -13 13 23 21 2 0.28569295D-01 0.49596463D-01 0.27511725D+05 0.27511725D+05 0.27511725D+05 0.11708410D+01  1  2 15  2  7  2       -2 0.122119092859D-04 0.100000000000D+01
-.147387362920D-06 0.000000000000D+00 -.718598010111D-06 0.642498469358D-07 0.000000000000D+00  7 2 -2 23 -13 13 23 21 2 0.28569295D-01 0.27189813D+00 0.27511725D+05 0.27511725D+05 0.27511725D+05 0.11708410D+01  1  2  5  2  7  2       -2 -.221559255221D-06 0.100000000000D+01
-.638880253987D-07 0.000000000000D+00 -.149626402722D-06 0.642498469358D-07 0.000000000000D+00  7 2 21 23 -13 13 23 2 2 0.28569295D-01 0.27189813D+00 0.27511725D+05 0.27511725D+05 0.27511725D+05 0.11708410D+01  1  2  5  4  7  2       -2 -.777495993181D-06 0.100000000000D+01
  </mgrwgt>
  </event>
  <event>
  9     66 0.55102590E-06 0.35813309E+03 0.75467711E-02 0.93404983E-01
        2 -1    0    0  501    0 0.00000000E+00 0.00000000E+00 0.14869279E+04 0.14869279E+04 0.32000000E+00 0.0000E+00 0.9000E+01
       21 -1    0    0  502  501 0.00000000E+00 0.00000000E+00 -.24935013E+03 0.24935126E+03 0.75000000E+00 0.0000E+00 0.9000E+01
       25  2    1    2    0    0 0.90443124E+02 -.39035870E+03 0.32590670E+03 0.59736500E+03 0.30011646E+03 0.0000E+00 0.0000E+00
       23  2    1    2    0    0 -.26086196E+03 0.10880120E+03 0.66276540E+03 0.72627471E+03 0.91270601E+02 0.0000E+00 0.0000E+00
       23  1    3    3    0    0 0.15471843E+03 -.32227234E+03 0.22378363E+03 0.43149927E+03 0.91188000E+02 0.0000E+00 0.9000E+01
      -13  1    4    4    0    0 -.16437274E+03 0.92570898E+02 0.33789271E+03 0.38698742E+03 0.10565837E+00 0.0000E+00 0.9000E+01
       13  1    4    4    0    0 -.96489220E+02 0.16230302E+02 0.32487269E+03 0.33928729E+03 0.10565837E+00 0.0000E+00 0.9000E+01
       23  1    3    3    0    0 -.64275310E+02 -.68086362E+02 0.10212307E+03 0.16586573E+03 0.91188000E+02 0.0000E+00 0.9000E+01
        2  1    1    2  502    0 0.17041884E+03 0.28155750E+03 0.24890564E+03 0.41263946E+03 0.32000000E+00 0.0000E+00 0.9000E+01
#aMCatNLO 2  0  0  2  1 0.32911579D+03 0.00000000D+00  -5  7  0 0.00000000D+00 0.00000000D+00 0.00000000D+00 0.00000000D+00 0.00000000D+00
  <mgrwgt>
 0.2627843685D-04    1    2    0
 0.408115289892378D+03 0.000000000000000D+00 0.000000000000000D+00 0.408115289892378D+03
 0.408115289892378D+03 0.000000000000000D+00 0.000000000000000D+00 -.408115289892378D+03
 0.349814968385895D+03 0.229804434586880D+03 -.198218991932039D+03 -.148170219155118D+03
 0.215893309974598D+03 -.122345062644930D+03 0.162007182010919D+03 0.734525691523226D+02
 0.142150608391526D+03 -.676077870917857D+02 0.639465116699926D+02 0.107456159599495D+03
 0.108371693032738D+03 -.398515848501638D+02 -.277347017488729D+02 -.327385095966996D+02
 0.000000000000000D+00 0.000000000000000D+00 0.000000000000000D+00 -.000000000000000D+00
 0.565937181092195D+03 0.000000000000000D+00 0.000000000000000D+00 0.565937181092195D+03
 0.655137342225262D+03 0.000000000000000D+00 0.000000000000000D+00 -.655137342225262D+03
 0.397576303547189D+03 0.154718434399026D+03 -.322272335162181D+03 -.148170219155118D+03
 0.202442825335717D+03 -.164372830848930D+03 0.925710002837823D+02 0.734525691523226D+02
 0.145328584973744D+03 -.964891288703680D+02 0.162301997657518D+02 0.107456159599495D+03
 0.134737260926567D+03 -.642753099432388D+02 -.680863617700441D+02 -.327385095966996D+02
 0.340989548534238D+03 0.170418835263511D+03 0.281557496882691D+03 -.892001611330676D+02
0.195260254451D-06 0.000000000000D+00 0.000000000000D+00 0.110330732832D-05 0.423471632924D-11  7 2 21 23 -13 13 23 2 2 0.22875819D+00 0.38361644D-01 0.31094084D+06 0.31094084D+06 0.31094084D+06 0.10834028D+01  1  2  1  4  7  2       -2 0.262784368458D-04 0.100000000000D+01
  </mgrwgt>
  </event>
  <event>
  9     66 0.55102590E-06 0.26429122E+03 0.75467711E-02 0.94946899E-01
        2 -1    0    0  501    0 0.00000000E+00 0.00000000E+00 0.20645653E+04 0.20645653E+04 0.32000000E+00 0.0000E+00 0.9000E+01
       21 -1    0    0  502  501 0.00000000E+00 0.00000000E+00 -.32208425E+03 0.32208513E+03 0.75000000E+00 0.0000E+00 0.9000E+01
       25  2    1    2    0    0 0.32165142E+03 -.29792786E+02 -.30680591E+02 0.44198424E+03 0.30010252E+03 0.0000E+00 0.0000E+00
       23  2    1    2    0    0 0.81275221E+01 0.16302838E+03 0.14565389E+04 0.14684773E+04 0.90969585E+02 0.0000E+00 0.0000E+00
       23  1    3    3    0    0 0.33064027E+03 0.15769748E+00 -.39153777E+02 0.34521194E+03 0.91188000E+02 0.0000E+00 0.9000E+01
      -13  1    4    4    0    0 -.18466463E+02 0.14201227E+03 0.13220056E+04 0.13297395E+04 0.10565837E+00 0.0000E+00 0.9000E+01
       13  1    4    4    0    0 0.26593985E+02 0.21016105E+02 0.13453337E+03 0.13873773E+03 0.10565837E+00 0.0000E+00 0.9000E+01
       23  1    3    3    0    0 -.89888515E+01 -.29950484E+02 0.84731854E+01 0.96772295E+02 0.91188000E+02 0.0000E+00 0.9000E+01
        2  1    1    2  502    0 -.32977894E+03 -.13323559E+03 0.31662267E+03 0.47618893E+03 0.32000000E+00 0.0000E+00 0.9000E+01
#aMCatNLO 2  0  0  2  2 0.35567665D+03 0.00000000D+00  -5  7  0 0.00000000D+00 0.00000000D+00 0.00000000D+00 0.00000000D+00 0.00000000D+00
  <mgrwgt>
 0.3994352201D-04    1    2    0
 0.610386193401984D+03 0.000000000000000D+00 0.000000000000000D+00 0.610386193401984D+03
 0.610386193401984D+03 0.000000000000000D+00 0.000000000000000D+00 -.610386193401984D+03
 0.496638569146838D+03 0.190485184042550D+03 -.564670415320394D+02 -.445938880230367D+03
 0.526382357583335D+03 -.156322096331602D+03 0.863167383688694D+02 0.495167859670681D+03
 0.505061684528727D+02 0.122909489565224D+02 0.152372782150712D+02 0.465578240270595D+02
 0.147245291620923D+03 -.464540366674697D+02 -.450869750519012D+02 -.957868034673740D+02
 0.000000000000000D+00 -.000000000000000D+00 -.000000000000000D+00 -.000000000000000D+00
 0.786842755161871D+03 0.000000000000000D+00 0.000000000000000D+00 0.786842755161871D+03
 0.845105217073811D+03 0.000000000000000D+00 0.000000000000000D+00 -.845105217073811D+03
 0.562583106788534D+03 0.330640274210858D+03 0.157697478604931D+00 -.445938880230367D+03
 0.515460720444088D+03 -.184665238300152D+02 0.142012438073327D+03 0.495167859670681D+03
 0.575894440880045D+02 0.265940459065414D+02 0.210159419144500D+02 0.465578240270595D+02
 0.135897733529269D+03 -.898885150175944D+01 -.299504835449127D+02 -.957868034673740D+02
 0.360416967385787D+03 -.329778944785625D+03 -.133235593921470D+03 -.582624619119401D+02
0.101479134491D-05 0.000000000000D+00 0.000000000000D+00 0.378460234285D-05 0.115184641166D-10  7 2 21 23 -13 13 23 2 2 0.31762547D+00 0.49551488D-01 0.23627634D+06 0.23627634D+06 0.23627634D+06 0.10923085D+01  1  2  1  4  7  2       -2 0.399435220136D-04 0.100000000000D+01
  </mgrwgt>
  </event>
  <event>
  8     66 0.55102590E-06 0.11902850E+03 0.75467711E-02 0.10382637E+00
        2 -1    0    0  501    0 0.00000000E+00 0.00000000E+00 0.57040132E+03 0.57040141E+03 0.32000000E+00 0.0000E+00 0.9000E+01
       -2 -1    0    0    0  501 0.00000000E+00 0.00000000E+00 -.18650554E+03 0.18650582E+03 0.32000000E+00 0.0000E+00 0.9000E+01
       25  2    1    2    0    0 0.32378916E+02 0.13697995E+03 -.72356242E+01 0.33172561E+03 0.30029590E+03 0.0000E+00 0.0000E+00
       23  2    1    2    0    0 -.32378916E+02 -.13697995E+03 0.39113140E+03 0.42518161E+03 0.89351736E+02 0.0000E+00 0.0000E+00
       23  1    3    3    0    0 0.80050855E+02 0.12020780E+03 -.95003106E+02 0.19544538E+03 0.91188000E+02 0.0000E+00 0.9000E+01
      -11  1    4    4    0    0 -.28977134E+02 -.38127965E+02 0.46932014E+02 0.67052442E+02 0.51099893E-03 0.0000E+00 0.9000E+01
       11  1    4    4    0    0 -.34017814E+01 -.98851982E+02 0.34419939E+03 0.35812917E+03 0.51099893E-03 0.0000E+00 0.9000E+01
       23  1    3    3    0    0 -.47671939E+02 0.16772145E+02 0.87767481E+02 0.13628023E+03 0.91188000E+02 0.0000E+00 0.9000E+01
#aMCatNLO 1  0  0  2  1 0.50268445D+02 0.00000000D+00  -5  7  0 0.00000000D+00 0.00000000D+00 0.00000000D+00 0.00000000D+00 0.00000000D+00
  <mgrwgt>
 0.2715068793D-03    6    2    0
 0.326164290389006D+03 0.000000000000000D+00 0.000000000000000D+00 0.326164290389006D+03
 0.326164290389006D+03 0.000000000000000D+00 0.000000000000000D+00 -.326164290389006D+03
 0.282687768284671D+03 0.800508550010564D+02 0.120207802904079D+03 -.225253341214601D+03
 0.501824952102408D+02 -.289771344336609D+02 -.381279654332364D+02 0.149955579243093D+02
 0.212981418669974D+03 -.340178140152750D+01 -.988519823517937D+02 0.188620778725706D+03
 0.106476898613125D+03 -.476719391658680D+02 0.167721448809506D+02 0.216370045645857D+02
 0.000000000000000D+00 -.000000000000000D+00 0.000000000000000D+00 0.000000000000000D+00
 0.357174075737618D+03 0.000000000000000D+00 0.000000000000000D+00 0.357174075737618D+03
 0.348158919420795D+03 0.000000000000000D+00 0.000000000000000D+00 -.348158919420795D+03
 0.276675004990404D+03 0.868242629877937D+02 0.997811939732366D+02 -.225253341214601D+03
 0.524172700104655D+02 -.277347384388142D+02 -.418746668239795D+02 0.149955579243093D+02
 0.220760727658438D+03 0.185046751186362D+01 -.114691222328384D+03 0.188620778725706D+03
 0.104409554636973D+03 -.451182833721950D+02 0.907106909406797D+01 0.216370045645857D+02
 0.510704378621333D+02 -.158217086886482D+02 0.477136260850588D+02 0.901515631682391D+01
0.277854492245D-05 0.000000000000D+00 0.000000000000D+00 0.225110746923D-06 0.000000000000D+00  7 2 -2 23 -11 11 23 21 0 0.87754077D-01 0.28693188D-01 0.44490913D+05 0.44490913D+05 0.44490913D+05 0.11517817D+01  1  2  2  2  7  2       -2 0.194039701748D-03 0.100000000000D+01
-.118705155990D-06 0.000000000000D+00 -.106703441099D-07 0.225110746923D-06 0.000000000000D+00  7 2 -2 23 -11 11 23 21 2 0.87754077D-01 0.28693188D-01 0.44490913D+05 0.44490913D+05 0.44490913D+05 0.11517817D+01  1  2  3  2  7  2       -2 -.109972248733D-04 0.100000000000D+01
0.172347411224D-06 0.000000000000D+00 0.000000000000D+00 0.225110746923D-06 0.000000000000D+00  7 2 -2 23 -11 11 23 21 2 0.87754077D-01 0.28693188D-01 0.44490913D+05 0.44490913D+05 0.44490913D+05 0.11517817D+01  1  2 15  2  7  2       -2 0.159668147669D-04 0.100000000000D+01
0.278562922758D-05 0.000000000000D+00 0.000000000000D+00 0.225110746923D-06 0.000000000000D+00  7 2 -2 23 -11 11 23 21 2 0.87754077D-01 0.31888370D-01 0.57120763D+05 0.57120763D+05 0.57120763D+05 0.11422437D+01  1  2 12  2  7  2       -2 0.210854847153D-03 0.100000000000D+01
-.195471868201D-05 0.000000000000D+00 0.000000000000D+00 0.225110746923D-06 0.000000000000D+00  7 2 -2 23 -11 11 23 21 2 0.87754077D-01 0.28693188D-01 0.44490913D+05 0.44490913D+05 0.44490913D+05 0.11517817D+01  1  2  4  2  7  2       -2 -.181091383359D-03 0.100000000000D+01
0.474100508203D-07 0.000000000000D+00 0.000000000000D+00 0.225110746923D-06 0.000000000000D+00  7 2 21 23 -11 11 23 2 2 0.87754077D-01 0.31888370D-01 0.57120763D+05 0.57120763D+05 0.57120763D+05 0.11422437D+01  1  2 12  4  7  2       -2 0.427341238927D-04 0.100000000000D+01
  </mgrwgt>
  </event>
  <event>
  8     66 0.55102590E-06 0.28325320E+03 0.75467711E-02 0.99799859E-01
        2 -1    0    0  501    0 0.00000000E+00 0.00000000E+00 0.38363555E+03 0.38363569E+03 0.32000000E+00 0.0000E+00 0.9000E+01
       -2 -1    0    0    0  501 0.00000000E+00 0.00000000E+00 -.41083463E+03 0.41083475E+03 0.32000000E+00 0.0000E+00 0.9000E+01
       25  2    1    2    0    0 0.17139106E+03 0.11758213E+03 0.24625304E+03 0.43931350E+03 0.29858891E+03 0.0000E+00 0.0000E+00
       23  2    1    2    0    0 -.17139106E+03 -.11758213E+03 -.27345211E+03 0.35515694E+03 0.90332372E+02 0.0000E+00 0.0000E+00
       23  1    3    3    0    0 0.16255846E+03 0.17056507E+03 0.20634345E+03 0.32620633E+03 0.91188000E+02 0.0000E+00 0.9000E+01
      -13  1    4    4    0    0 -.40668856E+02 -.32380676E+02 -.14170332E+03 0.15093808E+03 0.10565837E+00 0.0000E+00 0.9000E+01
       13  1    4    4    0    0 -.13072221E+03 -.85201455E+02 -.13174880E+03 0.20421885E+03 0.10565837E+00 0.0000E+00 0.9000E+01
       23  1    3    3    0    0 0.88326023E+01 -.52982937E+02 0.39909589E+02 0.11310718E+03 0.91188000E+02 0.0000E+00 0.9000E+01
#aMCatNLO 1  0  0  1  2 0.77594919D+02 0.00000000D+00  -5  7  0 0.00000000D+00 0.00000000D+00 0.00000000D+00 0.00000000D+00 0.00000000D+00
  <mgrwgt>
 0.3321648638D-03    3    2    0
 0.397002357824626D+03 0.000000000000000D+00 0.000000000000000D+00 0.397002357824626D+03
 0.397002357824626D+03 0.000000000000000D+00 0.000000000000000D+00 -.397002357824626D+03
 0.333466071857954D+03 0.162558461191059D+03 0.170565068530137D+03 0.217638861026424D+03
 0.146172417555997D+03 -.406687333702320D+02 -.323806040847473D+02 -.136615980980750D+03
 0.199825582437849D+03 -.130722330081951D+03 -.852015269578868D+02 -.124830427455071D+03
 0.114540643797450D+03 0.883260226112335D+01 -.529829374875030D+02 0.438075474093970D+02
 0.000000000000000D+00 -.000000000000000D+00 0.000000000000000D+00 -.000000000000000D+00
 0.400370832826751D+03 0.000000000000000D+00 0.000000000000000D+00 0.400370832826751D+03
 0.141786415290930D+04 0.000000000000000D+00 0.000000000000000D+00 -.141786415290930D+04
 0.331053568882978D+03 0.181767717459688D+03 0.144481961458075D+03 0.217638861026424D+03
 0.147059940054282D+03 -.321922713392382D+02 -.438902879400118D+02 -.136615980980750D+03
 0.199906376064620D+03 -.119167286169218D+03 -.100891434124693D+03 -.124830427455071D+03
 0.119767342219686D+03 0.156057386339943D+02 -.621797766965140D+02 0.438075474093970D+02
 0.102044775851448D+04 -.460138985852269D+02 0.624795373031439D+02 -.101749332008255D+04
0.134571118209D-04 0.000000000000D+00 0.000000000000D+00 0.857677675311D-07 0.000000000000D+00  7 2 -2 23 -13 13 23 21 0 0.59020874D-01 0.63205347D-01 0.80232375D+05 0.80232375D+05 0.80232375D+05 0.11296568D+01  1  2  2  1  7  1        2 0.326727382150D-03 0.100000000000D+01
-.644015267824D-06 0.000000000000D+00 -.516788527313D-07 0.857677675311D-07 0.000000000000D+00  7 2 -2 23 -13 13 23 21 2 0.59020874D-01 0.63205347D-01 0.80232375D+05 0.80232375D+05 0.80232375D+05 0.11296568D+01  1  2  3  1  7  1        2 -.199536744011D-04 0.100000000000D+01
0.819512829781D-06 0.000000000000D+00 0.000000000000D+00 0.857677675311D-07 0.000000000000D+00  7 2 -2 23 -13 13 23 21 2 0.59020874D-01 0.63205347D-01 0.80232375D+05 0.80232375D+05 0.80232375D+05 0.11296568D+01  1  2 15  1  7  1        2 0.253911560641D-04 0.100000000000D+01
  </mgrwgt>
  </event>
  <event>
  8     66 0.55102590E-06 0.94834611E+02 0.75467711E-02 0.10107842E+00
        2 -1    0    0  501    0 0.00000000E+00 0.00000000E+00 0.19309289E+04 0.19309289E+04 0.32000000E+00 0.0000E+00 0.9000E+01
       -2 -1    0    0    0  501 0.00000000E+00 0.00000000E+00 -.42200095E+02 0.42201308E+02 0.32000000E+00 0.0000E+00 0.9000E+01
       25  2    1    2    0    0 -.95484700E+02 -.39214355E+02 0.17440592E+04 0.17727118E+04 0.30018240E+03 0.0000E+00 0.0000E+00
       23  2    1    2    0    0 0.95484700E+02 0.39214355E+02 0.14466957E+03 0.20041842E+03 0.92645371E+02 0.0000E+00 0.0000E+00
       23  1    3    3    0    0 -.23337944E+02 0.72125463E+02 0.35338631E+03 0.37275177E+03 0.91188000E+02 0.0000E+00 0.9000E+01
      -11  1    4    4    0    0 0.10355393E+03 0.53937043E+02 0.10377234E+03 0.15620921E+03 0.51099893E-03 0.0000E+00 0.9000E+01
       11  1    4    4    0    0 -.80692306E+01 -.14722687E+02 0.40897236E+02 0.44209206E+02 0.51099893E-03 0.0000E+00 0.9000E+01
       23  1    3    3    0    0 -.72146756E+02 -.11133982E+03 0.13906729E+04 0.13999601E+04 0.91188000E+02 0.0000E+00 0.9000E+01
#aMCatNLO 1  0  0  1  2 0.14299162D+03 0.00000000D+00  -5  7  0 0.00000000D+00 0.00000000D+00 0.00000000D+00 0.00000000D+00 0.00000000D+00
  <mgrwgt>
 0.5907419915D-03    8    2    0
 0.285458588500779D+03 0.000000000000000D+00 0.000000000000000D+00 0.285458588500779D+03
 0.285458588500779D+03 0.000000000000000D+00 0.000000000000000D+00 -.285458588500779D+03
 0.119171177694215D+03 -.233379437171581D+02 0.721254633528564D+02 -.118226971633642D+02
 0.196566733507008D+03 0.103553930383079D+03 0.539370426794559D+02 -.158132411765666D+03
 0.174924387910068D+02 -.806923062572014D+01 -.147226872336849D+02 -.491074460597883D+01
 0.237686827009329D+03 -.721467560402003D+02 -.111339818798628D+03 0.174865853535009D+03
 0.000000000000000D+00 -.000000000000000D+00 0.000000000000000D+00 0.000000000000000D+00
 0.539199328651939D+03 0.000000000000000D+00 0.000000000000000D+00 0.539199328651939D+03
 0.315146212459073D+03 0.000000000000000D+00 0.000000000000000D+00 -.315146212459073D+03
 0.104207265611020D+03 -.100588757596936D+02 0.479890165804652D+02 -.118226971633642D+02
 0.203304251940932D+03 0.127324863295910D+03 0.107302559668293D+02 -.158132411765666D+03
 0.202893156983554D+02 -.582323733293437D+01 -.188050744717137D+02 -.491074460597883D+01
 0.260750800335903D+03 -.425163806640476D+02 -.165196910305600D+03 0.174865853535009D+03
 0.265793907524802D+03 -.689263695392348D+02 0.125282712230020D+03 0.224053116192866D+03
0.251412340766D-05 0.000000000000D+00 0.000000000000D+00 0.273512032629D-06 0.000000000000D+00  7 2 -2 23 -11 11 23 21 0 0.29706608D+00 0.64924176D-02 0.42666731D+05 0.42666731D+05 0.42666731D+05 0.11534038D+01  1  2  2  1  7  1        2 0.289179996792D-03 0.100000000000D+01
-.121900147135D-06 0.000000000000D+00 -.965489586933D-08 0.273512032629D-06 0.000000000000D+00  7 2 -2 23 -11 11 23 21 2 0.29706608D+00 0.64924176D-02 0.42666731D+05 0.42666731D+05 0.42666731D+05 0.11534038D+01  1  2  3  1  7  1        2 -.186529990183D-04 0.100000000000D+01
0.152684825792D-06 0.000000000000D+00 0.000000000000D+00 0.273512032629D-06 0.000000000000D+00  7 2 -2 23 -11 11 23 21 2 0.29706608D+00 0.64924176D-02 0.42666731D+05 0.42666731D+05 0.42666731D+05 0.11534038D+01  1  2 15  1  7  1        2 0.233636297622D-04 0.100000000000D+01
0.528122312658D-06 0.000000000000D+00 0.000000000000D+00 0.273512032629D-06 0.000000000000D+00  7 2 -2 23 -11 11 23 21 2 0.56410461D+00 0.64924176D-02 0.86263359D+05 0.86263359D+05 0.86263359D+05 0.11270266D+01  1  2 12  1  7  1        2 0.672480962725D-05 0.100000000000D+01
-.200154759730D-05 0.000000000000D+00 -.621325269235D-06 0.273512032629D-06 0.000000000000D+00  7 2 -2 23 -11 11 23 21 2 0.57137242D+00 0.64924176D-02 0.42666731D+05 0.42666731D+05 0.42666731D+05 0.11534038D+01  1  2  5  1  7  1        2 -.255772484670D-04 0.100000000000D+01
0.206333802159D-05 0.000000000000D+00 0.508594809631D-06 0.273512032629D-06 0.000000000000D+00  7 2 -2 23 -11 11 23 21 2 0.29706608D+00 0.64924176D-02 0.42666731D+05 0.42666731D+05 0.42666731D+05 0.11534038D+01  1  2  6  1  7  1        2 0.315729250504D-03 0.100000000000D+01
0.368025535677D-07 0.000000000000D+00 0.000000000000D+00 0.273512032629D-06 0.000000000000D+00  7 21 -2 23 -11 11 23 -2 2 0.56410461D+00 0.64924176D-02 0.86263359D+05 0.86263359D+05 0.86263359D+05 0.11270266D+01  1  2 12  3  7  1        2 0.139307457361D-07 0.100000000000D+01
-.106099629363D-06 0.000000000000D+00 -.440975569076D-07 0.273512032629D-06 0.000000000000D+00  7 21 -2 23 -11 11 23 -2 2 0.57137242D+00 0.64924176D-02 0.42666731D+05 0.42666731D+05 0.42666731D+05 0.11534038D+01  1  2  5  3  7  1        2 -.393784133558D-07 0.100000000000D+01
  </mgrwgt>
  </event>
  <event>
  8     66 0.55102590E-06 0.38820869E+03 0.75467711E-02 0.85854168E-01
        2 -1    0    0  501    0 0.00000000E+00 0.00000000E+00 0.10746389E+04 0.10746389E+04 0.32000000E+00 0.0000E+00 0.9000E+01
       -2 -1    0    0    0  501 0.00000000E+00 0.00000000E+00 -.15148849E+03 0.15148883E+03 0.32000000E+00 0.0000E+00 0.9000E+01
       25  2    1    2    0    0 0.52755514E+02 0.32875636E+03 0.40766261E+03 0.60571898E+03 0.29973787E+03 0.0000E+00 0.0000E+00
       23  2    1    2    0    0 -.52755514E+02 -.32875636E+03 0.51548777E+03 0.62040876E+03 0.91189365E+02 0.0000E+00 0.0000E+00
       23  1    3    3    0    0 0.11961513E+03 0.93287412E+02 0.10446863E+03 0.20552193E+03 0.91188000E+02 0.0000E+00 0.9000E+01
      -13  1    4    4    0    0 -.33901621E+02 -.30919448E+03 0.43000032E+03 0.53070786E+03 0.10565837E+00 0.0000E+00 0.9000E+01
       13  1    4    4    0    0 -.18853893E+02 -.19561884E+02 0.85487450E+02 0.89700902E+02 0.10565837E+00 0.0000E+00 0.9000E+01
       23  1    3    3    0    0 -.66859612E+02 0.23546895E+03 0.30319398E+03 0.40019705E+03 0.91188000E+02 0.0000E+00 0.9000E+01
#aMCatNLO 1  0  0  1  2 0.10451751D+04 0.00000000D+00  -5  7  0 0.00000000D+00 0.00000000D+00 0.00000000D+00 0.00000000D+00 0.00000000D+00
  <mgrwgt>
 0.3230947016D-03    5    2    0
 0.403479435323317D+03 0.000000000000000D+00 0.000000000000000D+00 0.403479435323317D+03
 0.403479435323317D+03 0.000000000000000D+00 0.000000000000000D+00 -.403479435323317D+03
 0.192768054750024D+03 0.119615126385403D+03 0.932874125538033D+02 -.763803102044554D+02
 0.314465804812735D+03 -.339016414681555D+02 -.309194868465086D+03 0.462380191740927D+02
 0.384984846616199D+02 -.188538725554627D+02 -.195614948944758D+02 0.272765967158066D+02
 0.261226526422255D+03 -.668596123617853D+02 0.235468950805758D+03 0.286569431455612D+01
 0.000000000000000D+00 -.000000000000000D+00 0.000000000000000D+00 0.000000000000000D+00
 0.158712528480107D+04 0.000000000000000D+00 0.000000000000000D+00 0.158712528480107D+04
 0.954856836684811D+03 0.000000000000000D+00 0.000000000000000D+00 -.954856836684811D+03
 0.398500319656420D+03 0.378353056818892D+03 -.387590767580947D+02 -.763803102044554D+02
 0.657499213399999D+03 0.391428425472374D+03 -.526261388415197D+03 0.462380191740927D+02
 0.527622394666124D+02 0.210816489655461D+02 -.399425244824222D+02 0.272765967158066D+02
 0.211682670741142D+03 0.140084564349599D+03 0.129855320935190D+03 0.286569431455612D+01
 0.122153767822171D+04 -.930947695606412D+03 0.475107668720524D+03 0.632268448116259D+03
0.722080709940D-05 0.000000000000D+00 0.000000000000D+00 0.797585803518D-06 0.000000000000D+00  7 2 -2 23 -13 13 23 21 0 0.16532909D+00 0.23305951D-01 0.15070599D+06 0.15070599D+06 0.15070599D+06 0.11073910D+01  1  2  2  1  7  1        2 0.319594890404D-03 0.100000000000D+01
-.400429886489D-06 0.000000000000D+00 -.277298005439D-07 0.797585803518D-06 0.000000000000D+00  7 2 -2 23 -13 13 23 21 2 0.16532909D+00 0.23305951D-01 0.15070599D+06 0.15070599D+06 0.15070599D+06 0.11073910D+01  1  2  3  1  7  1        2 -.217341446720D-04 0.100000000000D+01
0.460532030655D-06 0.000000000000D+00 0.000000000000D+00 0.797585803518D-06 0.000000000000D+00  7 2 -2 23 -13 13 23 21 2 0.16532909D+00 0.23305951D-01 0.15070599D+06 0.15070599D+06 0.15070599D+06 0.11073910D+01  1  2 15  1  7  1        2 0.249963105105D-04 0.100000000000D+01
0.243442788303D-05 0.000000000000D+00 -.256623706789D-05 0.797585803518D-06 0.000000000000D+00  7 2 -2 23 -13 13 23 21 2 0.76209652D+00 0.23305951D-01 0.15070599D+06 0.15070599D+06 0.15070599D+06 0.11073910D+01  1  2  5  1  7  1        2 0.237354990617D-06 0.100000000000D+01
0.417016974750D-06 0.000000000000D+00 -.475177941826D-06 0.797585803518D-06 0.000000000000D+00  7 21 -2 23 -13 13 23 -2 2 0.76209652D+00 0.23305951D-01 0.15070599D+06 0.15070599D+06 0.15070599D+06 0.11073910D+01  1  2  5  3  7  1        2 0.290393129288D-09 0.100000000000D+01
  </mgrwgt>
  </event>
  <event>
  7     66 0.55102590E-06 0.24314511E+03 0.75467711E-02 0.10140165E+00
        2 -1    0    0  501    0 0.00000000E+00 0.00000000E+00 0.10041037E+03 0.10041088E+03 0.32000000E+00 0.0000E+00 0.9000E+01
       -2 -1    0    0    0  501 0.00000000E+00 0.00000000E+00 -.73950636E+03 0.73950643E+03 0.32000000E+00 0.0000E+00 0.9000E+01
       25  2    1    2    0    0 0.65783468E+01 0.87790527E+02 -.26019860E+03 0.40917498E+03 0.30326623E+03 0.0000E+00 0.0000E+00
       23  1    3    3    0    0 -.10869225E+03 0.53943753E+02 -.18895596E+03 0.24237067E+03 0.91188000E+02 0.0000E+00 0.9000E+01
      -13  1    1    2    0    0 0.59642864E+02 -.99915241E+02 -.13748118E+03 0.18011500E+03 0.10565837E+00 0.0000E+00 0.9000E+01
       13  1    1    2    0    0 -.66221210E+02 0.12124714E+02 -.24141621E+03 0.25062733E+03 0.10565837E+00 0.0000E+00 0.9000E+01
       23  1    3    3    0    0 0.11527060E+03 0.33846774E+02 -.71242634E+02 0.16680431E+03 0.91188000E+02 0.0000E+00 0.9000E+01
#aMCatNLO 1  0  0  1  1 0.80758235D+02 0.00000000D+00  -5  7  0 0.00000000D+00 0.00000000D+00 0.00000000D+00 0.00000000D+00 0.00000000D+00
  <mgrwgt>
 0.3901407062D-03    4    2    0
 0.272496511057769D+03 0.000000000000000D+00 0.000000000000000D+00 0.272496511057769D+03
 0.272496511057769D+03 0.000000000000000D+00 0.000000000000000D+00 -.272496511057769D+03
 0.151948833495967D+03 -.108691471760463D+03 0.539498402321208D+02 -.698393601475104D+01
 0.116362897026141D+03 0.596361504395538D+02 -.999169569661775D+02 -.674592978189132D+00
 0.103149850066616D+03 -.662154796765731D+02 0.121133187838661D+02 -.781579767394677D+02
 0.173531441526814D+03 0.115270800997482D+03 0.338537979501905D+02 0.858165057324078D+02
 0.000000000000000D+00 0.000000000000000D+00 0.000000000000000D+00 -.000000000000000D+00
 0.293615509903319D+03 0.000000000000000D+00 0.000000000000000D+00 0.293615509903319D+03
 0.365337353598128D+03 0.000000000000000D+00 0.000000000000000D+00 -.365337353598128D+03
 0.151445027303415D+03 -.116150197384908D+03 0.328740206868733D+02 -.698393601475104D+01
 0.128642895482010D+03 0.536128545893905D+02 -.116936740612547D+03 -.674592978189132D+00
 0.105857540954067D+03 -.713537800330696D+02 -.240576886401382D+01 -.781579767394677D+02
 0.164998532277308D+03 0.106948278637925D+03 0.103371828817304D+02 0.858165057324078D+02
 0.108008867484646D+03 0.269428441906623D+02 0.761313059079569D+02 -.717218436948095D+02
0.162440589645D-04 0.000000000000D+00 0.000000000000D+00 0.355395969744D-11 0.000000000000D+00  7 2 -2 23 -13 13 23 21 0 0.15447793D-01 0.11377025D+00 0.59119547D+05 0.59119547D+05 0.59119547D+05 0.11409498D+01  1  2  2  1  7  1        2 0.477435635625D-03 0.100000000000D+01
-.888196088753D-06 0.000000000000D+00 -.623814635825D-07 0.355395969744D-11 0.000000000000D+00  7 2 -2 23 -13 13 23 21 2 0.15447793D-01 0.11377025D+00 0.59119547D+05 0.59119547D+05 0.59119547D+05 0.11409498D+01  1  2  3  1  7  1        2 -.339830397724D-04 0.100000000000D+01
0.103506833400D-05 0.000000000000D+00 0.000000000000D+00 0.355395969744D-11 0.000000000000D+00  7 2 -2 23 -13 13 23 21 2 0.15447793D-01 0.11377025D+00 0.59119547D+05 0.59119547D+05 0.59119547D+05 0.11409498D+01  1  2 15  1  7  1        2 0.396024805861D-04 0.100000000000D+01
-.242845198055D-05 0.000000000000D+00 0.000000000000D+00 0.355395969744D-11 0.000000000000D+00  7 2 -2 23 -13 13 23 21 2 0.15447793D-01 0.11377025D+00 0.59119547D+05 0.59119547D+05 0.59119547D+05 0.11409498D+01  1  2  4  1  7  1        2 -.929143702448D-04 0.100000000000D+01
  </mgrwgt>
  </event>
  <event>
  9     66 0.55102590E-06 0.27912838E+03 0.75467711E-02 0.97998507E-01
        2 -1    0    0  502    0 0.00000000E+00 0.00000000E+00 0.94357967E+03 0.94357973E+03 0.32000000E+00 0.0000E+00 0.9000E+01
       -2 -1    0    0    0  501 0.00000000E+00 0.00000000E+00 -.30802985E+03 0.30803001E+03 0.32000000E+00 0.0000E+00 0.9000E+01
       25  2    1    2    0    0 -.86443987E+02 -.12448621E+03 0.61496004E+03 0.70072034E+03 0.29977287E+03 0.0000E+00 0.0000E+00
       23  2    1    2    0    0 0.54107825E+02 0.29078192E+03 0.14862080E+03 0.33853971E+03 0.70987397E+02 0.0000E+00 0.0000E+00
       23  1    3    3    0    0 0.36088601E+02 -.19833800E+02 0.42039110E+03 0.43213388E+03 0.91188000E+02 0.0000E+00 0.9000E+01
      -11  1    4    4    0    0 0.42310527E+02 0.20617715E+03 0.13977777E+03 0.25265990E+03 0.51099893E-03 0.0000E+00 0.9000E+01
       11  1    4    4    0    0 0.11797298E+02 0.84604766E+02 0.88430318E+01 0.85879811E+02 0.51099893E-03 0.0000E+00 0.9000E+01
       23  1    3    3    0    0 -.12253259E+03 -.10465241E+03 0.19456894E+03 0.26858646E+03 0.91188000E+02 0.0000E+00 0.9000E+01
       21  1    1    2  502  501 0.32336162E+02 -.16629571E+03 -.12803101E+03 0.21234969E+03 0.75000000E+00 0.0000E+00 0.9000E+01
#aMCatNLO 2  0  0  1  2 0.16941042D+03 0.00000000D+00  -5  7  0 0.00000000D+00 0.00000000D+00 0.00000000D+00 0.00000000D+00 0.00000000D+00
  <mgrwgt>
 0.2314544187D-04    1    2    0
 0.342164384404858D+03 0.000000000000000D+00 0.000000000000000D+00 0.342164384404858D+03
 0.342164384404858D+03 0.000000000000000D+00 0.000000000000000D+00 -.342164384404858D+03
 0.193711184951267D+03 0.448262850753062D+02 -.647692314097018D+02 0.151671759600026D+03
 0.179635141352487D+03 0.516367769257366D+02 0.158214893703700D+03 -.676052859455278D+02
 0.100552774790404D+03 0.168613332869350D+02 0.585618681747780D+02 -.799816451050897D+02
 0.210429667715557D+03 -.113324395287978D+03 -.152007530468776D+03 -.408482854940841D+01
 0.000000000000000D+00 0.000000000000000D+00 -.000000000000000D+00 -.000000000000000D+00
 0.368978944630857D+03 0.000000000000000D+00 0.000000000000000D+00 0.368978944630857D+03
 0.787715326407029D+03 0.000000000000000D+00 0.000000000000000D+00 -.787715326407029D+03
 0.181701240314871D+03 0.360886007344083D+02 -.198338000601701D+02 0.151671759600026D+03
 0.221064861828026D+03 0.423105268936391D+02 0.206177151404442D+03 -.676052859455278D+02
 0.117022246695371D+03 0.117972977615817D+02 0.846047660208361D+02 -.799816451050897D+02
 0.185198000573706D+03 -.122532587264006D+03 -.104652411852805D+03 -.408482854940841D+01
 0.451707921625912D+03 0.323361618743771D+02 -.166295705512303D+03 -.418736381776172D+03
0.126914861431D-05 0.000000000000D+00 0.000000000000D+00 0.166273282046D-08 0.512500835822D-12  7 2 -2 23 -11 11 23 21 2 0.14516600D+00 0.47389186D-01 0.14081838D+06 0.14081838D+06 0.14081838D+06 0.11097232D+01  1  2  1  1  7  1        2 0.231454418673D-04 0.100000000000D+01
  </mgrwgt>
  </event>
  <event>
  8     66 0.55102590E-06 0.46647944E+03 0.75467711E-02 0.92956074E-01
        2 -1    0    0  501    0 0.00000000E+00 0.00000000E+00 0.40981874E+03 0.40981886E+03 0.32000000E+00 0.0000E+00 0.9000E+01
       -2 -1    0    0    0  501 0.00000000E+00 0.00000000E+00 -.60652049E+03 0.60652057E+03 0.32000000E+00 0.0000E+00 0.9000E+01
       25  2    1    2    0    0 0.41942793E+03 0.47173388E+02 0.49256175E+02 0.51992154E+03 0.29957823E+03 0.0000E+00 0.0000E+00
       23  2    1    2    0    0 -.41942793E+03 -.47173388E+02 -.24595792E+03 0.49641790E+03 0.88262756E+02 0.0000E+00 0.0000E+00
       23  1    3    3    0    0 0.13326897E+03 0.12075574E+03 0.60436087E+02 0.21050021E+03 0.91188000E+02 0.0000E+00 0.9000E+01
      -13  1    4    4    0    0 -.22801445E+03 -.28139978E+02 -.18395048E+03 0.29431316E+03 0.10565837E+00 0.0000E+00 0.9000E+01
       13  1    4    4    0    0 -.19141348E+03 -.19033410E+02 -.62007448E+02 0.20210474E+03 0.10565837E+00 0.0000E+00 0.9000E+01
       23  1    3    3    0    0 0.28615896E+03 -.73582357E+02 -.11179912E+02 0.30942132E+03 0.91188000E+02 0.0000E+00 0.9000E+01
#aMCatNLO 1  0  0  2  2 0.20961987D+03 0.00000000D+00  -5  7  0 0.00000000D+00 0.00000000D+00 0.00000000D+00 0.00000000D+00 0.00000000D+00
  <mgrwgt>
 0.2617871332D-03    3    2    0
 0.498561497899177D+03 0.000000000000000D+00 0.000000000000000D+00 0.498561497899177D+03
 0.498561497899177D+03 0.000000000000000D+00 0.000000000000000D+00 -.498561497899177D+03
 0.226479134911588D+03 0.133268971342277D+03 0.120755744307069D+03 0.103126033088247D+03
 0.263697449971404D+03 -.228014503301360D+03 -.281399910478233D+02 -.129436750227606D+03
 0.193767411285942D+03 -.191413425639277D+03 -.190333965969918D+02 -.233332375694800D+02
 0.313178999629420D+03 0.286158957598360D+03 -.735823566622539D+02 0.496439547088388D+02
 0.000000000000000D+00 -.000000000000000D+00 -.000000000000000D+00 0.000000000000000D+00
 0.241330481855334D+04 0.000000000000000D+00 0.000000000000000D+00 0.241330481855334D+04
 0.515229178467170D+03 0.000000000000000D+00 0.000000000000000D+00 -.515229178467170D+03
 0.268118421903872D+03 0.178586424986355D+03 0.145066008872847D+03 0.103126033088247D+03
 0.224424674471891D+03 -.183290360526506D+03 -.414800438693148D+01 -.129436750227606D+03
 0.160651518029233D+03 -.158939825277727D+03 -.161313679173266D+01 -.233332375694800D+02
 0.365723812193089D+03 0.348363362532532D+03 -.402131926976736D+02 0.496439547088388D+02
 0.190961557042242D+04 -.184719601714654D+03 -.990916749965094D+02 0.189807564008617D+04
0.277096687021D-04 0.000000000000D+00 0.000000000000D+00 0.182200106318D-06 0.000000000000D+00  7 2 -2 23 -13 13 23 21 0 0.63049053D-01 0.93310860D-01 0.21760307D+06 0.21760307D+06 0.21760307D+06 0.10950228D+01  1  2  2  2  7  2       -2 0.259289046296D-03 0.100000000000D+01
-.153114560133D-05 0.000000000000D+00 -.106412423939D-06 0.182200106318D-06 0.000000000000D+00  7 2 -2 23 -13 13 23 21 2 0.63049053D-01 0.93310860D-01 0.21760307D+06 0.21760307D+06 0.21760307D+06 0.10950228D+01  1  2  3  2  7  2       -2 -.171797015727D-04 0.100000000000D+01
0.175378828087D-05 0.000000000000D+00 0.000000000000D+00 0.182200106318D-06 0.000000000000D+00  7 2 -2 23 -13 13 23 21 2 0.63049053D-01 0.93310860D-01 0.21760307D+06 0.21760307D+06 0.21760307D+06 0.10950228D+01  1  2 15  2  7  2       -2 0.196777884877D-04 0.100000000000D+01
  </mgrwgt>
  </event>
  <event>
  8     66 0.55102590E-06 0.12025357E+03 0.75467711E-02 0.97179646E-01
        2 -1    0    0  501    0 0.00000000E+00 0.00000000E+00 0.23063573E+04 0.23063574E+04 0.32000000E+00 0.0000E+00 0.9000E+01
       -2 -1    0    0    0  501 0.00000000E+00 0.00000000E+00 -.53212595E+02 0.53213557E+02 0.32000000E+00 0.0000E+00 0.9000E+01
       25  2    1    2    0    0 -.17035576E+03 0.19879745E+03 0.10009523E+04 0.10770291E+04 0.29924010E+03 0.0000E+00 0.0000E+00
       23  2    1    2    0    0 0.17035576E+03 -.19879745E+03 0.12521924E+04 0.12825418E+04 0.91575761E+02 0.0000E+00 0.0000E+00
       23  1    3    3    0    0 -.14039180E+03 0.13240744E+03 0.89264597E+03 0.91780917E+03 0.91188000E+02 0.0000E+00 0.9000E+01
      -11  1    4    4    0    0 -.48011403E+01 0.36619765E+01 0.89111065E+01 0.10764239E+02 0.51099893E-03 0.0000E+00 0.9000E+01
       11  1    4    4    0    0 0.17515690E+03 -.20245943E+03 0.12432813E+04 0.12717776E+04 0.51099893E-03 0.0000E+00 0.9000E+01
       23  1    3    3    0    0 -.29963963E+02 0.66390014E+02 0.10830636E+03 0.15921995E+03 0.91188000E+02 0.0000E+00 0.9000E+01
#aMCatNLO 1  0  0  2  1 0.17605202D+03 0.00000000D+00  -5  7  0 0.00000000D+00 0.00000000D+00 0.00000000D+00 0.00000000D+00 0.00000000D+00
  <mgrwgt>
 0.3680468138D-03    9    2    0
 0.350326163442246D+03 0.000000000000000D+00 0.000000000000000D+00 0.350326163442246D+03
 0.350326163442246D+03 0.000000000000000D+00 0.000000000000000D+00 -.350326163442246D+03
 0.220330737114338D+03 -.140391800876826D+03 0.132407439014141D+03 0.546698702543328D+02
 0.759431197680378D+01 -.480114033719876D+01 0.366197650562909D+01 -.460570884183637D+01
 0.284815454410778D+03 0.175156904435948D+03 -.202459429321676D+03 0.972115290404141D+02
 0.187911823382574D+03 -.299639632219226D+02 0.663900138019058D+02 -.147275690452911D+03
 0.000000000000000D+00 0.000000000000000D+00 0.000000000000000D+00 -.000000000000000D+00
 0.426092069749465D+03 0.000000000000000D+00 0.000000000000000D+00 0.426092069749465D+03
 0.480652617357316D+03 0.000000000000000D+00 0.000000000000000D+00 -.480652617357316D+03
 0.232286298516372D+03 -.182886508880941D+03 0.959447929288135D+02 0.546698702543328D+02
 0.814673317676217D+01 -.627901470962105D+01 0.239388424823573D+01 -.460570884183637D+01
 0.293395010829229D+03 0.120870647068152D+03 -.249039831509809D+03 0.972115290404141D+02
 0.188603958480074D+03 -.653137776337880D+02 0.360580540680714D+02 -.147275690452911D+03
 0.184312686104345D+03 0.133608654156198D+03 0.114643100264689D+03 -.545605476078518D+02
0.644104783811D-05 0.000000000000D+00 0.000000000000D+00 0.280629267888D-06 0.000000000000D+00  7 2 -2 23 -11 11 23 21 0 0.35482428D+00 0.81866288D-02 0.91173417D+05 0.91173417D+05 0.91173417D+05 0.11250303D+01  1  2  2  2  7  2       -2 0.323545079031D-03 0.100000000000D+01
-.348227967607D-06 0.000000000000D+00 -.247353196652D-07 0.280629267888D-06 0.000000000000D+00  7 2 -2 23 -11 11 23 21 2 0.35482428D+00 0.81866288D-02 0.91173417D+05 0.91173417D+05 0.91173417D+05 0.11250303D+01  1  2  3  2  7  2       -2 -.221396289642D-04 0.100000000000D+01
0.406476630035D-06 0.000000000000D+00 0.000000000000D+00 0.280629267888D-06 0.000000000000D+00  7 2 -2 23 -11 11 23 21 2 0.35482428D+00 0.81866288D-02 0.91173417D+05 0.91173417D+05 0.91173417D+05 0.11250303D+01  1  2 15  2  7  2       -2 0.258429609587D-04 0.100000000000D+01
0.128988902219D-05 0.000000000000D+00 0.000000000000D+00 0.280629267888D-06 0.000000000000D+00  7 2 -2 23 -11 11 23 21 2 0.35482428D+00 0.11849663D-01 0.16127227D+06 0.16127227D+06 0.16127227D+06 0.11050771D+01  1  2 12  2  7  2       -2 0.439331597336D-04 0.100000000000D+01
-.279284863066D-05 0.000000000000D+00 0.000000000000D+00 0.280629267888D-06 0.000000000000D+00  7 2 -2 23 -11 11 23 21 2 0.35482428D+00 0.81866288D-02 0.91173417D+05 0.91173417D+05 0.91173417D+05 0.11250303D+01  1  2  4  2  7  2       -2 -.177563659980D-03 0.100000000000D+01
-.291946147354D-05 0.000000000000D+00 -.227025765922D-05 0.280629267888D-06 0.000000000000D+00  7 2 -2 23 -11 11 23 21 2 0.35482428D+00 0.14454358D-01 0.91173417D+05 0.91173417D+05 0.91173417D+05 0.11250303D+01  1  2  5  2  7  2       -2 -.767547836127D-04 0.100000000000D+01
0.388792196039D-05 0.000000000000D+00 0.194706147643D-05 0.280629267888D-06 0.000000000000D+00  7 2 -2 23 -11 11 23 21 2 0.35482428D+00 0.81866288D-02 0.91173417D+05 0.91173417D+05 0.91173417D+05 0.11250303D+01  1  2  6  2  7  2       -2 0.247186204590D-03 0.100000000000D+01
0.579830167971D-07 0.000000000000D+00 0.000000000000D+00 0.280629267888D-06 0.000000000000D+00  7 2 21 23 -11 11 23 2 2 0.35482428D+00 0.11849663D-01 0.16127227D+06 0.16127227D+06 0.16127227D+06 0.11050771D+01  1  2 12  4  7  2       -2 0.276622684857D-04 0.100000000000D+01
-.658394409068D-07 0.000000000000D+00 -.142214361240D-06 0.280629267888D-06 0.000000000000D+00  7 2 21 23 -11 11 23 2 2 0.35482428D+00 0.14454358D-01 0.91173417D+05 0.91173417D+05 0.91173417D+05 0.11250303D+01  1  2  5  4  7  2       -2 -.236647863931D-04 0.100000000000D+01
  </mgrwgt>
  </event>
  <event>
  8     66 0.55102590E-06 0.32122712E+03 0.75467711E-02 0.85804770E-01
        2 -1    0    0  501    0 0.00000000E+00 0.00000000E+00 0.12589642E+04 0.12589643E+04 0.32000000E+00 0.0000E+00 0.9000E+01
       -2 -1    0    0    0  501 0.00000000E+00 0.00000000E+00 -.28231693E+03 0.28231711E+03 0.32000000E+00 0.0000E+00 0.9000E+01
       25  2    1    2    0    0 0.23989593E+03 0.39800035E+02 -.12733971E+03 0.40615140E+03 0.29934839E+03 0.0000E+00 0.0000E+00
       23  2    1    2    0    0 -.23989593E+03 -.39800035E+02 0.11039870E+04 0.11351300E+04 0.10294978E+03 0.0000E+00 0.0000E+00
       23  1    3    3    0    0 0.26686822E+03 0.26599993E+01 -.77148748E+02 0.29239169E+03 0.91188000E+02 0.0000E+00 0.9000E+01
      -13  1    4    4    0    0 -.39412118E+02 0.26131825E+02 0.30940211E+03 0.31299499E+03 0.10565837E+00 0.0000E+00 0.9000E+01
       13  1    4    4    0    0 -.20048381E+03 -.65931859E+02 0.79458490E+03 0.82213499E+03 0.10565837E+00 0.0000E+00 0.9000E+01
       23  1    3    3    0    0 -.26972292E+02 0.37140036E+02 -.50190967E+02 0.11375971E+03 0.91188000E+02 0.0000E+00 0.9000E+01
#aMCatNLO 1  0  0  2  1 0.11240534D+04 0.00000000D+00  -5  7  0 0.00000000D+00 0.00000000D+00 0.00000000D+00 0.00000000D+00 0.00000000D+00
  <mgrwgt>
 0.6008345504D-03    3    2    0
 0.596177062719825D+03 0.000000000000000D+00 0.000000000000000D+00 0.596177062719825D+03
 0.596177062719825D+03 0.000000000000000D+00 0.000000000000000D+00 -.596177062719825D+03
 0.441148295712728D+03 0.266868219967148D+03 0.265999936116261D+01 -.339220938388551D+03
 0.151160033448524D+03 -.394119521019241D+02 0.261319161362634D+02 0.143572896824999D+03
 0.411884755397774D+03 -.200483975600574D+03 -.659319511384937D+02 0.353706382576769D+03
 0.188161040880624D+03 -.269722922646497D+02 0.371400356410676D+02 -.158058341013217D+03
 0.000000000000000D+00 -.000000000000000D+00 0.000000000000000D+00 0.000000000000000D+00
 0.213390163343477D+04 0.000000000000000D+00 0.000000000000000D+00 0.213390163343477D+04
 0.105961621502453D+04 0.000000000000000D+00 0.000000000000000D+00 -.105961621502453D+04
 0.809936682091420D+03 0.671866106401955D+03 -.284968888969174D+03 -.339220938388551D+03
 0.163183538605172D+03 0.623465091974519D+02 -.461367896572334D+02 0.143572896824999D+03
 0.447952574274106D+03 0.778602674947767D+02 -.263611612924956D+03 0.353706382576769D+03
 0.217586505731437D+03 0.104375219470654D+03 -.561427691605884D+02 -.158058341013217D+03
 0.155485854775717D+04 -.916448102564838D+03 0.650860060711952D+03 0.107428541841024D+04
0.501267808008D-04 0.000000000000D+00 0.000000000000D+00 0.160499727652D-07 0.000000000000D+00  7 2 -2 23 -13 13 23 21 0 0.19368682D+00 0.43433391D-01 0.10318686D+06 0.10318686D+06 0.10318686D+06 0.11206057D+01  1  2  2  2  7  2       -2 0.577318008331D-03 0.100000000000D+01
-.149002105955D-05 0.000000000000D+00 -.192500036959D-06 0.160499727652D-07 0.000000000000D+00  7 2 -2 23 -13 13 23 21 2 0.19368682D+00 0.43433391D-01 0.10318686D+06 0.10318686D+06 0.10318686D+06 0.11206057D+01  1  2  3  2  7  2       -2 -.215498059135D-04 0.100000000000D+01
0.311602841458D-05 0.000000000000D+00 0.000000000000D+00 0.160499727652D-07 0.000000000000D+00  7 2 -2 23 -13 13 23 21 2 0.19368682D+00 0.43433391D-01 0.10318686D+06 0.10318686D+06 0.10318686D+06 0.11206057D+01  1  2 15  2  7  2       -2 0.450663479718D-04 0.100000000000D+01
  </mgrwgt>
  </event>
  <event>
  8     66 0.55102590E-06 0.92043721E+02 0.75467711E-02 0.10252135E+00
        2 -1    0    0  501    0 0.00000000E+00 0.00000000E+00 0.61897853E+03 0.61897862E+03 0.32000000E+00 0.0000E+00 0.9000E+01
       -2 -1    0    0    0  501 0.00000000E+00 0.00000000E+00 -.86272732E+02 0.86273325E+02 0.32000000E+00 0.0000E+00 0.9000E+01
       25  2    1    2    0    0 0.54526638E+02 0.91855557E+01 0.51483524E+03 0.59822172E+03 0.29959368E+03 0.0000E+00 0.0000E+00
       23  2    1    2    0    0 -.54526638E+02 -.91855557E+01 0.17870563E+02 0.10703022E+03 0.89880938E+02 0.0000E+00 0.0000E+00
       23  1    3    3    0    0 0.61197780E+02 -.10901284E+03 0.27867811E+03 0.31875650E+03 0.91188000E+02 0.0000E+00 0.9000E+01
      -13  1    4    4    0    0 -.90726442E+01 -.43485099E+02 0.22694406E+02 0.49883003E+02 0.10565837E+00 0.0000E+00 0.9000E+01
       13  1    4    4    0    0 -.45453994E+02 0.34299544E+02 -.48238436E+01 0.57147221E+02 0.10565837E+00 0.0000E+00 0.9000E+01
       23  1    3    3    0    0 -.66711421E+01 0.11819840E+03 0.23615713E+03 0.27946522E+03 0.91188000E+02 0.0000E+00 0.9000E+01
#aMCatNLO 1  0  0  2  1 0.10866692D+03 0.00000000D+00  -5  7  0 0.00000000D+00 0.00000000D+00 0.00000000D+00 0.00000000D+00 0.00000000D+00
  <mgrwgt>
 0.8176309804D-04    7    2    0
 0.231087012902320D+03 0.000000000000000D+00 0.000000000000000D+00 0.231087012902320D+03
 0.231087012902320D+03 0.000000000000000D+00 0.000000000000000D+00 -.231087012902320D+03
 0.165197942396771D+03 0.611977837995986D+02 -.109012841524994D+03 0.578458336338143D+02
 0.499608619447779D+02 -.907259977476651D+01 -.434851945031369D+02 -.228651157577744D+02
 0.927635544896962D+02 -.454540457006911D+02 0.342996374880845D+02 -.732293768865221D+02
 0.154251666973396D+03 -.667113832414100D+01 0.118198398540046D+03 0.382486590104823D+02
 0.000000000000000D+00 -.000000000000000D+00 -.000000000000000D+00 -.000000000000000D+00
 0.249912988455603D+03 0.000000000000000D+00 0.000000000000000D+00 0.249912988455603D+03
 0.473098103820442D+03 0.000000000000000D+00 0.000000000000000D+00 -.473098103820442D+03
 0.162204478554096D+03 0.884717749500383D+02 -.825932569124442D+02 0.578458336338143D+02
 0.426773508058843D+02 -.135544915805410D+01 -.360097974275338D+02 -.228651157577744D+02
 0.932279239808058D+02 -.299601775639526D+02 0.493081325028542D+02 -.732293768865221D+02
 0.176667384449053D+03 0.208958028542270D+02 0.144901755997113D+03 0.382486590104823D+02
 0.248233954486206D+03 -.780519510822586D+02 -.756068341599889D+02 -.223185115364839D+03
0.544639043573D-06 0.000000000000D+00 0.000000000000D+00 0.481114923027D-07 0.000000000000D+00  7 2 -2 23 -13 13 23 21 0 0.95227519D-01 0.13272780D-01 0.41115336D+05 0.41115336D+05 0.41115336D+05 0.11548448D+01  1  2  2  2  7  2       -2 0.122247300178D-03 0.100000000000D+01
-.296290263477D-07 0.000000000000D+00 -.209155733407D-08 0.481114923027D-07 0.000000000000D+00  7 2 -2 23 -13 13 23 21 2 0.95227519D-01 0.13272780D-01 0.41115336D+05 0.41115336D+05 0.41115336D+05 0.11548448D+01  1  2  3  2  7  2       -2 -.886941840939D-05 0.100000000000D+01
0.337112677142D-07 0.000000000000D+00 0.000000000000D+00 0.481114923027D-07 0.000000000000D+00  7 2 -2 23 -13 13 23 21 2 0.95227519D-01 0.13272780D-01 0.41115336D+05 0.41115336D+05 0.41115336D+05 0.11548448D+01  1  2 15  2  7  2       -2 0.100914331426D-04 0.100000000000D+01
0.491042239181D-06 0.000000000000D+00 0.000000000000D+00 0.481114923027D-07 0.000000000000D+00  7 2 -2 23 -13 13 23 21 2 0.95227519D-01 0.27168610D-01 0.69278297D+05 0.69278297D+05 0.69278297D+05 0.11350424D+01  1  2 12  2  7  2       -2 0.441420422496D-04 0.100000000000D+01
-.816449459942D-06 0.000000000000D+00 -.173068129737D-06 0.481114923027D-07 0.000000000000D+00  7 2 -2 23 -13 13 23 21 2 0.95227519D-01 0.28979618D-01 0.41115336D+05 0.41115336D+05 0.41115336D+05 0.11548448D+01  1  2  5  2  7  2       -2 -.681604570776D-04 0.100000000000D+01
0.380374712676D-07 0.000000000000D+00 0.000000000000D+00 0.481114923027D-07 0.000000000000D+00  7 2 21 23 -13 13 23 2 2 0.95227519D-01 0.27168610D-01 0.69278297D+05 0.69278297D+05 0.69278297D+05 0.11350424D+01  1  2 12  4  7  2       -2 0.417647313432D-04 0.100000000000D+01
-.581875739344D-07 0.000000000000D+00 -.146408255071D-07 0.481114923027D-07 0.000000000000D+00  7 2 21 23 -13 13 23 2 2 0.95227519D-01 0.28979618D-01 0.41115336D+05 0.41115336D+05 0.41115336D+05 0.11548448D+01  1  2  5  4  7  2       -2 -.594525333887D-04 0.100000000000D+01
  </mgrwgt>
  </event>
  <event>
  8     66 0.55102590E-06 0.15612259E+03 0.75467711E-02 0.10045697E+00
        2 -1    0    0  501    0 0.00000000E+00 0.00000000E+00 0.29102921E+04 0.29102921E+04 0.32000000E+00 0.0000E+00 0.9000E+01
       -2 -1    0    0    0  501 0.00000000E+00 0.00000000E+00 -.13382787E+03 0.13382825E+03 0.32000000E+00 0.0000E+00 0.9000E+01
       25  2    1    2    0    0 0.15232685E+03 0.15112094E+03 0.13531597E+03 0.39257573E+03 0.29960689E+03 0.0000E+00 0.0000E+00
       23  2    1    2    0    0 -.15232685E+03 -.15112094E+03 0.26411483E+04 0.26515447E+04 0.94782917E+02 0.0000E+00 0.0000E+00
       23  1    3    3    0    0 -.40417120E+02 0.11069520E+03 0.77637150E+02 0.16801711E+03 0.91188000E+02 0.0000E+00 0.9000E+01
      -13  1    4    4    0    0 -.13920649E+03 -.13889789E+03 0.25878445E+04 0.25953055E+04 0.10565837E+00 0.0000E+00 0.9000E+01
       13  1    4    4    0    0 -.13120360E+02 -.12223041E+02 0.53303742E+02 0.56239191E+02 0.10565837E+00 0.0000E+00 0.9000E+01
       23  1    3    3    0    0 0.19274397E+03 0.40425740E+02 0.57678821E+02 0.22455862E+03 0.91188000E+02 0.0000E+00 0.9000E+01
#aMCatNLO 1  0  0  1  2 0.30624370D+02 0.00000000D+00  -5  7  0 0.00000000D+00 0.00000000D+00 0.00000000D+00 0.00000000D+00 0.00000000D+00
  <mgrwgt>
 0.4415799335D-03    9    2    0
 0.624082359771195D+03 0.000000000000000D+00 0.000000000000000D+00 0.624082359771195D+03
 0.624082359771195D+03 0.000000000000000D+00 0.000000000000000D+00 -.624082359771195D+03
 0.237074102351646D+03 -.404171196607095D+02 0.110695196031306D+03 -.184396064697057D+03
 0.573133701703501D+03 -.139206643950016D+03 -.138898051969711D+03 0.538341045683450D+03
 0.185889527924046D+02 -.131202034843697D+02 -.122228839620767D+02 0.490005449934891D+01
 0.419367962694839D+03 0.192743967095095D+03 0.404257399004812D+02 -.358845035485742D+03
 0.000000000000000D+00 0.000000000000000D+00 0.000000000000000D+00 0.000000000000000D+00
 0.656287087449597D+03 0.000000000000000D+00 0.000000000000000D+00 0.656287087449597D+03
 0.631593276894675D+03 0.000000000000000D+00 0.000000000000000D+00 -.631593276894675D+03
 0.235136514960688D+03 -.429498109438671D+02 0.105486181028526D+03 -.184396064697057D+03
 0.577864539928137D+03 -.145379997760021D+03 -.151594859049056D+03 0.538341045683450D+03
 0.190050131066808D+02 -.133218378954591D+02 -.126375877514513D+02 0.490005449934891D+01
 0.416534287432442D+03 0.188260623720651D+03 0.312047965287421D+02 -.358845035485742D+03
 0.393400089163238D+02 0.133910228786965D+02 0.275414692432395D+02 0.246938105549216D+02
0.317304773262D-04 0.000000000000D+00 0.000000000000D+00 0.335172646523D-06 0.000000000000D+00  7 2 -2 23 -13 13 23 21 0 0.44773728D+00 0.20588933D-01 0.84277037D+05 0.84277037D+05 0.84277037D+05 0.11278699D+01  1  2  2  1  7  1        2 0.166651889614D-03 0.100000000000D+01
-.507335969027D-06 0.000000000000D+00 -.121853387759D-06 0.335172646523D-06 0.000000000000D+00  7 2 -2 23 -13 13 23 21 2 0.44773728D+00 0.20588933D-01 0.84277037D+05 0.84277037D+05 0.84277037D+05 0.11278699D+01  1  2  3  1  7  1        2 -.338959117167D-05 0.100000000000D+01
0.195048625022D-05 0.000000000000D+00 0.000000000000D+00 0.335172646523D-06 0.000000000000D+00  7 2 -2 23 -13 13 23 21 2 0.44773728D+00 0.20588933D-01 0.84277037D+05 0.84277037D+05 0.84277037D+05 0.11278699D+01  1  2 15  1  7  1        2 0.130315045213D-04 0.100000000000D+01
0.927040124044D-04 0.000000000000D+00 0.000000000000D+00 0.335172646523D-06 0.000000000000D+00  7 2 -2 23 -13 13 23 21 2 0.47344681D+00 0.20588933D-01 0.94994790D+05 0.94994790D+05 0.94994790D+05 0.11235566D+01  1  2 12  1  7  1        2 0.480652756349D-03 0.100000000000D+01
-.934118848806D-04 0.000000000000D+00 0.000000000000D+00 0.335172646523D-06 0.000000000000D+00  7 2 -2 23 -13 13 23 21 2 0.44773728D+00 0.20588933D-01 0.84277037D+05 0.84277037D+05 0.84277037D+05 0.11278699D+01  1  2  4  1  7  1        2 -.624099452141D-03 0.100000000000D+01
-.288479450148D-03 0.000000000000D+00 -.463391347475D-04 0.335172646523D-06 0.000000000000D+00  7 2 -2 23 -13 13 23 21 2 0.47245744D+00 0.20588933D-01 0.84277037D+05 0.84277037D+05 0.84277037D+05 0.11278699D+01  1  2  5  1  7  1        2 -.153242821344D-02 0.100000000000D+01
0.290616833071D-03 0.000000000000D+00 0.462722991494D-04 0.335172646523D-06 0.000000000000D+00  7 2 -2 23 -13 13 23 21 2 0.44773728D+00 0.20588933D-01 0.84277037D+05 0.84277037D+05 0.84277037D+05 0.11278699D+01  1  2  6  1  7  1        2 0.194165663753D-02 0.100000000000D+01
0.127920866024D-05 0.000000000000D+00 0.000000000000D+00 0.335172646523D-06 0.000000000000D+00  7 21 -2 23 -13 13 23 -2 2 0.47344681D+00 0.20588933D-01 0.94994790D+05 0.94994790D+05 0.94994790D+05 0.11235566D+01  1  2 12  3  7  1        2 0.431968823627D-06 0.100000000000D+01
-.263945467821D-05 0.000000000000D+00 -.431512529441D-06 0.335172646523D-06 0.000000000000D+00  7 21 -2 23 -13 13 23 -2 2 0.47245744D+00 0.20588933D-01 0.84277037D+05 0.84277037D+05 0.84277037D+05 0.11278699D+01  1  2  5  3  7  1        2 -.927566612340D-06 0.100000000000D+01
  </mgrwgt>
  </event>
  <event>
  8     66 0.55102590E-06 0.25898841E+03 0.75467711E-02 0.91944167E-01
        2 -1    0    0  501    0 0.00000000E+00 0.00000000E+00 0.22932496E+04 0.22932496E+04 0.32000000E+00 0.0000E+00 0.9000E+01
       -2 -1    0    0    0  501 0.00000000E+00 0.00000000E+00 -.33709411E+02 0.33710930E+02 0.32000000E+00 0.0000E+00 0.9000E+01
       25  2    1    2    0    0 -.49091234E+02 -.16683308E+03 0.16753845E+04 0.17107707E+04 0.29929896E+03 0.0000E+00 0.0000E+00
       23  2    1    2    0    0 0.49091234E+02 0.16683308E+03 0.58415562E+03 0.61618981E+03 0.90602778E+02 0.0000E+00 0.0000E+00
       23  1    3    3    0    0 -.88939205E+02 0.12796357E+02 0.88193303E+03 0.89117621E+03 0.91188000E+02 0.0000E+00 0.9000E+01
      -11  1    4    4    0    0 0.22071025E+02 0.79806982E+01 0.17303677E+03 0.17462115E+03 0.51099893E-03 0.0000E+00 0.9000E+01
       11  1    4    4    0    0 0.27020209E+02 0.15885238E+03 0.41111885E+03 0.44156866E+03 0.51099893E-03 0.0000E+00 0.9000E+01
       23  1    3    3    0    0 0.39847971E+02 -.17962944E+03 0.79345152E+03 0.81959451E+03 0.91188000E+02 0.0000E+00 0.9000E+01
#aMCatNLO 1  0  0  2  2 0.52977012D+03 0.00000000D+00  -5  7  0 0.00000000D+00 0.00000000D+00 0.00000000D+00 0.00000000D+00 0.00000000D+00
  <mgrwgt>
 0.3280877800D-03    3    2    0
 0.278039361807813D+03 0.000000000000000D+00 0.000000000000000D+00 0.278039361807813D+03
 0.278039361807813D+03 0.000000000000000D+00 0.000000000000000D+00 -.278039361807813D+03
 0.145606680384096D+03 -.889392048686929D+02 0.127963565865763D+02 0.693694826556326D+02
 0.276093787958234D+02 0.220710251273990D+02 0.798069822579530D+01 0.145415302889953D+02
 0.177264981394359D+03 0.270202090848532D+02 0.158852382557816D+03 -.738830324598190D+02
 0.205597683041347D+03 0.398479706564407D+02 -.179629437370187D+03 -.100279804848089D+02
 0.000000000000000D+00 -.000000000000000D+00 -.000000000000000D+00 0.000000000000000D+00
 0.706918841805284D+03 0.000000000000000D+00 0.000000000000000D+00 0.706918841805284D+03
 0.601311352143414D+03 0.000000000000000D+00 0.000000000000000D+00 -.601311352143414D+03
 0.196783240398433D+03 -.626071513305738D+02 0.147229792623871D+03 0.693694826556326D+02
 0.496362507656511D+02 0.280117258599138D+02 0.383098486198245D+02 0.145415302889953D+02
 0.398295039036403D+03 0.712845882398982D+02 0.384835995087543D+03 -.738830324598190D+02
 0.123321880608402D+03 0.651440644782595D+02 -.504849023317021D+02 -.100279804848089D+02
 0.540193783139809D+03 -.101833227247498D+03 -.519890733999536D+03 0.105607489661870D+03
0.318156422560D-05 0.000000000000D+00 0.000000000000D+00 0.137607097874D-06 0.000000000000D+00  7 2 -2 23 -11 11 23 21 0 0.35280775D+00 0.51861818D-02 0.67074997D+05 0.67074997D+05 0.67074997D+05 0.11362389D+01  1  2  2  2  7  2       -2 0.324364785734D-03 0.100000000000D+01
-.175670853312D-06 0.000000000000D+00 -.122180443514D-07 0.137607097874D-06 0.000000000000D+00  7 2 -2 23 -11 11 23 21 2 0.35280775D+00 0.51861818D-02 0.67074997D+05 0.67074997D+05 0.67074997D+05 0.11362389D+01  1  2  3  2  7  2       -2 -.231223511131D-04 0.100000000000D+01
0.203956107704D-06 0.000000000000D+00 0.000000000000D+00 0.137607097874D-06 0.000000000000D+00  7 2 -2 23 -11 11 23 21 2 0.35280775D+00 0.51861818D-02 0.67074997D+05 0.67074997D+05 0.67074997D+05 0.11362389D+01  1  2 15  2  7  2       -2 0.268453454007D-04 0.100000000000D+01
  </mgrwgt>
  </event>
  <event>
  8     66 0.55102590E-06 0.12605448E+03 0.75467711E-02 0.10565148E+00
        2 -1    0    0  501    0 0.00000000E+00 0.00000000E+00 0.24566853E+04 0.24566853E+04 0.32000000E+00 0.0000E+00 0.9000E+01
       -2 -1    0    0    0  501 0.00000000E+00 0.00000000E+00 -.22029134E+02 0.22031458E+02 0.32000000E+00 0.0000E+00 0.9000E+01
       25  2    1    2    0    0 -.10715051E+02 -.11264116E+03 0.16905666E+04 0.17206834E+04 0.29988819E+03 0.0000E+00 0.0000E+00
       23  2    1    2    0    0 0.10715051E+02 0.11264116E+03 0.74408954E+03 0.75803340E+03 0.90236086E+02 0.0000E+00 0.0000E+00
       23  1    3    3    0    0 -.10235776E+03 -.73723339E+02 0.53278155E+03 0.55505286E+03 0.91188000E+02 0.0000E+00 0.9000E+01
      -13  1    4    4    0    0 0.21582012E+02 0.18484682E+02 0.40356394E+03 0.40456313E+03 0.10565837E+00 0.0000E+00 0.9000E+01
       13  1    4    4    0    0 -.10866962E+02 0.94156474E+02 0.34052560E+03 0.35347027E+03 0.10565837E+00 0.0000E+00 0.9000E+01
       23  1    3    3    0    0 0.91642707E+02 -.38917818E+02 0.11577851E+04 0.11656305E+04 0.91188000E+02 0.0000E+00 0.9000E+01
#aMCatNLO 1  0  0  1  2 0.56336403D+01 0.00000000D+00  -5  7  0 0.00000000D+00 0.00000000D+00 0.00000000D+00 0.00000000D+00 0.00000000D+00
  <mgrwgt>
 0.5832204710D-03   11    2    0
 0.232640401790524D+03 0.000000000000000D+00 0.000000000000000D+00 0.232640401790524D+03
 0.232640401790524D+03 0.000000000000000D+00 0.000000000000000D+00 -.232640401790524D+03
 0.169099910512946D+03 -.102357758142705D+03 -.737233454121797D+02 -.660854453016873D+02
 0.435392146308295D+02 0.215820522047130D+02 0.184845866509759D+02 0.329878506369398D+02
 0.101207616365342D+03 -.108670003199500D+02 0.941565827790818D+02 -.354884183046572D+02
 0.151434062071931D+03 0.916427062579420D+02 -.389178240178780D+02 0.685860129694048D+02
 0.000000000000000D+00 0.000000000000000D+00 0.000000000000000D+00 0.000000000000000D+00
 0.241669499875551D+03 0.000000000000000D+00 0.000000000000000D+00 0.241669499875551D+03
 0.233537884295071D+03 0.000000000000000D+00 0.000000000000000D+00 -.233537884295071D+03
 0.170392483278237D+03 -.104410677922525D+03 -.738205341944941D+02 -.660854453016873D+02
 0.432707981533542D+02 0.210571096858513D+02 0.184597349618380D+02 0.329878506369398D+02
 0.101292554104422D+03 -.120915243828665D+02 0.940986116865144D+02 -.354884183046572D+02
 0.150359072976201D+03 0.898177549256437D+02 -.390042203785699D+02 0.685860129694048D+02
 0.989247565840854D+01 0.562733769389691D+01 0.266407924711582D+00 0.813161558047988D+01
0.994568309297D-06 0.000000000000D+00 0.000000000000D+00 0.106642177136D-06 0.000000000000D+00  7 2 -2 23 -13 13 23 21 0 0.37795176D+00 0.33892780D-02 0.42820304D+05 0.42820304D+05 0.42820304D+05 0.11532643D+01  1  2  2  1  7  1        2 0.155352620371D-03 0.100000000000D+01
-.543324288751D-07 0.000000000000D+00 -.381940418355D-08 0.106642177136D-06 0.000000000000D+00  7 2 -2 23 -13 13 23 21 2 0.37795176D+00 0.33892780D-02 0.42820304D+05 0.42820304D+05 0.42820304D+05 0.11532643D+01  1  2  3  1  7  1        2 -.112875793512D-04 0.100000000000D+01
0.633636274282D-07 0.000000000000D+00 0.000000000000D+00 0.106642177136D-06 0.000000000000D+00  7 2 -2 23 -13 13 23 21 2 0.37795176D+00 0.33892780D-02 0.42820304D+05 0.42820304D+05 0.42820304D+05 0.11532643D+01  1  2 15  1  7  1        2 0.131638137184D-04 0.100000000000D+01
0.271282659713D-05 0.000000000000D+00 0.000000000000D+00 0.106642177136D-06 0.000000000000D+00  7 2 -2 23 -13 13 23 21 2 0.39333336D+00 0.33892780D-02 0.43967612D+05 0.43967612D+05 0.43967612D+05 0.11522394D+01  1  2 12  1  7  1        2 0.494202805397D-03 0.100000000000D+01
-.719209035054D-05 0.000000000000D+00 0.000000000000D+00 0.106642177136D-06 0.000000000000D+00  7 2 -2 23 -13 13 23 21 2 0.37795176D+00 0.33892780D-02 0.42820304D+05 0.42820304D+05 0.42820304D+05 0.11532643D+01  1  2  4  1  7  1        2 -.149415905406D-02 0.100000000000D+01
-.244013675293D-04 0.000000000000D+00 -.222013077124D-05 0.106642177136D-06 0.000000000000D+00  7 2 -2 23 -13 13 23 21 2 0.39309796D+00 0.33892780D-02 0.42820304D+05 0.42820304D+05 0.42820304D+05 0.11532643D+01  1  2  5  1  7  1        2 -.446382596950D-02 0.100000000000D+01
0.244714212661D-04 0.000000000000D+00 0.221841806379D-05 0.106642177136D-06 0.000000000000D+00  7 2 -2 23 -13 13 23 21 2 0.37795176D+00 0.33892780D-02 0.42820304D+05 0.42820304D+05 0.42820304D+05 0.11532643D+01  1  2  6  1  7  1        2 0.508394553855D-02 0.100000000000D+01
0.443167870177D-05 0.000000000000D+00 0.000000000000D+00 0.106642177136D-06 0.238140575732D-07  7 2 -2 23 -13 13 23 21 2 0.39262060D+00 0.34023532D-02 0.43967612D+05 0.43967612D+05 0.43967612D+05 0.11522394D+01  1  2 11  1  7  1        2 0.807636590513D-03 0.100000000000D+01
0.585455009054D-07 0.000000000000D+00 0.000000000000D+00 0.106642177136D-06 0.000000000000D+00  7 21 -2 23 -13 13 23 -2 2 0.39333336D+00 0.33892780D-02 0.43967612D+05 0.43967612D+05 0.43967612D+05 0.11522394D+01  1  2 12  3  7  1        2 0.131913442486D-05 0.100000000000D+01
-.168411865796D-06 0.000000000000D+00 -.154340479127D-07 0.106642177136D-06 0.000000000000D+00  7 21 -2 23 -13 13 23 -2 2 0.39309796D+00 0.33892780D-02 0.42820304D+05 0.42820304D+05 0.42820304D+05 0.11532643D+01  1  2  5  3  7  1        2 -.382355724874D-05 0.100000000000D+01
0.307328012817D-07 0.000000000000D+00 0.000000000000D+00 0.106642177136D-06 0.160002534697D-09  7 21 -2 23 -13 13 23 -2 2 0.39262060D+00 0.34023532D-02 0.43967612D+05 0.43967612D+05 0.43967612D+05 0.11522394D+01  1  2 11  3  7  1        2 0.696128142697D-06 0.100000000000D+01
  </mgrwgt>
  </event>
  <event>
  8     66 0.55102590E-06 0.39475235E+03 0.75467711E-02 0.95684402E-01
        2 -1    0    0  501    0 0.00000000E+00 0.00000000E+00 0.56323886E+03 0.56323895E+03 0.32000000E+00 0.0000E+00 0.9000E+01
       -2 -1    0    0    0  501 0.00000000E+00 0.00000000E+00 -.48369385E+03 0.48369395E+03 0.32000000E+00 0.0000E+00 0.9000E+01
       25  2    1    2    0    0 0.34324179E+03 0.37159385E+01 0.37158559E+03 0.58688309E+03 0.29753518E+03 0.0000E+00 0.0000E+00
       23  2    1    2    0    0 -.34324179E+03 -.37159385E+01 -.29204058E+03 0.46004981E+03 0.92354714E+02 0.0000E+00 0.0000E+00
       23  1    3    3    0    0 0.15250056E+02 0.33524148E+02 0.27922128E+02 0.10223174E+03 0.91188000E+02 0.0000E+00 0.9000E+01
      -11  1    4    4    0    0 -.23082828E+02 -.17505298E+02 -.41452626E+01 0.29264921E+02 0.51099893E-03 0.0000E+00 0.9000E+01
       11  1    4    4    0    0 -.32015896E+03 0.13789359E+02 -.28789532E+03 0.43078489E+03 0.51099893E-03 0.0000E+00 0.9000E+01
       23  1    3    3    0    0 0.32799173E+03 -.29808209E+02 0.34366346E+03 0.48465135E+03 0.91188000E+02 0.0000E+00 0.9000E+01
#aMCatNLO 1  0  0  2  2 0.11478415D+03 0.00000000D+00  -5  7  0 0.00000000D+00 0.00000000D+00 0.00000000D+00 0.00000000D+00 0.00000000D+00
  <mgrwgt>
 0.2402780041D-03    4    2    0
 0.521953324795906D+03 0.000000000000000D+00 0.000000000000000D+00 0.521953324795906D+03
 0.521953324795906D+03 0.000000000000000D+00 0.000000000000000D+00 -.521953324795906D+03
 0.100400461382084D+03 0.152500556306795D+02 0.335241475779539D+02 0.202130807688488D+02
 0.296656252066082D+02 -.230828278602490D+02 -.175052976207924D+02 -.638724761384284D+01
 0.453971156114583D+03 -.320158960754133D+03 0.137893591288931D+02 -.321555444686696D+03
 0.459869406888538D+03 0.327991732983702D+03 -.298082090860546D+02 0.307729611531691D+03
 0.000000000000000D+00 0.000000000000000D+00 0.000000000000000D+00 0.000000000000000D+00
 0.625866841446436D+03 0.000000000000000D+00 0.000000000000000D+00 0.625866841446436D+03
 0.557786717850317D+03 0.000000000000000D+00 0.000000000000000D+00 -.557786717850317D+03
 0.984655234376172D+02 0.469136761660939D+01 0.308160736882844D+02 0.202130807688488D+02
 0.327811458415677D+02 -.263984073123184D+02 -.183556716569709D+02 -.638724761384284D+01
 0.490430373871150D+03 -.370301478209647D+03 0.928893690135192D+00 -.321555444686696D+03
 0.428521268146980D+03 0.280823083298269D+03 -.419059421049556D+02 0.307729611531691D+03
 0.133455247999438D+03 0.111185434607087D+03 0.285166463835069D+02 0.680801235961182D+02
0.318875720054D-04 0.000000000000D+00 0.000000000000D+00 0.536115439544D-07 0.000000000000D+00  7 2 -2 23 -11 11 23 21 0 0.86652147D-01 0.74414453D-01 0.15582941D+06 0.15582941D+06 0.15582941D+06 0.11062476D+01  1  2  2  2  7  2       -2 0.351978053945D-03 0.100000000000D+01
-.160348383989D-05 0.000000000000D+00 -.122456672691D-06 0.536115439544D-07 0.000000000000D+00  7 2 -2 23 -11 11 23 21 2 0.86652147D-01 0.74414453D-01 0.15582941D+06 0.15582941D+06 0.15582941D+06 0.11062476D+01  1  2  3  2  7  2       -2 -.216602465459D-04 0.100000000000D+01
0.199095366665D-05 0.000000000000D+00 0.000000000000D+00 0.536115439544D-07 0.000000000000D+00  7 2 -2 23 -11 11 23 21 2 0.86652147D-01 0.74414453D-01 0.15582941D+06 0.15582941D+06 0.15582941D+06 0.11062476D+01  1  2 15  2  7  2       -2 0.268942824419D-04 0.100000000000D+01
-.865649966065D-05 0.000000000000D+00 0.000000000000D+00 0.536115439544D-07 0.000000000000D+00  7 2 -2 23 -11 11 23 21 2 0.86652147D-01 0.74414453D-01 0.15582941D+06 0.15582941D+06 0.15582941D+06 0.11062476D+01  1  2  4  2  7  2       -2 -.116934085776D-03 0.100000000000D+01
  </mgrwgt>
  </event>
  <event>
  8     66 0.55102590E-06 0.13548978E+03 0.75467711E-02 0.10136202E+00
        2 -1    0    0  501    0 0.00000000E+00 0.00000000E+00 0.46317029E+03 0.46317040E+03 0.32000000E+00 0.0000E+00 0.9000E+01
       -2 -1    0    0    0  501 0.00000000E+00 0.00000000E+00 -.19829263E+03 0.19829289E+03 0.32000000E+00 0.0000E+00 0.9000E+01
       25  2    1    2    0    0 0.53158935E+02 0.14493200E+03 -.17328182E+01 0.33742200E+03 0.30003241E+03 0.0000E+00 0.0000E+00
       23  2    1    2    0    0 -.53158935E+02 -.14493200E+03 0.26661047E+03 0.32404129E+03 0.10045125E+03 0.0000E+00 0.0000E+00
       23  1    3    3    0    0 -.91370034E+02 0.91836111E+02 0.19507518E+01 0.15843425E+03 0.91188000E+02 0.0000E+00 0.9000E+01
      -11  1    4    4    0    0 -.42682300E+02 -.50028339E+01 0.76636427E+02 0.87863241E+02 0.51099893E-03 0.0000E+00 0.9000E+01
       11  1    4    4    0    0 -.10476635E+02 -.13992917E+03 0.18997405E+03 0.23617805E+03 0.51099893E-03 0.0000E+00 0.9000E+01
       23  1    3    3    0    0 0.14452897E+03 0.53095888E+02 -.36835700E+01 0.17898775E+03 0.91188000E+02 0.0000E+00 0.9000E+01
#aMCatNLO 1  0  0  1  2 0.52531596D+02 0.00000000D+00  -5  7  0 0.00000000D+00 0.00000000D+00 0.00000000D+00 0.00000000D+00 0.00000000D+00
  <mgrwgt>
 0.1742727581D-03    9    2    0
 0.303056724549212D+03 0.000000000000000D+00 0.000000000000000D+00 0.303056724549212D+03
 0.303056724549212D+03 0.000000000000000D+00 0.000000000000000D+00 -.303056724549212D+03
 0.172049852074073D+03 -.913700338050390D+02 0.918361116124425D+02 -.671084628126980D+02
 0.623959611254728D+02 -.426823000528095D+02 -.500283443546399D+01 0.452376930731972D+02
 0.174725091623104D+03 -.104766354148476D+02 -.139929165489855D+03 0.104110164721796D+03
 0.196942544275774D+03 0.144528969272696D+03 0.530958883128761D+02 -.822393949822949D+02
 0.000000000000000D+00 0.000000000000000D+00 -.000000000000000D+00 0.000000000000000D+00
 0.341156481729718D+03 0.000000000000000D+00 0.000000000000000D+00 0.341156481729718D+03
 0.322856880577230D+03 0.000000000000000D+00 0.000000000000000D+00 -.322856880577230D+03
 0.183808232482116D+03 -.100562274141090D+03 0.104182043667268D+03 -.671084628126980D+02
 0.644912914215642D+02 -.459599496879110D+02 -.600682379475445D+00 0.452376930731972D+02
 0.166194920309498D+03 -.192830074520662D+02 -.128101486181404D+03 0.104110164721796D+03
 0.193891191499632D+03 0.134433265994900D+03 0.666552451352298D+02 -.822393949822949D+02
 0.556277265941382D+02 0.313719652861668D+02 -.421351202416182D+02 0.182996011524873D+02
0.137762752663D-05 0.000000000000D+00 0.000000000000D+00 0.859552288188D-08 0.000000000000D+00  7 2 -2 23 -11 11 23 21 0 0.71256996D-01 0.30506587D-01 0.67773634D+05 0.67773634D+05 0.67773634D+05 0.11358549D+01  1  2  2  1  7  1        2 0.108838646887D-03 0.100000000000D+01
-.743861663837D-07 0.000000000000D+00 -.529045243992D-08 0.859552288188D-08 0.000000000000D+00  7 2 -2 23 -11 11 23 21 2 0.71256996D-01 0.30506587D-01 0.67773634D+05 0.67773634D+05 0.67773634D+05 0.11358549D+01  1  2  3  1  7  1        2 -.758209432117D-05 0.100000000000D+01
0.880656895482D-07 0.000000000000D+00 0.000000000000D+00 0.859552288188D-08 0.000000000000D+00  7 2 -2 23 -11 11 23 21 2 0.71256996D-01 0.30506587D-01 0.67773634D+05 0.67773634D+05 0.67773634D+05 0.11358549D+01  1  2 15  1  7  1        2 0.897643200443D-05 0.100000000000D+01
0.189207602521D-05 0.000000000000D+00 0.000000000000D+00 0.859552288188D-08 0.000000000000D+00  7 2 -2 23 -11 11 23 21 2 0.82313822D-01 0.30506587D-01 0.82583200D+05 0.82583200D+05 0.82583200D+05 0.11286065D+01  1  2 12  1  7  1        2 0.162116458600D-03 0.100000000000D+01
-.179953302163D-05 0.000000000000D+00 0.000000000000D+00 0.859552288188D-08 0.000000000000D+00  7 2 -2 23 -11 11 23 21 2 0.71256996D-01 0.30506587D-01 0.67773634D+05 0.67773634D+05 0.67773634D+05 0.11358549D+01  1  2  4  1  7  1        2 -.183424281253D-03 0.100000000000D+01
-.457562156439D-05 0.000000000000D+00 -.115105632063D-05 0.859552288188D-08 0.000000000000D+00  7 2 -2 23 -11 11 23 21 2 0.84405868D-01 0.30506587D-01 0.67773634D+05 0.67773634D+05 0.67773634D+05 0.11358549D+01  1  2  5  1  7  1        2 -.386445421694D-03 0.100000000000D+01
0.471902913425D-05 0.000000000000D+00 0.113474662796D-05 0.859552288188D-08 0.000000000000D+00  7 2 -2 23 -11 11 23 21 2 0.71256996D-01 0.30506587D-01 0.67773634D+05 0.67773634D+05 0.67773634D+05 0.11358549D+01  1  2  6  1  7  1        2 0.481005081183D-03 0.100000000000D+01
0.418102173308D-07 0.000000000000D+00 0.000000000000D+00 0.859552288188D-08 0.000000000000D+00  7 21 -2 23 -11 11 23 -2 2 0.82313822D-01 0.30506587D-01 0.82583200D+05 0.82583200D+05 0.82583200D+05 0.11286065D+01  1  2 12  3  7  1        2 0.649252223379D-05 0.100000000000D+01
-.105101356276D-06 0.000000000000D+00 -.289342753254D-07 0.859552288188D-08 0.000000000000D+00  7 21 -2 23 -11 11 23 -2 2 0.84405868D-01 0.30506587D-01 0.67773634D+05 0.67773634D+05 0.67773634D+05 0.11358549D+01  1  2  5  3  7  1        2 -.157045854964D-04 0.100000000000D+01
  </mgrwgt>
  </event>
  <event>
  8     66 0.55102590E-06 0.12672833E+03 0.75467711E-02 0.10149302E+00
        2 -1    0    0  501    0 0.00000000E+00 0.00000000E+00 0.72371056E+03 0.72371063E+03 0.32000000E+00 0.0000E+00 0.9000E+01
       -2 -1    0    0    0  501 0.00000000E+00 0.00000000E+00 -.16376280E+03 0.16376311E+03 0.32000000E+00 0.0000E+00 0.9000E+01
       25  2    1    2    0    0 -.98518551E+02 -.90354244E+02 0.25595859E+02 0.32908946E+03 0.29962465E+03 0.0000E+00 0.0000E+00
       23  2    1    2    0    0 0.98518551E+02 0.90354244E+02 0.53435190E+03 0.55838429E+03 0.91603867E+02 0.0000E+00 0.0000E+00
       23  1    3    3    0    0 -.25519600E+02 0.73658963E+02 -.22523047E+02 0.12206323E+03 0.91188000E+02 0.0000E+00 0.9000E+01
      -13  1    4    4    0    0 0.71356896E+02 0.84413357E+02 0.50864866E+03 0.52051983E+03 0.10565837E+00 0.0000E+00 0.9000E+01
       13  1    4    4    0    0 0.27161655E+02 0.59408864E+01 0.25703235E+02 0.37864457E+02 0.10565837E+00 0.0000E+00 0.9000E+01
       23  1    3    3    0    0 -.72998951E+02 -.16401321E+03 0.48118906E+02 0.20702623E+03 0.91188000E+02 0.0000E+00 0.9000E+01
#aMCatNLO 1  0  0  2  1 0.89712711D+02 0.00000000D+00  -5  7  0 0.00000000D+00 0.00000000D+00 0.00000000D+00 0.00000000D+00 0.00000000D+00
  <mgrwgt>
 0.2022988966D-03    9    2    0
 0.344263037585024D+03 0.000000000000000D+00 0.000000000000000D+00 0.344263037585024D+03
 0.344263037585024D+03 0.000000000000000D+00 0.000000000000000D+00 -.344263037585024D+03
 0.175650050871372D+03 -.255195999891162D+02 0.736589624686551D+02 -.128299634806778D+03
 0.257261449187322D+03 0.713569547063943D+02 0.844134615704584D+02 0.232305845295987D+03
 0.279016770668963D+02 0.271615959713912D+02 0.594078203335365D+01 0.233632109618006D+01
 0.227712898044459D+03 -.729989506886693D+02 -.164013206072467D+03 -.106342531585390D+03
 0.000000000000000D+00 0.000000000000000D+00 -.000000000000000D+00 -.000000000000000D+00
 0.358467154227110D+03 0.000000000000000D+00 0.000000000000000D+00 0.358467154227110D+03
 0.525327420204255D+03 0.000000000000000D+00 0.000000000000000D+00 -.525327420204255D+03
 0.187291999202535D+03 -.331934050438459D+02 0.959189407329172D+02 -.128299634806778D+03
 0.266804115780585D+03 0.602764613310976D+02 0.116555474552581D+03 0.232305845295987D+03
 0.277158997826698D+02 0.259856549574659D+02 0.935192177737108D+01 0.233632109618006D+01
 0.212534099777335D+03 -.823072400878351D+02 -.137011957249345D+03 -.106342531585390D+03
 0.189448459888240D+03 0.292385288431175D+02 -.848143798135251D+02 -.166860265977144D+03
0.374625797026D-05 0.000000000000D+00 0.000000000000D+00 0.608488253709D-06 0.000000000000D+00  7 2 -2 23 -13 13 23 21 0 0.11134012D+00 0.25194307D-01 0.52821827D+05 0.52821827D+05 0.52821827D+05 0.11452040D+01  1  2  2  2  7  2       -2 0.247807231206D-03 0.100000000000D+01
-.166810080916D-06 0.000000000000D+00 -.143866170182D-07 0.608488253709D-06 0.000000000000D+00  7 2 -2 23 -13 13 23 21 2 0.11134012D+00 0.25194307D-01 0.52821827D+05 0.52821827D+05 0.52821827D+05 0.11452040D+01  1  2  3  2  7  2       -2 -.144711923686D-04 0.100000000000D+01
0.232646444816D-06 0.000000000000D+00 0.000000000000D+00 0.608488253709D-06 0.000000000000D+00  7 2 -2 23 -13 13 23 21 2 0.11134012D+00 0.25194307D-01 0.52821827D+05 0.52821827D+05 0.52821827D+05 0.11452040D+01  1  2 15  2  7  2       -2 0.201826618530D-04 0.100000000000D+01
0.714596296661D-05 0.000000000000D+00 0.000000000000D+00 0.608488253709D-06 0.000000000000D+00  7 2 -2 23 -13 13 23 21 2 0.11134012D+00 0.38743475D-01 0.80943453D+05 0.80943453D+05 0.80943453D+05 0.11293356D+01  1  2 12  2  7  2       -2 0.280995533298D-03 0.100000000000D+01
-.829733048268D-05 0.000000000000D+00 0.000000000000D+00 0.608488253709D-06 0.000000000000D+00  7 2 -2 23 -13 13 23 21 2 0.11134012D+00 0.25194307D-01 0.52821827D+05 0.52821827D+05 0.52821827D+05 0.11452040D+01  1  2  4  2  7  2       -2 -.719814203680D-03 0.100000000000D+01
-.858273848007D-05 0.000000000000D+00 -.146518300312D-05 0.608488253709D-06 0.000000000000D+00  7 2 -2 23 -13 13 23 21 2 0.11134012D+00 0.39590322D-01 0.52821827D+05 0.52821827D+05 0.52821827D+05 0.11452040D+01  1  2  5  2  7  2       -2 -.335861934214D-03 0.100000000000D+01
0.849981704866D-05 0.000000000000D+00 0.132729380713D-05 0.608488253709D-06 0.000000000000D+00  7 2 -2 23 -13 13 23 21 2 0.11134012D+00 0.25194307D-01 0.52821827D+05 0.52821827D+05 0.52821827D+05 0.11452040D+01  1  2  6  2  7  2       -2 0.737380420495D-03 0.100000000000D+01
0.359065418023D-06 0.000000000000D+00 0.000000000000D+00 0.608488253709D-06 0.000000000000D+00  7 2 21 23 -13 13 23 2 2 0.11134012D+00 0.38743475D-01 0.80943453D+05 0.80943453D+05 0.80943453D+05 0.11293356D+01  1  2 12  4  7  2       -2 0.160406038345D-03 0.100000000000D+01
-.388859056108D-06 0.000000000000D+00 -.763908609794D-07 0.608488253709D-06 0.000000000000D+00  7 2 21 23 -13 13 23 2 2 0.11134012D+00 0.39590322D-01 0.52821827D+05 0.52821827D+05 0.52821827D+05 0.11452040D+01  1  2  5  4  7  2       -2 -.174325658355D-03 0.100000000000D+01
  </mgrwgt>
  </event>
  <event>
  8     66 0.55102590E-06 0.24846389E+03 0.75467711E-02 0.91908184E-01
        2 -1    0    0  501    0 0.00000000E+00 0.00000000E+00 0.23486565E+03 0.23486587E+03 0.32000000E+00 0.0000E+00 0.9000E+01
       -2 -1    0    0    0  501 0.00000000E+00 0.00000000E+00 -.27442288E+03 0.27442307E+03 0.32000000E+00 0.0000E+00 0.9000E+01
       25  2    1    2    0    0 0.78638635E+02 -.12196195E+03 -.84611550E+01 0.33461526E+03 0.30139183E+03 0.0000E+00 0.0000E+00
       23  2    1    2    0    0 -.78638635E+02 0.12196195E+03 -.31096073E+02 0.17467368E+03 0.92115018E+02 0.0000E+00 0.0000E+00
       23  1    3    3    0    0 0.15369313E+03 -.12010857E+03 0.73371045E+01 0.21544543E+03 0.91188000E+02 0.0000E+00 0.9000E+01
      -11  1    4    4    0    0 -.80801269E+02 0.57932692E+02 -.44973365E+02 0.10912216E+03 0.51099893E-03 0.0000E+00 0.9000E+01
       11  1    4    4    0    0 0.21626343E+01 0.64029254E+02 0.13877292E+02 0.65551519E+02 0.51099893E-03 0.0000E+00 0.9000E+01
       23  1    3    3    0    0 -.75054499E+02 -.18533722E+01 -.15798260E+02 0.11916983E+03 0.91188000E+02 0.0000E+00 0.9000E+01
#aMCatNLO 1  0  0  1  2 0.54317303D+03 0.00000000D+00  -5  7  0 0.00000000D+00 0.00000000D+00 0.00000000D+00 0.00000000D+00 0.00000000D+00
  <mgrwgt>
 0.1039254484D-03    5    2    0
 0.253875191238656D+03 0.000000000000000D+00 0.000000000000000D+00 0.253875191238656D+03
 0.253875191238656D+03 0.000000000000000D+00 0.000000000000000D+00 -.253875191238656D+03
 0.216669872292527D+03 0.153693134105180D+03 -.120108573946249D+03 0.241440097909505D+02
 0.105949081713458D+03 -.808012693541112D+02 0.579326917585582D+02 -.366082779204008D+02
 0.668312855946402D+02 0.216263424624709D+01 0.640292544433063D+02 0.190262535141226D+02
 0.118300142876687D+03 -.750544989973161D+02 -.185337225561575D+01 -.656198538467226D+01
 0.000000000000000D+00 0.000000000000000D+00 -.000000000000000D+00 0.000000000000000D+00
 0.106767458675222D+04 0.000000000000000D+00 0.000000000000000D+00 0.106767458675222D+04
 0.477758757958862D+03 0.000000000000000D+00 0.000000000000000D+00 -.477758757958862D+03
 0.111066050530288D+03 0.295355751758956D+02 -.506471403599456D+02 0.241440097909505D+02
 0.260843123506696D+03 -.219754681730099D+03 0.135671842790371D+03 -.366082779204008D+02
 0.129290046410117D+03 -.721348233712836D+02 0.105595857092692D+03 0.190262535141226D+02
 0.242337858215915D+03 -.211676488699072D+03 0.745814364337387D+02 -.656198538467226D+01
 0.801896266048065D+03 0.474030418624559D+03 -.265201995956857D+03 0.589915828793357D+03
0.104539228539D-05 0.000000000000D+00 0.000000000000D+00 0.164828447881D-07 0.000000000000D+00  7 2 -2 23 -11 11 23 21 0 0.36133209D-01 0.42218936D-01 0.61734305D+05 0.61734305D+05 0.61734305D+05 0.11393281D+01  1  2  2  1  7  1        2 0.961307204644D-04 0.100000000000D+01
-.580445705365D-07 0.000000000000D+00 -.401458163401D-08 0.164828447881D-07 0.000000000000D+00  7 2 -2 23 -11 11 23 21 2 0.36133209D-01 0.42218936D-01 0.61734305D+05 0.61734305D+05 0.61734305D+05 0.11393281D+01  1  2  3  1  7  1        2 -.692854691116D-05 0.100000000000D+01
0.676567358214D-07 0.000000000000D+00 0.000000000000D+00 0.164828447881D-07 0.000000000000D+00  7 2 -2 23 -11 11 23 21 2 0.36133209D-01 0.42218936D-01 0.61734305D+05 0.61734305D+05 0.61734305D+05 0.11393281D+01  1  2 15  1  7  1        2 0.807591241801D-05 0.100000000000D+01
0.542316063157D-06 0.000000000000D+00 -.545001706899D-06 0.164828447881D-07 0.000000000000D+00  7 2 -2 23 -11 11 23 21 2 0.23355151D+00 0.42218936D-01 0.61734305D+05 0.61734305D+05 0.61734305D+05 0.11393281D+01  1  2  5  1  7  1        2 0.629764036340D-05 0.100000000000D+01
0.811643485805D-07 0.000000000000D+00 -.124589336726D-06 0.164828447881D-07 0.000000000000D+00  7 21 -2 23 -11 11 23 -2 2 0.23355151D+00 0.42218936D-01 0.61734305D+05 0.61734305D+05 0.61734305D+05 0.11393281D+01  1  2  5  3  7  1        2 0.349722071914D-06 0.100000000000D+01
  </mgrwgt>
  </event>
  <event>
  8     66 0.55102590E-06 0.26395257E+03 0.75467711E-02 0.95656172E-01
        2 -1    0    0  501    0 0.00000000E+00 0.00000000E+00 0.16940005E+03 0.16940036E+03 0.32000000E+00 0.0000E+00 0.9000E+01
       -2 -1    0    0    0  501 0.00000000E+00 0.00000000E+00 -.49270807E+03 0.49270817E+03 0.32000000E+00 0.0000E+00 0.9000E+01
       25  2    1    2    0    0 -.17857950E+03 0.33532661E+02 -.10705743E+03 0.36577583E+03 0.29885714E+03 0.0000E+00 0.0000E+00
       23  2    1    2    0    0 0.17857950E+03 -.33532661E+02 -.21625059E+03 0.29633270E+03 0.89630760E+02 0.0000E+00 0.0000E+00
       23  1    3    3    0    0 0.19441023E+02 -.51953989E+02 -.72597168E+02 0.12908435E+03 0.91188000E+02 0.0000E+00 0.9000E+01
      -13  1    4    4    0    0 0.94294445E+02 -.40085006E+02 -.17375067E+03 0.20171157E+03 0.10565837E+00 0.0000E+00 0.9000E+01
       13  1    4    4    0    0 0.84285056E+02 0.65523446E+01 -.42499917E+02 0.94621129E+02 0.10565837E+00 0.0000E+00 0.9000E+01
       23  1    3    3    0    0 -.19802052E+03 0.85486650E+02 -.34460258E+02 0.23669148E+03 0.91188000E+02 0.0000E+00 0.9000E+01
#aMCatNLO 1  0  0  2  1 0.30486206D+03 0.00000000D+00  -5  7  0 0.00000000D+00 0.00000000D+00 0.00000000D+00 0.00000000D+00 0.00000000D+00
  <mgrwgt>
 0.1454808294D-03    5    2    0
 0.288902939685377D+03 0.000000000000000D+00 0.000000000000000D+00 0.288902939685377D+03
 0.288902939685377D+03 0.000000000000000D+00 0.000000000000000D+00 -.288902939685377D+03
 0.107296598606090D+03 0.194410223927072D+02 -.519539881503547D+02 -.109607705949663D+02
 0.133920419670808D+03 0.942944595796776D+02 -.400850704565377D+02 -.862346845757345D+02
 0.846458213377891D+02 0.842850423063263D+02 0.655240911643530D+01 0.424413102301890D+01
 0.251943039756067D+03 -.198020524278711D+03 0.854866494904571D+02 0.929513241476819D+02
 0.000000000000000D+00 -.000000000000000D+00 -.000000000000000D+00 -.000000000000000D+00
 0.341552955097943D+03 0.000000000000000D+00 0.000000000000000D+00 0.341552955097943D+03
 0.188573603272642D+04 0.000000000000000D+00 0.000000000000000D+00 -.188573603272642D+04
 0.123352567875227D+03 0.741982233858798D+02 -.357083997367014D+02 -.109607705949663D+02
 0.193099082543601D+03 0.171930433230127D+03 -.170517150047919D+02 -.862346845757345D+02
 0.139322353923809D+03 0.137456144443679D+03 0.223274272904186D+02 0.424413102301890D+01
 0.197525704000917D+03 -.913145226160360D+02 0.117144618722569D+03 0.929513241476819D+02
 0.157398927948081D+04 -.292270278443650D+03 -.867119312714942D+02 -.154418307762848D+04
0.355505560116D-05 0.000000000000D+00 0.000000000000D+00 0.311207680053D-07 0.000000000000D+00  7 2 -2 23 -13 13 23 21 0 0.26061578D-01 0.75801273D-01 0.69670957D+05 0.69670957D+05 0.69670957D+05 0.11348336D+01  1  2  2  2  7  2       -2 0.144930390398D-03 0.100000000000D+01
-.195544079933D-06 0.000000000000D+00 -.136523495761D-07 0.311207680053D-07 0.000000000000D+00  7 2 -2 23 -13 13 23 21 2 0.26061578D-01 0.75801273D-01 0.69670957D+05 0.69670957D+05 0.69670957D+05 0.11348336D+01  1  2  3  2  7  2       -2 -.102664930967D-04 0.100000000000D+01
0.227536969334D-06 0.000000000000D+00 0.000000000000D+00 0.311207680053D-07 0.000000000000D+00  7 2 -2 23 -13 13 23 21 2 0.26061578D-01 0.75801273D-01 0.69670957D+05 0.69670957D+05 0.69670957D+05 0.11348336D+01  1  2 15  2  7  2       -2 0.119461899624D-04 0.100000000000D+01
-.118919078784D-04 0.000000000000D+00 -.174417645613D-05 0.311207680053D-07 0.000000000000D+00  7 2 -2 23 -13 13 23 21 2 0.26061578D-01 0.50646349D+00 0.69670957D+05 0.69670957D+05 0.69670957D+05 0.11348336D+01  1  2  5  2  7  2       -2 -.312312041714D-06 0.100000000000D+01
-.291322199979D-05 0.000000000000D+00 -.405524152193D-06 0.311207680053D-07 0.000000000000D+00  7 2 21 23 -13 13 23 2 2 0.26061578D-01 0.50646349D+00 0.69670957D+05 0.69670957D+05 0.69670957D+05 0.11348336D+01  1  2  5  4  7  2       -2 -.816945832225D-06 0.100000000000D+01
  </mgrwgt>
  </event>
  <event>
  8     66 0.55102590E-06 0.17022031E+03 0.75467711E-02 0.98784662E-01
        2 -1    0    0  501    0 0.00000000E+00 0.00000000E+00 0.71950251E+03 0.71950258E+03 0.32000000E+00 0.0000E+00 0.9000E+01
       -2 -1    0    0    0  501 0.00000000E+00 0.00000000E+00 -.16842795E+03 0.16842825E+03 0.32000000E+00 0.0000E+00 0.9000E+01
       25  2    1    2    0    0 -.31331342E+02 -.18997915E+03 0.57209303E+03 0.67376050E+03 0.29931430E+03 0.0000E+00 0.0000E+00
       23  2    1    2    0    0 0.31331342E+02 0.18997915E+03 -.21018467E+02 0.21417033E+03 0.91397072E+02 0.0000E+00 0.0000E+00
       23  1    3    3    0    0 0.80551239E+02 -.99087941E+02 0.40774781E+03 0.43689867E+03 0.91188000E+02 0.0000E+00 0.9000E+01
      -13  1    4    4    0    0 0.59861591E+02 0.82577523E+02 -.86882182E+01 0.10236188E+03 0.10565837E+00 0.0000E+00 0.9000E+01
       13  1    4    4    0    0 -.28530249E+02 0.10740163E+03 -.12330248E+02 0.11180846E+03 0.10565837E+00 0.0000E+00 0.9000E+01
       23  1    3    3    0    0 -.11188258E+03 -.90891211E+02 0.16434523E+03 0.23686183E+03 0.91188000E+02 0.0000E+00 0.9000E+01
#aMCatNLO 1  0  0  1  2 0.14881711D+03 0.00000000D+00  -5  7  0 0.00000000D+00 0.00000000D+00 0.00000000D+00 0.00000000D+00 0.00000000D+00
  <mgrwgt>
 0.1152990007D-03    9    2    0
 0.348115639715989D+03 0.000000000000000D+00 0.000000000000000D+00 0.348115639715989D+03
 0.348115639715989D+03 0.000000000000000D+00 0.000000000000000D+00 -.348115639715989D+03
 0.234457084236903D+03 0.805512385476154D+02 -.990879413417561D+02 0.174206632634835D+03
 0.137422881371387D+03 0.598617083753677D+02 0.825774902910439D+02 -.921009353482871D+02
 0.152353219934064D+03 -.285303664946825D+02 0.107401661881118D+03 -.104222861393891D+03
 0.171998093889623D+03 -.111882580428301D+03 -.908912108304060D+02 0.221171641073438D+02
 0.000000000000000D+00 -.000000000000000D+00 0.000000000000000D+00 0.000000000000000D+00
 0.493228315089966D+03 0.000000000000000D+00 0.000000000000000D+00 0.493228315089966D+03
 0.396319119941846D+03 0.000000000000000D+00 0.000000000000000D+00 -.396319119941846D+03
 0.265162770070464D+03 0.965929878079840D+02 -.149391723799547D+03 0.174206632634835D+03
 0.127598278758588D+03 0.683709839032404D+02 0.558940695443416D+02 -.921009353482871D+02
 0.132070338350538D+03 -.193981205152494D+02 0.787647278632453D+02 -.104222861393891D+03
 0.187126846661876D+03 -.100351829198531D+03 -.127049387349860D+03 0.221171641073438D+02
 0.177589201190347D+03 -.452140219974439D+02 0.141782313741820D+03 0.969091951481197D+02
0.187042481401D-05 0.000000000000D+00 0.000000000000D+00 0.149100219866D-06 0.000000000000D+00  7 2 -2 23 -13 13 23 21 0 0.11069272D+00 0.25912021D-01 0.73063082D+05 0.73063082D+05 0.73063082D+05 0.11330818D+01  1  2  2  1  7  1        2 0.118516774378D-03 0.100000000000D+01
-.958257254198D-07 0.000000000000D+00 -.718292377997D-08 0.149100219866D-06 0.000000000000D+00  7 2 -2 23 -13 13 23 21 2 0.11069272D+00 0.25912021D-01 0.73063082D+05 0.73063082D+05 0.73063082D+05 0.11330818D+01  1  2  3  1  7  1        2 -.779550454772D-05 0.100000000000D+01
0.120037727663D-06 0.000000000000D+00 0.000000000000D+00 0.149100219866D-06 0.000000000000D+00  7 2 -2 23 -13 13 23 21 2 0.11069272D+00 0.25912021D-01 0.73063082D+05 0.73063082D+05 0.73063082D+05 0.11330818D+01  1  2 15  1  7  1        2 0.976517159455D-05 0.100000000000D+01
0.710560706359D-06 0.000000000000D+00 0.000000000000D+00 0.149100219866D-06 0.000000000000D+00  7 2 -2 23 -13 13 23 21 2 0.16197514D+00 0.25912021D-01 0.12389321D+06 0.12389321D+06 0.12389321D+06 0.11141655D+01  1  2 12  1  7  1        2 0.336841611615D-04 0.100000000000D+01
-.137537017937D-05 0.000000000000D+00 0.000000000000D+00 0.149100219866D-06 0.000000000000D+00  7 2 -2 23 -13 13 23 21 2 0.11069272D+00 0.25912021D-01 0.73063082D+05 0.73063082D+05 0.73063082D+05 0.11330818D+01  1  2  4  1  7  1        2 -.111887537935D-03 0.100000000000D+01
-.162739813621D-05 0.000000000000D+00 -.720301394371D-06 0.149100219866D-06 0.000000000000D+00  7 2 -2 23 -13 13 23 21 2 0.17000225D+00 0.25912021D-01 0.73063082D+05 0.73063082D+05 0.73063082D+05 0.11330818D+01  1  2  5  1  7  1        2 -.750680514369D-04 0.100000000000D+01
0.182723316014D-05 0.000000000000D+00 0.658733410362D-06 0.149100219866D-06 0.000000000000D+00  7 2 -2 23 -13 13 23 21 2 0.11069272D+00 0.25912021D-01 0.73063082D+05 0.73063082D+05 0.73063082D+05 0.11330818D+01  1  2  6  1  7  1        2 0.148646977075D-03 0.100000000000D+01
0.326213232697D-07 0.000000000000D+00 0.000000000000D+00 0.149100219866D-06 0.000000000000D+00  7 21 -2 23 -13 13 23 -2 2 0.16197514D+00 0.25912021D-01 0.12389321D+06 0.12389321D+06 0.12389321D+06 0.11141655D+01  1  2 12  3  7  1        2 0.103250681676D-05 0.100000000000D+01
-.546094285962D-07 0.000000000000D+00 -.361120774137D-07 0.149100219866D-06 0.000000000000D+00  7 21 -2 23 -13 13 23 -2 2 0.17000225D+00 0.25912021D-01 0.73063082D+05 0.73063082D+05 0.73063082D+05 0.11330818D+01  1  2  5  3  7  1        2 -.159549639796D-05 0.100000000000D+01
  </mgrwgt>
  </event>
  <event>
  8     66 0.55102590E-06 0.23871949E+03 0.75467711E-02 0.96682583E-01
        2 -1    0    0  501    0 0.00000000E+00 0.00000000E+00 0.17830921E+04 0.17830921E+04 0.32000000E+00 0.0000E+00 0.9000E+01
       -2 -1    0    0    0  501 0.00000000E+00 0.00000000E+00 -.10674847E+03 0.10674895E+03 0.32000000E+00 0.0000E+00 0.9000E+01
       25  2    1    2    0    0 -.30218077E+03 0.14924351E+03 0.55351187E+03 0.71413840E+03 0.30005236E+03 0.0000E+00 0.0000E+00
       23  2    1    2    0    0 0.30218077E+03 -.14924351E+03 0.11228318E+04 0.11757027E+04 0.89099918E+02 0.0000E+00 0.0000E+00
       23  1    3    3    0    0 -.27161992E+03 0.94924047E+02 0.51543302E+03 0.59730596E+03 0.91188000E+02 0.0000E+00 0.9000E+01
      -11  1    4    4    0    0 0.27356322E+03 -.15218855E+03 0.10771444E+04 0.11217122E+04 0.51099893E-03 0.0000E+00 0.9000E+01
       11  1    4    4    0    0 0.28617551E+02 0.29450407E+01 0.45687321E+02 0.53990451E+02 0.51099893E-03 0.0000E+00 0.9000E+01
       23  1    3    3    0    0 -.30560844E+02 0.54319466E+02 0.38078854E+02 0.11683244E+03 0.91188000E+02 0.0000E+00 0.9000E+01
#aMCatNLO 1  0  0  1  2 0.77767086D+02 0.00000000D+00  -5  7  0 0.00000000D+00 0.00000000D+00 0.00000000D+00 0.00000000D+00 0.00000000D+00
  <mgrwgt>
 0.3588318805D-03    9    2    0
 0.436282978481085D+03 0.000000000000000D+00 0.000000000000000D+00 0.436282978481085D+03
 0.436282978481085D+03 0.000000000000000D+00 0.000000000000000D+00 -.436282978481085D+03
 0.303438927692941D+03 -.271619924493720D+03 0.949240473833557D+02 -.311764870027046D+02
 0.360080102867284D+03 0.273563217729463D+03 -.152188554521119D+03 0.177931139093720D+03
 0.291619478297592D+02 0.286175512439033D+02 0.294504067772358D+01 -.477301764450144D+01
 0.179884978572187D+03 -.305608444796453D+02 0.543194664600399D+02 -.141981634446514D+03
 0.000000000000000D+00 -.000000000000000D+00 -.000000000000000D+00 0.000000000000000D+00
 0.534820803049467D+03 0.000000000000000D+00 0.000000000000000D+00 0.534820803049467D+03
 0.453630028510326D+03 0.000000000000000D+00 0.000000000000000D+00 -.453630028510326D+03
 0.305508291933617D+03 -.263554316489822D+03 0.120777539360384D+03 -.311764870027046D+02
 0.355820250679700D+03 0.283045437921064D+03 -.121794255228433D+03 0.177931139093720D+03
 0.302876943743157D+02 0.294049717206470D+02 0.546903750080267D+01 -.477301764450144D+01
 0.184408345366887D+03 -.257357183363127D+02 0.697859210626568D+02 -.141981634446514D+03
 0.112426249205274D+03 -.231603748155764D+02 -.742382426954111D+02 0.811907745391414D+02
0.737478634471D-05 0.000000000000D+00 0.000000000000D+00 0.331050583553D-06 0.000000000000D+00  7 2 -2 23 -11 11 23 21 0 0.27432190D+00 0.16422881D-01 0.14216715D+06 0.14216715D+06 0.14216715D+06 0.11093947D+01  1  2  2  1  7  1        2 0.236531425149D-03 0.100000000000D+01
-.399104672677D-06 0.000000000000D+00 -.283211213895D-07 0.331050583553D-06 0.000000000000D+00  7 2 -2 23 -11 11 23 21 2 0.27432190D+00 0.16422881D-01 0.14216715D+06 0.14216715D+06 0.14216715D+06 0.11093947D+01  1  2  3  1  7  1        2 -.157542729908D-04 0.100000000000D+01
0.471995118735D-06 0.000000000000D+00 0.000000000000D+00 0.331050583553D-06 0.000000000000D+00  7 2 -2 23 -11 11 23 21 2 0.27432190D+00 0.16422881D-01 0.14216715D+06 0.14216715D+06 0.14216715D+06 0.11093947D+01  1  2 15  1  7  1        2 0.186315532239D-04 0.100000000000D+01
0.126877521737D-04 0.000000000000D+00 0.000000000000D+00 0.331050583553D-06 0.000000000000D+00  7 2 -2 23 -11 11 23 21 2 0.34086643D+00 0.16422881D-01 0.17531095D+06 0.17531095D+06 0.17531095D+06 0.11022473D+01  1  2 12  1  7  1        2 0.285787581117D-03 0.100000000000D+01
-.130083250430D-04 0.000000000000D+00 0.000000000000D+00 0.331050583553D-06 0.000000000000D+00  7 2 -2 23 -11 11 23 21 2 0.27432190D+00 0.16422881D-01 0.14216715D+06 0.14216715D+06 0.14216715D+06 0.11093947D+01  1  2  4  1  7  1        2 -.513491116270D-03 0.100000000000D+01
-.200144656381D-04 0.000000000000D+00 -.387276721056D-05 0.331050583553D-06 0.000000000000D+00  7 2 -2 23 -11 11 23 21 2 0.34096589D+00 0.16422881D-01 0.14216715D+06 0.14216715D+06 0.14216715D+06 0.11093947D+01  1  2  5  1  7  1        2 -.459846475076D-03 0.100000000000D+01
0.204607486241D-04 0.000000000000D+00 0.378295168975D-05 0.331050583553D-06 0.000000000000D+00  7 2 -2 23 -11 11 23 21 2 0.27432190D+00 0.16422881D-01 0.14216715D+06 0.14216715D+06 0.14216715D+06 0.11093947D+01  1  2  6  1  7  1        2 0.807668367446D-03 0.100000000000D+01
0.386597390262D-06 0.000000000000D+00 0.000000000000D+00 0.331050583553D-06 0.000000000000D+00  7 21 -2 23 -11 11 23 -2 2 0.34086643D+00 0.16422881D-01 0.17531095D+06 0.17531095D+06 0.17531095D+06 0.11022473D+01  1  2 12  3  7  1        2 0.141460259995D-05 0.100000000000D+01
-.559005973868D-06 0.000000000000D+00 -.118123400955D-06 0.331050583553D-06 0.000000000000D+00  7 21 -2 23 -11 11 23 -2 2 0.34096589D+00 0.16422881D-01 0.14216715D+06 0.14216715D+06 0.14216715D+06 0.11093947D+01  1  2  5  3  7  1        2 -.210978467265D-05 0.100000000000D+01
  </mgrwgt>
  </event>
  <event>
  8     66 0.55102590E-06 0.25826557E+03 0.75467711E-02 0.91523530E-01
        2 -1    0    0  501    0 0.00000000E+00 0.00000000E+00 0.20237726E+04 0.20237726E+04 0.32000000E+00 0.0000E+00 0.9000E+01
       -2 -1    0    0    0  501 0.00000000E+00 0.00000000E+00 -.36685560E+02 0.36686955E+02 0.32000000E+00 0.0000E+00 0.9000E+01
       25  2    1    2    0    0 -.16896213E+02 0.16997651E+03 0.13651636E+04 0.14083241E+04 0.30087807E+03 0.0000E+00 0.0000E+00
       23  2    1    2    0    0 0.16896213E+02 -.16997651E+03 0.62192348E+03 0.65213553E+03 0.96511294E+02 0.0000E+00 0.0000E+00
       23  1    3    3    0    0 -.10092915E+03 0.16665484E+03 0.72450759E+03 0.75576916E+03 0.91188000E+02 0.0000E+00 0.9000E+01
      -13  1    4    4    0    0 -.12007871E+02 -.11140470E+03 0.24255668E+03 0.26718710E+03 0.10565837E+00 0.0000E+00 0.9000E+01
       13  1    4    4    0    0 0.28904084E+02 -.58571810E+02 0.37936681E+03 0.38494842E+03 0.10565837E+00 0.0000E+00 0.9000E+01
       23  1    3    3    0    0 0.84032940E+02 0.33216716E+01 0.64065598E+03 0.65255490E+03 0.91188000E+02 0.0000E+00 0.9000E+01
#aMCatNLO 1  0  0  2  2 0.55998712D+03 0.00000000D+00  -5  7  0 0.00000000D+00 0.00000000D+00 0.00000000D+00 0.00000000D+00 0.00000000D+00
  <mgrwgt>
 0.3952788477D-03    3    2    0
 0.272478797491755D+03 0.000000000000000D+00 0.000000000000000D+00 0.272478797491755D+03
 0.272478797491755D+03 0.000000000000000D+00 0.000000000000000D+00 -.272478797491755D+03
 0.215745546258793D+03 -.100929150358139D+03 0.166654846794105D+03 -.164425677594051D+02
 0.125784159989304D+03 -.120079068411309D+02 -.111404772733091D+03 -.571527924934379D+02
 0.721813275461354D+02 0.289041219342545D+02 -.585717571593549D+02 0.307253160243763D+02
 0.131246561189278D+03 0.840329352650158D+02 0.332168309834100D+01 0.428700442284667D+02
 0.000000000000000D+00 -.000000000000000D+00 0.000000000000000D+00 0.000000000000000D+00
 0.860539008067073D+03 0.000000000000000D+00 0.000000000000000D+00 0.860539008067073D+03
 0.557548628266265D+03 0.000000000000000D+00 0.000000000000000D+00 -.557548628266265D+03
 0.124166575031848D+03 -.788287805068944D+02 0.248546241253572D+02 -.164425677594051D+02
 0.291566829123941D+03 0.151273750139667D+02 -.285509958987034D+03 -.571527924934379D+02
 0.167540095990428D+03 0.444903037429787D+02 -.158575696727278D+03 0.307253160243763D+02
 0.198112677131940D+03 0.105447178903004D+03 -.134076221850227D+03 0.428700442284667D+02
 0.636701459055182D+03 -.862360771530552D+02 0.553307253439182D+03 0.302990379800808D+03
0.310412431495D-05 0.000000000000D+00 0.000000000000D+00 0.579935325270D-08 0.000000000000D+00  7 2 -2 23 -13 13 23 21 0 0.31134974D+00 0.56440416D-02 0.66701106D+05 0.66701106D+05 0.66701106D+05 0.11364462D+01  1  2  2  2  7  2       -2 0.390551960770D-03 0.100000000000D+01
-.171849581174D-06 0.000000000000D+00 -.119206547041D-07 0.579935325270D-08 0.000000000000D+00  7 2 -2 23 -13 13 23 21 2 0.31134974D+00 0.56440416D-02 0.66701106D+05 0.66701106D+05 0.66701106D+05 0.11364462D+01  1  2  3  2  7  2       -2 -.279245342220D-04 0.100000000000D+01
0.200939181699D-06 0.000000000000D+00 0.000000000000D+00 0.579935325270D-08 0.000000000000D+00  7 2 -2 23 -13 13 23 21 2 0.31134974D+00 0.56440416D-02 0.66701106D+05 0.66701106D+05 0.66701106D+05 0.11364462D+01  1  2 15  2  7  2       -2 0.326514211878D-04 0.100000000000D+01
  </mgrwgt>
  </event>
  <event>
  8     66 0.55102590E-06 0.31861630E+03 0.75467711E-02 0.98412908E-01
        2 -1    0    0  501    0 0.00000000E+00 0.00000000E+00 0.25330298E+04 0.25330298E+04 0.32000000E+00 0.0000E+00 0.9000E+01
       -2 -1    0    0    0  501 0.00000000E+00 0.00000000E+00 -.68460426E+02 0.68461174E+02 0.32000000E+00 0.0000E+00 0.9000E+01
       25  2    1    2    0    0 -.28400211E+03 -.14419792E+03 0.88170194E+03 0.98436607E+03 0.30021327E+03 0.0000E+00 0.0000E+00
       23  2    1    2    0    0 0.28400211E+03 0.14419792E+03 0.15828675E+04 0.16171250E+04 0.90407262E+02 0.0000E+00 0.0000E+00
       23  1    3    3    0    0 -.68290977E+02 -.99920522E+02 0.14371928E+03 0.20884983E+03 0.91188000E+02 0.0000E+00 0.9000E+01
      -13  1    4    4    0    0 0.29999261E+02 0.21047579E+02 0.37146533E+03 0.37326861E+03 0.10565837E+00 0.0000E+00 0.9000E+01
       13  1    4    4    0    0 0.25400285E+03 0.12315034E+03 0.12114021E+04 0.12438563E+04 0.10565837E+00 0.0000E+00 0.9000E+01
       23  1    3    3    0    0 -.21571113E+03 -.44277402E+02 0.73798266E+03 0.77551624E+03 0.91188000E+02 0.0000E+00 0.9000E+01
#aMCatNLO 1  0  0  2  1 0.16058533D+02 0.00000000D+00  -5  7  0 0.00000000D+00 0.00000000D+00 0.00000000D+00 0.00000000D+00 0.00000000D+00
  <mgrwgt>
 0.1598685924D-03    9    2    0
 0.416429225480443D+03 0.000000000000000D+00 0.000000000000000D+00 0.416429225480443D+03
 0.416429225480443D+03 0.000000000000000D+00 0.000000000000000D+00 -.416429225480443D+03
 0.227067172024714D+03 -.682909765952105D+02 -.999205219117988D+02 -.169104941039129D+03
 0.667011274283997D+02 0.299989551683801D+02 0.210474395364218D+02 0.557324714864306D+02
 0.300527340353125D+03 0.254003154289141D+03 0.123150484214390D+03 0.103116624016939D+03
 0.238562811154648D+03 -.215711132862311D+03 -.442774018390128D+02 0.102558455357586D+02
 0.000000000000000D+00 -.000000000000000D+00 0.000000000000000D+00 -.000000000000000D+00
 0.419812112634130D+03 0.000000000000000D+00 0.000000000000000D+00 0.419812112634130D+03
 0.436010290310314D+03 0.000000000000000D+00 0.000000000000000D+00 -.436010290310314D+03
 0.228980015866006D+03 -.681096495989208D+02 -.104312946797899D+03 -.169104941039129D+03
 0.663319075080333D+02 0.300518498715443D+02 0.197661299946815D+02 0.557324714864306D+02
 0.298412731362942D+03 0.254241296321469D+03 0.117381784513694D+03 0.103116624016939D+03
 0.239288595940390D+03 -.215521136382512D+03 -.488798343681771D+02 0.102558455357586D+02
 0.228091522670726D+02 -.662360211580815D+00 0.160448666577001D+02 -.161981776761845D+02
0.778935124935D-05 0.000000000000D+00 0.000000000000D+00 0.781820674641D-06 0.000000000000D+00  7 2 -2 23 -13 13 23 21 0 0.38969696D+00 0.10532432D-01 0.12560175D+06 0.12560175D+06 0.12560175D+06 0.11136877D+01  1  2  2  2  7  2       -2 0.196077364057D-03 0.100000000000D+01
-.419055768519D-06 0.000000000000D+00 -.299131597808D-07 0.781820674641D-06 0.000000000000D+00  7 2 -2 23 -13 13 23 21 2 0.38969696D+00 0.10532432D-01 0.12560175D+06 0.12560175D+06 0.12560175D+06 0.11136877D+01  1  2  3  2  7  2       -2 -.130835273872D-04 0.100000000000D+01
0.500807426323D-06 0.000000000000D+00 0.000000000000D+00 0.781820674641D-06 0.000000000000D+00  7 2 -2 23 -13 13 23 21 2 0.38969696D+00 0.10532432D-01 0.12560175D+06 0.12560175D+06 0.12560175D+06 0.11136877D+01  1  2 15  2  7  2       -2 0.156359324230D-04 0.100000000000D+01
0.376666644117D-04 0.000000000000D+00 0.000000000000D+00 0.781820674641D-06 0.000000000000D+00  7 2 -2 23 -13 13 23 21 2 0.38969696D+00 0.11069227D-01 0.13159282D+06 0.13159282D+06 0.13159282D+06 0.11120670D+01  1  2 12  2  7  2       -2 0.108338691272D-02 0.100000000000D+01
-.382798381862D-04 0.000000000000D+00 0.000000000000D+00 0.781820674641D-06 0.000000000000D+00  7 2 -2 23 -13 13 23 21 2 0.38969696D+00 0.10532432D-01 0.12560175D+06 0.12560175D+06 0.12560175D+06 0.11136877D+01  1  2  4  2  7  2       -2 -.119515193182D-02 0.100000000000D+01
-.154075652197D-03 0.000000000000D+00 -.189852808972D-04 0.781820674641D-06 0.000000000000D+00  7 2 -2 23 -13 13 23 21 2 0.38969696D+00 0.11130524D-01 0.12560175D+06 0.12560175D+06 0.12560175D+06 0.11136877D+01  1  2  5  2  7  2       -2 -.441389998319D-02 0.100000000000D+01
0.154916815833D-03 0.000000000000D+00 0.189563596561D-04 0.781820674641D-06 0.000000000000D+00  7 2 -2 23 -13 13 23 21 2 0.38969696D+00 0.10532432D-01 0.12560175D+06 0.12560175D+06 0.12560175D+06 0.11136877D+01  1  2  6  2  7  2       -2 0.483672712551D-02 0.100000000000D+01
0.591195266585D-06 0.000000000000D+00 0.000000000000D+00 0.781820674641D-06 0.000000000000D+00  7 2 21 23 -13 13 23 2 2 0.38969696D+00 0.11069227D-01 0.13159282D+06 0.13159282D+06 0.13159282D+06 0.11120670D+01  1  2 12  4  7  2       -2 0.242134986075D-03 0.100000000000D+01
-.145117179061D-05 0.000000000000D+00 -.181309247237D-06 0.781820674641D-06 0.000000000000D+00  7 2 21 23 -13 13 23 2 2 0.38969696D+00 0.11130524D-01 0.12560175D+06 0.12560175D+06 0.12560175D+06 0.11136877D+01  1  2  5  4  7  2       -2 -.591958285952D-03 0.100000000000D+01
  </mgrwgt>
  </event>
  <event>
  8     66 0.55102590E-06 0.65731695E+03 0.75467711E-02 0.88153539E-01
        2 -1    0    0  501    0 0.00000000E+00 0.00000000E+00 0.32234595E+04 0.32234595E+04 0.32000000E+00 0.0000E+00 0.9000E+01
       -2 -1    0    0    0  501 0.00000000E+00 0.00000000E+00 -.56770521E+03 0.56770530E+03 0.32000000E+00 0.0000E+00 0.9000E+01
       25  2    1    2    0    0 -.59311112E+03 0.22265424E+03 0.29886236E+04 0.30697605E+04 0.30033756E+03 0.0000E+00 0.0000E+00
       23  2    1    2    0    0 0.59311112E+03 -.22265424E+03 -.33286930E+03 0.72140436E+03 0.90920697E+02 0.0000E+00 0.0000E+00
       23  1    3    3    0    0 -.17926707E+03 0.14622807E+03 0.14856906E+04 0.15063569E+04 0.91188000E+02 0.0000E+00 0.9000E+01
      -11  1    4    4    0    0 0.15872183E+02 -.15195026E+02 0.28443103E+01 0.22156379E+02 0.51099893E-03 0.0000E+00 0.9000E+01
       11  1    4    4    0    0 0.57723893E+03 -.20745922E+03 -.33571361E+03 0.69924798E+03 0.51099893E-03 0.0000E+00 0.9000E+01
       23  1    3    3    0    0 -.41384405E+03 0.76426175E+02 0.15029330E+04 0.15634036E+04 0.91188000E+02 0.0000E+00 0.9000E+01
#aMCatNLO 1  0  0  1  2 0.50315164D+03 0.00000000D+00  -5  7  0 0.00000000D+00 0.00000000D+00 0.00000000D+00 0.00000000D+00 0.00000000D+00
  <mgrwgt>
 0.2716213419D-03    4    2    0
 0.135276567915234D+04 0.000000000000000D+00 0.000000000000000D+00 0.135276567915234D+04
 0.135276567915234D+04 0.000000000000000D+00 0.000000000000000D+00 -.135276567915234D+04
 0.652447868078603D+03 -.179267066901053D+03 0.146228066455461D+03 0.603202818728249D+03
 0.282549656884306D+02 0.158721833343119D+02 -.151950262846454D+02 -.177631094818813D+02
 0.130936838690141D+04 0.577238933172349D+03 -.207459215302341D+03 -.115680657874728D+04
 0.715460137636244D+03 -.413844049605608D+03 0.764261751315245D+02 0.571366869500909D+03
 0.000000000000000D+00 0.000000000000000D+00 0.000000000000000D+00 -.000000000000000D+00
 0.147820151200092D+04 0.000000000000000D+00 0.000000000000000D+00 0.147820151200092D+04
 0.199498693984247D+04 0.000000000000000D+00 0.000000000000000D+00 -.199498693984247D+04
 0.692829358416107D+03 -.302069367895903D+03 0.128832158239074D+03 0.603202818728249D+03
 0.262131674998225D+02 0.109001136711392D+02 -.158993589136379D+02 -.177631094818813D+02
 0.123094095504569D+04 0.345349307535367D+03 -.240308197864015D+03 -.115680657874728D+04
 0.801936122510115D+03 -.552358066342876D+03 0.568045792630099D+02 0.571366869500909D+03
 0.721268848371665D+03 0.498178013032273D+03 0.705708192755691D+02 -.516785427841555D+03
0.162402766632D-02 0.000000000000D+00 0.000000000000D+00 0.158890048751D-04 0.000000000000D+00  7 2 -2 23 -11 11 23 21 0 0.49591686D+00 0.87339272D-01 0.43206557D+06 0.43206557D+06 0.43206557D+06 0.10730217D+01  1  2  2  1  7  1        2 0.294654819695D-03 0.100000000000D+01
-.330806194149D-04 0.000000000000D+00 -.623669385498D-05 0.158890048751D-04 0.000000000000D+00  7 2 -2 23 -11 11 23 21 2 0.49591686D+00 0.87339272D-01 0.43206557D+06 0.43206557D+06 0.43206557D+06 0.10730217D+01  1  2  3  1  7  1        2 -.691052034328D-05 0.100000000000D+01
0.982486330472D-04 0.000000000000D+00 0.000000000000D+00 0.158890048751D-04 0.000000000000D+00  7 2 -2 23 -11 11 23 21 2 0.49591686D+00 0.87339272D-01 0.43206557D+06 0.43206557D+06 0.43206557D+06 0.10730217D+01  1  2 15  1  7  1        2 0.205240769181D-04 0.100000000000D+01
-.175429133653D-03 0.000000000000D+00 0.000000000000D+00 0.158890048751D-04 0.000000000000D+00  7 2 -2 23 -11 11 23 21 2 0.49591686D+00 0.87339272D-01 0.43206557D+06 0.43206557D+06 0.43206557D+06 0.10730217D+01  1  2  4  1  7  1        2 -.366470343769D-04 0.100000000000D+01
  </mgrwgt>
  </event>
  <event>
  8     66 0.55102590E-06 0.41230913E+03 0.75467711E-02 0.94808222E-01
        2 -1    0    0  501    0 0.00000000E+00 0.00000000E+00 0.16002723E+04 0.16002723E+04 0.32000000E+00 0.0000E+00 0.9000E+01
       -2 -1    0    0    0  501 0.00000000E+00 0.00000000E+00 -.21799403E+03 0.21799427E+03 0.32000000E+00 0.0000E+00 0.9000E+01
       25  2    1    2    0    0 -.30146773E+03 -.23347137E+03 0.12406195E+03 0.50069844E+03 0.29985979E+03 0.0000E+00 0.0000E+00
       23  2    1    2    0    0 0.30146773E+03 0.23347137E+03 0.12582163E+04 0.13175682E+04 0.86520911E+02 0.0000E+00 0.0000E+00
       23  1    3    3    0    0 -.14707196E+03 -.18217225E+03 -.37376702E+02 0.25402590E+03 0.91188000E+02 0.0000E+00 0.9000E+01
      -13  1    4    4    0    0 0.79425508E+02 0.27687961E+02 0.20175203E+03 0.21858391E+03 0.10565837E+00 0.0000E+00 0.9000E+01
       13  1    4    4    0    0 0.22204222E+03 0.20578341E+03 0.10564643E+04 0.10989843E+04 0.10565837E+00 0.0000E+00 0.9000E+01
       23  1    3    3    0    0 -.15439577E+03 -.51299119E+02 0.16143865E+03 0.24667254E+03 0.91188000E+02 0.0000E+00 0.9000E+01
#aMCatNLO 1  0  0  1  2 0.14634445D+03 0.00000000D+00  -5  7  0 0.00000000D+00 0.00000000D+00 0.00000000D+00 0.00000000D+00 0.00000000D+00
  <mgrwgt>
 0.3969327395D-03    3    2    0
 0.590635295944894D+03 0.000000000000000D+00 0.000000000000000D+00 0.590635295944894D+03
 0.590635295944894D+03 0.000000000000000D+00 0.000000000000000D+00 -.590635295944894D+03
 0.434745283641792D+03 -.147071959998830D+03 -.182172249345424D+03 -.354783483909995D+03
 0.100371377171905D+03 0.794252957733590D+02 0.276876956129519D+02 0.547670271088703D+02
 0.455373511384415D+03 0.222042429815952D+03 0.205783672365319D+03 0.340169478965769D+03
 0.190780419691676D+03 -.154395765590481D+03 -.512991186328474D+02 -.401530221646441D+02
 0.000000000000000D+00 -.000000000000000D+00 0.000000000000000D+00 -.000000000000000D+00
 0.600804965339695D+03 0.000000000000000D+00 0.000000000000000D+00 0.600804965339695D+03
 0.154205906148309D+04 0.000000000000000D+00 0.000000000000000D+00 -.154205906148309D+04
 0.460585843701305D+03 -.146915112046526D+03 -.237420928881777D+03 -.354783483909995D+03
 0.977364914763501D+02 0.794600011606551D+02 0.154629467861604D+02 0.547670271088703D+02
 0.433438965945285D+03 0.222198135803148D+03 0.150937242672182D+03 0.340169478965769D+03
 0.198539882562470D+03 -.154327562787815D+03 -.753231159667332D+02 -.401530221646441D+02
 0.952562843137375D+03 -.415462129462297D+00 0.146343855390168D+03 -.941254096143395D+03
0.328110979727D-04 0.000000000000D+00 0.000000000000D+00 0.193924281675D-06 0.000000000000D+00  7 2 -2 23 -13 13 23 21 0 0.24619576D+00 0.33537564D-01 0.16999882D+06 0.16999882D+06 0.16999882D+06 0.11032879D+01  1  2  2  1  7  1        2 0.389105132968D-03 0.100000000000D+01
-.153652177122D-05 0.000000000000D+00 -.126003255576D-06 0.193924281675D-06 0.000000000000D+00  7 2 -2 23 -13 13 23 21 2 0.24619576D+00 0.33537564D-01 0.16999882D+06 0.16999882D+06 0.16999882D+06 0.11032879D+01  1  2  3  1  7  1        2 -.221800562432D-04 0.100000000000D+01
0.207877864281D-05 0.000000000000D+00 0.000000000000D+00 0.193924281675D-06 0.000000000000D+00  7 2 -2 23 -13 13 23 21 2 0.24619576D+00 0.33537564D-01 0.16999882D+06 0.16999882D+06 0.16999882D+06 0.11032879D+01  1  2 15  1  7  1        2 0.300076628123D-04 0.100000000000D+01
  </mgrwgt>
  </event>
  <event>
  8     66 0.55102590E-06 0.14743620E+03 0.75467711E-02 0.10021823E+00
        2 -1    0    0  501    0 0.00000000E+00 0.00000000E+00 0.29368836E+04 0.29368836E+04 0.32000000E+00 0.0000E+00 0.9000E+01
       -2 -1    0    0    0  501 0.00000000E+00 0.00000000E+00 -.22743153E+02 0.22745404E+02 0.32000000E+00 0.0000E+00 0.9000E+01
       25  2    1    2    0    0 -.73309951E+01 -.30233855E+02 0.98807838E+03 0.10311623E+04 0.29330697E+03 0.0000E+00 0.0000E+00
       23  2    1    2    0    0 0.73309951E+01 0.30233855E+02 0.19260620E+04 0.19284667E+04 0.91109703E+02 0.0000E+00 0.0000E+00
       23  1    3    3    0    0 -.35306322E+02 0.21128119E+02 0.84898504E+03 0.85485892E+03 0.91188000E+02 0.0000E+00 0.9000E+01
      -13  1    4    4    0    0 0.17212585E+02 -.25019635E+02 0.32359527E+03 0.32501718E+03 0.10565837E+00 0.0000E+00 0.9000E+01
       13  1    4    4    0    0 -.98815900E+01 0.55253490E+02 0.16024668E+04 0.16034495E+04 0.10565837E+00 0.0000E+00 0.9000E+01
       23  1    3    3    0    0 0.27975327E+02 -.51361975E+02 0.13909334E+03 0.17630337E+03 0.91188000E+02 0.0000E+00 0.9000E+01
#aMCatNLO 1  0  0  1  1 0.23990960D+03 0.00000000D+00  -5  7  0 0.00000000D+00 0.00000000D+00 0.00000000D+00 0.00000000D+00 0.00000000D+00
  <mgrwgt>
 0.4797619106D-03    6    2    0
 0.258451832140411D+03 0.000000000000000D+00 0.000000000000000D+00 0.258451832140411D+03
 0.258451832140411D+03 0.000000000000000D+00 0.000000000000000D+00 -.258451832140411D+03
 0.108344448144069D+03 -.353063216366729D+02 0.211281189231254D+02 0.415972876868304D+02
 0.366182868281018D+02 0.172126203255449D+02 -.250197403576590D+02 0.204606261924972D+02
 0.146647389232498D+03 -.988162512666348D+01 0.552535963455745D+02 0.135480073606579D+03
 0.225293540076154D+03 0.279753264377915D+02 -.513619749110408D+02 -.197537987485907D+03
 0.000000000000000D+00 -.000000000000000D+00 -.000000000000000D+00 0.000000000000000D+00
 0.435887068854482D+03 0.000000000000000D+00 0.000000000000000D+00 0.435887068854482D+03
 0.380253511669611D+03 0.000000000000000D+00 0.000000000000000D+00 -.380253511669611D+03
 0.117378873342952D+03 -.524231767909228D+01 0.608665123504820D+02 0.415972876868304D+02
 0.359294152924276D+02 0.268752213775606D+02 -.122477808183252D+02 0.204606261924972D+02
 0.179356917012908D+03 0.335387653256086D+02 0.112646369477071D+03 0.135480073606579D+03
 0.237199701720231D+03 0.895746266789955D+02 0.300595560097467D+02 -.197537987485907D+03
 0.246275673155575D+03 -.144746295703072D+03 -.191324657018974D+03 0.556335571848709D+02
0.466444036384D-05 0.000000000000D+00 0.000000000000D+00 0.274844114274D-08 0.000000000000D+00  7 2 -2 23 -13 13 23 21 0 0.45182842D+00 0.34991211D-02 0.21737434D+05 0.21737434D+05 0.21737434D+05 0.11805442D+01  1  2  2  1  7  1        2 0.372088357159D-03 0.100000000000D+01
-.159865135083D-06 0.000000000000D+00 -.179126791725D-07 0.274844114274D-08 0.000000000000D+00  7 2 -2 23 -13 13 23 21 2 0.45182842D+00 0.34991211D-02 0.21737434D+05 0.21737434D+05 0.21737434D+05 0.11805442D+01  1  2  3  1  7  1        2 -.177731663437D-04 0.100000000000D+01
0.287515931991D-06 0.000000000000D+00 0.000000000000D+00 0.274844114274D-08 0.000000000000D+00  7 2 -2 23 -13 13 23 21 2 0.45182842D+00 0.34991211D-02 0.21737434D+05 0.21737434D+05 0.21737434D+05 0.11805442D+01  1  2 15  1  7  1        2 0.319648714090D-04 0.100000000000D+01
-.308111786182D-06 0.000000000000D+00 -.948021706270D-06 0.274844114274D-08 0.000000000000D+00  7 2 -2 23 -13 13 23 21 2 0.79978186D+00 0.34991211D-02 0.21737434D+05 0.21737434D+05 0.21737434D+05 0.11805442D+01  1  2  5  1  7  1        2 -.360940149118D-06 0.100000000000D+01
0.844090347474D-06 0.000000000000D+00 0.811995973688D-06 0.274844114274D-08 0.000000000000D+00  7 2 -2 23 -13 13 23 21 2 0.45182842D+00 0.34991211D-02 0.21737434D+05 0.21737434D+05 0.21737434D+05 0.11805442D+01  1  2  6  1  7  1        2 0.938425889229D-04 0.100000000000D+01
0.297069358442D-07 0.000000000000D+00 -.596125343305D-07 0.274844114274D-08 0.000000000000D+00  7 21 -2 23 -13 13 23 -2 2 0.79978186D+00 0.34991211D-02 0.21737434D+05 0.21737434D+05 0.21737434D+05 0.11805442D+01  1  2  5  3  7  1        2 0.199615583062D-09 0.100000000000D+01
  </mgrwgt>
  </event>
  <event>
  8     66 0.55102590E-06 0.28475100E+03 0.75467711E-02 0.95364347E-01
        2 -1    0    0  501    0 0.00000000E+00 0.00000000E+00 0.25418319E+04 0.25418320E+04 0.32000000E+00 0.0000E+00 0.9000E+01
       -2 -1    0    0    0  501 0.00000000E+00 0.00000000E+00 -.37950083E+02 0.37951432E+02 0.32000000E+00 0.0000E+00 0.9000E+01
       25  2    1    2    0    0 -.12599250E+03 0.17485153E+03 0.18224704E+04 0.18595341E+04 0.30003615E+03 0.0000E+00 0.0000E+00
       23  2    1    2    0    0 0.12599250E+03 -.17485153E+03 0.68141150E+03 0.72024929E+03 0.89388165E+02 0.0000E+00 0.0000E+00
       23  1    3    3    0    0 -.72319402E+02 0.21156474E+03 0.14699306E+04 0.14896311E+04 0.91188000E+02 0.0000E+00 0.9000E+01
      -11  1    4    4    0    0 0.72411726E+02 -.11294672E+03 0.54396244E+03 0.56026383E+03 0.51099893E-03 0.0000E+00 0.9000E+01
       11  1    4    4    0    0 0.53580778E+02 -.61904812E+02 0.13744906E+03 0.15998546E+03 0.51099893E-03 0.0000E+00 0.9000E+01
       23  1    3    3    0    0 -.53673102E+02 -.36713209E+02 0.35253978E+03 0.36990298E+03 0.91188000E+02 0.0000E+00 0.9000E+01
#aMCatNLO 1  0  0  2  1 0.29783301D+03 0.00000000D+00  -5  7  0 0.00000000D+00 0.00000000D+00 0.00000000D+00 0.00000000D+00 0.00000000D+00
  <mgrwgt>
 0.2240825064D-03    5    2    0
 0.310587346064257D+03 0.000000000000000D+00 0.000000000000000D+00 0.310587346064257D+03
 0.310587346064257D+03 0.000000000000000D+00 0.000000000000000D+00 -.310587346064257D+03
 0.261429089872312D+03 -.723194024914027D+02 0.211564742416409D+03 0.100200705970719D+03
 0.134167785109351D+03 0.724117264153260D+02 -.112946721543531D+03 0.757978409399733D+00
 0.110390273242924D+03 0.535807776778724D+02 -.619048121327007D+02 -.740466537049238D+02
 0.115187543903927D+03 -.536731016017956D+02 -.367132087401775D+02 -.269120306751950D+02
 0.000000000000000D+00 -.000000000000000D+00 -.000000000000000D+00 -.000000000000000D+00
 0.441030152613768D+03 0.000000000000000D+00 0.000000000000000D+00 0.441030152613768D+03
 0.574038314982022D+03 0.000000000000000D+00 0.000000000000000D+00 -.574038314982022D+03
 0.377340046510765D+03 -.310776433977598D+02 0.350805156690374D+03 0.100200705970719D+03
 0.106728113698018D+03 0.879650305112553D+02 -.604356610737565D+02 0.757978409399733D+00
 0.101259894538019D+03 0.672458480993650D+02 -.157688056095253D+02 -.740466537049238D+02
 0.103556914808053D+03 -.395499923978178D+02 0.109692281785096D+02 -.269120306751950D+02
 0.326183498040933D+03 -.845832428150427D+02 -.285569918185602D+03 -.133008162368254D+03
0.329181529150D-05 0.000000000000D+00 0.000000000000D+00 0.161617639879D-06 0.000000000000D+00  7 2 -2 23 -11 11 23 21 0 0.39105117D+00 0.58385797D-02 0.81083134D+05 0.81083134D+05 0.81083134D+05 0.11292728D+01  1  2  2  2  7  2       -2 0.203429660429D-03 0.100000000000D+01
-.181201428604D-06 0.000000000000D+00 -.126414374742D-07 0.161617639879D-06 0.000000000000D+00  7 2 -2 23 -11 11 23 21 2 0.39105117D+00 0.58385797D-02 0.81083134D+05 0.81083134D+05 0.81083134D+05 0.11292728D+01  1  2  3  2  7  2       -2 -.142803287442D-04 0.100000000000D+01
0.210556221358D-06 0.000000000000D+00 0.000000000000D+00 0.161617639879D-06 0.000000000000D+00  7 2 -2 23 -11 11 23 21 2 0.39105117D+00 0.58385797D-02 0.81083134D+05 0.81083134D+05 0.81083134D+05 0.11292728D+01  1  2 15  2  7  2       -2 0.165937547143D-04 0.100000000000D+01
0.252601392512D-06 0.000000000000D+00 -.109398603290D-05 0.161617639879D-06 0.000000000000D+00  7 2 -2 23 -11 11 23 21 2 0.39105117D+00 0.18167530D-01 0.81083134D+05 0.81083134D+05 0.81083134D+05 0.11292728D+01  1  2  5  2  7  2       -2 0.343205509213D-05 0.100000000000D+01
0.835304366519D-07 0.000000000000D+00 -.142273141247D-06 0.161617639879D-06 0.000000000000D+00  7 2 21 23 -11 11 23 2 2 0.39105117D+00 0.18167530D-01 0.81083134D+05 0.81083134D+05 0.81083134D+05 0.11292728D+01  1  2  5  4  7  2       -2 0.149073649385D-04 0.100000000000D+01
  </mgrwgt>
  </event>
  <event>
  8     66 0.55102590E-06 0.20605265E+03 0.75467711E-02 0.91667668E-01
        2 -1    0    0  501    0 0.00000000E+00 0.00000000E+00 0.47023422E+03 0.47023433E+03 0.32000000E+00 0.0000E+00 0.9000E+01
       -2 -1    0    0    0  501 0.00000000E+00 0.00000000E+00 -.63722943E+03 0.63722951E+03 0.32000000E+00 0.0000E+00 0.9000E+01
       25  2    1    2    0    0 -.60715270E+02 0.55498341E+02 -.59019375E+03 0.66696541E+03 0.29957934E+03 0.0000E+00 0.0000E+00
       23  2    1    2    0    0 0.60715270E+02 -.55498341E+02 0.42319855E+03 0.44049843E+03 0.90418189E+02 0.0000E+00 0.0000E+00
       23  1    3    3    0    0 0.67581011E+02 -.20473067E+02 -.35946088E+03 0.37750988E+03 0.91188000E+02 0.0000E+00 0.9000E+01
      -11  1    4    4    0    0 -.23954331E+02 -.11329792E+02 0.80989929E+02 0.85214687E+02 0.51099893E-03 0.0000E+00 0.9000E+01
       11  1    4    4    0    0 0.84669601E+02 -.44168549E+02 0.34220862E+03 0.35528374E+03 0.51099893E-03 0.0000E+00 0.9000E+01
       23  1    3    3    0    0 -.12829628E+03 0.75971408E+02 -.23073288E+03 0.28945553E+03 0.91188000E+02 0.0000E+00 0.9000E+01
#aMCatNLO 1  0  0  1  1 0.58502968D+03 0.00000000D+00  -5  7  0 0.00000000D+00 0.00000000D+00 0.00000000D+00 0.00000000D+00 0.00000000D+00
  <mgrwgt>
 0.3684534811D-03    3    2    0
 0.547400393821683D+03 0.000000000000000D+00 0.000000000000000D+00 0.547400393821683D+03
 0.547400393821683D+03 0.000000000000000D+00 0.000000000000000D+00 -.547400393821683D+03
 0.327046076201502D+03 0.675810107284646D+02 -.204730668940107D+02 -.306035202445194D+03
 0.985541074752766D+02 -.239543309083287D+02 -.113297915922958D+02 0.949249069183520D+02
 0.411591867485743D+03 0.846696008582110D+02 -.441685494443039D+02 0.400359917213123D+03
 0.257608736480844D+03 -.128296280678347D+03 0.759714079306104D+02 -.189249621686281D+03
 0.000000000000000D+00 0.000000000000000D+00 0.000000000000000D+00 -.000000000000000D+00
 0.796395449343560D+03 0.000000000000000D+00 0.000000000000000D+00 0.796395449343560D+03
 0.110753587402494D+04 0.000000000000000D+00 0.000000000000000D+00 -.110753587402494D+04
 0.358746039358558D+03 -.321559530065114D+02 -.160286989372263D+03 -.306035202445194D+03
 0.124105291086336D+03 -.563364068402680D+02 -.567238449551348D+02 0.949249069183520D+02
 0.459611008738290D+03 -.420322490176841D+02 -.221782564880663D+03 0.400359917213123D+03
 0.298846847456661D+03 -.209223414624726D+03 -.374743959945230D+02 -.189249621686281D+03
 0.662622136728658D+03 0.339748023489190D+03 0.476267795202583D+03 -.311140424681384D+03
0.450057323267D-04 0.000000000000D+00 0.000000000000D+00 0.155209474550D-05 0.000000000000D+00  7 2 -2 23 -11 11 23 21 0 0.72343741D-01 0.98035312D-01 0.42457693D+05 0.42457693D+05 0.42457693D+05 0.11535946D+01  1  2  2  1  7  1        2 0.336876930739D-03 0.100000000000D+01
0.401761329593D-06 0.000000000000D+00 -.172833862416D-06 0.155209474550D-05 0.000000000000D+00  7 2 -2 23 -11 11 23 21 2 0.72343741D-01 0.98035312D-01 0.42457693D+05 0.42457693D+05 0.42457693D+05 0.11535946D+01  1  2  3  1  7  1        2 0.400200837756D-05 0.100000000000D+01
0.276820626210D-05 0.000000000000D+00 0.000000000000D+00 0.155209474550D-05 0.000000000000D+00  7 2 -2 23 -11 11 23 21 2 0.72343741D-01 0.98035312D-01 0.42457693D+05 0.42457693D+05 0.42457693D+05 0.11535946D+01  1  2 15  1  7  1        2 0.275745419873D-04 0.100000000000D+01
  </mgrwgt>
  </event>
  <event>
  8     66 0.55102590E-06 0.16366253E+03 0.75467711E-02 0.10878752E+00
        2 -1    0    0  501    0 0.00000000E+00 0.00000000E+00 0.28348734E+04 0.28348734E+04 0.32000000E+00 0.0000E+00 0.9000E+01
       -2 -1    0    0    0  501 0.00000000E+00 0.00000000E+00 -.84192190E+02 0.84192798E+02 0.32000000E+00 0.0000E+00 0.9000E+01
       25  2    1    2    0    0 0.43899469E+02 -.58458949E+02 0.20660551E+03 0.37236641E+03 0.30104202E+03 0.0000E+00 0.0000E+00
       23  2    1    2    0    0 -.43899469E+02 0.58458949E+02 0.25440757E+04 0.25466998E+04 0.89521559E+02 0.0000E+00 0.0000E+00
       23  1    3    3    0    0 -.91706931E+01 -.74464014E+02 0.23407452E+03 0.26217384E+03 0.91188000E+02 0.0000E+00 0.9000E+01
      -11  1    4    4    0    0 0.16314014E+02 0.33660027E+02 0.15721807E+04 0.15726256E+04 0.51099893E-03 0.0000E+00 0.9000E+01
       11  1    4    4    0    0 -.60213483E+02 0.24798922E+02 0.97189492E+03 0.97407411E+03 0.51099893E-03 0.0000E+00 0.9000E+01
       23  1    3    3    0    0 0.53070162E+02 0.16005065E+02 -.27469012E+02 0.11019257E+03 0.91188000E+02 0.0000E+00 0.9000E+01
#aMCatNLO 1  0  0  1  1 0.14188746D+02 0.00000000D+00  -5  7  0 0.00000000D+00 0.00000000D+00 0.00000000D+00 0.00000000D+00 0.00000000D+00
  <mgrwgt>
 0.2775808110D-03    4    2    0
 0.488543866009228D+03 0.000000000000000D+00 0.000000000000000D+00 0.488543866009228D+03
 0.488543866009228D+03 0.000000000000000D+00 0.000000000000000D+00 -.488543866009228D+03
 0.124286094853879D+03 -.917069312888899D+01 -.744640138006023D+02 -.387658492266958D+02
 0.272268666513666D+03 0.163140139455736D+02 0.336600268226454D+02 0.269687008045275D+03
 0.174000497395317D+03 -.602134830154344D+02 0.247989222541564D+02 0.161355269551385D+03
 0.406532473255594D+03 0.530701621987498D+02 0.160050647238005D+02 -.392276428369964D+03
 0.000000000000000D+00 -.000000000000000D+00 0.000000000000000D+00 -.000000000000000D+00
 0.489322389369447D+03 0.000000000000000D+00 0.000000000000000D+00 0.489322389369447D+03
 0.557823762763185D+03 0.000000000000000D+00 0.000000000000000D+00 -.557823762763185D+03
 0.125286948283891D+03 -.861262862799866D+01 -.761879231121291D+02 -.387658492266958D+02
 0.271905301336998D+03 0.175308287503618D+02 0.299011810816397D+02 0.269687008045275D+03
 0.173406932388818D+03 -.594366533087058D+02 0.223992283786930D+02 0.161355269551385D+03
 0.406591565271531D+03 0.548883700268768D+02 0.103884641333699D+02 -.392276428369964D+03
 0.699554048513933D+02 -.436991684053411D+01 0.134990495184265D+02 -.685013733937373D+02
0.206460253089D-04 0.000000000000D+00 0.000000000000D+00 0.124552438174D-06 0.000000000000D+00  7 2 -2 23 -11 11 23 21 0 0.43613441D+00 0.12952693D-01 0.26785422D+05 0.26785422D+05 0.26785422D+05 0.11719306D+01  1  2  2  1  7  1        2 0.267969239736D-03 0.100000000000D+01
0.520938912932D-06 0.000000000000D+00 -.792861734096D-07 0.124552438174D-06 0.000000000000D+00  7 2 -2 23 -11 11 23 21 2 0.43613441D+00 0.12952693D-01 0.26785422D+05 0.26785422D+05 0.26785422D+05 0.11719306D+01  1  2  3  1  7  1        2 0.928622254329D-05 0.100000000000D+01
0.127855393980D-05 0.000000000000D+00 0.000000000000D+00 0.124552438174D-06 0.000000000000D+00  7 2 -2 23 -11 11 23 21 2 0.43613441D+00 0.12952693D-01 0.26785422D+05 0.26785422D+05 0.26785422D+05 0.11719306D+01  1  2 15  1  7  1        2 0.227914178110D-04 0.100000000000D+01
-.126030251266D-05 0.000000000000D+00 0.000000000000D+00 0.124552438174D-06 0.000000000000D+00  7 2 -2 23 -11 11 23 21 2 0.43613441D+00 0.12952693D-01 0.26785422D+05 0.26785422D+05 0.26785422D+05 0.11719306D+01  1  2  4  1  7  1        2 -.224660690800D-04 0.100000000000D+01
  </mgrwgt>
  </event>
  <event>
  8     66 0.55102590E-06 0.40675910E+03 0.75467711E-02 0.83708591E-01
        2 -1    0    0  501    0 0.00000000E+00 0.00000000E+00 0.30032425E+04 0.30032425E+04 0.32000000E+00 0.0000E+00 0.9000E+01
       -2 -1    0    0    0  501 0.00000000E+00 0.00000000E+00 -.57290909E+03 0.57290918E+03 0.32000000E+00 0.0000E+00 0.9000E+01
       25  2    1    2    0    0 -.59762897E+03 0.10922963E+04 0.76452582E+03 0.14937585E+04 0.31071368E+03 0.0000E+00 0.0000E+00
       23  2    1    2    0    0 0.59762897E+03 -.10922963E+04 0.16658076E+04 0.20823932E+04 0.10571185E+03 0.0000E+00 0.0000E+00
       23  1    3    3    0    0 -.60679059E+02 0.31413237E+03 0.17576806E+03 0.37625889E+03 0.91188000E+02 0.0000E+00 0.9000E+01
      -13  1    4    4    0    0 0.51427614E+02 -.94857932E+02 0.99349405E+02 0.14667359E+03 0.10565837E+00 0.0000E+00 0.9000E+01
       13  1    4    4    0    0 0.54620135E+03 -.99743839E+03 0.15664582E+04 0.19357197E+04 0.10565837E+00 0.0000E+00 0.9000E+01
       23  1    3    3    0    0 -.53694991E+03 0.77816396E+03 0.58875777E+03 0.11174996E+04 0.91188000E+02 0.0000E+00 0.9000E+01
#aMCatNLO 1  0  0  2  1 0.41659974D+03 0.00000000D+00  -5  7  0 0.00000000D+00 0.00000000D+00 0.00000000D+00 0.00000000D+00 0.00000000D+00
  <mgrwgt>
 0.2469963772D-03    9    2    0
 0.131171076436559D+04 0.000000000000000D+00 0.000000000000000D+00 0.131171076436559D+04
 0.131171076436559D+04 0.000000000000000D+00 0.000000000000000D+00 -.131171076436559D+04
 0.350071037607501D+03 -.606790592798910D+02 0.314132366672984D+03 -.108965076978498D+03
 0.107901837173684D+03 0.514271198432532D+02 -.948570300605711D+02 -.449063661183487D+00
 0.118753857319173D+04 0.546201848484643D+03 -.997439295578898D+03 0.342091004215676D+03
 0.977910080758255D+03 -.536949909048005D+03 0.778163958966486D+03 -.232676863575994D+03
 0.000000000000000D+00 -.000000000000000D+00 -.000000000000000D+00 -.000000000000000D+00
 0.141872637938756D+04 0.000000000000000D+00 0.000000000000000D+00 0.141872637938756D+04
 0.180716034243007D+04 0.000000000000000D+00 0.000000000000000D+00 -.180716034243007D+04
 0.402814330709241D+03 -.535097718750766D+02 0.373105146029482D+03 -.108965076978498D+03
 0.952862117706453D+02 0.533619608979575D+02 -.789415076151538D+02 -.449063661183487D+00
 0.105565034136889D+04 0.567562425683446D+03 -.821732487503869D+03 0.342091004215676D+03
 0.110254274851229D+04 -.517138972492621D+03 0.941123807603840D+03 -.232676863575994D+03
 0.569593089456565D+03 -.502756422137058D+02 -.413554958514299D+03 -.388433963042511D+03
0.857422878566D-03 0.000000000000D+00 0.000000000000D+00 0.385606055581D-09 0.000000000000D+00  7 2 -2 23 -13 13 23 21 0 0.46203732D+00 0.88139868D-01 0.15971987D+07 0.15971987D+07 0.15971987D+07 0.10345894D+01  1  2  2  2  7  2       -2 0.190134257869D-03 0.100000000000D+01
-.475544285866D-04 0.000000000000D+00 -.329272961832D-05 0.385606055581D-09 0.000000000000D+00  7 2 -2 23 -13 13 23 21 2 0.46203732D+00 0.88139868D-01 0.15971987D+07 0.15971987D+07 0.15971987D+07 0.10345894D+01  1  2  3  2  7  2       -2 -.112873594413D-04 0.100000000000D+01
0.548764552589D-04 0.000000000000D+00 0.000000000000D+00 0.385606055581D-09 0.000000000000D+00  7 2 -2 23 -13 13 23 21 2 0.46203732D+00 0.88139868D-01 0.15971987D+07 0.15971987D+07 0.15971987D+07 0.10345894D+01  1  2 15  2  7  2       -2 0.130252910987D-04 0.100000000000D+01
0.838647669268D-03 0.000000000000D+00 0.000000000000D+00 0.385606055581D-09 0.000000000000D+00  7 2 -2 23 -13 13 23 21 2 0.46203732D+00 0.12398421D+00 0.22142593D+07 0.22142593D+07 0.22142593D+07 0.10256282D+01  1  2 12  2  7  2       -2 0.814191317577D-04 0.100000000000D+01
-.921637204459D-03 0.000000000000D+00 0.000000000000D+00 0.385606055581D-09 0.000000000000D+00  7 2 -2 23 -13 13 23 21 2 0.46203732D+00 0.88139868D-01 0.15971987D+07 0.15971987D+07 0.15971987D+07 0.10345894D+01  1  2  4  2  7  2       -2 -.218756711214D-03 0.100000000000D+01
-.125805744934D-02 0.000000000000D+00 -.346801569006D-03 0.385606055581D-09 0.000000000000D+00  7 2 -2 23 -13 13 23 21 2 0.46203732D+00 0.12970663D+00 0.15971987D+07 0.15971987D+07 0.15971987D+07 0.10345894D+01  1  2  5  2  7  2       -2 -.113486905173D-03 0.100000000000D+01
0.131689668590D-02 0.000000000000D+00 0.322436273717D-03 0.385606055581D-09 0.000000000000D+00  7 2 -2 23 -13 13 23 21 2 0.46203732D+00 0.88139868D-01 0.15971987D+07 0.15971987D+07 0.15971987D+07 0.10345894D+01  1  2  6  2  7  2       -2 0.312574174114D-03 0.100000000000D+01
0.355715228976D-04 0.000000000000D+00 0.000000000000D+00 0.385606055581D-09 0.000000000000D+00  7 2 21 23 -13 13 23 2 2 0.46203732D+00 0.12398421D+00 0.22142593D+07 0.22142593D+07 0.22142593D+07 0.10256282D+01  1  2 12  4  7  2       -2 0.287524899120D-04 0.100000000000D+01
-.470943350214D-04 0.000000000000D+00 -.160936688766D-04 0.385606055581D-09 0.000000000000D+00  7 2 21 23 -13 13 23 2 2 0.46203732D+00 0.12970663D+00 0.15971987D+07 0.15971987D+07 0.15971987D+07 0.10345894D+01  1  2  5  4  7  2       -2 -.353779917416D-04 0.100000000000D+01
  </mgrwgt>
  </event>
  <event>
  8     66 0.55102590E-06 0.13791916E+03 0.75467711E-02 0.10237730E+00
        2 -1    0    0  501    0 0.00000000E+00 0.00000000E+00 0.22868841E+03 0.22868864E+03 0.32000000E+00 0.0000E+00 0.9000E+01
       -2 -1    0    0    0  501 0.00000000E+00 0.00000000E+00 -.41814748E+03 0.41814761E+03 0.32000000E+00 0.0000E+00 0.9000E+01
       25  2    1    2    0    0 -.17239462E+03 0.54143444E+02 -.25648390E+03 0.43364298E+03 0.29935067E+03 0.0000E+00 0.0000E+00
       23  2    1    2    0    0 0.17239462E+03 -.54143444E+02 0.67024833E+02 0.21319326E+03 0.91146143E+02 0.0000E+00 0.0000E+00
       23  1    3    3    0    0 -.87359735E+02 0.13176065E+03 -.68153383E+02 0.19481459E+03 0.91188000E+02 0.0000E+00 0.9000E+01
      -11  1    4    4    0    0 0.17048393E+03 -.29239370E+02 0.72616700E+02 0.18759770E+03 0.51099893E-03 0.0000E+00 0.9000E+01
       11  1    4    4    0    0 0.19106889E+01 -.24904074E+02 -.55918672E+01 0.25595558E+02 0.51099893E-03 0.0000E+00 0.9000E+01
       23  1    3    3    0    0 -.85034888E+02 -.77617202E+02 -.18833052E+03 0.23882839E+03 0.91188000E+02 0.0000E+00 0.9000E+01
#aMCatNLO 1  0  0  1  2 0.50684447D+01 0.00000000D+00  -5  7  0 0.00000000D+00 0.00000000D+00 0.00000000D+00 0.00000000D+00 0.00000000D+00
  <mgrwgt>
 0.9510981398D-04    8    2    0
 0.309233885941981D+03 0.000000000000000D+00 0.000000000000000D+00 0.309233885941981D+03
 0.309233885941981D+03 0.000000000000000D+00 0.000000000000000D+00 -.309233885941981D+03
 0.182872687003694D+03 -.873597349129686D+02 0.131760645793366D+03 -.116007432521390D+02
 0.218447737021365D+03 0.170483934154918D+03 -.292393697651378D+02 0.133415521063161D+03
 0.250566083974856D+02 0.191068888938253D+01 -.249040738044056D+02 0.199248595921184D+01
 0.192090739461417D+03 -.850348881313316D+02 -.776172022238231D+02 -.123807263770233D+03
 0.000000000000000D+00 0.000000000000000D+00 -.000000000000000D+00 -.000000000000000D+00
 0.311421995791991D+03 0.000000000000000D+00 0.000000000000000D+00 0.311421995791991D+03
 0.312193347793400D+03 0.000000000000000D+00 0.000000000000000D+00 -.312193347793400D+03
 0.184120184087120D+03 -.885147087550149D+02 0.132723622367263D+03 -.116007432521390D+02
 0.217228535866406D+03 0.169112804799489D+03 -.280961703254688D+02 0.133415521063161D+03
 0.249147261757612D+02 0.175342266207763D+01 -.247729507544745D+02 0.199248595921184D+01
 0.192225093773597D+03 -.862443795668228D+02 -.766087707976679D+02 -.123807263770233D+03
 0.512680368250646D+01 0.389286086027087D+01 -.324573048965181D+01 -.771352001408896D+00
0.215875725676D-05 0.000000000000D+00 0.000000000000D+00 0.208738605961D-06 0.000000000000D+00  7 2 -2 23 -11 11 23 21 0 0.35182859D-01 0.64330409D-01 0.69517692D+05 0.69517692D+05 0.69517692D+05 0.11349150D+01  1  2  2  1  7  1        2 0.890563326621D-04 0.100000000000D+01
-.116224570863D-06 0.000000000000D+00 -.829019627981D-08 0.208738605961D-06 0.000000000000D+00  7 2 -2 23 -11 11 23 21 2 0.35182859D-01 0.64330409D-01 0.69517692D+05 0.69517692D+05 0.69517692D+05 0.11349150D+01  1  2  3  1  7  1        2 -.617569153175D-05 0.100000000000D+01
0.139523518485D-06 0.000000000000D+00 0.000000000000D+00 0.208738605961D-06 0.000000000000D+00  7 2 -2 23 -11 11 23 21 2 0.35182859D-01 0.64330409D-01 0.69517692D+05 0.69517692D+05 0.69517692D+05 0.11349150D+01  1  2 15  1  7  1        2 0.741370095141D-05 0.100000000000D+01
0.345819992604D-06 0.000000000000D+00 0.000000000000D+00 0.208738605961D-06 0.000000000000D+00  7 2 -2 23 -11 11 23 21 2 0.35598774D-01 0.64330409D-01 0.70791551D+05 0.70791551D+05 0.70791551D+05 0.11342447D+01  1  2 12  1  7  1        2 0.181136813143D-04 0.100000000000D+01
-.849676499523D-05 0.000000000000D+00 0.000000000000D+00 0.208738605961D-06 0.000000000000D+00  7 2 -2 23 -11 11 23 21 2 0.35182859D-01 0.64330409D-01 0.69517692D+05 0.69517692D+05 0.69517692D+05 0.11349150D+01  1  2  4  1  7  1        2 -.451482842556D-03 0.100000000000D+01
0.827041317552D-05 0.000000000000D+00 0.000000000000D+00 0.208738605961D-06 0.557565766649D-07  7 2 -2 23 -11 11 23 21 2 0.35431810D-01 0.64946070D-01 0.70791551D+05 0.70791551D+05 0.70791551D+05 0.11342447D+01  1  2 11  1  7  1        2 0.426892098203D-03 0.100000000000D+01
0.200948595544D-07 0.000000000000D+00 0.000000000000D+00 0.208738605961D-06 0.000000000000D+00  7 21 -2 23 -11 11 23 -2 2 0.35598774D-01 0.64330409D-01 0.70791551D+05 0.70791551D+05 0.70791551D+05 0.11342447D+01  1  2 12  3  7  1        2 0.476632715018D-05 0.100000000000D+01
0.278047147737D-07 0.000000000000D+00 0.000000000000D+00 0.208738605961D-06 0.729366912973D-10  7 21 -2 23 -11 11 23 -2 2 0.35431810D-01 0.64946070D-01 0.70791551D+05 0.70791551D+05 0.70791551D+05 0.11342447D+01  1  2 11  3  7  1        2 0.652620778697D-05 0.100000000000D+01
  </mgrwgt>
  </event>
  <event>
  9     66 0.55102590E-06 0.26285259E+03 0.75467711E-02 0.10211512E+00
        2 -1    0    0  502    0 0.00000000E+00 0.00000000E+00 0.22050912E+04 0.22050912E+04 0.32000000E+00 0.0000E+00 0.9000E+01
       -2 -1    0    0    0  501 0.00000000E+00 0.00000000E+00 -.51572970E+02 0.51573963E+02 0.32000000E+00 0.0000E+00 0.9000E+01
       25  2    1    2    0    0 0.15941080E+03 0.11651405E+03 0.72191714E+03 0.80634714E+03 0.30007337E+03 0.0000E+00 0.0000E+00
       23  2    1    2    0    0 -.14308348E+03 -.11095748E+03 0.13938702E+04 0.14088254E+04 0.95553276E+02 0.0000E+00 0.0000E+00
       23  1    3    3    0    0 0.14190884E+03 -.21977889E+02 0.22410217E+03 0.28135063E+03 0.91188000E+02 0.0000E+00 0.9000E+01
      -13  1    4    4    0    0 -.95923422E+02 -.41081381E+02 0.48749583E+03 0.49853905E+03 0.10565837E+00 0.0000E+00 0.9000E+01
       13  1    4    4    0    0 -.47160060E+02 -.69876102E+02 0.90637441E+03 0.91028640E+03 0.10565837E+00 0.0000E+00 0.9000E+01
       23  1    3    3    0    0 0.17501961E+02 0.13849194E+03 0.49781497E+03 0.52499650E+03 0.91188000E+02 0.0000E+00 0.9000E+01
       21  1    1    2  502  501 -.16327319E+02 -.55565655E+01 0.37730866E+02 0.41492620E+02 0.75000000E+00 0.0000E+00 0.9000E+01
#aMCatNLO 2  0  0  1  1 0.17246935D+02 0.00000000D+00  -5  7  0 0.00000000D+00 0.00000000D+00 0.00000000D+00 0.00000000D+00 0.00000000D+00
  <mgrwgt>
 0.1315254128D-03    2    2    0
 0.327923724089297D+03 0.000000000000000D+00 0.000000000000000D+00 0.327923724089297D+03
 0.327923724089297D+03 0.000000000000000D+00 0.000000000000000D+00 -.327923724089297D+03
 0.223974044261915D+03 0.136293301653570D+03 -.238889857108783D+02 -.150673731768722D+03
 0.113908969551279D+03 -.987242141337452D+02 -.420345081724752D+02 0.382345787292948D+02
 0.152328452407454D+03 -.509289508124533D+02 -.711587927763072D+02 0.124686108258343D+03
 0.165635981957947D+03 0.133598632926289D+02 0.137082286659661D+03 -.122469552189156D+02
 0.000000000000000D+00 -.000000000000000D+00 -.000000000000000D+00 -.000000000000000D+00
 0.334030072644798D+03 0.000000000000000D+00 0.000000000000000D+00 0.334030072644798D+03
 0.340445636749717D+03 0.000000000000000D+00 0.000000000000000D+00 -.340445636749717D+03
 0.227242099822747D+03 0.141908842701442D+03 -.219778867472657D+02 -.150673731768722D+03
 0.111134479519843D+03 -.959234705380628D+02 -.410813501174591D+02 0.382345787292948D+02
 0.150510356258864D+03 -.471600170470085D+02 -.698761371333937D+02 0.124686108258343D+03
 0.167187246208081D+03 0.175019635342840D+02 0.138491939516175D+03 -.122469552189156D+02
 0.184015275849804D+02 -.163273186506548D+02 -.555656551805663D+01 -.641556410491854D+01
-.130513520999D-05 0.000000000000D+00 0.000000000000D+00 0.501993803756D-07 0.000000000000D+00  7 2 -2 23 -13 13 23 21 2 0.33303563D+00 0.76423735D-02 0.69091482D+05 0.69091482D+05 0.69091482D+05 0.11351422D+01  1  2  8  1  7  1        2 -.112786836972D-03 0.100000000000D+01
0.316389260697D-05 0.000000000000D+00 0.000000000000D+00 0.501993803756D-07 0.115602417268D-08  7 2 -2 23 -13 13 23 21 2 0.33923717D+00 0.79342009D-02 0.73642722D+05 0.73642722D+05 0.73642722D+05 0.11327914D+01  1  2  1  1  7  1        2 0.244312249813D-03 0.100000000000D+01
  </mgrwgt>
  </event>
  <event>
  8     66 0.55102590E-06 0.21748435E+03 0.75467711E-02 0.97933088E-01
        2 -1    0    0  501    0 0.00000000E+00 0.00000000E+00 0.26065776E+04 0.26065776E+04 0.32000000E+00 0.0000E+00 0.9000E+01
       -2 -1    0    0    0  501 0.00000000E+00 0.00000000E+00 -.30810187E+02 0.30811849E+02 0.32000000E+00 0.0000E+00 0.9000E+01
       25  2    1    2    0    0 0.70015279E+02 -.11290987E+03 0.96264688E+03 0.10161932E+04 0.29716800E+03 0.0000E+00 0.0000E+00
       23  2    1    2    0    0 -.70015279E+02 0.11290987E+03 0.16131205E+04 0.16211962E+04 0.92025620E+02 0.0000E+00 0.0000E+00
       23  1    3    3    0    0 0.54873964E+02 0.23105747E+02 0.68416698E+03 0.69278044E+03 0.91188000E+02 0.0000E+00 0.9000E+01
      -13  1    4    4    0    0 -.85806201E+02 0.55790559E+02 0.10273354E+04 0.10324211E+04 0.10565837E+00 0.0000E+00 0.9000E+01
       13  1    4    4    0    0 0.15790922E+02 0.57119311E+02 0.58578506E+03 0.58877510E+03 0.10565837E+00 0.0000E+00 0.9000E+01
       23  1    3    3    0    0 0.15141315E+02 -.13601562E+03 0.27847990E+03 0.32341276E+03 0.91188000E+02 0.0000E+00 0.9000E+01
#aMCatNLO 1  0  0  1  2 0.25916670D+03 0.00000000D+00  -5  7  0 0.00000000D+00 0.00000000D+00 0.00000000D+00 0.00000000D+00 0.00000000D+00
  <mgrwgt>
 0.2523587756D-03    3    2    0
 0.283392590067036D+03 0.000000000000000D+00 0.000000000000000D+00 0.283392590067036D+03
 0.283392590067036D+03 0.000000000000000D+00 0.000000000000000D+00 -.283392590067036D+03
 0.114464563978011D+03 0.548739640782703D+02 0.231057449660160D+02 0.352400011149008D+02
 0.135359103975523D+03 -.858063347671025D+02 0.557905586955189D+02 0.885820156879167D+02
 0.776010635464117D+02 0.157910548983672D+02 0.571193133298334D+02 0.500994180950167D+02
 0.239360448634127D+03 0.151413157904650D+02 -.136015616991368D+03 -.173921434897834D+03
 0.000000000000000D+00 -.000000000000000D+00 0.000000000000000D+00 -.000000000000000D+00
 0.405568958614957D+03 0.000000000000000D+00 0.000000000000000D+00 0.405568958614957D+03
 0.490335914598021D+03 0.000000000000000D+00 0.000000000000000D+00 -.490335914598021D+03
 0.134624177975533D+03 0.908945170495361D+02 -.174570055662886D+02 0.352400011149008D+02
 0.103711082516754D+03 -.512345582634436D+02 0.168592755779287D+02 0.885820156879167D+02
 0.705939089390078D+02 0.372214287266710D+02 0.329865658924204D+02 0.500994180950167D+02
 0.314298574288251D+03 0.952055692239432D+02 -.226175985744399D+03 -.173921434897834D+03
 0.272677129493431D+03 -.172086956736707D+03 0.193787149840338D+03 -.847669559830645D+02
0.316830019101D-05 0.000000000000D+00 0.000000000000D+00 0.585449211871D-08 0.000000000000D+00  7 2 -2 23 -13 13 23 21 0 0.40101206D+00 0.47401581D-02 0.47299442D+05 0.47299442D+05 0.47299442D+05 0.11494225D+01  1  2  2  1  7  1        2 0.248087859833D-03 0.100000000000D+01
-.161021077495D-06 0.000000000000D+00 -.121671069661D-07 0.585449211871D-08 0.000000000000D+00  7 2 -2 23 -13 13 23 21 2 0.40101206D+00 0.47401581D-02 0.47299442D+05 0.47299442D+05 0.47299442D+05 0.11494225D+01  1  2  3  1  7  1        2 -.166579405114D-04 0.100000000000D+01
0.202305139685D-06 0.000000000000D+00 0.000000000000D+00 0.585449211871D-08 0.000000000000D+00  7 2 -2 23 -13 13 23 21 2 0.40101206D+00 0.47401581D-02 0.47299442D+05 0.47299442D+05 0.47299442D+05 0.11494225D+01  1  2 15  1  7  1        2 0.209288562369D-04 0.100000000000D+01
  </mgrwgt>
  </event>
  <event>
  7     66 0.55102590E-06 0.14079626E+03 0.75467711E-02 0.10964333E+00
        2 -1    0    0  501    0 0.00000000E+00 0.00000000E+00 0.76360561E+02 0.76361231E+02 0.32000000E+00 0.0000E+00 0.9000E+01
       -2 -1    0    0    0  501 0.00000000E+00 0.00000000E+00 -.70601946E+03 0.70601953E+03 0.32000000E+00 0.0000E+00 0.9000E+01
       23  2    1    2    0    0 -.89739849E+01 0.53713197E+02 -.99330352E+02 0.14529334E+03 0.90983492E+02 0.0000E+00 0.0000E+00
       23  1    1    2    0    0 0.58771086E+02 -.53354838E+02 -.27960925E+02 0.12408805E+03 0.91188000E+02 0.0000E+00 0.9000E+01
      -11  1    3    3    0    0 -.90875171E+01 0.11855234E+02 0.16425430E+02 0.22201898E+02 0.51099893E-03 0.0000E+00 0.9000E+01
       11  1    3    3    0    0 0.11353227E+00 0.41857963E+02 -.11575578E+03 0.12309144E+03 0.51099893E-03 0.0000E+00 0.9000E+01
       23  1    1    2    0    0 -.49797102E+02 -.35835862E+00 -.50236762E+03 0.51299938E+03 0.91188000E+02 0.0000E+00 0.9000E+01
#aMCatNLO 1  0  0  1  1 0.35150799D+02 0.00000000D+00  -5  7  0 0.00000000D+00 0.00000000D+00 0.00000000D+00 0.00000000D+00 0.00000000D+00
  <mgrwgt>
 0.4500393038D-04    4    2    0
 0.232190294035535D+03 0.000000000000000D+00 0.000000000000000D+00 0.232190294035535D+03
 0.232190294035535D+03 0.000000000000000D+00 0.000000000000000D+00 -.232190294035535D+03
 0.171148742953531D+03 0.587710319960453D+02 -.533550404159297D+02 0.121143907526991D+03
 0.596770315567896D+02 -.908756405650296D+01 0.118555150167424D+02 0.577772536439455D+02
 0.504279805760309D+02 0.113492615285349D+00 0.418581999798608D+02 -.281222232202365D+02
 0.183126832984719D+03 -.497969605548277D+02 -.358674580673497D+00 -.150798937950700D+03
 0.000000000000000D+00 -.000000000000000D+00 -.000000000000000D+00 -.000000000000000D+00
 0.243072337305730D+03 0.000000000000000D+00 0.000000000000000D+00 0.243072337305730D+03
 0.263085501218055D+03 0.000000000000000D+00 0.000000000000000D+00 -.263085501218055D+03
 0.168332405634415D+03 0.607454545156362D+02 -.406778916298502D+02 0.121143907526991D+03
 0.606285923679308D+02 -.838786649126728D+01 0.163480540005402D+02 0.577772536439455D+02
 0.537042311359690D+02 0.719125607497618D+00 0.457467797928709D+02 -.281222232202365D+02
 0.183043810083022D+03 -.476673119228103D+02 0.133151324703876D+02 -.150798937950700D+03
 0.404487993024477D+02 -.540940170905620D+01 -.347320746339485D+02 -.200131639123249D+02
0.201916905984D-05 0.000000000000D+00 0.000000000000D+00 0.425899006912D-10 0.000000000000D+00  7 2 -2 23 -11 11 23 21 0 0.11747836D-01 0.10861844D+00 0.19823587D+05 0.19823587D+05 0.19823587D+05 0.11844084D+01  1  2  2  1  7  1        2 0.932078515795D-04 0.100000000000D+01
-.780454221851D-07 0.000000000000D+00 -.775414084919D-08 0.425899006912D-10 0.000000000000D+00  7 2 -2 23 -11 11 23 21 2 0.11747836D-01 0.10861844D+00 0.19823587D+05 0.19823587D+05 0.19823587D+05 0.11844084D+01  1  2  3  1  7  1        2 -.505394187388D-05 0.100000000000D+01
0.130017491708D-06 0.000000000000D+00 0.000000000000D+00 0.425899006912D-10 0.000000000000D+00  7 2 -2 23 -11 11 23 21 2 0.11747836D-01 0.10861844D+00 0.19823587D+05 0.19823587D+05 0.19823587D+05 0.11844084D+01  1  2 15  1  7  1        2 0.841946686023D-05 0.100000000000D+01
-.796360405436D-06 0.000000000000D+00 0.000000000000D+00 0.425899006912D-10 0.000000000000D+00  7 2 -2 23 -11 11 23 21 2 0.11747836D-01 0.10861844D+00 0.19823587D+05 0.19823587D+05 0.19823587D+05 0.11844084D+01  1  2  4  1  7  1        2 -.515694461898D-04 0.100000000000D+01
  </mgrwgt>
  </event>
  <event>
  8     66 0.55102590E-06 0.58705420E+03 0.75467711E-02 0.92744216E-01
        2 -1    0    0  501    0 0.00000000E+00 0.00000000E+00 0.38528326E+04 0.38528326E+04 0.32000000E+00 0.0000E+00 0.9000E+01
       -2 -1    0    0    0  501 0.00000000E+00 0.00000000E+00 -.20471808E+03 0.20471833E+03 0.32000000E+00 0.0000E+00 0.9000E+01
       25  2    1    2    0    0 0.45779436E+03 -.33162252E+03 0.39082103E+03 0.74918444E+03 0.29830701E+03 0.0000E+00 0.0000E+00
       23  2    1    2    0    0 -.45779436E+03 0.33162252E+03 0.32572935E+04 0.33083665E+04 0.12561415E+03 0.0000E+00 0.0000E+00
       23  1    3    3    0    0 0.35010938E+03 -.22702277E+03 0.15335497E+03 0.45381595E+03 0.91188000E+02 0.0000E+00 0.9000E+01
      -11  1    4    4    0    0 -.76220975E+02 0.97156536E+02 0.50532864E+03 0.52019810E+03 0.51099893E-03 0.0000E+00 0.9000E+01
       11  1    4    4    0    0 -.38157338E+03 0.23446599E+03 0.27519648E+04 0.27881684E+04 0.51099893E-03 0.0000E+00 0.9000E+01
       23  1    3    3    0    0 0.10768497E+03 -.10459975E+03 0.23746606E+03 0.29536849E+03 0.91188000E+02 0.0000E+00 0.9000E+01
#aMCatNLO 1  0  0  2  2 0.10357919D+02 0.00000000D+00  -5  7  0 0.00000000D+00 0.00000000D+00 0.00000000D+00 0.00000000D+00 0.00000000D+00
  <mgrwgt>
 0.1637344426D-03    4    2    0
 0.888113183009803D+03 0.000000000000000D+00 0.000000000000000D+00 0.888113183009803D+03
 0.888113183009803D+03 0.000000000000000D+00 0.000000000000000D+00 -.888113183009803D+03
 0.721712534352560D+03 0.350109382525940D+03 -.227022769164803D+03 -.581754083308097D+03
 0.150450162329578D+03 -.762209753404733D+02 0.971565358917129D+02 0.859431311779226D+02
 0.717055242770193D+03 -.381573381613675D+03 0.234465985406072D+03 0.559996140447132D+03
 0.187008426567277D+03 0.107684974428209D+03 -.104599752132982D+03 -.641851883169576D+02
 0.000000000000000D+00 0.000000000000000D+00 0.000000000000000D+00 0.000000000000000D+00
 0.910101779545114D+03 0.000000000000000D+00 0.000000000000000D+00 0.910101779545114D+03
 0.889348918324073D+03 0.000000000000000D+00 0.000000000000000D+00 -.889348918324073D+03
 0.722266719617378D+03 0.348663023962176D+03 -.230976720036359D+03 -.581754083308097D+03
 0.150073335919213D+03 -.765219940248551D+02 0.963336326924064D+02 0.859431311779226D+02
 0.716547789626522D+03 -.383009346858498D+03 0.230540447041288D+03 0.559996140447132D+03
 0.187368721278525D+03 0.107309980402238D+03 -.105624883793251D+03 -.641851883169576D+02
 0.231941314275488D+02 0.355833651893987D+01 0.972752409591624D+01 0.207528612210402D+02
0.324990665458D-03 0.000000000000D+00 0.000000000000D+00 0.132474084417D-08 0.000000000000D+00  7 2 -2 23 -11 11 23 21 0 0.59274349D+00 0.31495110D-01 0.34463263D+06 0.34463263D+06 0.34463263D+06 0.10801233D+01  1  2  2  2  7  2       -2 0.166793719969D-03 0.100000000000D+01
-.142928280737D-04 0.000000000000D+00 -.124804972737D-05 0.132474084417D-08 0.000000000000D+00  7 2 -2 23 -11 11 23 21 2 0.59274349D+00 0.31495110D-01 0.34463263D+06 0.34463263D+06 0.34463263D+06 0.10801233D+01  1  2  3  2  7  2       -2 -.855802753146D-05 0.100000000000D+01
0.199758107032D-04 0.000000000000D+00 0.000000000000D+00 0.132474084417D-08 0.000000000000D+00  7 2 -2 23 -11 11 23 21 2 0.59274349D+00 0.31495110D-01 0.34463263D+06 0.34463263D+06 0.34463263D+06 0.10801233D+01  1  2 15  2  7  2       -2 0.119607915998D-04 0.100000000000D+01
-.107923054441D-04 0.000000000000D+00 0.000000000000D+00 0.132474084417D-08 0.000000000000D+00  7 2 -2 23 -11 11 23 21 2 0.59274349D+00 0.31495110D-01 0.34463263D+06 0.34463263D+06 0.34463263D+06 0.10801233D+01  1  2  4  2  7  2       -2 -.646204142680D-05 0.100000000000D+01
  </mgrwgt>
  </event>
  <event>
  8     66 0.55102590E-06 0.15312279E+03 0.75467711E-02 0.10394500E+00
        2 -1    0    0  501    0 0.00000000E+00 0.00000000E+00 0.35910869E+04 0.35910869E+04 0.32000000E+00 0.0000E+00 0.9000E+01
       -2 -1    0    0    0  501 0.00000000E+00 0.00000000E+00 -.44176519E+02 0.44177678E+02 0.32000000E+00 0.0000E+00 0.9000E+01
       25  2    1    2    0    0 -.11149827E+03 -.28844001E+02 0.34382977E+04 0.34532416E+04 0.29953747E+03 0.0000E+00 0.0000E+00
       23  2    1    2    0    0 0.11149827E+03 0.28844001E+02 0.10861271E+03 0.18202301E+03 0.89843277E+02 0.0000E+00 0.0000E+00
       23  1    3    3    0    0 0.24532272E+02 -.91525206E+02 0.19952219E+04 0.19995510E+04 0.91188000E+02 0.0000E+00 0.9000E+01
      -13  1    4    4    0    0 0.11945119E+03 0.37463742E+01 0.92823991E+02 0.15132391E+03 0.10565837E+00 0.0000E+00 0.9000E+01
       13  1    4    4    0    0 -.79529176E+01 0.25097627E+02 0.15788715E+02 0.30699095E+02 0.10565837E+00 0.0000E+00 0.9000E+01
       23  1    3    3    0    0 -.13603054E+03 0.62681205E+02 0.14430758E+04 0.14536906E+04 0.91188000E+02 0.0000E+00 0.9000E+01
#aMCatNLO 1  0  0  1  2 0.18941586D+02 0.00000000D+00  -5  7  0 0.00000000D+00 0.00000000D+00 0.00000000D+00 0.00000000D+00 0.00000000D+00
  <mgrwgt>
 0.5241989568D-03    9    2    0
 0.398301208023582D+03 0.000000000000000D+00 0.000000000000000D+00 0.398301208023582D+03
 0.398301208023582D+03 0.000000000000000D+00 0.000000000000000D+00 -.398301208023582D+03
 0.241053550866051D+03 0.245322716057361D+02 -.915252060495666D+02 0.202021947690291D+03
 0.277257902934757D+03 0.119451366556936D+03 0.374634476798195D+01 -.250178497613882D+03
 0.697938502099464D+02 -.795309374259511D+01 0.250976563189094D+02 -.646377403251989D+02
 0.208497112036410D+03 -.136030544420077D+03 0.626812049626753D+02 0.112794290248790D+03
 0.000000000000000D+00 -.000000000000000D+00 -.000000000000000D+00 0.000000000000000D+00
 0.408808082526698D+03 0.000000000000000D+00 0.000000000000000D+00 0.408808082526698D+03
 0.407043133676222D+03 0.000000000000000D+00 0.000000000000000D+00 -.407043133676222D+03
 0.239907542347412D+03 0.283866028286187D+02 -.873024109772865D+02 0.202021947690291D+03
 0.279316857842966D+03 0.123911651408671D+03 0.863302103001501D+01 -.250178497613882D+03
 0.701268632691959D+02 -.683179561203859D+01 0.263261475788613D+02 -.646377403251989D+02
 0.207476316965418D+03 -.132697012045183D+03 0.663334141974227D+02 0.112794290248790D+03
 0.190236357779291D+02 -.127694465800680D+02 -.139901718290126D+02 0.176494885047633D+01
0.123338806598D-04 0.000000000000D+00 0.000000000000D+00 0.385723441315D-06 0.000000000000D+00  7 2 -2 23 -13 13 23 21 0 0.55247500D+00 0.67964778D-02 0.51233568D+05 0.51233568D+05 0.51233568D+05 0.11463655D+01  1  2  2  1  7  1        2 0.134413547714D-03 0.100000000000D+01
-.419136525452D-06 0.000000000000D+00 -.473653493189D-07 0.385723441315D-06 0.000000000000D+00  7 2 -2 23 -13 13 23 21 2 0.55247500D+00 0.67964778D-02 0.51233568D+05 0.51233568D+05 0.51233568D+05 0.11463655D+01  1  2  3  1  7  1        2 -.600267806667D-05 0.100000000000D+01
0.753919070424D-06 0.000000000000D+00 0.000000000000D+00 0.385723441315D-06 0.000000000000D+00  7 2 -2 23 -13 13 23 21 2 0.55247500D+00 0.67964778D-02 0.51233568D+05 0.51233568D+05 0.51233568D+05 0.11463655D+01  1  2 15  1  7  1        2 0.107972777204D-04 0.100000000000D+01
0.147935743290D-04 0.000000000000D+00 0.000000000000D+00 0.385723441315D-06 0.000000000000D+00  7 2 -2 23 -13 13 23 21 2 0.57296613D+00 0.67964778D-02 0.56141295D+05 0.56141295D+05 0.56141295D+05 0.11428961D+01  1  2 12  1  7  1        2 0.167858460449D-03 0.100000000000D+01
-.120589897617D-04 0.000000000000D+00 0.000000000000D+00 0.385723441315D-06 0.000000000000D+00  7 2 -2 23 -13 13 23 21 2 0.55247500D+00 0.67964778D-02 0.51233568D+05 0.51233568D+05 0.51233568D+05 0.11463655D+01  1  2  4  1  7  1        2 -.172703233798D-03 0.100000000000D+01
-.150219204890D-03 0.000000000000D+00 -.243476277769D-04 0.385723441315D-06 0.000000000000D+00  7 2 -2 23 -13 13 23 21 2 0.57034844D+00 0.67964778D-02 0.51233568D+05 0.51233568D+05 0.51233568D+05 0.11463655D+01  1  2  5  1  7  1        2 -.177359102240D-02 0.100000000000D+01
0.151076373305D-03 0.000000000000D+00 0.245242317250D-04 0.385723441315D-06 0.000000000000D+00  7 2 -2 23 -13 13 23 21 2 0.55247500D+00 0.67964778D-02 0.51233568D+05 0.51233568D+05 0.51233568D+05 0.11463655D+01  1  2  6  1  7  1        2 0.216364544094D-02 0.100000000000D+01
0.221152824586D-06 0.000000000000D+00 0.000000000000D+00 0.385723441315D-06 0.000000000000D+00  7 21 -2 23 -13 13 23 -2 2 0.57296613D+00 0.67964778D-02 0.56141295D+05 0.56141295D+05 0.56141295D+05 0.11428961D+01  1  2 12  3  7  1        2 0.708547681617D-07 0.100000000000D+01
-.846571221987D-06 0.000000000000D+00 -.138653998095D-06 0.385723441315D-06 0.000000000000D+00  7 21 -2 23 -13 13 23 -2 2 0.57034844D+00 0.67964778D-02 0.51233568D+05 0.51233568D+05 0.51233568D+05 0.11463655D+01  1  2  5  3  7  1        2 -.289690584291D-06 0.100000000000D+01
  </mgrwgt>
  </event>
  <event>
  9     66 -.55102590E-06 0.19600391E+03 0.75467711E-02 0.10638652E+00
        2 -1    0    0  501    0 0.00000000E+00 0.00000000E+00 0.53055501E+03 0.53055510E+03 0.32000000E+00 0.0000E+00 0.9000E+01
       -2 -1    0    0    0  502 0.00000000E+00 0.00000000E+00 -.16441683E+03 0.16441714E+03 0.32000000E+00 0.0000E+00 0.9000E+01
       25  2    1    2    0    0 -.73679305E+02 -.59972335E+02 0.20051557E+02 0.31587328E+03 0.30058035E+03 0.0000E+00 0.0000E+00
       23  2    1    2    0    0 0.69337910E+02 0.65206379E+02 0.34779664E+03 0.37204704E+03 0.91634475E+02 0.0000E+00 0.0000E+00
       23  1    3    3    0    0 -.46316824E+02 -.13796840E+03 -.43772802E+02 0.17723385E+03 0.91188000E+02 0.0000E+00 0.9000E+01
      -13  1    4    4    0    0 0.22331719E+02 0.32654237E+02 0.31349382E+02 0.50475735E+02 0.10565837E+00 0.0000E+00 0.9000E+01
       13  1    4    4    0    0 0.47006191E+02 0.32552142E+02 0.31644726E+03 0.32157131E+03 0.10565837E+00 0.0000E+00 0.9000E+01
       23  1    3    3    0    0 -.27362481E+02 0.77996068E+02 0.63824358E+02 0.13863943E+03 0.91188000E+02 0.0000E+00 0.9000E+01
       21  1    1    2  501  502 0.43413947E+01 -.52340442E+01 -.17100260E+01 0.70519228E+01 0.75000000E+00 0.0000E+00 0.9000E+01
#aMCatNLO 2  0  0  2  1 0.68002152D+01 0.00000000D+00  -5  7  0 0.00000000D+00 0.00000000D+00 0.00000000D+00 0.00000000D+00 0.00000000D+00
  <mgrwgt>
 -.8618257279D-04    3    2    0
 0.290635436981677D+03 0.000000000000000D+00 0.000000000000000D+00 0.290635436981677D+03
 0.290635436981677D+03 0.000000000000000D+00 0.000000000000000D+00 -.290635436981677D+03
 0.238349406264937D+03 -.445401094952529D+02 -.140110434409102D+03 -.163952532577853D+03
 0.397704388827318D+02 0.226291783840780D+02 0.322955751152403D+02 0.515789904540146D+01
 0.180371470375124D+03 0.483530736560907D+02 0.309283636115327D+02 0.170994982141599D+03
 0.122779558440561D+03 -.264421425449158D+02 0.768864956823288D+02 -.122003486091479D+02
 0.000000000000000D+00 0.000000000000000D+00 -.000000000000000D+00 -.000000000000000D+00
 0.292111071358857D+03 0.000000000000000D+00 0.000000000000000D+00 0.292111071358857D+03
 0.298596771480692D+03 0.000000000000000D+00 0.000000000000000D+00 -.298596771480692D+03
 0.237436755318163D+03 -.463168240376153D+02 -.137968403282759D+03 -.163952532577853D+03
 0.398949525808208D+02 0.223316862101457D+02 0.326542357110832D+02 0.515789904540146D+01
 0.180301167722860D+03 0.470062242248069D+02 0.325521435353863D+02 0.170994982141599D+03
 0.123677774413615D+03 -.273624810555965D+02 0.779960682611791D+02 -.122003486091479D+02
 0.939719280408940D+01 0.434139465825925D+01 -.523404422488931D+01 -.648570012183500D+01
-.278554016834D-05 0.000000000000D+00 0.000000000000D+00 0.319890892605D-06 0.000000000000D+00  7 2 -2 23 -13 13 23 21 2 0.81207406D-01 0.25355097D-01 0.39671755D+05 0.39671755D+05 0.39671755D+05 0.11562406D+01  1  2 13  2  7  2       -2 -.350240032794D-03 0.100000000000D+01
-.132583315083D-04 0.000000000000D+00 0.000000000000D+00 0.319890892605D-06 0.000000000000D+00  7 2 -2 23 -13 13 23 21 2 0.81207406D-01 0.24619248D-01 0.38417532D+05 0.38417532D+05 0.38417532D+05 0.11574997D+01  1  2  8  2  7  2       -2 -.175558469764D-02 0.100000000000D+01
0.160869573121D-04 0.000000000000D+00 0.000000000000D+00 0.319890892605D-06 0.493362625261D-07  7 2 -2 23 -13 13 23 21 2 0.81619718D-01 0.25293639D-01 0.39671755D+05 0.39671755D+05 0.39671755D+05 0.11562406D+01  1  2  1  2  7  2       -2 0.201964215764D-02 0.100000000000D+01
  </mgrwgt>
  </event>
  <event>
  8     66 0.55102590E-06 0.10462517E+03 0.75467711E-02 0.10360379E+00
        2 -1    0    0  501    0 0.00000000E+00 0.00000000E+00 0.38130997E+04 0.38130997E+04 0.32000000E+00 0.0000E+00 0.9000E+01
       -2 -1    0    0    0  501 0.00000000E+00 0.00000000E+00 -.19853603E+02 0.19856182E+02 0.32000000E+00 0.0000E+00 0.9000E+01
       25  2    1    2    0    0 -.27584049E+02 0.80747859E+02 0.13239788E+04 0.13603368E+04 0.30052509E+03 0.0000E+00 0.0000E+00
       23  2    1    2    0    0 0.27584049E+02 -.80747859E+02 0.24692674E+04 0.24726191E+04 0.96348147E+02 0.0000E+00 0.0000E+00
       23  1    3    3    0    0 -.60699376E+02 -.70611004E+02 0.63920678E+03 0.65235794E+03 0.91188000E+02 0.0000E+00 0.9000E+01
      -11  1    4    4    0    0 -.11472462E+01 -.91898608E+02 0.14656756E+04 0.14685542E+04 0.51099893E-03 0.0000E+00 0.9000E+01
       11  1    4    4    0    0 0.28731296E+02 0.11150749E+02 0.10035918E+04 0.10040649E+04 0.51099893E-03 0.0000E+00 0.9000E+01
       23  1    3    3    0    0 0.33115327E+02 0.15135886E+03 0.68477198E+03 0.70797885E+03 0.91188000E+02 0.0000E+00 0.9000E+01
#aMCatNLO 1  0  0  2  1 0.49779125D+02 0.00000000D+00  -5  7  0 0.00000000D+00 0.00000000D+00 0.00000000D+00 0.00000000D+00 0.00000000D+00
  <mgrwgt>
 0.2443525058D-03    6    2    0
 0.275152208026945D+03 0.000000000000000D+00 0.000000000000000D+00 0.275152208026945D+03
 0.275152208026945D+03 0.000000000000000D+00 0.000000000000000D+00 -.275152208026945D+03
 0.137724871042673D+03 -.606993762520574D+02 -.706110039457441D+02 -.445259542750766D+02
 0.125813065367076D+03 -.114724613239664D+01 -.918986080470582D+02 0.859200621646949D+02
 0.757141082512398D+02 0.287312955333059D+02 0.111507485231928D+02 0.691577880837062D+02
 0.211052371392901D+03 0.331153268511481D+02 0.151358863469610D+03 -.110551895973325D+03
 0.000000000000000D+00 -.000000000000000D+00 0.000000000000000D+00 0.000000000000000D+00
 0.303892959698282D+03 0.000000000000000D+00 0.000000000000000D+00 0.303892959698282D+03
 0.298706861261492D+03 0.000000000000000D+00 0.000000000000000D+00 -.298706861261492D+03
 0.143009557016168D+03 -.573737928655724D+02 -.828382118473878D+02 -.445259542750766D+02
 0.134321028437599D+03 0.193430544856529D+01 -.103228581606941D+03 0.859200621646949D+02
 0.757320261400549D+02 0.305253282494269D+02 0.455460930397844D+01 0.691577880837062D+02
 0.199488663538919D+03 0.379786008524169D+02 0.133478012086411D+03 -.110551895973325D+03
 0.500485458270335D+02 -.130644416848367D+02 0.480341720639390D+02 0.518609843678916D+01
0.784988001213D-05 0.000000000000D+00 0.000000000000D+00 0.945859716996D-08 0.000000000000D+00  7 2 -2 23 -11 11 23 21 0 0.58663093D+00 0.30545999D-02 0.46836587D+05 0.46836587D+05 0.46836587D+05 0.11498005D+01  1  2  2  2  7  2       -2 0.192644328624D-03 0.100000000000D+01
-.405533517862D-06 0.000000000000D+00 -.301456061675D-07 0.945859716996D-08 0.000000000000D+00  7 2 -2 23 -11 11 23 21 2 0.58663093D+00 0.30545999D-02 0.46836587D+05 0.46836587D+05 0.46836587D+05 0.11498005D+01  1  2  3  2  7  2       -2 -.131572446195D-04 0.100000000000D+01
0.489177075921D-06 0.000000000000D+00 0.000000000000D+00 0.945859716996D-08 0.000000000000D+00  7 2 -2 23 -11 11 23 21 2 0.58663093D+00 0.30545999D-02 0.46836587D+05 0.46836587D+05 0.46836587D+05 0.11498005D+01  1  2 15  2  7  2       -2 0.158709999707D-04 0.100000000000D+01
0.450219714080D-05 0.000000000000D+00 0.000000000000D+00 0.945859716996D-08 0.000000000000D+00  7 2 -2 23 -11 11 23 21 2 0.58663093D+00 0.34613930D-02 0.59011252D+05 0.59011252D+05 0.59011252D+05 0.11410187D+01  1  2 12  2  7  2       -2 0.118491710489D-03 0.100000000000D+01
-.338092682660D-05 0.000000000000D+00 0.000000000000D+00 0.945859716996D-08 0.000000000000D+00  7 2 -2 23 -11 11 23 21 2 0.58663093D+00 0.30545999D-02 0.46836587D+05 0.46836587D+05 0.46836587D+05 0.11498005D+01  1  2  4  2  7  2       -2 -.109691750099D-03 0.100000000000D+01
0.884099858049D-07 0.000000000000D+00 0.000000000000D+00 0.945859716996D-08 0.000000000000D+00  7 2 21 23 -11 11 23 2 2 0.58663093D+00 0.34613930D-02 0.59011252D+05 0.59011252D+05 0.59011252D+05 0.11410187D+01  1  2 12  4  7  2       -2 0.401944614229D-04 0.100000000000D+01
  </mgrwgt>
  </event>
  <event>
  8     66 0.55102590E-06 0.15146098E+03 0.75467711E-02 0.96967668E-01
        2 -1    0    0  501    0 0.00000000E+00 0.00000000E+00 0.13441064E+04 0.13441064E+04 0.32000000E+00 0.0000E+00 0.9000E+01
       -2 -1    0    0    0  501 0.00000000E+00 0.00000000E+00 -.19990604E+03 0.19990629E+03 0.32000000E+00 0.0000E+00 0.9000E+01
       25  2    1    2    0    0 0.24056966E+03 0.72122824E+02 0.23984110E+02 0.39238273E+03 0.30052207E+03 0.0000E+00 0.0000E+00
       23  2    1    2    0    0 -.24056966E+03 -.72122824E+02 0.11202162E+04 0.11516300E+04 0.91058922E+02 0.0000E+00 0.0000E+00
       23  1    3    3    0    0 0.24707899E+03 0.10329588E+03 -.25145915E+02 0.28401696E+03 0.91188000E+02 0.0000E+00 0.9000E+01
      -13  1    4    4    0    0 -.17981707E+02 -.69091477E+01 0.22242632E+02 0.29424887E+02 0.10565837E+00 0.0000E+00 0.9000E+01
       13  1    4    4    0    0 -.22258795E+03 -.65213677E+02 0.10979736E+04 0.11222051E+04 0.10565837E+00 0.0000E+00 0.9000E+01
       23  1    3    3    0    0 -.65093313E+01 -.31173054E+02 0.49130025E+02 0.10836578E+03 0.91188000E+02 0.0000E+00 0.9000E+01
#aMCatNLO 1  0  0  2  1 0.16666778D+03 0.00000000D+00  -5  7  0 0.00000000D+00 0.00000000D+00 0.00000000D+00 0.00000000D+00 0.00000000D+00
  <mgrwgt>
 0.2853995570D-03    9    2    0
 0.518358181880587D+03 0.000000000000000D+00 0.000000000000000D+00 0.518358181880587D+03
 0.518358181880587D+03 0.000000000000000D+00 0.000000000000000D+00 -.518358181880587D+03
 0.450747932823098D+03 0.247078987047895D+03 0.103295878710197D+03 -.350913640659879D+03
 0.192740831909844D+02 -.179814318261503D+02 -.690906915256263D+01 0.650504250259281D+00
 0.459525648869931D+03 -.222588224015463D+03 -.652137551641776D+02 0.396693169384551D+03
 0.107168698877162D+03 -.650933120628194D+01 -.311730543934573D+02 -.464300329749313D+02
 0.000000000000000D+00 0.000000000000000D+00 0.000000000000000D+00 -.000000000000000D+00
 0.576222421615095D+03 0.000000000000000D+00 0.000000000000000D+00 0.576222421615095D+03
 0.660627335444679D+03 0.000000000000000D+00 0.000000000000000D+00 -.660627335444679D+03
 0.413748185782405D+03 0.186722948157958D+03 0.697600696979449D+02 -.350913640659879D+03
 0.225879653211677D+02 -.209040909030788D+02 -.853299508299913D+01 0.650504250259281D+00
 0.501798325510569D+03 -.289704438807881D+03 -.102505741223904D+03 0.396693169384551D+03
 0.111893603241359D+03 -.218034806436585D+02 -.396709890487122D+02 -.464300329749313D+02
 0.186821677204272D+03 0.145689062196660D+03 0.809496556576705D+02 -.844049138295841D+02
0.149988870389D-04 0.000000000000D+00 0.000000000000D+00 0.203104220580D-05 0.000000000000D+00  7 2 -2 23 -13 13 23 21 0 0.20678562D+00 0.30754797D-01 0.99445038D+05 0.99445038D+05 0.99445038D+05 0.11219204D+01  1  2  2  2  7  2       -2 0.291316467462D-03 0.100000000000D+01
-.583031445279D-06 0.000000000000D+00 -.575996755271D-07 0.203104220580D-05 0.000000000000D+00  7 2 -2 23 -13 13 23 21 2 0.20678562D+00 0.30754797D-01 0.99445038D+05 0.99445038D+05 0.99445038D+05 0.11219204D+01  1  2  3  2  7  2       -2 -.142535188144D-04 0.100000000000D+01
0.920880030105D-06 0.000000000000D+00 0.000000000000D+00 0.203104220580D-05 0.000000000000D+00  7 2 -2 23 -13 13 23 21 2 0.20678562D+00 0.30754797D-01 0.99445038D+05 0.99445038D+05 0.99445038D+05 0.11219204D+01  1  2 15  2  7  2       -2 0.225129895501D-04 0.100000000000D+01
0.691652138184D-05 0.000000000000D+00 0.000000000000D+00 0.203104220580D-05 0.000000000000D+00  7 2 -2 23 -13 13 23 21 2 0.20678562D+00 0.40546724D-01 0.16709841D+06 0.16709841D+06 0.16709841D+06 0.11038712D+01  1  2 12  2  7  2       -2 0.974246829591D-04 0.100000000000D+01
-.121996137456D-04 0.000000000000D+00 0.000000000000D+00 0.203104220580D-05 0.000000000000D+00  7 2 -2 23 -13 13 23 21 2 0.20678562D+00 0.30754797D-01 0.99445038D+05 0.99445038D+05 0.99445038D+05 0.11219204D+01  1  2  4  2  7  2       -2 -.298247076483D-03 0.100000000000D+01
-.142820705598D-04 0.000000000000D+00 -.700348445198D-05 0.203104220580D-05 0.000000000000D+00  7 2 -2 23 -13 13 23 21 2 0.20678562D+00 0.43357845D-01 0.99445038D+05 0.99445038D+05 0.99445038D+05 0.11219204D+01  1  2  5  2  7  2       -2 -.186551817266D-03 0.100000000000D+01
0.161208973077D-04 0.000000000000D+00 0.660981654565D-05 0.203104220580D-05 0.000000000000D+00  7 2 -2 23 -13 13 23 21 2 0.20678562D+00 0.30754797D-01 0.99445038D+05 0.99445038D+05 0.99445038D+05 0.11219204D+01  1  2  6  2  7  2       -2 0.394111698335D-03 0.100000000000D+01
0.251946541087D-06 0.000000000000D+00 0.000000000000D+00 0.203104220580D-05 0.000000000000D+00  7 2 21 23 -13 13 23 2 2 0.20678562D+00 0.40546724D-01 0.16709841D+06 0.16709841D+06 0.16709841D+06 0.11038712D+01  1  2 12  4  7  2       -2 0.391644319649D-04 0.100000000000D+01
-.415953994760D-06 0.000000000000D+00 -.298442143836D-06 0.203104220580D-05 0.000000000000D+00  7 2 21 23 -13 13 23 2 2 0.20678562D+00 0.43357845D-01 0.99445038D+05 0.99445038D+05 0.99445038D+05 0.11219204D+01  1  2  5  4  7  2       -2 -.600783006815D-04 0.100000000000D+01
  </mgrwgt>
  </event>
  <event>
  8     66 0.55102590E-06 0.24024617E+03 0.75467711E-02 0.91559784E-01
        2 -1    0    0  501    0 0.00000000E+00 0.00000000E+00 0.63815127E+03 0.63815135E+03 0.32000000E+00 0.0000E+00 0.9000E+01
       -2 -1    0    0    0  501 0.00000000E+00 0.00000000E+00 -.44088632E+03 0.44088643E+03 0.32000000E+00 0.0000E+00 0.9000E+01
       25  2    1    2    0    0 -.43064587E+02 -.47976830E+03 0.66533035E+02 0.57201654E+03 0.30123760E+03 0.0000E+00 0.0000E+00
       23  2    1    2    0    0 0.43064587E+02 0.47976830E+03 0.13073191E+03 0.50702124E+03 0.89148910E+02 0.0000E+00 0.0000E+00
       23  1    3    3    0    0 -.76631467E+01 -.45699499E+03 0.38031923E+02 0.46761610E+03 0.91188000E+02 0.0000E+00 0.9000E+01
      -13  1    4    4    0    0 0.43427143E+02 0.31983845E+03 0.12754416E+03 0.34705918E+03 0.10565837E+00 0.0000E+00 0.9000E+01
       13  1    4    4    0    0 -.36255633E+00 0.15992985E+03 0.31877510E+01 0.15996206E+03 0.10565837E+00 0.0000E+00 0.9000E+01
       23  1    3    3    0    0 -.35401440E+02 -.22773314E+02 0.28501111E+02 0.10440043E+03 0.91188000E+02 0.0000E+00 0.9000E+01
#aMCatNLO 1  0  0  1  2 0.24480939D+03 0.00000000D+00  -5  7  0 0.00000000D+00 0.00000000D+00 0.00000000D+00 0.00000000D+00 0.00000000D+00
  <mgrwgt>
 0.2929630412D-03    9    2    0
 0.530426495540499D+03 0.000000000000000D+00 0.000000000000000D+00 0.530426495540499D+03
 0.530426495540499D+03 0.000000000000000D+00 0.000000000000000D+00 -.530426495540499D+03
 0.468559808979538D+03 -.766314668132551D+01 -.456994985274951D+03 -.482690673561151D+02
 0.329291829641489D+03 0.434272048860502D+02 0.319838672015188D+03 0.651951748826952D+02
 0.162111085368057D+03 -.362617812525627D+00 0.159929627522651D+03 -.265025800253076D+02
 0.100890267091913D+03 -.354014403921991D+02 -.227733142628882D+02 0.957647249872751D+01
 0.000000000000000D+00 -.000000000000000D+00 -.000000000000000D+00 0.000000000000000D+00
 0.859446975663503D+03 0.000000000000000D+00 0.000000000000000D+00 0.859446975663503D+03
 0.591919451021705D+03 0.000000000000000D+00 0.000000000000000D+00 -.591919451021705D+03
 0.458501608751438D+03 0.958753419516211D+02 -.436333003365420D+03 -.482690673561151D+02
 0.362218021491123D+03 0.120658209749033D+03 0.335250772832990D+03 0.651951748826952D+02
 0.173512081319605D+03 0.371213231264642D+02 0.167409865256514D+03 -.265025800253076D+02
 0.945018221090544D+02 -.135791520089576D+02 -.184184918799042D+02 0.957647249872751D+01
 0.362632893013987D+03 -.240075722818160D+03 -.479091428441797D+02 0.267527524641798D+03
0.246609311482D-04 0.000000000000D+00 0.000000000000D+00 0.781509881509D-07 0.000000000000D+00  7 2 -2 23 -13 13 23 21 0 0.98177133D-01 0.67828679D-01 0.27520787D+06 0.27520787D+06 0.27520787D+06 0.10873343D+01  1  2  2  1  7  1        2 0.283311883601D-03 0.100000000000D+01
-.136984868741D-05 0.000000000000D+00 -.947044689814D-07 0.781509881509D-07 0.000000000000D+00  7 2 -2 23 -13 13 23 21 2 0.98177133D-01 0.67828679D-01 0.27520787D+06 0.27520787D+06 0.27520787D+06 0.10873343D+01  1  2  3  1  7  1        2 -.186060454413D-04 0.100000000000D+01
0.156467021695D-05 0.000000000000D+00 0.000000000000D+00 0.781509881509D-07 0.000000000000D+00  7 2 -2 23 -13 13 23 21 2 0.98177133D-01 0.67828679D-01 0.27520787D+06 0.27520787D+06 0.27520787D+06 0.10873343D+01  1  2 15  1  7  1        2 0.212522196245D-04 0.100000000000D+01
0.163136766345D-04 0.000000000000D+00 0.000000000000D+00 0.781509881509D-07 0.000000000000D+00  7 2 -2 23 -13 13 23 21 2 0.16183183D+00 0.67828679D-01 0.43728933D+06 0.43728933D+06 0.43728933D+06 0.10726482D+01  1  2 12  1  7  1        2 0.110202976640D-03 0.100000000000D+01
-.225606183456D-04 0.000000000000D+00 0.000000000000D+00 0.781509881509D-07 0.000000000000D+00  7 2 -2 23 -13 13 23 21 2 0.98177133D-01 0.67828679D-01 0.27520787D+06 0.27520787D+06 0.27520787D+06 0.10873343D+01  1  2  4  1  7  1        2 -.306430844501D-03 0.100000000000D+01
-.264474529865D-04 0.000000000000D+00 -.844252505783D-05 0.781509881509D-07 0.000000000000D+00  7 2 -2 23 -13 13 23 21 2 0.16895305D+00 0.67828679D-01 0.27520787D+06 0.27520787D+06 0.27520787D+06 0.10873343D+01  1  2  5  1  7  1        2 -.175249403870D-03 0.100000000000D+01
0.279219169038D-04 0.000000000000D+00 0.733497522335D-05 0.781509881509D-07 0.000000000000D+00  7 2 -2 23 -13 13 23 21 2 0.98177133D-01 0.67828679D-01 0.27520787D+06 0.27520787D+06 0.27520787D+06 0.10873343D+01  1  2  6  1  7  1        2 0.379250978224D-03 0.100000000000D+01
0.919492600089D-06 0.000000000000D+00 0.000000000000D+00 0.781509881509D-07 0.000000000000D+00  7 21 -2 23 -13 13 23 -2 2 0.16183183D+00 0.67828679D-01 0.43728933D+06 0.43728933D+06 0.43728933D+06 0.10726482D+01  1  2 12  3  7  1        2 0.392381784798D-05 0.100000000000D+01
-.117784748054D-05 0.000000000000D+00 -.508769116704D-06 0.781509881509D-07 0.000000000000D+00  7 21 -2 23 -13 13 23 -2 2 0.16895305D+00 0.67828679D-01 0.27520787D+06 0.27520787D+06 0.27520787D+06 0.10873343D+01  1  2  5  3  7  1        2 -.469254090500D-05 0.100000000000D+01
  </mgrwgt>
  </event>
  <event>
  8     66 0.55102590E-06 0.21140413E+03 0.75467711E-02 0.99436435E-01
        4 -1    0    0  501    0 0.00000000E+00 0.00000000E+00 0.54027575E+03 0.54027797E+03 0.15500000E+01 0.0000E+00 0.9000E+01
       -4 -1    0    0    0  501 0.00000000E+00 0.00000000E+00 -.18834583E+03 0.18835220E+03 0.15500000E+01 0.0000E+00 0.9000E+01
       25  2    1    2    0    0 -.12099165E+03 0.10086082E+03 0.71399571E+01 0.33911279E+03 0.30022428E+03 0.0000E+00 0.0000E+00
       23  2    1    2    0    0 0.12099165E+03 -.10086082E+03 0.34478996E+03 0.38951739E+03 0.89620267E+02 0.0000E+00 0.0000E+00
       23  1    3    3    0    0 -.78590894E+02 0.11073779E+03 0.10826676E+03 0.19615384E+03 0.91188000E+02 0.0000E+00 0.9000E+01
      -13  1    4    4    0    0 0.84017637E+02 -.61022109E+02 0.30490094E+03 0.32209821E+03 0.10565837E+00 0.0000E+00 0.9000E+01
       13  1    4    4    0    0 0.36974011E+02 -.39838708E+02 0.39889021E+02 0.67419176E+02 0.10565837E+00 0.0000E+00 0.9000E+01
       23  1    3    3    0    0 -.42400754E+02 -.98769766E+01 -.10112680E+03 0.14295894E+03 0.91188000E+02 0.0000E+00 0.9000E+01
#aMCatNLO 1  0  0  2  2 0.22333916D+03 0.00000000D+00  -5  7  0 0.00000000D+00 0.00000000D+00 0.00000000D+00 0.00000000D+00 0.00000000D+00
  <mgrwgt>
 0.1214526516D-04    3    2    0
 0.319001277967370D+03 0.000000000000000D+00 0.000000000000000D+00 0.319001277967370D+03
 0.319001277967370D+03 0.000000000000000D+00 0.000000000000000D+00 -.319001277967370D+03
 0.164296044796306D+03 -.785908944220106D+02 0.110737793107605D+03 0.154451119554190D+02
 0.199665091753776D+03 0.840177028922597D+02 -.610221384635726D+02 0.170538772961120D+03
 0.549925346019860D+02 0.369739458423738D+02 -.398386781062305D+02 0.836575863529367D+01
 0.219048884782672D+03 -.424007543126229D+02 -.987697653780181D+01 -.194349643551833D+03
 0.000000000000000D+00 0.000000000000000D+00 -.000000000000000D+00 0.000000000000000D+00
 0.474356916904800D+03 0.000000000000000D+00 0.000000000000000D+00 0.474356916904800D+03
 0.429421987713972D+03 0.000000000000000D+00 0.000000000000000D+00 -.429421987713972D+03
 0.221602518253729D+03 -.115812278860262D+03 0.164746439519255D+03 0.154451119554190D+02
 0.177266555319190D+03 0.476612116118626D+02 -.826846172732275D+01 0.170538772961120D+03
 0.394368397035384D+02 0.278658734631725D+02 -.266227628993133D+02 0.836575863529367D+01
 0.237658316308641D+03 -.864519012595828D+02 0.540417318980134D+02 -.194349643551833D+03
 0.227814675033675D+03 0.126737095044810D+03 -.183896946790633D+03 0.449349291908280D+02
0.369402503444D-05 0.000000000000D+00 0.000000000000D+00 0.220743981551D-06 0.000000000000D+00  7 4 -4 23 -13 13 23 21 0 0.83120007D-01 0.28976943D-01 0.44691708D+05 0.44691708D+05 0.44691708D+05 0.11516076D+01  1  2  2  2  7  2       -4 0.118596124007D-04 0.100000000000D+01
-.162987204345D-06 0.000000000000D+00 -.141860287914D-07 0.220743981551D-06 0.000000000000D+00  7 4 -4 23 -13 13 23 21 2 0.83120007D-01 0.28976943D-01 0.44691708D+05 0.44691708D+05 0.44691708D+05 0.11516076D+01  1  2  3  2  7  2       -4 -.693958098196D-06 0.100000000000D+01
0.230077341564D-06 0.000000000000D+00 0.000000000000D+00 0.220743981551D-06 0.000000000000D+00  7 4 -4 23 -13 13 23 21 2 0.83120007D-01 0.28976943D-01 0.44691708D+05 0.44691708D+05 0.44691708D+05 0.11516076D+01  1  2 15  2  7  2       -4 0.979610853692D-06 0.100000000000D+01
  </mgrwgt>
  </event>
  <event>
  9     66 0.55102590E-06 0.32583380E+03 0.75467711E-02 0.95032566E-01
        2 -1    0    0  501    0 0.00000000E+00 0.00000000E+00 0.76453260E+03 0.76453266E+03 0.32000000E+00 0.0000E+00 0.9000E+01
       -2 -1    0    0    0  502 0.00000000E+00 0.00000000E+00 -.37151640E+03 0.37151654E+03 0.32000000E+00 0.0000E+00 0.9000E+01
       25  2    1    2    0    0 -.74279382E+02 0.99443342E+02 0.46385081E+02 0.32682026E+03 0.29875324E+03 0.0000E+00 0.0000E+00
       23  2    1    2    0    0 0.31707124E+03 -.19319548E+03 0.38901282E+03 0.54553572E+03 0.91758313E+02 0.0000E+00 0.0000E+00
       23  1    3    3    0    0 0.78041622E+02 0.80191071E+02 0.10910878E+02 0.14475981E+03 0.91188000E+02 0.0000E+00 0.9000E+01
      -13  1    4    4    0    0 0.24468652E+03 -.10150824E+03 0.25403260E+03 0.36702587E+03 0.10565837E+00 0.0000E+00 0.9000E+01
       13  1    4    4    0    0 0.72384718E+02 -.91687234E+02 0.13498022E+03 0.17850985E+03 0.10565837E+00 0.0000E+00 0.9000E+01
       23  1    3    3    0    0 -.15232100E+03 0.19252271E+02 0.35474203E+02 0.18206045E+03 0.91188000E+02 0.0000E+00 0.9000E+01
       21  1    1    2  501  502 -.24279185E+03 0.93752134E+02 -.42381706E+02 0.26369323E+03 0.75000000E+00 0.0000E+00 0.9000E+01
#aMCatNLO 2  0  0  2  1 0.26026399D+03 0.00000000D+00  -5  7  0 0.00000000D+00 0.00000000D+00 0.00000000D+00 0.00000000D+00 0.00000000D+00
  <mgrwgt>
 0.2590841799D-04    2    2    0
 0.354857814876900D+03 0.000000000000000D+00 0.000000000000000D+00 0.354857814876900D+03
 0.354857814876900D+03 0.000000000000000D+00 0.000000000000000D+00 -.354857814876900D+03
 0.155134982804370D+03 0.257103328587476D+02 0.100398379682047D+03 -.707866914555554D+02
 0.198174492761598D+03 0.165932538282762D+03 -.710979464781500D+02 0.817594295903933D+02
 0.997352225827880D+02 0.346163854352005D+02 -.771033695407388D+02 0.529517788983918D+02
 0.256670931605044D+03 -.226259256576710D+03 0.478029363368415D+02 -.639245170332297D+02
 0.000000000000000D+00 -.000000000000000D+00 0.000000000000000D+00 -.000000000000000D+00
 0.441929056451195D+03 0.000000000000000D+00 0.000000000000000D+00 0.441929056451195D+03
 0.642718571427097D+03 0.000000000000000D+00 0.000000000000000D+00 -.642718571427097D+03
 0.160770362804279D+03 0.780416215490086D+02 0.801910707684887D+02 -.707866914555554D+02
 0.277236602632000D+03 0.244686746229645D+03 -.101508254499505D+03 0.817594295903933D+02
 0.128257365052855D+03 0.723844893582695D+02 -.916872210405562D+02 0.529517788983918D+02
 0.189667955861925D+03 -.152321004190631D+03 0.192522710677819D+02 -.639245170332297D+02
 0.328715341527233D+03 -.242791852946293D+03 0.937521337037908D+02 -.200789514975902D+03
-.918849436841D-07 0.000000000000D+00 0.000000000000D+00 0.392647019626D-07 0.000000000000D+00  7 2 -2 23 -13 13 23 21 2 0.94446124D-01 0.58395509D-01 0.23276089D+06 0.23276089D+06 0.23276089D+06 0.10928012D+01  1  2 13  2  7  2       -2 -.181481151827D-05 0.100000000000D+01
0.175295447397D-05 0.000000000000D+00 0.000000000000D+00 0.392647019626D-07 0.593613564119D-11  7 2 -2 23 -13 13 23 21 2 0.11762031D+00 0.57156335D-01 0.23276089D+06 0.23276089D+06 0.23276089D+06 0.10928012D+01  1  2  1  2  7  2       -2 0.277232295053D-04 0.100000000000D+01
  </mgrwgt>
  </event>
  <event>
  8     66 0.55102590E-06 0.24803453E+03 0.75467711E-02 0.97105959E-01
        2 -1    0    0  501    0 0.00000000E+00 0.00000000E+00 0.16098169E+04 0.16098170E+04 0.32000000E+00 0.0000E+00 0.9000E+01
       -2 -1    0    0    0  501 0.00000000E+00 0.00000000E+00 -.96082215E+02 0.96082747E+02 0.32000000E+00 0.0000E+00 0.9000E+01
       25  2    1    2    0    0 0.85066236E+01 -.15289697E+03 0.22487540E+03 0.40444696E+03 0.29926334E+03 0.0000E+00 0.0000E+00
       23  2    1    2    0    0 -.85066236E+01 0.15289697E+03 0.12888593E+04 0.13014528E+04 0.95765800E+02 0.0000E+00 0.0000E+00
       23  1    3    3    0    0 0.29886073E+02 0.53113389E+02 0.79765929E+02 0.13561734E+03 0.91188000E+02 0.0000E+00 0.9000E+01
      -13  1    4    4    0    0 0.14850483E+02 0.18728813E+02 0.53341346E+02 0.58451824E+02 0.10565837E+00 0.0000E+00 0.9000E+01
       13  1    4    4    0    0 -.23357107E+02 0.13416816E+03 0.12355180E+04 0.12430009E+04 0.10565837E+00 0.0000E+00 0.9000E+01
       23  1    3    3    0    0 -.21379449E+02 -.20601036E+03 0.14510947E+03 0.26882961E+03 0.91188000E+02 0.0000E+00 0.9000E+01
#aMCatNLO 1  0  0  2  1 0.24712761D+03 0.00000000D+00  -5  7  0 0.00000000D+00 0.00000000D+00 0.00000000D+00 0.00000000D+00 0.00000000D+00
  <mgrwgt>
 0.3638109507D-03    3    2    0
 0.393287754862162D+03 0.000000000000000D+00 0.000000000000000D+00 0.393287754862162D+03
 0.393287754862162D+03 0.000000000000000D+00 0.000000000000000D+00 -.393287754862162D+03
 0.140616040135086D+03 0.298860728013545D+02 0.531133881967399D+02 -.879966479250583D+02
 0.241146815806282D+02 0.148505272768013D+02 0.187286709845810D+02 0.319634017078672D+01
 0.318073426145834D+03 -.233571509245423D+02 0.134168303356642D+03 0.287443932437680D+03
 0.303771361862775D+03 -.213794491536136D+02 -.206010362537963D+03 -.202643624683408D+03
 0.000000000000000D+00 0.000000000000000D+00 0.000000000000000D+00 0.000000000000000D+00
 0.768460901733805D+03 0.000000000000000D+00 0.000000000000000D+00 0.768460901733805D+03
 0.455103061316440D+03 0.000000000000000D+00 0.000000000000000D+00 -.455103061316440D+03
 0.136190100042040D+03 -.123063349763971D+02 0.483491062881501D+02 -.879966479250583D+02
 0.199803219075043D+02 0.812930943480484D+01 0.179697245708805D+02 0.319634017078672D+01
 0.335964824017419D+03 -.123049479048033D+03 0.122911245977840D+03 0.287443932437680D+03
 0.332348282868143D+03 -.118340518834912D+03 -.216959011701421D+03 -.202643624683408D+03
 0.399080434215139D+03 0.245567023424537D+03 0.277289348645496D+02 0.313357840417365D+03
0.739519377200D-05 0.000000000000D+00 0.000000000000D+00 0.478719244758D-07 0.000000000000D+00  7 2 -2 23 -13 13 23 21 0 0.24766419D+00 0.14781923D-01 0.61521127D+05 0.61521127D+05 0.61521127D+05 0.11394575D+01  1  2  2  2  7  2       -2 0.354381294808D-03 0.100000000000D+01
-.304696387874D-06 0.000000000000D+00 -.283994912837D-07 0.478719244758D-07 0.000000000000D+00  7 2 -2 23 -13 13 23 21 2 0.24766419D+00 0.14781923D-01 0.61521127D+05 0.61521127D+05 0.61521127D+05 0.11394575D+01  1  2  3  2  7  2       -2 -.189576632056D-04 0.100000000000D+01
0.456254206875D-06 0.000000000000D+00 0.000000000000D+00 0.478719244758D-07 0.000000000000D+00  7 2 -2 23 -13 13 23 21 2 0.24766419D+00 0.14781923D-01 0.61521127D+05 0.61521127D+05 0.61521127D+05 0.11394575D+01  1  2 15  2  7  2       -2 0.283873190964D-04 0.100000000000D+01
  </mgrwgt>
  </event>
  <event>
  8     66 0.55102590E-06 0.25339765E+03 0.75467711E-02 0.99428344E-01
        2 -1    0    0  501    0 0.00000000E+00 0.00000000E+00 0.52083459E+03 0.52083468E+03 0.32000000E+00 0.0000E+00 0.9000E+01
       -2 -1    0    0    0  501 0.00000000E+00 0.00000000E+00 -.14420195E+03 0.14420230E+03 0.32000000E+00 0.0000E+00 0.9000E+01
       25  2    1    2    0    0 -.10833084E+03 0.13295628E+03 0.19097525E+03 0.39627248E+03 0.30190625E+03 0.0000E+00 0.0000E+00
       23  2    1    2    0    0 0.10833084E+03 -.13295628E+03 0.18565739E+03 0.26876451E+03 0.91393403E+02 0.0000E+00 0.0000E+00
       23  1    3    3    0    0 0.88315807E+01 -.26210152E+02 -.15164749E+02 0.96489325E+02 0.91188000E+02 0.0000E+00 0.9000E+01
      -13  1    4    4    0    0 0.12469404E+03 -.11796724E+03 0.17013682E+03 0.24168455E+03 0.10565837E+00 0.0000E+00 0.9000E+01
       13  1    4    4    0    0 -.16363191E+02 -.14989040E+02 0.15520566E+02 0.27079964E+02 0.10565837E+00 0.0000E+00 0.9000E+01
       23  1    3    3    0    0 -.11716242E+03 0.15916643E+03 0.20614000E+03 0.29978315E+03 0.91188000E+02 0.0000E+00 0.9000E+01
#aMCatNLO 1  0  0  2  2 0.14182320D+03 0.00000000D+00  -5  7  0 0.00000000D+00 0.00000000D+00 0.00000000D+00 0.00000000D+00 0.00000000D+00
  <mgrwgt>
 0.3936148289D-03    3    2    0
 0.274053848712717D+03 0.000000000000000D+00 0.000000000000000D+00 0.274053848712717D+03
 0.274053848712717D+03 0.000000000000000D+00 0.000000000000000D+00 -.274053848712717D+03
 0.127494121633497D+03 0.883158026732344D+01 -.262101519194219D+02 -.847026022825727D+02
 0.176334315208281D+03 0.124694223094817D+03 -.117967373996666D+03 0.403588914501414D+02
 0.221918295565188D+02 -.163633776164713D+02 -.149889026608269D+02 0.223537626818496D+00
 0.222087431027136D+03 -.117162425745669D+03 0.159166428576914D+03 0.441201732056128D+02
 0.000000000000000D+00 0.000000000000000D+00 0.000000000000000D+00 0.000000000000000D+00
 0.926268147446518D+03 0.000000000000000D+00 0.000000000000000D+00 0.926268147446518D+03
 0.290897444928866D+03 0.000000000000000D+00 0.000000000000000D+00 -.290897444928866D+03
 0.133194952905628D+03 -.196878330062149D+02 -.431683047340528D+02 -.847026022825727D+02
 0.170009837312635D+03 0.868041349195454D+02 -.140497497575059D+03 0.403588914501414D+02
 0.285441597562800D+02 -.219139003977257D+02 -.182893427022402D+02 0.223537626818496D+00
 0.234409922020872D+03 -.167103286109184D+03 0.129470700491076D+03 0.441201732056128D+02
 0.651006720379970D+03 0.121900884593580D+03 0.724844445202758D+02 0.635370702517652D+03
0.325447980201D-05 0.000000000000D+00 0.000000000000D+00 0.203213150957D-07 0.000000000000D+00  7 2 -2 23 -13 13 23 21 0 0.80128433D-01 0.22184950D-01 0.64210369D+05 0.64210369D+05 0.64210369D+05 0.11378607D+01  1  2  2  2  7  2       -2 0.389098951305D-03 0.100000000000D+01
-.179454443226D-06 0.000000000000D+00 -.124980593639D-07 0.203213150957D-07 0.000000000000D+00  7 2 -2 23 -13 13 23 21 2 0.80128433D-01 0.22184950D-01 0.64210369D+05 0.64210369D+05 0.64210369D+05 0.11378607D+01  1  2  3  2  7  2       -2 -.277786361872D-04 0.100000000000D+01
0.208627736730D-06 0.000000000000D+00 0.000000000000D+00 0.203213150957D-07 0.000000000000D+00  7 2 -2 23 -13 13 23 21 2 0.80128433D-01 0.22184950D-01 0.64210369D+05 0.64210369D+05 0.64210369D+05 0.11378607D+01  1  2 15  2  7  2       -2 0.322945138220D-04 0.100000000000D+01
  </mgrwgt>
  </event>
  <event>
  8     66 0.55102590E-06 0.18997706E+03 0.75467711E-02 0.10308288E+00
        2 -1    0    0  501    0 0.00000000E+00 0.00000000E+00 0.15069795E+04 0.15069795E+04 0.32000000E+00 0.0000E+00 0.9000E+01
       -2 -1    0    0    0  501 0.00000000E+00 0.00000000E+00 -.56865104E+02 0.56866004E+02 0.32000000E+00 0.0000E+00 0.9000E+01
       25  2    1    2    0    0 -.17380849E+03 -.74482356E+02 0.10960177E+04 0.11518109E+04 0.29942706E+03 0.0000E+00 0.0000E+00
       23  2    1    2    0    0 0.17380849E+03 0.74482356E+02 0.35409667E+03 0.41203460E+03 0.92903437E+02 0.0000E+00 0.0000E+00
       23  1    3    3    0    0 -.17422661E+03 -.29342522E+02 0.38263459E+03 0.43120804E+03 0.91188000E+02 0.0000E+00 0.9000E+01
      -13  1    4    4    0    0 0.95590665E+02 0.57003860E+02 0.11576689E+03 0.16058954E+03 0.10565837E+00 0.0000E+00 0.9000E+01
       13  1    4    4    0    0 0.78217827E+02 0.17478496E+02 0.23832978E+03 0.25144506E+03 0.10565837E+00 0.0000E+00 0.9000E+01
       23  1    3    3    0    0 0.41811585E+00 -.45139834E+02 0.71338314E+03 0.72060290E+03 0.91188000E+02 0.0000E+00 0.9000E+01
#aMCatNLO 1  0  0  1  2 0.12185474D+02 0.00000000D+00  -5  7  0 0.00000000D+00 0.00000000D+00 0.00000000D+00 0.00000000D+00 0.00000000D+00
  <mgrwgt>
 0.1671803272D-03    9    2    0
 0.292737554836500D+03 0.000000000000000D+00 0.000000000000000D+00 0.292737554836500D+03
 0.292737554836500D+03 0.000000000000000D+00 0.000000000000000D+00 -.292737554836500D+03
 0.204071605519917D+03 -.174226609708424D+03 -.293425227006123D+02 -.459790568253549D+02
 0.142212777267574D+03 0.955906922244031D+02 0.570039102929525D+02 -.885293611720369D+02
 0.813283982157828D+02 0.782178031502636D+02 0.174784469775757D+02 0.138125854909075D+02
 0.157862328669727D+03 0.418114333757302D+00 -.451398345699159D+02 0.120695832506484D+03
 0.000000000000000D+00 -.000000000000000D+00 0.000000000000000D+00 0.000000000000000D+00
 0.402382250391922D+03 0.000000000000000D+00 0.000000000000000D+00 0.402382250391922D+03
 0.293139709075633D+03 0.000000000000000D+00 0.000000000000000D+00 -.293139709075633D+03
 0.201718619199412D+03 -.170980513018017D+03 -.320427915335684D+02 -.459790568253549D+02
 0.143014356682169D+03 0.978723510696077D+02 0.551059100622899D+02 -.885293611720369D+02
 0.823649043061914D+02 0.795272587635077D+02 0.163891749940786D+02 0.138125854909075D+02
 0.158504023696441D+03 0.294886965217858D+01 -.472450459551366D+02 0.120695832506484D+03
 0.109920055583341D+03 -.936796646727646D+01 0.779275243233649D+01 0.109242541316289D+03
0.118129658094D-05 0.000000000000D+00 0.000000000000D+00 0.880550867443D-07 0.000000000000D+00  7 2 -2 23 -13 13 23 21 0 0.23184307D+00 0.87485494D-02 0.60520464D+05 0.60520464D+05 0.60520464D+05 0.11400714D+01  1  2  2  1  7  1        2 0.144889497198D-03 0.100000000000D+01
-.632143093096D-07 0.000000000000D+00 -.453648991333D-08 0.880550867443D-07 0.000000000000D+00  7 2 -2 23 -13 13 23 21 2 0.23184307D+00 0.87485494D-02 0.60520464D+05 0.60520464D+05 0.60520464D+05 0.11400714D+01  1  2  3  1  7  1        2 -.100776074599D-04 0.100000000000D+01
0.751565345922D-07 0.000000000000D+00 0.000000000000D+00 0.880550867443D-07 0.000000000000D+00  7 2 -2 23 -13 13 23 21 2 0.23184307D+00 0.87485494D-02 0.60520464D+05 0.60520464D+05 0.60520464D+05 0.11400714D+01  1  2 15  1  7  1        2 0.119814336649D-04 0.100000000000D+01
0.572547379478D-04 0.000000000000D+00 0.000000000000D+00 0.880550867443D-07 0.000000000000D+00  7 2 -2 23 -13 13 23 21 2 0.31879505D+00 0.87485494D-02 0.63719530D+05 0.63719530D+05 0.63719530D+05 0.11381466D+01  1  2 12  1  7  1        2 0.455544707307D-02 0.100000000000D+01
-.546009462169D-04 0.000000000000D+00 0.000000000000D+00 0.880550867443D-07 0.000000000000D+00  7 2 -2 23 -13 13 23 21 2 0.23184307D+00 0.87485494D-02 0.60520464D+05 0.60520464D+05 0.60520464D+05 0.11400714D+01  1  2  4  1  7  1        2 -.870446753154D-02 0.100000000000D+01
-.577424684249D-04 0.000000000000D+00 -.483121769803D-06 0.880550867443D-07 0.000000000000D+00  7 2 -2 23 -13 13 23 21 2 0.31880607D+00 0.87485494D-02 0.60520464D+05 0.60520464D+05 0.60520464D+05 0.11400714D+01  1  2  5  1  7  1        2 -.461437197184D-02 0.100000000000D+01
0.551009795776D-04 0.000000000000D+00 0.459608842876D-06 0.880550867443D-07 0.000000000000D+00  7 2 -2 23 -13 13 23 21 2 0.23184307D+00 0.87485494D-02 0.60520464D+05 0.60520464D+05 0.60520464D+05 0.11400714D+01  1  2  6  1  7  1        2 0.878418270965D-02 0.100000000000D+01
0.231076499165D-05 0.000000000000D+00 0.000000000000D+00 0.880550867443D-07 0.000000000000D+00  7 21 -2 23 -13 13 23 -2 2 0.31879505D+00 0.87485494D-02 0.63719530D+05 0.63719530D+05 0.63719530D+05 0.11381466D+01  1  2 12  3  7  1        2 0.368459782908D-04 0.100000000000D+01
-.231875639160D-05 0.000000000000D+00 -.195000135007D-07 0.880550867443D-07 0.000000000000D+00  7 21 -2 23 -13 13 23 -2 2 0.31880607D+00 0.87485494D-02 0.60520464D+05 0.60520464D+05 0.60520464D+05 0.11400714D+01  1  2  5  3  7  1        2 -.372492538726D-04 0.100000000000D+01
  </mgrwgt>
  </event>
  <event>
  8     66 0.55102590E-06 0.15444114E+03 0.75467711E-02 0.92901800E-01
        2 -1    0    0  501    0 0.00000000E+00 0.00000000E+00 0.17984257E+04 0.17984257E+04 0.32000000E+00 0.0000E+00 0.9000E+01
       -2 -1    0    0    0  501 0.00000000E+00 0.00000000E+00 -.91016932E+02 0.91017494E+02 0.32000000E+00 0.0000E+00 0.9000E+01
       25  2    1    2    0    0 -.28419412E+02 0.14317399E+02 0.17562370E+04 0.17823043E+04 0.30203865E+03 0.0000E+00 0.0000E+00
       23  2    1    2    0    0 0.28419412E+02 -.14317399E+02 -.48828234E+02 0.10713898E+03 0.89899468E+02 0.0000E+00 0.0000E+00
       23  1    3    3    0    0 0.49189501E+02 -.46921359E+02 0.13413221E+04 0.13461357E+04 0.91188000E+02 0.0000E+00 0.9000E+01
      -13  1    4    4    0    0 -.11846189E+02 -.16514892E+02 0.19262939E+02 0.28002604E+02 0.10565837E+00 0.0000E+00 0.9000E+01
       13  1    4    4    0    0 0.40265601E+02 0.21974929E+01 -.68091172E+02 0.79136379E+02 0.10565837E+00 0.0000E+00 0.9000E+01
       23  1    3    3    0    0 -.77608913E+02 0.61238758E+02 0.41491493E+03 0.43616852E+03 0.91188000E+02 0.0000E+00 0.9000E+01
#aMCatNLO 1  0  0  2  2 0.51022072D+03 0.00000000D+00  -5  7  0 0.00000000D+00 0.00000000D+00 0.00000000D+00 0.00000000D+00 0.00000000D+00
  <mgrwgt>
 0.4759107559D-03    3    2    0
 0.404583427267778D+03 0.000000000000000D+00 0.000000000000000D+00 0.404583427267778D+03
 0.404583427267778D+03 0.000000000000000D+00 0.000000000000000D+00 -.404583427267778D+03
 0.312991006471134D+03 0.491895008277699D+02 -.469213585975391D+02 0.291593720617385D+03
 0.247406079306765D+02 -.118462604155613D+02 -.165149177219573D+02 -.141074904778681D+02
 0.328465632123510D+03 0.402656725308122D+02 0.219751870446770D+01 -.325980855286751D+03
 0.142969608010235D+03 -.776089129430208D+02 0.612387576150287D+02 0.484946251472341D+02
 0.000000000000000D+00 -.000000000000000D+00 0.000000000000000D+00 0.000000000000000D+00
 0.113621793923089D+04 0.000000000000000D+00 0.000000000000000D+00 0.113621793923089D+04
 0.577217862970624D+03 0.000000000000000D+00 0.000000000000000D+00 -.577217862970624D+03
 0.403103660841685D+03 0.255558543876349D+03 -.619696924978550D+02 0.291593720617385D+03
 0.225557675454785D+02 0.178393150209003D+01 -.175088249285431D+02 -.141074904778681D+02
 0.413533241316343D+03 0.254099966297470D+03 -.133951777794784D+02 -.325980855286751D+03
 0.117403473926156D+03 -.257282315274502D+01 0.557671611146159D+02 0.484946251472341D+02
 0.756839658571856D+03 -.508869618523164D+03 0.371065340912607D+02 0.559000076260269D+03
0.102559775351D-04 0.000000000000D+00 0.000000000000D+00 0.520943037191D-07 0.000000000000D+00  7 2 -2 23 -13 13 23 21 0 0.27668093D+00 0.14002650D-01 0.23852066D+05 0.23852066D+05 0.23852066D+05 0.11766909D+01  1  2  2  2  7  2       -2 0.434926382541D-03 0.100000000000D+01
0.727323542998D-07 0.000000000000D+00 -.393856541956D-07 0.520943037191D-07 0.000000000000D+00  7 2 -2 23 -13 13 23 21 2 0.27668093D+00 0.14002650D-01 0.23852066D+05 0.23852066D+05 0.23852066D+05 0.11766909D+01  1  2  3  2  7  2       -2 0.427062168839D-05 0.100000000000D+01
0.625266715221D-06 0.000000000000D+00 0.000000000000D+00 0.520943037191D-07 0.000000000000D+00  7 2 -2 23 -13 13 23 21 2 0.27668093D+00 0.14002650D-01 0.23852066D+05 0.23852066D+05 0.23852066D+05 0.11766909D+01  1  2 15  2  7  2       -2 0.367137516826D-04 0.100000000000D+01
  </mgrwgt>
  </event>
  <event>
  8     66 0.55102590E-06 0.54061434E+03 0.75467711E-02 0.91673164E-01
        2 -1    0    0  501    0 0.00000000E+00 0.00000000E+00 0.16581281E+04 0.16581282E+04 0.32000000E+00 0.0000E+00 0.9000E+01
       -2 -1    0    0    0  501 0.00000000E+00 0.00000000E+00 -.51409740E+03 0.51409750E+03 0.32000000E+00 0.0000E+00 0.9000E+01
       25  2    1    2    0    0 0.37227069E+03 -.33495468E+03 -.28887938E+03 0.65155536E+03 0.30048791E+03 0.0000E+00 0.0000E+00
       23  2    1    2    0    0 -.37227069E+03 0.33495468E+03 0.14329101E+04 0.15206703E+04 0.91796937E+02 0.0000E+00 0.0000E+00
       23  1    3    3    0    0 0.26009919E+03 -.81168647E+02 -.10237940E+03 0.30501923E+03 0.91188000E+02 0.0000E+00 0.9000E+01
      -11  1    4    4    0    0 -.19605547E+03 0.15453124E+03 0.58469872E+03 0.63575958E+03 0.51099893E-03 0.0000E+00 0.9000E+01
       11  1    4    4    0    0 -.17621522E+03 0.18042344E+03 0.84821139E+03 0.88491072E+03 0.51099893E-03 0.0000E+00 0.9000E+01
       23  1    3    3    0    0 0.11217150E+03 -.25378603E+03 -.18649998E+03 0.34653613E+03 0.91188000E+02 0.0000E+00 0.9000E+01
#aMCatNLO 1  0  0  1  2 0.22585878D+03 0.00000000D+00  -5  7  0 0.00000000D+00 0.00000000D+00 0.00000000D+00 0.00000000D+00 0.00000000D+00
  <mgrwgt>
 0.1171415347D-03    4    2    0
 0.923276502149589D+03 0.000000000000000D+00 0.000000000000000D+00 0.923276502149589D+03
 0.923276502149589D+03 0.000000000000000D+00 0.000000000000000D+00 -.923276502149589D+03
 0.422243915851385D+03 0.260099186830431D+03 -.811686469229383D+02 -.309410305090764D+03
 0.385637436230796D+03 -.196055468208040D+03 0.154531239233852D+03 0.293936356562501D+03
 0.515471733744560D+03 -.176215222714454D+03 0.180423441565963D+03 0.449562771264272D+03
 0.523199918472436D+03 0.112171504092064D+03 -.253786033876876D+03 -.434088822736008D+03
 0.000000000000000D+00 -.000000000000000D+00 0.000000000000000D+00 -.000000000000000D+00
 0.102816129431658D+04 0.000000000000000D+00 0.000000000000000D+00 0.102816129431658D+04
 0.106028506106507D+04 0.000000000000000D+00 0.000000000000000D+00 -.106028506106507D+04
 0.451034474823701D+03 0.289058638937850D+03 -.125806249823011D+03 -.309410305090764D+03
 0.359603288916066D+03 -.171341970978703D+03 0.116438278375915D+03 0.293936356562501D+03
 0.489069140066642D+03 -.142902875087723D+03 0.129076360153112D+03 0.449562771264272D+03
 0.560607635894355D+03 0.148112474691463D+03 -.309184829665840D+03 -.434088822736008D+03
 0.228131815680881D+03 -.122926267562887D+03 0.189476440959824D+03 -.321237667484890D+02
0.136165307083D-03 0.000000000000D+00 0.000000000000D+00 0.336344475942D-05 0.000000000000D+00  7 2 -2 23 -11 11 23 21 0 0.25509664D+00 0.79091918D-01 0.29226386D+06 0.29226386D+06 0.29226386D+06 0.10853923D+01  1  2  2  1  7  1        2 0.263049461320D-03 0.100000000000D+01
-.492995927088D-05 0.000000000000D+00 -.522910632347D-06 0.336344475942D-05 0.000000000000D+00  7 2 -2 23 -11 11 23 21 2 0.25509664D+00 0.79091918D-01 0.29226386D+06 0.29226386D+06 0.29226386D+06 0.10853923D+01  1  2  3  1  7  1        2 -.112198681274D-04 0.100000000000D+01
0.836861799754D-05 0.000000000000D+00 0.000000000000D+00 0.336344475942D-05 0.000000000000D+00  7 2 -2 23 -11 11 23 21 2 0.25509664D+00 0.79091918D-01 0.29226386D+06 0.29226386D+06 0.29226386D+06 0.10853923D+01  1  2 15  1  7  1        2 0.190457537642D-04 0.100000000000D+01
-.675499412622D-04 0.000000000000D+00 0.000000000000D+00 0.336344475942D-05 0.000000000000D+00  7 2 -2 23 -11 11 23 21 2 0.25509664D+00 0.79091918D-01 0.29226386D+06 0.29226386D+06 0.29226386D+06 0.10853923D+01  1  2  4  1  7  1        2 -.153733812255D-03 0.100000000000D+01
  </mgrwgt>
  </event>
  <event>
  8     66 0.55102590E-06 0.35707447E+03 0.75467711E-02 0.89351563E-01
        2 -1    0    0  501    0 0.00000000E+00 0.00000000E+00 0.52137289E+03 0.52137298E+03 0.32000000E+00 0.0000E+00 0.9000E+01
       -2 -1    0    0    0  501 0.00000000E+00 0.00000000E+00 -.50131881E+03 0.50131891E+03 0.32000000E+00 0.0000E+00 0.9000E+01
       25  2    1    2    0    0 -.69160157E+02 0.28764271E+03 0.36660260E+03 0.55766249E+03 0.29844351E+03 0.0000E+00 0.0000E+00
       23  2    1    2    0    0 0.69160157E+02 -.28764271E+03 -.34654852E+03 0.46502941E+03 0.92924793E+02 0.0000E+00 0.0000E+00
       23  1    3    3    0    0 0.82652515E+02 0.13943793E+03 0.12908845E+03 0.22639226E+03 0.91188000E+02 0.0000E+00 0.9000E+01
      -13  1    4    4    0    0 0.70622413E+02 -.28713342E+03 -.30985387E+03 0.42830195E+03 0.10565837E+00 0.0000E+00 0.9000E+01
       13  1    4    4    0    0 -.14622563E+01 -.50928562E+00 -.36694653E+02 0.36727459E+02 0.10565837E+00 0.0000E+00 0.9000E+01
       23  1    3    3    0    0 -.15181267E+03 0.14820477E+03 0.23751415E+03 0.33127023E+03 0.91188000E+02 0.0000E+00 0.9000E+01
#aMCatNLO 1  0  0  2  2 0.68585496D+03 0.00000000D+00  -5  7  0 0.00000000D+00 0.00000000D+00 0.00000000D+00 0.00000000D+00 0.00000000D+00
  <mgrwgt>
 0.4092128527D-03    5    2    0
 0.511247626634310D+03 0.000000000000000D+00 0.000000000000000D+00 0.511247626634310D+03
 0.511247626634310D+03 0.000000000000000D+00 0.000000000000000D+00 -.511247626634310D+03
 0.223904001389043D+03 0.826525151168376D+02 0.139437932562076D+03 0.124673073282482D+03
 0.434461955858061D+03 0.706225061034199D+02 -.287133792177339D+03 -.318314055783820D+03
 0.374536971136627D+02 -.146234942863171D+01 -.508915243578095D+00 -.374216777671101D+02
 0.326675598907852D+03 -.151812671791626D+03 0.148204774858841D+03 0.231062660268448D+03
 0.000000000000000D+00 0.000000000000000D+00 -.000000000000000D+00 -.000000000000000D+00
 0.648949048998780D+03 0.000000000000000D+00 0.000000000000000D+00 0.648949048998780D+03
 0.414278514963945D+04 0.000000000000000D+00 0.000000000000000D+00 -.414278514963945D+04
 0.278287182653572D+03 -.421757081584550D+02 0.227610059366663D+03 0.124673073282482D+03
 0.373338265336043D+03 -.130170079623238D+03 -.145304413647556D+03 -.318314055783820D+03
 0.457033253171388D+02 -.221324521559225D+02 0.140913640115000D+02 -.374216777671101D+02
 0.533887523975480D+03 -.365720380766159D+03 0.299297990361767D+03 0.231062660268448D+03
 0.356051790135600D+04 0.560198620703774D+03 -.395695000092374D+03 -.349383610064067D+04
0.359712466419D-04 0.000000000000D+00 0.000000000000D+00 0.107738194954D-06 0.000000000000D+00  7 2 -2 23 -13 13 23 21 0 0.80211229D-01 0.77125986D-01 0.12750218D+06 0.12750218D+06 0.12750218D+06 0.11131646D+01  1  2  2  2  7  2       -2 0.402733673320D-03 0.100000000000D+01
-.168540938978D-05 0.000000000000D+00 -.138139058552D-06 0.107738194954D-06 0.000000000000D+00  7 2 -2 23 -13 13 23 21 2 0.80211229D-01 0.77125986D-01 0.12750218D+06 0.12750218D+06 0.12750218D+06 0.11131646D+01  1  2  3  2  7  2       -2 -.233822679960D-04 0.100000000000D+01
0.216874609838D-05 0.000000000000D+00 0.000000000000D+00 0.107738194954D-06 0.000000000000D+00  7 2 -2 23 -13 13 23 21 2 0.80211229D-01 0.77125986D-01 0.12750218D+06 0.12750218D+06 0.12750218D+06 0.11131646D+01  1  2 15  2  7  2       -2 0.300877654979D-04 0.100000000000D+01
-.998385213514D-04 0.000000000000D+00 -.210078338222D-04 0.107738194954D-06 0.000000000000D+00  7 2 -2 23 -13 13 23 21 2 0.80211229D-01 0.64035165D+00 0.12750218D+06 0.12750218D+06 0.12750218D+06 0.11131646D+01  1  2  5  2  7  2       -2 -.739283876519D-07 0.100000000000D+01
-.282396917626D-04 0.000000000000D+00 -.538291673924D-05 0.107738194954D-06 0.000000000000D+00  7 2 21 23 -13 13 23 2 2 0.80211229D-01 0.64035165D+00 0.12750218D+06 0.12750218D+06 0.12750218D+06 0.11131646D+01  1  2  5  4  7  2       -2 -.152389736304D-06 0.100000000000D+01
  </mgrwgt>
  </event>
  <event>
  8     66 0.55102590E-06 0.22239307E+03 0.75467711E-02 0.98899225E-01
        2 -1    0    0  501    0 0.00000000E+00 0.00000000E+00 0.74036190E+03 0.74036197E+03 0.32000000E+00 0.0000E+00 0.9000E+01
       -2 -1    0    0    0  501 0.00000000E+00 0.00000000E+00 -.91730216E+02 0.91730774E+02 0.32000000E+00 0.0000E+00 0.9000E+01
       25  2    1    2    0    0 -.11416596E+03 -.67896826E+02 0.29322532E+03 0.43952045E+03 0.29925455E+03 0.0000E+00 0.0000E+00
       23  2    1    2    0    0 0.11416596E+03 0.67896826E+02 0.35540636E+03 0.39257229E+03 0.10077440E+03 0.0000E+00 0.0000E+00
       23  1    3    3    0    0 -.23984258E+02 -.11632119E+03 0.45677269E+02 0.15654881E+03 0.91188000E+02 0.0000E+00 0.9000E+01
      -11  1    4    4    0    0 -.55892152E+01 0.32653805E+02 0.32640941E+02 0.46507433E+02 0.51099893E-03 0.0000E+00 0.9000E+01
       11  1    4    4    0    0 0.11975518E+03 0.35243021E+02 0.32276542E+03 0.34606486E+03 0.51099893E-03 0.0000E+00 0.9000E+01
       23  1    3    3    0    0 -.90181706E+02 0.48424366E+02 0.24754806E+03 0.28297164E+03 0.91188000E+02 0.0000E+00 0.9000E+01
#aMCatNLO 1  0  0  2  2 0.21452871D+03 0.00000000D+00  -5  7  0 0.00000000D+00 0.00000000D+00 0.00000000D+00 0.00000000D+00 0.00000000D+00
  <mgrwgt>
 0.2361084214D-03    3    2    0
 0.260602797086280D+03 0.000000000000000D+00 0.000000000000000D+00 0.260602797086280D+03
 0.260602797086280D+03 0.000000000000000D+00 0.000000000000000D+00 -.260602797086280D+03
 0.193081967337545D+03 -.239842586257262D+02 -.116321192737836D+03 -.121899672785280D+03
 0.336269381302996D+02 -.558921378700202D+01 0.326538039145497D+02 -.576721312007115D+01
 0.150808403131490D+03 0.119755179016466D+03 0.352430228771165D+02 0.846156066709168D+02
 0.143688285573224D+03 -.901817066037377D+02 0.484243659461701D+02 0.430512792344340D+02
 0.000000000000000D+00 0.000000000000000D+00 -.000000000000000D+00 0.000000000000000D+00
 0.458300178839341D+03 0.000000000000000D+00 0.000000000000000D+00 0.458300178839341D+03
 0.347007677881270D+03 0.000000000000000D+00 0.000000000000000D+00 -.347007677881270D+03
 0.186015621863851D+03 -.818909448248749D+02 -.687088288644642D+02 -.121899672785280D+03
 0.466770387605787D+02 -.178555465805176D+02 0.427394976174873D+02 -.576721312007115D+01
 0.134222541040425D+03 0.762170560862202D+02 0.710411851858575D+02 0.846156066709168D+02
 0.196713966452249D+03 -.142177728079492D+03 0.911768295555917D+02 0.430512792344340D+02
 0.241678688603507D+03 0.165707163398665D+03 -.136248683494472D+03 0.111292500958071D+03
0.140730203553D-05 0.000000000000D+00 0.000000000000D+00 0.216936196439D-08 0.000000000000D+00  7 2 -2 23 -11 11 23 21 0 0.11390188D+00 0.14112389D-01 0.49458676D+05 0.49458676D+05 0.49458676D+05 0.11477115D+01  1  2  2  2  7  2       -2 0.232934851680D-03 0.100000000000D+01
-.757937962691D-07 0.000000000000D+00 -.540441036759D-08 0.216936196439D-08 0.000000000000D+00  7 2 -2 23 -11 11 23 21 2 0.11390188D+00 0.14112389D-01 0.49458676D+05 0.49458676D+05 0.49458676D+05 0.11477115D+01  1  2  3  2  7  2       -2 -.165251817762D-04 0.100000000000D+01
0.903495753678D-07 0.000000000000D+00 0.000000000000D+00 0.216936196439D-08 0.000000000000D+00  7 2 -2 23 -11 11 23 21 2 0.11390188D+00 0.14112389D-01 0.49458676D+05 0.49458676D+05 0.49458676D+05 0.11477115D+01  1  2 15  2  7  2       -2 0.196987514790D-04 0.100000000000D+01
  </mgrwgt>
  </event>
  <event>
  8     66 0.55102590E-06 0.16881357E+03 0.75467711E-02 0.10790114E+00
        2 -1    0    0  501    0 0.00000000E+00 0.00000000E+00 0.18796740E+04 0.18796740E+04 0.32000000E+00 0.0000E+00 0.9000E+01
       -2 -1    0    0    0  501 0.00000000E+00 0.00000000E+00 -.40416805E+02 0.40418072E+02 0.32000000E+00 0.0000E+00 0.9000E+01
       25  2    1    2    0    0 -.54577438E+02 -.83569666E+02 0.65395297E+03 0.72623421E+03 0.29966490E+03 0.0000E+00 0.0000E+00
       23  2    1    2    0    0 0.54577438E+02 0.83569666E+02 0.11853042E+04 0.11938579E+04 0.10192138E+03 0.0000E+00 0.0000E+00
       23  1    3    3    0    0 -.55938195E+02 -.12964561E+02 0.57840715E+03 0.58835979E+03 0.91188000E+02 0.0000E+00 0.9000E+01
      -13  1    4    4    0    0 0.33521211E+02 0.58730617E+01 0.10119830E+03 0.10676737E+03 0.10565837E+00 0.0000E+00 0.9000E+01
       13  1    4    4    0    0 0.21056226E+02 0.77696604E+02 0.10841059E+04 0.10870905E+04 0.10565837E+00 0.0000E+00 0.9000E+01
       23  1    3    3    0    0 0.13607574E+01 -.70605105E+02 0.75545816E+02 0.13787441E+03 0.91188000E+02 0.0000E+00 0.9000E+01
#aMCatNLO 1  0  0  2  2 0.20779066D+02 0.00000000D+00  -5  7  0 0.00000000D+00 0.00000000D+00 0.00000000D+00 0.00000000D+00 0.00000000D+00
  <mgrwgt>
 0.2116363856D-03    4    2    0
 0.275629568825486D+03 0.000000000000000D+00 0.000000000000000D+00 0.275629568825486D+03
 0.275629568825486D+03 0.000000000000000D+00 0.000000000000000D+00 -.275629568825486D+03
 0.119481868857020D+03 -.559382026286326D+02 -.129645728521390D+02 0.516091365845797D+02
 0.342368550332414D+02 0.335211815792417D+02 0.587300606857147D+01 -.374171455581752D+01
 0.169365676083237D+03 0.210562785833025D+02 0.776966937978874D+02 0.149012043607997D+03
 0.228174737677472D+03 0.136074246608849D+01 -.706051270143199D+02 -.196879465636760D+03
 0.000000000000000D+00 0.000000000000000D+00 -.000000000000000D+00 0.000000000000000D+00
 0.305355950737765D+03 0.000000000000000D+00 0.000000000000000D+00 0.305355950737765D+03
 0.279480577535498D+03 0.000000000000000D+00 0.000000000000000D+00 -.279480577535498D+03
 0.120057177041536D+03 -.579268753552231D+02 -.891339148457855D+01 0.516091365845797D+02
 0.339031037238492D+02 0.329554780754020D+02 0.702541665060229D+01 -.374171455581752D+01
 0.171765215881587D+03 0.182241820518034D+02 0.834660376150638D+02 0.149012043607997D+03
 0.225925123239212D+03 -.240923167389348D+01 -.629252062370762D+02 -.196879465636760D+03
 0.331859083870786D+02 0.915644690191115D+01 -.186528565440114D+02 0.258753732022668D+02
0.216580725817D-05 0.000000000000D+00 0.000000000000D+00 0.662193149994D-08 0.000000000000D+00  7 2 -2 23 -13 13 23 21 0 0.28918071D+00 0.62180695D-02 0.28498020D+05 0.28498020D+05 0.28498020D+05 0.11694112D+01  1  2  2  2  7  2       -2 0.283648951926D-03 0.100000000000D+01
-.851595523736D-07 0.000000000000D+00 -.831727014152D-08 0.662193149994D-08 0.000000000000D+00  7 2 -2 23 -13 13 23 21 2 0.28918071D+00 0.62180695D-02 0.28498020D+05 0.28498020D+05 0.28498020D+05 0.11694112D+01  1  2  3  2  7  2       -2 -.152520868033D-04 0.100000000000D+01
0.134041441826D-06 0.000000000000D+00 0.000000000000D+00 0.662193149994D-08 0.000000000000D+00  7 2 -2 23 -13 13 23 21 2 0.28918071D+00 0.62180695D-02 0.28498020D+05 0.28498020D+05 0.28498020D+05 0.11694112D+01  1  2 15  2  7  2       -2 0.240068395029D-04 0.100000000000D+01
-.450961814073D-06 0.000000000000D+00 0.000000000000D+00 0.662193149994D-08 0.000000000000D+00  7 2 -2 23 -13 13 23 21 2 0.28918071D+00 0.62180695D-02 0.28498020D+05 0.28498020D+05 0.28498020D+05 0.11694112D+01  1  2  4  2  7  2       -2 -.807673190089D-04 0.100000000000D+01
  </mgrwgt>
  </event>
  <event>
  7     66 0.55102590E-06 0.53042508E+03 0.75467711E-02 0.88691830E-01
        2 -1    0    0  501    0 0.00000000E+00 0.00000000E+00 0.32590243E+04 0.32590243E+04 0.32000000E+00 0.0000E+00 0.9000E+01
       -2 -1    0    0    0  501 0.00000000E+00 0.00000000E+00 -.11558128E+03 0.11558173E+03 0.32000000E+00 0.0000E+00 0.9000E+01
       23  2    1    2    0    0 -.16094180E+03 0.45340013E+03 0.22956751E+04 0.23473173E+04 0.91104883E+02 0.0000E+00 0.0000E+00
       23  1    1    2    0    0 0.17569605E+03 -.12055297E+03 0.39230052E+03 0.45565016E+03 0.91188000E+02 0.0000E+00 0.9000E+01
      -11  1    3    3    0    0 -.13331039E+03 0.30741699E+03 0.14100831E+04 0.14493486E+04 0.51099893E-03 0.0000E+00 0.9000E+01
       11  1    3    3    0    0 -.27631407E+02 0.14598314E+03 0.88559204E+03 0.89796873E+03 0.51099893E-03 0.0000E+00 0.9000E+01
       23  1    1    2    0    0 -.14754247E+02 -.33284716E+03 0.45546733E+03 0.57163857E+03 0.91188000E+02 0.0000E+00 0.9000E+01
#aMCatNLO 1  0  0  2  2 0.56512562D+03 0.00000000D+00  -5  7  0 0.00000000D+00 0.00000000D+00 0.00000000D+00 0.00000000D+00 0.00000000D+00
  <mgrwgt>
 0.1427307574D-03    5    2    0
 0.613745044280939D+03 0.000000000000000D+00 0.000000000000000D+00 0.613745044280939D+03
 0.613745044280939D+03 0.000000000000000D+00 0.000000000000000D+00 -.613745044280939D+03
 0.248039035858227D+03 0.175696048442374D+03 -.120552973598790D+03 -.883515199852441D+02
 0.373497513370546D+03 -.133310393621703D+03 0.307416993851643D+03 0.164995525204858D+03
 0.200802089387735D+03 -.276314073318332D+02 0.145983140854282D+03 0.135081112734762D+03
 0.405151449945369D+03 -.147542474888381D+02 -.332847161107135D+03 -.211725117954375D+03
 0.000000000000000D+00 0.000000000000000D+00 -.000000000000000D+00 -.000000000000000D+00
 0.756169677026336D+03 0.000000000000000D+00 0.000000000000000D+00 0.756169677026336D+03
 0.166744532336394D+04 0.000000000000000D+00 0.000000000000000D+00 -.166744532336394D+04
 0.207696779600784D+03 0.162955580629764D+03 -.214985713583527D+02 -.883515199852441D+02
 0.559385188152827D+03 -.159389893254025D+03 0.510179504993700D+03 0.164995525204858D+03
 0.289344199603711D+03 -.413338481024280D+02 0.252516676335833D+03 0.135081112734762D+03
 0.294906095186771D+03 -.343249292702289D+02 -.180689311504882D+03 -.211725117954375D+03
 0.107228273784618D+04 0.720930899969182D+02 -.560508298466299D+03 -.911275646337601D+03
0.417714121850D-04 0.000000000000D+00 0.000000000000D+00 0.148391498517D-08 0.000000000000D+00  7 2 -2 23 -11 11 23 21 0 0.50138839D+00 0.17781771D-01 0.28135076D+06 0.28135076D+06 0.28135076D+06 0.10866201D+01  1  2  2  2  7  2       -2 0.156012649343D-03 0.100000000000D+01
-.226057142396D-05 0.000000000000D+00 -.160413221456D-06 0.148391498517D-08 0.000000000000D+00  7 2 -2 23 -11 11 23 21 2 0.50138839D+00 0.17781771D-01 0.28135076D+06 0.28135076D+06 0.28135076D+06 0.10866201D+01  1  2  3  2  7  2       -2 -.996906311249D-05 0.100000000000D+01
0.264939246519D-05 0.000000000000D+00 0.000000000000D+00 0.148391498517D-08 0.000000000000D+00  7 2 -2 23 -11 11 23 21 2 0.50138839D+00 0.17781771D-01 0.28135076D+06 0.28135076D+06 0.28135076D+06 0.10866201D+01  1  2 15  2  7  2       -2 0.116837541231D-04 0.100000000000D+01
-.165116841996D-04 0.000000000000D+00 -.148177549275D-04 0.148391498517D-08 0.000000000000D+00  7 2 -2 23 -11 11 23 21 2 0.50138839D+00 0.66393607D-01 0.28135076D+06 0.28135076D+06 0.28135076D+06 0.10866201D+01  1  2  5  2  7  2       -2 -.639764185489D-05 0.100000000000D+01
-.223645524497D-05 0.000000000000D+00 -.230734962865D-05 0.148391498517D-08 0.000000000000D+00  7 2 21 23 -11 11 23 2 2 0.50138839D+00 0.66393607D-01 0.28135076D+06 0.28135076D+06 0.28135076D+06 0.10866201D+01  1  2  5  4  7  2       -2 -.859894109783D-05 0.100000000000D+01
  </mgrwgt>
  </event>
  <event>
  8     66 0.55102590E-06 0.27376464E+03 0.75467711E-02 0.93714912E-01
        2 -1    0    0  501    0 0.00000000E+00 0.00000000E+00 0.15191210E+04 0.15191210E+04 0.32000000E+00 0.0000E+00 0.9000E+01
       -2 -1    0    0    0  501 0.00000000E+00 0.00000000E+00 -.60745669E+02 0.60746511E+02 0.32000000E+00 0.0000E+00 0.9000E+01
       25  2    1    2    0    0 0.18888285E+03 0.41035848E+02 0.11825289E+04 0.12348941E+04 0.29871094E+03 0.0000E+00 0.0000E+00
       23  2    1    2    0    0 -.18888285E+03 -.41035848E+02 0.27584646E+03 0.34497344E+03 0.74530125E+02 0.0000E+00 0.0000E+00
       23  1    3    3    0    0 0.13999211E+03 -.85545516E+02 0.53218105E+03 0.56431175E+03 0.91188000E+02 0.0000E+00 0.9000E+01
      -11  1    4    4    0    0 -.82145046E+01 0.53632566E+01 0.55116236E+02 0.55982516E+02 0.51099893E-03 0.0000E+00 0.9000E+01
       11  1    4    4    0    0 -.18066834E+03 -.46399105E+02 0.22073022E+03 0.28899093E+03 0.51099893E-03 0.0000E+00 0.9000E+01
       23  1    3    3    0    0 0.48890733E+02 0.12658136E+03 0.65034781E+03 0.67058234E+03 0.91188000E+02 0.0000E+00 0.9000E+01
#aMCatNLO 1  0  0  2  2 0.41791651D+03 0.00000000D+00  -5  7  0 0.00000000D+00 0.00000000D+00 0.00000000D+00 0.00000000D+00 0.00000000D+00
  <mgrwgt>
 0.3532915602D-02    3    2    0
 0.303777405288520D+03 0.000000000000000D+00 0.000000000000000D+00 0.303777405288520D+03
 0.303777405288520D+03 0.000000000000000D+00 0.000000000000000D+00 -.303777405288520D+03
 0.189971501418698D+03 0.139992113989653D+03 -.855455155755488D+02 0.292932209375449D+02
 0.132741947986025D+02 -.821450460587768D+01 0.536325655014931D+01 0.894212730889807D+01
 0.221642357220377D+03 -.180668342539648D+03 -.463991045445595D+02 -.119713857241527D+03
 0.182666757139362D+03 0.488907331558727D+02 0.126581363569959D+03 0.814785089950837D+02
 0.000000000000000D+00 -.000000000000000D+00 0.000000000000000D+00 0.000000000000000D+00
 0.970693778805163D+03 0.000000000000000D+00 0.000000000000000D+00 0.970693778805163D+03
 0.441238520970007D+03 0.000000000000000D+00 0.000000000000000D+00 -.441238520970007D+03
 0.343408601496706D+03 0.282962959097415D+03 -.169375580364650D+03 0.292932209375449D+02
 0.937100154634606D+01 -.214453153906830D+01 0.180416563846594D+01 0.894212730889807D+01
 0.177953341209093D+03 -.735579827912844D+02 -.109202597036482D+03 -.119713857241527D+03
 0.206679464716046D+03 0.153253753212155D+03 0.653887565995649D+02 0.814785089950837D+02
 0.674519890806979D+03 -.360514197979218D+03 0.211385255163102D+03 0.529455257835156D+03
0.319751024282D-04 0.000000000000D+00 0.000000000000D+00 0.339615691153D-09 0.000000000000D+00  7 2 -2 23 -11 11 23 21 0 0.23371099D+00 0.93455549D-02 0.74947080D+05 0.74947080D+05 0.74947080D+05 0.11321471D+01  1  2  2  2  7  2       -2 0.348751956232D-02 0.100000000000D+01
-.175302190395D-05 0.000000000000D+00 -.122792812562D-06 0.339615691153D-09 0.000000000000D+00  7 2 -2 23 -11 11 23 21 2 0.23371099D+00 0.93455549D-02 0.74947080D+05 0.74947080D+05 0.74947080D+05 0.11321471D+01  1  2  3  2  7  2       -2 -.245074297616D-03 0.100000000000D+01
0.207774078789D-05 0.000000000000D+00 0.000000000000D+00 0.339615691153D-09 0.000000000000D+00  7 2 -2 23 -11 11 23 21 2 0.23371099D+00 0.93455549D-02 0.74947080D+05 0.74947080D+05 0.74947080D+05 0.11321471D+01  1  2 15  2  7  2       -2 0.290470337577D-03 0.100000000000D+01
  </mgrwgt>
  </event>
  <event>
  8     66 0.55102590E-06 0.14272513E+03 0.75467711E-02 0.94182711E-01
        2 -1    0    0  501    0 0.00000000E+00 0.00000000E+00 0.10046127E+04 0.10046128E+04 0.32000000E+00 0.0000E+00 0.9000E+01
       -2 -1    0    0    0  501 0.00000000E+00 0.00000000E+00 -.17000008E+03 0.17000038E+03 0.32000000E+00 0.0000E+00 0.9000E+01
       25  2    1    2    0    0 0.45695891E+02 0.25728510E+03 0.80257571E+03 0.89554423E+03 0.29931246E+03 0.0000E+00 0.0000E+00
       23  2    1    2    0    0 -.45695891E+02 -.25728510E+03 0.32036925E+02 0.27906892E+03 0.92570863E+02 0.0000E+00 0.0000E+00
       23  1    3    3    0    0 0.11980259E+03 0.50831746E+02 0.35110882E+03 0.38539484E+03 0.91188000E+02 0.0000E+00 0.9000E+01
      -13  1    4    4    0    0 -.12052996E+02 -.90706139E+02 0.56250169E+02 0.10741029E+03 0.10565837E+00 0.0000E+00 0.9000E+01
       13  1    4    4    0    0 -.33642896E+02 -.16657896E+03 -.24213243E+02 0.17165863E+03 0.10565837E+00 0.0000E+00 0.9000E+01
       23  1    3    3    0    0 -.74106701E+02 0.20645335E+03 0.45146689E+03 0.51014938E+03 0.91188000E+02 0.0000E+00 0.9000E+01
#aMCatNLO 1  0  0  2  1 0.32290725D+03 0.00000000D+00  -5  7  0 0.00000000D+00 0.00000000D+00 0.00000000D+00 0.00000000D+00 0.00000000D+00
  <mgrwgt>
 0.1529425094D-03    7    2    0
 0.413260750959414D+03 0.000000000000000D+00 0.000000000000000D+00 0.413260750959414D+03
 0.413260750959414D+03 0.000000000000000D+00 0.000000000000000D+00 -.413260750959414D+03
 0.193158905033914D+03 0.119802592431088D+03 0.508317462857913D+02 0.109811582568635D+03
 0.958453648737304D+02 -.120529674119801D+02 -.907060402545467D+02 -.285214692062805D+02
 0.268403603338907D+03 -.336429238917152D+02 -.166579055204001D+03 -.207750009204977D+03
 0.269113628672276D+03 -.741067011273928D+02 0.206453349172757D+03 0.126459895842622D+03
 0.000000000000000D+00 0.000000000000000D+00 -.000000000000000D+00 -.000000000000000D+00
 0.469372984472318D+03 0.000000000000000D+00 0.000000000000000D+00 0.469372984472318D+03
 0.145823764044994D+04 0.000000000000000D+00 0.000000000000000D+00 -.145823764044994D+04
 0.184391185791023D+03 0.654162692704570D+02 0.966798122770547D+02 0.109811582568635D+03
 0.836598691500609D+02 -.379108069513946D+02 -.689076934515631D+02 -.285214692062805D+02
 0.256263082420794D+03 -.109221483179032D+03 -.102865780020916D+03 -.207750009204977D+03
 0.363045364182569D+03 -.165169593468861D+03 0.283220029742352D+03 0.126459895842622D+03
 0.104025112337781D+04 0.246885614328830D+03 -.208126368546928D+03 -.988864655977623D+03
0.563559298085D-05 0.000000000000D+00 0.000000000000D+00 0.214711175535D-06 0.000000000000D+00  7 2 -2 23 -13 13 23 21 0 0.15455583D+00 0.26153885D-01 0.10820939D+06 0.10820939D+06 0.10820939D+06 0.11189210D+01  1  2  2  2  7  2       -2 0.227011381384D-03 0.100000000000D+01
-.293270746541D-06 0.000000000000D+00 -.216421609322D-07 0.214711175535D-06 0.000000000000D+00  7 2 -2 23 -13 13 23 21 2 0.15455583D+00 0.26153885D-01 0.10820939D+06 0.10820939D+06 0.10820939D+06 0.11189210D+01  1  2  3  2  7  2       -2 -.147902533145D-04 0.100000000000D+01
0.359107774895D-06 0.000000000000D+00 0.000000000000D+00 0.214711175535D-06 0.000000000000D+00  7 2 -2 23 -13 13 23 21 2 0.15455583D+00 0.26153885D-01 0.10820939D+06 0.10820939D+06 0.10820939D+06 0.11189210D+01  1  2 15  2  7  2       -2 0.181105514973D-04 0.100000000000D+01
0.540124379630D-08 0.000000000000D+00 0.000000000000D+00 0.214711175535D-06 0.000000000000D+00  7 2 -2 23 -13 13 23 21 2 0.15455583D+00 0.88738693D-01 0.27041353D+06 0.27041353D+06 0.27041353D+06 0.10879039D+01  1  2 12  2  7  2       -2 0.224439693851D-07 0.100000000000D+01
-.894614939194D-05 0.000000000000D+00 -.199919191545D-05 0.214711175535D-06 0.000000000000D+00  7 2 -2 23 -13 13 23 21 2 0.15455583D+00 0.99322638D-01 0.10820939D+06 0.10820939D+06 0.10820939D+06 0.11189210D+01  1  2  5  2  7  2       -2 -.314153842325D-04 0.100000000000D+01
0.767927872811D-09 0.000000000000D+00 0.000000000000D+00 0.214711175535D-06 0.000000000000D+00  7 2 21 23 -13 13 23 2 2 0.15455583D+00 0.88738693D-01 0.27041353D+06 0.27041353D+06 0.27041353D+06 0.10879039D+01  1  2 12  4  7  2       -2 0.301154330714D-07 0.100000000000D+01
-.137454974534D-05 0.000000000000D+00 -.316098422792D-06 0.214711175535D-06 0.000000000000D+00  7 2 21 23 -13 13 23 2 2 0.15455583D+00 0.99322638D-01 0.10820939D+06 0.10820939D+06 0.10820939D+06 0.11189210D+01  1  2  5  4  7  2       -2 -.460263453752D-04 0.100000000000D+01
  </mgrwgt>
  </event>
  <event>
  8     66 0.55102590E-06 0.24084591E+03 0.75467711E-02 0.90900575E-01
        2 -1    0    0  501    0 0.00000000E+00 0.00000000E+00 0.90922568E+03 0.90922573E+03 0.32000000E+00 0.0000E+00 0.9000E+01
       -2 -1    0    0    0  501 0.00000000E+00 0.00000000E+00 -.78800191E+02 0.78800841E+02 0.32000000E+00 0.0000E+00 0.9000E+01
       25  2    1    2    0    0 0.12909444E+03 -.99935267E+02 0.44789438E+03 0.56224183E+03 0.29808401E+03 0.0000E+00 0.0000E+00
       23  2    1    2    0    0 -.12909444E+03 0.99935267E+02 0.38253111E+03 0.42578474E+03 0.91160099E+02 0.0000E+00 0.0000E+00
       23  1    3    3    0    0 0.17296729E+03 -.38263473E+02 0.37058298E+03 0.42074788E+03 0.91188000E+02 0.0000E+00 0.9000E+01
      -11  1    4    4    0    0 -.61087211E+02 0.37863069E+02 0.71370053E+02 0.10128644E+03 0.51099893E-03 0.0000E+00 0.9000E+01
       11  1    4    4    0    0 -.68007226E+02 0.62072198E+02 0.31116106E+03 0.32449830E+03 0.51099893E-03 0.0000E+00 0.9000E+01
       23  1    3    3    0    0 -.43872851E+02 -.61671794E+02 0.77311391E+02 0.14149396E+03 0.91188000E+02 0.0000E+00 0.9000E+01
#aMCatNLO 1  0  0  2  2 0.63254710D+03 0.00000000D+00  -5  7  0 0.00000000D+00 0.00000000D+00 0.00000000D+00 0.00000000D+00 0.00000000D+00
  <mgrwgt>
 0.2930266285D-03    5    2    0
 0.267670516721214D+03 0.000000000000000D+00 0.000000000000000D+00 0.267670516721214D+03
 0.267670516721214D+03 0.000000000000000D+00 0.000000000000000D+00 -.267670516721214D+03
 0.201681771054197D+03 0.172967287359935D+03 -.382634728912446D+02 0.312811377223418D+02
 0.762246588842660D+02 -.610872108860766D+02 0.378630693739662D+02 -.253956544661668D+02
 0.116219126230192D+03 -.680072257727079D+02 0.620721976351347D+02 0.709150535863430D+02
 0.141215477273774D+03 -.438728507011504D+02 -.616717941178562D+02 -.768005368425180D+02
 0.000000000000000D+00 -.000000000000000D+00 -.000000000000000D+00 -.000000000000000D+00
 0.535359630430108D+03 0.000000000000000D+00 0.000000000000000D+00 0.535359630430108D+03
 0.124088046325003D+04 0.000000000000000D+00 0.000000000000000D+00 -.124088046325003D+04
 0.508047993929153D+03 0.498743593258022D+03 0.859251990448367D+01 0.312811377223418D+02
 0.529163811172883D+02 -.180959139307070D+01 0.463888941857347D+02 -.253956544661668D+02
 0.110804577046004D+03 0.361999627286193D+02 0.770601853594745D+02 0.709150535863430D+02
 0.156908223199163D+03 0.929702727417835D+02 -.419898212729897D+02 -.768005368425180D+02
 0.947562918388530D+03 -.626104237335354D+03 -.900517781767031D+02 -.705520832819922D+03
0.167475523784D-05 0.000000000000D+00 0.000000000000D+00 0.330328947819D-07 0.000000000000D+00  7 2 -2 23 -11 11 23 21 0 0.13988093D+00 0.12123161D-01 0.58006754D+05 0.58006754D+05 0.58006754D+05 0.11416641D+01  1  2  2  2  7  2       -2 0.271688717156D-03 0.100000000000D+01
-.917804682021D-07 0.000000000000D+00 -.643150108650D-08 0.330328947819D-07 0.000000000000D+00  7 2 -2 23 -11 11 23 21 2 0.13988093D+00 0.12123161D-01 0.58006754D+05 0.58006754D+05 0.58006754D+05 0.11416641D+01  1  2  3  2  7  2       -2 -.194065002540D-04 0.100000000000D+01
0.109038749903D-06 0.000000000000D+00 0.000000000000D+00 0.330328947819D-07 0.000000000000D+00  7 2 -2 23 -11 11 23 21 2 0.13988093D+00 0.12123161D-01 0.58006754D+05 0.58006754D+05 0.58006754D+05 0.11416641D+01  1  2 15  2  7  2       -2 0.230556737085D-04 0.100000000000D+01
0.183026308357D-05 0.000000000000D+00 -.110741386924D-05 0.330328947819D-07 0.000000000000D+00  7 2 -2 23 -11 11 23 21 2 0.13988093D+00 0.10759772D+00 0.58006754D+05 0.58006754D+05 0.58006754D+05 0.11416641D+01  1  2  5  2  7  2       -2 0.650174316578D-05 0.100000000000D+01
0.327555484671D-06 0.000000000000D+00 -.291113862050D-06 0.330328947819D-07 0.000000000000D+00  7 2 21 23 -11 11 23 2 2 0.13988093D+00 0.10759772D+00 0.58006754D+05 0.58006754D+05 0.58006754D+05 0.11416641D+01  1  2  5  4  7  2       -2 0.111869947144D-04 0.100000000000D+01
  </mgrwgt>
  </event>
  <event>
  8     66 0.55102590E-06 0.14993825E+03 0.75467711E-02 0.10066912E+00
        2 -1    0    0  501    0 0.00000000E+00 0.00000000E+00 0.19355674E+04 0.19355674E+04 0.32000000E+00 0.0000E+00 0.9000E+01
       -2 -1    0    0    0  501 0.00000000E+00 0.00000000E+00 -.23599044E+02 0.23601214E+02 0.32000000E+00 0.0000E+00 0.9000E+01
       25  2    1    2    0    0 -.44911880E+02 0.99200169E+01 0.11513426E+04 0.11905865E+04 0.29965169E+03 0.0000E+00 0.0000E+00
       23  2    1    2    0    0 0.44911880E+02 -.99200169E+01 0.76062581E+03 0.76858211E+03 0.10025647E+03 0.0000E+00 0.0000E+00
       23  1    3    3    0    0 -.13403555E+03 -.28796559E+02 0.74400318E+03 0.76200443E+03 0.91188000E+02 0.0000E+00 0.9000E+01
      -13  1    4    4    0    0 0.69251361E+02 -.32385251E+02 0.48808997E+03 0.49404087E+03 0.10565837E+00 0.0000E+00 0.9000E+01
       13  1    4    4    0    0 -.24339481E+02 0.22465234E+02 0.27253584E+03 0.27454124E+03 0.10565837E+00 0.0000E+00 0.9000E+01
       23  1    3    3    0    0 0.89123672E+02 0.38716575E+02 0.40733938E+03 0.42858211E+03 0.91188000E+02 0.0000E+00 0.9000E+01
#aMCatNLO 1  0  0  2  1 0.16800734D+03 0.00000000D+00  -5  7  0 0.00000000D+00 0.00000000D+00 0.00000000D+00 0.00000000D+00 0.00000000D+00
  <mgrwgt>
 0.6575252803D-04    7    2    0
 0.213728080445056D+03 0.000000000000000D+00 0.000000000000000D+00 0.213728080445056D+03
 0.213728080445056D+03 0.000000000000000D+00 0.000000000000000D+00 -.213728080445056D+03
 0.164663006905627D+03 -.134040344271044D+03 -.287955002302696D+02 0.163088117012837D+01
 0.811732220685238D+02 0.692526954482353D+02 -.323834840060955D+02 0.272849064093467D+02
 0.392795071511446D+02 -.243318810460657D+02 0.224614938021941D+02 0.211262997936441D+02
 0.142340424764816D+03 0.891195298688749D+02 0.387174904341711D+02 -.500420873731192D+02
 0.000000000000000D+00 0.000000000000000D+00 0.000000000000000D+00 -.000000000000000D+00
 0.245348515977103D+03 0.000000000000000D+00 0.000000000000000D+00 0.245348515977103D+03
 0.678977097265211D+03 0.000000000000000D+00 0.000000000000000D+00 -.678977097265211D+03
 0.199386969025612D+03 -.148982554717615D+03 -.961324642857039D+02 0.163088117012837D+01
 0.937472031230468D+02 0.620731926947186D+02 -.647378615982281D+02 0.272849064093467D+02
 0.356576767176246D+02 -.274076323046017D+02 0.860064284710467D+01 0.211262997936441D+02
 0.130495901091465D+03 0.779211283637375D+02 -.117480255165049D+02 -.500420873731192D+02
 0.465037863284566D+03 0.363958659637603D+02 0.164017708553332D+03 -.433628581288107D+03
0.788220672221D-06 0.000000000000D+00 0.000000000000D+00 0.173917217928D-08 0.000000000000D+00  7 2 -2 23 -13 13 23 21 0 0.29777977D+00 0.36307911D-02 0.41508614D+05 0.41508614D+05 0.41508614D+05 0.11544739D+01  1  2  2  2  7  2       -2 0.212709730056D-03 0.100000000000D+01
-.436679978716D-07 0.000000000000D+00 -.302697492460D-08 0.173917217928D-08 0.000000000000D+00  7 2 -2 23 -13 13 23 21 2 0.29777977D+00 0.36307911D-02 0.41508614D+05 0.41508614D+05 0.41508614D+05 0.11544739D+01  1  2  3  2  7  2       -2 -.157061979375D-04 0.100000000000D+01
0.501364618242D-07 0.000000000000D+00 0.000000000000D+00 0.173917217928D-08 0.000000000000D+00  7 2 -2 23 -13 13 23 21 2 0.29777977D+00 0.36307911D-02 0.41508614D+05 0.41508614D+05 0.41508614D+05 0.11544739D+01  1  2 15  2  7  2       -2 0.180327294970D-04 0.100000000000D+01
0.757421514890D-07 0.000000000000D+00 0.000000000000D+00 0.173917217928D-08 0.000000000000D+00  7 2 -2 23 -13 13 23 21 2 0.29777977D+00 0.11143233D-01 0.91906407D+05 0.91906407D+05 0.91906407D+05 0.11247424D+01  1  2 12  2  7  2       -2 0.476309674419D-05 0.100000000000D+01
-.104633270258D-05 0.000000000000D+00 -.282507032091D-06 0.173917217928D-08 0.000000000000D+00  7 2 -2 23 -13 13 23 21 2 0.29777977D+00 0.13448246D-01 0.41508614D+05 0.41508614D+05 0.41508614D+05 0.11544739D+01  1  2  5  2  7  2       -2 -.527011318116D-04 0.100000000000D+01
0.970570382712D-08 0.000000000000D+00 0.000000000000D+00 0.173917217928D-08 0.000000000000D+00  7 2 21 23 -13 13 23 2 2 0.29777977D+00 0.11143233D-01 0.91906407D+05 0.91906407D+05 0.91906407D+05 0.11247424D+01  1  2 12  4  7  2       -2 0.874521057622D-05 0.100000000000D+01
-.155018072559D-06 0.000000000000D+00 -.436695984525D-07 0.173917217928D-08 0.000000000000D+00  7 2 21 23 -13 13 23 2 2 0.29777977D+00 0.13448246D-01 0.41508614D+05 0.41508614D+05 0.41508614D+05 0.11544739D+01  1  2  5  4  7  2       -2 -.110090909093D-03 0.100000000000D+01
  </mgrwgt>
  </event>
  <event>
  8     66 0.55102590E-06 0.89190328E+02 0.75467711E-02 0.10220760E+00
        2 -1    0    0  501    0 0.00000000E+00 0.00000000E+00 0.25785848E+04 0.25785848E+04 0.32000000E+00 0.0000E+00 0.9000E+01
       -2 -1    0    0    0  501 0.00000000E+00 0.00000000E+00 -.24777005E+02 0.24779072E+02 0.32000000E+00 0.0000E+00 0.9000E+01
       25  2    1    2    0    0 0.71647694E+02 0.11113353E+03 0.20057440E+04 0.20323663E+04 0.30003251E+03 0.0000E+00 0.0000E+00
       23  2    1    2    0    0 -.71647694E+02 -.11113353E+03 0.54806374E+03 0.57099759E+03 0.90445199E+02 0.0000E+00 0.0000E+00
       23  1    3    3    0    0 -.12195697E+02 -.32668073E+02 0.12249619E+04 0.12288462E+04 0.91188000E+02 0.0000E+00 0.9000E+01
      -11  1    4    4    0    0 0.94694974E+00 0.14806327E+02 0.50648873E+02 0.52777196E+02 0.51099893E-03 0.0000E+00 0.9000E+01
       11  1    4    4    0    0 -.72594644E+02 -.12593986E+03 0.49741486E+03 0.51822039E+03 0.51099893E-03 0.0000E+00 0.9000E+01
       23  1    3    3    0    0 0.83843391E+02 0.14380160E+03 0.78078214E+03 0.80352014E+03 0.91188000E+02 0.0000E+00 0.9000E+01
#aMCatNLO 1  0  0  1  2 0.84175795D+02 0.00000000D+00  -5  7  0 0.00000000D+00 0.00000000D+00 0.00000000D+00 0.00000000D+00 0.00000000D+00
  <mgrwgt>
 0.2564049810D-03    9    2    0
 0.252769311179302D+03 0.000000000000000D+00 0.000000000000000D+00 0.252769311179302D+03
 0.252769311179302D+03 0.000000000000000D+00 0.000000000000000D+00 -.252769311179302D+03
 0.140081150454313D+03 -.121956971655764D+02 -.326680729796026D+02 0.100456654070544D+03
 0.159251112552880D+02 0.946949738653949D+00 0.148063274409603D+02 -.578663307950587D+01
 0.155901646345434D+03 -.725946435622081D+02 -.125939855274702D+03 -.563426473701762D+02
 0.193630714303567D+03 0.838433909891305D+02 0.143801600813344D+03 -.383273736208616D+02
 0.000000000000000D+00 -.000000000000000D+00 0.000000000000000D+00 0.000000000000000D+00
 0.448636553342935D+03 0.000000000000000D+00 0.000000000000000D+00 0.448636553342935D+03
 0.265456749031587D+03 0.000000000000000D+00 0.000000000000000D+00 -.265456749031587D+03
 0.141060102288455D+03 0.106186673245621D+02 -.371268860912245D+02 0.100456654070544D+03
 0.158262266576171D+02 0.352354278264010D+01 0.143027610649253D+02 -.578663307950587D+01
 0.150207174914788D+03 -.477541829263330D+02 -.130794646282790D+03 -.563426473701762D+02
 0.205405143060321D+03 0.116224798575957D+03 0.137473015821055D+03 -.383273736208616D+02
 0.201594655453340D+03 -.826128257568265D+02 0.161457554880342D+02 0.183179804311348D+03
0.211378473408D-05 0.000000000000D+00 0.000000000000D+00 0.190343106765D-06 0.000000000000D+00  7 2 -2 23 -11 11 23 21 0 0.39670551D+00 0.38120075D-02 0.50092796D+05 0.50092796D+05 0.50092796D+05 0.11472246D+01  1  2  2  1  7  1        2 0.236560760040D-03 0.100000000000D+01
-.115319129447D-06 0.000000000000D+00 -.811748995118D-08 0.190343106765D-06 0.000000000000D+00  7 2 -2 23 -11 11 23 21 2 0.39670551D+00 0.38120075D-02 0.50092796D+05 0.50092796D+05 0.50092796D+05 0.11472246D+01  1  2  3  1  7  1        2 -.169855721119D-04 0.100000000000D+01
0.136134204262D-06 0.000000000000D+00 0.000000000000D+00 0.190343106765D-06 0.000000000000D+00  7 2 -2 23 -11 11 23 21 2 0.39670551D+00 0.38120075D-02 0.50092796D+05 0.50092796D+05 0.50092796D+05 0.11472246D+01  1  2 15  1  7  1        2 0.200514637467D-04 0.100000000000D+01
0.267277896585D-05 0.000000000000D+00 0.000000000000D+00 0.190343106765D-06 0.000000000000D+00  7 2 -2 23 -11 11 23 21 2 0.70714019D+00 0.38120075D-02 0.72622402D+05 0.72622402D+05 0.72622402D+05 0.11333043D+01  1  2 12  1  7  1        2 0.122685402125D-04 0.100000000000D+01
-.282860315433D-05 0.000000000000D+00 0.000000000000D+00 0.190343106765D-06 0.000000000000D+00  7 2 -2 23 -11 11 23 21 2 0.39670551D+00 0.38120075D-02 0.50092796D+05 0.50092796D+05 0.50092796D+05 0.11472246D+01  1  2  4  1  7  1        2 -.416630294422D-03 0.100000000000D+01
-.312980701382D-05 0.000000000000D+00 -.469810463367D-06 0.190343106765D-06 0.000000000000D+00  7 2 -2 23 -11 11 23 21 2 0.70807108D+00 0.38120075D-02 0.50092796D+05 0.50092796D+05 0.50092796D+05 0.11472246D+01  1  2  5  1  7  1        2 -.148843488326D-04 0.100000000000D+01
0.296027885541D-05 0.000000000000D+00 0.400667201192D-06 0.190343106765D-06 0.000000000000D+00  7 2 -2 23 -11 11 23 21 2 0.39670551D+00 0.38120075D-02 0.50092796D+05 0.50092796D+05 0.50092796D+05 0.11472246D+01  1  2  6  1  7  1        2 0.436025056825D-03 0.100000000000D+01
0.169829002333D-06 0.000000000000D+00 0.000000000000D+00 0.190343106765D-06 0.000000000000D+00  7 21 -2 23 -11 11 23 -2 2 0.70714019D+00 0.38120075D-02 0.72622402D+05 0.72622402D+05 0.72622402D+05 0.11333043D+01  1  2 12  3  7  1        2 0.837022206499D-08 0.100000000000D+01
-.174606102891D-06 0.000000000000D+00 -.299102929048D-07 0.190343106765D-06 0.000000000000D+00  7 21 -2 23 -11 11 23 -2 2 0.70807108D+00 0.38120075D-02 0.50092796D+05 0.50092796D+05 0.50092796D+05 0.11472246D+01  1  2  5  3  7  1        2 -.899471933531D-08 0.100000000000D+01
  </mgrwgt>
  </event>
  <event>
  9     66 0.55102590E-06 0.36901468E+03 0.75467711E-02 0.98103084E-01
        4 -1    0    0  502    0 0.00000000E+00 0.00000000E+00 0.19463399E+03 0.19464017E+03 0.15500000E+01 0.0000E+00 0.9000E+01
       -4 -1    0    0    0  501 0.00000000E+00 0.00000000E+00 -.81484275E+03 0.81484422E+03 0.15500000E+01 0.0000E+00 0.9000E+01
       25  2    1    2    0    0 0.12149608E+03 0.30512086E+03 -.33010436E+03 0.55475843E+03 0.30154269E+03 0.0000E+00 0.0000E+00
       23  2    1    2    0    0 -.11897966E+03 -.29974131E+03 -.24938542E+03 0.41356931E+03 0.69609429E+02 0.0000E+00 0.0000E+00
       23  1    3    3    0    0 0.15754032E+03 0.17423397E+03 -.29413617E+03 0.38730836E+03 0.91188000E+02 0.0000E+00 0.9000E+01
      -13  1    4    4    0    0 -.82898036E+02 -.22096237E+03 -.14140488E+03 0.27512143E+03 0.10565837E+00 0.0000E+00 0.9000E+01
       13  1    4    4    0    0 -.36081625E+02 -.78778943E+02 -.10798054E+03 0.13844788E+03 0.10565837E+00 0.0000E+00 0.9000E+01
       23  1    3    3    0    0 -.36044239E+02 0.13088689E+03 -.35968186E+02 0.16745007E+03 0.91188000E+02 0.0000E+00 0.9000E+01
       21  1    1    2  502  501 -.25164169E+01 -.53795457E+01 -.40718975E+02 0.41156644E+02 0.75000000E+00 0.0000E+00 0.9000E+01
#aMCatNLO 2  0  0  1  2 0.59390123D+01 0.00000000D+00  -5  7  0 0.00000000D+00 0.00000000D+00 0.00000000D+00 0.00000000D+00 0.00000000D+00
  <mgrwgt>
 0.1283575032D-04    4    2    0
 0.387883663637513D+03 0.000000000000000D+00 0.000000000000000D+00 0.387883663637513D+03
 0.387883663637513D+03 0.000000000000000D+00 0.000000000000000D+00 -.387883663637513D+03
 0.262009991543114D+03 0.156687650597999D+03 0.172411161141660D+03 -.778290176495027D+02
 0.239585475702201D+03 -.836723624233498D+02 -.222617807081790D+03 0.290077214555128D+02
 0.928160097117457D+02 -.363815068441419D+02 -.794199283581607D+02 -.313635552535926D+02
 0.181355850317966D+03 -.366337813305076D+02 0.129626574298291D+03 0.801848514475825D+02
 0.000000000000000D+00 -.000000000000000D+00 -.000000000000000D+00 -.000000000000000D+00
 0.388324931475944D+03 0.000000000000000D+00 0.000000000000000D+00 0.388324931475944D+03
 0.408406640543400D+03 0.000000000000000D+00 0.000000000000000D+00 -.408406640543400D+03
 0.263721511820898D+03 0.157540316226290D+03 0.174233972657842D+03 -.778290176495027D+02
 0.237777342473407D+03 -.828981442821922D+02 -.220962699033670D+03 0.290077214555128D+02
 0.921499798925798D+02 -.360815169429675D+02 -.787786159509804D+02 -.313635552535926D+02
 0.182141226289575D+03 -.360442380727338D+02 0.130886888076520D+03 0.801848514475825D+02
 0.209415115428839D+02 -.251641692839676D+01 -.537954574971255D+01 -.200817090674566D+02
-.716882549181D-05 0.000000000000D+00 0.000000000000D+00 0.249578472271D-09 0.000000000000D+00  7 4 -4 23 -13 13 23 21 2 0.29909736D-01 0.11905940D+00 0.13617183D+06 0.13617183D+06 0.13617183D+06 0.11108819D+01  1  2  8  1  7  1        4 -.102024683861D-04 0.100000000000D+01
-.301366059279D-04 0.000000000000D+00 0.000000000000D+00 0.249578472271D-09 0.000000000000D+00  7 4 -4 23 -13 13 23 21 2 0.31679595D-01 0.11905940D+00 0.13617183D+06 0.13617183D+06 0.13617183D+06 0.11108819D+01  1  2  9  1  7  1        4 -.382248218404D-04 0.100000000000D+01
0.300868743864D-04 0.000000000000D+00 0.000000000000D+00 0.249578472271D-09 0.000000000000D+00  7 4 -4 23 -13 13 23 21 2 0.29909736D-01 0.11905940D+00 0.13617183D+06 0.13617183D+06 0.13617183D+06 0.11108819D+01  1  2 10  1  7  1        4 0.428187832321D-04 0.100000000000D+01
0.151634482825D-04 0.000000000000D+00 0.000000000000D+00 0.249578472271D-09 0.465859622657D-10  7 4 -4 23 -13 13 23 21 2 0.29943763D-01 0.12535885D+00 0.13842335D+06 0.13842335D+06 0.13842335D+06 0.11103151D+01  1  2  1  1  7  1        4 0.184442573146D-04 0.100000000000D+01
  </mgrwgt>
  </event>
  <event>
  8     66 0.55102590E-06 0.10828626E+03 0.75467711E-02 0.10472243E+00
        2 -1    0    0  501    0 0.00000000E+00 0.00000000E+00 0.31478818E+03 0.31478834E+03 0.32000000E+00 0.0000E+00 0.9000E+01
       -2 -1    0    0    0  501 0.00000000E+00 0.00000000E+00 -.52465880E+03 0.52465890E+03 0.32000000E+00 0.0000E+00 0.9000E+01
       25  2    1    2    0    0 0.17726088E+02 -.97672399E+02 0.22252974E+03 0.38675799E+03 0.30034671E+03 0.0000E+00 0.0000E+00
       23  2    1    2    0    0 -.17726088E+02 0.97672399E+02 -.43240037E+03 0.45268924E+03 0.90018682E+02 0.0000E+00 0.0000E+00
       23  1    3    3    0    0 -.28567366E+02 -.15290700E+03 0.66471203E+02 0.19217263E+03 0.91188000E+02 0.0000E+00 0.9000E+01
      -13  1    4    4    0    0 -.37285966E+02 0.10596547E+03 -.37591734E+03 0.39234269E+03 0.10565837E+00 0.0000E+00 0.9000E+01
       13  1    4    4    0    0 0.19559879E+02 -.82930704E+01 -.56483021E+02 0.60346555E+02 0.10565837E+00 0.0000E+00 0.9000E+01
       23  1    3    3    0    0 0.46293454E+02 0.55234605E+02 0.15605854E+03 0.19458537E+03 0.91188000E+02 0.0000E+00 0.9000E+01
#aMCatNLO 1  0  0  1  2 0.20028128D+02 0.00000000D+00  -5  7  0 0.00000000D+00 0.00000000D+00 0.00000000D+00 0.00000000D+00 0.00000000D+00
  <mgrwgt>
 0.1638841780D-03    9    2    0
 0.406394507785161D+03 0.000000000000000D+00 0.000000000000000D+00 0.406394507785161D+03
 0.406394507785161D+03 0.000000000000000D+00 0.000000000000000D+00 -.406394507785161D+03
 0.215639151260743D+03 -.285673661276349D+02 -.152907004224822D+03 0.118272337695564D+03
 0.308145490142071D+03 -.372860446623443D+02 0.105965626445626D+03 -.286940202795497D+03
 0.477409630952615D+02 0.195599568182967D+02 -.829322770546022D+01 -.427531287832233D+02
 0.241263411072246D+03 0.462934539716825D+02 0.552346054846557D+02 0.211420993883156D+03
 0.000000000000000D+00 0.000000000000000D+00 0.000000000000000D+00 0.000000000000000D+00
 0.465304899387490D+03 0.000000000000000D+00 0.000000000000000D+00 0.465304899387490D+03
 0.408223712178937D+03 0.000000000000000D+00 0.000000000000000D+00 -.408223712178937D+03
 0.218214662261166D+03 -.331805947076959D+02 -.155605558231783D+03 0.118272337695564D+03
 0.307713679034183D+03 -.438345617710755D+02 0.102135006137802D+03 -.286940202795497D+03
 0.474426069276547D+02 0.185478565395935D+02 -.888526584429106D+01 -.427531287832233D+02
 0.239664788853017D+03 0.411796768243936D+02 0.522432506076904D+02 0.211420993883156D+03
 0.604928744904074D+02 0.172876231147844D+02 0.101125673305814D+02 0.570811872085524D+02
0.879086307477D-05 0.000000000000D+00 0.000000000000D+00 0.693985467405D-06 0.000000000000D+00  7 2 -2 23 -13 13 23 21 0 0.48428970D-01 0.80716758D-01 0.46250642D+05 0.46250642D+05 0.46250642D+05 0.11502850D+01  1  2  2  1  7  1        2 0.157861953364D-03 0.100000000000D+01
-.247882303150D-06 0.000000000000D+00 -.337592288945D-07 0.693985467405D-06 0.000000000000D+00  7 2 -2 23 -13 13 23 21 2 0.48428970D-01 0.80716758D-01 0.46250642D+05 0.46250642D+05 0.46250642D+05 0.11502850D+01  1  2  3  1  7  1        2 -.588982472223D-05 0.100000000000D+01
0.536218225515D-06 0.000000000000D+00 0.000000000000D+00 0.693985467405D-06 0.000000000000D+00  7 2 -2 23 -13 13 23 21 2 0.48428970D-01 0.80716758D-01 0.46250642D+05 0.46250642D+05 0.46250642D+05 0.11502850D+01  1  2 15  1  7  1        2 0.127408504803D-04 0.100000000000D+01
0.143608849681D-03 0.000000000000D+00 0.000000000000D+00 0.693985467405D-06 0.000000000000D+00  7 2 -2 23 -13 13 23 21 2 0.55548472D-01 0.80716758D-01 0.50174823D+05 0.50174823D+05 0.50174823D+05 0.11471621D+01  1  2 12  1  7  1        2 0.292281398068D-02 0.100000000000D+01
-.144063469706D-03 0.000000000000D+00 0.000000000000D+00 0.693985467405D-06 0.000000000000D+00  7 2 -2 23 -13 13 23 21 2 0.48428970D-01 0.80716758D-01 0.46250642D+05 0.46250642D+05 0.46250642D+05 0.11502850D+01  1  2  4  1  7  1        2 -.342303010203D-02 0.100000000000D+01
-.159651220864D-03 0.000000000000D+00 -.906833703913D-05 0.693985467405D-06 0.000000000000D+00  7 2 -2 23 -13 13 23 21 2 0.55579776D-01 0.80716758D-01 0.46250642D+05 0.46250642D+05 0.46250642D+05 0.11502850D+01  1  2  5  1  7  1        2 -.327004133711D-02 0.100000000000D+01
0.159470706197D-03 0.000000000000D+00 0.898301133628D-05 0.693985467405D-06 0.000000000000D+00  7 2 -2 23 -13 13 23 21 2 0.48428970D-01 0.80716758D-01 0.46250642D+05 0.46250642D+05 0.46250642D+05 0.11502850D+01  1  2  6  1  7  1        2 0.378911481738D-02 0.100000000000D+01
0.304513560788D-05 0.000000000000D+00 0.000000000000D+00 0.693985467405D-06 0.000000000000D+00  7 21 -2 23 -13 13 23 -2 2 0.55548472D-01 0.80716758D-01 0.50174823D+05 0.50174823D+05 0.50174823D+05 0.11471621D+01  1  2 12  3  7  1        2 0.182947205702D-03 0.100000000000D+01
-.334278627458D-05 0.000000000000D+00 -.192937506534D-06 0.693985467405D-06 0.000000000000D+00  7 21 -2 23 -13 13 23 -2 2 0.55579776D-01 0.80716758D-01 0.46250642D+05 0.46250642D+05 0.46250642D+05 0.11502850D+01  1  2  5  3  7  1        2 -.202633365709D-03 0.100000000000D+01
  </mgrwgt>
  </event>
  <event>
  8     66 0.55102590E-06 0.95758677E+02 0.75467711E-02 0.10372113E+00
        2 -1    0    0  501    0 0.00000000E+00 0.00000000E+00 0.13349341E+04 0.13349342E+04 0.32000000E+00 0.0000E+00 0.9000E+01
       -2 -1    0    0    0  501 0.00000000E+00 0.00000000E+00 -.49732472E+02 0.49733501E+02 0.32000000E+00 0.0000E+00 0.9000E+01
       25  2    1    2    0    0 -.72299620E+02 0.18784895E+02 0.47838988E+03 0.56947241E+03 0.29976964E+03 0.0000E+00 0.0000E+00
       23  2    1    2    0    0 0.72299620E+02 -.18784895E+02 0.80681180E+03 0.81519528E+03 0.89543061E+02 0.0000E+00 0.0000E+00
       23  1    3    3    0    0 -.42386147E+02 -.26001967E+02 0.29093009E+02 0.10786261E+03 0.91188000E+02 0.0000E+00 0.9000E+01
      -13  1    4    4    0    0 -.15991819E+01 0.26619565E+02 0.11992634E+03 0.12285559E+03 0.10565837E+00 0.0000E+00 0.9000E+01
       13  1    4    4    0    0 0.73898802E+02 -.45404460E+02 0.68688546E+03 0.69233969E+03 0.10565837E+00 0.0000E+00 0.9000E+01
       23  1    3    3    0    0 -.29913473E+02 0.44786861E+02 0.44929687E+03 0.46160980E+03 0.91188000E+02 0.0000E+00 0.9000E+01
#aMCatNLO 1  0  0  1  2 0.13976530D+03 0.00000000D+00  -5  7  0 0.00000000D+00 0.00000000D+00 0.00000000D+00 0.00000000D+00 0.00000000D+00
  <mgrwgt>
 0.2321480394D-03    7    2    0
 0.257663178956169D+03 0.000000000000000D+00 0.000000000000000D+00 0.257663178956169D+03
 0.257663178956169D+03 0.000000000000000D+00 0.000000000000000D+00 -.257663178956169D+03
 0.217267141708195D+03 -.423861483287909D+02 -.260019663479192D+02 -.190832575044043D+03
 0.310183097725919D+02 -.159928529504997D+01 0.266196625315697D+02 0.158420767072644D+02
 0.147235112083883D+03 0.738989069009732D+02 -.454045577965074D+02 0.118977123517500D+03
 0.119805794347669D+03 -.299134732771323D+02 0.447868616128569D+02 0.560133748192788D+02
 0.000000000000000D+00 -.000000000000000D+00 -.000000000000000D+00 0.000000000000000D+00
 0.597426613369396D+03 0.000000000000000D+00 0.000000000000000D+00 0.597426613369396D+03
 0.281750088843295D+03 0.000000000000000D+00 0.000000000000000D+00 -.281750088843295D+03
 0.213951316488210D+03 -.187013012224506D+02 0.263268706398105D+02 -.190832575044043D+03
 0.385373973104734D+02 0.222108986821694D+01 0.350603245401941D+02 0.158420767072644D+02
 0.149599890793269D+03 0.902026887204269D+02 -.938330178910349D+01 0.118977123517500D+03
 0.131854832701708D+03 -.160909122038413D+02 0.753261571341508D+02 0.560133748192788D+02
 0.345233264919030D+03 -.576315651623520D+02 -.127330050525052D+03 0.315676524526102D+03
0.141108741579D-05 0.000000000000D+00 0.000000000000D+00 0.123268593086D-06 0.000000000000D+00  7 2 -2 23 -13 13 23 21 0 0.20537457D+00 0.76512316D-02 0.26109875D+05 0.26109875D+05 0.26109875D+05 0.11729739D+01  1  2  2  1  7  1        2 0.262165217934D-03 0.100000000000D+01
-.576404359412D-07 0.000000000000D+00 -.541894722449D-08 0.123268593086D-06 0.000000000000D+00  7 2 -2 23 -13 13 23 21 2 0.20537457D+00 0.76512316D-02 0.26109875D+05 0.26109875D+05 0.26109875D+05 0.11729739D+01  1  2  3  1  7  1        2 -.147341502094D-04 0.100000000000D+01
0.879688179603D-07 0.000000000000D+00 0.000000000000D+00 0.123268593086D-06 0.000000000000D+00  7 2 -2 23 -13 13 23 21 2 0.20537457D+00 0.76512316D-02 0.26109875D+05 0.26109875D+05 0.26109875D+05 0.11729739D+01  1  2 15  1  7  1        2 0.224867448763D-04 0.100000000000D+01
0.649540933403D-07 0.000000000000D+00 0.000000000000D+00 0.123268593086D-06 0.000000000000D+00  7 2 -2 23 -13 13 23 21 2 0.47285780D+00 0.76512316D-02 0.58005927D+05 0.58005927D+05 0.58005927D+05 0.11416646D+01  1  2 12  1  7  1        2 0.169884590504D-05 0.100000000000D+01
-.153735904915D-05 0.000000000000D+00 -.374175021601D-06 0.123268593086D-06 0.000000000000D+00  7 2 -2 23 -13 13 23 21 2 0.48465634D+00 0.76512316D-02 0.26109875D+05 0.26109875D+05 0.26109875D+05 0.11729739D+01  1  2  5  1  7  1        2 -.392792765957D-04 0.100000000000D+01
0.589593024727D-08 0.000000000000D+00 0.000000000000D+00 0.123268593086D-06 0.000000000000D+00  7 21 -2 23 -13 13 23 -2 2 0.47285780D+00 0.76512316D-02 0.58005927D+05 0.58005927D+05 0.58005927D+05 0.11416646D+01  1  2 12  3  7  1        2 0.104213567172D-07 0.100000000000D+01
-.120490210476D-06 0.000000000000D+00 -.350708212090D-07 0.123268593086D-06 0.000000000000D+00  7 21 -2 23 -13 13 23 -2 2 0.48465634D+00 0.76512316D-02 0.26109875D+05 0.26109875D+05 0.26109875D+05 0.11729739D+01  1  2  5  3  7  1        2 -.199763914895D-06 0.100000000000D+01
  </mgrwgt>
  </event>
  <event>
  8     66 -.55102590E-06 0.24650496E+03 0.75467711E-02 0.10238521E+00
        2 -1    0    0  502    0 0.00000000E+00 0.00000000E+00 0.22847731E+03 0.22847754E+03 0.32000000E+00 0.0000E+00 0.9000E+01
       -2 -1    0    0    0  501 0.00000000E+00 0.00000000E+00 -.64555645E+03 0.64555653E+03 0.32000000E+00 0.0000E+00 0.9000E+01
       25  2    1    2    0    0 0.14041502E+03 0.13761059E+03 -.54128101E+02 0.36144039E+03 0.29842294E+03 0.0000E+00 0.0000E+00
       23  1    3    3    0    0 0.15442988E+02 0.11912777E+03 0.66077684E+02 0.16465547E+03 0.91188000E+02 0.0000E+00 0.9000E+01
      -13  1    1    2    0    0 -.59813787E+02 -.44474232E+02 0.29862869E+02 0.80296006E+02 0.10565837E+00 0.0000E+00 0.9000E+01
       13  1    1    2    0    0 -.40794611E+02 -.10200925E+03 -.36912458E+03 0.38512732E+03 0.10565837E+00 0.0000E+00 0.9000E+01
       23  1    3    3    0    0 0.12497203E+03 0.18482825E+02 -.12020579E+03 0.19678492E+03 0.91188000E+02 0.0000E+00 0.9000E+01
       21  1    1    2  502  501 -.39806623E+02 0.88728860E+01 -.23689326E+02 0.47170351E+02 0.75000000E+00 0.0000E+00 0.9000E+01
#aMCatNLO 2  0  0  1  2 0.40783518D+02 0.00000000D+00  -5  7  0 0.00000000D+00 0.00000000D+00 0.00000000D+00 0.00000000D+00 0.00000000D+00
  <mgrwgt>
 -.5116712467D-03    2    2    0
 0.363071880433351D+03 0.000000000000000D+00 0.000000000000000D+00 0.363071880433351D+03
 0.363071880433351D+03 0.000000000000000D+00 0.000000000000000D+00 -.363071880433351D+03
 0.223906325339172D+03 0.320859957611232D+01 0.121860042238692D+03 0.164190822451304D+03
 0.110340239454701D+03 -.657784664258923D+02 -.431471290934067D+02 0.773723920308489D+02
 0.239562144569882D+03 -.538858783706304D+02 -.990975782269280D+02 -.211343330182679D+03
 0.152335051502947D+03 0.116455745220410D+03 0.203846650816428D+02 -.302198842994739D+02
 0.000000000000000D+00 -.000000000000000D+00 0.000000000000000D+00 -.000000000000000D+00
 0.383339021064292D+03 0.000000000000000D+00 0.000000000000000D+00 0.383339021064292D+03
 0.384757302657739D+03 0.000000000000000D+00 0.000000000000000D+00 -.384757302657739D+03
 0.222946060637884D+03 0.154470017792731D+02 0.119132105533088D+03 0.164190822451304D+03
 0.107435433677085D+03 -.598140218766632D+02 -.444766022504647D+02 0.773723920308489D+02
 0.238196601741993D+03 -.408010121442636D+02 -.102014191545749D+03 -.211343330182679D+03
 0.158710056439511D+03 0.124974654940456D+03 0.184858022945515D+02 -.302198842994739D+02
 0.408081712255574D+02 -.398066226988021D+02 0.887288596857409D+01 -.141828159344612D+01
-.717729650140D-04 0.000000000000D+00 0.000000000000D+00 0.171640150253D-10 0.000000000000D+00  7 2 -2 23 -13 13 23 21 2 0.36088626D-01 0.93717957D-01 0.70707462D+05 0.70707462D+05 0.70707462D+05 0.11342886D+01  1  2 13  1  7  1        2 -.161695598292D-02 0.100000000000D+01
0.546165196840D-04 0.000000000000D+00 0.000000000000D+00 0.171640150253D-10 0.709161032272D-13  7 2 -2 23 -13 13 23 21 2 0.35150064D-01 0.99315509D-01 0.70707462D+05 0.70707462D+05 0.70707462D+05 0.11342886D+01  1  2  1  1  7  1        2 0.110528473621D-02 0.100000000000D+01
  </mgrwgt>
  </event>
  <event>
  8     66 0.55102590E-06 0.52391999E+03 0.75467711E-02 0.91194279E-01
        2 -1    0    0  501    0 0.00000000E+00 0.00000000E+00 0.26505226E+03 0.26505245E+03 0.32000000E+00 0.0000E+00 0.9000E+01
       21 -1    0    0  502  501 0.00000000E+00 0.00000000E+00 -.26739770E+04 0.26739771E+04 0.75000000E+00 0.0000E+00 0.9000E+01
       23  2    1    2    0    0 0.78838425E+02 -.35995126E+03 -.14224877E+03 0.40437038E+03 0.86604191E+02 0.0000E+00 0.0000E+00
       23  1    1    2    0    0 0.50225296E+02 0.39967020E+03 -.88621605E+03 0.97772849E+03 0.91188000E+02 0.0000E+00 0.9000E+01
      -13  1    3    3    0    0 0.84073691E+02 -.31351267E+03 -.95684774E+02 0.33839942E+03 0.10565837E+00 0.0000E+00 0.9000E+01
       13  1    3    3    0    0 -.52352660E+01 -.46438584E+02 -.46564000E+02 0.65970959E+02 0.10565837E+00 0.0000E+00 0.9000E+01
       23  1    1    2    0    0 -.15769457E+03 0.24129207E+03 -.25178410E+03 0.39344622E+03 0.91188000E+02 0.0000E+00 0.9000E+01
        2  1    1    2  502    0 0.28630848E+02 -.28101102E+03 -.11286758E+04 0.11634844E+04 0.32000000E+00 0.0000E+00 0.9000E+01
#aMCatNLO 2  0  0  2  1 0.28246578D+03 0.00000000D+00  -5  7  0 0.00000000D+00 0.00000000D+00 0.00000000D+00 0.00000000D+00 0.00000000D+00
  <mgrwgt>
 0.1952663265D-04    2    2    0
 0.598693598919143D+03 0.000000000000000D+00 0.000000000000000D+00 0.598693598919143D+03
 0.598693598919143D+03 0.000000000000000D+00 0.000000000000000D+00 -.598693598919143D+03
 0.409683783784311D+03 0.608224680329612D+02 0.295659241062968D+03 -.261556479385007D+03
 0.475077280690674D+03 0.942623318828087D+02 -.413513005679820D+03 0.214056136445798D+03
 0.588114037729580D+02 -.399038312909157D+01 -.586579837952587D+02 0.144879028990247D+01
 0.253814729590343D+03 -.151094416786678D+03 0.176511748412111D+03 0.460515526493066D+02
 0.000000000000000D+00 0.000000000000000D+00 -.000000000000000D+00 -.000000000000000D+00
 0.658356727249092D+03 0.000000000000000D+00 0.000000000000000D+00 0.658356727249092D+03
 0.107653485233974D+04 0.000000000000000D+00 0.000000000000000D+00 -.107653485233974D+04
 0.488861836377786D+03 0.502252962496858D+02 0.399670203331463D+03 -.261556479385007D+03
 0.388817285921650D+03 0.840738240100782D+02 -.313513068942426D+03 0.214056136445798D+03
 0.467548243337917D+02 -.523539888417126D+01 -.464381869123161D+02 0.144879028990247D+01
 0.305819286592623D+03 -.157694568934975D+03 0.241292068114601D+03 0.460515526493066D+02
 0.504638346362982D+03 0.286308475593819D+02 -.281011015591322D+03 -.418178125090648D+03
-.197670189462D-04 0.000000000000D+00 0.000000000000D+00 0.153108346846D-10 0.000000000000D+00  7 2 21 23 -13 13 23 2 2 0.37081876D-01 0.41472995D+00 0.46862698D+06 0.46862698D+06 0.46862698D+06 0.10705051D+01  1  2 13  4  7  2       -2 -.126831215826D-04 0.100000000000D+01
0.529440744432D-04 0.000000000000D+00 0.000000000000D+00 0.153108346846D-10 0.113107054665D-15  7 2 21 23 -13 13 23 2 2 0.40777290D-01 0.41138106D+00 0.46862698D+06 0.46862698D+06 0.46862698D+06 0.10705051D+01  1  2  1  4  7  2       -2 0.322097542340D-04 0.100000000000D+01
  </mgrwgt>
  </event>
  <event>
  8     66 0.55102590E-06 0.60124959E+03 0.75467711E-02 0.90065176E-01
        2 -1    0    0  501    0 0.00000000E+00 0.00000000E+00 0.15174559E+04 0.15174560E+04 0.32000000E+00 0.0000E+00 0.9000E+01
       -2 -1    0    0    0  501 0.00000000E+00 0.00000000E+00 -.27747933E+03 0.27747951E+03 0.32000000E+00 0.0000E+00 0.9000E+01
       25  2    1    2    0    0 -.29044300E+03 0.48578616E+03 0.33141193E+03 0.72104977E+03 0.29955564E+03 0.0000E+00 0.0000E+00
       23  2    1    2    0    0 0.29044300E+03 -.48578616E+03 0.90856467E+03 0.10738857E+04 0.85996638E+02 0.0000E+00 0.0000E+00
       23  1    3    3    0    0 -.14784803E+03 0.74190616E+02 0.53319409E+02 0.19626895E+03 0.91188000E+02 0.0000E+00 0.9000E+01
      -13  1    4    4    0    0 0.17602842E+03 -.34362795E+03 0.67332523E+03 0.77616560E+03 0.10565837E+00 0.0000E+00 0.9000E+01
       13  1    4    4    0    0 0.11441458E+03 -.14215821E+03 0.23523944E+03 0.29772010E+03 0.10565837E+00 0.0000E+00 0.9000E+01
       23  1    3    3    0    0 -.14259496E+03 0.41159554E+03 0.27809252E+03 0.52478082E+03 0.91188000E+02 0.0000E+00 0.9000E+01
#aMCatNLO 1  0  0  2  1 0.28783328D+03 0.00000000D+00  -5  7  0 0.00000000D+00 0.00000000D+00 0.00000000D+00 0.00000000D+00 0.00000000D+00
  <mgrwgt>
 0.3495305491D-03    4    2    0
 0.648893557630200D+03 0.000000000000000D+00 0.000000000000000D+00 0.648893557630200D+03
 0.648893557630200D+03 0.000000000000000D+00 0.000000000000000D+00 -.648893557630200D+03
 0.220510184198879D+03 -.147848034155683D+03 0.741906159055562D+02 -.113781375010491D+03
 0.430163098872980D+03 0.176028514229607D+03 -.343628250102744D+03 0.189667813667603D+03
 0.187007937452972D+03 0.114414484795931D+03 -.142157905870940D+03 0.408952825847340D+02
 0.460105894735568D+03 -.142594964869855D+03 0.411595540068128D+03 -.116781721241846D+03
 0.000000000000000D+00 0.000000000000000D+00 0.000000000000000D+00 0.000000000000000D+00
 0.110137274359518D+04 0.000000000000000D+00 0.000000000000000D+00 0.110137274359518D+04
 0.712088665861271D+03 0.000000000000000D+00 0.000000000000000D+00 -.712088665861271D+03
 0.218046905793534D+03 -.159747153260056D+03 0.276377913040162D+02 -.113781375010491D+03
 0.504786317402375D+03 0.150661065578810D+03 -.442873108253211D+03 0.189667813667603D+03
 0.215814847410283D+03 0.103484924188152D+03 -.184917534838670D+03 0.408952825847340D+02
 0.390674836902397D+03 -.165678712661144D+03 0.321285185776518D+03 -.116781721241846D+03
 0.484138501947861D+03 0.712798761542381D+02 0.278867666011346D+03 0.389284077733908D+03
0.456503426583D-04 0.000000000000D+00 0.000000000000D+00 0.682899733927D-07 0.000000000000D+00  7 2 -2 23 -13 13 23 21 0 0.23345477D+00 0.42689144D-01 0.36150107D+06 0.36150107D+06 0.36150107D+06 0.10786104D+01  1  2  2  2  7  2       -2 0.372846869044D-03 0.100000000000D+01
-.251819809026D-05 0.000000000000D+00 -.175309335819D-06 0.682899733927D-07 0.000000000000D+00  7 2 -2 23 -13 13 23 21 2 0.23345477D+00 0.42689144D-01 0.36150107D+06 0.36150107D+06 0.36150107D+06 0.10786104D+01  1  2  3  2  7  2       -2 -.239279521382D-04 0.100000000000D+01
0.290192101516D-05 0.000000000000D+00 0.000000000000D+00 0.682899733927D-07 0.000000000000D+00  7 2 -2 23 -13 13 23 21 2 0.23345477D+00 0.42689144D-01 0.36150107D+06 0.36150107D+06 0.36150107D+06 0.10786104D+01  1  2 15  2  7  2       -2 0.275740925339D-04 0.100000000000D+01
-.283755231914D-05 0.000000000000D+00 0.000000000000D+00 0.682899733927D-07 0.000000000000D+00  7 2 -2 23 -13 13 23 21 2 0.23345477D+00 0.42689144D-01 0.36150107D+06 0.36150107D+06 0.36150107D+06 0.10786104D+01  1  2  4  2  7  2       -2 -.269624603181D-04 0.100000000000D+01
  </mgrwgt>
  </event>
  <event>
  8     66 0.55102590E-06 0.17799676E+03 0.75467711E-02 0.98683148E-01
        2 -1    0    0  501    0 0.00000000E+00 0.00000000E+00 0.19743379E+04 0.19743379E+04 0.32000000E+00 0.0000E+00 0.9000E+01
       -2 -1    0    0    0  501 0.00000000E+00 0.00000000E+00 -.43854656E+02 0.43855823E+02 0.32000000E+00 0.0000E+00 0.9000E+01
       25  2    1    2    0    0 0.40898682E+01 -.18250826E+03 0.15220561E+04 0.15617859E+04 0.29865438E+03 0.0000E+00 0.0000E+00
       23  2    1    2    0    0 -.40898682E+01 0.18250826E+03 0.40842718E+03 0.45640788E+03 0.90384754E+02 0.0000E+00 0.0000E+00
       23  1    3    3    0    0 -.10640603E+03 -.90463490E+02 0.54330919E+03 0.56833618E+03 0.91188000E+02 0.0000E+00 0.9000E+01
      -11  1    4    4    0    0 -.24251729E+02 0.18133742E+03 0.35679479E+03 0.40096624E+03 0.51099893E-03 0.0000E+00 0.9000E+01
       11  1    4    4    0    0 0.20161860E+02 0.11708316E+01 0.51632392E+02 0.55441639E+02 0.51099893E-03 0.0000E+00 0.9000E+01
       23  1    3    3    0    0 0.11049590E+03 -.92044766E+02 0.97874687E+03 0.99344968E+03 0.91188000E+02 0.0000E+00 0.9000E+01
#aMCatNLO 1  0  0  1  2 0.14669136D+03 0.00000000D+00  -5  7  0 0.00000000D+00 0.00000000D+00 0.00000000D+00 0.00000000D+00 0.00000000D+00
  <mgrwgt>
 0.3465672773D-03    9    2    0
 0.294253484855412D+03 0.000000000000000D+00 0.000000000000000D+00 0.294253484855412D+03
 0.294253484855412D+03 0.000000000000000D+00 0.000000000000000D+00 -.294253484855412D+03
 0.166800470215919D+03 -.106406032800698D+03 -.904634897725312D+02 -.112192782459557D+01
 0.204655531853696D+03 -.242517285608532D+02 0.181337424691450D+03 -.917195659954990D+02
 0.207584664026524D+02 0.201618603459167D+02 0.117083154571179D+01 -.480025710492355D+01
 0.196292501238556D+03 0.110495901015634D+03 -.920447664646303D+02 0.976417509250181D+02
 0.000000000000000D+00 -.000000000000000D+00 -.000000000000000D+00 0.000000000000000D+00
 0.479677793731211D+03 0.000000000000000D+00 0.000000000000000D+00 0.479677793731211D+03
 0.333749738478400D+03 0.000000000000000D+00 0.000000000000000D+00 -.333749738478400D+03
 0.137154288591161D+03 -.794810754142383D+02 -.646339497779617D+02 -.112192782459557D+01
 0.237846118724589D+03 0.149460064310845D+02 0.218940435501783D+03 -.917195659954990D+02
 0.252222593999544D+02 0.242349305873320D+02 0.507819263049605D+01 -.480025710492355D+01
 0.206290985191705D+03 0.146157600339470D+03 -.578339309287287D+02 0.976417509250181D+02
 0.206913880302202D+03 -.105857461943648D+03 -.101550747425589D+03 0.145928055252811D+03
0.299601353319D-05 0.000000000000D+00 0.000000000000D+00 0.476802177785D-07 0.000000000000D+00  7 2 -2 23 -11 11 23 21 0 0.30374438D+00 0.67469619D-02 0.72961849D+05 0.72961849D+05 0.72961849D+05 0.11331328D+01  1  2  2  1  7  1        2 0.306473170365D-03 0.100000000000D+01
-.164962488044D-06 0.000000000000D+00 -.115054808359D-07 0.476802177785D-07 0.000000000000D+00  7 2 -2 23 -11 11 23 21 2 0.30374438D+00 0.67469619D-02 0.72961849D+05 0.72961849D+05 0.72961849D+05 0.11331328D+01  1  2  3  1  7  1        2 -.216668366340D-04 0.100000000000D+01
0.191826021631D-06 0.000000000000D+00 0.000000000000D+00 0.476802177785D-07 0.000000000000D+00  7 2 -2 23 -11 11 23 21 2 0.30374438D+00 0.67469619D-02 0.72961849D+05 0.72961849D+05 0.72961849D+05 0.11331328D+01  1  2 15  1  7  1        2 0.251952011764D-04 0.100000000000D+01
0.109055642890D-05 0.000000000000D+00 0.000000000000D+00 0.476802177785D-07 0.000000000000D+00  7 2 -2 23 -11 11 23 21 2 0.50486397D+00 0.67469619D-02 0.12594409D+06 0.12594409D+06 0.12594409D+06 0.11135928D+01  1  2 12  1  7  1        2 0.232955318695D-04 0.100000000000D+01
-.198485625050D-05 0.000000000000D+00 0.000000000000D+00 0.476802177785D-07 0.000000000000D+00  7 2 -2 23 -11 11 23 21 2 0.30374438D+00 0.67469619D-02 0.72961849D+05 0.72961849D+05 0.72961849D+05 0.11331328D+01  1  2  4  1  7  1        2 -.260699002734D-03 0.100000000000D+01
-.227696540132D-05 0.000000000000D+00 -.809282956086D-06 0.476802177785D-07 0.000000000000D+00  7 2 -2 23 -11 11 23 21 2 0.51076077D+00 0.67469619D-02 0.72961849D+05 0.72961849D+05 0.72961849D+05 0.11331328D+01  1  2  5  1  7  1        2 -.486435594458D-04 0.100000000000D+01
0.245648650462D-05 0.000000000000D+00 0.711070546532D-06 0.476802177785D-07 0.000000000000D+00  7 2 -2 23 -11 11 23 21 2 0.30374438D+00 0.67469619D-02 0.72961849D+05 0.72961849D+05 0.72961849D+05 0.11331328D+01  1  2  6  1  7  1        2 0.322644817137D-03 0.100000000000D+01
0.622797962515D-07 0.000000000000D+00 0.000000000000D+00 0.476802177785D-07 0.000000000000D+00  7 21 -2 23 -11 11 23 -2 2 0.50486397D+00 0.67469619D-02 0.12594409D+06 0.12594409D+06 0.12594409D+06 0.11135928D+01  1  2 12  3  7  1        2 0.657817233677D-07 0.100000000000D+01
-.943227613779D-07 0.000000000000D+00 -.470634270060D-07 0.476802177785D-07 0.000000000000D+00  7 21 -2 23 -11 11 23 -2 2 0.51076077D+00 0.67469619D-02 0.72961849D+05 0.72961849D+05 0.72961849D+05 0.11331328D+01  1  2  5  3  7  1        2 -.978261851441D-07 0.100000000000D+01
  </mgrwgt>
  </event>
  <event>
  8     66 0.55102590E-06 0.21838666E+03 0.75467711E-02 0.98263754E-01
        2 -1    0    0  501    0 0.00000000E+00 0.00000000E+00 0.10767803E+04 0.10767803E+04 0.32000000E+00 0.0000E+00 0.9000E+01
       -2 -1    0    0    0  501 0.00000000E+00 0.00000000E+00 -.10794881E+03 0.10794928E+03 0.32000000E+00 0.0000E+00 0.9000E+01
       25  2    1    2    0    0 -.14285499E+02 0.26465045E+03 0.54221183E+03 0.67438706E+03 0.30093240E+03 0.0000E+00 0.0000E+00
       23  2    1    2    0    0 0.14285499E+02 -.26465045E+03 0.42661963E+03 0.51034253E+03 0.90560787E+02 0.0000E+00 0.0000E+00
       23  1    3    3    0    0 0.30879931E+02 0.14960731E+03 0.95311633E+02 0.20183032E+03 0.91188000E+02 0.0000E+00 0.9000E+01
      -13  1    4    4    0    0 -.23668658E+02 -.63757374E+02 0.16387111E+03 0.17742311E+03 0.10565837E+00 0.0000E+00 0.9000E+01
       13  1    4    4    0    0 0.37954158E+02 -.20089307E+03 0.26274851E+03 0.33291942E+03 0.10565837E+00 0.0000E+00 0.9000E+01
       23  1    3    3    0    0 -.45165430E+02 0.11504313E+03 0.44690020E+03 0.47255674E+03 0.91188000E+02 0.0000E+00 0.9000E+01
#aMCatNLO 1  0  0  1  2 0.11581277D+03 0.00000000D+00  -5  7  0 0.00000000D+00 0.00000000D+00 0.00000000D+00 0.00000000D+00 0.00000000D+00
  <mgrwgt>
 0.2316850593D-03    9    2    0
 0.340936141464580D+03 0.000000000000000D+00 0.000000000000000D+00 0.340936141464580D+03
 0.340936141464580D+03 0.000000000000000D+00 0.000000000000000D+00 -.340936141464580D+03
 0.215250635869141D+03 0.308799306741974D+02 0.149607314779898D+03 -.121167925392716D+03
 0.754317244384832D+02 -.236687418032581D+02 -.637571872628700D+02 0.326306111732725D+02
 0.205112572028341D+03 0.379542412142409D+02 -.200893259106812D+03 -.165088225920480D+02
 0.186077350593194D+03 -.451654300851801D+02 0.115043131589784D+03 0.105046136811492D+03
 0.000000000000000D+00 0.000000000000000D+00 -.000000000000000D+00 0.000000000000000D+00
 0.418043930174005D+03 0.000000000000000D+00 0.000000000000000D+00 0.418043930174005D+03
 0.392245056371005D+03 0.000000000000000D+00 0.000000000000000D+00 -.392245056371005D+03
 0.223240179024577D+03 -.326288413749746D+01 0.163794424905293D+03 -.121167925392716D+03
 0.760690969643626D+02 -.354652591150991D+02 -.588554680835280D+02 0.326306111732725D+02
 0.189004482666884D+03 0.726656166535177D+01 -.188141835662259D+03 -.165088225920480D+02
 0.203323724184009D+03 -.754859027883894D+02 0.127641972302446D+03 0.105046136811492D+03
 0.118651503705177D+03 0.106947484375634D+03 -.444390934619513D+02 0.257988738029998D+02
0.208001378664D-05 0.000000000000D+00 0.000000000000D+00 0.916895344209D-07 0.000000000000D+00  7 2 -2 23 -13 13 23 21 0 0.16565854D+00 0.16607549D-01 0.91190191D+05 0.91190191D+05 0.91190191D+05 0.11250237D+01  1  2  2  1  7  1        2 0.161822236885D-03 0.100000000000D+01
-.113487557254D-06 0.000000000000D+00 -.798780062089D-08 0.916895344209D-07 0.000000000000D+00  7 2 -2 23 -13 13 23 21 2 0.16565854D+00 0.16607549D-01 0.91190191D+05 0.91190191D+05 0.91190191D+05 0.11250237D+01  1  2  3  1  7  1        2 -.111748973680D-04 0.100000000000D+01
0.130549433957D-06 0.000000000000D+00 0.000000000000D+00 0.916895344209D-07 0.000000000000D+00  7 2 -2 23 -13 13 23 21 2 0.16565854D+00 0.16607549D-01 0.91190191D+05 0.91190191D+05 0.91190191D+05 0.11250237D+01  1  2 15  1  7  1        2 0.128549469317D-04 0.100000000000D+01
0.114782354688D-05 0.000000000000D+00 0.000000000000D+00 0.916895344209D-07 0.000000000000D+00  7 2 -2 23 -13 13 23 21 2 0.21324451D+00 0.16607549D-01 0.13483253D+06 0.13483253D+06 0.13483253D+06 0.11112240D+01  1  2 12  1  7  1        2 0.732722996056D-04 0.100000000000D+01
-.125464202768D-05 0.000000000000D+00 0.000000000000D+00 0.916895344209D-07 0.000000000000D+00  7 2 -2 23 -13 13 23 21 2 0.16565854D+00 0.16607549D-01 0.91190191D+05 0.91190191D+05 0.91190191D+05 0.11250237D+01  1  2  4  1  7  1        2 -.123542141818D-03 0.100000000000D+01
-.268332570609D-05 0.000000000000D+00 -.989246623729D-06 0.916895344209D-07 0.000000000000D+00  7 2 -2 23 -13 13 23 21 2 0.22168708D+00 0.16607549D-01 0.91190191D+05 0.91190191D+05 0.91190191D+05 0.11250237D+01  1  2  5  1  7  1        2 -.165058057717D-03 0.100000000000D+01
0.288861884065D-05 0.000000000000D+00 0.948699236264D-06 0.916895344209D-07 0.000000000000D+00  7 2 -2 23 -13 13 23 21 2 0.16565854D+00 0.16607549D-01 0.91190191D+05 0.91190191D+05 0.91190191D+05 0.11250237D+01  1  2  6  1  7  1        2 0.284436636584D-03 0.100000000000D+01
0.391332716289D-07 0.000000000000D+00 0.000000000000D+00 0.916895344209D-07 0.000000000000D+00  7 21 -2 23 -13 13 23 -2 2 0.21324451D+00 0.16607549D-01 0.13483253D+06 0.13483253D+06 0.13483253D+06 0.11112240D+01  1  2 12  3  7  1        2 0.104730704852D-05 0.100000000000D+01
-.803594943502D-07 0.000000000000D+00 -.374377435024D-07 0.916895344209D-07 0.000000000000D+00  7 21 -2 23 -13 13 23 -2 2 0.22168708D+00 0.16607549D-01 0.91190191D+05 0.91190191D+05 0.91190191D+05 0.11250237D+01  1  2  5  3  7  1        2 -.197327080334D-05 0.100000000000D+01
  </mgrwgt>
  </event>
  <event>
  8     66 0.55102590E-06 0.22310041E+03 0.75467711E-02 0.94408712E-01
        2 -1    0    0  501    0 0.00000000E+00 0.00000000E+00 0.15015087E+04 0.15015087E+04 0.32000000E+00 0.0000E+00 0.9000E+01
       -2 -1    0    0    0  501 0.00000000E+00 0.00000000E+00 -.11768613E+03 0.11768656E+03 0.32000000E+00 0.0000E+00 0.9000E+01
       25  2    1    2    0    0 -.34330091E+03 -.74052694E+02 0.61797326E+03 0.77160072E+03 0.30022894E+03 0.0000E+00 0.0000E+00
       23  2    1    2    0    0 0.34330091E+03 0.74052694E+02 0.76584928E+03 0.84759454E+03 0.92477419E+02 0.0000E+00 0.0000E+00
       23  1    3    3    0    0 -.31193294E+03 -.12264244E+03 0.41078480E+03 0.53796164E+03 0.91188000E+02 0.0000E+00 0.9000E+01
      -13  1    4    4    0    0 0.32856153E+03 0.59654313E+02 0.75188209E+03 0.82270164E+03 0.10565837E+00 0.0000E+00 0.9000E+01
       13  1    4    4    0    0 0.14739380E+02 0.14398381E+02 0.13967197E+02 0.24892900E+02 0.10565837E+00 0.0000E+00 0.9000E+01
       23  1    3    3    0    0 -.31367970E+02 0.48589745E+02 0.20718846E+03 0.23363908E+03 0.91188000E+02 0.0000E+00 0.9000E+01
#aMCatNLO 1  0  0  1  2 0.18796525D+03 0.00000000D+00  -5  7  0 0.00000000D+00 0.00000000D+00 0.00000000D+00 0.00000000D+00 0.00000000D+00
  <mgrwgt>
 0.7150714037D-03    8    2    0
 0.420365464878133D+03 0.000000000000000D+00 0.000000000000000D+00 0.420365464878133D+03
 0.420365464878133D+03 0.000000000000000D+00 0.000000000000000D+00 -.420365464878133D+03
 0.359938798065571D+03 -.311932937412348D+03 -.122642438565778D+03 -.943258280050156D+02
 0.346892895205294D+03 0.328561936757158D+03 0.596543721909474D+02 0.939313064787260D+02
 0.249520847344136D+02 0.147389702775098D+02 0.143983215237493D+02 -.140732947475272D+02
 0.108947151750988D+03 -.313679696223200D+02 0.485897448510808D+02 0.144678162738169D+02
 0.000000000000000D+00 -.000000000000000D+00 0.000000000000000D+00 0.000000000000000D+00
 0.788380034146996D+03 0.000000000000000D+00 0.000000000000000D+00 0.788380034146996D+03
 0.455440886811620D+03 0.000000000000000D+00 0.000000000000000D+00 -.455440886811620D+03
 0.313943448899379D+03 -.242674939061599D+03 -.149855763604390D+03 -.943258280050156D+02
 0.418948740133994D+03 0.407271027189722D+03 0.287274595968628D+02 0.939313064787260D+02
 0.274578322396266D+02 0.201253800838209D+02 0.122818566483430D+02 -.140732947475272D+02
 0.101136736074311D+03 -.977667585838095D+01 0.401059464567560D+02 0.144678162738169D+02
 0.382334163611304D+03 -.174944792353563D+03 0.687405009024281D+02 0.332939147335376D+03
0.769714801631D-05 0.000000000000D+00 0.000000000000D+00 0.483999159771D-06 0.000000000000D+00  7 2 -2 23 -13 13 23 21 0 0.23100137D+00 0.18105595D-01 0.16397631D+06 0.16397631D+06 0.16397631D+06 0.11045116D+01  1  2  2  1  7  1        2 0.297656947579D-03 0.100000000000D+01
-.426892636784D-06 0.000000000000D+00 -.295590750883D-07 0.483999159771D-06 0.000000000000D+00  7 2 -2 23 -13 13 23 21 2 0.23100137D+00 0.18105595D-01 0.16397631D+06 0.16397631D+06 0.16397631D+06 0.11045116D+01  1  2  3  1  7  1        2 -.201393484029D-04 0.100000000000D+01
0.488356368556D-06 0.000000000000D+00 0.000000000000D+00 0.483999159771D-06 0.000000000000D+00  7 2 -2 23 -13 13 23 21 2 0.23100137D+00 0.18105595D-01 0.16397631D+06 0.16397631D+06 0.16397631D+06 0.11045116D+01  1  2 15  1  7  1        2 0.230389990449D-04 0.100000000000D+01
0.678025473974D-05 0.000000000000D+00 0.000000000000D+00 0.483999159771D-06 0.000000000000D+00  7 2 -2 23 -13 13 23 21 2 0.43516184D+00 0.18105595D-01 0.25977359D+06 0.25977359D+06 0.25977359D+06 0.10892084D+01  1  2 12  1  7  1        2 0.551460553501D-04 0.100000000000D+01
-.953596992372D-05 0.000000000000D+00 -.208737675421D-05 0.483999159771D-06 0.000000000000D+00  7 2 -2 23 -13 13 23 21 2 0.44168665D+00 0.18105595D-01 0.16397631D+06 0.16397631D+06 0.16397631D+06 0.11045116D+01  1  2  5  1  7  1        2 -.769610520611D-04 0.100000000000D+01
0.924982422734D-05 0.000000000000D+00 0.171444234774D-05 0.483999159771D-06 0.000000000000D+00  7 2 -2 23 -13 13 23 21 2 0.23100137D+00 0.18105595D-01 0.16397631D+06 0.16397631D+06 0.16397631D+06 0.11045116D+01  1  2  6  1  7  1        2 0.436375371062D-03 0.100000000000D+01
0.467089339231D-06 0.000000000000D+00 0.000000000000D+00 0.483999159771D-06 0.000000000000D+00  7 21 -2 23 -13 13 23 -2 2 0.43516184D+00 0.18105595D-01 0.25977359D+06 0.25977359D+06 0.25977359D+06 0.10892084D+01  1  2 12  3  7  1        2 0.312534075677D-06 0.100000000000D+01
-.551076027162D-06 0.000000000000D+00 -.146903337846D-06 0.483999159771D-06 0.000000000000D+00  7 21 -2 23 -13 13 23 -2 2 0.44168665D+00 0.18105595D-01 0.16397631D+06 0.16397631D+06 0.16397631D+06 0.11045116D+01  1  2  5  3  7  1        2 -.358102927755D-06 0.100000000000D+01
  </mgrwgt>
  </event>
  <event>
  8     66 0.55102590E-06 0.19770588E+03 0.75467711E-02 0.10186648E+00
        2 -1    0    0  501    0 0.00000000E+00 0.00000000E+00 0.33891542E+04 0.33891542E+04 0.32000000E+00 0.0000E+00 0.9000E+01
       -2 -1    0    0    0  501 0.00000000E+00 0.00000000E+00 -.24320533E+02 0.24322638E+02 0.32000000E+00 0.0000E+00 0.9000E+01
       25  2    1    2    0    0 -.12173117E+03 0.16600375E+02 0.30162756E+04 0.30335672E+04 0.29919425E+03 0.0000E+00 0.0000E+00
       23  2    1    2    0    0 0.12173117E+03 -.16600375E+02 0.34855805E+03 0.37990967E+03 0.88003380E+02 0.0000E+00 0.0000E+00
       23  1    3    3    0    0 -.11188306E+03 -.24410996E+02 0.70143604E+03 0.71654831E+03 0.91188000E+02 0.0000E+00 0.9000E+01
      -11  1    4    4    0    0 0.12416852E+03 0.74407896E+01 0.31399939E+03 0.33774073E+03 0.51099893E-03 0.0000E+00 0.9000E+01
       11  1    4    4    0    0 -.24373532E+01 -.24041164E+02 0.34558658E+02 0.42168936E+02 0.51099893E-03 0.0000E+00 0.9000E+01
       23  1    3    3    0    0 -.98481034E+01 0.41011371E+02 0.23148396E+04 0.23170189E+04 0.91188000E+02 0.0000E+00 0.9000E+01
#aMCatNLO 1  0  0  2  2 0.13135186D+03 0.00000000D+00  -5  7  0 0.00000000D+00 0.00000000D+00 0.00000000D+00 0.00000000D+00 0.00000000D+00
  <mgrwgt>
 0.3041777079D-03    4    2    0
 0.287105651853929D+03 0.000000000000000D+00 0.000000000000000D+00 0.287105651853929D+03
 0.287105651853929D+03 0.000000000000000D+00 0.000000000000000D+00 -.287105651853929D+03
 0.149257737998129D+03 -.111883061722706D+03 -.244109963251690D+02 -.291359703165008D+02
 0.167733476844168D+03 0.124168518372636D+03 0.744078954958971D+01 -.112522588622267D+03
 0.481678935869096D+02 -.243735321935711D+01 -.240411643095682D+02 -.416680657161367D+02
 0.209052195278651D+03 -.984810343057378D+01 0.410113710851474D+02 0.183326624654904D+03
 0.000000000000000D+00 -.000000000000000D+00 -.000000000000000D+00 0.000000000000000D+00
 0.439294849224089D+03 0.000000000000000D+00 0.000000000000000D+00 0.439294849224089D+03
 0.324315299235601D+03 0.000000000000000D+00 0.000000000000000D+00 -.324315299235601D+03
 0.137020535399854D+03 -.979182157065861D+02 0.474278861189633D+01 -.291359703165008D+02
 0.185871619922466D+03 0.141417611949487D+03 0.434509513457424D+02 -.112522588622267D+03
 0.442114018045147D+02 0.206897071471740D+01 -.146335132206044D+02 -.416680657161367D+02
 0.221939677196052D+03 0.111759689234641D+02 0.849023873701404D+02 0.183326624654904D+03
 0.174566914136803D+03 -.567443358810826D+02 -.118462614107175D+03 0.114979549988489D+03
0.890436815648D-05 0.000000000000D+00 0.000000000000D+00 0.169686908417D-07 0.000000000000D+00  7 2 -2 23 -11 11 23 21 0 0.52140850D+00 0.37417835D-02 0.39087617D+05 0.39087617D+05 0.39087617D+05 0.11568215D+01  1  2  2  2  7  2       -2 0.327168128275D-03 0.100000000000D+01
-.410974248831D-06 0.000000000000D+00 -.341951182949D-07 0.169686908417D-07 0.000000000000D+00  7 2 -2 23 -11 11 23 21 2 0.52140850D+00 0.37417835D-02 0.39087617D+05 0.39087617D+05 0.39087617D+05 0.11568215D+01  1  2  3  2  7  2       -2 -.202076197540D-04 0.100000000000D+01
0.542661858616D-06 0.000000000000D+00 0.000000000000D+00 0.169686908417D-07 0.000000000000D+00  7 2 -2 23 -11 11 23 21 2 0.52140850D+00 0.37417835D-02 0.39087617D+05 0.39087617D+05 0.39087617D+05 0.11568215D+01  1  2 15  2  7  2       -2 0.266827046345D-04 0.100000000000D+01
-.599257311253D-06 0.000000000000D+00 0.000000000000D+00 0.169686908417D-07 0.000000000000D+00  7 2 -2 23 -11 11 23 21 2 0.52140850D+00 0.37417835D-02 0.39087617D+05 0.39087617D+05 0.39087617D+05 0.11568215D+01  1  2  4  2  7  2       -2 -.294655052356D-04 0.100000000000D+01
  </mgrwgt>
  </event>
  <event>
  8     66 0.55102590E-06 0.54837546E+02 0.75467711E-02 0.10558952E+00
        2 -1    0    0  501    0 0.00000000E+00 0.00000000E+00 0.60717056E+03 0.60717065E+03 0.32000000E+00 0.0000E+00 0.9000E+01
       -2 -1    0    0    0  501 0.00000000E+00 0.00000000E+00 -.10319719E+03 0.10319769E+03 0.32000000E+00 0.0000E+00 0.9000E+01
       25  2    1    2    0    0 -.18231666E+02 0.55562769E+02 0.14910361E+03 0.33943603E+03 0.29927465E+03 0.0000E+00 0.0000E+00
       23  2    1    2    0    0 0.18231666E+02 -.55562769E+02 0.35486976E+03 0.37093231E+03 0.90766844E+02 0.0000E+00 0.0000E+00
       23  1    3    3    0    0 0.46313253E+02 0.11342531E+03 0.11763701E+02 0.15317916E+03 0.91188000E+02 0.0000E+00 0.9000E+01
      -11  1    4    4    0    0 -.17967427E+02 -.51769712E+02 0.10513610E+03 0.11856024E+03 0.51099893E-03 0.0000E+00 0.9000E+01
       11  1    4    4    0    0 0.36199093E+02 -.37930571E+01 0.24973366E+03 0.25237207E+03 0.51099893E-03 0.0000E+00 0.9000E+01
       23  1    3    3    0    0 -.64544919E+02 -.57862538E+02 0.13733991E+03 0.18625687E+03 0.91188000E+02 0.0000E+00 0.9000E+01
#aMCatNLO 1  0  0  2  1 0.42350736D+02 0.00000000D+00  -5  7  0 0.00000000D+00 0.00000000D+00 0.00000000D+00 0.00000000D+00 0.00000000D+00
  <mgrwgt>
 0.1361692798D-03    9    2    0
 0.250316809214551D+03 0.000000000000000D+00 0.000000000000000D+00 0.250316809214551D+03
 0.250316809214551D+03 0.000000000000000D+00 0.000000000000000D+00 -.250316809214551D+03
 0.205509630668708D+03 0.463132528280633D+02 0.113425306964473D+03 -.137509051724197D+03
 0.623922296793621D+02 -.179674268133508D+02 -.517697118419228D+02 0.298305017368705D+02
 0.106700815017219D+03 0.361990930298882D+02 -.379305708373494D+01 0.100301058354893D+03
 0.126030943063813D+03 -.645449190446007D+02 -.578625380388152D+02 0.737749163243307D+01
 0.000000000000000D+00 -.000000000000000D+00 -.000000000000000D+00 -.000000000000000D+00
 0.254476520245078D+03 0.000000000000000D+00 0.000000000000000D+00 0.254476520245078D+03
 0.388517737753451D+03 0.000000000000000D+00 0.000000000000000D+00 -.388517737753451D+03
 0.213748492456740D+03 0.624614170915928D+02 0.120677250351304D+03 -.137509051724197D+03
 0.594344083453914D+02 -.132751466785456D+02 -.496624661304329D+02 0.298305017368705D+02
 0.109743939672620D+03 0.445356886971474D+02 -.491937670604634D-01 0.100301058354893D+03
 0.119494899449126D+03 -.550882349229335D+02 -.536156566745751D+02 0.737749163243307D+01
 0.140572518074651D+03 -.386337241872611D+02 -.173499337792351D+02 -.134041217508373D+03
0.769373905513D-06 0.000000000000D+00 0.000000000000D+00 0.972877654696D-07 0.000000000000D+00  7 2 -2 23 -11 11 23 21 0 0.93410900D-01 0.15876536D-01 0.34176527D+05 0.34176527D+05 0.34176527D+05 0.11621200D+01  1  2  2  2  7  2       -2 0.132887726204D-03 0.100000000000D+01
-.379692245402D-07 0.000000000000D+00 -.295459837797D-08 0.972877654696D-07 0.000000000000D+00  7 2 -2 23 -11 11 23 21 2 0.93410900D-01 0.15876536D-01 0.34176527D+05 0.34176527D+05 0.34176527D+05 0.11621200D+01  1  2  3  2  7  2       -2 -.885688703929D-05 0.100000000000D+01
0.463782192271D-07 0.000000000000D+00 0.000000000000D+00 0.972877654696D-07 0.000000000000D+00  7 2 -2 23 -11 11 23 21 2 0.93410900D-01 0.15876536D-01 0.34176527D+05 0.34176527D+05 0.34176527D+05 0.11621200D+01  1  2 15  2  7  2       -2 0.108184102718D-04 0.100000000000D+01
0.425854371676D-05 0.000000000000D+00 0.000000000000D+00 0.972877654696D-07 0.000000000000D+00  7 2 -2 23 -11 11 23 21 2 0.93410900D-01 0.24714037D-01 0.44353308D+05 0.44353308D+05 0.44353308D+05 0.11519015D+01  1  2 12  2  7  2       -2 0.474258304276D-03 0.100000000000D+01
-.405310488078D-05 0.000000000000D+00 0.000000000000D+00 0.972877654696D-07 0.000000000000D+00  7 2 -2 23 -11 11 23 21 2 0.93410900D-01 0.15876536D-01 0.34176527D+05 0.34176527D+05 0.34176527D+05 0.11621200D+01  1  2  4  2  7  2       -2 -.945447069888D-03 0.100000000000D+01
-.440086430191D-05 0.000000000000D+00 -.304438733041D-06 0.972877654696D-07 0.000000000000D+00  7 2 -2 23 -11 11 23 21 2 0.93410900D-01 0.24907990D-01 0.34176527D+05 0.34176527D+05 0.34176527D+05 0.11621200D+01  1  2  5  2  7  2       -2 -.492487266288D-03 0.100000000000D+01
0.413951508447D-05 0.000000000000D+00 0.275976855363D-06 0.972877654696D-07 0.000000000000D+00  7 2 -2 23 -11 11 23 21 2 0.93410900D-01 0.15876536D-01 0.34176527D+05 0.34176527D+05 0.34176527D+05 0.11621200D+01  1  2  6  2  7  2       -2 0.965603536668D-03 0.100000000000D+01
0.218512340114D-06 0.000000000000D+00 0.000000000000D+00 0.972877654696D-07 0.000000000000D+00  7 2 21 23 -11 11 23 2 2 0.93410900D-01 0.24714037D-01 0.44353308D+05 0.44353308D+05 0.44353308D+05 0.11519015D+01  1  2 12  4  7  2       -2 0.306262887072D-03 0.100000000000D+01
-.216698635808D-06 0.000000000000D+00 -.158294416876D-07 0.972877654696D-07 0.000000000000D+00  7 2 21 23 -11 11 23 2 2 0.93410900D-01 0.24907990D-01 0.34176527D+05 0.34176527D+05 0.34176527D+05 0.11621200D+01  1  2  5  4  7  2       -2 -.306870361515D-03 0.100000000000D+01
  </mgrwgt>
  </event>
  <event>
  9     66 0.55102590E-06 0.20798562E+03 0.75467711E-02 0.10452012E+00
        2 -1    0    0  501    0 0.00000000E+00 0.00000000E+00 0.21847910E+03 0.21847934E+03 0.32000000E+00 0.0000E+00 0.9000E+01
       21 -1    0    0  502  501 0.00000000E+00 0.00000000E+00 -.30127210E+03 0.30127303E+03 0.75000000E+00 0.0000E+00 0.9000E+01
       25  2    1    2    0    0 -.11011755E+03 -.25255929E+02 0.20414630E+02 0.32180539E+03 0.30062970E+03 0.0000E+00 0.0000E+00
       23  2    1    2    0    0 0.73061825E+02 0.11154337E+02 -.10633539E+03 0.15817428E+03 0.90826429E+02 0.0000E+00 0.0000E+00
       23  1    3    3    0    0 0.20931539E+02 -.10599994E+03 -.26936688E+01 0.14140942E+03 0.91188000E+02 0.0000E+00 0.9000E+01
      -13  1    4    4    0    0 0.80698018E+02 -.47640054E+00 -.11594501E+03 0.14126448E+03 0.10565837E+00 0.0000E+00 0.9000E+01
       13  1    4    4    0    0 -.76361928E+01 0.11630737E+02 0.96096219E+01 0.16909804E+02 0.10565837E+00 0.0000E+00 0.9000E+01
       23  1    3    3    0    0 -.13104909E+03 0.80744015E+02 0.23108299E+02 0.18039597E+03 0.91188000E+02 0.0000E+00 0.9000E+01
        2  1    1    2  502    0 0.37055727E+02 0.14101593E+02 0.31277622E+01 0.39772693E+02 0.32000000E+00 0.0000E+00 0.9000E+01
#aMCatNLO 2  0  0  2  2 0.39648226D+02 0.00000000D+00  -5  7  0 0.00000000D+00 0.00000000D+00 0.00000000D+00 0.00000000D+00 0.00000000D+00
  <mgrwgt>
 0.4845642462D-04    1    2    0
 0.235279689279025D+03 0.000000000000000D+00 0.000000000000000D+00 0.235279689279025D+03
 0.235279689279025D+03 0.000000000000000D+00 0.000000000000000D+00 -.235279689279025D+03
 0.142220240793763D+03 0.321514336677936D+02 -.101730190099226D+03 0.229912871087467D+02
 0.129262492248222D+03 0.905930668070172D+02 0.328910639345187D+01 -.921459165012395D+02
 0.187500338316303D+02 -.615509036013639D+01 0.121944332173087D+02 0.128442372235347D+02
 0.180326611684435D+03 -.116589410114674D+03 0.862466504884656D+02 0.563103921689581D+02
 0.000000000000000D+00 0.000000000000000D+00 0.000000000000000D+00 0.000000000000000D+00
 0.261817959297589D+03 0.000000000000000D+00 0.000000000000000D+00 0.261817959297589D+03
 0.251402306084382D+03 0.000000000000000D+00 0.000000000000000D+00 -.251402306084382D+03
 0.143240936590068D+03 0.209315279283746D+02 -.105999935975767D+03 0.229912871087467D+02
 0.122487908204335D+03 0.806981459325730D+02 -.476415223536915D+00 -.921459165012395D+02
 0.189357358691451D+02 -.763631028515483D+01 0.116307535560012D+02 0.128442372235347D+02
 0.187562176940293D+03 -.131049091002939D+03 0.807440050756918D+02 0.563103921689581D+02
 0.409935077781307D+02 0.370557274271462D+02 0.141015925676113D+02 0.104156532132071D+02
0.396748480455D-07 0.000000000000D+00 0.000000000000D+00 0.131022260383D-06 0.674791497130D-11  7 2 21 23 -13 13 23 2 2 0.33612177D-01 0.46349530D-01 0.51655038D+05 0.51655038D+05 0.51655038D+05 0.11460535D+01  1  2  1  4  7  2       -2 0.484564246230D-04 0.100000000000D+01
  </mgrwgt>
  </event>
  <event>
  8     66 0.55102590E-06 0.23141825E+03 0.75467711E-02 0.97317987E-01
        2 -1    0    0  501    0 0.00000000E+00 0.00000000E+00 0.13379935E+04 0.13379936E+04 0.32000000E+00 0.0000E+00 0.9000E+01
       -2 -1    0    0    0  501 0.00000000E+00 0.00000000E+00 -.89618979E+02 0.89619550E+02 0.32000000E+00 0.0000E+00 0.9000E+01
       25  2    1    2    0    0 -.12155868E+03 -.53524134E+02 0.12206581E+04 0.12642975E+04 0.30133155E+03 0.0000E+00 0.0000E+00
       23  2    1    2    0    0 0.12155868E+03 0.53524134E+02 0.27716510E+02 0.16331565E+03 0.90898018E+02 0.0000E+00 0.0000E+00
       23  1    3    3    0    0 -.10839515E+03 -.14269035E+03 0.73704089E+03 0.76397288E+03 0.91188000E+02 0.0000E+00 0.9000E+01
      -13  1    4    4    0    0 0.22718367E+02 0.42242818E+01 -.30653610E+02 0.38387807E+02 0.10565837E+00 0.0000E+00 0.9000E+01
       13  1    4    4    0    0 0.98840312E+02 0.49299852E+02 0.58370120E+02 0.12492784E+03 0.10565837E+00 0.0000E+00 0.9000E+01
       23  1    3    3    0    0 -.13163534E+02 0.89166221E+02 0.48361717E+03 0.50032461E+03 0.91188000E+02 0.0000E+00 0.9000E+01
#aMCatNLO 1  0  0  1  1 0.25621131D+03 0.00000000D+00  -5  7  0 0.00000000D+00 0.00000000D+00 0.00000000D+00 0.00000000D+00 0.00000000D+00
  <mgrwgt>
 0.2823161610D-03    3    2    0
 0.346280306866889D+03 0.000000000000000D+00 0.000000000000000D+00 0.346280306866889D+03
 0.346280306866889D+03 0.000000000000000D+00 0.000000000000000D+00 -.346280306866889D+03
 0.246266710069119D+03 -.108395145775530D+03 -.142690354908416D+03 0.142204065106028D+03
 0.134385505416399D+03 0.227182646725517D+02 0.422422109009189D+01 -.132383913193677D+03
 0.152305609796622D+03 0.988404147693098D+02 0.492999130982105D+02 -.104867009837511D+03
 0.159602788451637D+03 -.131635336663315D+02 0.891662207201139D+02 0.950468579251591D+02
 0.000000000000000D+00 -.000000000000000D+00 0.000000000000000D+00 -.000000000000000D+00
 0.444015411627552D+03 0.000000000000000D+00 0.000000000000000D+00 0.444015411627552D+03
 0.588620391841680D+03 0.000000000000000D+00 0.000000000000000D+00 -.588620391841680D+03
 0.299258842762650D+03 -.763006782890047D+02 -.234940022106918D+03 0.142204065106028D+03
 0.144572497045399D+03 0.391299771828861D+02 -.429482399539016D+02 -.132383913193677D+03
 0.157183382114898D+03 0.117048332504384D+03 -.303541080593263D+01 -.104867009837511D+03
 0.137419051569859D+03 0.431091411686434D+01 0.389391218235764D+02 0.950468579251591D+02
 0.294202029976424D+03 -.841885455151298D+02 0.241984551043176D+03 -.144604980214128D+03
0.368476773160D-05 0.000000000000D+00 0.000000000000D+00 0.102080169380D-06 0.000000000000D+00  7 2 -2 23 -13 13 23 21 0 0.20584521D+00 0.13787582D-01 0.53554409D+05 0.53554409D+05 0.53554409D+05 0.11446812D+01  1  2  2  1  7  1        2 0.276229686624D-03 0.100000000000D+01
-.164281866416D-06 0.000000000000D+00 -.141504783110D-07 0.102080169380D-06 0.000000000000D+00  7 2 -2 23 -13 13 23 21 2 0.20584521D+00 0.13787582D-01 0.53554409D+05 0.53554409D+05 0.53554409D+05 0.11446812D+01  1  2  3  1  7  1        2 -.161368568808D-04 0.100000000000D+01
0.226245442998D-06 0.000000000000D+00 0.000000000000D+00 0.102080169380D-06 0.000000000000D+00  7 2 -2 23 -13 13 23 21 2 0.20584521D+00 0.13787582D-01 0.53554409D+05 0.53554409D+05 0.53554409D+05 0.11446812D+01  1  2 15  1  7  1        2 0.222233312370D-04 0.100000000000D+01
  </mgrwgt>
  </event>
  <event>
  9     66 0.55102590E-06 0.57419431E+03 0.75467711E-02 0.92136172E-01
        2 -1    0    0  502    0 0.00000000E+00 0.00000000E+00 0.18710127E+04 0.18710128E+04 0.32000000E+00 0.0000E+00 0.9000E+01
       -2 -1    0    0    0  501 0.00000000E+00 0.00000000E+00 -.24011702E+03 0.24011724E+03 0.32000000E+00 0.0000E+00 0.9000E+01
       25  2    1    2    0    0 -.46042239E+03 -.23227236E+03 0.10814272E+04 0.12350245E+04 0.29976906E+03 0.0000E+00 0.0000E+00
       23  2    1    2    0    0 0.46865093E+03 0.33143426E+03 0.46981297E+03 0.74864429E+03 0.10129995E+03 0.0000E+00 0.0000E+00
       23  1    3    3    0    0 -.63167858E+02 -.65047016E+01 0.35522355E+03 0.37219821E+03 0.91188000E+02 0.0000E+00 0.9000E+01
      -11  1    4    4    0    0 0.28753210E+03 0.17118669E+03 0.32654527E+03 0.46755898E+03 0.51099893E-03 0.0000E+00 0.9000E+01
       11  1    4    4    0    0 0.18111884E+03 0.16024757E+03 0.14326770E+03 0.28108531E+03 0.51099893E-03 0.0000E+00 0.9000E+01
       23  1    3    3    0    0 -.39725453E+03 -.22576765E+03 0.72620367E+03 0.86282629E+03 0.91188000E+02 0.0000E+00 0.9000E+01
       21  1    1    2  502  501 -.82285464E+01 -.99161905E+02 0.79655533E+02 0.12746121E+03 0.75000000E+00 0.0000E+00 0.9000E+01
#aMCatNLO 2  0  0  1  2 0.99502725D+02 0.00000000D+00  -5  7  0 0.00000000D+00 0.00000000D+00 0.00000000D+00 0.00000000D+00 0.00000000D+00
  <mgrwgt>
 0.1097768902D-03    1    2    0
 0.616176718540426D+03 0.000000000000000D+00 0.000000000000000D+00 0.616176718540426D+03
 0.616176718540426D+03 0.000000000000000D+00 0.000000000000000D+00 -.616176718540426D+03
 0.152915333788017D+03 -.641824363454231D+02 -.187313514486017D+02 0.102944641925529D+03
 0.325873115006229D+03 0.285311124508572D+03 0.144421854000463D+03 -.627150492512452D+02
 0.258007752003061D+03 0.179354826581070D+03 0.138989520715366D+03 -.122807814926658D+03
 0.495557236283545D+03 -.400483514744219D+03 -.264680023267228D+03 0.825782222523740D+02
 0.000000000000000D+00 -.000000000000000D+00 -.000000000000000D+00 -.000000000000000D+00
 0.654401050944035D+03 0.000000000000000D+00 0.000000000000000D+00 0.654401050944035D+03
 0.686521582714520D+03 0.000000000000000D+00 0.000000000000000D+00 -.686521582714520D+03
 0.151477193099882D+03 -.631678576549956D+02 -.650470164740701D+01 0.102944641925529D+03
 0.340459641685107D+03 0.287532095642734D+03 0.171186693960315D+03 -.627150492512452D+02
 0.271228825510876D+03 0.181118838855715D+03 0.160247566572809D+03 -.122807814926658D+03
 0.473198277321832D+03 -.397254530411433D+03 -.225767654002027D+03 0.825782222523740D+02
 0.104558696040858D+03 -.822854643202118D+01 -.991619048836896D+02 -.321205317704848D+02
0.138563053312D-04 0.000000000000D+00 0.000000000000D+00 0.313293857254D-07 0.195535324883D-10  7 2 -2 23 -11 11 23 21 2 0.28784755D+00 0.36941024D-01 0.39251919D+06 0.39251919D+06 0.39251919D+06 0.10760192D+01  1  2  1  1  7  1        2 0.109776890200D-03 0.100000000000D+01
  </mgrwgt>
  </event>
  <event>
  8     66 0.55102590E-06 0.24113368E+03 0.75467711E-02 0.10270916E+00
        2 -1    0    0  501    0 0.00000000E+00 0.00000000E+00 0.30336163E+04 0.30336163E+04 0.32000000E+00 0.0000E+00 0.9000E+01
       -2 -1    0    0    0  501 0.00000000E+00 0.00000000E+00 -.22892656E+02 0.22894892E+02 0.32000000E+00 0.0000E+00 0.9000E+01
       25  2    1    2    0    0 0.37873205E+02 0.14085739E+03 0.23479286E+04 0.23717705E+04 0.30207903E+03 0.0000E+00 0.0000E+00
       23  2    1    2    0    0 -.37873205E+02 -.14085739E+03 0.66279507E+03 0.68474067E+03 0.91089449E+02 0.0000E+00 0.0000E+00
       23  1    3    3    0    0 0.10181490E+03 -.13552474E+02 0.74293562E+03 0.75552533E+03 0.91188000E+02 0.0000E+00 0.9000E+01
      -11  1    4    4    0    0 0.12640587E+02 -.35696846E+02 0.61433735E+02 0.72167535E+02 0.51099893E-03 0.0000E+00 0.9000E+01
       11  1    4    4    0    0 -.50513793E+02 -.10516055E+03 0.60136134E+03 0.61257313E+03 0.51099893E-03 0.0000E+00 0.9000E+01
       23  1    3    3    0    0 -.63941692E+02 0.15440987E+03 0.16049929E+04 0.16162452E+04 0.91188000E+02 0.0000E+00 0.9000E+01
#aMCatNLO 1  0  0  1  2 0.36641649D+02 0.00000000D+00  -5  7  0 0.00000000D+00 0.00000000D+00 0.00000000D+00 0.00000000D+00 0.00000000D+00
  <mgrwgt>
 0.3752129126D-03    4    2    0
 0.263535533450595D+03 0.000000000000000D+00 0.000000000000000D+00 0.263535533450595D+03
 0.263535533450595D+03 0.000000000000000D+00 0.000000000000000D+00 -.263535533450595D+03
 0.137548460038091D+03 0.101814897338586D+03 -.135524742493327D+02 -.737459398914402D+01
 0.675826898395052D+02 0.126405874160022D+02 -.356968462336026D+02 -.559765190476837D+02
 0.117259040781970D+03 -.505137924943025D+02 -.105160548419902D+03 -.118024772389402D+02
 0.204680876241623D+03 -.639416922602856D+02 0.154409868902838D+03 0.751535902757679D+02
 0.000000000000000D+00 0.000000000000000D+00 -.000000000000000D+00 -.000000000000000D+00
 0.265724498344393D+03 0.000000000000000D+00 0.000000000000000D+00 0.265724498344393D+03
 0.480316378930856D+03 0.000000000000000D+00 0.000000000000000D+00 -.480316378930856D+03
 0.132124045373953D+03 0.950642375837853D+02 -.706527551390381D+01 -.737459398914402D+01
 0.653926743184216D+02 0.931184080229272D+01 -.324980121036996D+02 -.559765190476837D+02
 0.115008551989646D+03 -.563281022937834D+02 -.995731562910426D+02 -.118024772389402D+02
 0.215817912270281D+03 -.744679572356953D+02 0.164525320624235D+03 0.751535902757679D+02
 0.217697693322948D+03 0.264199811434006D+02 -.253888767155889D+02 -.214591880586464D+03
0.564067024722D-05 0.000000000000D+00 0.000000000000D+00 0.189228759423D-07 0.000000000000D+00  7 2 -2 23 -11 11 23 21 0 0.46671037D+00 0.35221204D-02 0.58145453D+05 0.58145453D+05 0.58145453D+05 0.11415743D+01  1  2  2  1  7  1        2 0.379475768530D-03 0.100000000000D+01
-.310363628638D-06 0.000000000000D+00 -.216616589719D-07 0.189228759423D-07 0.000000000000D+00  7 2 -2 23 -11 11 23 21 2 0.46671037D+00 0.35221204D-02 0.58145453D+05 0.58145453D+05 0.58145453D+05 0.11415743D+01  1  2  3  1  7  1        2 -.272102475836D-04 0.100000000000D+01
0.361191445277D-06 0.000000000000D+00 0.000000000000D+00 0.189228759423D-07 0.000000000000D+00  7 2 -2 23 -11 11 23 21 2 0.46671037D+00 0.35221204D-02 0.58145453D+05 0.58145453D+05 0.58145453D+05 0.11415743D+01  1  2 15  1  7  1        2 0.316664317085D-04 0.100000000000D+01
-.994505062740D-07 0.000000000000D+00 0.000000000000D+00 0.189228759423D-07 0.000000000000D+00  7 2 -2 23 -11 11 23 21 2 0.46671037D+00 0.35221204D-02 0.58145453D+05 0.58145453D+05 0.58145453D+05 0.11415743D+01  1  2  4  1  7  1        2 -.871904001738D-05 0.100000000000D+01
  </mgrwgt>
  </event>
  <event>
  8     66 0.55102590E-06 0.33961323E+03 0.75467711E-02 0.97980950E-01
        2 -1    0    0  501    0 0.00000000E+00 0.00000000E+00 0.44464573E+03 0.44464584E+03 0.32000000E+00 0.0000E+00 0.9000E+01
       -2 -1    0    0    0  501 0.00000000E+00 0.00000000E+00 -.36941992E+03 0.36942006E+03 0.32000000E+00 0.0000E+00 0.9000E+01
       25  2    1    2    0    0 0.13732031E+03 0.25790365E+03 0.22783393E+03 0.47568405E+03 0.29832174E+03 0.0000E+00 0.0000E+00
       23  2    1    2    0    0 -.13732031E+03 -.25790365E+03 -.15260812E+03 0.33838185E+03 0.76432166E+02 0.0000E+00 0.0000E+00
       23  1    3    3    0    0 -.96629934E+01 0.28027657E+02 -.17651035E+02 0.97497351E+02 0.91188000E+02 0.0000E+00 0.9000E+01
      -13  1    4    4    0    0 -.58841931E+02 -.66541227E+02 -.78909467E+02 0.11881424E+03 0.10565837E+00 0.0000E+00 0.9000E+01
       13  1    4    4    0    0 -.78478382E+02 -.19136242E+03 -.73698652E+02 0.21956761E+03 0.10565837E+00 0.0000E+00 0.9000E+01
       23  1    3    3    0    0 0.14698331E+03 0.22987600E+03 0.24548496E+03 0.37818670E+03 0.91188000E+02 0.0000E+00 0.9000E+01
#aMCatNLO 1  0  0  2  2 0.68517077D+02 0.00000000D+00  -5  7  0 0.00000000D+00 0.00000000D+00 0.00000000D+00 0.00000000D+00 0.00000000D+00
  <mgrwgt>
 0.1816445422D-02    4    2    0
 0.405291368932892D+03 0.000000000000000D+00 0.000000000000000D+00 0.405291368932892D+03
 0.405291368932892D+03 0.000000000000000D+00 0.000000000000000D+00 -.405291368932892D+03
 0.995544050224859D+02 -.966299332720136D+01 0.280276568633930D+02 -.267750859211980D+02
 0.126647764103088D+03 -.588418928492806D+02 -.665409894980324D+02 -.902750492375824D+02
 0.227350886633968D+03 -.784784203572305D+02 -.191362662851667D+03 -.943922372751291D+02
 0.357029682106241D+03 0.146983306533712D+03 0.229875995486307D+03 0.211442372433909D+03
 0.000000000000000D+00 0.000000000000000D+00 -.000000000000000D+00 0.000000000000000D+00
 0.507536384287236D+03 0.000000000000000D+00 0.000000000000000D+00 0.507536384287236D+03
 0.418380061797468D+03 0.000000000000000D+00 0.000000000000000D+00 -.418380061797468D+03
 0.102374955449111D+03 -.138361559599799D+02 0.354546995667865D+02 -.267750859211980D+02
 0.124632314879883D+03 -.640349595411393D+02 -.572988076144269D+02 -.902750492375824D+02
 0.217309286960091D+03 -.876679667233150D+02 -.175007883684989D+03 -.943922372751291D+02
 0.369156837954187D+03 0.131975610560893D+03 0.256585426361150D+03 0.211442372433909D+03
 0.112443050841431D+03 0.335634716635416D+02 -.597334346285207D+02 0.891563224897677D+02
0.837257400880D-04 0.000000000000D+00 0.000000000000D+00 0.614314236164D-09 0.000000000000D+00  7 2 -2 23 -13 13 23 21 0 0.68407055D-01 0.56833854D-01 0.11533714D+06 0.11533714D+06 0.11533714D+06 0.11166720D+01  1  2  2  2  7  2       -2 0.213902928113D-02 0.100000000000D+01
-.447465258276D-05 0.000000000000D+00 -.321528887432D-06 0.614314236164D-09 0.000000000000D+00  7 2 -2 23 -13 13 23 21 2 0.68407055D-01 0.56833854D-01 0.11533714D+06 0.11533714D+06 0.11533714D+06 0.11166720D+01  1  2  3  2  7  2       -2 -.142550345078D-03 0.100000000000D+01
0.532963268988D-05 0.000000000000D+00 0.000000000000D+00 0.614314236164D-09 0.000000000000D+00  7 2 -2 23 -13 13 23 21 2 0.68407055D-01 0.56833854D-01 0.11533714D+06 0.11533714D+06 0.11533714D+06 0.11166720D+01  1  2 15  2  7  2       -2 0.169787701957D-03 0.100000000000D+01
-.109808812139D-04 0.000000000000D+00 0.000000000000D+00 0.614314236164D-09 0.000000000000D+00  7 2 -2 23 -13 13 23 21 2 0.68407055D-01 0.56833854D-01 0.11533714D+06 0.11533714D+06 0.11533714D+06 0.11166720D+01  1  2  4  2  7  2       -2 -.349821215694D-03 0.100000000000D+01
  </mgrwgt>
  </event>
  <event>
  8     66 0.55102590E-06 0.12514359E+03 0.75467711E-02 0.10184192E+00
        2 -1    0    0  501    0 0.00000000E+00 0.00000000E+00 0.41673831E+04 0.41673831E+04 0.32000000E+00 0.0000E+00 0.9000E+01
       -2 -1    0    0    0  501 0.00000000E+00 0.00000000E+00 -.10691295E+03 0.10691343E+03 0.32000000E+00 0.0000E+00 0.9000E+01
       25  2    1    2    0    0 0.26363699E+02 0.13420113E+03 0.15295733E+03 0.36334409E+03 0.29986329E+03 0.0000E+00 0.0000E+00
       23  2    1    2    0    0 -.26363699E+02 -.13420113E+03 0.39075128E+04 0.39109524E+04 0.90485778E+02 0.0000E+00 0.0000E+00
       23  1    3    3    0    0 0.80463202E+02 -.15049557E+02 -.33953377E+01 0.12258709E+03 0.91188000E+02 0.0000E+00 0.9000E+01
      -11  1    4    4    0    0 -.53544346E+02 -.45565536E+02 0.14778174E+04 0.14794889E+04 0.51099893E-03 0.0000E+00 0.9000E+01
       11  1    4    4    0    0 0.27180647E+02 -.88635595E+02 0.24296954E+04 0.24314635E+04 0.51099893E-03 0.0000E+00 0.9000E+01
       23  1    3    3    0    0 -.54099502E+02 0.14925069E+03 0.15635266E+03 0.24075700E+03 0.91188000E+02 0.0000E+00 0.9000E+01
#aMCatNLO 1  0  0  1  2 0.79558689D+02 0.00000000D+00  -5  7  0 0.00000000D+00 0.00000000D+00 0.00000000D+00 0.00000000D+00 0.00000000D+00
  <mgrwgt>
 0.1186479016D-03    6    2    0
 0.667494029956103D+03 0.000000000000000D+00 0.000000000000000D+00 0.667494029956103D+03
 0.667494029956103D+03 0.000000000000000D+00 0.000000000000000D+00 -.667494029956103D+03
 0.402820273887476D+03 0.804632016210471D+02 -.150495566483472D+02 -.383729208870474D+03
 0.242055325837162D+03 -.535443461408885D+02 -.455655359913083D+02 0.231619441524894D+03
 0.394827823817889D+03 0.271806467125707D+02 -.886355946626348D+02 0.383788944947424D+03
 0.295284636369680D+03 -.540995021927294D+02 0.149250687302290D+03 -.231679177601844D+03
 0.000000000000000D+00 -.000000000000000D+00 -.000000000000000D+00 -.000000000000000D+00
 0.707295653628200D+03 0.000000000000000D+00 0.000000000000000D+00 0.707295653628200D+03
 0.709654610752633D+03 0.000000000000000D+00 0.000000000000000D+00 -.709654610752633D+03
 0.407864253008235D+03 0.103561781081514D+03 -.805290611084513D+01 -.383729208870474D+03
 0.238643623263509D+03 -.398479420478161D+02 -.414168413400354D+02 0.231619441524894D+03
 0.395547300683406D+03 0.497005567530128D+02 -.818142253676690D+02 0.383788944947424D+03
 0.295301434081035D+03 -.372721188839743D+02 0.154347767868368D+03 -.231679177601844D+03
 0.795936533446480D+02 -.761422769027367D+02 -.230637950498188D+02 -.235895712443365D+01
0.186007127790D-03 0.000000000000D+00 0.000000000000D+00 0.275316203535D-05 0.000000000000D+00  7 2 -2 23 -11 11 23 21 0 0.64113589D+00 0.16448184D-01 0.54904971D+05 0.54904971D+05 0.54904971D+05 0.11437376D+01  1  2  2  1  7  1        2 0.184494242744D-03 0.100000000000D+01
0.343545496867D-05 0.000000000000D+00 -.714316347516D-06 0.275316203535D-05 0.000000000000D+00  7 2 -2 23 -11 11 23 21 2 0.64113589D+00 0.16448184D-01 0.54904971D+05 0.54904971D+05 0.54904971D+05 0.11437376D+01  1  2  3  1  7  1        2 0.445748935800D-05 0.100000000000D+01
0.112189268109D-04 0.000000000000D+00 0.000000000000D+00 0.275316203535D-05 0.000000000000D+00  7 2 -2 23 -11 11 23 21 2 0.64113589D+00 0.16448184D-01 0.54904971D+05 0.54904971D+05 0.54904971D+05 0.11437376D+01  1  2 15  1  7  1        2 0.145565135692D-04 0.100000000000D+01
0.152753366308D-03 0.000000000000D+00 0.000000000000D+00 0.275316203535D-05 0.000000000000D+00  7 2 -2 23 -11 11 23 21 2 0.69841062D+00 0.16448184D-01 0.76752993D+05 0.76752993D+05 0.76752993D+05 0.11312751D+01  1  2 12  1  7  1        2 0.854962916296D-04 0.100000000000D+01
-.131307079951D-03 0.000000000000D+00 0.000000000000D+00 0.275316203535D-05 0.000000000000D+00  7 2 -2 23 -11 11 23 21 2 0.64113589D+00 0.16448184D-01 0.54904971D+05 0.54904971D+05 0.54904971D+05 0.11437376D+01  1  2  4  1  7  1        2 -.170370421632D-03 0.100000000000D+01
0.216544764132D-05 0.000000000000D+00 0.000000000000D+00 0.275316203535D-05 0.000000000000D+00  7 21 -2 23 -11 11 23 -2 2 0.69841062D+00 0.16448184D-01 0.76752993D+05 0.76752993D+05 0.76752993D+05 0.11312751D+01  1  2 12  3  7  1        2 0.137858907272D-07 0.100000000000D+01
  </mgrwgt>
  </event>
  <event>
  8     66 0.55102590E-06 0.17745517E+03 0.75467711E-02 0.10136269E+00
        2 -1    0    0  501    0 0.00000000E+00 0.00000000E+00 0.44541085E+03 0.44541096E+03 0.32000000E+00 0.0000E+00 0.9000E+01
       -2 -1    0    0    0  501 0.00000000E+00 0.00000000E+00 -.19721563E+03 0.19721589E+03 0.32000000E+00 0.0000E+00 0.9000E+01
       25  2    1    2    0    0 0.18724807E+03 -.75475432E+02 0.10684156E+03 0.37714700E+03 0.30011058E+03 0.0000E+00 0.0000E+00
       23  2    1    2    0    0 -.18724807E+03 0.75475432E+02 0.14135366E+03 0.26547985E+03 0.98693020E+02 0.0000E+00 0.0000E+00
       23  1    3    3    0    0 0.13887596E+03 0.30354214E+02 0.14705776E+03 0.22394005E+03 0.91188000E+02 0.0000E+00 0.9000E+01
      -11  1    4    4    0    0 0.10522884E+02 0.14094960E+02 0.95548122E+01 0.20017328E+02 0.51099893E-03 0.0000E+00 0.9000E+01
       11  1    4    4    0    0 -.19777096E+03 0.61380472E+02 0.13179884E+03 0.24546252E+03 0.51099893E-03 0.0000E+00 0.9000E+01
       23  1    3    3    0    0 0.48372111E+02 -.10582965E+03 -.40216197E+02 0.15320695E+03 0.91188000E+02 0.0000E+00 0.9000E+01
#aMCatNLO 1  0  0  2  1 0.31377951D+02 0.00000000D+00  -5  7  0 0.00000000D+00 0.00000000D+00 0.00000000D+00 0.00000000D+00 0.00000000D+00
  <mgrwgt>
 0.3188491105D-03    9    2    0
 0.296381680389379D+03 0.000000000000000D+00 0.000000000000000D+00 0.296381680389379D+03
 0.296381680389379D+03 0.000000000000000D+00 0.000000000000000D+00 -.296381680389379D+03
 0.181203605417478D+03 0.138875963296739D+03 0.303542143687479D+02 0.656626511858313D+02
 0.177005097535521D+02 0.105228835591770D+02 0.140949601014480D+02 0.197713602824458D+01
 0.210925594024650D+03 -.197770957797906D+03 0.613804719356287D+02 0.401085044761071D+02
 0.182933651583077D+03 0.483721109419896D+02 -.105829646405825D+03 -.107748291690183D+03
 0.000000000000000D+00 -.000000000000000D+00 0.000000000000000D+00 -.000000000000000D+00
 0.311141234696499D+03 0.000000000000000D+00 0.000000000000000D+00 0.311141234696499D+03
 0.313955988391467D+03 0.000000000000000D+00 0.000000000000000D+00 -.313955988391467D+03
 0.188550104821214D+03 0.148578830187060D+03 0.291313944668537D+02 0.656626511858313D+02
 0.181846568343348D+02 0.114645617224995D+02 0.139762835481874D+02 0.197713602824458D+01
 0.200427784692240D+03 -.186976456030777D+03 0.600200769368018D+02 0.401085044761071D+02
 0.186430729982619D+03 0.580647612903638D+02 -.107051178751065D+03 -.107748291690183D+03
 0.315039467575581D+02 -.311316971691460D+02 0.392342379922242D+01 -.281475369496743D+01
0.233504352995D-05 0.000000000000D+00 0.000000000000D+00 0.126001829438D-07 0.000000000000D+00  7 2 -2 23 -11 11 23 21 0 0.68524774D-01 0.30340895D-01 0.73275590D+05 0.73275590D+05 0.73275590D+05 0.11329751D+01  1  2  2  2  7  2       -2 0.194390011601D-03 0.100000000000D+01
-.128428346508D-06 0.000000000000D+00 -.896718198608D-08 0.126001829438D-07 0.000000000000D+00  7 2 -2 23 -11 11 23 21 2 0.68524774D-01 0.30340895D-01 0.73275590D+05 0.73275590D+05 0.73275590D+05 0.11329751D+01  1  2  3  2  7  2       -2 -.137239954184D-04 0.100000000000D+01
0.148741837072D-06 0.000000000000D+00 0.000000000000D+00 0.126001829438D-07 0.000000000000D+00  7 2 -2 23 -11 11 23 21 2 0.68524774D-01 0.30340895D-01 0.73275590D+05 0.73275590D+05 0.73275590D+05 0.11329751D+01  1  2 15  2  7  2       -2 0.158947175293D-04 0.100000000000D+01
0.420320523140D-05 0.000000000000D+00 0.000000000000D+00 0.126001829438D-07 0.000000000000D+00  7 2 -2 23 -11 11 23 21 2 0.68524774D-01 0.32854845D-01 0.82574641D+05 0.82574641D+05 0.82574641D+05 0.11286103D+01  1  2 12  2  7  2       -2 0.387097259321D-03 0.100000000000D+01
-.346282837568D-05 0.000000000000D+00 0.000000000000D+00 0.126001829438D-07 0.000000000000D+00  7 2 -2 23 -11 11 23 21 2 0.68524774D-01 0.30340895D-01 0.73275590D+05 0.73275590D+05 0.73275590D+05 0.11329751D+01  1  2  4  2  7  2       -2 -.370041677359D-03 0.100000000000D+01
-.145785300754D-04 0.000000000000D+00 -.306692111095D-05 0.126001829438D-07 0.000000000000D+00  7 2 -2 23 -11 11 23 21 2 0.68524774D-01 0.33640727D-01 0.73275590D+05 0.73275590D+05 0.73275590D+05 0.11329751D+01  1  2  5  2  7  2       -2 -.129769665425D-02 0.100000000000D+01
0.148323175812D-04 0.000000000000D+00 0.305064869194D-05 0.126001829438D-07 0.000000000000D+00  7 2 -2 23 -11 11 23 21 2 0.68524774D-01 0.30340895D-01 0.73275590D+05 0.73275590D+05 0.73275590D+05 0.11329751D+01  1  2  6  2  7  2       -2 0.158499789231D-02 0.100000000000D+01
0.558939719639D-07 0.000000000000D+00 0.000000000000D+00 0.126001829438D-07 0.000000000000D+00  7 2 21 23 -11 11 23 2 2 0.68524774D-01 0.32854845D-01 0.82574641D+05 0.82574641D+05 0.82574641D+05 0.11286103D+01  1  2 12  4  7  2       -2 0.603265096773D-04 0.100000000000D+01
-.232653486096D-06 0.000000000000D+00 -.512023418263D-07 0.126001829438D-07 0.000000000000D+00  7 2 21 23 -11 11 23 2 2 0.68524774D-01 0.33640727D-01 0.73275590D+05 0.73275590D+05 0.73275590D+05 0.11329751D+01  1  2  5  4  7  2       -2 -.242394952948D-03 0.100000000000D+01
  </mgrwgt>
  </event>
  <event>
  8     66 0.55102590E-06 0.37363589E+03 0.75467711E-02 0.88399469E-01
        2 -1    0    0  501    0 0.00000000E+00 0.00000000E+00 0.21133917E+03 0.21133941E+03 0.32000000E+00 0.0000E+00 0.9000E+01
       -2 -1    0    0    0  501 0.00000000E+00 0.00000000E+00 -.10592860E+04 0.10592860E+04 0.32000000E+00 0.0000E+00 0.9000E+01
       25  2    1    2    0    0 0.45994431E+02 -.31342672E+03 -.91039023E+02 0.44517957E+03 0.29924062E+03 0.0000E+00 0.0000E+00
       23  2    1    2    0    0 -.45994431E+02 0.31342672E+03 -.75690779E+03 0.82544587E+03 0.89998193E+02 0.0000E+00 0.0000E+00
       23  1    3    3    0    0 -.79525121E+02 -.70979116E+02 -.69462794E+02 0.15653310E+03 0.91188000E+02 0.0000E+00 0.9000E+01
      -13  1    4    4    0    0 -.14404119E+02 0.22121365E+03 -.61101798E+03 0.64998919E+03 0.10565837E+00 0.0000E+00 0.9000E+01
       13  1    4    4    0    0 -.31590312E+02 0.92213073E+02 -.14588981E+03 0.17545668E+03 0.10565837E+00 0.0000E+00 0.9000E+01
       23  1    3    3    0    0 0.12551955E+03 -.24244761E+03 -.21576229E+02 0.28864647E+03 0.91188000E+02 0.0000E+00 0.9000E+01
#aMCatNLO 1  0  0  2  1 0.75741512D+03 0.00000000D+00  -5  7  0 0.00000000D+00 0.00000000D+00 0.00000000D+00 0.00000000D+00 0.00000000D+00
  <mgrwgt>
 0.2853399428D-03    3    2    0
 0.473147756298889D+03 0.000000000000000D+00 0.000000000000000D+00 0.473147756298889D+03
 0.473147756298889D+03 0.000000000000000D+00 0.000000000000000D+00 -.473147756298889D+03
 0.147939179114486D+03 -.795251209867297D+02 -.709791160647968D+02 0.469943569779829D+02
 0.325249697633287D+03 -.144040950133663D+02 0.221213828226277D+03 -.238000693399969D+03
 0.104864317679940D+03 -.315903359260731D+02 0.922128952255137D+02 -.386698558658502D+02
 0.368242318170065D+03 0.125519551926169D+03 -.242447607386993D+03 0.229676192287836D+03
 0.000000000000000D+00 -.000000000000000D+00 0.000000000000000D+00 0.000000000000000D+00
 0.176732676440779D+04 0.000000000000000D+00 0.000000000000000D+00 0.176732676440779D+04
 0.729543836014958D+03 0.000000000000000D+00 0.000000000000000D+00 -.729543836014958D+03
 0.165209731284172D+03 0.139553652214473D+02 -.128746969520646D+03 0.469943569779829D+02
 0.313718255830798D+03 0.176339136011213D+03 0.103340810396816D+03 -.238000693399969D+03
 0.740090893408042D+02 0.218065385408545D+02 0.592153901383393D+02 -.386698558658502D+02
 0.659149081499254D+03 0.432214048946521D+03 -.431974678524941D+03 0.229676192287836D+03
 0.128478444246772D+04 -.644315088720035D+03 0.398165447510432D+03 0.103778292839283D+04
0.600522466649D-04 0.000000000000D+00 0.000000000000D+00 0.342564009983D-06 0.000000000000D+00  7 2 -2 23 -13 13 23 21 0 0.32513740D-01 0.16296710D+00 0.13960378D+06 0.13960378D+06 0.13960378D+06 0.11100220D+01  1  2  2  2  7  2       -2 0.281456690587D-03 0.100000000000D+01
-.311007075043D-05 0.000000000000D+00 -.230616439313D-06 0.342564009983D-06 0.000000000000D+00  7 2 -2 23 -13 13 23 21 2 0.32513740D-01 0.16296710D+00 0.13960378D+06 0.13960378D+06 0.13960378D+06 0.11100220D+01  1  2  3  2  7  2       -2 -.179603897286D-04 0.100000000000D+01
0.378250543332D-05 0.000000000000D+00 0.000000000000D+00 0.342564009983D-06 0.000000000000D+00  7 2 -2 23 -13 13 23 21 2 0.32513740D-01 0.16296710D+00 0.13960378D+06 0.13960378D+06 0.13960378D+06 0.11100220D+01  1  2 15  2  7  2       -2 0.218436418925D-04 0.100000000000D+01
  </mgrwgt>
  </event>
  <event>
  8     66 0.55102590E-06 0.21541654E+03 0.75467711E-02 0.10323424E+00
        2 -1    0    0  501    0 0.00000000E+00 0.00000000E+00 0.25219038E+03 0.25219058E+03 0.32000000E+00 0.0000E+00 0.9000E+01
       -2 -1    0    0    0  501 0.00000000E+00 0.00000000E+00 -.22655751E+03 0.22655774E+03 0.32000000E+00 0.0000E+00 0.9000E+01
       25  2    1    2    0    0 -.10747243E+03 -.29298338E+02 0.67644627E+02 0.32680471E+03 0.29969452E+03 0.0000E+00 0.0000E+00
       23  2    1    2    0    0 0.10747243E+03 0.29298338E+02 -.42011763E+02 0.15194361E+03 0.94409510E+02 0.0000E+00 0.0000E+00
       23  1    3    3    0    0 -.17820920E+03 -.25919243E+02 0.23593991E+02 0.20322956E+03 0.91188000E+02 0.0000E+00 0.9000E+01
      -11  1    4    4    0    0 0.26768635E+02 0.17443995E+02 -.60397024E+02 0.68327544E+02 0.51099893E-03 0.0000E+00 0.9000E+01
       11  1    4    4    0    0 0.80703796E+02 0.11854343E+02 0.18385261E+02 0.83616063E+02 0.51099893E-03 0.0000E+00 0.9000E+01
       23  1    3    3    0    0 0.70736767E+02 -.33790952E+01 0.44050635E+02 0.12357515E+03 0.91188000E+02 0.0000E+00 0.9000E+01
#aMCatNLO 1  0  0  1  2 0.60677713D+02 0.00000000D+00  -5  7  0 0.00000000D+00 0.00000000D+00 0.00000000D+00 0.00000000D+00 0.00000000D+00
  <mgrwgt>
 0.2500646520D-03    3    2    0
 0.239030807408987D+03 0.000000000000000D+00 0.000000000000000D+00 0.239030807408987D+03
 0.239030807408987D+03 0.000000000000000D+00 0.000000000000000D+00 -.239030807408987D+03
 0.202256412596060D+03 -.178209197940095D+03 -.259192425781113D+02 0.127310536073346D+02
 0.716640792978135D+02 0.267686347981946D+02 0.174439951739291D+02 -.641473887622569D+02
 0.827503844937127D+02 0.807037959812756D+02 0.118543426245077D+02 0.139283168046506D+02
 0.121390738430388D+03 0.707367671606249D+02 -.337909522032552D+01 0.374880183502717D+02
 0.000000000000000D+00 -.000000000000000D+00 0.000000000000000D+00 -.000000000000000D+00
 0.241599312988435D+03 0.000000000000000D+00 0.000000000000000D+00 0.241599312988435D+03
 0.165522104526110D+04 0.000000000000000D+00 0.000000000000000D+00 -.165522104526110D+04
 0.183472637576294D+03 -.155087677240600D+03 -.336554607361795D+02 0.127310536073346D+02
 0.747585219276062D+02 0.355455552909463D+02 0.145073296937286D+02 -.641473887622569D+02
 0.926508244237350D+02 0.912177634433814D+02 0.833647945924194D+01 0.139283168046506D+02
 0.131014988847842D+03 0.858665694021902D+02 -.844136825809061D+01 0.374880183502717D+02
 0.141492338547406D+04 -.575422108959175D+02 0.192530198412996D+02 -.141362173227266D+04
0.204901779800D-05 0.000000000000D+00 0.000000000000D+00 0.286493661264D-07 0.000000000000D+00  7 2 -2 23 -11 11 23 21 0 0.38798552D-01 0.34855035D-01 0.46404285D+05 0.46404285D+05 0.46404285D+05 0.11501573D+01  1  2  2  1  7  1        2 0.247047940043D-03 0.100000000000D+01
-.112336779115D-06 0.000000000000D+00 -.786876786310D-08 0.286493661264D-07 0.000000000000D+00  7 2 -2 23 -11 11 23 21 2 0.38798552D-01 0.34855035D-01 0.46404285D+05 0.46404285D+05 0.46404285D+05 0.11501573D+01  1  2  3  1  7  1        2 -.179172742729D-04 0.100000000000D+01
0.131250800111D-06 0.000000000000D+00 0.000000000000D+00 0.286493661264D-07 0.000000000000D+00  7 2 -2 23 -11 11 23 21 2 0.38798552D-01 0.34855035D-01 0.46404285D+05 0.46404285D+05 0.46404285D+05 0.11501573D+01  1  2 15  1  7  1        2 0.209339862035D-04 0.100000000000D+01
  </mgrwgt>
  </event>
  <event>
  8     66 0.55102590E-06 0.18997827E+03 0.75467711E-02 0.98609911E-01
        2 -1    0    0  501    0 0.00000000E+00 0.00000000E+00 0.19314138E+03 0.19314164E+03 0.32000000E+00 0.0000E+00 0.9000E+01
       -2 -1    0    0    0  501 0.00000000E+00 0.00000000E+00 -.98036432E+03 0.98036437E+03 0.32000000E+00 0.0000E+00 0.9000E+01
       25  2    1    2    0    0 -.28627237E+02 0.20974887E+02 -.94186860E+03 0.98989331E+03 0.30251091E+03 0.0000E+00 0.0000E+00
       23  2    1    2    0    0 0.28627237E+02 -.20974887E+02 0.15464566E+03 0.18361270E+03 0.92406070E+02 0.0000E+00 0.0000E+00
       23  1    3    3    0    0 -.30164924E+00 -.94602771E+02 -.63387144E+03 0.64734691E+03 0.91188000E+02 0.0000E+00 0.9000E+01
      -11  1    4    4    0    0 0.62144960E+02 -.78241243E+01 0.10543626E+03 0.12263775E+03 0.51099893E-03 0.0000E+00 0.9000E+01
       11  1    4    4    0    0 -.33517723E+02 -.13150762E+02 0.49209396E+02 0.60974954E+02 0.51099893E-03 0.0000E+00 0.9000E+01
       23  1    3    3    0    0 -.28325588E+02 0.11557766E+03 -.30799716E+03 0.34254640E+03 0.91188000E+02 0.0000E+00 0.9000E+01
#aMCatNLO 1  0  0  1  1 0.27521949D+03 0.00000000D+00  -5  7  0 0.00000000D+00 0.00000000D+00 0.00000000D+00 0.00000000D+00 0.00000000D+00
  <mgrwgt>
 0.3188828729D-03    3    2    0
 0.435142622994031D+03 0.000000000000000D+00 0.000000000000000D+00 0.435142622994031D+03
 0.435142622994031D+03 0.000000000000000D+00 0.000000000000000D+00 -.435142622994031D+03
 0.299519450276570D+03 -.301649244346756D+00 -.946027709494818D+02 -.269159570675820D+03
 0.260739775789554D+03 0.621449600472976D+02 -.782412433483521D+01 0.253104756371546D+03
 0.126732288037319D+03 -.335177232533482D+02 -.131507623050529D+02 0.121510051065259D+03
 0.183293731884620D+03 -.283255875496027D+02 0.115577657589370D+03 -.105455236760984D+03
 0.000000000000000D+00 -.000000000000000D+00 -.000000000000000D+00 -.000000000000000D+00
 0.503074648051686D+03 0.000000000000000D+00 0.000000000000000D+00 0.503074648051686D+03
 0.861947875395156D+03 0.000000000000000D+00 0.000000000000000D+00 -.861947875395156D+03
 0.285693459654288D+03 0.279483069092096D+02 -.880449883600545D+01 -.269159570675820D+03
 0.277263277186430D+03 0.881159569257613D+02 0.710526939201964D+02 0.253104756371546D+03
 0.125653267226774D+03 -.213343268364032D+02 0.238515733929375D+02 0.121510051065259D+03
 0.224156218758431D+03 -.865677463535096D+01 0.175314039245792D+03 -.105455236760984D+03
 0.452256300620918D+03 -.860731623632167D+02 -.261413807722920D+03 -.358873227343470D+03
0.446480284424D-04 0.000000000000D+00 0.000000000000D+00 0.307021768146D-07 0.000000000000D+00  7 2 -2 23 -11 11 23 21 0 0.29714083D-01 0.15082530D+00 0.36091745D+05 0.36091745D+05 0.36091745D+05 0.11599593D+01  1  2  2  1  7  1        2 0.297497364530D-03 0.100000000000D+01
-.409002160591D-06 0.000000000000D+00 -.171460185315D-06 0.307021768146D-07 0.000000000000D+00  7 2 -2 23 -11 11 23 21 2 0.29714083D-01 0.15082530D+00 0.36091745D+05 0.36091745D+05 0.36091745D+05 0.11599593D+01  1  2  3  1  7  1        2 -.366683974394D-05 0.100000000000D+01
0.279435842364D-05 0.000000000000D+00 0.000000000000D+00 0.307021768146D-07 0.000000000000D+00  7 2 -2 23 -11 11 23 21 2 0.29714083D-01 0.15082530D+00 0.36091745D+05 0.36091745D+05 0.36091745D+05 0.11599593D+01  1  2 15  1  7  1        2 0.250523481632D-04 0.100000000000D+01
  </mgrwgt>
  </event>
  <event>
  9     66 0.55102590E-06 0.27050880E+03 0.75467711E-02 0.10089653E+00
        2 -1    0    0  501    0 0.00000000E+00 0.00000000E+00 0.19528678E+04 0.19528678E+04 0.32000000E+00 0.0000E+00 0.9000E+01
       -2 -1    0    0    0  502 0.00000000E+00 0.00000000E+00 -.29725995E+03 0.29726012E+03 0.32000000E+00 0.0000E+00 0.9000E+01
       25  2    1    2    0    0 -.58020356E+02 -.17805886E+03 0.69836368E+03 0.78282445E+03 0.30005160E+03 0.0000E+00 0.0000E+00
       23  2    1    2    0    0 0.75456076E+02 0.22439682E+03 0.11965282E+04 0.12229500E+04 0.88766564E+02 0.0000E+00 0.0000E+00
       23  1    3    3    0    0 -.67907971E+02 -.18176805E+03 0.63774336E+03 0.67281719E+03 0.91188000E+02 0.0000E+00 0.9000E+01
      -13  1    4    4    0    0 0.53873869E+02 0.20139402E+03 0.11330202E+04 0.11520403E+04 0.10565837E+00 0.0000E+00 0.9000E+01
       13  1    4    4    0    0 0.21582207E+02 0.23002794E+02 0.63507955E+02 0.70909743E+02 0.10565837E+00 0.0000E+00 0.9000E+01
       23  1    3    3    0    0 0.98876146E+01 0.37091875E+01 0.60620321E+02 0.11000726E+03 0.91188000E+02 0.0000E+00 0.9000E+01
       21  1    1    2  501  502 -.17435720E+02 -.46337955E+02 -.23928403E+03 0.24435347E+03 0.75000000E+00 0.0000E+00 0.9000E+01
#aMCatNLO 2  0  0  2  1 0.49509700D+02 0.00000000D+00  -5  7  0 0.00000000D+00 0.00000000D+00 0.00000000D+00 0.00000000D+00 0.00000000D+00
  <mgrwgt>
 0.5189218395D-04    2    2    0
 0.327896631798424D+03 0.000000000000000D+00 0.000000000000000D+00 0.327896631798424D+03
 0.327896631798424D+03 0.000000000000000D+00 0.000000000000000D+00 -.327896631798424D+03
 0.229754725542089D+03 -.738052652455023D+02 -.197440964099756D+03 0.646769528660658D+01
 0.234084168858730D+03 0.474606000653444D+02 0.184349959425703D+03 0.136227684453130D+03
 0.311772835546878D+02 0.207264854801050D+02 0.207284597711548D+02 -.106191696948502D+02
 0.160777085641342D+03 0.561817970005298D+01 -.763745509710095D+01 -.132076210044887D+03
 0.000000000000000D+00 -.000000000000000D+00 -.000000000000000D+00 -.000000000000000D+00
 0.329257009710902D+03 0.000000000000000D+00 0.000000000000000D+00 0.329257009710902D+03
 0.176308852844576D+04 0.000000000000000D+00 0.000000000000000D+00 -.176308852844576D+04
 0.214495217870513D+03 -.679079709140203D+02 -.181768048758133D+03 0.646769528660658D+01
 0.249038219598433D+03 0.538739152837423D+02 0.201394275145288D+03 0.136227684453130D+03
 0.332817268590145D+02 0.215821608996798D+02 0.230025413511281D+02 -.106191696948502D+02
 0.160844333426451D+03 0.988761450736394D+01 0.370918736813115D+01 -.132076210044887D+03
 0.143468604040226D+04 -.174357197767657D+02 -.463379551064142D+02 -.143383151873486D+04
-.238900848569D-03 0.000000000000D+00 0.000000000000D+00 0.133225832142D-06 0.000000000000D+00  7 2 -2 23 -13 13 23 21 2 0.29919980D+00 0.45632303D-01 0.88721334D+05 0.88721334D+05 0.88721334D+05 0.11260121D+01  1  2 13  2  7  2       -2 -.136406414009D-02 0.100000000000D+01
0.251520570694D-03 0.000000000000D+00 0.000000000000D+00 0.133225832142D-06 0.106162197875D-08  7 2 -2 23 -13 13 23 21 2 0.30044112D+00 0.45732302D-01 0.88721334D+05 0.88721334D+05 0.88721334D+05 0.11260121D+01  1  2  1  2  7  2       -2 0.141595632404D-02 0.100000000000D+01
  </mgrwgt>
  </event>
  <event>
  8     66 0.55102590E-06 0.16711892E+03 0.75467711E-02 0.88449227E-01
        2 -1    0    0  501    0 0.00000000E+00 0.00000000E+00 0.44298777E+03 0.44298789E+03 0.32000000E+00 0.0000E+00 0.9000E+01
       -2 -1    0    0    0  501 0.00000000E+00 0.00000000E+00 -.11228368E+03 0.11228414E+03 0.32000000E+00 0.0000E+00 0.9000E+01
       25  2    1    2    0    0 -.19536709E+02 -.27278248E+01 0.11777844E+03 0.32291201E+03 0.30001881E+03 0.0000E+00 0.0000E+00
       23  2    1    2    0    0 0.19536709E+02 0.27278248E+01 0.21292565E+03 0.23236001E+03 0.90910492E+02 0.0000E+00 0.0000E+00
       23  1    3    3    0    0 0.25236438E+02 0.73001485E+02 0.15037563E+03 0.19207856E+03 0.91188000E+02 0.0000E+00 0.9000E+01
      -11  1    4    4    0    0 0.39965465E+01 -.41218922E+02 0.13834910E+03 0.14441415E+03 0.51099893E-03 0.0000E+00 0.9000E+01
       11  1    4    4    0    0 0.15540162E+02 0.43946746E+02 0.74576547E+02 0.87945861E+02 0.51099893E-03 0.0000E+00 0.9000E+01
       23  1    3    3    0    0 -.44773146E+02 -.75729310E+02 -.32597189E+02 0.13083345E+03 0.91188000E+02 0.0000E+00 0.9000E+01
#aMCatNLO 1  0  0  2  2 0.86281321D+03 0.00000000D+00  -5  7  0 0.00000000D+00 0.00000000D+00 0.00000000D+00 0.00000000D+00 0.00000000D+00
  <mgrwgt>
 0.2787223576D-03    3    2    0
 0.223025685450718D+03 0.000000000000000D+00 0.000000000000000D+00 0.223025685450718D+03
 0.223025685450718D+03 0.000000000000000D+00 0.000000000000000D+00 -.223025685450718D+03
 0.127622113627220D+03 0.252364376220127D+02 0.730014851932318D+02 0.447890379268375D+02
 0.772030411861713D+02 0.399654649175779D+01 -.412189214190153D+02 0.651562560433450D+02
 0.541890662553880D+02 0.155401620879736D+02 0.439467462563248D+02 0.276340687809912D+02
 0.187037149832657D+03 -.447731462017441D+02 -.757293100305413D+02 -.137579362751174D+03
 0.000000000000000D+00 0.000000000000000D+00 0.000000000000000D+00 0.000000000000000D+00
 0.252093853559675D+04 0.000000000000000D+00 0.000000000000000D+00 0.252093853559675D+04
 0.577088300776503D+03 0.000000000000000D+00 0.000000000000000D+00 -.577088300776503D+03
 0.223341733761727D+03 -.188234759727435D+03 0.642487043265254D+02 0.447890379268375D+02
 0.163654506023925D+03 -.142503297797360D+03 -.472257319395475D+02 0.651562560433450D+02
 0.844813160579497D+02 -.688050853486606D+02 0.404884086579626D+02 0.276340687809912D+02
 0.499814606364789D+03 -.462545711347316D+03 -.928588889163294D+02 -.137579362751174D+03
 0.212673467416486D+04 0.862088854220770D+03 0.353475078713889D+02 0.194385023482025D+04
0.128556706306D-05 0.000000000000D+00 0.000000000000D+00 0.146864064928D-06 0.000000000000D+00  7 2 -2 23 -11 11 23 21 0 0.68152009D-01 0.17274457D-01 0.27928734D+05 0.27928734D+05 0.27928734D+05 0.11702297D+01  1  2  2  2  7  2       -2 0.274017922233D-03 0.100000000000D+01
-.641886981024D-07 0.000000000000D+00 -.493691601973D-08 0.146864064928D-06 0.000000000000D+00  7 2 -2 23 -11 11 23 21 2 0.68152009D-01 0.17274457D-01 0.27928734D+05 0.27928734D+05 0.27928734D+05 0.11702297D+01  1  2  3  2  7  2       -2 -.187363505673D-04 0.100000000000D+01
0.803055818188D-07 0.000000000000D+00 0.000000000000D+00 0.146864064928D-06 0.000000000000D+00  7 2 -2 23 -11 11 23 21 2 0.68152009D-01 0.17274457D-01 0.27928734D+05 0.27928734D+05 0.27928734D+05 0.11702297D+01  1  2 15  2  7  2       -2 0.234407859631D-04 0.100000000000D+01
  </mgrwgt>
  </event>
  <event>
  8     66 0.55102590E-06 0.20681658E+03 0.75467711E-02 0.97632555E-01
        2 -1    0    0  501    0 0.00000000E+00 0.00000000E+00 0.17745694E+04 0.17745695E+04 0.32000000E+00 0.0000E+00 0.9000E+01
       -2 -1    0    0    0  501 0.00000000E+00 0.00000000E+00 -.71469453E+02 0.71470169E+02 0.32000000E+00 0.0000E+00 0.9000E+01
       25  2    1    2    0    0 -.20949780E+03 0.18916518E+03 0.10680840E+04 0.11450451E+04 0.30108492E+03 0.0000E+00 0.0000E+00
       23  2    1    2    0    0 0.20949780E+03 -.18916518E+03 0.63501602E+03 0.70099454E+03 0.92060827E+02 0.0000E+00 0.0000E+00
       23  1    3    3    0    0 -.15481423E+03 0.23426562E+03 0.81584858E+03 0.86762433E+03 0.91188000E+02 0.0000E+00 0.9000E+01
      -11  1    4    4    0    0 0.20495833E+03 -.18760536E+03 0.55340138E+03 0.61923887E+03 0.51099893E-03 0.0000E+00 0.9000E+01
       11  1    4    4    0    0 0.45394767E+01 -.15598262E+01 0.81614642E+02 0.81755671E+02 0.51099893E-03 0.0000E+00 0.9000E+01
       23  1    3    3    0    0 -.54683571E+02 -.45100434E+02 0.25223538E+03 0.27742076E+03 0.91188000E+02 0.0000E+00 0.9000E+01
#aMCatNLO 1  0  0  1  2 0.76739419D+02 0.00000000D+00  -5  7  0 0.00000000D+00 0.00000000D+00 0.00000000D+00 0.00000000D+00 0.00000000D+00
  <mgrwgt>
 0.5200340789D-03    9    2    0
 0.356129462305062D+03 0.000000000000000D+00 0.000000000000000D+00 0.356129462305062D+03
 0.356129462305062D+03 0.000000000000000D+00 0.000000000000000D+00 -.356129462305062D+03
 0.297921436044204D+03 -.154814231502953D+03 0.234265616449146D+03 0.399262493166082D+02
 0.281697568045805D+03 0.204958325659262D+03 -.187605356317669D+03 -.463663117661266D+02
 0.167443503557271D+02 0.453947668917624D+01 -.155982623615467D+01 0.160416134580274D+02
 0.115895570164388D+03 -.546835708454851D+02 -.451004338953228D+02 -.960155100850909D+01
 0.000000000000000D+00 0.000000000000000D+00 -.000000000000000D+00 0.000000000000000D+00
 0.405144879487266D+03 0.000000000000000D+00 0.000000000000000D+00 0.405144879487266D+03
 0.389545061650693D+03 0.000000000000000D+00 0.000000000000000D+00 -.389545061650693D+03
 0.328969129609774D+03 -.165897030845315D+03 0.266062974997329D+03 0.399262493166082D+02
 0.256973313104587D+03 0.195435162264491D+03 -.160282706901919D+03 -.463663117661266D+02
 0.165215897641325D+02 0.395136807902540D+01 0.127500202280507D+00 0.160416134580274D+02
 0.113916951459508D+03 -.587464267936566D+02 -.334438042548467D+02 -.960155100850909D+01
 0.783089571999564D+02 0.252569272954554D+02 -.724639640428430D+02 0.155998178365722D+02
0.444712855772D-05 0.000000000000D+00 0.000000000000D+00 0.165284968236D-06 0.000000000000D+00  7 2 -2 23 -11 11 23 21 0 0.27301074D+00 0.10995358D-01 0.12019624D+06 0.12019624D+06 0.12019624D+06 0.11152244D+01  1  2  2  1  7  1        2 0.273680477982D-03 0.100000000000D+01
-.246846076779D-06 0.000000000000D+00 -.170781446175D-07 0.165284968236D-06 0.000000000000D+00  7 2 -2 23 -11 11 23 21 2 0.27301074D+00 0.10995358D-01 0.12019624D+06 0.12019624D+06 0.12019624D+06 0.11152244D+01  1  2  3  1  7  1        2 -.188936089236D-04 0.100000000000D+01
0.281559375501D-06 0.000000000000D+00 0.000000000000D+00 0.165284968236D-06 0.000000000000D+00  7 2 -2 23 -11 11 23 21 2 0.27301074D+00 0.10995358D-01 0.12019624D+06 0.12019624D+06 0.12019624D+06 0.11152244D+01  1  2 15  1  7  1        2 0.215505662432D-04 0.100000000000D+01
0.404888509691D-05 0.000000000000D+00 0.000000000000D+00 0.165284968236D-06 0.000000000000D+00  7 2 -2 23 -11 11 23 21 2 0.32191448D+00 0.10995358D-01 0.14957456D+06 0.14957456D+06 0.14957456D+06 0.11076493D+01  1  2 12  1  7  1        2 0.204917322914D-03 0.100000000000D+01
-.368560191976D-05 0.000000000000D+00 0.000000000000D+00 0.165284968236D-06 0.000000000000D+00  7 2 -2 23 -11 11 23 21 2 0.27301074D+00 0.10995358D-01 0.12019624D+06 0.12019624D+06 0.12019624D+06 0.11152244D+01  1  2  4  1  7  1        2 -.282096123336D-03 0.100000000000D+01
-.113340044272D-04 0.000000000000D+00 -.285694830877D-05 0.165284968236D-06 0.000000000000D+00  7 2 -2 23 -11 11 23 21 2 0.32450594D+00 0.10995358D-01 0.12019624D+06 0.12019624D+06 0.12019624D+06 0.11152244D+01  1  2  5  1  7  1        2 -.572706937085D-03 0.100000000000D+01
0.116947684107D-04 0.000000000000D+00 0.281482212302D-05 0.165284968236D-06 0.000000000000D+00  7 2 -2 23 -11 11 23 21 2 0.27301074D+00 0.10995358D-01 0.12019624D+06 0.12019624D+06 0.12019624D+06 0.11152244D+01  1  2  6  1  7  1        2 0.895118057725D-03 0.100000000000D+01
0.995919980300D-07 0.000000000000D+00 0.000000000000D+00 0.165284968236D-06 0.000000000000D+00  7 21 -2 23 -11 11 23 -2 2 0.32191448D+00 0.10995358D-01 0.14957456D+06 0.14957456D+06 0.14957456D+06 0.11076493D+01  1  2 12  3  7  1        2 0.940640047143D-06 0.100000000000D+01
-.263973934037D-06 0.000000000000D+00 -.729685961898D-07 0.165284968236D-06 0.000000000000D+00  7 21 -2 23 -11 11 23 -2 2 0.32450594D+00 0.10995358D-01 0.12019624D+06 0.12019624D+06 0.12019624D+06 0.11152244D+01  1  2  5  3  7  1        2 -.247631671591D-05 0.100000000000D+01
  </mgrwgt>
  </event>
  <event>
  9     66 0.55102590E-06 0.27176740E+03 0.75467711E-02 0.97722342E-01
        2 -1    0    0  501    0 0.00000000E+00 0.00000000E+00 0.27805258E+04 0.27805258E+04 0.32000000E+00 0.0000E+00 0.9000E+01
       -2 -1    0    0    0  502 0.00000000E+00 0.00000000E+00 -.18989091E+03 0.18989118E+03 0.32000000E+00 0.0000E+00 0.9000E+01
       25  2    1    2    0    0 0.11011525E+03 -.18674354E+03 0.36250047E+03 0.51835282E+03 0.30047385E+03 0.0000E+00 0.0000E+00
       23  2    1    2    0    0 -.26055099E+03 0.67038776E+02 0.22417058E+04 0.22593341E+04 0.83454285E+02 0.0000E+00 0.0000E+00
       23  1    3    3    0    0 0.48413489E+01 -.39760320E+02 -.39538688E+01 0.99675504E+02 0.91188000E+02 0.0000E+00 0.9000E+01
      -13  1    4    4    0    0 -.22965831E+01 -.48512805E+01 0.20398358E+03 0.20405421E+03 0.10565837E+00 0.0000E+00 0.9000E+01
       13  1    4    4    0    0 -.25825440E+03 0.71890056E+02 0.20377222E+04 0.20552799E+04 0.10565837E+00 0.0000E+00 0.9000E+01
       23  1    3    3    0    0 0.10527390E+03 -.14698322E+03 0.36645434E+03 0.41867731E+03 0.91188000E+02 0.0000E+00 0.9000E+01
       21  1    1    2  501  502 0.15043573E+03 0.11970476E+03 -.13571386E+02 0.19273008E+03 0.75000000E+00 0.0000E+00 0.9000E+01
#aMCatNLO 2  0  0  2  1 0.19225020D+03 0.00000000D+00  -5  7  0 0.00000000D+00 0.00000000D+00 0.00000000D+00 0.00000000D+00 0.00000000D+00
  <mgrwgt>
 0.2515606792D-03    2    2    0
 0.473469672041042D+03 0.000000000000000D+00 0.000000000000000D+00 0.473469672041042D+03
 0.473469672041042D+03 0.000000000000000D+00 0.000000000000000D+00 -.473469672041042D+03
 0.298997865061633D+03 0.517200745789554D+02 -.245796766490015D+01 -.280006186088665D+03
 0.365985889984116D+02 0.347719290278182D+01 -.257419137555814D+00 0.364321229353866D+02
 0.392876755468582D+03 -.194626978204663D+03 0.122520136864455D+03 0.318529905040573D+03
 0.218466134553459D+03 0.139429710722926D+03 -.119804750061999D+03 -.749558418872952D+02
 0.000000000000000D+00 0.000000000000000D+00 0.000000000000000D+00 -.000000000000000D+00
 0.499211657166735D+03 0.000000000000000D+00 0.000000000000000D+00 0.499211657166735D+03
 0.105766061342488D+04 0.000000000000000D+00 0.000000000000000D+00 -.105766061342488D+04
 0.297191919976342D+03 0.484134892986652D+01 -.397603200168669D+02 -.280006186088665D+03
 0.368253731448671D+02 -.229617300144045D+01 -.485140342860098D+01 0.364321229353866D+02
 0.416323247624152D+03 -.258254812649713D+03 0.718901790957976D+02 0.318529905040573D+03
 0.215917323947220D+03 0.105273904151603D+03 -.146983217777320D+03 -.749558418872952D+02
 0.590614405899030D+03 0.150435732569684D+03 0.119704762126990D+03 -.558448956258141D+03
-.141227717536D-04 0.000000000000D+00 0.000000000000D+00 0.341287568219D-07 0.000000000000D+00  7 2 -2 23 -13 13 23 21 2 0.40571479D+00 0.29117770D-01 0.14737078D+06 0.14737078D+06 0.14737078D+06 0.11081585D+01  1  2 13  2  7  2       -2 -.711616896451D-04 0.100000000000D+01
0.783363930598D-04 0.000000000000D+00 0.000000000000D+00 0.341287568219D-07 0.817651813881D-11  7 2 -2 23 -13 13 23 21 2 0.42777302D+00 0.29213995D-01 0.14737078D+06 0.14737078D+06 0.14737078D+06 0.11081585D+01  1  2  1  2  7  2       -2 0.322722368869D-03 0.100000000000D+01
  </mgrwgt>
  </event>
  <event>
  8     66 0.55102590E-06 0.17826240E+03 0.75467711E-02 0.10720968E+00
        2 -1    0    0  501    0 0.00000000E+00 0.00000000E+00 0.21890427E+04 0.21890427E+04 0.32000000E+00 0.0000E+00 0.9000E+01
       -2 -1    0    0    0  501 0.00000000E+00 0.00000000E+00 -.21752226E+02 0.21754580E+02 0.32000000E+00 0.0000E+00 0.9000E+01
       25  2    1    2    0    0 0.57148588E+02 -.44459489E+02 0.17844686E+04 0.18110862E+04 0.30077001E+03 0.0000E+00 0.0000E+00
       23  2    1    2    0    0 -.57148588E+02 0.44459489E+02 0.38282191E+03 0.39971110E+03 0.89295783E+02 0.0000E+00 0.0000E+00
       23  1    3    3    0    0 -.41762402E+02 -.39051356E+02 0.27025941E+03 0.29090292E+03 0.91188000E+02 0.0000E+00 0.9000E+01
      -13  1    4    4    0    0 0.11797339E+02 -.17801857E+02 0.90364911E+02 0.92854249E+02 0.10565837E+00 0.0000E+00 0.9000E+01
       13  1    4    4    0    0 -.68945926E+02 0.62261345E+02 0.29245700E+03 0.30685685E+03 0.10565837E+00 0.0000E+00 0.9000E+01
       23  1    3    3    0    0 0.98910990E+02 -.54081325E+01 0.15142092E+04 0.15201833E+04 0.91188000E+02 0.0000E+00 0.9000E+01
#aMCatNLO 1  0  0  1  1 0.19579932D+02 0.00000000D+00  -5  7  0 0.00000000D+00 0.00000000D+00 0.00000000D+00 0.00000000D+00 0.00000000D+00
  <mgrwgt>
 0.3372161235D-03    4    2    0
 0.218218194361948D+03 0.000000000000000D+00 0.000000000000000D+00 0.218218194361948D+03
 0.218218194361948D+03 0.000000000000000D+00 0.000000000000000D+00 -.218218194361948D+03
 0.131512226805886D+03 -.417623587007866D+02 -.390513647816416D+02 -.755718913345485D+02
 0.216179486287618D+02 0.117974423443068D+02 -.178019609814241D+02 -.335354174931418D+01
 0.102097561784071D+03 -.689460768954088D+02 0.622614861094650D+02 -.423539602684986D+02
 0.181208651505176D+03 0.989109932518886D+02 -.540816034639932D+01 0.121279393352361D+03
 0.000000000000000D+00 0.000000000000000D+00 0.000000000000000D+00 -.000000000000000D+00
 0.220444470387238D+03 0.000000000000000D+00 0.000000000000000D+00 0.220444470387238D+03
 0.266197457372773D+03 0.000000000000000D+00 0.000000000000000D+00 -.266197457372773D+03
 0.134097383873948D+03 -.447318176679399D+02 -.442132417503899D+02 -.755718913345485D+02
 0.220680517891508D+02 0.113090421491934D+02 -.186509579692845D+02 -.335354174931418D+01
 0.101321430826934D+03 -.712202579770044D+02 0.583082262470783D+02 -.423539602684986D+02
 0.179388510643446D+03 0.948795936578317D+02 -.124160324694253D+02 0.121279393352361D+03
 0.497665506265325D+02 0.976343983791921D+01 0.169720059420213D+02 -.457529869855352D+02
0.169123789431D-05 0.000000000000D+00 0.000000000000D+00 0.121507837661D-07 0.000000000000D+00  7 2 -2 23 -13 13 23 21 0 0.33677599D+00 0.33466792D-02 0.31777485D+05 0.31777485D+05 0.31777485D+05 0.11650236D+01  1  2  2  1  7  1        2 0.377684244408D-03 0.100000000000D+01
-.892852320636D-07 0.000000000000D+00 -.649479882730D-08 0.121507837661D-07 0.000000000000D+00  7 2 -2 23 -13 13 23 21 2 0.33677599D+00 0.33466792D-02 0.31777485D+05 0.31777485D+05 0.31777485D+05 0.11650236D+01  1  2  3  1  7  1        2 -.270628331973D-04 0.100000000000D+01
0.107167076247D-06 0.000000000000D+00 0.000000000000D+00 0.121507837661D-07 0.000000000000D+00  7 2 -2 23 -13 13 23 21 2 0.33677599D+00 0.33466792D-02 0.31777485D+05 0.31777485D+05 0.31777485D+05 0.11650236D+01  1  2 15  1  7  1        2 0.324829161742D-04 0.100000000000D+01
-.151393570075D-06 0.000000000000D+00 0.000000000000D+00 0.121507837661D-07 0.000000000000D+00  7 2 -2 23 -13 13 23 21 2 0.33677599D+00 0.33466792D-02 0.31777485D+05 0.31777485D+05 0.31777485D+05 0.11650236D+01  1  2  4  1  7  1        2 -.458882038989D-04 0.100000000000D+01
  </mgrwgt>
  </event>
  <event>
  8     66 0.55102590E-06 0.37419904E+03 0.75467711E-02 0.92248238E-01
        2 -1    0    0  501    0 0.00000000E+00 0.00000000E+00 0.39842086E+04 0.39842086E+04 0.32000000E+00 0.0000E+00 0.9000E+01
       -2 -1    0    0    0  501 0.00000000E+00 0.00000000E+00 -.62311682E+02 0.62312504E+02 0.32000000E+00 0.0000E+00 0.9000E+01
       25  2    1    2    0    0 -.25460299E+03 0.17628990E+03 0.80436861E+03 0.91239006E+03 0.29924229E+03 0.0000E+00 0.0000E+00
       23  2    1    2    0    0 0.25460299E+03 -.17628990E+03 0.31175283E+04 0.31341311E+04 0.88847690E+02 0.0000E+00 0.0000E+00
       23  1    3    3    0    0 -.63631016E+02 0.18827947E+03 0.40576106E+03 0.46092880E+03 0.91188000E+02 0.0000E+00 0.9000E+01
      -13  1    4    4    0    0 0.22524255E+00 -.18344529E+02 0.91244187E+02 0.93070325E+02 0.10565837E+00 0.0000E+00 0.9000E+01
       13  1    4    4    0    0 0.25437775E+03 -.15794537E+03 0.30262841E+04 0.30410608E+04 0.10565837E+00 0.0000E+00 0.9000E+01
       23  1    3    3    0    0 -.19097197E+03 -.11989568E+02 0.39860754E+03 0.45146126E+03 0.91188000E+02 0.0000E+00 0.9000E+01
#aMCatNLO 1  0  0  1  1 0.39675213D+03 0.00000000D+00  -5  7  0 0.00000000D+00 0.00000000D+00 0.00000000D+00 0.00000000D+00 0.00000000D+00
  <mgrwgt>
 0.4923815458D-03    3    2    0
 0.498261406939594D+03 0.000000000000000D+00 0.000000000000000D+00 0.498261406939594D+03
 0.498261406939594D+03 0.000000000000000D+00 0.000000000000000D+00 -.498261406939594D+03
 0.274760444008877D+03 -.636310162242982D+02 0.188279469213888D+03 -.166373031152153D+03
 0.188256066574686D+02 0.224883141045641D+00 -.183443318227573D+02 0.422355106174559D+01
 0.438467325957197D+03 0.254378106585012D+03 -.157945569433120D+03 0.320310118352084D+03
 0.264469437255645D+03 -.190971973501759D+03 -.119895679580100D+02 -.158160638261677D+03
 0.000000000000000D+00 0.000000000000000D+00 0.000000000000000D+00 -.000000000000000D+00
 0.579212295974128D+03 0.000000000000000D+00 0.000000000000000D+00 0.579212295974128D+03
 0.145335385792421D+04 0.000000000000000D+00 0.000000000000000D+00 -.145335385792421D+04
 0.223544986823091D+03 -.727784485696374D+02 0.931687808162026D+02 -.166373031152153D+03
 0.275242270446561D+02 -.625964435108659D+00 -.271910437342994D+02 0.422355106174559D+01
 0.524840215515510D+03 0.236694593586439D+03 -.341810399593973D+03 0.320310118352084D+03
 0.296690202826384D+03 -.201273225555173D+03 -.119097129639786D+03 -.158160638261677D+03
 0.959966521688696D+03 0.379830449734803D+02 0.394929792151856D+03 -.874141561950082D+03
0.158027054226D-03 0.000000000000D+00 0.000000000000D+00 0.208419194183D-06 0.000000000000D+00  7 2 -2 23 -13 13 23 21 0 0.61295524D+00 0.95864768D-02 0.14002492D+06 0.14002492D+06 0.14002492D+06 0.11099181D+01  1  2  2  1  7  1        2 0.485074033962D-03 0.100000000000D+01
-.790410478126D-05 0.000000000000D+00 -.606865497706D-06 0.208419194183D-06 0.000000000000D+00  7 2 -2 23 -13 13 23 21 2 0.61295524D+00 0.95864768D-02 0.14002492D+06 0.14002492D+06 0.14002492D+06 0.11099181D+01  1  2  3  1  7  1        2 -.298889814325D-04 0.100000000000D+01
0.983656738489D-05 0.000000000000D+00 0.000000000000D+00 0.208419194183D-06 0.000000000000D+00  7 2 -2 23 -13 13 23 21 2 0.61295524D+00 0.95864768D-02 0.14002492D+06 0.14002492D+06 0.14002492D+06 0.11099181D+01  1  2 15  1  7  1        2 0.371964932225D-04 0.100000000000D+01
  </mgrwgt>
  </event>
  <event>
  7     66 0.55102590E-06 0.31074120E+03 0.75467711E-02 0.88966745E-01
        2 -1    0    0  501    0 0.00000000E+00 0.00000000E+00 0.10268636E+04 0.10268636E+04 0.32000000E+00 0.0000E+00 0.9000E+01
       -2 -1    0    0    0  501 0.00000000E+00 0.00000000E+00 -.19964791E+03 0.19964817E+03 0.32000000E+00 0.0000E+00 0.9000E+01
       23  2    1    2    0    0 -.45675310E+01 0.18183025E+03 0.75297854E+03 0.78015979E+03 0.92679584E+02 0.0000E+00 0.0000E+00
       23  1    1    2    0    0 0.16821072E+03 -.15942335E+03 0.19056300E+02 0.24977800E+03 0.91188000E+02 0.0000E+00 0.9000E+01
      -11  1    3    3    0    0 0.20392488E+01 0.17142244E+03 0.53420148E+03 0.56103568E+03 0.51099893E-03 0.0000E+00 0.9000E+01
       11  1    3    3    0    0 -.66067797E+01 0.10407814E+02 0.21877706E+03 0.21912411E+03 0.51099893E-03 0.0000E+00 0.9000E+01
       23  1    1    2    0    0 -.16364319E+03 -.22406901E+02 0.55180816E+02 0.19657400E+03 0.91188000E+02 0.0000E+00 0.9000E+01
#aMCatNLO 1  0  0  2  1 0.74732379D+03 0.00000000D+00  -5  7  0 0.00000000D+00 0.00000000D+00 0.00000000D+00 0.00000000D+00 0.00000000D+00
  <mgrwgt>
 0.6385432101D-03    5    2    0
 0.452781792992123D+03 0.000000000000000D+00 0.000000000000000D+00 0.452781792992123D+03
 0.452781792992123D+03 0.000000000000000D+00 0.000000000000000D+00 -.452781792992123D+03
 0.320896278588849D+03 0.168210723715464D+03 -.159423353164508D+03 -.202357399570850D+03
 0.271893709730952D+03 0.203924877376087D+01 0.171422440557951D+03 0.211036436969671D+03
 0.969368577206452D+02 -.660677972555725D+01 0.104078137436165D+02 0.961497907407435D+02
 0.215836739943799D+03 -.163643192763668D+03 -.224069011370599D+02 -.104828828139564D+03
 0.000000000000000D+00 0.000000000000000D+00 0.000000000000000D+00 -.000000000000000D+00
 0.738578027798911D+03 0.000000000000000D+00 0.000000000000000D+00 0.738578027798911D+03
 0.150852628239514D+04 0.000000000000000D+00 0.000000000000000D+00 -.150852628239514D+04
 0.381873982646716D+03 -.354730835633181D+02 -.308716100098290D+03 -.202357399570850D+03
 0.267535970613508D+03 -.154303580614843D+03 0.568288910035793D+02 0.211036436969671D+03
 0.125003730721506D+03 -.709317896713579D+02 -.367400551009964D+02 0.961497907407435D+02
 0.399698005106231D+03 -.342043542493520D+03 -.153167802658619D+03 -.104828828139564D+03
 0.107299262110609D+04 0.602751996343039D+03 0.441795066854326D+03 -.769948254596226D+03
0.201473119828D-04 0.000000000000D+00 0.000000000000D+00 0.459584406541D-10 0.000000000000D+00  7 2 -2 23 -11 11 23 21 0 0.15797903D+00 0.30715087D-01 0.96560091D+05 0.96560091D+05 0.96560091D+05 0.11229717D+01  1  2  2  2  7  2       -2 0.596043306058D-03 0.100000000000D+01
-.926435841818D-06 0.000000000000D+00 -.773709829229D-07 0.459584406541D-10 0.000000000000D+00  7 2 -2 23 -11 11 23 21 2 0.15797903D+00 0.30715087D-01 0.96560091D+05 0.96560091D+05 0.96560091D+05 0.11229717D+01  1  2  3  2  7  2       -2 -.345631791858D-04 0.100000000000D+01
0.126697005256D-05 0.000000000000D+00 0.000000000000D+00 0.459584406541D-10 0.000000000000D+00  7 2 -2 23 -11 11 23 21 2 0.15797903D+00 0.30715087D-01 0.96560091D+05 0.96560091D+05 0.96560091D+05 0.11229717D+01  1  2 15  2  7  2       -2 0.472677232173D-04 0.100000000000D+01
0.101177016236D-04 0.000000000000D+00 -.832583084348D-05 0.459584406541D-10 0.000000000000D+00  7 2 -2 23 -11 11 23 21 2 0.15797903D+00 0.15188192D+00 0.96560091D+05 0.96560091D+05 0.96560091D+05 0.11229717D+01  1  2  5  2  7  2       -2 0.117751106850D-04 0.100000000000D+01
0.175073813060D-05 0.000000000000D+00 -.162080808738D-05 0.459584406541D-10 0.000000000000D+00  7 2 21 23 -11 11 23 2 2 0.15797903D+00 0.15188192D+00 0.96560091D+05 0.96560091D+05 0.96560091D+05 0.11229717D+01  1  2  5  4  7  2       -2 0.180202493121D-04 0.100000000000D+01
  </mgrwgt>
  </event>
  <event>
  8     66 0.55102590E-06 0.17747694E+03 0.75467711E-02 0.10785506E+00
        2 -1    0    0  501    0 0.00000000E+00 0.00000000E+00 0.14002930E+04 0.14002931E+04 0.32000000E+00 0.0000E+00 0.9000E+01
       -2 -1    0    0    0  501 0.00000000E+00 0.00000000E+00 -.52760827E+02 0.52761797E+02 0.32000000E+00 0.0000E+00 0.9000E+01
       25  2    1    2    0    0 -.48981373E+02 -.46083265E+02 0.12910038E+04 0.13263412E+04 0.29659285E+03 0.0000E+00 0.0000E+00
       23  2    1    2    0    0 0.48981373E+02 0.46083265E+02 0.56528358E+02 0.12671362E+03 0.91312893E+02 0.0000E+00 0.0000E+00
       23  1    3    3    0    0 -.66099912E+01 -.12434674E+03 0.44982643E+03 0.47556795E+03 0.91188000E+02 0.0000E+00 0.9000E+01
      -13  1    4    4    0    0 0.50114910E+02 0.32872433E+02 -.83330143E+01 0.60510754E+02 0.10565837E+00 0.0000E+00 0.9000E+01
       13  1    4    4    0    0 -.11335369E+01 0.13210833E+02 0.64861372E+02 0.66202868E+02 0.10565837E+00 0.0000E+00 0.9000E+01
       23  1    3    3    0    0 -.42371382E+02 0.78263471E+02 0.84117741E+03 0.85077329E+03 0.91188000E+02 0.0000E+00 0.9000E+01
#aMCatNLO 1  0  0  2  1 0.44473351D+01 0.00000000D+00  -5  7  0 0.00000000D+00 0.00000000D+00 0.00000000D+00 0.00000000D+00 0.00000000D+00
  <mgrwgt>
 0.2503996675D-03    8    2    0
 0.271811237836218D+03 0.000000000000000D+00 0.000000000000000D+00 0.271811237836218D+03
 0.271811237836218D+03 0.000000000000000D+00 0.000000000000000D+00 -.271811237836218D+03
 0.156120689513792D+03 -.660999201861127D+01 -.124346733966823D+03 0.235077882319886D+02
 0.182396013016526D+03 0.501149793624936D+02 0.328724598609645D+02 -.172267802535793D+03
 0.161757306626224D+02 -.113360533939578D+01 0.132108062390685D+02 0.926519292394842D+01
 0.188930042479496D+03 -.423713820044866D+02 0.782634678667896D+02 0.139494821379856D+03
 0.000000000000000D+00 -.000000000000000D+00 -.000000000000000D+00 0.000000000000000D+00
 0.290027121539909D+03 0.000000000000000D+00 0.000000000000000D+00 0.290027121539909D+03
 0.272091918890715D+03 0.000000000000000D+00 0.000000000000000D+00 -.272091918890715D+03
 0.155877755279635D+03 -.535748270108261D+01 -.124101992403690D+03 0.235077882319886D+02
 0.182856067045287D+03 0.515812739583754D+02 0.331589752795621D+02 -.172267802535793D+03
 0.161878964513356D+02 -.100368243373484D+01 0.132361933037180D+02 0.926519292394842D+01
 0.188718948250959D+03 -.408553203460435D+02 0.785597078187806D+02 0.139494821379856D+03
 0.184783734034071D+02 -.436478847751451D+01 -.852883998370834D+00 0.179352026491931D+02
0.139459845540D-05 0.000000000000D+00 0.000000000000D+00 0.158093989246D-07 0.000000000000D+00  7 2 -2 23 -13 13 23 21 0 0.21542977D+00 0.81171277D-02 0.31498064D+05 0.31498064D+05 0.31498064D+05 0.11653775D+01  1  2  2  2  7  2       -2 0.218897250827D-03 0.100000000000D+01
-.603609167703D-07 0.000000000000D+00 -.535562527493D-08 0.158093989246D-07 0.000000000000D+00  7 2 -2 23 -13 13 23 21 2 0.21542977D+00 0.81171277D-02 0.31498064D+05 0.31498064D+05 0.31498064D+05 0.11653775D+01  1  2  3  2  7  2       -2 -.128670861840D-04 0.100000000000D+01
0.866209915711D-07 0.000000000000D+00 0.000000000000D+00 0.158093989246D-07 0.000000000000D+00  7 2 -2 23 -13 13 23 21 2 0.21542977D+00 0.81171277D-02 0.31498064D+05 0.31498064D+05 0.31498064D+05 0.11653775D+01  1  2 15  2  7  2       -2 0.184649243836D-04 0.100000000000D+01
-.141265752447D-06 0.000000000000D+00 0.000000000000D+00 0.158093989246D-07 0.000000000000D+00  7 2 -2 23 -13 13 23 21 2 0.21542977D+00 0.81171277D-02 0.31498064D+05 0.31498064D+05 0.31498064D+05 0.11653775D+01  1  2  4  2  7  2       -2 -.301135023925D-04 0.100000000000D+01
0.479470982583D-07 0.000000000000D+00 0.000000000000D+00 0.158093989246D-07 0.000000000000D+00  7 2 -2 23 -13 13 23 21 2 0.21542977D+00 0.88216961D-02 0.31498064D+05 0.31498064D+05 0.31498064D+05 0.11653775D+01  1  2  5  2  7  2       -2 0.902006779215D-05 0.100000000000D+01
-.477814749746D-07 0.000000000000D+00 0.000000000000D+00 0.158093989246D-07 0.000000000000D+00  7 2 -2 23 -13 13 23 21 2 0.21542977D+00 0.81171277D-02 0.31498064D+05 0.31498064D+05 0.31498064D+05 0.11653775D+01  1  2  6  2  7  2       -2 -.101855370891D-04 0.100000000000D+01
0.118664588034D-06 0.000000000000D+00 0.000000000000D+00 0.158093989246D-07 0.579058785223D-08  7 2 -2 23 -13 13 23 21 2 0.22986716D+00 0.81255097D-02 0.32443740D+05 0.32443740D+05 0.32443740D+05 0.11641935D+01  1  2 11  2  7  2       -2 0.224763803791D-04 0.100000000000D+01
0.118664240505D-07 0.000000000000D+00 0.000000000000D+00 0.158093989246D-07 0.115863210520D-11  7 2 21 23 -13 13 23 2 2 0.22986716D+00 0.81255097D-02 0.32443740D+05 0.32443740D+05 0.32443740D+05 0.11641935D+01  1  2 11  4  7  2       -2 0.347071698327D-04 0.100000000000D+01
  </mgrwgt>
  </event>
  <event>
  8     66 0.55102590E-06 0.16815788E+03 0.75467711E-02 0.90172869E-01
        2 -1    0    0  501    0 0.00000000E+00 0.00000000E+00 0.11641170E+04 0.11641171E+04 0.32000000E+00 0.0000E+00 0.9000E+01
       -2 -1    0    0    0  501 0.00000000E+00 0.00000000E+00 -.71076800E+02 0.71077520E+02 0.32000000E+00 0.0000E+00 0.9000E+01
       25  2    1    2    0    0 0.42040676E+02 0.40384435E+02 0.10787965E+04 0.11212395E+04 0.29996319E+03 0.0000E+00 0.0000E+00
       23  2    1    2    0    0 -.42040676E+02 -.40384435E+02 0.14243724E+02 0.11395504E+03 0.96873869E+02 0.0000E+00 0.0000E+00
       23  1    3    3    0    0 -.74695957E+01 -.78246844E+02 0.24861606E+03 0.27623099E+03 0.91188000E+02 0.0000E+00 0.9000E+01
      -13  1    4    4    0    0 -.20338661E+02 -.18369518E+02 -.41780884E+02 0.49967527E+02 0.10565837E+00 0.0000E+00 0.9000E+01
       13  1    4    4    0    0 -.21702016E+02 -.22014917E+02 0.56024608E+02 0.63987514E+02 0.10565837E+00 0.0000E+00 0.9000E+01
       23  1    3    3    0    0 0.49510272E+02 0.11863128E+03 0.83018043E+03 0.84500855E+03 0.91188000E+02 0.0000E+00 0.9000E+01
#aMCatNLO 1  0  0  2  1 0.70565946D+03 0.00000000D+00  -5  7  0 0.00000000D+00 0.00000000D+00 0.00000000D+00 0.00000000D+00 0.00000000D+00
  <mgrwgt>
 0.2864405945D-03    5    2    0
 0.287649411859284D+03 0.000000000000000D+00 0.000000000000000D+00 0.287649411859284D+03
 0.287649411859284D+03 0.000000000000000D+00 0.000000000000000D+00 -.287649411859284D+03
 0.120722773930843D+03 -.746959458519999D+01 -.782468422973421D+02 0.896513406397017D+01
 0.186664577905499D+03 -.203386689432318D+02 -.183695240822016D+02 -.184641717321003D+03
 0.309400401127471D+02 -.217020103950373D+02 -.220149143325376D+02 -.128544697406227D+01
 0.236971431769479D+03 0.495102739234691D+02 0.118631280712081D+03 0.176962030231095D+03
 0.000000000000000D+00 -.000000000000000D+00 -.000000000000000D+00 -.000000000000000D+00
 0.552430574229942D+03 0.000000000000000D+00 0.000000000000000D+00 0.552430574229942D+03
 0.173591940036810D+04 0.000000000000000D+00 0.000000000000000D+00 -.173591940036810D+04
 0.992191187713934D+02 0.336559267215073D+02 0.177788400494371D+02 0.896513406397017D+01
 0.264876502751971D+03 0.640920964070185D+02 0.178771365472828D+03 -.184641717321003D+03
 0.136623045994097D+02 -.133621045442123D+02 -.254172287896788D+01 -.128544697406227D+01
 0.532694711689515D+03 0.193425200693362D+03 0.454664201484125D+03 0.176962030231095D+03
 0.137789733678575D+04 -.277811119277676D+03 -.648672684127422D+03 -.118348882613816D+04
0.191364486011D-05 0.000000000000D+00 0.000000000000D+00 0.395497054860D-07 0.000000000000D+00  7 2 -2 23 -13 13 23 21 0 0.17909498D+00 0.10934951D-01 0.28277073D+05 0.28277073D+05 0.28277073D+05 0.11697267D+01  1  2  2  2  7  2       -2 0.257232221887D-03 0.100000000000D+01
-.690608271112D-07 0.000000000000D+00 -.734890013710D-08 0.395497054860D-07 0.000000000000D+00  7 2 -2 23 -13 13 23 21 2 0.17909498D+00 0.10934951D-01 0.28277073D+05 0.28277073D+05 0.28277073D+05 0.11697267D+01  1  2  3  2  7  2       -2 -.127017807633D-04 0.100000000000D+01
0.117757309222D-06 0.000000000000D+00 0.000000000000D+00 0.395497054860D-07 0.000000000000D+00  7 2 -2 23 -13 13 23 21 2 0.17909498D+00 0.10934951D-01 0.28277073D+05 0.28277073D+05 0.28277073D+05 0.11697267D+01  1  2 15  2  7  2       -2 0.216581177431D-04 0.100000000000D+01
0.345666471220D-05 0.000000000000D+00 -.155345444158D-05 0.395497054860D-07 0.000000000000D+00  7 2 -2 23 -13 13 23 21 2 0.17909498D+00 0.12274329D+00 0.28277073D+05 0.28277073D+05 0.28277073D+05 0.11697267D+01  1  2  5  2  7  2       -2 0.682868054932D-05 0.100000000000D+01
0.703724774039D-06 0.000000000000D+00 -.441021881107D-06 0.395497054860D-07 0.000000000000D+00  7 2 21 23 -13 13 23 2 2 0.17909498D+00 0.12274329D+00 0.28277073D+05 0.28277073D+05 0.28277073D+05 0.11697267D+01  1  2  5  4  7  2       -2 0.134233550378D-04 0.100000000000D+01
  </mgrwgt>
  </event>
  <event>
  8     66 0.55102590E-06 0.43817540E+03 0.75467711E-02 0.92854858E-01
        2 -1    0    0  501    0 0.00000000E+00 0.00000000E+00 0.25245093E+03 0.25245114E+03 0.32000000E+00 0.0000E+00 0.9000E+01
       -2 -1    0    0    0  501 0.00000000E+00 0.00000000E+00 -.82537505E+03 0.82537511E+03 0.32000000E+00 0.0000E+00 0.9000E+01
       25  2    1    2    0    0 0.30841450E+03 0.24830271E+03 -.33414286E+03 0.59961749E+03 0.30185419E+03 0.0000E+00 0.0000E+00
       23  2    1    2    0    0 -.30841450E+03 -.24830271E+03 -.23878125E+03 0.47820875E+03 0.12203847E+03 0.0000E+00 0.0000E+00
       23  1    3    3    0    0 0.20704330E+03 0.46469729E+02 -.25375239E+03 0.34312081E+03 0.91188000E+02 0.0000E+00 0.9000E+01
      -11  1    4    4    0    0 -.20595458E+03 -.12272915E+03 -.19837136E+03 0.31117668E+03 0.51099893E-03 0.0000E+00 0.9000E+01
       11  1    4    4    0    0 -.10245992E+03 -.12557356E+03 -.40409898E+02 0.16703207E+03 0.51099893E-03 0.0000E+00 0.9000E+01
       23  1    3    3    0    0 0.10137120E+03 0.20183298E+03 -.80390474E+02 0.25649669E+03 0.91188000E+02 0.0000E+00 0.9000E+01
#aMCatNLO 1  0  0  1  2 0.26066505D+03 0.00000000D+00  -5  7  0 0.00000000D+00 0.00000000D+00 0.00000000D+00 0.00000000D+00 0.00000000D+00
  <mgrwgt>
 0.1710992277D-03    4    2    0
 0.456472172861474D+03 0.000000000000000D+00 0.000000000000000D+00 0.456472172861474D+03
 0.456472172861474D+03 0.000000000000000D+00 0.000000000000000D+00 -.456472172861474D+03
 0.245846037721337D+03 0.207043297921539D+03 0.464697286723519D+02 -.842535460510215D+02
 0.242887384853760D+03 -.205954580250571D+03 -.122729153346041D+03 -.389171878978108D+02
 0.171839327111104D+03 -.102459915512166D+03 -.125573554867647D+03 0.571139420206568D+02
 0.252371596036747D+03 0.101371197841198D+03 0.201832979541336D+03 0.660567919281755D+02
 0.000000000000000D+00 0.000000000000000D+00 -.000000000000000D+00 -.000000000000000D+00
 0.557385899594083D+03 0.000000000000000D+00 0.000000000000000D+00 0.557385899594083D+03
 0.680183770603730D+03 0.000000000000000D+00 0.000000000000000D+00 -.680183770603730D+03
 0.210613763880562D+03 0.151330521896687D+03 0.777387889810621D+02 -.842535460510215D+02
 0.286722858586416D+03 -.270595665335614D+03 -.864490371471460D+02 -.389171878978108D+02
 0.186669343194138D+03 -.146217357419621D+03 -.101014482647861D+03 0.571139420206568D+02
 0.265422097439728D+03 0.381723707582919D+02 0.237303621582465D+03 0.660567919281755D+02
 0.288141607096968D+03 0.227310130100256D+03 -.127578890768520D+03 -.122797871009647D+03
0.285057105126D-04 0.000000000000D+00 0.000000000000D+00 0.205678397761D-09 0.000000000000D+00  7 2 -2 23 -11 11 23 21 0 0.38838626D-01 0.12698080D+00 0.19199768D+06 0.19199768D+06 0.19199768D+06 0.10991900D+01  1  2  2  1  7  1        2 0.213220913143D-03 0.100000000000D+01
-.158042827587D-05 0.000000000000D+00 -.109469434094D-06 0.205678397761D-09 0.000000000000D+00  7 2 -2 23 -11 11 23 21 2 0.38838626D-01 0.12698080D+00 0.19199768D+06 0.19199768D+06 0.19199768D+06 0.10991900D+01  1  2  3  1  7  1        2 -.142829613253D-04 0.100000000000D+01
0.182800358714D-05 0.000000000000D+00 0.000000000000D+00 0.205678397761D-09 0.000000000000D+00  7 2 -2 23 -11 11 23 21 2 0.38838626D-01 0.12698080D+00 0.19199768D+06 0.19199768D+06 0.19199768D+06 0.10991900D+01  1  2 15  1  7  1        2 0.165203982593D-04 0.100000000000D+01
-.490839466907D-05 0.000000000000D+00 0.000000000000D+00 0.205678397761D-09 0.000000000000D+00  7 2 -2 23 -11 11 23 21 2 0.38838626D-01 0.12698080D+00 0.19199768D+06 0.19199768D+06 0.19199768D+06 0.10991900D+01  1  2  4  1  7  1        2 -.443591223328D-04 0.100000000000D+01
  </mgrwgt>
  </event>
  <event>
  8     66 0.55102590E-06 0.13188103E+03 0.75467711E-02 0.10628233E+00
        2 -1    0    0  501    0 0.00000000E+00 0.00000000E+00 0.10915516E+04 0.10915516E+04 0.32000000E+00 0.0000E+00 0.9000E+01
       -2 -1    0    0    0  501 0.00000000E+00 0.00000000E+00 -.58528818E+02 0.58529693E+02 0.32000000E+00 0.0000E+00 0.9000E+01
       25  2    1    2    0    0 0.94685245E+02 0.65727529E+02 0.83362434E+03 0.89395713E+03 0.30156989E+03 0.0000E+00 0.0000E+00
       23  2    1    2    0    0 -.94685245E+02 -.65727529E+02 0.19939841E+03 0.25612418E+03 0.11204672E+03 0.0000E+00 0.0000E+00
       23  1    3    3    0    0 0.85691647E+02 -.32944847E+02 0.15411477E+03 0.20123378E+03 0.91188000E+02 0.0000E+00 0.9000E+01
      -11  1    4    4    0    0 -.64237944E+02 -.53805491E+01 0.25097778E+02 0.69176313E+02 0.51099893E-03 0.0000E+00 0.9000E+01
       11  1    4    4    0    0 -.30447300E+02 -.60346980E+02 0.17430063E+03 0.18694787E+03 0.51099893E-03 0.0000E+00 0.9000E+01
       23  1    3    3    0    0 0.89935971E+01 0.98672376E+02 0.67950957E+03 0.69272335E+03 0.91188000E+02 0.0000E+00 0.9000E+01
#aMCatNLO 1  0  0  1  2 0.54726098D+01 0.00000000D+00  -5  7  0 0.00000000D+00 0.00000000D+00 0.00000000D+00 0.00000000D+00 0.00000000D+00
  <mgrwgt>
 0.2653986899D-03   11    2    0
 0.252760268961671D+03 0.000000000000000D+00 0.000000000000000D+00 0.252760268961671D+03
 0.252760268961671D+03 0.000000000000000D+00 0.000000000000000D+00 -.252760268961671D+03
 0.142884695010113D+03 0.856916484057882D+02 -.329448457164115D+02 -.606000268840996D+02
 0.106092244395318D+03 -.642379453225782D+02 -.538055185584069D+01 -.842620932762527D+02
 0.691341510592594D+02 -.304473015891058D+02 -.603469792472532D+02 0.145167063880937D+02
 0.187409447458651D+03 0.899359850589578D+01 0.986723768195054D+02 0.130345413772259D+03
 0.000000000000000D+00 -.000000000000000D+00 0.000000000000000D+00 0.000000000000000D+00
 0.260452179534262D+03 0.000000000000000D+00 0.000000000000000D+00 0.260452179534262D+03
 0.253750365279631D+03 0.000000000000000D+00 0.000000000000000D+00 -.253750365279631D+03
 0.143860315631792D+03 0.872295736538892D+02 -.331538427861096D+02 -.606000268840996D+02
 0.105417218095690D+03 -.631035376415204D+02 -.553471271734995D+01 -.842620932762527D+02
 0.688995626100584D+02 -.297069729854242D+02 -.604475865485341D+02 0.145167063880937D+02
 0.187373063113009D+03 0.110037031778638D+02 0.983992127065250D+02 0.130345413772259D+03
 0.865238536334273D+01 -.542276620480832D+01 0.736929345468633D+00 0.670181425463012D+01
0.501718685374D-06 0.000000000000D+00 0.000000000000D+00 0.163483489039D-09 0.000000000000D+00  7 2 -2 23 -11 11 23 21 0 0.16793108D+00 0.90045045D-02 0.39225705D+05 0.39225705D+05 0.39225705D+05 0.11566833D+01  1  2  2  1  7  1        2 0.997148183316D-04 0.100000000000D+01
-.258572873055D-07 0.000000000000D+00 -.192673185740D-08 0.163483489039D-09 0.000000000000D+00  7 2 -2 23 -11 11 23 21 2 0.16793108D+00 0.90045045D-02 0.39225705D+05 0.39225705D+05 0.39225705D+05 0.11566833D+01  1  2  3  1  7  1        2 -.687561118611D-05 0.100000000000D+01
0.322666989979D-07 0.000000000000D+00 0.000000000000D+00 0.163483489039D-09 0.000000000000D+00  7 2 -2 23 -11 11 23 21 2 0.16793108D+00 0.90045045D-02 0.39225705D+05 0.39225705D+05 0.39225705D+05 0.11566833D+01  1  2 15  1  7  1        2 0.857991304144D-05 0.100000000000D+01
0.100013195383D-05 0.000000000000D+00 0.000000000000D+00 0.163483489039D-09 0.000000000000D+00  7 2 -2 23 -11 11 23 21 2 0.17336456D+00 0.90045045D-02 0.40250598D+05 0.40250598D+05 0.40250598D+05 0.11556743D+01  1  2 12  1  7  1        2 0.253425829717D-03 0.100000000000D+01
-.452352351913D-05 0.000000000000D+00 0.000000000000D+00 0.163483489039D-09 0.000000000000D+00  7 2 -2 23 -11 11 23 21 2 0.16793108D+00 0.90045045D-02 0.39225705D+05 0.39225705D+05 0.39225705D+05 0.11566833D+01  1  2  4  1  7  1        2 -.120283263056D-02 0.100000000000D+01
-.184807477590D-04 0.000000000000D+00 -.183975062335D-05 0.163483489039D-09 0.000000000000D+00  7 2 -2 23 -11 11 23 21 2 0.17336909D+00 0.90045045D-02 0.39225705D+05 0.39225705D+05 0.39225705D+05 0.11566833D+01  1  2  5  1  7  1        2 -.469045603447D-02 0.100000000000D+01
0.185309017294D-04 0.000000000000D+00 0.183881675404D-05 0.163483489039D-09 0.000000000000D+00  7 2 -2 23 -11 11 23 21 2 0.16793108D+00 0.90045045D-02 0.39225705D+05 0.39225705D+05 0.39225705D+05 0.11566833D+01  1  2  6  1  7  1        2 0.492748035454D-02 0.100000000000D+01
0.350538372994D-05 0.000000000000D+00 0.000000000000D+00 0.163483489039D-09 0.388920556278D-10  7 2 -2 23 -11 11 23 21 2 0.17304150D+00 0.90397764D-02 0.40250598D+05 0.40250598D+05 0.40250598D+05 0.11556743D+01  1  2 11  1  7  1        2 0.885426166860D-03 0.100000000000D+01
0.285090858268D-07 0.000000000000D+00 0.000000000000D+00 0.163483489039D-09 0.000000000000D+00  7 21 -2 23 -11 11 23 -2 2 0.17336456D+00 0.90045045D-02 0.40250598D+05 0.40250598D+05 0.40250598D+05 0.11556743D+01  1  2 12  3  7  1        2 0.456840764810D-05 0.100000000000D+01
-.104664487432D-06 0.000000000000D+00 -.104863132520D-07 0.163483489039D-09 0.000000000000D+00  7 21 -2 23 -11 11 23 -2 2 0.17336909D+00 0.90045045D-02 0.39225705D+05 0.39225705D+05 0.39225705D+05 0.11566833D+01  1  2  5  3  7  1        2 -.168204123218D-04 0.100000000000D+01
0.198970320504D-07 0.000000000000D+00 0.000000000000D+00 0.163483489039D-09 0.210829623903D-12  7 21 -2 23 -11 11 23 -2 2 0.17304150D+00 0.90397764D-02 0.40250598D+05 0.40250598D+05 0.40250598D+05 0.11556743D+01  1  2 11  3  7  1        2 0.318788832304D-05 0.100000000000D+01
  </mgrwgt>
  </event>
  <event>
  8     66 0.55102590E-06 0.94494415E+02 0.75467711E-02 0.10163039E+00
        2 -1    0    0  501    0 0.00000000E+00 0.00000000E+00 0.39494007E+04 0.39494007E+04 0.32000000E+00 0.0000E+00 0.9000E+01
       -2 -1    0    0    0  501 0.00000000E+00 0.00000000E+00 -.21531421E+02 0.21533798E+02 0.32000000E+00 0.0000E+00 0.9000E+01
       25  2    1    2    0    0 0.50522978E+02 -.19036510E+03 0.21354338E+04 0.21654102E+04 0.30022056E+03 0.0000E+00 0.0000E+00
       23  2    1    2    0    0 -.50522978E+02 0.19036510E+03 0.17924355E+04 0.18055243E+04 0.91113348E+02 0.0000E+00 0.0000E+00
       23  1    3    3    0    0 0.98337627E+02 0.81629385E+01 0.72244145E+03 0.73482911E+03 0.91188000E+02 0.0000E+00 0.9000E+01
      -11  1    4    4    0    0 -.38582085E+02 0.11062898E+03 0.66760968E+03 0.67781269E+03 0.51099893E-03 0.0000E+00 0.9000E+01
       11  1    4    4    0    0 -.11940893E+02 0.79736121E+02 0.11248258E+04 0.11277116E+04 0.51099893E-03 0.0000E+00 0.9000E+01
       23  1    3    3    0    0 -.47814649E+02 -.19852804E+03 0.14129923E+04 0.14305811E+04 0.91188000E+02 0.0000E+00 0.9000E+01
#aMCatNLO 1  0  0  1  2 0.70057971D+01 0.00000000D+00  -5  7  0 0.00000000D+00 0.00000000D+00 0.00000000D+00 0.00000000D+00 0.00000000D+00
  <mgrwgt>
 0.5035906678D-03   11    2    0
 0.291617821450250D+03 0.000000000000000D+00 0.000000000000000D+00 0.291617821450250D+03
 0.291617821450250D+03 0.000000000000000D+00 0.000000000000000D+00 -.291617821450250D+03
 0.137684828508857D+03 0.983376274848341D+02 0.816293850881819D+01 -.300821892997953D+02
 0.118761984656429D+03 -.385820847901612D+02 0.110628980098109D+03 -.194180456079104D+02
 0.102703453705536D+03 -.119408932439409D+02 0.797361206453496D+02 0.636204804761195D+02
 0.224085376029678D+03 -.478146494507319D+02 -.198528039252277D+03 -.141202455684137D+02
 0.000000000000000D+00 0.000000000000000D+00 -.000000000000000D+00 0.000000000000000D+00
 0.295873445279667D+03 0.000000000000000D+00 0.000000000000000D+00 0.295873445279667D+03
 0.294536497036837D+03 0.000000000000000D+00 0.000000000000000D+00 -.294536497036837D+03
 0.137118508501030D+03 0.974186927627987D+02 0.953384585913864D+01 -.300821892997953D+02
 0.120132422528149D+03 -.393809410487883D+02 0.111820749100346D+03 -.194180456079104D+02
 0.103586311244104D+03 -.126307204850341D+02 0.807652353502237D+02 0.636204804761195D+02
 0.222440475749896D+03 -.493078194899003D+02 -.196300462327726D+03 -.141202455684137D+02
 0.713222429332483D+01 0.390078826092407D+01 -.581936798198250D+01 0.133694824283022D+01
0.567099048462D-05 0.000000000000D+00 0.000000000000D+00 0.442754480880D-06 0.000000000000D+00  7 2 -2 23 -11 11 23 21 0 0.60760029D+00 0.33127101D-02 0.77224928D+05 0.77224928D+05 0.77224928D+05 0.11310509D+01  1  2  2  1  7  1        2 0.946535132206D-04 0.100000000000D+01
-.314164887806D-06 0.000000000000D+00 -.217780966670D-07 0.442754480880D-06 0.000000000000D+00  7 2 -2 23 -11 11 23 21 2 0.60760029D+00 0.33127101D-02 0.77224928D+05 0.77224928D+05 0.77224928D+05 0.11310509D+01  1  2  3  1  7  1        2 -.670810348456D-05 0.100000000000D+01
0.362559548709D-06 0.000000000000D+00 0.000000000000D+00 0.442754480880D-06 0.000000000000D+00  7 2 -2 23 -11 11 23 21 2 0.60760029D+00 0.33127101D-02 0.77224928D+05 0.77224928D+05 0.77224928D+05 0.11310509D+01  1  2 15  1  7  1        2 0.774143472571D-05 0.100000000000D+01
0.250321236016D-05 0.000000000000D+00 0.000000000000D+00 0.442754480880D-06 0.000000000000D+00  7 2 -2 23 -11 11 23 21 2 0.61947030D+00 0.33127101D-02 0.79263428D+05 0.79263428D+05 0.79263428D+05 0.11300996D+01  1  2 12  1  7  1        2 0.461858654663D-04 0.100000000000D+01
-.320615761641D-05 0.000000000000D+00 0.000000000000D+00 0.442754480880D-06 0.000000000000D+00  7 2 -2 23 -11 11 23 21 2 0.60760029D+00 0.33127101D-02 0.77224928D+05 0.77224928D+05 0.77224928D+05 0.11310509D+01  1  2  4  1  7  1        2 -.684584366793D-04 0.100000000000D+01
-.159911192910D-03 0.000000000000D+00 -.185500426104D-04 0.442754480880D-06 0.000000000000D+00  7 2 -2 23 -11 11 23 21 2 0.61784190D+00 0.33127101D-02 0.77224928D+05 0.77224928D+05 0.77224928D+05 0.11310509D+01  1  2  5  1  7  1        2 -.301852119657D-02 0.100000000000D+01
0.160593824728D-03 0.000000000000D+00 0.187373179364D-04 0.442754480880D-06 0.000000000000D+00  7 2 -2 23 -11 11 23 21 2 0.60760029D+00 0.33127101D-02 0.77224928D+05 0.77224928D+05 0.77224928D+05 0.11310509D+01  1  2  6  1  7  1        2 0.342902735815D-02 0.100000000000D+01
0.105083810786D-05 0.000000000000D+00 0.000000000000D+00 0.442754480880D-06 0.614530895564D-07  7 2 -2 23 -11 11 23 21 2 0.61646709D+00 0.33458656D-02 0.79263428D+05 0.79263428D+05 0.79263428D+05 0.11300996D+01  1  2 11  1  7  1        2 0.198170632602D-04 0.100000000000D+01
0.958556877905D-07 0.000000000000D+00 0.000000000000D+00 0.442754480880D-06 0.000000000000D+00  7 21 -2 23 -11 11 23 -2 2 0.61947030D+00 0.33127101D-02 0.79263428D+05 0.79263428D+05 0.79263428D+05 0.11300996D+01  1  2 12  3  7  1        2 0.348193832110D-07 0.100000000000D+01
-.486945179188D-06 0.000000000000D+00 -.567074687953D-07 0.442754480880D-06 0.000000000000D+00  7 21 -2 23 -11 11 23 -2 2 0.61784190D+00 0.33127101D-02 0.77224928D+05 0.77224928D+05 0.77224928D+05 0.11310509D+01  1  2  5  3  7  1        2 -.183318344386D-06 0.100000000000D+01
0.439835183347D-08 0.000000000000D+00 0.000000000000D+00 0.442754480880D-06 0.163842055373D-09  7 21 -2 23 -11 11 23 -2 2 0.61646709D+00 0.33458656D-02 0.79263428D+05 0.79263428D+05 0.79263428D+05 0.11300996D+01  1  2 11  3  7  1        2 0.166863544848D-08 0.100000000000D+01
  </mgrwgt>
  </event>
  <event>
  8     66 0.55102590E-06 0.97916034E+02 0.75467711E-02 0.10115456E+00
        2 -1    0    0  501    0 0.00000000E+00 0.00000000E+00 0.16835117E+04 0.16835117E+04 0.32000000E+00 0.0000E+00 0.9000E+01
       -2 -1    0    0    0  501 0.00000000E+00 0.00000000E+00 -.67774815E+02 0.67775571E+02 0.32000000E+00 0.0000E+00 0.9000E+01
       25  2    1    2    0    0 -.13109396E+03 0.12776081E+03 0.14395656E+04 0.14817215E+04 0.29940119E+03 0.0000E+00 0.0000E+00
       23  2    1    2    0    0 0.13109396E+03 -.12776081E+03 0.17617125E+03 0.26956576E+03 0.90116232E+02 0.0000E+00 0.0000E+00
       23  1    3    3    0    0 0.33679823E+02 -.11935055E+02 0.67321156E+03 0.68029834E+03 0.91188000E+02 0.0000E+00 0.9000E+01
      -13  1    4    4    0    0 0.11835507E+02 0.14291606E+02 0.16070618E+02 0.24548017E+02 0.10565837E+00 0.0000E+00 0.9000E+01
       13  1    4    4    0    0 0.11925846E+03 -.14205242E+03 0.16010063E+03 0.24501774E+03 0.10565837E+00 0.0000E+00 0.9000E+01
       23  1    3    3    0    0 -.16477379E+03 0.13969587E+03 0.76635405E+03 0.80142318E+03 0.91188000E+02 0.0000E+00 0.9000E+01
#aMCatNLO 1  0  0  2  1 0.42871570D+02 0.00000000D+00  -5  7  0 0.00000000D+00 0.00000000D+00 0.00000000D+00 0.00000000D+00 0.00000000D+00
  <mgrwgt>
 0.2479780230D-03    9    2    0
 0.337787479720753D+03 0.000000000000000D+00 0.000000000000000D+00 0.337787479720753D+03
 0.337787479720753D+03 0.000000000000000D+00 0.000000000000000D+00 -.337787479720753D+03
 0.153447214943460D+03 0.336798229952995D+02 -.119350551585771D+02 0.118127136642142D+03
 0.252000605505283D+02 0.118353590401975D+02 0.142918210231648D+02 -.170502545430188D+02
 0.252253524432794D+03 0.119258603167689D+03 -.142052631061865D+03 -.170968640889667D+03
 0.244674159514724D+03 -.164773785203186D+03 0.139695865197277D+03 0.698917587905432D+02
 0.000000000000000D+00 -.000000000000000D+00 -.000000000000000D+00 -.000000000000000D+00
 0.356427742073310D+03 0.000000000000000D+00 0.000000000000000D+00 0.356427742073310D+03
 0.364050051237953D+03 0.000000000000000D+00 0.000000000000000D+00 -.364050051237953D+03
 0.155687215055010D+03 0.432614985470360D+02 -.988331522205455D+01 0.118127136642142D+03
 0.261750688024810D+02 0.134277401311406D+02 0.146328002037695D+02 -.170502545430188D+02
 0.258273739566910D+03 0.135082484719753D+03 -.138664237293377D+03 -.170968640889667D+03
 0.236797870956330D+03 -.149850475679778D+03 0.142891417996882D+03 0.698917587905432D+02
 0.435438989305310D+02 -.419212477181523D+02 -.897666568522025D+01 -.762230916464311D+01
0.255989573779D-05 0.000000000000D+00 0.000000000000D+00 0.179895418462D-06 0.000000000000D+00  7 2 -2 23 -13 13 23 21 0 0.25900186D+00 0.10426955D-01 0.71944935D+05 0.71944935D+05 0.71944935D+05 0.11336492D+01  1  2  2  2  7  2       -2 0.192987920457D-03 0.100000000000D+01
-.133022363540D-06 0.000000000000D+00 -.983067366914D-08 0.179895418462D-06 0.000000000000D+00  7 2 -2 23 -13 13 23 21 2 0.25900186D+00 0.10426955D-01 0.71944935D+05 0.71944935D+05 0.71944935D+05 0.11336492D+01  1  2  3  2  7  2       -2 -.128881292762D-04 0.100000000000D+01
0.164608603973D-06 0.000000000000D+00 0.000000000000D+00 0.179895418462D-06 0.000000000000D+00  7 2 -2 23 -13 13 23 21 2 0.25900186D+00 0.10426955D-01 0.71944935D+05 0.71944935D+05 0.71944935D+05 0.11336492D+01  1  2 15  2  7  2       -2 0.159484233441D-04 0.100000000000D+01
0.390032926453D-05 0.000000000000D+00 0.000000000000D+00 0.179895418462D-06 0.000000000000D+00  7 2 -2 23 -13 13 23 21 2 0.25900186D+00 0.11506281D-01 0.85257382D+05 0.85257382D+05 0.85257382D+05 0.11274510D+01  1  2 12  2  7  2       -2 0.319943922796D-03 0.100000000000D+01
-.340826540268D-05 0.000000000000D+00 0.000000000000D+00 0.179895418462D-06 0.000000000000D+00  7 2 -2 23 -13 13 23 21 2 0.25900186D+00 0.10426955D-01 0.71944935D+05 0.71944935D+05 0.71944935D+05 0.11336492D+01  1  2  4  2  7  2       -2 -.330216393306D-03 0.100000000000D+01
-.108842589358D-04 0.000000000000D+00 -.268860068216D-05 0.179895418462D-06 0.000000000000D+00  7 2 -2 23 -13 13 23 21 2 0.25900186D+00 0.11925336D-01 0.71944935D+05 0.71944935D+05 0.71944935D+05 0.11336492D+01  1  2  5  2  7  2       -2 -.856282200235D-03 0.100000000000D+01
0.111684871663D-04 0.000000000000D+00 0.266454545490D-05 0.179895418462D-06 0.000000000000D+00  7 2 -2 23 -13 13 23 21 2 0.25900186D+00 0.10426955D-01 0.71944935D+05 0.71944935D+05 0.71944935D+05 0.11336492D+01  1  2  6  2  7  2       -2 0.108208050577D-02 0.100000000000D+01
0.625270615552D-07 0.000000000000D+00 0.000000000000D+00 0.179895418462D-06 0.000000000000D+00  7 2 21 23 -13 13 23 2 2 0.25900186D+00 0.11506281D-01 0.85257382D+05 0.85257382D+05 0.85257382D+05 0.11274510D+01  1  2 12  4  7  2       -2 0.731883706686D-04 0.100000000000D+01
-.211510676068D-06 0.000000000000D+00 -.560195889151D-07 0.179895418462D-06 0.000000000000D+00  7 2 21 23 -13 13 23 2 2 0.25900186D+00 0.11925336D-01 0.71944935D+05 0.71944935D+05 0.71944935D+05 0.11336492D+01  1  2  5  4  7  2       -2 -.236784397215D-03 0.100000000000D+01
  </mgrwgt>
  </event>
  <event>
  8     66 0.55102590E-06 0.34285011E+03 0.75467711E-02 0.95078441E-01
        2 -1    0    0  501    0 0.00000000E+00 0.00000000E+00 0.27459529E+03 0.27459548E+03 0.32000000E+00 0.0000E+00 0.9000E+01
       -2 -1    0    0    0  501 0.00000000E+00 0.00000000E+00 -.74655110E+03 0.74655117E+03 0.32000000E+00 0.0000E+00 0.9000E+01
       25  2    1    2    0    0 -.38563329E+03 -.59664440E+02 -.35751162E+03 0.60713684E+03 0.29753606E+03 0.0000E+00 0.0000E+00
       23  2    1    2    0    0 0.38563329E+03 0.59664440E+02 -.11444419E+03 0.41400981E+03 0.77677387E+02 0.0000E+00 0.0000E+00
       23  1    3    3    0    0 -.33826361E+03 0.82374594E+00 -.18156826E+03 0.39459502E+03 0.91188000E+02 0.0000E+00 0.9000E+01
      -13  1    4    4    0    0 0.33360559E+03 0.77698966E+02 -.10388966E+03 0.35794258E+03 0.10565837E+00 0.0000E+00 0.9000E+01
       13  1    4    4    0    0 0.52027693E+02 -.18034527E+02 -.10554536E+02 0.56067231E+02 0.10565837E+00 0.0000E+00 0.9000E+01
       23  1    3    3    0    0 -.47369681E+02 -.60488186E+02 -.17594336E+03 0.21254182E+03 0.91188000E+02 0.0000E+00 0.9000E+01
#aMCatNLO 1  0  0  2  1 0.88481767D+02 0.00000000D+00  -5  7  0 0.00000000D+00 0.00000000D+00 0.00000000D+00 0.00000000D+00 0.00000000D+00
  <mgrwgt>
 0.1699992711D-02    9    2    0
 0.452768758439327D+03 0.000000000000000D+00 0.000000000000000D+00 0.452768758439327D+03
 0.452768758439327D+03 0.000000000000000D+00 0.000000000000000D+00 -.452768758439327D+03
 0.350341295892382D+03 -.338263605047674D+03 0.823745873434468D+00 0.909508900843939D+00
 0.349495217407399D+03 0.333606113938358D+03 0.776991431045332D+02 0.694025280116934D+02
 0.577238386643791D+02 0.520271720979481D+02 -.180347035085242D+02 0.173194798709831D+02
 0.147977164914493D+03 -.473696809886319D+02 -.604881854694435D+02 -.876315167835205D+02
 0.000000000000000D+00 0.000000000000000D+00 0.000000000000000D+00 -.000000000000000D+00
 0.471421595496549D+03 0.000000000000000D+00 0.000000000000000D+00 0.471421595496549D+03
 0.573571483200439D+03 0.000000000000000D+00 0.000000000000000D+00 -.573571483200439D+03
 0.376824954712822D+03 -.364929717993068D+03 -.225226301612278D+02 0.909508900843939D+00
 0.321632797806081D+03 0.308994994487192D+03 0.561519288360905D+02 0.694025280116934D+02
 0.553346554790215D+02 0.478811730616136D+02 -.216645558510768D+02 0.173194798709831D+02
 0.156057699245149D+03 -.585190268504222D+02 -.702495189477380D+02 -.876315167835205D+02
 0.135142971453914D+03 0.665725772946850D+02 0.582847761239522D+02 -.102149887703891D+03
0.131685251265D-03 0.000000000000D+00 0.000000000000D+00 0.248302953020D-09 0.000000000000D+00  7 2 -2 23 -13 13 23 21 0 0.42245449D-01 0.11485404D+00 0.18799962D+06 0.18799962D+06 0.18799962D+06 0.10998953D+01  1  2  2  2  7  2       -2 0.116016786313D-02 0.100000000000D+01
-.729918251979D-05 0.000000000000D+00 -.505706038382D-06 0.248302953020D-09 0.000000000000D+00  7 2 -2 23 -13 13 23 21 2 0.42245449D-01 0.11485404D+00 0.18799962D+06 0.18799962D+06 0.18799962D+06 0.10998953D+01  1  2  3  2  7  2       -2 -.777965966258D-04 0.100000000000D+01
0.848232367802D-05 0.000000000000D+00 0.000000000000D+00 0.248302953020D-09 0.000000000000D+00  7 2 -2 23 -13 13 23 21 2 0.42245449D-01 0.11485404D+00 0.18799962D+06 0.18799962D+06 0.18799962D+06 0.10998953D+01  1  2 15  2  7  2       -2 0.904068245778D-04 0.100000000000D+01
0.250923524925D-03 0.000000000000D+00 0.000000000000D+00 0.248302953020D-09 0.000000000000D+00  7 2 -2 23 -13 13 23 21 2 0.42245449D-01 0.14741225D+00 0.23090248D+06 0.23090248D+06 0.23090248D+06 0.10930649D+01  1  2 12  2  7  2       -2 0.136508331632D-02 0.100000000000D+01
-.255921648140D-03 0.000000000000D+00 0.000000000000D+00 0.248302953020D-09 0.000000000000D+00  7 2 -2 23 -13 13 23 21 2 0.42245449D-01 0.11485404D+00 0.18799962D+06 0.18799962D+06 0.18799962D+06 0.10998953D+01  1  2  4  2  7  2       -2 -.272767987020D-02 0.100000000000D+01
-.374445826162D-03 0.000000000000D+00 -.700172687532D-04 0.248302953020D-09 0.000000000000D+00  7 2 -2 23 -13 13 23 21 2 0.42245449D-01 0.14865443D+00 0.18799962D+06 0.18799962D+06 0.18799962D+06 0.10998953D+01  1  2  5  2  7  2       -2 -.202836282076D-02 0.100000000000D+01
0.381993939668D-03 0.000000000000D+00 0.677505261465D-04 0.248302953020D-09 0.000000000000D+00  7 2 -2 23 -13 13 23 21 2 0.42245449D-01 0.11485404D+00 0.18799962D+06 0.18799962D+06 0.18799962D+06 0.10998953D+01  1  2  6  2  7  2       -2 0.407139133147D-02 0.100000000000D+01
0.848130955009D-05 0.000000000000D+00 0.000000000000D+00 0.248302953020D-09 0.000000000000D+00  7 2 21 23 -13 13 23 2 2 0.42245449D-01 0.14741225D+00 0.23090248D+06 0.23090248D+06 0.23090248D+06 0.10930649D+01  1  2 12  4  7  2       -2 0.397927461517D-03 0.100000000000D+01
-.117332821197D-04 0.000000000000D+00 -.242492686318D-05 0.248302953020D-09 0.000000000000D+00  7 2 21 23 -13 13 23 2 2 0.42245449D-01 0.14865443D+00 0.18799962D+06 0.18799962D+06 0.18799962D+06 0.10998953D+01  1  2  5  4  7  2       -2 -.551144798369D-03 0.100000000000D+01
  </mgrwgt>
  </event>
  <event>
  8     66 0.55102590E-06 0.25966338E+03 0.75467711E-02 0.10116778E+00
        2 -1    0    0  501    0 0.00000000E+00 0.00000000E+00 0.10906261E+03 0.10906308E+03 0.32000000E+00 0.0000E+00 0.9000E+01
       -2 -1    0    0    0  501 0.00000000E+00 0.00000000E+00 -.74612260E+03 0.74612267E+03 0.32000000E+00 0.0000E+00 0.9000E+01
       25  2    1    2    0    0 0.71967100E+02 0.17246993E+03 -.32057025E+03 0.47687638E+03 0.29953407E+03 0.0000E+00 0.0000E+00
       23  2    1    2    0    0 -.71967100E+02 -.17246993E+03 -.31648975E+03 0.37830937E+03 0.89593960E+02 0.0000E+00 0.0000E+00
       23  1    3    3    0    0 0.13883485E+03 0.12143514E+03 -.11217937E+03 0.23435245E+03 0.91188000E+02 0.0000E+00 0.9000E+01
      -11  1    4    4    0    0 -.62368359E+02 -.11125769E+03 -.27667647E+03 0.30466039E+03 0.51099893E-03 0.0000E+00 0.9000E+01
       11  1    4    4    0    0 -.95987405E+01 -.61212244E+02 -.39813275E+02 0.73648975E+02 0.51099893E-03 0.0000E+00 0.9000E+01
       23  1    3    3    0    0 -.66867752E+02 0.51034786E+02 -.20839088E+03 0.24252393E+03 0.91188000E+02 0.0000E+00 0.9000E+01
#aMCatNLO 1  0  0  1  2 0.60114047D+02 0.00000000D+00  -5  7  0 0.00000000D+00 0.00000000D+00 0.00000000D+00 0.00000000D+00 0.00000000D+00
  <mgrwgt>
 0.2989364003D-03    3    2    0
 0.285261823188164D+03 0.000000000000000D+00 0.000000000000000D+00 0.285261823188164D+03
 0.285261823188164D+03 0.000000000000000D+00 0.000000000000000D+00 -.285261823188164D+03
 0.226020240197910D+03 0.138834852023548D+03 0.121435144371500D+03 0.935322789746588D+02
 0.147726944999722D+03 -.623683594774291D+02 -.111257686262562D+03 -.745329810389086D+02
 0.659396143487915D+02 -.959874053180553D+01 -.612122442442656D+02 0.225600991853048D+02
 0.130836846829904D+03 -.668677520143131D+02 0.510347861353273D+02 -.415593971210550D+02
 0.000000000000000D+00 -.000000000000000D+00 0.000000000000000D+00 -.000000000000000D+00
 0.289469249264359D+03 0.000000000000000D+00 0.000000000000000D+00 0.289469249264359D+03
 0.630571117802568D+03 0.000000000000000D+00 0.000000000000000D+00 -.630571117802568D+03
 0.221286105878987D+03 0.148107164188831D+03 0.998412240351432D+02 0.935322789746588D+02
 0.156723633110376D+03 -.560573361174959D+02 -.125955178457178D+03 -.745329810389086D+02
 0.718320444106938D+02 -.674284135051564D+01 -.678632346671663D+02 0.225600991853048D+02
 0.123840122945113D+03 -.615884967885079D+02 0.387401378589062D+02 -.415593971210550D+02
 0.346358460721757D+03 -.237184899323113D+02 0.552370512302949D+02 -.341101868538209D+03
0.113642315972D-04 0.000000000000D+00 0.000000000000D+00 0.103727142768D-06 0.000000000000D+00  7 2 -2 23 -11 11 23 21 0 0.16778904D-01 0.11478813D+00 0.67425072D+05 0.67425072D+05 0.67425072D+05 0.11360459D+01  1  2  2  1  7  1        2 0.295347118542D-03 0.100000000000D+01
-.624560387235D-06 0.000000000000D+00 -.436416416043D-07 0.103727142768D-06 0.000000000000D+00  7 2 -2 23 -11 11 23 21 2 0.16778904D-01 0.11478813D+00 0.67425072D+05 0.67425072D+05 0.67425072D+05 0.11360459D+01  1  2  3  1  7  1        2 -.209487856935D-04 0.100000000000D+01
0.731570083772D-06 0.000000000000D+00 0.000000000000D+00 0.103727142768D-06 0.000000000000D+00  7 2 -2 23 -11 11 23 21 2 0.16778904D-01 0.11478813D+00 0.67425072D+05 0.67425072D+05 0.67425072D+05 0.11360459D+01  1  2 15  1  7  1        2 0.245380674439D-04 0.100000000000D+01
  </mgrwgt>
  </event>
  <event>
  8     66 0.55102590E-06 0.75053751E+02 0.75467711E-02 0.10157417E+00
        2 -1    0    0  501    0 0.00000000E+00 0.00000000E+00 0.29271004E+04 0.29271004E+04 0.32000000E+00 0.0000E+00 0.9000E+01
       -2 -1    0    0    0  501 0.00000000E+00 0.00000000E+00 -.19179135E+02 0.19181804E+02 0.32000000E+00 0.0000E+00 0.9000E+01
       25  2    1    2    0    0 0.47571325E+02 0.10883043E+03 0.18885606E+04 0.19158403E+04 0.29945905E+03 0.0000E+00 0.0000E+00
       23  2    1    2    0    0 -.47571325E+02 -.10883043E+03 0.10193606E+04 0.10304419E+04 0.92775800E+02 0.0000E+00 0.0000E+00
       23  1    3    3    0    0 -.66666111E+02 0.90574164E+02 0.53354460E+03 0.55284098E+03 0.91188000E+02 0.0000E+00 0.9000E+01
      -11  1    4    4    0    0 -.10903330E+02 -.10718117E+03 0.61014359E+03 0.61958202E+03 0.51099893E-03 0.0000E+00 0.9000E+01
       11  1    4    4    0    0 -.36667995E+02 -.16492593E+01 0.40921698E+03 0.41085983E+03 0.51099893E-03 0.0000E+00 0.9000E+01
       23  1    3    3    0    0 0.11423744E+03 0.18256263E+02 0.13550160E+04 0.13629993E+04 0.91188000E+02 0.0000E+00 0.9000E+01
#aMCatNLO 1  0  0  1  2 0.11275816D+03 0.00000000D+00  -5  7  0 0.00000000D+00 0.00000000D+00 0.00000000D+00 0.00000000D+00 0.00000000D+00
  <mgrwgt>
 0.2225680766D-03    9    2    0
 0.236945586557975D+03 0.000000000000000D+00 0.000000000000000D+00 0.236945586557975D+03
 0.236945586557975D+03 0.000000000000000D+00 0.000000000000000D+00 -.236945586557975D+03
 0.163159485628693D+03 -.666661108468793D+02 0.905741643513752D+02 -.752177959210552D+02
 0.108071194377429D+03 -.109033305307006D+02 -.107181168145133D+03 -.852629066752262D+01
 0.433395918190038D+02 -.366679949420137D+02 -.164925945335711D+01 0.230447024113099D+02
 0.159320901290825D+03 0.114237436319594D+03 0.182562632471148D+02 0.606993841772679D+02
 0.000000000000000D+00 -.000000000000000D+00 -.000000000000000D+00 0.000000000000000D+00
 0.395641998010438D+03 0.000000000000000D+00 0.000000000000000D+00 0.395641998010438D+03
 0.264461359058383D+03 0.000000000000000D+00 0.000000000000000D+00 -.264461359058383D+03
 0.182813975771987D+03 -.532527410485569D+02 0.128888041109928D+03 -.752177959210552D+02
 0.861607679221215D+02 -.337296931042072D+01 -.856714851885594D+02 -.852629066752262D+01
 0.412962522531873D+02 -.333866684780203D+02 0.772350366555325D+01 0.230447024113099D+02
 0.176850391217397D+03 0.127270776633435D+03 0.554846258468891D+02 0.606993841772679D+02
 0.172981969904128D+03 -.372583977964372D+02 -.106424685433811D+03 0.131180638952055D+03
0.188730617500D-05 0.000000000000D+00 0.000000000000D+00 0.302618022676D-07 0.000000000000D+00  7 2 -2 23 -11 11 23 21 0 0.45032334D+00 0.29508428D-02 0.47639913D+05 0.47639913D+05 0.47639913D+05 0.11491470D+01  1  2  2  1  7  1        2 0.192363834392D-03 0.100000000000D+01
-.103990692340D-06 0.000000000000D+00 -.724775265112D-08 0.302618022676D-07 0.000000000000D+00  7 2 -2 23 -11 11 23 21 2 0.45032334D+00 0.29508428D-02 0.47639913D+05 0.47639913D+05 0.47639913D+05 0.11491470D+01  1  2  3  1  7  1        2 -.139967351380D-04 0.100000000000D+01
0.120108178297D-06 0.000000000000D+00 0.000000000000D+00 0.302618022676D-07 0.000000000000D+00  7 2 -2 23 -11 11 23 21 2 0.45032334D+00 0.29508428D-02 0.47639913D+05 0.47639913D+05 0.47639913D+05 0.11491470D+01  1  2 15  1  7  1        2 0.161660848841D-04 0.100000000000D+01
0.701993964252D-06 0.000000000000D+00 0.000000000000D+00 0.302618022676D-07 0.000000000000D+00  7 2 -2 23 -11 11 23 21 2 0.76329150D+00 0.29508428D-02 0.79946080D+05 0.79946080D+05 0.79946080D+05 0.11297870D+01  1  2 12  1  7  1        2 0.180163098871D-05 0.100000000000D+01
-.113564472106D-05 0.000000000000D+00 0.000000000000D+00 0.302618022676D-07 0.000000000000D+00  7 2 -2 23 -11 11 23 21 2 0.45032334D+00 0.29508428D-02 0.47639913D+05 0.47639913D+05 0.47639913D+05 0.11491470D+01  1  2  4  1  7  1        2 -.152853279594D-03 0.100000000000D+01
-.128984854399D-05 0.000000000000D+00 -.400642252030D-06 0.302618022676D-07 0.000000000000D+00  7 2 -2 23 -11 11 23 21 2 0.76077427D+00 0.29508428D-02 0.47639913D+05 0.47639913D+05 0.47639913D+05 0.11491470D+01  1  2  5  1  7  1        2 -.373226114594D-05 0.100000000000D+01
0.135828114052D-05 0.000000000000D+00 0.351236720555D-06 0.302618022676D-07 0.000000000000D+00  7 2 -2 23 -11 11 23 21 2 0.45032334D+00 0.29508428D-02 0.47639913D+05 0.47639913D+05 0.47639913D+05 0.11491470D+01  1  2  6  1  7  1        2 0.182819259482D-03 0.100000000000D+01
0.413306431462D-07 0.000000000000D+00 0.000000000000D+00 0.302618022676D-07 0.000000000000D+00  7 21 -2 23 -11 11 23 -2 2 0.76329150D+00 0.29508428D-02 0.79946080D+05 0.79946080D+05 0.79946080D+05 0.11297870D+01  1  2 12  3  7  1        2 0.763718260183D-09 0.100000000000D+01
-.565149400490D-07 0.000000000000D+00 -.234680711482D-07 0.302618022676D-07 0.000000000000D+00  7 21 -2 23 -11 11 23 -2 2 0.76077427D+00 0.29508428D-02 0.47639913D+05 0.47639913D+05 0.47639913D+05 0.11491470D+01  1  2  5  3  7  1        2 -.122102541518D-08 0.100000000000D+01
  </mgrwgt>
  </event>
  <event>
  8     66 0.55102590E-06 0.19654166E+03 0.75467711E-02 0.96453585E-01
        2 -1    0    0  501    0 0.00000000E+00 0.00000000E+00 0.47311556E+03 0.47311567E+03 0.32000000E+00 0.0000E+00 0.9000E+01
       -2 -1    0    0    0  501 0.00000000E+00 0.00000000E+00 -.60686794E+03 0.60686802E+03 0.32000000E+00 0.0000E+00 0.9000E+01
       25  2    1    2    0    0 0.16380888E+03 -.28289918E+03 0.29182142E+03 0.53561307E+03 0.30798754E+03 0.0000E+00 0.0000E+00
       23  2    1    2    0    0 -.16380888E+03 0.28289918E+03 -.42557379E+03 0.54437062E+03 0.91438616E+02 0.0000E+00 0.0000E+00
       23  1    3    3    0    0 -.41816035E+02 -.16336645E+03 0.96531621E+02 0.21464105E+03 0.91188000E+02 0.0000E+00 0.9000E+01
      -11  1    4    4    0    0 -.95491180E+02 0.86443556E+02 -.13053691E+03 0.18338740E+03 0.51099893E-03 0.0000E+00 0.9000E+01
       11  1    4    4    0    0 -.68317702E+02 0.19645562E+03 -.29503689E+03 0.36098322E+03 0.51099893E-03 0.0000E+00 0.9000E+01
       23  1    3    3    0    0 0.20562492E+03 -.11953273E+03 0.19528980E+03 0.32097202E+03 0.91188000E+02 0.0000E+00 0.9000E+01
#aMCatNLO 1  0  0  2  1 0.66201244D+02 0.00000000D+00  -5  7  0 0.00000000D+00 0.00000000D+00 0.00000000D+00 0.00000000D+00 0.00000000D+00
  <mgrwgt>
 0.1835224428D-03    9    2    0
 0.535834646410621D+03 0.000000000000000D+00 0.000000000000000D+00 0.535834646410621D+03
 0.535834646410621D+03 0.000000000000000D+00 0.000000000000000D+00 -.535834646410621D+03
 0.228354186774188D+03 -.418160346596013D+02 -.163366445958490D+03 0.124069363073803D+03
 0.168518198031023D+03 -.954911801340246D+02 0.864435561715916D+02 -.108661534963589D+03
 0.326961038695492D+03 -.683177020129094D+02 0.196455623416507D+03 -.252272472625418D+03
 0.347835869320539D+03 0.205624916806535D+03 -.119532733629608D+03 0.236864644515204D+03
 0.000000000000000D+00 -.000000000000000D+00 -.000000000000000D+00 -.000000000000000D+00
 0.562791386608677D+03 0.000000000000000D+00 0.000000000000000D+00 0.562791386608677D+03
 0.579101549630001D+03 0.000000000000000D+00 0.000000000000000D+00 -.579101549630001D+03
 0.221893619588450D+03 -.294470439057478D+02 -.157038822657767D+03 0.124069363073803D+03
 0.166019860499917D+03 -.863009118099885D+02 0.911450356329581D+02 -.108661534963589D+03
 0.329354228668243D+03 -.502877252780610D+02 0.205679245874418D+03 -.252272472625418D+03
 0.356444393214676D+03 0.224972564773538D+03 -.109635028107267D+03 0.236864644515204D+03
 0.681808342673924D+02 -.589368837797407D+02 -.301504307423429D+02 -.163101630213239D+02
0.126161531426D-04 0.000000000000D+00 0.000000000000D+00 0.718568980861D-08 0.000000000000D+00  7 2 -2 23 -11 11 23 21 0 0.72787024D-01 0.93364313D-01 0.15336473D+06 0.15336473D+06 0.15336473D+06 0.11067924D+01  1  2  2  2  7  2       -2 0.101457878467D-03 0.100000000000D+01
-.617121762059D-06 0.000000000000D+00 -.484493499769D-07 0.718568980861D-08 0.000000000000D+00  7 2 -2 23 -11 11 23 21 2 0.72787024D-01 0.93364313D-01 0.15336473D+06 0.15336473D+06 0.15336473D+06 0.11067924D+01  1  2  3  2  7  2       -2 -.607941849408D-05 0.100000000000D+01
0.799569611703D-06 0.000000000000D+00 0.000000000000D+00 0.718568980861D-08 0.000000000000D+00  7 2 -2 23 -11 11 23 21 2 0.72787024D-01 0.93364313D-01 0.15336473D+06 0.15336473D+06 0.15336473D+06 0.11067924D+01  1  2 15  2  7  2       -2 0.787675720342D-05 0.100000000000D+01
0.214406921279D-04 0.000000000000D+00 0.000000000000D+00 0.718568980861D-08 0.000000000000D+00  7 2 -2 23 -11 11 23 21 2 0.72787024D-01 0.10309665D+00 0.18223730D+06 0.18223730D+06 0.18223730D+06 0.11009412D+01  1  2 12  2  7  2       -2 0.164096670976D-03 0.100000000000D+01
-.193842176319D-04 0.000000000000D+00 0.000000000000D+00 0.718568980861D-08 0.000000000000D+00  7 2 -2 23 -11 11 23 21 2 0.72787024D-01 0.93364313D-01 0.15336473D+06 0.15336473D+06 0.15336473D+06 0.11067924D+01  1  2  4  2  7  2       -2 -.190958702819D-03 0.100000000000D+01
-.594498902457D-04 0.000000000000D+00 -.139095811863D-04 0.718568980861D-08 0.000000000000D+00  7 2 -2 23 -11 11 23 21 2 0.72787024D-01 0.10483429D+00 0.15336473D+06 0.15336473D+06 0.15336473D+06 0.11067924D+01  1  2  5  2  7  2       -2 -.443815605058D-03 0.100000000000D+01
0.607462212899D-04 0.000000000000D+00 0.138167238720D-04 0.718568980861D-08 0.000000000000D+00  7 2 -2 23 -11 11 23 21 2 0.72787024D-01 0.93364313D-01 0.15336473D+06 0.15336473D+06 0.15336473D+06 0.11067924D+01  1  2  6  2  7  2       -2 0.598425989586D-03 0.100000000000D+01
0.345709189860D-06 0.000000000000D+00 0.000000000000D+00 0.718568980861D-08 0.000000000000D+00  7 2 21 23 -11 11 23 2 2 0.72787024D-01 0.10309665D+00 0.18223730D+06 0.18223730D+06 0.18223730D+06 0.11009412D+01  1  2 12  4  7  2       -2 0.246296496091D-04 0.100000000000D+01
-.103486812131D-05 0.000000000000D+00 -.256241120844D-06 0.718568980861D-08 0.000000000000D+00  7 2 21 23 -11 11 23 2 2 0.72787024D-01 0.10483429D+00 0.15336473D+06 0.15336473D+06 0.15336473D+06 0.11067924D+01  1  2  5  4  7  2       -2 -.721107766409D-04 0.100000000000D+01
  </mgrwgt>
  </event>
  <event>
  8     66 0.55102590E-06 0.96023644E+02 0.75467711E-02 0.10238738E+00
        2 -1    0    0  501    0 0.00000000E+00 0.00000000E+00 0.20008543E+04 0.20008543E+04 0.32000000E+00 0.0000E+00 0.9000E+01
       -2 -1    0    0    0  501 0.00000000E+00 0.00000000E+00 -.28129355E+02 0.28131175E+02 0.32000000E+00 0.0000E+00 0.9000E+01
       25  2    1    2    0    0 0.83201180E+02 0.40888431E+00 0.17214239E+04 0.17494036E+04 0.30031643E+03 0.0000E+00 0.0000E+00
       23  2    1    2    0    0 -.83201180E+02 -.40888431E+00 0.25130101E+03 0.27958191E+03 0.89951333E+02 0.0000E+00 0.0000E+00
       23  1    3    3    0    0 -.33995900E+02 -.94254858E+02 0.73343459E+03 0.74584264E+03 0.91188000E+02 0.0000E+00 0.9000E+01
      -11  1    4    4    0    0 -.10276738E+03 -.26408703E+01 0.21335984E+03 0.23683439E+03 0.51099893E-03 0.0000E+00 0.9000E+01
       11  1    4    4    0    0 0.19566196E+02 0.22319859E+01 0.37941172E+02 0.42747518E+02 0.51099893E-03 0.0000E+00 0.9000E+01
       23  1    3    3    0    0 0.11719708E+03 0.94663743E+02 0.98798936E+03 0.10035610E+04 0.91188000E+02 0.0000E+00 0.9000E+01
#aMCatNLO 1  0  0  2  1 0.88140456D+02 0.00000000D+00  -5  7  0 0.00000000D+00 0.00000000D+00 0.00000000D+00 0.00000000D+00 0.00000000D+00
  <mgrwgt>
 0.2905344471D-03    9    2    0
 0.237243783651699D+03 0.000000000000000D+00 0.000000000000000D+00 0.237243783651699D+03
 0.237243783651699D+03 0.000000000000000D+00 0.000000000000000D+00 -.237243783651699D+03
 0.140023052446052D+03 -.339958994910449D+02 -.942548584920233D+02 0.353766072532854D+02
 0.125679307591808D+03 -.102767376280933D+03 -.264087025648074D+01 -.722992429654535D+02
 0.250514436166104D+02 0.195661961031482D+02 0.223198594428580D+01 -.154840897722104D+02
 0.183733763648928D+03 0.117197079668830D+03 0.946637428042182D+02 0.524067254843785D+02
 0.000000000000000D+00 0.000000000000000D+00 0.000000000000000D+00 -.000000000000000D+00
 0.264183077523718D+03 0.000000000000000D+00 0.000000000000000D+00 0.264183077523718D+03
 0.326185103380206D+03 0.000000000000000D+00 0.000000000000000D+00 -.326185103380206D+03
 0.160434383816946D+03 -.496210669528870D+02 -.117090501495327D+03 0.353766072532854D+02
 0.139014333126103D+03 -.116532662019050D+03 -.227583603071779D+02 -.722992429654535D+02
 0.230853488655990D+02 0.170628616775955D+02 -.142655092576073D+01 -.154840897722104D+02
 0.160070525504624D+03 0.993176766527516D+02 0.685336123346137D+02 0.524067254843785D+02
 0.107763589590652D+03 0.497731906415896D+02 0.727418003936515D+02 -.620020258564884D+02
0.128866032910D-05 0.000000000000D+00 0.000000000000D+00 0.959306533296D-07 0.000000000000D+00  7 2 -2 23 -11 11 23 21 0 0.30782388D+00 0.43277350D-02 0.47105501D+05 0.47105501D+05 0.47105501D+05 0.11495804D+01  1  2  2  2  7  2       -2 0.247853516413D-03 0.100000000000D+01
-.709025079190D-07 0.000000000000D+00 -.494879497582D-08 0.959306533296D-07 0.000000000000D+00  7 2 -2 23 -11 11 23 21 2 0.30782388D+00 0.43277350D-02 0.47105501D+05 0.47105501D+05 0.47105501D+05 0.11495804D+01  1  2  3  2  7  2       -2 -.180217480706D-04 0.100000000000D+01
0.836071880881D-07 0.000000000000D+00 0.000000000000D+00 0.959306533296D-07 0.000000000000D+00  7 2 -2 23 -11 11 23 21 2 0.30782388D+00 0.43277350D-02 0.47105501D+05 0.47105501D+05 0.47105501D+05 0.11495804D+01  1  2 15  2  7  2       -2 0.212509786302D-04 0.100000000000D+01
0.860307413889D-06 0.000000000000D+00 0.000000000000D+00 0.959306533296D-07 0.000000000000D+00  7 2 -2 23 -11 11 23 21 2 0.30782388D+00 0.61241890D-02 0.70684449D+05 0.70684449D+05 0.70684449D+05 0.11343006D+01  1  2 12  2  7  2       -2 0.126745368281D-03 0.100000000000D+01
-.106154032402D-05 0.000000000000D+00 0.000000000000D+00 0.959306533296D-07 0.000000000000D+00  7 2 -2 23 -11 11 23 21 2 0.30782388D+00 0.43277350D-02 0.47105501D+05 0.47105501D+05 0.47105501D+05 0.11495804D+01  1  2  4  2  7  2       -2 -.269818555756D-03 0.100000000000D+01
-.138389114422D-05 0.000000000000D+00 -.521351990742D-06 0.959306533296D-07 0.000000000000D+00  7 2 -2 23 -11 11 23 21 2 0.30782388D+00 0.67372555D-02 0.47105501D+05 0.47105501D+05 0.47105501D+05 0.11495804D+01  1  2  5  2  7  2       -2 -.182595684438D-03 0.100000000000D+01
0.151137836247D-05 0.000000000000D+00 0.474145746715D-06 0.959306533296D-07 0.000000000000D+00  7 2 -2 23 -11 11 23 21 2 0.30782388D+00 0.43277350D-02 0.47105501D+05 0.47105501D+05 0.47105501D+05 0.11495804D+01  1  2  6  2  7  2       -2 0.384156793424D-03 0.100000000000D+01
0.369495997876D-07 0.000000000000D+00 0.000000000000D+00 0.959306533296D-07 0.000000000000D+00  7 2 21 23 -11 11 23 2 2 0.30782388D+00 0.61241890D-02 0.70684449D+05 0.70684449D+05 0.70684449D+05 0.11343006D+01  1  2 12  4  7  2       -2 0.867133500217D-04 0.100000000000D+01
-.506991861285D-07 0.000000000000D+00 -.267549739087D-07 0.959306533296D-07 0.000000000000D+00  7 2 21 23 -11 11 23 2 2 0.30782388D+00 0.67372555D-02 0.47105501D+05 0.47105501D+05 0.47105501D+05 0.11495804D+01  1  2  5  4  7  2       -2 -.105749571445D-03 0.100000000000D+01
  </mgrwgt>
  </event>
  <event>
  8     66 0.55102590E-06 0.27298262E+03 0.75467711E-02 0.97291851E-01
        2 -1    0    0  501    0 0.00000000E+00 0.00000000E+00 0.80963820E+03 0.80963826E+03 0.32000000E+00 0.0000E+00 0.9000E+01
       -2 -1    0    0    0  501 0.00000000E+00 0.00000000E+00 -.14096606E+03 0.14096643E+03 0.32000000E+00 0.0000E+00 0.9000E+01
       25  2    1    2    0    0 0.12092297E+03 0.14389829E+03 0.64967231E+03 0.74069146E+03 0.30202757E+03 0.0000E+00 0.0000E+00
       23  2    1    2    0    0 -.12092297E+03 -.14389829E+03 0.18999827E+02 0.20991323E+03 0.91506764E+02 0.0000E+00 0.0000E+00
       23  1    3    3    0    0 0.70234111E+01 -.51157237E+02 0.26971101E+03 0.28935388E+03 0.91188000E+02 0.0000E+00 0.9000E+01
      -11  1    4    4    0    0 -.57586000E+02 -.24815449E+02 0.38576175E+02 0.73621160E+02 0.51099893E-03 0.0000E+00 0.9000E+01
       11  1    4    4    0    0 -.63336970E+02 -.11908284E+03 -.19576349E+02 0.13629207E+03 0.51099893E-03 0.0000E+00 0.9000E+01
       23  1    3    3    0    0 0.11389956E+03 0.19505553E+03 0.37996130E+03 0.45133758E+03 0.91188000E+02 0.0000E+00 0.9000E+01
#aMCatNLO 1  0  0  2  2 0.23906360D+03 0.00000000D+00  -5  7  0 0.00000000D+00 0.00000000D+00 0.00000000D+00 0.00000000D+00 0.00000000D+00
  <mgrwgt>
 0.2322583313D-03    3    2    0
 0.337833854666817D+03 0.000000000000000D+00 0.000000000000000D+00 0.337833854666817D+03
 0.337833854666817D+03 0.000000000000000D+00 0.000000000000000D+00 -.337833854666817D+03
 0.140176779756675D+03 0.702341105476673D+01 -.511572367304727D+02 0.931014879913818D+02
 0.654016850499710D+02 -.575860001734439D+02 -.248154491339877D+02 -.185856524146500D+02
 0.211124546340642D+03 -.633369702140799D+02 -.119082839760435D+03 -.162423149662334D+03
 0.258964698186346D+03 0.113899559332757D+03 0.195055525624896D+03 0.879073140856026D+02
 0.000000000000000D+00 -.000000000000000D+00 -.000000000000000D+00 0.000000000000000D+00
 0.567083489455852D+03 0.000000000000000D+00 0.000000000000000D+00 0.567083489455852D+03
 0.426809180343071D+03 0.000000000000000D+00 0.000000000000000D+00 -.426809180343071D+03
 0.133626164274059D+03 0.280958586560817D+02 -.913433603310975D+01 0.931014879913818D+02
 0.523929761689587D+02 -.485202765193844D+02 -.673648592705098D+01 -.185856524146500D+02
 0.176241211040764D+03 -.335244908272727D+02 -.596304740686681D+02 -.162423149662334D+03
 0.354453159949678D+03 0.161109481486959D+03 0.289202058014064D+03 0.879073140856026D+02
 0.277179158365465D+03 -.107160572796384D+03 -.213700761985236D+03 0.140274309112781D+03
0.309699046978D-05 0.000000000000D+00 0.000000000000D+00 0.409486667985D-07 0.000000000000D+00  7 2 -2 23 -11 11 23 21 0 0.12455976D+00 0.21687120D-01 0.74519513D+05 0.74519513D+05 0.74519513D+05 0.11323569D+01  1  2  2  2  7  2       -2 0.229066559235D-03 0.100000000000D+01
-.162551088909D-06 0.000000000000D+00 -.118932588603D-07 0.409486667985D-07 0.000000000000D+00  7 2 -2 23 -11 11 23 21 2 0.12455976D+00 0.21687120D-01 0.74519513D+05 0.74519513D+05 0.74519513D+05 0.11323569D+01  1  2  3  2  7  2       -2 -.154162379266D-04 0.100000000000D+01
0.196205605112D-06 0.000000000000D+00 0.000000000000D+00 0.409486667985D-07 0.000000000000D+00  7 2 -2 23 -11 11 23 21 2 0.12455976D+00 0.21687120D-01 0.74519513D+05 0.74519513D+05 0.74519513D+05 0.11323569D+01  1  2 15  2  7  2       -2 0.186080100185D-04 0.100000000000D+01
  </mgrwgt>
  </event>
  <event>
  8     66 0.55102590E-06 0.14030612E+03 0.75467711E-02 0.10801021E+00
        2 -1    0    0  501    0 0.00000000E+00 0.00000000E+00 0.10248602E+04 0.10248603E+04 0.32000000E+00 0.0000E+00 0.9000E+01
       -2 -1    0    0    0  501 0.00000000E+00 0.00000000E+00 -.70619127E+02 0.70619852E+02 0.32000000E+00 0.0000E+00 0.9000E+01
       25  2    1    2    0    0 0.35168543E+02 -.43669623E+02 0.28087862E+03 0.41373829E+03 0.29856777E+03 0.0000E+00 0.0000E+00
       23  2    1    2    0    0 -.35168543E+02 0.43669623E+02 0.67336247E+03 0.68174182E+03 0.90614794E+02 0.0000E+00 0.0000E+00
       23  1    3    3    0    0 -.21950573E+02 -.63921401E+02 0.13283818E+01 0.11351118E+03 0.91188000E+02 0.0000E+00 0.9000E+01
      -11  1    4    4    0    0 -.14523301E+02 0.28542941E+02 0.61451374E+02 0.69295722E+02 0.51099893E-03 0.0000E+00 0.9000E+01
       11  1    4    4    0    0 -.20645243E+02 0.15126682E+02 0.61191109E+03 0.61244610E+03 0.51099893E-03 0.0000E+00 0.9000E+01
       23  1    3    3    0    0 0.57119116E+02 0.20251778E+02 0.27955024E+03 0.30022710E+03 0.91188000E+02 0.0000E+00 0.9000E+01
#aMCatNLO 1  0  0  1  2 0.58833230D+02 0.00000000D+00  -5  7  0 0.00000000D+00 0.00000000D+00 0.00000000D+00 0.00000000D+00 0.00000000D+00
  <mgrwgt>
 0.3115387778D-03    3    2    0
 0.269026313546142D+03 0.000000000000000D+00 0.000000000000000D+00 0.269026313546142D+03
 0.269026313546142D+03 0.000000000000000D+00 0.000000000000000D+00 -.269026313546142D+03
 0.228753922482912D+03 -.219505724999997D+02 -.639214008377999D+02 -.198608490727798D+03
 0.321021753647585D+02 -.145233008877944D+02 0.285429410043693D+02 0.221898925040031D+01
 0.161716188249023D+03 -.206452425332333D+02 0.151266819309663D+02 0.159678060472617D+03
 0.115480340995591D+03 0.571191159210275D+02 0.202517779024643D+02 0.367114410047806D+02
 0.000000000000000D+00 0.000000000000000D+00 -.000000000000000D+00 -.000000000000000D+00
 0.273810616110617D+03 0.000000000000000D+00 0.000000000000000D+00 0.273810616110617D+03
 0.542679570624430D+03 0.000000000000000D+00 0.000000000000000D+00 -.542679570624430D+03
 0.228779054233512D+03 -.436816859723268D+02 -.516834793083988D+02 -.198608490727798D+03
 0.352086956781280D+02 -.177203167336287D+02 0.303433470948991D+02 0.221898925040031D+01
 0.165458683471893D+03 -.361848312065716D+02 0.238778334550542D+02 0.159678060472617D+03
 0.111813188724458D+03 0.463235192378763D+02 0.263313405185128D+02 0.367114410047806D+02
 0.275230564627055D+03 0.512633146746507D+02 -.288690417600672D+02 -.268868954513813D+03
0.182440218725D-05 0.000000000000D+00 0.000000000000D+00 0.622915054183D-07 0.000000000000D+00  7 2 -2 23 -11 11 23 21 0 0.15767086D+00 0.10864541D-01 0.19685806D+05 0.19685806D+05 0.19685806D+05 0.11847025D+01  1  2  2  1  7  1        2 0.297032527624D-03 0.100000000000D+01
-.491318909214D-07 0.000000000000D+00 -.700618477518D-08 0.622915054183D-07 0.000000000000D+00  7 2 -2 23 -11 11 23 21 2 0.15767086D+00 0.10864541D-01 0.19685806D+05 0.19685806D+05 0.19685806D+05 0.11847025D+01  1  2  3  1  7  1        2 -.112270458179D-04 0.100000000000D+01
0.112614263299D-06 0.000000000000D+00 0.000000000000D+00 0.622915054183D-07 0.000000000000D+00  7 2 -2 23 -11 11 23 21 2 0.15767086D+00 0.10864541D-01 0.19685806D+05 0.19685806D+05 0.19685806D+05 0.11847025D+01  1  2 15  1  7  1        2 0.257332960343D-04 0.100000000000D+01
  </mgrwgt>
  </event>
  <event>
  9     66 0.55102590E-06 0.26907944E+03 0.75467711E-02 0.90784969E-01
        2 -1    0    0  501    0 0.00000000E+00 0.00000000E+00 0.10961336E+04 0.10961336E+04 0.32000000E+00 0.0000E+00 0.9000E+01
       21 -1    0    0  502  501 0.00000000E+00 0.00000000E+00 -.48415111E+03 0.48415170E+03 0.75000000E+00 0.0000E+00 0.9000E+01
       25  2    1    2    0    0 -.20057062E+02 0.25459801E+03 0.28852366E+03 0.48902507E+03 0.30112652E+03 0.0000E+00 0.0000E+00
       23  2    1    2    0    0 -.37843596E+03 0.19979994E+03 0.14363194E+03 0.46069541E+03 0.92066997E+02 0.0000E+00 0.0000E+00
       23  1    3    3    0    0 -.12633059E+03 0.15296507E+03 0.19281412E+03 0.29129069E+03 0.91188000E+02 0.0000E+00 0.9000E+01
      -11  1    4    4    0    0 -.34222819E+03 0.17943518E+03 0.97321213E+02 0.39848280E+03 0.51099893E-03 0.0000E+00 0.9000E+01
       11  1    4    4    0    0 -.36207774E+02 0.20364755E+02 0.46310725E+02 0.62212614E+02 0.51099893E-03 0.0000E+00 0.9000E+01
       23  1    3    3    0    0 0.10627353E+03 0.10163294E+03 0.95709539E+02 0.19773438E+03 0.91188000E+02 0.0000E+00 0.9000E+01
        2  1    1    2  502    0 0.39849303E+03 -.45439795E+03 0.17982684E+03 0.63056482E+03 0.32000000E+00 0.0000E+00 0.9000E+01
#aMCatNLO 2  0  0  2  1 0.60437918D+03 0.00000000D+00  -5  7  0 0.00000000D+00 0.00000000D+00 0.00000000D+00 0.00000000D+00 0.00000000D+00
  <mgrwgt>
 0.1355754590D-04    1    2    0
 0.295777085599688D+03 0.000000000000000D+00 0.000000000000000D+00 0.295777085599688D+03
 0.295777085599688D+03 0.000000000000000D+00 0.000000000000000D+00 -.295777085599688D+03
 0.124198531920108D+03 -.285164746244064D+02 0.414285299516839D+02 0.676794767130197D+02
 0.200284001753369D+03 -.176413610454653D+03 -.964166429122977D+01 -.943342870561533D+02
 0.260143655949477D+02 -.161857178226272D+02 -.246621216971131D+01 0.202160221954729D+02
 0.241057271930950D+03 0.221115802901686D+03 -.293206534907428D+02 0.643878814766065D+01
 0.000000000000000D+00 0.000000000000000D+00 -.000000000000000D+00 -.000000000000000D+00
 0.670828373255017D+03 0.000000000000000D+00 0.000000000000000D+00 0.670828373255017D+03
 0.791103561932153D+03 0.000000000000000D+00 0.000000000000000D+00 -.791103561932153D+03
 0.228590229263332D+03 -.126330588448738D+03 0.152965069295934D+03 0.676794767130197D+02
 0.397763846676751D+03 -.342228190608819D+03 0.179435184847641D+03 -.943342870561533D+02
 0.461997152323221D+02 -.362077737919363D+02 0.203647551218219D+02 0.202160221954729D+02
 0.173147414217702D+03 0.106273526799673D+03 0.101632943551907D+03 0.643878814766065D+01
 0.616230729797063D+03 0.398493026049821D+03 -.454397952817304D+03 -.120275188677136D+03
0.278126436868D-06 0.000000000000D+00 0.000000000000D+00 0.784810167051D-07 0.535211364784D-12  7 2 21 23 -11 11 23 2 2 0.16863597D+00 0.74484831D-01 0.50673459D+06 0.50673459D+06 0.50673459D+06 0.10681000D+01  1  2  1  4  7  2       -2 0.135575458986D-04 0.100000000000D+01
  </mgrwgt>
  </event>
  <event>
  8     66 0.55102590E-06 0.21258520E+03 0.75467711E-02 0.10163846E+00
        2 -1    0    0  501    0 0.00000000E+00 0.00000000E+00 0.10008198E+03 0.10008249E+03 0.32000000E+00 0.0000E+00 0.9000E+01
       -2 -1    0    0    0  501 0.00000000E+00 0.00000000E+00 -.76979620E+03 0.76979626E+03 0.32000000E+00 0.0000E+00 0.9000E+01
       25  2    1    2    0    0 0.11373122E+03 -.63979331E+02 -.22142167E+03 0.39440597E+03 0.29916612E+03 0.0000E+00 0.0000E+00
       23  2    1    2    0    0 -.11373122E+03 0.63979331E+02 -.44829255E+03 0.47547278E+03 0.89888870E+02 0.0000E+00 0.0000E+00
       23  1    3    3    0    0 0.13041472E+03 -.84988081E+02 -.23724451E+03 0.29804560E+03 0.91188000E+02 0.0000E+00 0.9000E+01
      -13  1    4    4    0    0 -.24103332E+02 -.16535989E+02 -.38519107E+02 0.48354341E+02 0.10565837E+00 0.0000E+00 0.9000E+01
       13  1    4    4    0    0 -.89627888E+02 0.80515320E+02 -.40977344E+03 0.42711844E+03 0.10565837E+00 0.0000E+00 0.9000E+01
       23  1    3    3    0    0 -.16683502E+02 0.21008750E+02 0.15822841E+02 0.96360368E+02 0.91188000E+02 0.0000E+00 0.9000E+01
#aMCatNLO 1  0  0  2  1 0.11827077D+03 0.00000000D+00  -5  7  0 0.00000000D+00 0.00000000D+00 0.00000000D+00 0.00000000D+00 0.00000000D+00
  <mgrwgt>
 0.2467347278D-03    4    2    0
 0.277566166968969D+03 0.000000000000000D+00 0.000000000000000D+00 0.277566166968969D+03
 0.277566166968969D+03 0.000000000000000D+00 0.000000000000000D+00 -.277566166968969D+03
 0.180817277079541D+03 0.130414722083089D+03 -.849880812655355D+02 -.121927295243023D+02
 0.293002352706198D+02 -.241032408543957D+02 -.165361217862908D+02 -.202342370689359D+01
 0.174931739919283D+03 -.896279793919726D+02 0.805154532202642D+02 -.126827444719333D+03
 0.170083081668493D+03 -.166835018367211D+02 0.210087498315620D+02 0.141043597950528D+03
 0.000000000000000D+00 -.000000000000000D+00 -.000000000000000D+00 0.000000000000000D+00
 0.476871792518774D+03 0.000000000000000D+00 0.000000000000000D+00 0.476871792518774D+03
 0.301907641918672D+03 0.000000000000000D+00 0.000000000000000D+00 -.301907641918672D+03
 0.186267724582757D+03 0.152868955501049D+03 -.535054545630952D+02 -.121927295243023D+02
 0.241077616269830D+02 -.208363254988409D+02 -.119556458157712D+02 -.202342370689359D+01
 0.181735426559671D+03 -.678109948451392D+02 0.111104606164203D+03 -.126827444719333D+03
 0.175480386254475D+03 0.445428024188358D+01 0.506456067267069D+02 0.141043597950528D+03
 0.211188135413560D+03 -.686759153989524D+02 -.962891125120435D+02 0.174964150600101D+03
0.994609256792D-05 0.000000000000D+00 0.000000000000D+00 0.508893888522D-07 0.000000000000D+00  7 2 -2 23 -13 13 23 21 0 0.15397272D-01 0.11843023D+00 0.45192469D+05 0.45192469D+05 0.45192469D+05 0.11511773D+01  1  2  2  2  7  2       -2 0.266181538894D-03 0.100000000000D+01
-.504768039919D-06 0.000000000000D+00 -.381956143271D-07 0.508893888522D-07 0.000000000000D+00  7 2 -2 23 -13 13 23 21 2 0.15397272D-01 0.11843023D+00 0.45192469D+05 0.45192469D+05 0.45192469D+05 0.11511773D+01  1  2  3  2  7  2       -2 -.179020066733D-04 0.100000000000D+01
0.633746582649D-06 0.000000000000D+00 0.000000000000D+00 0.508893888522D-07 0.000000000000D+00  7 2 -2 23 -13 13 23 21 2 0.15397272D-01 0.11843023D+00 0.45192469D+05 0.45192469D+05 0.45192469D+05 0.11511773D+01  1  2 15  2  7  2       -2 0.224763349787D-04 0.100000000000D+01
-.677304152733D-06 0.000000000000D+00 0.000000000000D+00 0.508893888522D-07 0.000000000000D+00  7 2 -2 23 -13 13 23 21 2 0.15397272D-01 0.11843023D+00 0.45192469D+05 0.45192469D+05 0.45192469D+05 0.11511773D+01  1  2  4  2  7  2       -2 -.240211394208D-04 0.100000000000D+01
  </mgrwgt>
  </event>
  <event>
  8     66 0.55102590E-06 0.39149899E+03 0.75467711E-02 0.96493487E-01
        2 -1    0    0  501    0 0.00000000E+00 0.00000000E+00 0.66427888E+03 0.66427896E+03 0.32000000E+00 0.0000E+00 0.9000E+01
       -2 -1    0    0    0  501 0.00000000E+00 0.00000000E+00 -.29786567E+03 0.29786584E+03 0.32000000E+00 0.0000E+00 0.9000E+01
       25  2    1    2    0    0 0.33977984E+03 -.76480056E+02 0.16787160E+02 0.46034081E+03 0.30055334E+03 0.0000E+00 0.0000E+00
       23  2    1    2    0    0 -.33977984E+03 0.76480056E+02 0.34962605E+03 0.50180399E+03 0.90935896E+02 0.0000E+00 0.0000E+00
       23  1    3    3    0    0 0.49200594E+02 0.27873614E+02 -.68502716E+02 0.12730086E+03 0.91188000E+02 0.0000E+00 0.9000E+01
      -11  1    4    4    0    0 -.83003663E+02 0.46779288E+02 0.55617404E+02 0.11032319E+03 0.51099893E-03 0.0000E+00 0.9000E+01
       11  1    4    4    0    0 -.25677618E+03 0.29700768E+02 0.29400864E+03 0.39148081E+03 0.51099893E-03 0.0000E+00 0.9000E+01
       23  1    3    3    0    0 0.29057925E+03 -.10435367E+03 0.85289876E+02 0.33303994E+03 0.91188000E+02 0.0000E+00 0.9000E+01
#aMCatNLO 1  0  0  2  1 0.66242278D+02 0.00000000D+00  -5  7  0 0.00000000D+00 0.00000000D+00 0.00000000D+00 0.00000000D+00 0.00000000D+00
  <mgrwgt>
 0.2877985185D-03    4    2    0
 0.444821306582387D+03 0.000000000000000D+00 0.000000000000000D+00 0.444821306582387D+03
 0.444821306582387D+03 0.000000000000000D+00 0.000000000000000D+00 -.444821306582387D+03
 0.165889271424336D+03 0.492005935741463D+02 0.278736139659917D+02 -.126516252972191D+03
 0.964071728163008D+02 -.830036632086746D+02 0.467792880813296D+02 0.147116644529773D+02
 0.302292820257484D+03 -.256776178547097D+03 0.297007682613539D+02 0.156731642225360D+03
 0.325053348666654D+03 0.290579248181625D+03 -.104353670308675D+03 -.449270537061461D+02
 0.000000000000000D+00 0.000000000000000D+00 0.000000000000000D+00 0.000000000000000D+00
 0.766979244632790D+03 0.000000000000000D+00 0.000000000000000D+00 0.766979244632790D+03
 0.449470950922258D+03 0.000000000000000D+00 0.000000000000000D+00 -.449470950922258D+03
 0.163432753155784D+03 0.461774871999599D+02 0.160090871024430D+02 -.126516252972191D+03
 0.948247631280079D+02 -.847591318422661D+02 0.398897505714334D+02 0.147116644529773D+02
 0.305707446889005D+03 -.262357492112325D+03 0.779626457138185D+01 0.156731642225360D+03
 0.328140422144382D+03 0.284583067833119D+03 -.127886366157886D+03 -.449270537061461D+02
 0.324344810237869D+03 0.163560689215130D+02 0.641912639126274D+02 0.317508293710532D+03
0.118465824645D-04 0.000000000000D+00 0.000000000000D+00 0.628798391495D-06 0.000000000000D+00  7 2 -2 23 -11 11 23 21 0 0.10219677D+00 0.45825507D-01 0.15327146D+06 0.15327146D+06 0.15327146D+06 0.11068132D+01  1  2  2  2  7  2       -2 0.291674479563D-03 0.100000000000D+01
-.645096372137D-06 0.000000000000D+00 -.454939959404D-07 0.628798391495D-06 0.000000000000D+00  7 2 -2 23 -11 11 23 21 2 0.10219677D+00 0.45825507D-01 0.15327146D+06 0.15327146D+06 0.15327146D+06 0.11068132D+01  1  2  3  2  7  2       -2 -.194571233296D-04 0.100000000000D+01
0.748792003583D-06 0.000000000000D+00 0.000000000000D+00 0.628798391495D-06 0.000000000000D+00  7 2 -2 23 -11 11 23 21 2 0.10219677D+00 0.45825507D-01 0.15327146D+06 0.15327146D+06 0.15327146D+06 0.11068132D+01  1  2 15  2  7  2       -2 0.225847470102D-04 0.100000000000D+01
-.232202213260D-06 0.000000000000D+00 0.000000000000D+00 0.628798391495D-06 0.000000000000D+00  7 2 -2 23 -11 11 23 21 2 0.10219677D+00 0.45825507D-01 0.15327146D+06 0.15327146D+06 0.15327146D+06 0.11068132D+01  1  2  4  2  7  2       -2 -.700358472927D-05 0.100000000000D+01
  </mgrwgt>
  </event>
  <event>
  8     66 0.55102590E-06 0.36508369E+03 0.75467711E-02 0.83035525E-01
        2 -1    0    0  501    0 0.00000000E+00 0.00000000E+00 0.84669274E+03 0.84669280E+03 0.32000000E+00 0.0000E+00 0.9000E+01
       -2 -1    0    0    0  501 0.00000000E+00 0.00000000E+00 -.17332877E+03 0.17332906E+03 0.32000000E+00 0.0000E+00 0.9000E+01
       25  2    1    2    0    0 0.41716034E+02 -.31358317E+03 0.40433605E+03 0.59479932E+03 0.30037304E+03 0.0000E+00 0.0000E+00
       23  2    1    2    0    0 -.41716034E+02 0.31358317E+03 0.26902792E+03 0.42522253E+03 0.91452447E+02 0.0000E+00 0.0000E+00
       23  1    3    3    0    0 -.70424585E+02 -.16437409E+03 0.30351859E+03 0.36389181E+03 0.91188000E+02 0.0000E+00 0.9000E+01
      -13  1    4    4    0    0 -.56754028E+02 0.25013907E+03 0.24781876E+03 0.35665771E+03 0.10565837E+00 0.0000E+00 0.9000E+01
       13  1    4    4    0    0 0.15037994E+02 0.63444102E+02 0.21209156E+02 0.68564822E+02 0.10565837E+00 0.0000E+00 0.9000E+01
       23  1    3    3    0    0 0.11214062E+03 -.14920909E+03 0.10081746E+03 0.23090752E+03 0.91188000E+02 0.0000E+00 0.9000E+01
#aMCatNLO 1  0  0  2  1 0.15275603D+04 0.00000000D+00  -5  7  0 0.00000000D+00 0.00000000D+00 0.00000000D+00 0.00000000D+00 0.00000000D+00
  <mgrwgt>
 0.2237782393D-03    5    2    0
 0.383087966665398D+03 0.000000000000000D+00 0.000000000000000D+00 0.383087966665398D+03
 0.383087966665398D+03 0.000000000000000D+00 0.000000000000000D+00 -.383087966665398D+03
 0.217703413524545D+03 -.704245843639536D+02 -.164374085657195D+03 0.842678040402420D+02
 0.257025337319880D+03 -.567541236720857D+02 0.250139320293387D+03 0.164716093255653D+02
 0.726412107622124D+02 0.150380899081415D+02 0.634438529833750D+02 -.320230990308358D+02
 0.218805971724159D+03 0.112140618127898D+03 -.149209087619567D+03 -.687163143349715D+02
 0.000000000000000D+00 0.000000000000000D+00 -.000000000000000D+00 -.000000000000000D+00
 0.139067970787338D+04 0.000000000000000D+00 0.000000000000000D+00 0.139067970787338D+04
 0.194239839528363D+04 0.000000000000000D+00 0.000000000000000D+00 -.194239839528363D+04
 0.527881791022900D+03 -.511902688441563D+03 -.346194846593740D+02 0.842678040402420D+02
 0.822479079539331D+03 -.695953453797852D+03 0.438006064470496D+03 0.164716093255653D+02
 0.168927270035264D+03 -.128000149392906D+03 0.105484147839483D+03 -.320230990308358D+02
 0.189648964976497D+03 -.129714920254463D+03 -.781254515523081D+02 -.687163143349715D+02
 0.162414099758302D+04 0.146557121188678D+04 -.430745276098297D+03 -.551718687410248D+03
0.450324827574D-05 0.000000000000D+00 0.000000000000D+00 0.470051081660D-06 0.000000000000D+00  7 2 -2 23 -13 13 23 21 0 0.13026045D+00 0.26665992D-01 0.13328610D+06 0.13328610D+06 0.13328610D+06 0.11116236D+01  1  2  2  2  7  2       -2 0.220285759169D-03 0.100000000000D+01
-.249475585757D-06 0.000000000000D+00 -.172936591113D-07 0.470051081660D-06 0.000000000000D+00  7 2 -2 23 -13 13 23 21 2 0.13026045D+00 0.26665992D-01 0.13328610D+06 0.13328610D+06 0.13328610D+06 0.11116236D+01  1  2  3  2  7  2       -2 -.150800957429D-04 0.100000000000D+01
0.284018525504D-06 0.000000000000D+00 0.000000000000D+00 0.470051081660D-06 0.000000000000D+00  7 2 -2 23 -13 13 23 21 2 0.13026045D+00 0.26665992D-01 0.13328610D+06 0.13328610D+06 0.13328610D+06 0.11116236D+01  1  2 15  2  7  2       -2 0.171681190541D-04 0.100000000000D+01
0.135071933198D-04 0.000000000000D+00 -.455637826634D-05 0.470051081660D-06 0.000000000000D+00  7 2 -2 23 -13 13 23 21 2 0.13026045D+00 0.38889159D+00 0.13328610D+06 0.13328610D+06 0.13328610D+06 0.11116236D+01  1  2  5  2  7  2       -2 0.513815126422D-06 0.100000000000D+01
0.310522049696D-05 0.000000000000D+00 -.138169739851D-05 0.470051081660D-06 0.000000000000D+00  7 2 21 23 -13 13 23 2 2 0.13026045D+00 0.38889159D+00 0.13328610D+06 0.13328610D+06 0.13328610D+06 0.11116236D+01  1  2  5  4  7  2       -2 0.890641696936D-06 0.100000000000D+01
  </mgrwgt>
  </event>
  <event>
  8     66 0.55102590E-06 0.17984901E+03 0.75467711E-02 0.98740551E-01
        2 -1    0    0  501    0 0.00000000E+00 0.00000000E+00 0.60319399E+03 0.60319408E+03 0.32000000E+00 0.0000E+00 0.9000E+01
       -2 -1    0    0    0  501 0.00000000E+00 0.00000000E+00 -.55613207E+03 0.55613216E+03 0.32000000E+00 0.0000E+00 0.9000E+01
       25  2    1    2    0    0 0.18324564E+02 0.74484278E+02 -.50621849E+03 0.59332830E+03 0.29982931E+03 0.0000E+00 0.0000E+00
       23  2    1    2    0    0 -.18324564E+02 -.74484278E+02 0.55328042E+03 0.56599793E+03 0.91382404E+02 0.0000E+00 0.0000E+00
       23  1    3    3    0    0 0.46588671E+01 0.11349283E+03 -.10436716E+03 0.17919286E+03 0.91188000E+02 0.0000E+00 0.9000E+01
      -11  1    4    4    0    0 -.15072128E+02 0.16802811E+02 0.55653460E+02 0.60056732E+02 0.51099893E-03 0.0000E+00 0.9000E+01
       11  1    4    4    0    0 -.32524359E+01 -.91287089E+02 0.49762696E+03 0.50594120E+03 0.51099893E-03 0.0000E+00 0.9000E+01
       23  1    3    3    0    0 0.13665696E+02 -.39008550E+02 -.40185133E+03 0.41413544E+03 0.91188000E+02 0.0000E+00 0.9000E+01
#aMCatNLO 1  0  0  2  1 0.24546919D+03 0.00000000D+00  -5  7  0 0.00000000D+00 0.00000000D+00 0.00000000D+00 0.00000000D+00 0.00000000D+00
  <mgrwgt>
 0.2961740315D-03    4    2    0
 0.579185310285386D+03 0.000000000000000D+00 0.000000000000000D+00 0.579185310285386D+03
 0.579185310285386D+03 0.000000000000000D+00 0.000000000000000D+00 -.579185310285386D+03
 0.183580887766329D+03 0.465886714196722D+01 0.113492828090303D+03 -.111733450399117D+03
 0.578452050687544D+02 -.150721277623663D+02 0.168028108247241D+02 0.532594053905006D+02
 0.486141148821117D+03 -.325243586084639D+01 -.912870885335375D+02 0.477482256953237D+03
 0.430803378914570D+03 0.136656964812455D+02 -.390085503814901D+02 -.419008211944621D+03
 0.000000000000000D+00 0.000000000000000D+00 0.000000000000000D+00 0.000000000000000D+00
 0.756776871974527D+03 0.000000000000000D+00 0.000000000000000D+00 0.756776871974527D+03
 0.683492028877572D+03 0.000000000000000D+00 0.000000000000000D+00 -.683492028877572D+03
 0.181079930382623D+03 -.324972388161071D+02 0.104566989889795D+03 -.111733450399117D+03
 0.614035922296902D+02 -.272226542990125D+02 0.138839464518141D+02 0.532594053905006D+02
 0.502125136756852D+03 -.103949096961213D+03 -.115476978220242D+03 0.477482256953237D+03
 0.439484925904236D+03 -.750099244205648D+02 -.603106815949252D+02 -.419008211944621D+03
 0.256175315578699D+03 0.238678914496898D+03 0.573367234735583D+02 0.732848430969552D+02
0.481155481569D-04 0.000000000000D+00 0.000000000000D+00 0.436463156808D-05 0.000000000000D+00  7 2 -2 23 -11 11 23 21 0 0.92799089D-01 0.85558793D-01 0.32345667D+05 0.32345667D+05 0.32345667D+05 0.11643145D+01  1  2  2  2  7  2       -2 0.376718755516D-03 0.100000000000D+01
0.177218718338D-05 0.000000000000D+00 -.184776374037D-06 0.436463156808D-05 0.000000000000D+00  7 2 -2 23 -11 11 23 21 2 0.92799089D-01 0.85558793D-01 0.32345667D+05 0.32345667D+05 0.32345667D+05 0.11643145D+01  1  2  3  2  7  2       -2 0.188097072848D-04 0.100000000000D+01
0.294433599391D-05 0.000000000000D+00 0.000000000000D+00 0.436463156808D-05 0.000000000000D+00  7 2 -2 23 -11 11 23 21 2 0.92799089D-01 0.85558793D-01 0.32345667D+05 0.32345667D+05 0.32345667D+05 0.11643145D+01  1  2 15  2  7  2       -2 0.312507046167D-04 0.100000000000D+01
-.123051754289D-04 0.000000000000D+00 0.000000000000D+00 0.436463156808D-05 0.000000000000D+00  7 2 -2 23 -11 11 23 21 2 0.92799089D-01 0.85558793D-01 0.32345667D+05 0.32345667D+05 0.32345667D+05 0.11643145D+01  1  2  4  2  7  2       -2 -.130605135888D-03 0.100000000000D+01
  </mgrwgt>
  </event>
  <event>
  8     66 0.55102590E-06 0.25403336E+03 0.75467711E-02 0.98386754E-01
        2 -1    0    0  501    0 0.00000000E+00 0.00000000E+00 0.11394963E+04 0.11394964E+04 0.32000000E+00 0.0000E+00 0.9000E+01
       -2 -1    0    0    0  501 0.00000000E+00 0.00000000E+00 -.77742722E+02 0.77743380E+02 0.32000000E+00 0.0000E+00 0.9000E+01
       25  2    1    2    0    0 -.96755094E+02 -.15547011E+03 0.44409420E+03 0.56602112E+03 0.29937895E+03 0.0000E+00 0.0000E+00
       23  2    1    2    0    0 0.96755094E+02 0.15547011E+03 0.61765943E+03 0.65121865E+03 0.95131786E+02 0.0000E+00 0.0000E+00
       23  1    3    3    0    0 0.52520199E+02 -.88553247E+02 0.86847605E+02 0.16265856E+03 0.91188000E+02 0.0000E+00 0.9000E+01
      -11  1    4    4    0    0 0.65405203E+02 0.11102726E+03 0.26817583E+03 0.29752844E+03 0.51099893E-03 0.0000E+00 0.9000E+01
       11  1    4    4    0    0 0.31349891E+02 0.44442846E+02 0.34948360E+03 0.35369021E+03 0.51099893E-03 0.0000E+00 0.9000E+01
       23  1    3    3    0    0 -.14927529E+03 -.66916863E+02 0.35724659E+03 0.40336257E+03 0.91188000E+02 0.0000E+00 0.9000E+01
#aMCatNLO 1  0  0  2  2 0.18471075D+03 0.00000000D+00  -5  7  0 0.00000000D+00 0.00000000D+00 0.00000000D+00 0.00000000D+00 0.00000000D+00
  <mgrwgt>
 0.2375534082D-03    4    2    0
 0.297637322844019D+03 0.000000000000000D+00 0.000000000000000D+00 0.297637322844019D+03
 0.297637322844019D+03 0.000000000000000D+00 0.000000000000000D+00 -.297637322844019D+03
 0.177705717065474D+03 0.525201985587846D+02 -.885532473049065D+02 -.112534535449595D+03
 0.130069012227320D+03 0.654052029965048D+02 0.111027264075544D+03 0.176933319269177D+02
 0.998872016976951D+02 0.313498913696757D+02 0.444428462119006D+02 0.837822821048156D+02
 0.187612714697550D+03 -.149275292924965D+03 -.669168629825380D+02 0.110589214178616D+02
 0.000000000000000D+00 -.000000000000000D+00 0.000000000000000D+00 0.000000000000000D+00
 0.441017155024178D+03 0.000000000000000D+00 0.000000000000000D+00 0.441017155024178D+03
 0.377562686815693D+03 0.000000000000000D+00 0.000000000000000D+00 -.377562686815693D+03
 0.217992752881651D+03 0.813536236469346D+02 -.141149407421985D+03 -.112534535449595D+03
 0.115733223442173D+03 0.833161146804018D+02 0.783552809209565D+02 0.176933319269177D+02
 0.971691100309555D+02 0.457088258460572D+02 0.182501613497480D+02 0.837822821048156D+02
 0.192378502594406D+03 -.121586410783453D+03 -.117425218272468D+03 0.110589214178616D+02
 0.195306252890685D+03 -.887921533899404D+02 0.161969183423749D+03 0.634544682084853D+02
0.252674715611D-05 0.000000000000D+00 0.000000000000D+00 0.210127392930D-07 0.000000000000D+00  7 2 -2 23 -11 11 23 21 0 0.17530718D+00 0.11960473D-01 0.64532946D+05 0.64532946D+05 0.64532946D+05 0.11376742D+01  1  2  2  2  7  2       -2 0.304840359186D-03 0.100000000000D+01
-.136091954741D-06 0.000000000000D+00 -.970337438726D-08 0.210127392930D-07 0.000000000000D+00  7 2 -2 23 -11 11 23 21 2 0.17530718D+00 0.11960473D-01 0.64532946D+05 0.64532946D+05 0.64532946D+05 0.11376742D+01  1  2  3  2  7  2       -2 -.212509780166D-04 0.100000000000D+01
0.161632364571D-06 0.000000000000D+00 0.000000000000D+00 0.210127392930D-07 0.000000000000D+00  7 2 -2 23 -11 11 23 21 2 0.17530718D+00 0.11960473D-01 0.64532946D+05 0.64532946D+05 0.64532946D+05 0.11376742D+01  1  2 15  2  7  2       -2 0.252391541646D-04 0.100000000000D+01
-.456448233642D-06 0.000000000000D+00 0.000000000000D+00 0.210127392930D-07 0.000000000000D+00  7 2 -2 23 -11 11 23 21 2 0.17530718D+00 0.11960473D-01 0.64532946D+05 0.64532946D+05 0.64532946D+05 0.11376742D+01  1  2  4  2  7  2       -2 -.712751271543D-04 0.100000000000D+01
  </mgrwgt>
  </event>
  <event>
  8     66 0.55102590E-06 0.26874812E+03 0.75467711E-02 0.10191043E+00
        2 -1    0    0  501    0 0.00000000E+00 0.00000000E+00 0.20094198E+04 0.20094199E+04 0.32000000E+00 0.0000E+00 0.9000E+01
       -2 -1    0    0    0  501 0.00000000E+00 0.00000000E+00 -.42931445E+02 0.42932637E+02 0.32000000E+00 0.0000E+00 0.9000E+01
       25  2    1    2    0    0 -.83306628E+02 0.17977766E+03 0.13872078E+04 0.14336277E+04 0.30279173E+03 0.0000E+00 0.0000E+00
       23  2    1    2    0    0 0.83306628E+02 -.17977766E+03 0.57928060E+03 0.61872483E+03 0.89411423E+02 0.0000E+00 0.0000E+00
       23  1    3    3    0    0 -.12438259E+03 0.59709647E+02 0.38083317E+03 0.41519324E+03 0.91188000E+02 0.0000E+00 0.9000E+01
      -13  1    4    4    0    0 -.33854265E+01 0.81841815E+01 0.12420403E+02 0.15255147E+02 0.10565837E+00 0.0000E+00 0.9000E+01
       13  1    4    4    0    0 0.86692054E+02 -.18796184E+03 0.56686020E+03 0.60346969E+03 0.10565837E+00 0.0000E+00 0.9000E+01
       23  1    3    3    0    0 0.41075958E+02 0.12006801E+03 0.10063746E+04 0.10184344E+04 0.91188000E+02 0.0000E+00 0.9000E+01
#aMCatNLO 1  0  0  2  2 0.13391828D+02 0.00000000D+00  -5  7  0 0.00000000D+00 0.00000000D+00 0.00000000D+00 0.00000000D+00 0.00000000D+00
  <mgrwgt>
 0.1999467706D-03    4    2    0
 0.293715077088815D+03 0.000000000000000D+00 0.000000000000000D+00 0.293715077088815D+03
 0.293715077088815D+03 0.000000000000000D+00 0.000000000000000D+00 -.293715077088815D+03
 0.175712583018189D+03 -.124382585924244D+03 0.597096470627535D+02 -.593581574289782D+02
 0.117191760269600D+02 -.338555191378229D+01 0.818445471210923D+01 -.767410099330157D+01
 0.210763234534173D+03 0.866921801062762D+02 -.187962112263664D+03 -.396969935021479D+02
 0.189235160598308D+03 0.410759577317504D+02 0.120068010488801D+03 0.106729251924428D+03
 0.000000000000000D+00 0.000000000000000D+00 -.000000000000000D+00 0.000000000000000D+00
 0.313572636901888D+03 0.000000000000000D+00 0.000000000000000D+00 0.313572636901888D+03
 0.296057945942836D+03 0.000000000000000D+00 0.000000000000000D+00 -.296057945942836D+03
 0.178871697068234D+03 -.128237390973565D+03 0.609230118346080D+02 -.593581574289782D+02
 0.118518621130157D+02 -.364180060257797D+01 0.826511329998604D+01 -.767410099330157D+01
 0.207646275656567D+03 0.821435094991813D+02 -.186530341628625D+03 -.396969935021479D+02
 0.189212948357163D+03 0.369617209670754D+02 0.121363035759718D+03 0.106729251924428D+03
 0.220477996497448D+02 0.127739611098860D+02 -.402081926568701D+01 0.175146909590516D+02
0.285795170691D-05 0.000000000000D+00 0.000000000000D+00 0.516193597908D-08 0.000000000000D+00  7 2 -2 23 -13 13 23 21 0 0.30914161D+00 0.66049314D-02 0.72225551D+05 0.72225551D+05 0.72225551D+05 0.11335059D+01  1  2  2  2  7  2       -2 0.289108711237D-03 0.100000000000D+01
-.157251610789D-06 0.000000000000D+00 -.109752870705D-07 0.516193597908D-08 0.000000000000D+00  7 2 -2 23 -13 13 23 21 2 0.30914161D+00 0.66049314D-02 0.72225551D+05 0.72225551D+05 0.72225551D+05 0.11335059D+01  1  2  3  2  7  2       -2 -.204384975616D-04 0.100000000000D+01
0.181123065983D-06 0.000000000000D+00 0.000000000000D+00 0.516193597908D-08 0.000000000000D+00  7 2 -2 23 -13 13 23 21 2 0.30914161D+00 0.66049314D-02 0.72225551D+05 0.72225551D+05 0.72225551D+05 0.11335059D+01  1  2 15  2  7  2       -2 0.235411473617D-04 0.100000000000D+01
-.709873875124D-06 0.000000000000D+00 0.000000000000D+00 0.516193597908D-08 0.000000000000D+00  7 2 -2 23 -13 13 23 21 2 0.30914161D+00 0.66049314D-02 0.72225551D+05 0.72225551D+05 0.72225551D+05 0.11335059D+01  1  2  4  2  7  2       -2 -.922645904418D-04 0.100000000000D+01
  </mgrwgt>
  </event>
  <event>
  8     66 0.55102590E-06 0.13964416E+03 0.75467711E-02 0.10298767E+00
        2 -1    0    0  501    0 0.00000000E+00 0.00000000E+00 0.17889665E+04 0.17889666E+04 0.32000000E+00 0.0000E+00 0.9000E+01
       -2 -1    0    0    0  501 0.00000000E+00 0.00000000E+00 -.62356291E+02 0.62357112E+02 0.32000000E+00 0.0000E+00 0.9000E+01
       25  2    1    2    0    0 -.30696155E+02 -.93237562E+02 0.36213023E+03 0.48015230E+03 0.29962047E+03 0.0000E+00 0.0000E+00
       23  2    1    2    0    0 0.30696155E+02 0.93237562E+02 0.13644800E+04 0.13711714E+04 0.93111446E+02 0.0000E+00 0.0000E+00
       23  1    3    3    0    0 -.91008032E+02 -.11588356E+02 0.48538298E+02 0.13815922E+03 0.91188000E+02 0.0000E+00 0.9000E+01
      -11  1    4    4    0    0 0.53593470E+02 0.95047649E+02 0.99182083E+03 0.99780503E+03 0.51099893E-03 0.0000E+00 0.9000E+01
       11  1    4    4    0    0 -.22897315E+02 -.18100867E+01 0.37265919E+03 0.37336636E+03 0.51099893E-03 0.0000E+00 0.9000E+01
       23  1    3    3    0    0 0.60311877E+02 -.81649206E+02 0.31359193E+03 0.34199308E+03 0.91188000E+02 0.0000E+00 0.9000E+01
#aMCatNLO 1  0  0  2  1 0.10329416D+03 0.00000000D+00  -5  7  0 0.00000000D+00 0.00000000D+00 0.00000000D+00 0.00000000D+00 0.00000000D+00
  <mgrwgt>
 0.1716424760D-03    9    2    0
 0.333997163716423D+03 0.000000000000000D+00 0.000000000000000D+00 0.333997163716423D+03
 0.333997163716423D+03 0.000000000000000D+00 0.000000000000000D+00 -.333997163716423D+03
 0.257443370050214D+03 -.910080324839712D+02 -.115883560700015D+02 -.222587253601374D+03
 0.201756306504792D+03 0.535934699490858D+02 0.950476487448220D+02 0.169703540509186D+03
 0.715347374145245D+02 -.228973147497862D+02 -.181008671610293D+01 0.677469941790363D+02
 0.137259913463316D+03 0.603118772846716D+02 -.816492059587175D+02 -.148632810868474D+02
 0.000000000000000D+00 0.000000000000000D+00 0.000000000000000D+00 -.000000000000000D+00
 0.364260938988028D+03 0.000000000000000D+00 0.000000000000000D+00 0.364260938988028D+03
 0.439412016555823D+03 0.000000000000000D+00 0.000000000000000D+00 -.439412016555823D+03
 0.268704135202419D+03 -.110030343467943D+03 -.472747182054409D+02 -.222587253601374D+03
 0.187285959694739D+03 0.395280550232787D+02 0.686605556597332D+02 0.169703540509186D+03
 0.742974306069284D+02 -.281697237679358D+02 -.117012664842384D+02 0.677469941790363D+02
 0.145645980159441D+03 0.500837115441412D+02 -.100837517352923D+03 -.148632810868474D+02
 0.127739449880323D+03 0.485883006684587D+02 0.911529463828691D+02 -.751510775677950D+02
0.273215379001D-05 0.000000000000D+00 0.000000000000D+00 0.132271112330D-06 0.000000000000D+00  7 2 -2 23 -11 11 23 21 0 0.27522569D+00 0.95933409D-02 0.39579085D+05 0.39579085D+05 0.39579085D+05 0.11563321D+01  1  2  2  2  7  2       -2 0.207780083487D-03 0.100000000000D+01
-.102247145187D-06 0.000000000000D+00 -.104921899462D-07 0.132271112330D-06 0.000000000000D+00  7 2 -2 23 -11 11 23 21 2 0.27522569D+00 0.95933409D-02 0.39579085D+05 0.39579085D+05 0.39579085D+05 0.11563321D+01  1  2  3  2  7  2       -2 -.103971703382D-04 0.100000000000D+01
0.167483786762D-06 0.000000000000D+00 0.000000000000D+00 0.132271112330D-06 0.000000000000D+00  7 2 -2 23 -11 11 23 21 2 0.27522569D+00 0.95933409D-02 0.39579085D+05 0.39579085D+05 0.39579085D+05 0.11563321D+01  1  2 15  2  7  2       -2 0.170308663060D-04 0.100000000000D+01
0.157145703126D-05 0.000000000000D+00 0.000000000000D+00 0.132271112330D-06 0.000000000000D+00  7 2 -2 23 -11 11 23 21 2 0.27522569D+00 0.12951363D-01 0.64625468D+05 0.64625468D+05 0.64625468D+05 0.11376208D+01  1  2 12  2  7  2       -2 0.964192376773D-04 0.100000000000D+01
-.272354359966D-05 0.000000000000D+00 0.000000000000D+00 0.132271112330D-06 0.000000000000D+00  7 2 -2 23 -11 11 23 21 2 0.27522569D+00 0.95933409D-02 0.39579085D+05 0.39579085D+05 0.39579085D+05 0.11563321D+01  1  2  4  2  7  2       -2 -.276948042680D-03 0.100000000000D+01
-.284519764344D-05 0.000000000000D+00 -.124080170369D-05 0.132271112330D-06 0.000000000000D+00  7 2 -2 23 -11 11 23 21 2 0.27522569D+00 0.13862575D-01 0.39579085D+05 0.39579085D+05 0.39579085D+05 0.11563321D+01  1  2  5  2  7  2       -2 -.163879171298D-03 0.100000000000D+01
0.316467732267D-05 0.000000000000D+00 0.116122730101D-05 0.132271112330D-06 0.000000000000D+00  7 2 -2 23 -11 11 23 21 2 0.27522569D+00 0.95933409D-02 0.39579085D+05 0.39579085D+05 0.39579085D+05 0.11563321D+01  1  2  6  2  7  2       -2 0.321805456075D-03 0.100000000000D+01
0.607643617000D-07 0.000000000000D+00 0.000000000000D+00 0.132271112330D-06 0.000000000000D+00  7 2 21 23 -11 11 23 2 2 0.27522569D+00 0.12951363D-01 0.64625468D+05 0.64625468D+05 0.64625468D+05 0.11376208D+01  1  2 12  4  7  2       -2 0.524001107181D-04 0.100000000000D+01
-.897416541937D-07 0.000000000000D+00 -.555933769676D-07 0.132271112330D-06 0.000000000000D+00  7 2 21 23 -11 11 23 2 2 0.27522569D+00 0.13862575D-01 0.39579085D+05 0.39579085D+05 0.39579085D+05 0.11563321D+01  1  2  5  4  7  2       -2 -.725688939900D-04 0.100000000000D+01
  </mgrwgt>
  </event>
  <event>
  8     66 0.55102590E-06 0.77826261E+03 0.75467711E-02 0.89490086E-01
        2 -1    0    0  501    0 0.00000000E+00 0.00000000E+00 0.26684854E+04 0.26684854E+04 0.32000000E+00 0.0000E+00 0.9000E+01
       -2 -1    0    0    0  501 0.00000000E+00 0.00000000E+00 -.28265103E+03 0.28265122E+03 0.32000000E+00 0.0000E+00 0.9000E+01
       25  2    1    2    0    0 0.43306912E+03 -.61454002E+03 0.18615621E+04 0.20299516E+04 0.30013635E+03 0.0000E+00 0.0000E+00
       23  2    1    2    0    0 -.43306912E+03 0.61454002E+03 0.52427224E+03 0.92118499E+03 0.92261081E+02 0.0000E+00 0.0000E+00
       23  1    3    3    0    0 0.19827383E+03 -.44448387E+03 0.13055691E+04 0.13963181E+04 0.91188000E+02 0.0000E+00 0.9000E+01
      -11  1    4    4    0    0 -.32872387E+02 0.13901241E+02 0.25100882E+02 0.43633618E+02 0.51099893E-03 0.0000E+00 0.9000E+01
       11  1    4    4    0    0 -.40019673E+03 0.60063878E+03 0.49917136E+03 0.87755137E+03 0.51099893E-03 0.0000E+00 0.9000E+01
       23  1    3    3    0    0 0.23479528E+03 -.17005615E+03 0.55599300E+03 0.63363348E+03 0.91188000E+02 0.0000E+00 0.9000E+01
#aMCatNLO 1  0  0  2  1 0.57402839D+02 0.00000000D+00  -5  7  0 0.00000000D+00 0.00000000D+00 0.00000000D+00 0.00000000D+00 0.00000000D+00
  <mgrwgt>
 0.2407992498D-03    4    2    0
 0.868475933851889D+03 0.000000000000000D+00 0.000000000000000D+00 0.868475933851889D+03
 0.868475933851889D+03 0.000000000000000D+00 0.000000000000000D+00 -.868475933851889D+03
 0.579091457338540D+03 0.198273834975487D+03 -.444483865169782D+03 0.300255299014553D+03
 0.396569536135642D+02 -.328723866536703D+02 0.139012408962465D+02 -.172868640054961D+02
 0.805338271068263D+03 -.400196729950995D+03 0.600638778660703D+03 -.357274916209812D+03
 0.312865185683412D+03 0.234795281629179D+03 -.170056154387168D+03 0.743064812007552D+02
 0.000000000000000D+00 -.000000000000000D+00 0.000000000000000D+00 0.000000000000000D+00
 0.938780505653058D+03 0.000000000000000D+00 0.000000000000000D+00 0.938780505653058D+03
 0.880746806434644D+03 0.000000000000000D+00 0.000000000000000D+00 -.880746806434644D+03
 0.595423443653536D+03 0.204508442716317D+03 -.462857297857194D+03 0.300255299014553D+03
 0.388944747895092D+02 -.324554167683488D+02 0.126724277232123D+02 -.172868640054961D+02
 0.782730872416406D+03 -.391766876769413D+03 0.575795942281082D+03 -.357274916209812D+03
 0.320851343393366D+03 0.238159201469052D+03 -.179969649720482D+03 0.743064812007552D+02
 0.816271778348844D+02 -.184453506476061D+02 0.543585775733820D+02 0.580336992184138D+02
0.196474950194D-03 0.000000000000D+00 0.000000000000D+00 0.314681694217D-05 0.000000000000D+00  7 2 -2 23 -11 11 23 21 0 0.41053623D+00 0.43484790D-01 0.60569269D+06 0.60569269D+06 0.60569269D+06 0.10626738D+01  1  2  2  2  7  2       -2 0.339182788131D-03 0.100000000000D+01
-.107556362620D-04 0.000000000000D+00 -.754515541788D-06 0.314681694217D-05 0.000000000000D+00  7 2 -2 23 -11 11 23 21 2 0.41053623D+00 0.43484790D-01 0.60569269D+06 0.60569269D+06 0.60569269D+06 0.10626738D+01  1  2  3  2  7  2       -2 -.209682718530D-04 0.100000000000D+01
0.126665400467D-04 0.000000000000D+00 0.000000000000D+00 0.314681694217D-05 0.000000000000D+00  7 2 -2 23 -11 11 23 21 2 0.41053623D+00 0.43484790D-01 0.60569269D+06 0.60569269D+06 0.60569269D+06 0.10626738D+01  1  2 15  2  7  2       -2 0.246936070231D-04 0.100000000000D+01
-.523765578165D-04 0.000000000000D+00 0.000000000000D+00 0.314681694217D-05 0.000000000000D+00  7 2 -2 23 -11 11 23 21 2 0.41053623D+00 0.43484790D-01 0.60569269D+06 0.60569269D+06 0.60569269D+06 0.10626738D+01  1  2  4  2  7  2       -2 -.102108873550D-03 0.100000000000D+01
  </mgrwgt>
  </event>
  <event>
  9     66 0.55102590E-06 0.41158605E+03 0.75467711E-02 0.91593120E-01
        2 -1    0    0  501    0 0.00000000E+00 0.00000000E+00 0.21539926E+04 0.21539927E+04 0.32000000E+00 0.0000E+00 0.9000E+01
       21 -1    0    0  502  501 0.00000000E+00 0.00000000E+00 -.23769808E+03 0.23769927E+03 0.75000000E+00 0.0000E+00 0.9000E+01
       25  2    1    2    0    0 0.24783858E+03 -.44297753E+00 0.83037266E+03 0.91671082E+03 0.29902478E+03 0.0000E+00 0.0000E+00
       23  2    1    2    0    0 -.41336796E+03 0.37957805E+03 0.75710003E+03 0.94652364E+03 0.88056628E+02 0.0000E+00 0.0000E+00
       23  1    3    3    0    0 0.14428027E+03 0.72436480E+02 0.22502749E+03 0.29157583E+03 0.91188000E+02 0.0000E+00 0.9000E+01
      -13  1    4    4    0    0 -.12336926E+01 0.87635290E+01 0.93896385E+00 0.89002390E+01 0.10565837E+00 0.0000E+00 0.9000E+01
       13  1    4    4    0    0 -.41213427E+03 0.37081452E+03 0.75616107E+03 0.93762340E+03 0.10565837E+00 0.0000E+00 0.9000E+01
       23  1    3    3    0    0 0.10355831E+03 -.72879458E+02 0.60534516E+03 0.62513499E+03 0.91188000E+02 0.0000E+00 0.9000E+01
        2  1    1    2  502    0 0.16552939E+03 -.37913507E+03 0.32882188E+03 0.52845748E+03 0.32000000E+00 0.0000E+00 0.9000E+01
#aMCatNLO 2  0  0  2  2 0.41369479D+03 0.00000000D+00  -5  7  0 0.00000000D+00 0.00000000D+00 0.00000000D+00 0.00000000D+00 0.00000000D+00
  <mgrwgt>
 0.7274634994D-04    1    2    0
 0.441709668133015D+03 0.000000000000000D+00 0.000000000000000D+00 0.441709668133015D+03
 0.441709668133015D+03 0.000000000000000D+00 0.000000000000000D+00 -.441709668133015D+03
 0.206548051297455D+03 0.179656077576423D+03 -.858968088568818D+01 -.446850906109911D+02
 0.130916414812845D+02 0.131032075533416D+01 0.293745349983707D+01 -.126903704882452D+02
 0.382398837945977D+03 -.328184886526322D+03 0.178532686819024D+03 -.815452712014544D+02
 0.281380805541313D+03 0.147218488194565D+03 -.172880459433173D+03 0.138920732300691D+03
 0.000000000000000D+00 0.000000000000000D+00 -.000000000000000D+00 -.000000000000000D+00
 0.608915851063282D+03 0.000000000000000D+00 0.000000000000000D+00 0.608915851063282D+03
 0.840840790557606D+03 0.000000000000000D+00 0.000000000000000D+00 -.840840790557606D+03
 0.190724533343229D+03 0.144280266381828D+03 0.724364803456706D+02 -.446850906109911D+02
 0.154711455968398D+02 -.123310107122116D+01 0.876300774265573D+01 -.126903704882452D+02
 0.560364678426480D+03 -.412134863055686D+03 0.370815043150578D+03 -.815452712014544D+02
 0.208925729350335D+03 0.103558311085965D+03 -.728794578919983D+02 0.138920732300691D+03
 0.474270554904004D+03 0.165529386659114D+03 -.379135073346906D+03 -.231924939494323D+03
0.118898416297D-05 0.000000000000D+00 0.000000000000D+00 0.392905243805D-07 0.289255579181D-12  7 2 21 23 -13 13 23 2 2 0.33138355D+00 0.36569026D-01 0.43454977D+06 0.43454977D+06 0.43454977D+06 0.10728435D+01  1  2  1  4  7  2       -2 0.727463499354D-04 0.100000000000D+01
  </mgrwgt>
  </event>
  <event>
  8     66 0.55102590E-06 0.20917493E+03 0.75467711E-02 0.10356978E+00
        2 -1    0    0  501    0 0.00000000E+00 0.00000000E+00 0.68948216E+03 0.68948224E+03 0.32000000E+00 0.0000E+00 0.9000E+01
       -2 -1    0    0    0  501 0.00000000E+00 0.00000000E+00 -.96463403E+02 0.96463934E+02 0.32000000E+00 0.0000E+00 0.9000E+01
       25  2    1    2    0    0 -.84253979E+02 -.87807537E+02 0.24384447E+03 0.40537839E+03 0.30010435E+03 0.0000E+00 0.0000E+00
       23  2    1    2    0    0 0.84253979E+02 0.87807537E+02 0.34917429E+03 0.38056777E+03 0.90001391E+02 0.0000E+00 0.0000E+00
       23  1    3    3    0    0 -.38753454E+02 -.12503942E+03 0.25015465E+03 0.29669730E+03 0.91188000E+02 0.0000E+00 0.9000E+01
      -13  1    4    4    0    0 -.11398158E+02 0.43373699E+02 0.84716625E+02 0.95854648E+02 0.10565837E+00 0.0000E+00 0.9000E+01
       13  1    4    4    0    0 0.95652138E+02 0.44433838E+02 0.26445766E+03 0.28471313E+03 0.10565837E+00 0.0000E+00 0.9000E+01
       23  1    3    3    0    0 -.45500525E+02 0.37231887E+02 -.63101777E+01 0.10868110E+03 0.91188000E+02 0.0000E+00 0.9000E+01
#aMCatNLO 1  0  0  2  2 0.63742418D+02 0.00000000D+00  -5  7  0 0.00000000D+00 0.00000000D+00 0.00000000D+00 0.00000000D+00 0.00000000D+00
  <mgrwgt>
 0.2107820519D-03    4    2    0
 0.257895392150146D+03 0.000000000000000D+00 0.000000000000000D+00 0.257895392150146D+03
 0.257895392150146D+03 0.000000000000000D+00 0.000000000000000D+00 -.257895392150146D+03
 0.164488603972893D+03 -.387534549382815D+02 -.125039423069482D+03 0.400569831833234D+02
 0.486592403844616D+02 -.113983049312798D+02 0.433736977078769D+02 0.188818078221366D+02
 0.129783036143190D+03 0.956522854003398D+02 0.444338402491732D+02 0.756300906316230D+02
 0.172859903799746D+03 -.455005255307785D+02 0.372318851124316D+02 -.134568881637083D+03
 0.000000000000000D+00 -.000000000000000D+00 -.000000000000000D+00 0.000000000000000D+00
 0.367707924045651D+03 0.000000000000000D+00 0.000000000000000D+00 0.367707924045651D+03
 0.269275621851130D+03 0.000000000000000D+00 0.000000000000000D+00 -.269275621851130D+03
 0.156267754744744D+03 -.200420938458661D+02 -.118735472380784D+03 0.400569831833234D+02
 0.494058704720497D+02 -.567766479451096D+01 0.453010098447046D+02 0.188818078221366D+02
 0.143725753967018D+03 0.111607453847076D+03 0.498092159164662D+02 0.756300906316230D+02
 0.170315185707258D+03 -.254813650584518D+02 0.439764399218537D+02 -.134568881637083D+03
 0.117268981005711D+03 -.604063301482475D+02 -.203511933022410D+02 0.984323021945216D+02
0.139276651383D-05 0.000000000000D+00 0.000000000000D+00 0.119018224689D-06 0.000000000000D+00  7 2 -2 23 -13 13 23 21 0 0.10607423D+00 0.14840570D-01 0.43754151D+05 0.43754151D+05 0.43754151D+05 0.11524279D+01  1  2  2  2  7  2       -2 0.231598537063D-03 0.100000000000D+01
-.732514222311D-07 0.000000000000D+00 -.534859013694D-08 0.119018224689D-06 0.000000000000D+00  7 2 -2 23 -13 13 23 21 2 0.10607423D+00 0.14840570D-01 0.43754151D+05 0.43754151D+05 0.43754151D+05 0.11524279D+01  1  2  3  2  7  2       -2 -.161771143011D-04 0.100000000000D+01
0.882068762440D-07 0.000000000000D+00 0.000000000000D+00 0.119018224689D-06 0.000000000000D+00  7 2 -2 23 -13 13 23 21 2 0.10607423D+00 0.14840570D-01 0.43754151D+05 0.43754151D+05 0.43754151D+05 0.11524279D+01  1  2 15  2  7  2       -2 0.194799319342D-04 0.100000000000D+01
-.109214362946D-06 0.000000000000D+00 0.000000000000D+00 0.119018224689D-06 0.000000000000D+00  7 2 -2 23 -13 13 23 21 2 0.10607423D+00 0.14840570D-01 0.43754151D+05 0.43754151D+05 0.43754151D+05 0.11524279D+01  1  2  4  2  7  2       -2 -.241193027914D-04 0.100000000000D+01
  </mgrwgt>
  </event>
  <event>
  8     66 0.55102590E-06 0.22414887E+03 0.75467711E-02 0.95944652E-01
        2 -1    0    0  501    0 0.00000000E+00 0.00000000E+00 0.11140890E+04 0.11140890E+04 0.32000000E+00 0.0000E+00 0.9000E+01
       -2 -1    0    0    0  501 0.00000000E+00 0.00000000E+00 -.14075695E+03 0.14075731E+03 0.32000000E+00 0.0000E+00 0.9000E+01
       25  2    1    2    0    0 -.53289230E+02 0.16386543E+03 0.10384335E+03 0.36116806E+03 0.29994551E+03 0.0000E+00 0.0000E+00
       23  2    1    2    0    0 0.53289230E+02 -.16386543E+03 0.86948866E+03 0.89367825E+03 0.11383615E+03 0.0000E+00 0.0000E+00
       23  1    3    3    0    0 -.22352873E+02 0.11784124E+03 -.62835825E+02 0.16324767E+03 0.91188000E+02 0.0000E+00 0.9000E+01
      -13  1    4    4    0    0 0.28154676E+02 -.16335281E+03 0.83322089E+03 0.84954923E+03 0.10565837E+00 0.0000E+00 0.9000E+01
       13  1    4    4    0    0 0.25134554E+02 -.51262230E+00 0.36267766E+02 0.44129022E+02 0.10565837E+00 0.0000E+00 0.9000E+01
       23  1    3    3    0    0 -.30936358E+02 0.46024192E+02 0.16667918E+03 0.19792040E+03 0.91188000E+02 0.0000E+00 0.9000E+01
#aMCatNLO 1  0  0  2  1 0.32956344D+03 0.00000000D+00  -5  7  0 0.00000000D+00 0.00000000D+00 0.00000000D+00 0.00000000D+00 0.00000000D+00
  <mgrwgt>
 0.3284433546D-03    3    2    0
 0.396000023315511D+03 0.000000000000000D+00 0.000000000000000D+00 0.396000023315511D+03
 0.396000023315511D+03 0.000000000000000D+00 0.000000000000000D+00 -.396000023315511D+03
 0.335872294490050D+03 -.223528771146140D+02 0.117841253472829D+03 -.300181169840252D+03
 0.322037050325995D+03 0.281547178875382D+02 -.163352947943724D+03 0.276099598046494D+03
 0.253463849936680D+02 0.251345181503289D+02 -.512501639763713D+00 0.322994917409882D+01
 0.108744316821310D+03 -.309363589232531D+02 0.460241961106591D+02 0.208516226196593D+02
 0.000000000000000D+00 0.000000000000000D+00 0.000000000000000D+00 0.000000000000000D+00
 0.861247332705985D+03 0.000000000000000D+00 0.000000000000000D+00 0.861247332705985D+03
 0.491722162361849D+03 0.000000000000000D+00 0.000000000000000D+00 -.491722162361849D+03
 0.367480514898218D+03 -.161948297280365D+03 0.101934742689565D+03 -.300181169840252D+03
 0.344860559217459D+03 -.104205387551896D+03 -.178435014690229D+03 0.276099598046494D+03
 0.170857409506699D+02 0.167129545045142D+02 -.147211544933594D+01 0.322994917409882D+01
 0.128405414481966D+03 -.780037992484980D+02 0.406609918867300D+02 0.208516226196593D+02
 0.495137265519522D+03 0.327444529576244D+03 0.373113955632696D+02 0.369525170344136D+03
0.655806142296D-05 0.000000000000D+00 0.000000000000D+00 0.515190593957D-08 0.000000000000D+00  7 2 -2 23 -13 13 23 21 0 0.17139833D+00 0.21654947D-01 0.50242717D+05 0.50242717D+05 0.50242717D+05 0.11471104D+01  1  2  2  2  7  2       -2 0.316790469192D-03 0.100000000000D+01
-.220864631327D-06 0.000000000000D+00 -.251846826414D-07 0.515190593957D-08 0.000000000000D+00  7 2 -2 23 -13 13 23 21 2 0.17139833D+00 0.21654947D-01 0.50242717D+05 0.50242717D+05 0.50242717D+05 0.11471104D+01  1  2  3  2  7  2       -2 -.140389061518D-04 0.100000000000D+01
0.404191608673D-06 0.000000000000D+00 0.000000000000D+00 0.515190593957D-08 0.000000000000D+00  7 2 -2 23 -13 13 23 21 2 0.17139833D+00 0.21654947D-01 0.50242717D+05 0.50242717D+05 0.50242717D+05 0.11471104D+01  1  2 15  2  7  2       -2 0.256917915168D-04 0.100000000000D+01
  </mgrwgt>
  </event>
  <event>
  8     66 0.55102590E-06 0.33232863E+03 0.75467711E-02 0.93721141E-01
        2 -1    0    0  501    0 0.00000000E+00 0.00000000E+00 0.57892145E+03 0.57892154E+03 0.32000000E+00 0.0000E+00 0.9000E+01
       -2 -1    0    0    0  501 0.00000000E+00 0.00000000E+00 -.26353404E+03 0.26353424E+03 0.32000000E+00 0.0000E+00 0.9000E+01
       25  2    1    2    0    0 -.19621846E+03 0.20444661E+03 0.49280406E+01 0.41228952E+03 0.29942991E+03 0.0000E+00 0.0000E+00
       23  2    1    2    0    0 0.19621846E+03 -.20444661E+03 0.31045937E+03 0.43016625E+03 0.91421489E+02 0.0000E+00 0.0000E+00
       23  1    3    3    0    0 -.17715555E+03 0.80831726E+02 -.87348112E+02 0.23208361E+03 0.91188000E+02 0.0000E+00 0.9000E+01
      -13  1    4    4    0    0 0.16802574E+03 -.20692004E+03 0.26025027E+03 0.37253022E+03 0.10565837E+00 0.0000E+00 0.9000E+01
       13  1    4    4    0    0 0.28192718E+02 0.24734366E+01 0.50209099E+02 0.57636030E+02 0.10565837E+00 0.0000E+00 0.9000E+01
       23  1    3    3    0    0 -.19062908E+02 0.12361488E+03 0.92276153E+02 0.18020592E+03 0.91188000E+02 0.0000E+00 0.9000E+01
#aMCatNLO 1  0  0  1  1 0.34236921D+03 0.00000000D+00  -5  7  0 0.00000000D+00 0.00000000D+00 0.00000000D+00 0.00000000D+00 0.00000000D+00
  <mgrwgt>
 0.1881107316D-03    5    2    0
 0.390596505782766D+03 0.000000000000000D+00 0.000000000000000D+00 0.390596505782766D+03
 0.390596505782766D+03 0.000000000000000D+00 0.000000000000000D+00 -.390596505782766D+03
 0.285548727373349D+03 -.177155548742119D+03 0.808317262888855D+02 -.187896162641966D+03
 0.296675525456805D+03 0.168025925490960D+03 -.206920323546029D+03 0.130259876675760D+03
 0.418849411873434D+02 0.281925308348688D+02 0.247371607710981D+01 0.308773417275845D+02
 0.157083817548036D+03 -.190629075837097D+02 0.123614881180034D+03 0.267589442386222D+02
 0.000000000000000D+00 0.000000000000000D+00 -.000000000000000D+00 0.000000000000000D+00
 0.968064618355416D+03 0.000000000000000D+00 0.000000000000000D+00 0.968064618355416D+03
 0.480568354258795D+03 0.000000000000000D+00 0.000000000000000D+00 -.480568354258795D+03
 0.394994158903989D+03 -.290561707371699D+03 0.167254478259736D+03 -.187896162641966D+03
 0.210379188569676D+03 0.835299613243034D+02 -.142528990289035D+03 0.130259876675760D+03
 0.365606040177370D+02 0.151203084625586D+02 0.124355862739485D+02 0.308773417275845D+02
 0.210989960179718D+03 -.803989880366488D+02 0.170356900589779D+03 0.267589442386222D+02
 0.595709060943091D+03 0.272310425621485D+03 -.207517974834429D+03 0.487496264096620D+03
0.590119716753D-05 0.000000000000D+00 0.000000000000D+00 0.385098299723D-06 0.000000000000D+00  7 2 -2 23 -13 13 23 21 0 0.89064861D-01 0.40543721D-01 0.11044232D+06 0.11044232D+06 0.11044232D+06 0.11181994D+01  1  2  2  1  7  1        2 0.216394352741D-03 0.100000000000D+01
-.317441083496D-06 0.000000000000D+00 -.226621509442D-07 0.385098299723D-06 0.000000000000D+00  7 2 -2 23 -13 13 23 21 2 0.89064861D-01 0.40543721D-01 0.11044232D+06 0.11044232D+06 0.11044232D+06 0.11181994D+01  1  2  3  1  7  1        2 -.145548394303D-04 0.100000000000D+01
0.374253343137D-06 0.000000000000D+00 0.000000000000D+00 0.385098299723D-06 0.000000000000D+00  7 2 -2 23 -13 13 23 21 2 0.89064861D-01 0.40543721D-01 0.11044232D+06 0.11044232D+06 0.11044232D+06 0.11181994D+01  1  2 15  1  7  1        2 0.171597111994D-04 0.100000000000D+01
-.276192816082D-05 0.000000000000D+00 -.181446772848D-05 0.385098299723D-06 0.000000000000D+00  7 2 -2 23 -13 13 23 21 2 0.24316106D+00 0.40543721D-01 0.11044232D+06 0.11044232D+06 0.11044232D+06 0.11181994D+01  1  2  5  1  7  1        2 -.301388091090D-04 0.100000000000D+01
-.205682550234D-06 0.000000000000D+00 -.203693027298D-06 0.385098299723D-06 0.000000000000D+00  7 21 -2 23 -13 13 23 -2 2 0.24316106D+00 0.40543721D-01 0.11044232D+06 0.11044232D+06 0.11044232D+06 0.11181994D+01  1  2  5  3  7  1        2 -.749683828757D-06 0.100000000000D+01
  </mgrwgt>
  </event>
  <event>
  8     66 0.55102590E-06 0.49577127E+03 0.75467711E-02 0.87566344E-01
        2 -1    0    0  501    0 0.00000000E+00 0.00000000E+00 0.23715879E+04 0.23715880E+04 0.32000000E+00 0.0000E+00 0.9000E+01
       -2 -1    0    0    0  501 0.00000000E+00 0.00000000E+00 -.42640344E+03 0.42640356E+03 0.32000000E+00 0.0000E+00 0.9000E+01
       25  2    1    2    0    0 -.64699032E+03 -.47724684E+03 0.17743901E+04 0.19710545E+04 0.30039069E+03 0.0000E+00 0.0000E+00
       23  2    1    2    0    0 0.64699032E+03 0.47724684E+03 0.17079442E+03 0.82693704E+03 0.91066565E+02 0.0000E+00 0.0000E+00
       23  1    3    3    0    0 -.10016316E+03 -.10898093E+03 0.55844497E+03 0.58488079E+03 0.91188000E+02 0.0000E+00 0.9000E+01
      -11  1    4    4    0    0 0.54132065E+03 0.40741269E+03 0.10976143E+03 0.68633864E+03 0.51099893E-03 0.0000E+00 0.9000E+01
       11  1    4    4    0    0 0.10566966E+03 0.69834148E+02 0.61032985E+02 0.14059840E+03 0.51099893E-03 0.0000E+00 0.9000E+01
       23  1    3    3    0    0 -.54682716E+03 -.36826591E+03 0.12159451E+04 0.13861737E+04 0.91188000E+02 0.0000E+00 0.9000E+01
#aMCatNLO 1  0  0  2  1 0.29495322D+03 0.00000000D+00  -5  7  0 0.00000000D+00 0.00000000D+00 0.00000000D+00 0.00000000D+00 0.00000000D+00
  <mgrwgt>
 0.2393735423D-03    9    2    0
 0.100561097854026D+04 0.000000000000000D+00 0.000000000000000D+00 0.100561097854026D+04
 0.100561097854026D+04 0.000000000000000D+00 0.000000000000000D+00 -.100561097854026D+04
 0.273571487211841D+03 -.100163158224654D+03 -.108980927412025D+03 0.211226434108462D+03
 0.848669851379519D+03 0.541320654878797D+03 0.407412691364760D+03 -.511104063921476D+03
 0.136570067219324D+03 0.105669660337681D+03 0.698341476067087D+02 -.510734566331100D+02
 0.752410551269840D+03 -.546827156991824D+03 -.368265911559443D+03 0.350951086446125D+03
 0.000000000000000D+00 0.000000000000000D+00 -.000000000000000D+00 -.000000000000000D+00
 0.108142280788914D+04 0.000000000000000D+00 0.000000000000000D+00 0.108142280788914D+04
 0.135068811639146D+04 0.000000000000000D+00 0.000000000000000D+00 -.135068811639146D+04
 0.282749221997764D+03 -.136679832097135D+03 -.912901321505438D+02 0.211226434108462D+03
 0.812353116981542D+03 0.432291756572067D+03 0.460232614785628D+03 -.511104063921476D+03
 0.128549614644051D+03 0.882673080622542D+02 0.782648566096105D+02 -.510734566331100D+02
 0.809082944191735D+03 -.649322979606056D+03 -.318610989006600D+03 0.350951086446125D+03
 0.399376026465499D+03 0.265443747068870D+03 -.128596350238095D+03 -.269265308502321D+03
0.177268557601D-03 0.000000000000D+00 0.000000000000D+00 0.754814718697D-05 0.000000000000D+00  7 2 -2 23 -11 11 23 21 0 0.36485969D+00 0.65600539D-01 0.67532804D+06 0.67532804D+06 0.67532804D+06 0.10594047D+01  1  2  2  2  7  2       -2 0.196942058431D-03 0.100000000000D+01
-.936027547856D-05 0.000000000000D+00 -.680757937070D-06 0.754814718697D-05 0.000000000000D+00  7 2 -2 23 -11 11 23 21 2 0.36485969D+00 0.65600539D-01 0.67532804D+06 0.67532804D+06 0.67532804D+06 0.10594047D+01  1  2  3  2  7  2       -2 -.116712987457D-04 0.100000000000D+01
0.112210782671D-04 0.000000000000D+00 0.000000000000D+00 0.754814718697D-05 0.000000000000D+00  7 2 -2 23 -11 11 23 21 2 0.36485969D+00 0.65600539D-01 0.67532804D+06 0.67532804D+06 0.67532804D+06 0.10594047D+01  1  2 15  2  7  2       -2 0.139915280275D-04 0.100000000000D+01
0.181031122773D-03 0.000000000000D+00 0.000000000000D+00 0.754814718697D-05 0.000000000000D+00  7 2 -2 23 -11 11 23 21 2 0.36485969D+00 0.89941503D-01 0.96168422D+06 0.96168422D+06 0.96168422D+06 0.10489953D+01  1  2 12  2  7  2       -2 0.106337129489D-03 0.100000000000D+01
-.208166258278D-03 0.000000000000D+00 0.000000000000D+00 0.754814718697D-05 0.000000000000D+00  7 2 -2 23 -11 11 23 21 2 0.36485969D+00 0.65600539D-01 0.67532804D+06 0.67532804D+06 0.67532804D+06 0.10594047D+01  1  2  4  2  7  2       -2 -.259561868099D-03 0.100000000000D+01
-.270152783779D-03 0.000000000000D+00 -.779903844919D-04 0.754814718697D-05 0.000000000000D+00  7 2 -2 23 -11 11 23 21 2 0.36485969D+00 0.93517283D-01 0.67532804D+06 0.67532804D+06 0.67532804D+06 0.10594047D+01  1  2  5  2  7  2       -2 -.151360109079D-03 0.100000000000D+01
0.284398628569D-03 0.000000000000D+00 0.733324192105D-04 0.754814718697D-05 0.000000000000D+00  7 2 -2 23 -11 11 23 21 2 0.36485969D+00 0.65600539D-01 0.67532804D+06 0.67532804D+06 0.67532804D+06 0.10594047D+01  1  2  6  2  7  2       -2 0.354615776480D-03 0.100000000000D+01
0.725809653797D-05 0.000000000000D+00 0.000000000000D+00 0.754814718697D-05 0.000000000000D+00  7 2 21 23 -11 11 23 2 2 0.36485969D+00 0.89941503D-01 0.96168422D+06 0.96168422D+06 0.96168422D+06 0.10489953D+01  1  2 12  4  7  2       -2 0.386442536510D-04 0.100000000000D+01
-.953236573041D-05 0.000000000000D+00 -.340072714179D-05 0.754814718697D-05 0.000000000000D+00  7 2 21 23 -11 11 23 2 2 0.36485969D+00 0.93517283D-01 0.67532804D+06 0.67532804D+06 0.67532804D+06 0.10594047D+01  1  2  5  4  7  2       -2 -.485639278763D-04 0.100000000000D+01
  </mgrwgt>
  </event>
  <event>
  8     66 0.55102590E-06 0.75274895E+02 0.75467711E-02 0.99171903E-01
        2 -1    0    0  501    0 0.00000000E+00 0.00000000E+00 0.12710251E+04 0.12710251E+04 0.32000000E+00 0.0000E+00 0.9000E+01
       -2 -1    0    0    0  501 0.00000000E+00 0.00000000E+00 -.23638376E+03 0.23638398E+03 0.32000000E+00 0.0000E+00 0.9000E+01
       25  2    1    2    0    0 0.14971138E+03 -.25555661E+02 -.10627167E+03 0.35289867E+03 0.30029522E+03 0.0000E+00 0.0000E+00
       23  2    1    2    0    0 -.14971138E+03 0.25555661E+02 0.11409130E+04 0.11545104E+04 0.90251253E+02 0.0000E+00 0.0000E+00
       23  1    3    3    0    0 0.13262222E+03 -.12118875E+03 -.45976048E+02 0.20665046E+03 0.91188000E+02 0.0000E+00 0.9000E+01
      -13  1    4    4    0    0 -.64181773E+02 0.32088882E+02 0.26962466E+03 0.27900980E+03 0.10565837E+00 0.0000E+00 0.9000E+01
       13  1    4    4    0    0 -.85529609E+02 -.65332207E+01 0.87128833E+03 0.87550063E+03 0.10565837E+00 0.0000E+00 0.9000E+01
       23  1    3    3    0    0 0.17089165E+02 0.95633087E+02 -.60295617E+02 0.14624821E+03 0.91188000E+02 0.0000E+00 0.9000E+01
#aMCatNLO 1  0  0  1  2 0.15080379D+03 0.00000000D+00  -5  7  0 0.00000000D+00 0.00000000D+00 0.00000000D+00 0.00000000D+00 0.00000000D+00
  <mgrwgt>
 0.2688579901D-03    9    2    0
 0.548133088636981D+03 0.000000000000000D+00 0.000000000000000D+00 0.548133088636981D+03
 0.548133088636981D+03 0.000000000000000D+00 0.000000000000000D+00 -.548133088636981D+03
 0.327544088839454D+03 0.132622216307164D+03 -.121188748681812D+03 -.258252809712460D+03
 0.129180952302197D+03 -.641817433284901D+02 0.320889349313671D+02 0.107418445883325D+03
 0.381537897335884D+03 -.855296382991859D+02 -.653327362518762D+01 0.371770311363934D+03
 0.258003238796428D+03 0.170891653205122D+02 0.956330873756330D+02 -.220935947534799D+03
 0.000000000000000D+00 0.000000000000000D+00 -.000000000000000D+00 0.000000000000000D+00
 0.639860323098364D+03 0.000000000000000D+00 0.000000000000000D+00 0.639860323098364D+03
 0.618973053353416D+03 0.000000000000000D+00 0.000000000000000D+00 -.618973053353416D+03
 0.306020136766709D+03 0.103432171855743D+03 -.891086127349017D+02 -.258252809712460D+03
 0.139604290420759D+03 -.765654178888117D+02 0.456987108287137D+02 0.107418445883325D+03
 0.392384469020136D+03 -.121186367897936D+03 0.326538106854870D+02 0.371770311363934D+03
 0.268581052542924D+03 -.717201965550052D+01 0.122296359970470D+03 -.220935947534799D+03
 0.152243427701252D+03 0.101491633586505D+03 -.111540268749769D+03 0.208872697449482D+02
0.164585107302D-04 0.000000000000D+00 0.000000000000D+00 0.156878409327D-05 0.000000000000D+00  7 2 -2 23 -13 13 23 21 0 0.19554234D+00 0.36366752D-01 0.60576713D+05 0.60576713D+05 0.60576713D+05 0.11400366D+01  1  2  2  1  7  1        2 0.263853943718D-03 0.100000000000D+01
-.201634821787D-06 0.000000000000D+00 -.632050148294D-07 0.156878409327D-05 0.000000000000D+00  7 2 -2 23 -13 13 23 21 2 0.19554234D+00 0.36366752D-01 0.60576713D+05 0.60576713D+05 0.60576713D+05 0.11400366D+01  1  2  3  1  7  1        2 -.420122709228D-05 0.100000000000D+01
0.100846554099D-05 0.000000000000D+00 0.000000000000D+00 0.156878409327D-05 0.000000000000D+00  7 2 -2 23 -13 13 23 21 2 0.19554234D+00 0.36366752D-01 0.60576713D+05 0.60576713D+05 0.60576713D+05 0.11400366D+01  1  2 15  1  7  1        2 0.210122076876D-04 0.100000000000D+01
0.449967495860D-05 0.000000000000D+00 0.000000000000D+00 0.156878409327D-05 0.000000000000D+00  7 2 -2 23 -13 13 23 21 2 0.23907136D+00 0.36366752D-01 0.11640852D+06 0.11640852D+06 0.11640852D+06 0.11163471D+01  1  2 12  1  7  1        2 0.616855054436D-04 0.100000000000D+01
-.107445359419D-04 0.000000000000D+00 0.000000000000D+00 0.156878409327D-05 0.000000000000D+00  7 2 -2 23 -13 13 23 21 2 0.19554234D+00 0.36366752D-01 0.60576713D+05 0.60576713D+05 0.60576713D+05 0.11400366D+01  1  2  4  1  7  1        2 -.223871229647D-03 0.100000000000D+01
-.162892335498D-04 0.000000000000D+00 -.920510421006D-05 0.156878409327D-05 0.000000000000D+00  7 2 -2 23 -13 13 23 21 2 0.24562994D+00 0.36366752D-01 0.60576713D+05 0.60576713D+05 0.60576713D+05 0.11400366D+01  1  2  5  1  7  1        2 -.226573543119D-03 0.100000000000D+01
0.181487579718D-04 0.000000000000D+00 0.897082133175D-05 0.156878409327D-05 0.000000000000D+00  7 2 -2 23 -13 13 23 21 2 0.19554234D+00 0.36366752D-01 0.60576713D+05 0.60576713D+05 0.60576713D+05 0.11400366D+01  1  2  6  1  7  1        2 0.378144275908D-03 0.100000000000D+01
0.129252336917D-06 0.000000000000D+00 0.000000000000D+00 0.156878409327D-05 0.000000000000D+00  7 21 -2 23 -13 13 23 -2 2 0.23907136D+00 0.36366752D-01 0.11640852D+06 0.11640852D+06 0.11640852D+06 0.11163471D+01  1  2 12  3  7  1        2 0.609074151527D-06 0.100000000000D+01
-.382411523394D-06 0.000000000000D+00 -.290964989785D-06 0.156878409327D-05 0.000000000000D+00  7 21 -2 23 -13 13 23 -2 2 0.24562994D+00 0.36366752D-01 0.60576713D+05 0.60576713D+05 0.60576713D+05 0.11400366D+01  1  2  5  3  7  1        2 -.180101698295D-05 0.100000000000D+01
  </mgrwgt>
  </event>
  <event>
  8     66 0.55102590E-06 0.37555797E+03 0.75467711E-02 0.90090453E-01
        2 -1    0    0  501    0 0.00000000E+00 0.00000000E+00 0.29968653E+03 0.29968670E+03 0.32000000E+00 0.0000E+00 0.9000E+01
       -2 -1    0    0    0  501 0.00000000E+00 0.00000000E+00 -.55852669E+03 0.55852678E+03 0.32000000E+00 0.0000E+00 0.9000E+01
       25  2    1    2    0    0 -.26938665E+03 0.16593895E+03 -.29637858E+03 0.52691483E+03 0.29948970E+03 0.0000E+00 0.0000E+00
       23  2    1    2    0    0 0.26938665E+03 -.16593895E+03 0.37538411E+02 0.33129865E+03 0.90800665E+02 0.0000E+00 0.0000E+00
       23  1    3    3    0    0 -.21959553E+03 0.20538936E+03 -.26606891E+03 0.41172187E+03 0.91188000E+02 0.0000E+00 0.9000E+01
      -11  1    4    4    0    0 0.21651292E+03 -.16613367E+03 0.48807227E+02 0.27723706E+03 0.51099893E-03 0.0000E+00 0.9000E+01
       11  1    4    4    0    0 0.52873732E+02 0.19472444E+00 -.11268815E+02 0.54061591E+02 0.51099893E-03 0.0000E+00 0.9000E+01
       23  1    3    3    0    0 -.49791121E+02 -.39450409E+02 -.30309662E+02 0.11519296E+03 0.91188000E+02 0.0000E+00 0.9000E+01
#aMCatNLO 1  0  0  1  2 0.57891188D+03 0.00000000D+00  -5  7  0 0.00000000D+00 0.00000000D+00 0.00000000D+00 0.00000000D+00 0.00000000D+00
  <mgrwgt>
 0.2613118501D-03    3    2    0
 0.409124719752630D+03 0.000000000000000D+00 0.000000000000000D+00 0.409124719752630D+03
 0.409124719752630D+03 0.000000000000000D+00 0.000000000000000D+00 -.409124719752630D+03
 0.347664082475142D+03 -.219595527165749D+03 0.205389356741236D+03 -.148822308426862D+03
 0.306216952519621D+03 0.216512916707818D+03 -.166133672620326D+03 0.138890538665380D+03
 0.531372976377028D+02 0.528737316159910D+02 0.194724444560393D+00 0.528232786076885D+01
 0.111231106872796D+03 -.497911211580604D+02 -.394504085654709D+02 0.464944190071346D+01
 0.000000000000000D+00 0.000000000000000D+00 0.000000000000000D+00 -.000000000000000D+00
 0.650383650627716D+03 0.000000000000000D+00 0.000000000000000D+00 0.650383650627716D+03
 0.106266147438957D+04 0.000000000000000D+00 0.000000000000000D+00 -.106266147438957D+04
 0.321515125119065D+03 -.270012692078033D+03 -.133827037681490D+01 -.148822308426862D+03
 0.453005161235087D+03 0.159311757317589D+03 -.400677998341872D+03 0.138890538665380D+03
 0.560944648709419D+02 0.446440141926767D+02 -.335499329104063D+02 0.528232786076885D+01
 0.171718080373753D+03 -.711090217642259D+02 -.126861095285329D+03 0.464944190071346D+01
 0.710712293418439D+03 0.137165942331993D+03 0.562427296914422D+03 -.412277823761854D+03
0.160077404379D-04 0.000000000000D+00 0.000000000000D+00 0.390411265252D-06 0.000000000000D+00  7 2 -2 23 -11 11 23 21 0 0.46105640D-01 0.85927203D-01 0.14104379D+06 0.14104379D+06 0.14104379D+06 0.11096680D+01  1  2  2  1  7  1        2 0.258339194786D-03 0.100000000000D+01
-.881394636819D-06 0.000000000000D+00 -.614739382165D-07 0.390411265252D-06 0.000000000000D+00  7 2 -2 23 -11 11 23 21 2 0.46105640D-01 0.85927203D-01 0.14104379D+06 0.14104379D+06 0.14104379D+06 0.11096680D+01  1  2  3  1  7  1        2 -.175152698821D-04 0.100000000000D+01
0.103098311054D-05 0.000000000000D+00 0.000000000000D+00 0.390411265252D-06 0.000000000000D+00  7 2 -2 23 -11 11 23 21 2 0.46105640D-01 0.85927203D-01 0.14104379D+06 0.14104379D+06 0.14104379D+06 0.11096680D+01  1  2 15  1  7  1        2 0.204879252388D-04 0.100000000000D+01
  </mgrwgt>
  </event>
  <event>
  8     66 0.55102590E-06 0.22584857E+03 0.75467711E-02 0.96105636E-01
        2 -1    0    0  501    0 0.00000000E+00 0.00000000E+00 0.35990582E+03 0.35990596E+03 0.32000000E+00 0.0000E+00 0.9000E+01
       -2 -1    0    0    0  501 0.00000000E+00 0.00000000E+00 -.20456935E+03 0.20456960E+03 0.32000000E+00 0.0000E+00 0.9000E+01
       25  2    1    2    0    0 0.40358855E+02 0.11077884E+03 -.34049372E+02 0.32323064E+03 0.29902825E+03 0.0000E+00 0.0000E+00
       23  2    1    2    0    0 -.40358855E+02 -.11077884E+03 0.18938584E+03 0.24124492E+03 0.91822256E+02 0.0000E+00 0.0000E+00
       23  1    3    3    0    0 -.82971642E+02 0.20847564E+02 -.67828118E+02 0.14224914E+03 0.91188000E+02 0.0000E+00 0.9000E+01
      -13  1    4    4    0    0 -.29478354E+02 0.72280232E+01 0.30475607E+02 0.43011527E+02 0.10565837E+00 0.0000E+00 0.9000E+01
       13  1    4    4    0    0 -.10880501E+02 -.11800686E+03 0.15891023E+03 0.19823339E+03 0.10565837E+00 0.0000E+00 0.9000E+01
       23  1    3    3    0    0 0.12333050E+03 0.89931275E+02 0.33778746E+02 0.18098149E+03 0.91188000E+02 0.0000E+00 0.9000E+01
#aMCatNLO 1  0  0  2  1 0.32807694D+03 0.00000000D+00  -5  7  0 0.00000000D+00 0.00000000D+00 0.00000000D+00 0.00000000D+00 0.00000000D+00
  <mgrwgt>
 0.1942958030D-03    5    2    0
 0.271340761797435D+03 0.000000000000000D+00 0.000000000000000D+00 0.271340761797435D+03
 0.271340761797435D+03 0.000000000000000D+00 0.000000000000000D+00 -.271340761797435D+03
 0.167376889004586D+03 -.829716405792384D+02 0.208475653572079D+02 -.111269301728375D+03
 0.360154009365388D+02 -.294783780146919D+02 0.722818811259997D+01 0.193878217149692D+02
 0.160708328811704D+03 -.108804771357399D+02 -.118007028905049D+03 0.108550095788775D+03
 0.178580904842042D+03 0.123330495729670D+03 0.899312754352416D+02 -.166686157753695D+02
 0.000000000000000D+00 0.000000000000000D+00 -.000000000000000D+00 -.000000000000000D+00
 0.360461307924498D+03 0.000000000000000D+00 0.000000000000000D+00 0.360461307924498D+03
 0.937233621493088D+03 0.000000000000000D+00 0.000000000000000D+00 -.937233621493088D+03
 0.239262080164156D+03 -.161023077490320D+03 0.103062130139568D+03 -.111269301728375D+03
 0.575243543021712D+02 -.474326639003187D+02 0.261401243751764D+02 0.193878217149692D+02
 0.140583850199715D+03 -.687113523958864D+02 -.570915553576193D+02 0.108550095788775D+03
 0.196773005439425D+03 0.512840017412783D+02 0.165820604085251D+03 -.166686157753695D+02
 0.663551639312120D+03 0.225883092045247D+03 -.237931303242376D+03 -.576772313568590D+03
0.204007977026D-05 0.000000000000D+00 0.000000000000D+00 0.754617476950D-07 0.000000000000D+00  7 2 -2 23 -13 13 23 21 0 0.55370156D-01 0.31472238D-01 0.51007576D+05 0.51007576D+05 0.51007576D+05 0.11465340D+01  1  2  2  2  7  2       -2 0.200640471870D-03 0.100000000000D+01
-.108697112529D-06 0.000000000000D+00 -.783444348313D-08 0.754617476950D-07 0.000000000000D+00  7 2 -2 23 -13 13 23 21 2 0.55370156D-01 0.31472238D-01 0.51007576D+05 0.51007576D+05 0.51007576D+05 0.11465340D+01  1  2  3  2  7  2       -2 -.140528138840D-04 0.100000000000D+01
0.130378440289D-06 0.000000000000D+00 0.000000000000D+00 0.754617476950D-07 0.000000000000D+00  7 2 -2 23 -13 13 23 21 2 0.55370156D-01 0.31472238D-01 0.51007576D+05 0.51007576D+05 0.51007576D+05 0.11465340D+01  1  2 15  2  7  2       -2 0.168558659310D-04 0.100000000000D+01
-.570857350083D-06 0.000000000000D+00 -.759779322209D-06 0.754617476950D-07 0.000000000000D+00  7 2 -2 23 -13 13 23 21 2 0.55370156D-01 0.13195137D+00 0.51007576D+05 0.51007576D+05 0.51007576D+05 0.11465340D+01  1  2  5  2  7  2       -2 -.357737068797D-05 0.100000000000D+01
-.953580908716D-07 0.000000000000D+00 -.130713455437D-06 0.754617476950D-07 0.000000000000D+00  7 2 21 23 -13 13 23 2 2 0.55370156D-01 0.13195137D+00 0.51007576D+05 0.51007576D+05 0.51007576D+05 0.11465340D+01  1  2  5  4  7  2       -2 -.557035026330D-05 0.100000000000D+01
  </mgrwgt>
  </event>
  <event>
  8     66 0.55102590E-06 0.30972515E+03 0.75467711E-02 0.98812743E-01
        2 -1    0    0  501    0 0.00000000E+00 0.00000000E+00 0.15125512E+04 0.15125512E+04 0.32000000E+00 0.0000E+00 0.9000E+01
       -2 -1    0    0    0  501 0.00000000E+00 0.00000000E+00 -.86586812E+02 0.86587403E+02 0.32000000E+00 0.0000E+00 0.9000E+01
       25  2    1    2    0    0 0.16233872E+03 -.18268240E+03 0.11633398E+04 0.12259956E+04 0.29996481E+03 0.0000E+00 0.0000E+00
       23  2    1    2    0    0 -.16233872E+03 0.18268240E+03 0.26262456E+03 0.37314306E+03 0.10265164E+03 0.0000E+00 0.0000E+00
       23  1    3    3    0    0 0.11156242E+03 -.20310531E+03 0.10040116E+04 0.10344334E+04 0.91188000E+02 0.0000E+00 0.9000E+01
      -11  1    4    4    0    0 -.16348682E+03 0.19343055E+03 0.25750879E+03 0.36118430E+03 0.51099893E-03 0.0000E+00 0.9000E+01
       11  1    4    4    0    0 0.11481023E+01 -.10748148E+02 0.51157724E+01 0.11958760E+02 0.51099893E-03 0.0000E+00 0.9000E+01
       23  1    3    3    0    0 0.50776301E+02 0.20422905E+02 0.15932822E+03 0.19156216E+03 0.91188000E+02 0.0000E+00 0.9000E+01
#aMCatNLO 1  0  0  2  1 0.77768008D+02 0.00000000D+00  -5  7  0 0.00000000D+00 0.00000000D+00 0.00000000D+00 0.00000000D+00 0.00000000D+00
  <mgrwgt>
 0.3841448902D-03    4    2    0
 0.361894299651116D+03 0.000000000000000D+00 0.000000000000000D+00 0.361894299651116D+03
 0.361894299651116D+03 0.000000000000000D+00 0.000000000000000D+00 -.361894299651116D+03
 0.307434586066152D+03 0.111562419887086D+03 -.203105309880007D+03 0.180285420744856D+03
 0.290672441907935D+03 -.163486823425168D+03 0.193430552314209D+03 -.142643431263027D+03
 0.163429020101620D+02 0.114810222311956D+01 -.107481477373602D+02 -.122576354822169D+02
 0.109338669317983D+03 0.507763013149624D+02 0.204229053031579D+02 -.253843539996124D+02
 0.000000000000000D+00 0.000000000000000D+00 0.000000000000000D+00 0.000000000000000D+00
 0.478231171234908D+03 0.000000000000000D+00 0.000000000000000D+00 0.478231171234908D+03
 0.377210649146276D+03 0.000000000000000D+00 0.000000000000000D+00 -.377210649146276D+03
 0.304434939331164D+03 0.803432848163560D+02 -.213090367199781D+03 0.180285420744856D+03
 0.302745181748212D+03 -.193764495669497D+03 0.183746610328500D+03 -.142643431263027D+03
 0.166712781390641D+02 -.536364981974261D+00 -.112869039059099D+02 -.122576354822169D+02
 0.104103131984472D+03 0.398859592599723D+02 0.169397630122308D+02 -.253843539996124D+02
 0.127487289178273D+03 0.740716165751426D+02 0.236908977649598D+02 0.101020522088632D+03
0.680983537156D-05 0.000000000000D+00 0.000000000000D+00 0.143999820277D-07 0.000000000000D+00  7 2 -2 23 -11 11 23 21 0 0.23270023D+00 0.13321096D-01 0.95929667D+05 0.95929667D+05 0.95929667D+05 0.11232060D+01  1  2  2  2  7  2       -2 0.430196982157D-03 0.100000000000D+01
-.367177697215D-06 0.000000000000D+00 -.261515608976D-07 0.143999820277D-07 0.000000000000D+00  7 2 -2 23 -11 11 23 21 2 0.23270023D+00 0.13321096D-01 0.95929667D+05 0.95929667D+05 0.95929667D+05 0.11232060D+01  1  2  3  2  7  2       -2 -.292634746876D-04 0.100000000000D+01
0.437133851244D-06 0.000000000000D+00 0.000000000000D+00 0.143999820277D-07 0.000000000000D+00  7 2 -2 23 -11 11 23 21 2 0.23270023D+00 0.13321096D-01 0.95929667D+05 0.95929667D+05 0.95929667D+05 0.11232060D+01  1  2 15  2  7  2       -2 0.348388681775D-04 0.100000000000D+01
-.647785726870D-06 0.000000000000D+00 0.000000000000D+00 0.143999820277D-07 0.000000000000D+00  7 2 -2 23 -11 11 23 21 2 0.23270023D+00 0.13321096D-01 0.95929667D+05 0.95929667D+05 0.95929667D+05 0.11232060D+01  1  2  4  2  7  2       -2 -.516274854520D-04 0.100000000000D+01
  </mgrwgt>
  </event>
  <event>
  7     66 0.55102590E-06 0.19615714E+03 0.75467711E-02 0.10025390E+00
        2 -1    0    0  501    0 0.00000000E+00 0.00000000E+00 0.49877158E+03 0.49877169E+03 0.32000000E+00 0.0000E+00 0.9000E+01
       -2 -1    0    0    0  501 0.00000000E+00 0.00000000E+00 -.10934516E+03 0.10934563E+03 0.32000000E+00 0.0000E+00 0.9000E+01
       23  2    1    2    0    0 0.36721066E+02 0.62668966E+02 0.17225274E+03 0.20800044E+03 0.91199443E+02 0.0000E+00 0.0000E+00
       23  1    1    2    0    0 0.71093733E+02 -.84624616E+02 0.21355178E+03 0.25716776E+03 0.91188000E+02 0.0000E+00 0.9000E+01
      -11  1    3    3    0    0 -.25574794E+00 0.68664731E+02 0.65616380E+02 0.94975891E+02 0.51099893E-03 0.0000E+00 0.9000E+01
       11  1    3    3    0    0 0.36976814E+02 -.59957647E+01 0.10663636E+03 0.11302455E+03 0.51099893E-03 0.0000E+00 0.9000E+01
       23  1    1    2    0    0 -.10781480E+03 0.21955650E+02 0.36219014E+01 0.14294912E+03 0.91188000E+02 0.0000E+00 0.9000E+01
#aMCatNLO 1  0  0  2  1 0.19535349D+03 0.00000000D+00  -5  7  0 0.00000000D+00 0.00000000D+00 0.00000000D+00 0.00000000D+00 0.00000000D+00
  <mgrwgt>
 0.9272318710D-04    3    2    0
 0.233534652824954D+03 0.000000000000000D+00 0.000000000000000D+00 0.233534652824954D+03
 0.233534652824954D+03 0.000000000000000D+00 0.000000000000000D+00 -.233534652824954D+03
 0.156776377721235D+03 0.710936527409448D+02 -.846246280396289D+02 0.636234715847525D+02
 0.689485668423441D+02 -.255716652161176D+00 0.686647843895067D+02 0.624394613602239D+01
 0.582465709216291D+02 0.369768407216793D+02 -.599571954637279D+01 0.446030001400486D+02
 0.183097790164701D+03 -.107814776810463D+03 0.219555631964949D+02 -.114470417860823D+03
 0.000000000000000D+00 -.000000000000000D+00 0.000000000000000D+00 0.000000000000000D+00
 0.356648471977899D+03 0.000000000000000D+00 0.000000000000000D+00 0.356648471977899D+03
 0.345311047236081D+03 0.000000000000000D+00 0.000000000000000D+00 -.345311047236081D+03
 0.211215807992755D+03 0.138971593933056D+03 -.113735729413594D+03 0.636234715847525D+02
 0.633183003511630D+02 0.241415476962822D+02 0.582014258488456D+02 0.624394613602239D+01
 0.783381627244963D+02 0.621705564528539D+02 -.168006555794405D+02 0.446030001400486D+02
 0.153405047096258D+03 -.457451984734639D+02 -.466448089255091D+01 -.114470417860823D+03
 0.195682201049307D+03 -.179538499608728D+03 0.769994400367401D+02 0.113374247418181D+02
0.466148539529D-06 0.000000000000D+00 0.000000000000D+00 0.146413196907D-09 0.000000000000D+00  7 2 -2 23 -11 11 23 21 0 0.76734134D-01 0.16822377D-01 0.38477622D+05 0.38477622D+05 0.38477622D+05 0.11574383D+01  1  2  2  2  7  2       -2 0.915024622550D-04 0.100000000000D+01
-.249392898090D-07 0.000000000000D+00 -.179013313152D-08 0.146413196907D-09 0.000000000000D+00  7 2 -2 23 -11 11 23 21 2 0.76734134D-01 0.16822377D-01 0.38477622D+05 0.38477622D+05 0.38477622D+05 0.11574383D+01  1  2  3  2  7  2       -2 -.655825418021D-05 0.100000000000D+01
0.295813805144D-07 0.000000000000D+00 0.000000000000D+00 0.146413196907D-09 0.000000000000D+00  7 2 -2 23 -11 11 23 21 2 0.76734134D-01 0.16822377D-01 0.38477622D+05 0.38477622D+05 0.38477622D+05 0.11574383D+01  1  2 15  2  7  2       -2 0.777897902869D-05 0.100000000000D+01
  </mgrwgt>
  </event>
  <event>
  8     66 0.55102590E-06 0.13716156E+03 0.75467711E-02 0.10315555E+00
        2 -1    0    0  501    0 0.00000000E+00 0.00000000E+00 0.13717893E+04 0.13717894E+04 0.32000000E+00 0.0000E+00 0.9000E+01
       -2 -1    0    0    0  501 0.00000000E+00 0.00000000E+00 -.38006086E+02 0.38007433E+02 0.32000000E+00 0.0000E+00 0.9000E+01
       25  2    1    2    0    0 0.86291172E+02 -.56472026E+02 0.98865550E+03 0.10382804E+04 0.29991856E+03 0.0000E+00 0.0000E+00
       23  2    1    2    0    0 -.86291172E+02 0.56472026E+02 0.34512774E+03 0.37151644E+03 0.90972813E+02 0.0000E+00 0.0000E+00
       23  1    3    3    0    0 -.70100368E+02 -.54252446E+02 0.29214907E+03 0.31862787E+03 0.91188000E+02 0.0000E+00 0.9000E+01
      -11  1    4    4    0    0 -.33244917E+02 0.41410974E+02 0.28510669E+03 0.29001020E+03 0.51099893E-03 0.0000E+00 0.9000E+01
       11  1    4    4    0    0 -.53046255E+02 0.15061052E+02 0.60021054E+02 0.81506241E+02 0.51099893E-03 0.0000E+00 0.9000E+01
       23  1    3    3    0    0 0.15639154E+03 -.22195799E+01 0.69650642E+03 0.71965248E+03 0.91188000E+02 0.0000E+00 0.9000E+01
#aMCatNLO 1  0  0  2  1 0.80390235D+02 0.00000000D+00  -5  7  0 0.00000000D+00 0.00000000D+00 0.00000000D+00 0.00000000D+00 0.00000000D+00
  <mgrwgt>
 0.1174752916D-03    7    2    0
 0.228335977684135D+03 0.000000000000000D+00 0.000000000000000D+00 0.228335977684135D+03
 0.228335977684135D+03 0.000000000000000D+00 0.000000000000000D+00 -.228335977684135D+03
 0.130371522073455D+03 -.701003684229660D+02 -.542524459056802D+02 -.287070180263480D+02
 0.625940133921536D+02 -.332449174087328D+02 0.414109740544524D+02 0.331348337386067D+02
 0.763177191654719D+02 -.530462551527713D+02 0.150610517543050D+02 -.527603429949149D+02
 0.187388700737190D+03 0.156391540984470D+03 -.221957990307723D+01 0.483325272826562D+02
 0.000000000000000D+00 -.000000000000000D+00 0.000000000000000D+00 -.000000000000000D+00
 0.235734413979670D+03 0.000000000000000D+00 0.000000000000000D+00 0.235734413979670D+03
 0.647441648579911D+03 0.000000000000000D+00 0.000000000000000D+00 -.647441648579911D+03
 0.141307623861886D+03 -.689326414608774D+02 -.779537765265623D+02 -.287070180263480D+02
 0.559875246830196D+02 -.327352321373824D+02 0.310659023715441D+02 0.331348337386067D+02
 0.743836055416365D+02 -.523985131279755D+02 0.191384492843331D+01 -.527603429949149D+02
 0.192014964526157D+03 0.158022287753487D+03 -.353188142157515D+02 0.483325272826562D+02
 0.419482343946882D+03 -.395590102725142D+01 0.802928434423364D+02 -.411707234600241D+03
0.856372816403D-06 0.000000000000D+00 0.000000000000D+00 0.182480548583D-06 0.000000000000D+00  7 2 -2 23 -11 11 23 21 0 0.21104462D+00 0.58471966D-02 0.43361289D+05 0.43361289D+05 0.43361289D+05 0.11527773D+01  1  2  2  2  7  2       -2 0.227053848574D-03 0.100000000000D+01
-.470849887449D-07 0.000000000000D+00 -.328869710313D-08 0.182480548583D-06 0.000000000000D+00  7 2 -2 23 -11 11 23 21 2 0.21104462D+00 0.58471966D-02 0.43361289D+05 0.43361289D+05 0.43361289D+05 0.11527773D+01  1  2  3  2  7  2       -2 -.165897303246D-04 0.100000000000D+01
0.544366782921D-07 0.000000000000D+00 0.000000000000D+00 0.182480548583D-06 0.000000000000D+00  7 2 -2 23 -11 11 23 21 2 0.21104462D+00 0.58471966D-02 0.43361289D+05 0.43361289D+05 0.43361289D+05 0.11527773D+01  1  2 15  2  7  2       -2 0.191799942339D-04 0.100000000000D+01
0.448154884562D-05 0.000000000000D+00 0.000000000000D+00 0.182480548583D-06 0.000000000000D+00  7 2 -2 23 -11 11 23 21 2 0.21104462D+00 0.16468470D-01 0.63037846D+05 0.63037846D+05 0.63037846D+05 0.11385477D+01  1  2 12  2  7  2       -2 0.314037953370D-03 0.100000000000D+01
-.514995744988D-05 0.000000000000D+00 -.278672186792D-06 0.182480548583D-06 0.000000000000D+00  7 2 -2 23 -11 11 23 21 2 0.21104462D+00 0.16966875D-01 0.43361289D+05 0.43361289D+05 0.43361289D+05 0.11527773D+01  1  2  5  2  7  2       -2 -.354814846759D-03 0.100000000000D+01
0.521716009480D-06 0.000000000000D+00 0.000000000000D+00 0.182480548583D-06 0.000000000000D+00  7 2 21 23 -11 11 23 2 2 0.21104462D+00 0.16468470D-01 0.63037846D+05 0.63037846D+05 0.63037846D+05 0.11385477D+01  1  2 12  4  7  2       -2 0.492034879562D-03 0.100000000000D+01
-.605517767323D-06 0.000000000000D+00 -.335645639357D-07 0.182480548583D-06 0.000000000000D+00  7 2 21 23 -11 11 23 2 2 0.21104462D+00 0.16966875D-01 0.43361289D+05 0.43361289D+05 0.43361289D+05 0.11527773D+01  1  2  5  4  7  2       -2 -.563426807037D-03 0.100000000000D+01
  </mgrwgt>
  </event>
  <event>
  8     66 0.55102590E-06 0.31183828E+03 0.75467711E-02 0.98635764E-01
        2 -1    0    0  501    0 0.00000000E+00 0.00000000E+00 0.27692800E+03 0.27692818E+03 0.32000000E+00 0.0000E+00 0.9000E+01
       -2 -1    0    0    0  501 0.00000000E+00 0.00000000E+00 -.76552567E+03 0.76552574E+03 0.32000000E+00 0.0000E+00 0.9000E+01
       25  2    1    2    0    0 0.12257784E+03 -.26750058E+03 -.58516409E+03 0.71993660E+03 0.29884746E+03 0.0000E+00 0.0000E+00
       23  2    1    2    0    0 -.12257784E+03 0.26750058E+03 0.96566413E+02 0.32251733E+03 0.90058117E+02 0.0000E+00 0.0000E+00
       23  1    3    3    0    0 0.23174246E+02 -.26613766E+03 -.36026732E+03 0.45768339E+03 0.91188000E+02 0.0000E+00 0.9000E+01
      -11  1    4    4    0    0 -.68281245E+02 0.15142051E+03 0.71556032E+01 0.16625794E+03 0.51099893E-03 0.0000E+00 0.9000E+01
       11  1    4    4    0    0 -.54296597E+02 0.11608008E+03 0.89410809E+02 0.15625939E+03 0.51099893E-03 0.0000E+00 0.9000E+01
       23  1    3    3    0    0 0.99403596E+02 -.13629250E+01 -.22489677E+03 0.26225320E+03 0.91188000E+02 0.0000E+00 0.9000E+01
#aMCatNLO 1  0  0  1  2 0.10220377D+01 0.00000000D+00  -5  7  0 0.00000000D+00 0.00000000D+00 0.00000000D+00 0.00000000D+00 0.00000000D+00
  <mgrwgt>
 0.1103936697D-03   10    2    0
 0.460429825003550D+03 0.000000000000000D+00 0.000000000000000D+00 0.460429825003550D+03
 0.460429825003550D+03 0.000000000000000D+00 0.000000000000000D+00 -.460429825003550D+03
 0.326964133862015D+03 0.231742458312784D+02 -.266137659695504D+03 -.164996951214527D+03
 0.192008031168654D+03 -.682812451346945D+02 0.151420507435392D+03 0.963150327006494D+02
 0.224332915199706D+03 -.542965968369298D+02 0.116080077227458D+03 0.184126456775755D+03
 0.177554569776724D+03 0.994035961403459D+02 -.136292496734600D+01 -.115444538261877D+03
 0.000000000000000D+00 0.000000000000000D+00 -.000000000000000D+00 0.000000000000000D+00
 0.463340822863091D+03 0.000000000000000D+00 0.000000000000000D+00 0.463340822863091D+03
 0.460519825489171D+03 0.000000000000000D+00 0.000000000000000D+00 -.460519825489171D+03
 0.326835992356941D+03 0.228347897131063D+02 -.266009573182273D+03 -.164996951214527D+03
 0.192138383188185D+03 -.684806957701378D+02 0.151495765871130D+03 0.963150327006494D+02
 0.224434918183890D+03 -.545295992188073D+02 0.116167995697833D+03 0.184126456775755D+03
 0.177450923444185D+03 0.992192756090002D+02 -.129337555311242D+01 -.115444538261877D+03
 0.300043117906174D+01 0.956229666838495D+00 -.360812833577872D+00 0.282099737392102D+01
0.921831493519D-05 0.000000000000D+00 0.000000000000D+00 0.156277986288D-06 0.000000000000D+00  7 2 -2 23 -11 11 23 21 0 0.42604327D-01 0.11777320D+00 0.12653488D+06 0.12653488D+06 0.12653488D+06 0.11134298D+01  1  2  2  1  7  1        2 0.762764708283D-04 0.100000000000D+01
-.470673301718D-06 0.000000000000D+00 -.354007565892D-07 0.156277986288D-06 0.000000000000D+00  7 2 -2 23 -11 11 23 21 2 0.42604327D-01 0.11777320D+00 0.12653488D+06 0.12653488D+06 0.12653488D+06 0.11134298D+01  1  2  3  1  7  1        2 -.482818917943D-05 0.100000000000D+01
0.584744998628D-06 0.000000000000D+00 0.000000000000D+00 0.156277986288D-06 0.000000000000D+00  7 2 -2 23 -11 11 23 21 2 0.42604327D-01 0.11777320D+00 0.12653488D+06 0.12653488D+06 0.12653488D+06 0.11134298D+01  1  2 15  1  7  1        2 0.599834208738D-05 0.100000000000D+01
-.325173257750D-02 0.000000000000D+00 0.000000000000D+00 0.156277986288D-06 0.000000000000D+00  7 2 -2 23 -11 11 23 21 2 0.42604327D-01 0.11777320D+00 0.12653488D+06 0.12653488D+06 0.12653488D+06 0.11134298D+01  1  2  4  1  7  1        2 -.333564278827D-01 0.100000000000D+01
-.486721514526D-02 0.000000000000D+00 -.190775982884D-03 0.156277986288D-06 0.000000000000D+00  7 2 -2 23 -11 11 23 21 2 0.42878392D-01 0.11777320D+00 0.12653488D+06 0.12653488D+06 0.12653488D+06 0.11134298D+01  1  2  5  1  7  1        2 -.495770920438D-01 0.100000000000D+01
0.486834227701D-02 0.000000000000D+00 0.190772060945D-03 0.156277986288D-06 0.000000000000D+00  7 2 -2 23 -11 11 23 21 2 0.42604327D-01 0.11777320D+00 0.12653488D+06 0.12653488D+06 0.12653488D+06 0.11134298D+01  1  2  6  1  7  1        2 0.499396872901D-01 0.100000000000D+01
0.325179556263D-02 0.000000000000D+00 0.000000000000D+00 0.156277986288D-06 0.989043478209D-06  7 2 -2 23 -11 11 23 21 2 0.42873686D-01 0.11779622D+00 0.12691446D+06 0.12691446D+06 0.12691446D+06 0.11133255D+01  1  2 11  1  7  1        2 0.331016173056D-01 0.100000000000D+01
0.437351837386D-10 0.000000000000D+00 0.000000000000D+00 0.156277986288D-06 0.000000000000D+00  7 21 -2 23 -11 11 23 -2 2 0.42877837D-01 0.11777320D+00 0.12691446D+06 0.12691446D+06 0.12691446D+06 0.11133255D+01  1  2 12  3  7  1        2 0.166286754180D-08 0.100000000000D+01
-.579300617639D-05 0.000000000000D+00 -.227177263448D-06 0.156277986288D-06 0.000000000000D+00  7 21 -2 23 -11 11 23 -2 2 0.42878392D-01 0.11777320D+00 0.12653488D+06 0.12653488D+06 0.12653488D+06 0.11134298D+01  1  2  5  3  7  1        2 -.220331247822D-03 0.100000000000D+01
0.382770328605D-05 0.000000000000D+00 0.000000000000D+00 0.156277986288D-06 0.115788408790D-08  7 21 -2 23 -11 11 23 -2 2 0.42873686D-01 0.11779622D+00 0.12691446D+06 0.12691446D+06 0.12691446D+06 0.11133255D+01  1  2 11  3  7  1        2 0.145491961727D-03 0.100000000000D+01
  </mgrwgt>
  </event>
  <event>
  8     66 0.55102590E-06 0.14343632E+03 0.75467711E-02 0.10141366E+00
        2 -1    0    0  501    0 0.00000000E+00 0.00000000E+00 0.24556533E+03 0.24556554E+03 0.32000000E+00 0.0000E+00 0.9000E+01
       -2 -1    0    0    0  501 0.00000000E+00 0.00000000E+00 -.40489524E+03 0.40489536E+03 0.32000000E+00 0.0000E+00 0.9000E+01
       25  2    1    2    0    0 -.21224028E+03 -.71609557E+02 -.23830472E+02 0.37467294E+03 0.29939614E+03 0.0000E+00 0.0000E+00
       23  2    1    2    0    0 0.21224028E+03 0.71609557E+02 -.13549943E+03 0.27578797E+03 0.86746989E+02 0.0000E+00 0.0000E+00
       23  1    3    3    0    0 -.29901557E+02 -.10148613E+03 -.80190844E+02 0.16105701E+03 0.91188000E+02 0.0000E+00 0.9000E+01
      -11  1    4    4    0    0 0.11876527E+03 0.51501400E+02 -.28988906E+02 0.13265723E+03 0.51099893E-03 0.0000E+00 0.9000E+01
       11  1    4    4    0    0 0.93475012E+02 0.20108157E+02 -.10651053E+03 0.14313074E+03 0.51099893E-03 0.0000E+00 0.9000E+01
       23  1    3    3    0    0 -.18233872E+03 0.29876575E+02 0.56360372E+02 0.21361592E+03 0.91188000E+02 0.0000E+00 0.9000E+01
#aMCatNLO 1  0  0  1  2 0.17033693D+01 0.00000000D+00  -5  7  0 0.00000000D+00 0.00000000D+00 0.00000000D+00 0.00000000D+00 0.00000000D+00
  <mgrwgt>
 0.2177656310D-03   11    2    0
 0.315322598922323D+03 0.000000000000000D+00 0.000000000000000D+00 0.315322598922323D+03
 0.315322598922323D+03 0.000000000000000D+00 0.000000000000000D+00 -.315322598922323D+03
 0.145857749238180D+03 -.299015566540201D+02 -.101486131942008D+03 -.420201570908951D+02
 0.129501565312890D+03 0.118765269422380D+03 0.515013997700380D+02 0.361552475373240D+01
 0.120718649679353D+03 0.934750119218485D+02 0.201081569131126D+02 -.736958380926240D+02
 0.234567233614223D+03 -.182338724690209D+03 0.298765752588577D+02 0.112100470429787D+03
 0.000000000000000D+00 -.000000000000000D+00 0.000000000000000D+00 0.000000000000000D+00
 0.318761316962507D+03 0.000000000000000D+00 0.000000000000000D+00 0.318761316962507D+03
 0.315534760721096D+03 0.000000000000000D+00 0.000000000000000D+00 -.315534760721096D+03
 0.146060877461158D+03 -.297138528192121D+02 -.101832813618294D+03 -.420201570908951D+02
 0.129532444200878D+03 0.118931828430557D+03 0.511937717654515D+02 0.361552475373240D+01
 0.120791538348398D+03 0.936303031033349D+02 0.198213401458096D+02 -.736958380926240D+02
 0.234262638225561D+03 -.182037266829119D+03 0.293197943240480D+02 0.112100470429787D+03
 0.364857944760873D+01 -.811011885560803D+00 0.149790738298455D+01 0.322655624141163D+01
0.381402668062D-05 0.000000000000D+00 0.000000000000D+00 0.153761612198D-07 0.000000000000D+00  7 2 -2 23 -11 11 23 21 0 0.37779307D-01 0.62291600D-01 0.81448905D+05 0.81448905D+05 0.81448905D+05 0.11291091D+01  1  2  2  1  7  1        2 0.155277377260D-03 0.100000000000D+01
-.209327952614D-06 0.000000000000D+00 -.146468667099D-07 0.153761612198D-07 0.000000000000D+00  7 2 -2 23 -11 11 23 21 2 0.37779307D-01 0.62291600D-01 0.81448905D+05 0.81448905D+05 0.81448905D+05 0.11291091D+01  1  2  3  1  7  1        2 -.108648447355D-04 0.100000000000D+01
0.243893245454D-06 0.000000000000D+00 0.000000000000D+00 0.153761612198D-07 0.000000000000D+00  7 2 -2 23 -11 11 23 21 2 0.37779307D-01 0.62291600D-01 0.81448905D+05 0.81448905D+05 0.81448905D+05 0.11291091D+01  1  2 15  1  7  1        2 0.126589029836D-04 0.100000000000D+01
0.290043100972D-08 0.000000000000D+00 0.000000000000D+00 0.153761612198D-07 0.000000000000D+00  7 2 -2 23 -11 11 23 21 2 0.38203941D-01 0.62291600D-01 0.81932377D+05 0.81932377D+05 0.81932377D+05 0.11288940D+01  1  2 12  1  7  1        2 0.148629603598D-06 0.100000000000D+01
-.404510534960D-03 0.000000000000D+00 0.000000000000D+00 0.153761612198D-07 0.000000000000D+00  7 2 -2 23 -11 11 23 21 2 0.37779307D-01 0.62291600D-01 0.81448905D+05 0.81448905D+05 0.81448905D+05 0.11291091D+01  1  2  4  1  7  1        2 -.209954958301D-01 0.100000000000D+01
-.751923737425D-03 0.000000000000D+00 -.451904419234D-04 0.153761612198D-07 0.000000000000D+00  7 2 -2 23 -11 11 23 21 2 0.38208035D-01 0.62291600D-01 0.81448905D+05 0.81448905D+05 0.81448905D+05 0.11291091D+01  1  2  5  1  7  1        2 -.385434620659D-01 0.100000000000D+01
0.752388653877D-03 0.000000000000D+00 0.451875648999D-04 0.153761612198D-07 0.000000000000D+00  7 2 -2 23 -11 11 23 21 2 0.37779307D-01 0.62291600D-01 0.81448905D+05 0.81448905D+05 0.81448905D+05 0.11291091D+01  1  2  6  1  7  1        2 0.390515733952D-01 0.100000000000D+01
0.404533818891D-03 0.000000000000D+00 0.000000000000D+00 0.153761612198D-07 0.360216422560D-07  7 2 -2 23 -11 11 23 21 2 0.38191306D-01 0.62333513D-01 0.81932377D+05 0.81932377D+05 0.81932377D+05 0.11288940D+01  1  2 11  1  7  1        2 0.207086610684D-01 0.100000000000D+01
0.363301914675D-09 0.000000000000D+00 0.000000000000D+00 0.153761612198D-07 0.000000000000D+00  7 21 -2 23 -11 11 23 -2 2 0.38203941D-01 0.62291600D-01 0.81932377D+05 0.81932377D+05 0.81932377D+05 0.11288940D+01  1  2 12  3  7  1        2 0.787200827201D-07 0.100000000000D+01
-.156220653655D-05 0.000000000000D+00 -.940161163685D-07 0.153761612198D-07 0.000000000000D+00  7 21 -2 23 -11 11 23 -2 2 0.38208035D-01 0.62291600D-01 0.81448905D+05 0.81448905D+05 0.81448905D+05 0.11291091D+01  1  2  5  3  7  1        2 -.338634784343D-03 0.100000000000D+01
0.821274807544D-06 0.000000000000D+00 0.000000000000D+00 0.153761612198D-07 0.720181485198D-10  7 21 -2 23 -11 11 23 -2 2 0.38191306D-01 0.62333513D-01 0.81932377D+05 0.81932377D+05 0.81932377D+05 0.11288940D+01  1  2 11  3  7  1        2 0.177825062570D-03 0.100000000000D+01
  </mgrwgt>
  </event>
  <event>
  8     66 0.55102590E-06 0.18484695E+03 0.75467711E-02 0.94911571E-01
        2 -1    0    0  501    0 0.00000000E+00 0.00000000E+00 0.10496440E+04 0.10496440E+04 0.32000000E+00 0.0000E+00 0.9000E+01
       -2 -1    0    0    0  501 0.00000000E+00 0.00000000E+00 -.20716951E+03 0.20716976E+03 0.32000000E+00 0.0000E+00 0.9000E+01
       25  2    1    2    0    0 0.79641442E+02 -.24150394E+02 -.81852490E+02 0.32473515E+03 0.30302985E+03 0.0000E+00 0.0000E+00
       23  2    1    2    0    0 -.79641442E+02 0.24150394E+02 0.92432695E+03 0.93207862E+03 0.86395908E+02 0.0000E+00 0.0000E+00
       23  1    3    3    0    0 -.34494656E+02 0.15173450E+02 0.61541562E+02 0.11628727E+03 0.91188000E+02 0.0000E+00 0.9000E+01
      -13  1    4    4    0    0 -.86193040E+02 0.45456463E+02 0.77332817E+03 0.77944340E+03 0.10565837E+00 0.0000E+00 0.9000E+01
       13  1    4    4    0    0 0.65515984E+01 -.21306070E+02 0.15099877E+03 0.15263523E+03 0.10565837E+00 0.0000E+00 0.9000E+01
       23  1    3    3    0    0 0.11413610E+03 -.39323843E+02 -.14339405E+03 0.20844788E+03 0.91188000E+02 0.0000E+00 0.9000E+01
#aMCatNLO 1  0  0  1  1 0.41324760D+03 0.00000000D+00  -5  7  0 0.00000000D+00 0.00000000D+00 0.00000000D+00 0.00000000D+00 0.00000000D+00
  <mgrwgt>
 0.3256560764D-03    5    2    0
 0.466320077973351D+03 0.000000000000000D+00 0.000000000000000D+00 0.466320077973351D+03
 0.466320077973351D+03 0.000000000000000D+00 0.000000000000000D+00 -.466320077973351D+03
 0.101115369607519D+03 -.344946563419689D+02 0.151734495587020D+02 -.221122531462559D+02
 0.351803808428024D+03 -.861931789948311D+02 0.454565629842003D+02 0.338038986510270D+03
 0.692883022194771D+02 0.655173699768786D+01 -.213061694223444D+02 0.656048070747646D+02
 0.410432675691682D+03 0.114136098339112D+03 -.393238431205579D+02 -.381531540438779D+03
 0.000000000000000D+00 -.000000000000000D+00 -.000000000000000D+00 0.000000000000000D+00
 0.103758297136903D+04 0.000000000000000D+00 0.000000000000000D+00 0.103758297136903D+04
 0.590976679059542D+03 0.000000000000000D+00 0.000000000000000D+00 -.590976679059542D+03
 0.111029536989915D+03 -.174885344871143D+02 0.567230655243863D+02 -.221122531462559D+02
 0.388966155278908D+03 -.268110120068601D+02 0.190539977922569D+03 0.338038986510270D+03
 0.681479906451224D+02 0.175690099608802D+02 0.561139970462759D+01 0.656048070747646D+02
 0.451950058903718D+03 0.183267081049349D+03 0.129578026891668D+03 -.381531540438779D+03
 0.608465908610914D+03 -.156536544516255D+03 -.382452470043251D+03 0.446606292309492D+03
0.107260137903D-04 0.000000000000D+00 0.000000000000D+00 0.381292159545D-08 0.000000000000D+00  7 2 -2 23 -13 13 23 21 0 0.16148371D+00 0.31872255D-01 0.34168396D+05 0.34168396D+05 0.34168396D+05 0.11621295D+01  1  2  2  1  7  1        2 0.294535923868D-03 0.100000000000D+01
0.244846895947D-07 0.000000000000D+00 -.411907171792D-07 0.381292159545D-08 0.000000000000D+00  7 2 -2 23 -13 13 23 21 2 0.16148371D+00 0.31872255D-01 0.34168396D+05 0.34168396D+05 0.34168396D+05 0.11621295D+01  1  2  3  1  7  1        2 0.908037014804D-06 0.100000000000D+01
0.668764582217D-06 0.000000000000D+00 0.000000000000D+00 0.381292159545D-08 0.000000000000D+00  7 2 -2 23 -13 13 23 21 2 0.16148371D+00 0.31872255D-01 0.34168396D+05 0.34168396D+05 0.34168396D+05 0.11621295D+01  1  2 15  1  7  1        2 0.248017436568D-04 0.100000000000D+01
0.885598192070D-06 0.000000000000D+00 -.299994541042D-05 0.381292159545D-08 0.000000000000D+00  7 2 -2 23 -13 13 23 21 2 0.39026569D+00 0.31872255D-01 0.34168396D+05 0.34168396D+05 0.34168396D+05 0.11621295D+01  1  2  5  1  7  1        2 0.520376111192D-05 0.100000000000D+01
0.273686047290D-06 0.000000000000D+00 -.289912014296D-06 0.381292159545D-08 0.000000000000D+00  7 21 -2 23 -13 13 23 -2 2 0.39026569D+00 0.31872255D-01 0.34168396D+05 0.34168396D+05 0.34168396D+05 0.11621295D+01  1  2  5  3  7  1        2 0.206610736505D-06 0.100000000000D+01
  </mgrwgt>
  </event>
  <event>
  8     66 0.55102590E-06 0.23008556E+03 0.75467711E-02 0.96383223E-01
        2 -1    0    0  501    0 0.00000000E+00 0.00000000E+00 0.21238501E+04 0.21238501E+04 0.32000000E+00 0.0000E+00 0.9000E+01
       -2 -1    0    0    0  501 0.00000000E+00 0.00000000E+00 -.12214987E+03 0.12215029E+03 0.32000000E+00 0.0000E+00 0.9000E+01
       25  2    1    2    0    0 -.26450942E+03 0.28040923E+03 0.52585790E+03 0.71768347E+03 0.29991408E+03 0.0000E+00 0.0000E+00
       23  2    1    2    0    0 0.26450942E+03 -.28040923E+03 0.14758423E+04 0.15283169E+04 0.95118672E+02 0.0000E+00 0.0000E+00
       23  1    3    3    0    0 -.25070568E+03 0.22597137E+03 0.49539637E+03 0.60634084E+03 0.91188000E+02 0.0000E+00 0.9000E+01
      -11  1    4    4    0    0 0.12892092E+03 -.18295212E+03 0.97554481E+03 0.10008895E+04 0.51099893E-03 0.0000E+00 0.9000E+01
       11  1    4    4    0    0 0.13558849E+03 -.97457106E+02 0.50029752E+03 0.52742747E+03 0.51099893E-03 0.0000E+00 0.9000E+01
       23  1    3    3    0    0 -.13803737E+02 0.54437861E+02 0.30461527E+02 0.11134262E+03 0.91188000E+02 0.0000E+00 0.9000E+01
#aMCatNLO 1  0  0  1  2 0.11650850D+02 0.00000000D+00  -5  7  0 0.00000000D+00 0.00000000D+00 0.00000000D+00 0.00000000D+00 0.00000000D+00
  <mgrwgt>
 0.3716642393D-03    9    2    0
 0.509341257937702D+03 0.000000000000000D+00 0.000000000000000D+00 0.509341257937702D+03
 0.509341257937702D+03 0.000000000000000D+00 0.000000000000000D+00 -.509341257937702D+03
 0.363417201630922D+03 -.250705682431944D+03 0.225971367847420D+03 -.991988548661200D+02
 0.289835081870572D+03 0.128920924406950D+03 -.182952122759313D+03 0.184152900359564D+03
 0.179797585105679D+03 0.135588494646396D+03 -.974571055886755D+02 0.666711654288119D+02
 0.185632647268230D+03 -.138037366214023D+02 0.544378605005691D+02 -.151625210922256D+03
 0.000000000000000D+00 0.000000000000000D+00 -.000000000000000D+00 0.000000000000000D+00
 0.524296341734704D+03 0.000000000000000D+00 0.000000000000000D+00 0.524296341734704D+03
 0.511648802285551D+03 0.000000000000000D+00 0.000000000000000D+00 -.511648802285551D+03
 0.367271006893020D+03 -.253435965149938D+03 0.229134327244921D+03 -.991988548661200D+02
 0.287306600619268D+03 0.126764382200365D+03 -.180453826376498D+03 0.184152900359564D+03
 0.177952273188257D+03 0.134251729875772D+03 -.959084994074817D+02 0.666711654288119D+02
 0.186219259395815D+03 -.151931949739176D+02 0.560475107849739D+02 -.151625210922256D+03
 0.171960039238942D+02 0.761304804771872D+01 -.881951224591488D+01 0.126475394491525D+02
0.602823597702D-05 0.000000000000D+00 0.000000000000D+00 0.121445038641D-06 0.000000000000D+00  7 2 -2 23 -11 11 23 21 0 0.32674620D+00 0.18792322D-01 0.17956540D+06 0.17956540D+06 0.17956540D+06 0.11014385D+01  1  2  2  1  7  1        2 0.100610995955D-03 0.100000000000D+01
-.321120474439D-06 0.000000000000D+00 -.231500134228D-07 0.121445038641D-06 0.000000000000D+00  7 2 -2 23 -11 11 23 21 2 0.32674620D+00 0.18792322D-01 0.17956540D+06 0.17956540D+06 0.17956540D+06 0.11014385D+01  1  2  3  1  7  1        2 -.650195125133D-05 0.100000000000D+01
0.380804882048D-06 0.000000000000D+00 0.000000000000D+00 0.121445038641D-06 0.000000000000D+00  7 2 -2 23 -11 11 23 21 2 0.32674620D+00 0.18792322D-01 0.17956540D+06 0.17956540D+06 0.17956540D+06 0.11014385D+01  1  2 15  1  7  1        2 0.771042327235D-05 0.100000000000D+01
0.143037518461D-04 0.000000000000D+00 0.000000000000D+00 0.121445038641D-06 0.000000000000D+00  7 2 -2 23 -11 11 23 21 2 0.33706722D+00 0.18792322D-01 0.18442691D+06 0.18442691D+06 0.18442691D+06 0.11005396D+01  1  2 12  1  7  1        2 0.265284987776D-03 0.100000000000D+01
-.145520099616D-04 0.000000000000D+00 0.000000000000D+00 0.121445038641D-06 0.000000000000D+00  7 2 -2 23 -11 11 23 21 2 0.32674620D+00 0.18792322D-01 0.17956540D+06 0.17956540D+06 0.17956540D+06 0.11014385D+01  1  2  4  1  7  1        2 -.294644742116D-03 0.100000000000D+01
-.179110576822D-03 0.000000000000D+00 -.186285849488D-04 0.121445038641D-06 0.000000000000D+00  7 2 -2 23 -11 11 23 21 2 0.33689162D+00 0.18792322D-01 0.17956540D+06 0.17956540D+06 0.17956540D+06 0.11014385D+01  1  2  5  1  7  1        2 -.333562168083D-02 0.100000000000D+01
0.179604927838D-03 0.000000000000D+00 0.186198796094D-04 0.121445038641D-06 0.000000000000D+00  7 2 -2 23 -11 11 23 21 2 0.32674620D+00 0.18792322D-01 0.17956540D+06 0.17956540D+06 0.17956540D+06 0.11014385D+01  1  2  6  1  7  1        2 0.363658682101D-02 0.100000000000D+01
0.410788368473D-06 0.000000000000D+00 0.000000000000D+00 0.121445038641D-06 0.000000000000D+00  7 21 -2 23 -11 11 23 -2 2 0.33706722D+00 0.18792322D-01 0.18442691D+06 0.18442691D+06 0.18442691D+06 0.11005396D+01  1  2 12  3  7  1        2 0.126662925610D-05 0.100000000000D+01
-.975096978504D-06 0.000000000000D+00 -.102069637900D-06 0.121445038641D-06 0.000000000000D+00  7 21 -2 23 -11 11 23 -2 2 0.33689162D+00 0.18792322D-01 0.17956540D+06 0.17956540D+06 0.17956540D+06 0.11014385D+01  1  2  5  3  7  1        2 -.302724380356D-05 0.100000000000D+01
  </mgrwgt>
  </event>
  <event>
  8     66 0.55102590E-06 0.28365330E+03 0.75467711E-02 0.99011872E-01
        2 -1    0    0  501    0 0.00000000E+00 0.00000000E+00 0.10042509E+04 0.10042510E+04 0.32000000E+00 0.0000E+00 0.9000E+01
       -2 -1    0    0    0  501 0.00000000E+00 0.00000000E+00 -.11289667E+03 0.11289713E+03 0.32000000E+00 0.0000E+00 0.9000E+01
       25  2    1    2    0    0 -.57661471E+02 -.22404344E+03 0.32776058E+03 0.50059796E+03 0.29941780E+03 0.0000E+00 0.0000E+00
       23  2    1    2    0    0 0.57661471E+02 0.22404344E+03 0.56359366E+03 0.61655013E+03 0.94741421E+02 0.0000E+00 0.0000E+00
       23  1    3    3    0    0 -.89335016E+02 -.16332760E+03 0.70099457E+02 0.21882832E+03 0.91188000E+02 0.0000E+00 0.9000E+01
      -11  1    4    4    0    0 -.25563329E+01 0.15223004E+03 0.29317301E+03 0.33034972E+03 0.51099893E-03 0.0000E+00 0.9000E+01
       11  1    4    4    0    0 0.60217804E+02 0.71813402E+02 0.27042065E+03 0.28620041E+03 0.51099893E-03 0.0000E+00 0.9000E+01
       23  1    3    3    0    0 0.31673545E+02 -.60715845E+02 0.25766112E+03 0.28176964E+03 0.91188000E+02 0.0000E+00 0.9000E+01
#aMCatNLO 1  0  0  1  1 0.11848173D+03 0.00000000D+00  -5  7  0 0.00000000D+00 0.00000000D+00 0.00000000D+00 0.00000000D+00 0.00000000D+00
  <mgrwgt>
 0.1598589371D-03    3    2    0
 0.336714820674227D+03 0.000000000000000D+00 0.000000000000000D+00 0.336714820674227D+03
 0.336714820674227D+03 0.000000000000000D+00 0.000000000000000D+00 -.336714820674227D+03
 0.270228962723329D+03 -.893350158303324D+02 -.163327596039910D+03 -.173354527685158D+03
 0.159970012172634D+03 -.255633290332893D+01 0.152230039453041D+03 0.490905799998899D+02
 0.116846138611150D+03 0.602178035989746D+02 0.718134019807484D+02 0.697830318487435D+02
 0.126384527841342D+03 0.316735451346867D+02 -.607158453938795D+02 0.544809158365251D+02
 0.000000000000000D+00 -.000000000000000D+00 -.000000000000000D+00 -.000000000000000D+00
 0.350499754006251D+03 0.000000000000000D+00 0.000000000000000D+00 0.350499754006251D+03
 0.749335651245561D+03 0.000000000000000D+00 0.000000000000000D+00 -.749335651245561D+03
 0.243894202497269D+03 -.548909842935739D+02 -.134552288134082D+03 -.173354527685158D+03
 0.179253247478512D+03 0.201701603648992D+02 0.171216255997266D+03 0.490905799998899D+02
 0.134871899804352D+03 0.770818249854343D+02 0.859019794867808D+02 0.697830318487435D+02
 0.125753567687039D+03 0.485657085334540D+02 -.466037574265825D+02 0.544809158365251D+02
 0.416062487784641D+03 -.909267095902136D+02 -.759621899233820D+02 -.398835897239310D+03
0.197518532666D-05 0.000000000000D+00 0.000000000000D+00 0.165837657992D-07 0.000000000000D+00  7 2 -2 23 -11 11 23 21 0 0.15450018D+00 0.17368758D-01 0.80459196D+05 0.80459196D+05 0.80459196D+05 0.11295540D+01  1  2  2  1  7  1        2 0.158071980242D-03 0.100000000000D+01
-.105809122428D-06 0.000000000000D+00 -.758523173261D-08 0.165837657992D-07 0.000000000000D+00  7 2 -2 23 -11 11 23 21 2 0.15450018D+00 0.17368758D-01 0.80459196D+05 0.80459196D+05 0.80459196D+05 0.11295540D+01  1  2  3  1  7  1        2 -.108039894936D-04 0.100000000000D+01
0.123309725589D-06 0.000000000000D+00 0.000000000000D+00 0.165837657992D-07 0.000000000000D+00  7 2 -2 23 -11 11 23 21 2 0.15450018D+00 0.17368758D-01 0.80459196D+05 0.80459196D+05 0.80459196D+05 0.11295540D+01  1  2 15  1  7  1        2 0.125909463112D-04 0.100000000000D+01
  </mgrwgt>
  </event>
  <event>
  8     66 0.55102590E-06 0.79337871E+03 0.75467711E-02 0.88996286E-01
        2 -1    0    0  501    0 0.00000000E+00 0.00000000E+00 0.10543112E+04 0.10543112E+04 0.32000000E+00 0.0000E+00 0.9000E+01
       -2 -1    0    0    0  501 0.00000000E+00 0.00000000E+00 -.85813346E+03 0.85813352E+03 0.32000000E+00 0.0000E+00 0.9000E+01
       25  2    1    2    0    0 -.59220252E+03 0.48411419E+03 0.62375354E+03 0.10316392E+04 0.30023431E+03 0.0000E+00 0.0000E+00
       23  2    1    2    0    0 0.59220252E+03 -.48411419E+03 -.42757584E+03 0.88080551E+03 0.89032922E+02 0.0000E+00 0.0000E+00
       23  1    3    3    0    0 -.29117425E+03 0.92609738E+02 0.22244104E+03 0.38878565E+03 0.91188000E+02 0.0000E+00 0.9000E+01
      -11  1    4    4    0    0 0.53702055E+03 -.45142015E+03 -.41604379E+03 0.81563696E+03 0.51099893E-03 0.0000E+00 0.9000E+01
       11  1    4    4    0    0 0.55181977E+02 -.32694040E+02 -.11532051E+02 0.65168543E+02 0.51099893E-03 0.0000E+00 0.9000E+01
       23  1    3    3    0    0 -.30102827E+03 0.39150446E+03 0.40131250E+03 0.64285358E+03 0.91188000E+02 0.0000E+00 0.9000E+01
#aMCatNLO 1  0  0  2  2 0.10578815D+03 0.00000000D+00  -5  7  0 0.00000000D+00 0.00000000D+00 0.00000000D+00 0.00000000D+00 0.00000000D+00
  <mgrwgt>
 0.2990700849D-03    4    2    0
 0.951178108845455D+03 0.000000000000000D+00 0.000000000000000D+00 0.951178108845455D+03
 0.951178108845455D+03 0.000000000000000D+00 0.000000000000000D+00 -.951178108845455D+03
 0.367908535477031D+03 -.291174254293085D+03 0.926097383852386D+02 0.183527733942142D+03
 0.862866331701831D+03 0.537020545509029D+03 -.451420154326096D+03 -.502361507635650D+03
 0.667033690495234D+02 0.551819768528157D+02 -.326940403087811D+02 -.183136179238297D+02
 0.604877981462524D+03 -.301028268068760D+03 0.391504456249638D+03 0.337147391617338D+03
 0.000000000000000D+00 0.000000000000000D+00 0.000000000000000D+00 0.000000000000000D+00
 0.108709708166981D+04 0.000000000000000D+00 0.000000000000000D+00 0.108709708166981D+04
 0.973456853466464D+03 0.000000000000000D+00 0.000000000000000D+00 -.973456853466464D+03
 0.365901548050283D+03 -.294337369195934D+03 0.724691347435066D+02 0.183527733942142D+03
 0.884365233675690D+03 0.529489040658880D+03 -.499375748312263D+03 -.502361507635650D+03
 0.681263975349523D+02 0.546007882679150D+02 -.363946611490289D+02 -.183136179238297D+02
 0.586902154978276D+03 -.306165479446907D+03 0.358794124387253D+03 0.337147391617338D+03
 0.155258600897076D+03 0.164130197160463D+02 0.104507150330533D+03 0.113640228203351D+03
0.333923409441D-03 0.000000000000D+00 0.000000000000D+00 0.214446891172D-05 0.000000000000D+00  7 2 -2 23 -11 11 23 21 0 0.16220173D+00 0.13202054D+00 0.62944977D+06 0.62944977D+06 0.62944977D+06 0.10615145D+01  1  2  2  2  7  2       -2 0.390972771563D-03 0.100000000000D+01
-.178090789199D-04 0.000000000000D+00 -.128235381630D-05 0.214446891172D-05 0.000000000000D+00  7 2 -2 23 -11 11 23 21 2 0.16220173D+00 0.13202054D+00 0.62944977D+06 0.62944977D+06 0.62944977D+06 0.10615145D+01  1  2  3  2  7  2       -2 -.234959481968D-04 0.100000000000D+01
0.213117315545D-04 0.000000000000D+00 0.000000000000D+00 0.214446891172D-05 0.000000000000D+00  7 2 -2 23 -11 11 23 21 2 0.16220173D+00 0.13202054D+00 0.62944977D+06 0.62944977D+06 0.62944977D+06 0.10615145D+01  1  2 15  2  7  2       -2 0.281170824634D-04 0.100000000000D+01
-.731615651628D-04 0.000000000000D+00 0.000000000000D+00 0.214446891172D-05 0.000000000000D+00  7 2 -2 23 -11 11 23 21 2 0.16220173D+00 0.13202054D+00 0.62944977D+06 0.62944977D+06 0.62944977D+06 0.10615145D+01  1  2  4  2  7  2       -2 -.965238209564D-04 0.100000000000D+01
  </mgrwgt>
  </event>
  <event>
  8     66 0.55102590E-06 0.30954095E+03 0.75467711E-02 0.91392953E-01
        2 -1    0    0  501    0 0.00000000E+00 0.00000000E+00 0.19096477E+04 0.19096477E+04 0.32000000E+00 0.0000E+00 0.9000E+01
       -2 -1    0    0    0  501 0.00000000E+00 0.00000000E+00 -.63123829E+02 0.63124640E+02 0.32000000E+00 0.0000E+00 0.9000E+01
       25  2    1    2    0    0 -.27243955E+02 -.23506651E+03 0.14655520E+04 0.15144619E+04 0.29958961E+03 0.0000E+00 0.0000E+00
       23  2    1    2    0    0 0.27243955E+02 0.23506651E+03 0.38097190E+03 0.45831041E+03 0.94394648E+02 0.0000E+00 0.0000E+00
       23  1    3    3    0    0 0.63938574E+01 0.25866902E+02 0.52629016E+03 0.53479581E+03 0.91188000E+02 0.0000E+00 0.9000E+01
      -13  1    4    4    0    0 -.21780248E+02 0.85845833E+02 0.19969192E+03 0.21845082E+03 0.10565837E+00 0.0000E+00 0.9000E+01
       13  1    4    4    0    0 0.49024203E+02 0.14922067E+03 0.18127998E+03 0.23985959E+03 0.10565837E+00 0.0000E+00 0.9000E+01
       23  1    3    3    0    0 -.33637812E+02 -.26093341E+03 0.93926180E+03 0.97966613E+03 0.91188000E+02 0.0000E+00 0.9000E+01
#aMCatNLO 1  0  0  2  1 0.54025688D+03 0.00000000D+00  -5  7  0 0.00000000D+00 0.00000000D+00 0.00000000D+00 0.00000000D+00 0.00000000D+00
  <mgrwgt>
 0.1876823405D-03    5    2    0
 0.347196054895975D+03 0.000000000000000D+00 0.000000000000000D+00 0.347196054895975D+03
 0.347196054895975D+03 0.000000000000000D+00 0.000000000000000D+00 -.347196054895975D+03
 0.119850236682729D+03 0.639385731436974D+01 0.258669014571958D+02 0.730674338303552D+02
 0.896003053303293D+02 -.217803320064460D+02 0.858457521269086D+02 -.135771386802444D+02
 0.199383979090355D+03 0.490242872174105D+02 0.149220757383698D+03 -.122815943372851D+03
 0.285557588688538D+03 -.336378125253342D+02 -.260933410967803D+03 0.633256482227399D+02
 0.000000000000000D+00 0.000000000000000D+00 0.000000000000000D+00 -.000000000000000D+00
 0.643912515689962D+03 0.000000000000000D+00 0.000000000000000D+00 0.643912515689962D+03
 0.797578786891631D+03 0.000000000000000D+00 0.000000000000000D+00 -.797578786891631D+03
 0.139793758432745D+03 -.764094231754955D+02 -.705646626771008D+01 0.730674338303552D+02
 0.104594240452481D+03 -.837110746639246D+02 0.612215029193154D+02 -.135771386802444D+02
 0.174283929781596D+03 -.701424535909988D+02 0.101838933801310D+03 -.122815943372851D+03
 0.461133676164809D+03 -.271765739248563D+03 -.355615327562133D+03 0.633256482227399D+02
 0.561685697749962D+03 0.502028690678982D+03 0.199611357109217D+03 -.153666271201669D+03
0.254453352325D-05 0.000000000000D+00 0.000000000000D+00 0.430339513862D-07 0.000000000000D+00  7 2 -2 23 -13 13 23 21 0 0.29379201D+00 0.97114228D-02 0.95815598D+05 0.95815598D+05 0.95815598D+05 0.11232486D+01  1  2  2  2  7  2       -2 0.161426038659D-03 0.100000000000D+01
-.139097832979D-06 0.000000000000D+00 -.977167872033D-08 0.430339513862D-07 0.000000000000D+00  7 2 -2 23 -13 13 23 21 2 0.29379201D+00 0.97114228D-02 0.95815598D+05 0.95815598D+05 0.95815598D+05 0.11232486D+01  1  2  3  2  7  2       -2 -.111336497326D-04 0.100000000000D+01
0.159103216903D-06 0.000000000000D+00 0.000000000000D+00 0.430339513862D-07 0.000000000000D+00  7 2 -2 23 -13 13 23 21 2 0.29379201D+00 0.97114228D-02 0.95815598D+05 0.95815598D+05 0.95815598D+05 0.11232486D+01  1  2 15  2  7  2       -2 0.127349179379D-04 0.100000000000D+01
0.176820302921D-05 0.000000000000D+00 -.111827265182D-05 0.430339513862D-07 0.000000000000D+00  7 2 -2 23 -13 13 23 21 2 0.29379201D+00 0.50933583D-01 0.95815598D+05 0.95815598D+05 0.95815598D+05 0.11232486D+01  1  2  5  2  7  2       -2 0.844164150416D-05 0.100000000000D+01
0.315976295136D-06 0.000000000000D+00 -.226417008602D-06 0.430339513862D-07 0.000000000000D+00  7 2 21 23 -13 13 23 2 2 0.29379201D+00 0.50933583D-01 0.95815598D+05 0.95815598D+05 0.95815598D+05 0.11232486D+01  1  2  5  4  7  2       -2 0.162133921766D-04 0.100000000000D+01
  </mgrwgt>
  </event>
  <event>
  8     66 0.55102590E-06 0.18769145E+03 0.75467711E-02 0.99369545E-01
        2 -1    0    0  501    0 0.00000000E+00 0.00000000E+00 0.33382481E+04 0.33382481E+04 0.32000000E+00 0.0000E+00 0.9000E+01
       -2 -1    0    0    0  501 0.00000000E+00 0.00000000E+00 -.13589972E+02 0.13593739E+02 0.32000000E+00 0.0000E+00 0.9000E+01
       25  2    1    2    0    0 -.30523333E+02 0.45961308E+02 0.27574510E+04 0.27743607E+04 0.30082713E+03 0.0000E+00 0.0000E+00
       23  2    1    2    0    0 0.30523333E+02 -.45961308E+02 0.56720711E+03 0.57748117E+03 0.93362106E+02 0.0000E+00 0.0000E+00
       23  1    3    3    0    0 -.11811886E+03 -.35190056E+02 0.15616504E+04 0.15691583E+04 0.91188000E+02 0.0000E+00 0.9000E+01
      -13  1    4    4    0    0 -.81014568E+01 -.28140639E+02 0.45928723E+02 0.54470065E+02 0.10565837E+00 0.0000E+00 0.9000E+01
       13  1    4    4    0    0 0.38624790E+02 -.17820669E+02 0.52127839E+03 0.52301111E+03 0.10565837E+00 0.0000E+00 0.9000E+01
       23  1    3    3    0    0 0.87595532E+02 0.81151364E+02 0.11958006E+04 0.12052024E+04 0.91188000E+02 0.0000E+00 0.9000E+01
#aMCatNLO 1  0  0  2  1 0.24005873D+03 0.00000000D+00  -5  7  0 0.00000000D+00 0.00000000D+00 0.00000000D+00 0.00000000D+00 0.00000000D+00
  <mgrwgt>
 0.3394495660D-03    5    2    0
 0.213009476572068D+03 0.000000000000000D+00 0.000000000000000D+00 0.213009476572068D+03
 0.213009476572068D+03 0.000000000000000D+00 0.000000000000000D+00 -.213009476572068D+03
 0.158717553419873D+03 -.118119061826311D+03 -.351897590335991D+02 0.410557975445558D+02
 0.701324944309670D+02 -.810102555020444D+01 -.281409927017661D+02 -.637261695844313D+02
 0.468945708283317D+02 0.386247420375513D+02 -.178208928624516D+02 0.197394491638207D+02
 0.150274334464965D+03 0.875953453389645D+02 0.811516445978168D+02 0.293092287605488D+01
 0.000000000000000D+00 0.000000000000000D+00 -.000000000000000D+00 -.000000000000000D+00
 0.299229281274796D+03 0.000000000000000D+00 0.000000000000000D+00 0.299229281274796D+03
 0.507740086741553D+03 0.000000000000000D+00 0.000000000000000D+00 -.507740086741553D+03
 0.182466784055681D+03 -.144028108682209D+03 0.504896161307319D+02 0.410557975445558D+02
 0.666433626529876D+02 -.184875870089281D+02 0.620662729517685D+01 -.637261695844313D+02
 0.379153019012647D+02 0.321844025347120D+02 0.347685180250949D+01 0.197394491638207D+02
 0.201973876914866D+03 0.608461238445864D+02 0.169609417533949D+03 0.293092287605488D+01
 0.317970042491550D+03 0.694851693118387D+02 -.229782512762367D+03 -.208510805466757D+03
0.315960396352D-05 0.000000000000D+00 0.000000000000D+00 0.147088042686D-07 0.000000000000D+00  7 2 -2 23 -13 13 23 21 0 0.51357692D+00 0.20910559D-02 0.35228079D+05 0.35228079D+05 0.35228079D+05 0.11609176D+01  1  2  2  2  7  2       -2 0.294163021887D-03 0.100000000000D+01
-.172116288134D-06 0.000000000000D+00 -.121337111627D-07 0.147088042686D-07 0.000000000000D+00  7 2 -2 23 -13 13 23 21 2 0.51357692D+00 0.20910559D-02 0.35228079D+05 0.35228079D+05 0.35228079D+05 0.11609176D+01  1  2  3  2  7  2       -2 -.215963408457D-04 0.100000000000D+01
0.200683780928D-06 0.000000000000D+00 0.000000000000D+00 0.147088042686D-07 0.000000000000D+00  7 2 -2 23 -13 13 23 21 2 0.51357692D+00 0.20910559D-02 0.35228079D+05 0.35228079D+05 0.35228079D+05 0.11609176D+01  1  2 15  2  7  2       -2 0.251808552351D-04 0.100000000000D+01
0.101293250313D-05 0.000000000000D+00 -.133178578605D-05 0.147088042686D-07 0.000000000000D+00  7 2 -2 23 -13 13 23 21 2 0.51357692D+00 0.10195978D-01 0.35228079D+05 0.35228079D+05 0.35228079D+05 0.11609176D+01  1  2  5  2  7  2       -2 0.122615167423D-04 0.100000000000D+01
0.163807956345D-06 0.000000000000D+00 -.256755163801D-06 0.147088042686D-07 0.000000000000D+00  7 2 21 23 -13 13 23 2 2 0.51357692D+00 0.10195978D-01 0.35228079D+05 0.35228079D+05 0.35228079D+05 0.11609176D+01  1  2  5  4  7  2       -2 0.294405129815D-04 0.100000000000D+01
  </mgrwgt>
  </event>
  <event>
  8     66 0.55102590E-06 0.28556506E+03 0.75467711E-02 0.96176668E-01
        2 -1    0    0  501    0 0.00000000E+00 0.00000000E+00 0.36957565E+04 0.36957565E+04 0.32000000E+00 0.0000E+00 0.9000E+01
       -2 -1    0    0    0  501 0.00000000E+00 0.00000000E+00 -.84293793E+02 0.84294400E+02 0.32000000E+00 0.0000E+00 0.9000E+01
       25  2    1    2    0    0 -.31741347E+03 -.18495836E+03 0.31382894E+04 0.31740276E+04 0.30104802E+03 0.0000E+00 0.0000E+00
       23  2    1    2    0    0 0.31741347E+03 0.18495836E+03 0.47317325E+03 0.60602327E+03 0.91708020E+02 0.0000E+00 0.0000E+00
       23  1    3    3    0    0 0.10985249E+02 -.11845446E+02 0.63653787E+03 0.64323922E+03 0.91188000E+02 0.0000E+00 0.9000E+01
      -11  1    4    4    0    0 0.27406318E+03 0.18253838E+03 0.44745543E+03 0.55556030E+03 0.51099893E-03 0.0000E+00 0.9000E+01
       11  1    4    4    0    0 0.43350294E+02 0.24199827E+01 0.25717825E+02 0.50462966E+02 0.51099893E-03 0.0000E+00 0.9000E+01
       23  1    3    3    0    0 -.32839872E+03 -.17311292E+03 0.25017516E+04 0.25307884E+04 0.91188000E+02 0.0000E+00 0.9000E+01
#aMCatNLO 1  0  0  1  2 0.25111708D+02 0.00000000D+00  -5  7  0 0.00000000D+00 0.00000000D+00 0.00000000D+00 0.00000000D+00 0.00000000D+00
  <mgrwgt>
 0.6627401495D-03    9    2    0
 0.558149177124873D+03 0.000000000000000D+00 0.000000000000000D+00 0.558149177124873D+03
 0.558149177124873D+03 0.000000000000000D+00 0.000000000000000D+00 -.558149177124873D+03
 0.118825081936502D+03 0.109852487187940D+02 -.118454462881740D+02 0.744523905998773D+02
 0.433645379296774D+03 0.274063177594741D+03 0.182538382140324D+03 -.282165605128813D+03
 0.876769281991909D+02 0.433502944124789D+02 0.241998268015023D+01 -.761717755906034D+02
 0.476150964817278D+03 -.328398720726014D+03 -.173112918532301D+03 0.283884990119539D+03
 0.000000000000000D+00 -.000000000000000D+00 -.000000000000000D+00 0.000000000000000D+00
 0.578817885476238D+03 0.000000000000000D+00 0.000000000000000D+00 0.578817885476238D+03
 0.565970299931380D+03 0.000000000000000D+00 0.000000000000000D+00 -.565970299931380D+03
 0.118930404224840D+03 0.132798394243797D+02 -.104726837014088D+02 0.744523905998773D+02
 0.441153915778105D+03 0.282505911615901D+03 0.187589334959947D+03 -.282165605128813D+03
 0.885639162919181D+02 0.450512040749354D+02 0.343756945168370D+01 -.761717755906034D+02
 0.467932532655398D+03 -.319287321222376D+03 -.167661929682212D+03 0.283884990119539D+03
 0.282074164573567D+02 -.215496338928397D+02 -.128922910280097D+02 0.128475855448575D+02
0.564295630299D-04 0.000000000000D+00 0.000000000000D+00 0.522798847780D-06 0.000000000000D+00  7 2 -2 23 -11 11 23 21 0 0.56857797D+00 0.12968324D-01 0.17959904D+06 0.17959904D+06 0.17959904D+06 0.11014322D+01  1  2  2  1  7  1        2 0.177811255821D-03 0.100000000000D+01
-.284590977546D-05 0.000000000000D+00 -.216704380280D-06 0.522798847780D-06 0.000000000000D+00  7 2 -2 23 -11 11 23 21 2 0.56857797D+00 0.12968324D-01 0.17959904D+06 0.17959904D+06 0.17959904D+06 0.11014322D+01  1  2  3  1  7  1        2 -.108790061195D-04 0.100000000000D+01
0.358640976571D-05 0.000000000000D+00 0.000000000000D+00 0.522798847780D-06 0.000000000000D+00  7 2 -2 23 -11 11 23 21 2 0.56857797D+00 0.12968324D-01 0.17959904D+06 0.17959904D+06 0.17959904D+06 0.11014322D+01  1  2 15  1  7  1        2 0.137097015951D-04 0.100000000000D+01
0.869452619189D-04 0.000000000000D+00 0.000000000000D+00 0.522798847780D-06 0.000000000000D+00  7 2 -2 23 -11 11 23 21 2 0.59351275D+00 0.12968324D-01 0.19102753D+06 0.19102753D+06 0.19102753D+06 0.10993597D+01  1  2 12  1  7  1        2 0.248087473308D-03 0.100000000000D+01
-.843467117074D-04 0.000000000000D+00 0.000000000000D+00 0.522798847780D-06 0.000000000000D+00  7 2 -2 23 -11 11 23 21 2 0.56857797D+00 0.12968324D-01 0.17959904D+06 0.17959904D+06 0.17959904D+06 0.11014322D+01  1  2  4  1  7  1        2 -.322430598727D-03 0.100000000000D+01
-.610746044196D-03 0.000000000000D+00 -.869345523426D-04 0.522798847780D-06 0.000000000000D+00  7 2 -2 23 -11 11 23 21 2 0.59148047D+00 0.12968324D-01 0.17959904D+06 0.17959904D+06 0.17959904D+06 0.11014322D+01  1  2  5  1  7  1        2 -.179881828992D-02 0.100000000000D+01
0.616179668459D-03 0.000000000000D+00 0.880169450794D-04 0.522798847780D-06 0.000000000000D+00  7 2 -2 23 -11 11 23 21 2 0.56857797D+00 0.12968324D-01 0.17959904D+06 0.17959904D+06 0.17959904D+06 0.11014322D+01  1  2  6  1  7  1        2 0.235545850458D-02 0.100000000000D+01
0.136632753666D-05 0.000000000000D+00 0.000000000000D+00 0.522798847780D-06 0.000000000000D+00  7 21 -2 23 -11 11 23 -2 2 0.59351275D+00 0.12968324D-01 0.19102753D+06 0.19102753D+06 0.19102753D+06 0.10993597D+01  1  2 12  3  7  1        2 0.886984841239D-07 0.100000000000D+01
-.421762164214D-05 0.000000000000D+00 -.607227420271D-06 0.522798847780D-06 0.000000000000D+00  7 21 -2 23 -11 11 23 -2 2 0.59148047D+00 0.12968324D-01 0.17959904D+06 0.17959904D+06 0.17959904D+06 0.11014322D+01  1  2  5  3  7  1        2 -.287589550161D-06 0.100000000000D+01
  </mgrwgt>
  </event>
  <event>
  8     66 0.55102590E-06 0.23887867E+03 0.75467711E-02 0.93966844E-01
        2 -1    0    0  501    0 0.00000000E+00 0.00000000E+00 0.24463541E+03 0.24463562E+03 0.32000000E+00 0.0000E+00 0.9000E+01
       -2 -1    0    0    0  501 0.00000000E+00 0.00000000E+00 -.76006345E+03 0.76006352E+03 0.32000000E+00 0.0000E+00 0.9000E+01
       25  2    1    2    0    0 0.11551250E+03 -.11954390E+03 0.10413000E+03 0.35674768E+03 0.29797981E+03 0.0000E+00 0.0000E+00
       23  2    1    2    0    0 -.11551250E+03 0.11954390E+03 -.61955805E+03 0.64795146E+03 0.91405918E+02 0.0000E+00 0.0000E+00
       23  1    3    3    0    0 0.14356598E+03 -.23074394E+02 -.20071857E+02 0.17280552E+03 0.91188000E+02 0.0000E+00 0.9000E+01
      -13  1    4    4    0    0 -.11563549E+03 0.10590565E+03 -.42648820E+03 0.45440045E+03 0.10565837E+00 0.0000E+00 0.9000E+01
       13  1    4    4    0    0 0.12299654E+00 0.13638254E+02 -.19306985E+03 0.19355101E+03 0.10565837E+00 0.0000E+00 0.9000E+01
       23  1    3    3    0    0 -.28053480E+02 -.96469507E+02 0.12420186E+03 0.18394216E+03 0.91188000E+02 0.0000E+00 0.9000E+01
#aMCatNLO 1  0  0  2  2 0.41545574D+03 0.00000000D+00  -5  7  0 0.00000000D+00 0.00000000D+00 0.00000000D+00 0.00000000D+00 0.00000000D+00
  <mgrwgt>
 0.2809180003D-03    5    2    0
 0.431205951293235D+03 0.000000000000000D+00 0.000000000000000D+00 0.431205951293235D+03
 0.431205951293235D+03 0.000000000000000D+00 0.000000000000000D+00 -.431205951293235D+03
 0.189320160060947D+03 0.143565975902417D+03 -.230743938122330D+02 0.798952725440441D+02
 0.274476675264040D+03 -.115635646541685D+03 0.105905769690969D+03 -.225277185837917D+03
 0.110094411395552D+03 0.123151070607420D+00 0.136381311174371D+02 -.109246352955009D+03
 0.288520655865932D+03 -.280534804313399D+02 -.964695069961729D+02 0.254628266248882D+03
 0.000000000000000D+00 0.000000000000000D+00 -.000000000000000D+00 -.000000000000000D+00
 0.561550803264550D+03 0.000000000000000D+00 0.000000000000000D+00 0.561550803264550D+03
 0.999037502737228D+03 0.000000000000000D+00 0.000000000000000D+00 -.999037502737228D+03
 0.167299653226575D+03 0.104620258743485D+03 0.484279827299417D+02 0.798952725440441D+02
 0.376114829142791D+03 -.186685408143698D+03 0.236349556014562D+03 -.225277185837917D+03
 0.127944610527221D+03 -.258726014792345D+02 0.613650244169144D+02 -.109246352955009D+03
 0.285906678878784D+03 -.907855095384561D+02 0.187033411033234D+02 0.254628266248882D+03
 0.603322534226409D+03 0.198723260417904D+03 -.364845904264741D+03 -.437486699472678D+03
0.273328368336D-04 0.000000000000D+00 0.000000000000D+00 0.965799492997D-07 0.000000000000D+00  7 2 -2 23 -13 13 23 21 0 0.37636238D-01 0.11693286D+00 0.57063020D+05 0.57063020D+05 0.57063020D+05 0.11422818D+01  1  2  2  2  7  2       -2 0.268831985734D-03 0.100000000000D+01
-.874433240979D-06 0.000000000000D+00 -.104965290342D-06 0.965799492997D-07 0.000000000000D+00  7 2 -2 23 -13 13 23 21 2 0.37636238D-01 0.11693286D+00 0.57063020D+05 0.57063020D+05 0.57063020D+05 0.11422818D+01  1  2  3  2  7  2       -2 -.112219778215D-04 0.100000000000D+01
0.168636858980D-05 0.000000000000D+00 0.000000000000D+00 0.965799492997D-07 0.000000000000D+00  7 2 -2 23 -13 13 23 21 2 0.37636238D-01 0.11693286D+00 0.57063020D+05 0.57063020D+05 0.57063020D+05 0.11422818D+01  1  2 15  2  7  2       -2 0.216418933165D-04 0.100000000000D+01
-.515740043801D-06 0.000000000000D+00 -.773845697282D-05 0.965799492997D-07 0.000000000000D+00  7 2 -2 23 -13 13 23 21 2 0.37636238D-01 0.30496168D+00 0.57063020D+05 0.57063020D+05 0.57063020D+05 0.11422818D+01  1  2  5  2  7  2       -2 -.324427540369D-06 0.100000000000D+01
0.410205307183D-06 0.000000000000D+00 -.822333142239D-06 0.965799492997D-07 0.000000000000D+00  7 2 21 23 -13 13 23 2 2 0.37636238D-01 0.30496168D+00 0.57063020D+05 0.57063020D+05 0.57063020D+05 0.11422818D+01  1  2  5  4  7  2       -2 0.199052664155D-05 0.100000000000D+01
  </mgrwgt>
  </event>
  <event>
  8     66 0.55102590E-06 0.32320518E+03 0.75467711E-02 0.92207395E-01
        2 -1    0    0  501    0 0.00000000E+00 0.00000000E+00 0.10347986E+04 0.10347986E+04 0.32000000E+00 0.0000E+00 0.9000E+01
       -2 -1    0    0    0  501 0.00000000E+00 0.00000000E+00 -.34906410E+03 0.34906425E+03 0.32000000E+00 0.0000E+00 0.9000E+01
       25  2    1    2    0    0 -.12612601E+03 -.51667225E+03 0.56264713E+03 0.83030161E+03 0.29995162E+03 0.0000E+00 0.0000E+00
       23  2    1    2    0    0 0.12612601E+03 0.51667225E+03 0.12308734E+03 0.55356126E+03 0.91769245E+02 0.0000E+00 0.0000E+00
       23  1    3    3    0    0 -.48524332E+00 -.31069270E+02 0.55411481E+02 0.11113604E+03 0.91188000E+02 0.0000E+00 0.9000E+01
      -11  1    4    4    0    0 0.12113658E+03 0.51484089E+03 0.13019243E+03 0.54468824E+03 0.51099893E-03 0.0000E+00 0.9000E+01
       11  1    4    4    0    0 0.49894290E+01 0.18313587E+01 -.71050835E+01 0.88730202E+01 0.51099893E-03 0.0000E+00 0.9000E+01
       23  1    3    3    0    0 -.12564076E+03 -.48560298E+03 0.50723565E+03 0.71916557E+03 0.91188000E+02 0.0000E+00 0.9000E+01
#aMCatNLO 1  0  0  1  2 0.10055774D+03 0.00000000D+00  -5  7  0 0.00000000D+00 0.00000000D+00 0.00000000D+00 0.00000000D+00 0.00000000D+00
  <mgrwgt>
 0.5345256930D-03    9    2    0
 0.601008459105790D+03 0.000000000000000D+00 0.000000000000000D+00 0.601008459105790D+03
 0.601008459105790D+03 0.000000000000000D+00 0.000000000000000D+00 -.601008459105790D+03
 0.963376386112899D+02 -.485243317125025D+00 -.310692704050675D+02 0.392739887804716D+00
 0.552817844981625D+03 0.121136578700819D+03 0.514840893135529D+03 -.160848853854166D+03
 0.142687208774808D+02 0.498942903712095D+01 0.183135867093922D+01 -.132419076715316D+02
 0.538592713741185D+03 -.125640764420815D+03 -.485602981401401D+03 0.173698021637893D+03
 0.000000000000000D+00 0.000000000000000D+00 -.000000000000000D+00 0.000000000000000D+00
 0.721876264034201D+03 0.000000000000000D+00 0.000000000000000D+00 0.721876264034201D+03
 0.624392727328220D+03 0.000000000000000D+00 0.000000000000000D+00 -.624392727328220D+03
 0.961367775027832D+02 -.832165782168599D+01 -.292852251331440D+02 0.392739887804716D+00
 0.554428579872234D+03 0.760560837497102D+02 0.525103959723787D+03 -.160848853854166D+03
 0.139455838169411D+02 0.384071020473113D+01 0.209287704780681D+01 -.132419076715316D+02
 0.541704848401251D+03 -.169624061817584D+03 -.475589703808870D+03 0.173698021637893D+03
 0.140053201769212D+03 0.980489256848288D+02 -.223219078295797D+02 0.974835367059811D+02
0.366721614637D-04 0.000000000000D+00 0.000000000000D+00 0.271064011472D-05 0.000000000000D+00  7 2 -2 23 -11 11 23 21 0 0.15919980D+00 0.53702184D-01 0.32510896D+06 0.32510896D+06 0.32510896D+06 0.10819787D+01  1  2  2  1  7  1        2 0.362718347608D-03 0.100000000000D+01
-.203047538775D-05 0.000000000000D+00 -.140830756023D-06 0.271064011472D-05 0.000000000000D+00  7 2 -2 23 -11 11 23 21 2 0.15919980D+00 0.53702184D-01 0.32510896D+06 0.32510896D+06 0.32510896D+06 0.10819787D+01  1  2  3  1  7  1        2 -.235108391633D-04 0.100000000000D+01
0.230771504319D-05 0.000000000000D+00 0.000000000000D+00 0.271064011472D-05 0.000000000000D+00  7 2 -2 23 -11 11 23 21 2 0.15919980D+00 0.53702184D-01 0.32510896D+06 0.32510896D+06 0.32510896D+06 0.10819787D+01  1  2 15  1  7  1        2 0.267209923069D-04 0.100000000000D+01
0.735402482849D-04 0.000000000000D+00 0.000000000000D+00 0.271064011472D-05 0.000000000000D+00  7 2 -2 23 -11 11 23 21 2 0.19387843D+00 0.53702184D-01 0.38735219D+06 0.38735219D+06 0.38735219D+06 0.10764350D+01  1  2 12  1  7  1        2 0.616132861732D-03 0.100000000000D+01
-.748043730435D-04 0.000000000000D+00 0.000000000000D+00 0.271064011472D-05 0.000000000000D+00  7 2 -2 23 -11 11 23 21 2 0.15919980D+00 0.53702184D-01 0.32510896D+06 0.32510896D+06 0.32510896D+06 0.10819787D+01  1  2  4  1  7  1        2 -.866158533096D-03 0.100000000000D+01
-.125630121004D-03 0.000000000000D+00 -.237537340535D-04 0.271064011472D-05 0.000000000000D+00  7 2 -2 23 -11 11 23 21 2 0.19486369D+00 0.53702184D-01 0.32510896D+06 0.32510896D+06 0.32510896D+06 0.10819787D+01  1  2  5  1  7  1        2 -.106162861871D-02 0.100000000000D+01
0.128279153609D-03 0.000000000000D+00 0.232765642142D-04 0.271064011472D-05 0.000000000000D+00  7 2 -2 23 -11 11 23 21 2 0.15919980D+00 0.53702184D-01 0.32510896D+06 0.32510896D+06 0.32510896D+06 0.10819787D+01  1  2  6  1  7  1        2 0.148534208625D-02 0.100000000000D+01
0.208077903754D-05 0.000000000000D+00 0.000000000000D+00 0.271064011472D-05 0.000000000000D+00  7 21 -2 23 -11 11 23 -2 2 0.19387843D+00 0.53702184D-01 0.38735219D+06 0.38735219D+06 0.38735219D+06 0.10764350D+01  1  2 12  3  7  1        2 0.820259545525D-05 0.100000000000D+01
-.334596411327D-05 0.000000000000D+00 -.685323018364D-06 0.271064011472D-05 0.000000000000D+00  7 21 -2 23 -11 11 23 -2 2 0.19486369D+00 0.53702184D-01 0.32510896D+06 0.32510896D+06 0.32510896D+06 0.10819787D+01  1  2  5  3  7  1        2 -.132931993357D-04 0.100000000000D+01
  </mgrwgt>
  </event>
  <event>
  8     66 0.55102590E-06 0.43875162E+03 0.75467711E-02 0.93270387E-01
        2 -1    0    0  501    0 0.00000000E+00 0.00000000E+00 0.15806734E+04 0.15806735E+04 0.32000000E+00 0.0000E+00 0.9000E+01
       -2 -1    0    0    0  501 0.00000000E+00 0.00000000E+00 -.74999171E+03 0.74999178E+03 0.32000000E+00 0.0000E+00 0.9000E+01
       25  2    1    2    0    0 0.35812081E+03 -.19340234E+03 0.14774740E+04 0.15613306E+04 0.29861182E+03 0.0000E+00 0.0000E+00
       23  2    1    2    0    0 -.35812081E+03 0.19340234E+03 -.64679225E+03 0.76933463E+03 0.88772630E+02 0.0000E+00 0.0000E+00
       23  1    3    3    0    0 0.17030434E+03 -.16092549E+03 0.48152090E+03 0.54321102E+03 0.91188000E+02 0.0000E+00 0.9000E+01
      -11  1    4    4    0    0 -.36124724E+03 0.18509560E+03 -.61949615E+03 0.74063178E+03 0.51099893E-03 0.0000E+00 0.9000E+01
       11  1    4    4    0    0 0.31264371E+01 0.83067416E+01 -.27296098E+02 0.28702849E+02 0.51099893E-03 0.0000E+00 0.9000E+01
       23  1    3    3    0    0 0.18781647E+03 -.32476848E+02 0.99595305E+03 0.10181196E+04 0.91188000E+02 0.0000E+00 0.9000E+01
#aMCatNLO 1  0  0  1  1 0.22286016D+03 0.00000000D+00  -5  7  0 0.00000000D+00 0.00000000D+00 0.00000000D+00 0.00000000D+00 0.00000000D+00
  <mgrwgt>
 0.5806074667D-03    4    2    0
 0.108880305267336D+04 0.000000000000000D+00 0.000000000000000D+00 0.108880305267336D+04
 0.108880305267336D+04 0.000000000000000D+00 0.000000000000000D+00 -.108880305267336D+04
 0.397708492444339D+03 0.170304341259617D+03 -.160925493880240D+03 0.308149655826316D+03
 0.102900558856518D+04 -.361247243909609D+03 0.185095600592445D+03 -.945564671879937D+03
 0.411328304549356D+02 0.312643707862538D+01 0.830674160828139D+01 -.401638292034153D+02
 0.709759193882270D+03 0.187816465571366D+03 -.324768483204867D+02 0.677578845257036D+03
 0.000000000000000D+00 0.000000000000000D+00 -.000000000000000D+00 -.000000000000000D+00
 0.112817958256450D+04 0.000000000000000D+00 0.000000000000000D+00 0.112817958256450D+04
 0.146305302012283D+04 0.000000000000000D+00 0.000000000000000D+00 -.146305302012283D+04
 0.376403584090318D+03 0.148321971414715D+03 -.128096796141871D+03 0.308149655826316D+03
 0.107069069030397D+04 -.420872072875831D+03 0.274139934831413D+03 -.945564671879937D+03
 0.418760408714182D+02 0.769243895343347D+00 0.118269982080427D+02 -.401638292034153D+02
 0.700010041095580D+03 0.147783413951792D+03 0.273089236611596D+02 0.677578845257036D+03
 0.402252246326050D+03 0.123997443613981D+03 -.185179060558745D+03 -.334873437558328D+03
0.680493710595D-03 0.000000000000D+00 0.000000000000D+00 0.499508092767D-06 0.000000000000D+00  7 2 -2 23 -11 11 23 21 0 0.24318053D+00 0.11538335D+00 0.19250298D+06 0.19250298D+06 0.19250298D+06 0.10991020D+01  1  2  2  1  7  1        2 0.605223268559D-03 0.100000000000D+01
0.167022014542D-06 0.000000000000D+00 -.261327502679D-05 0.499508092767D-06 0.000000000000D+00  7 2 -2 23 -11 11 23 21 2 0.24318053D+00 0.11538335D+00 0.19250298D+06 0.19250298D+06 0.19250298D+06 0.10991020D+01  1  2  3  1  7  1        2 0.179449074865D-06 0.100000000000D+01
0.410744186599D-04 0.000000000000D+00 0.000000000000D+00 0.499508092767D-06 0.000000000000D+00  7 2 -2 23 -11 11 23 21 2 0.24318053D+00 0.11538335D+00 0.19250298D+06 0.19250298D+06 0.19250298D+06 0.10991020D+01  1  2 15  1  7  1        2 0.441305084803D-04 0.100000000000D+01
-.641525691686D-04 0.000000000000D+00 0.000000000000D+00 0.499508092767D-06 0.000000000000D+00  7 2 -2 23 -11 11 23 21 2 0.24318053D+00 0.11538335D+00 0.19250298D+06 0.19250298D+06 0.19250298D+06 0.10991020D+01  1  2  4  1  7  1        2 -.689257593921D-04 0.100000000000D+01
  </mgrwgt>
  </event>
  <event>
  9     66 0.55102590E-06 0.44640069E+03 0.75467711E-02 0.94700589E-01
        2 -1    0    0  501    0 0.00000000E+00 0.00000000E+00 0.18708483E+04 0.18708483E+04 0.32000000E+00 0.0000E+00 0.9000E+01
       -2 -1    0    0    0  502 0.00000000E+00 0.00000000E+00 -.27357327E+03 0.27357345E+03 0.32000000E+00 0.0000E+00 0.9000E+01
       25  2    1    2    0    0 -.30865478E+03 0.22841808E+03 0.14688838E+04 0.15477772E+04 0.30091867E+03 0.0000E+00 0.0000E+00
       23  2    1    2    0    0 0.37735709E+03 -.16457583E+03 -.18521206E+02 0.42234694E+03 0.92467999E+02 0.0000E+00 0.0000E+00
       23  1    3    3    0    0 -.24995363E+02 -.23262938E+02 0.26772145E+03 0.28487885E+03 0.91188000E+02 0.0000E+00 0.9000E+01
      -13  1    4    4    0    0 0.14824369E+03 -.76059267E+02 0.36670159E+02 0.17060456E+03 0.10565837E+00 0.0000E+00 0.9000E+01
       13  1    4    4    0    0 0.22911339E+03 -.88516564E+02 -.55191365E+02 0.25174238E+03 0.10565837E+00 0.0000E+00 0.9000E+01
       23  1    3    3    0    0 -.28365942E+03 0.25168102E+03 0.12011623E+04 0.12628983E+04 0.91188000E+02 0.0000E+00 0.9000E+01
       21  1    1    2  501  502 -.68702304E+02 -.63842253E+02 0.14691247E+03 0.17429767E+03 0.75000000E+00 0.0000E+00 0.9000E+01
#aMCatNLO 2  0  0  2  1 0.93786138D+02 0.00000000D+00  -5  7  0 0.00000000D+00 0.00000000D+00 0.00000000D+00 0.00000000D+00 0.00000000D+00
  <mgrwgt>
 0.1170086993D-03    1    2    0
 0.665026621610829D+03 0.000000000000000D+00 0.000000000000000D+00 0.665026621610829D+03
 0.665026621610829D+03 0.000000000000000D+00 0.000000000000000D+00 -.665026621610829D+03
 0.132442757780631D+03 -.317576370549390D+02 -.295468444821384D+02 0.856987118594796D+02
 0.208711848498502D+03 0.137386438079142D+03 -.861483573046149D+02 -.131392780887323D+03
 0.425488294012861D+03 0.206994657466071D+03 -.109070719113030D+03 -.355383002343450D+03
 0.563410342929664D+03 -.312623458490274D+03 0.224765920899784D+03 0.401077071371294D+03
 0.000000000000000D+00 -.000000000000000D+00 -.000000000000000D+00 0.000000000000000D+00
 0.729282588578421D+03 0.000000000000000D+00 0.000000000000000D+00 0.729282588578421D+03
 0.701802360484118D+03 0.000000000000000D+00 0.000000000000000D+00 -.701802360484118D+03
 0.129712963958799D+03 -.249953627308025D+02 -.232629383904591D+02 0.856987118594796D+02
 0.212191502540571D+03 0.148243587809803D+03 -.760592502881694D+02 -.131392780887323D+03
 0.432001457045223D+03 0.229113499230486D+03 -.885165803955005D+02 -.355383002343450D+03
 0.559449794018366D+03 -.283659420538712D+03 0.251681021618756D+03 0.401077071371294D+03
 0.977292314995801D+02 -.687023037707742D+02 -.638422525446266D+02 0.274802280943026D+02
0.179620206194D-04 0.000000000000D+00 0.000000000000D+00 0.450044471899D-06 0.325351026515D-09  7 2 -2 23 -13 13 23 21 2 0.28782225D+00 0.42088126D-01 0.24672060D+06 0.24672060D+06 0.24672060D+06 0.10908908D+01  1  2  1  2  7  2       -2 0.117008699322D-03 0.100000000000D+01
  </mgrwgt>
  </event>
  <event>
  8     66 0.55102590E-06 0.24979364E+03 0.75467711E-02 0.88891867E-01
        2 -1    0    0  501    0 0.00000000E+00 0.00000000E+00 0.75350959E+03 0.75350966E+03 0.32000000E+00 0.0000E+00 0.9000E+01
       -2 -1    0    0    0  501 0.00000000E+00 0.00000000E+00 -.10990249E+04 0.10990250E+04 0.32000000E+00 0.0000E+00 0.9000E+01
       25  2    1    2    0    0 -.58110499E+01 -.19227843E+03 -.10540970E+04 0.11127030E+04 0.29997130E+03 0.0000E+00 0.0000E+00
       23  2    1    2    0    0 0.58110499E+01 0.19227843E+03 0.70858169E+03 0.73983159E+03 0.90873575E+02 0.0000E+00 0.0000E+00
       23  1    3    3    0    0 -.39594028E+02 -.14900302E+02 -.68024761E+03 0.68763491E+03 0.91188000E+02 0.0000E+00 0.9000E+01
      -13  1    4    4    0    0 0.19251321E+02 0.45762654E+02 0.32913256E+03 0.33285595E+03 0.10565837E+00 0.0000E+00 0.9000E+01
       13  1    4    4    0    0 -.13440271E+02 0.14651578E+03 0.37944913E+03 0.40697564E+03 0.10565837E+00 0.0000E+00 0.9000E+01
       23  1    3    3    0    0 0.33782979E+02 -.17737813E+03 -.37384942E+03 0.42506814E+03 0.91188000E+02 0.0000E+00 0.9000E+01
#aMCatNLO 1  0  0  2  2 0.81813032D+03 0.00000000D+00  -5  7  0 0.00000000D+00 0.00000000D+00 0.00000000D+00 0.00000000D+00 0.00000000D+00
  <mgrwgt>
 0.4674952669D-03    3    2    0
 0.910014249505982D+03 0.000000000000000D+00 0.000000000000000D+00 0.910014249505982D+03
 0.910014249505982D+03 0.000000000000000D+00 0.000000000000000D+00 -.910014249505982D+03
 0.570777601487519D+03 -.395940284593993D+02 -.149003018595236D+02 -.561855953898058D+03
 0.401283451438367D+03 0.192513651551888D+02 0.457625175266444D+02 0.398200433610479D+03
 0.486279288583510D+03 -.134403152544290D+02 0.146515911606959D+03 0.463486776593603D+03
 0.361688157502567D+03 0.337829785586395D+02 -.177378127274079D+03 -.299831256306024D+03
 0.000000000000000D+00 -.000000000000000D+00 0.000000000000000D+00 0.000000000000000D+00
 0.178395776235469D+04 0.000000000000000D+00 0.000000000000000D+00 0.178395776235469D+04
 0.121055871618456D+04 0.000000000000000D+00 0.000000000000000D+00 -.121055871618456D+04
 0.620383087216533D+03 0.114652776684065D+03 -.218477805344739D+03 -.561855953898058D+03
 0.428791852590322D+03 0.126740190877112D+03 -.961030256375964D+02 0.398200433610479D+03
 0.477006830414218D+03 0.111298359975108D+03 -.181162703540446D+02 0.463486776593603D+03
 0.469273305240686D+03 0.141386555507553D+03 -.319395121019685D+03 -.299831256306024D+03
 0.999061403077493D+03 -.494077883043838D+03 0.652092222356064D+03 0.573399046170133D+03
0.384935822976D-03 0.000000000000D+00 0.000000000000D+00 0.672577247870D-05 0.000000000000D+00  7 2 -2 23 -13 13 23 21 0 0.11592456D+00 0.16908077D+00 0.62396860D+05 0.62396860D+05 0.62396860D+05 0.11389292D+01  1  2  2  2  7  2       -2 0.404701452362D-03 0.100000000000D+01
0.220733935547D-04 0.000000000000D+00 -.147825491616D-05 0.672577247870D-05 0.000000000000D+00  7 2 -2 23 -13 13 23 21 2 0.11592456D+00 0.16908077D+00 0.62396860D+05 0.62396860D+05 0.62396860D+05 0.11389292D+01  1  2  3  2  7  2       -2 0.301029471021D-04 0.100000000000D+01
0.239710211789D-04 0.000000000000D+00 0.000000000000D+00 0.672577247870D-05 0.000000000000D+00  7 2 -2 23 -13 13 23 21 2 0.11592456D+00 0.16908077D+00 0.62396860D+05 0.62396860D+05 0.62396860D+05 0.11389292D+01  1  2 15  2  7  2       -2 0.326908674348D-04 0.100000000000D+01
  </mgrwgt>
  </event>
  <event>
  8     66 0.55102590E-06 0.25300194E+03 0.75467711E-02 0.90622276E-01
        2 -1    0    0  501    0 0.00000000E+00 0.00000000E+00 0.48673586E+03 0.48673596E+03 0.32000000E+00 0.0000E+00 0.9000E+01
       -2 -1    0    0    0  501 0.00000000E+00 0.00000000E+00 -.14647604E+03 0.14647639E+03 0.32000000E+00 0.0000E+00 0.9000E+01
       25  2    1    2    0    0 -.14818470E+03 -.40269157E+02 0.29767870E+03 0.44866834E+03 0.29851359E+03 0.0000E+00 0.0000E+00
       23  2    1    2    0    0 0.14818470E+03 0.40269157E+02 0.42581120E+02 0.18454401E+03 0.93075391E+02 0.0000E+00 0.0000E+00
       23  1    3    3    0    0 0.11364099E+02 -.10513558E+03 0.14295279E+03 0.19983339E+03 0.91188000E+02 0.0000E+00 0.9000E+01
      -11  1    4    4    0    0 0.95514122E+02 -.13213613E+02 -.34585599E+01 0.96485796E+02 0.51099893E-03 0.0000E+00 0.9000E+01
       11  1    4    4    0    0 0.52670578E+02 0.53482770E+02 0.46039680E+02 0.88058211E+02 0.51099893E-03 0.0000E+00 0.9000E+01
       23  1    3    3    0    0 -.15954880E+03 0.64866427E+02 0.15472591E+03 0.24883495E+03 0.91188000E+02 0.0000E+00 0.9000E+01
#aMCatNLO 1  0  0  1  2 0.63234779D+03 0.00000000D+00  -5  7  0 0.00000000D+00 0.00000000D+00 0.00000000D+00 0.00000000D+00 0.00000000D+00
  <mgrwgt>
 0.1446315902D-03    5    2    0
 0.267011766299544D+03 0.000000000000000D+00 0.000000000000000D+00 0.267011766299544D+03
 0.267011766299544D+03 0.000000000000000D+00 0.000000000000000D+00 -.267011766299544D+03
 0.145866009759864D+03 0.113640986068067D+02 -.105135584327199D+03 0.421782838709440D+02
 0.116610603548015D+03 0.955141224926489D+02 -.132136125008037D+02 -.655780886346205D+02
 0.750792635133424D+02 0.526705779723592D+02 0.534827696367629D+02 -.151636992337104D+01
 0.196467655777866D+03 -.159548799071815D+03 0.648664271912396D+02 0.249161746870475D+02
 0.000000000000000D+00 -.000000000000000D+00 0.000000000000000D+00 0.000000000000000D+00
 0.888494367665920D+03 0.000000000000000D+00 0.000000000000000D+00 0.888494367665920D+03
 0.624443776667624D+03 0.000000000000000D+00 0.000000000000000D+00 -.624443776667624D+03
 0.239532085454484D+03 0.190335978858236D+03 -.105135988795242D+03 0.421782838709440D+02
 0.293833064010613D+03 0.286116711951232D+03 -.132140432537032D+02 -.655780886346205D+02
 0.178732253088555D+03 0.170536039477674D+03 0.534825032663560D+02 -.151636992337104D+01
 0.115576966263887D+03 -.146409403599068D+02 0.648660997062853D+02 0.249161746870475D+02
 0.685263775516006D+03 -.632347789927236D+03 0.142907630368941D-02 0.264050590998295D+03
0.109005546168D-05 0.000000000000D+00 0.000000000000D+00 0.887522089530D-08 0.000000000000D+00  7 2 -2 23 -11 11 23 21 0 0.74882475D-01 0.22534810D-01 0.64009980D+05 0.64009980D+05 0.64009980D+05 0.11379772D+01  1  2  2  1  7  1        2 0.136863033925D-03 0.100000000000D+01
-.603447598415D-07 0.000000000000D+00 -.418609999105D-08 0.887522089530D-08 0.000000000000D+00  7 2 -2 23 -11 11 23 21 2 0.74882475D-01 0.22534810D-01 0.64009980D+05 0.64009980D+05 0.64009980D+05 0.11379772D+01  1  2  3  1  7  1        2 -.981169913270D-05 0.100000000000D+01
0.703666899408D-07 0.000000000000D+00 0.000000000000D+00 0.887522089530D-08 0.000000000000D+00  7 2 -2 23 -11 11 23 21 2 0.74882475D-01 0.22534810D-01 0.64009980D+05 0.64009980D+05 0.64009980D+05 0.11379772D+01  1  2 15  1  7  1        2 0.114412053752D-04 0.100000000000D+01
0.671616330700D-06 0.000000000000D+00 -.474957903985D-06 0.887522089530D-08 0.000000000000D+00  7 2 -2 23 -11 11 23 21 2 0.40130389D+00 0.22534810D-01 0.64009980D+05 0.64009980D+05 0.64009980D+05 0.11379772D+01  1  2  5  1  7  1        2 0.601831498047D-05 0.100000000000D+01
0.118031996138D-06 0.000000000000D+00 -.975016870408D-07 0.887522089530D-08 0.000000000000D+00  7 21 -2 23 -11 11 23 -2 2 0.40130389D+00 0.22534810D-01 0.64009980D+05 0.64009980D+05 0.64009980D+05 0.11379772D+01  1  2  5  3  7  1        2 0.120735099010D-06 0.100000000000D+01
  </mgrwgt>
  </event>
  <event>
  8     66 0.55102590E-06 0.12545373E+03 0.75467711E-02 0.92409376E-01
        2 -1    0    0  501    0 0.00000000E+00 0.00000000E+00 0.15169572E+03 0.15169605E+03 0.32000000E+00 0.0000E+00 0.9000E+01
       -2 -1    0    0    0  501 0.00000000E+00 0.00000000E+00 -.23139828E+04 0.23139828E+04 0.32000000E+00 0.0000E+00 0.9000E+01
       25  2    1    2    0    0 0.19843682E+03 0.46180506E+03 -.67472270E+03 0.89274648E+03 0.29850372E+03 0.0000E+00 0.0000E+00
       23  2    1    2    0    0 -.19843682E+03 -.46180506E+03 -.14875643E+04 0.15729324E+04 0.92883954E+02 0.0000E+00 0.0000E+00
       23  1    3    3    0    0 0.86307539E+02 0.39234016E+03 -.56169654E+03 0.69656158E+03 0.91188000E+02 0.0000E+00 0.9000E+01
      -11  1    4    4    0    0 0.67921652E+01 -.26921541E+01 -.35654915E+02 0.36395799E+02 0.51099893E-03 0.0000E+00 0.9000E+01
       11  1    4    4    0    0 -.20522899E+03 -.45911291E+03 -.14519094E+04 0.15365366E+04 0.51099893E-03 0.0000E+00 0.9000E+01
       23  1    3    3    0    0 0.11212928E+03 0.69464904E+02 -.11302617E+03 0.19618490E+03 0.91188000E+02 0.0000E+00 0.9000E+01
#aMCatNLO 1  0  0  1  2 0.13334119D+03 0.00000000D+00  -5  7  0 0.00000000D+00 0.00000000D+00 0.00000000D+00 0.00000000D+00 0.00000000D+00
  <mgrwgt>
 0.2409536303D-03    9    2    0
 0.592470854871812D+03 0.000000000000000D+00 0.000000000000000D+00 0.592470854871812D+03
 0.592470854871812D+03 0.000000000000000D+00 0.000000000000000D+00 -.592470854871812D+03
 0.424449580657355D+03 0.863075392512735D+02 0.392340156763338D+03 0.102285899495061D+03
 0.106707272871739D+02 0.679216516481656D+01 -.269215409582025D+01 -.777709582912847D+01
 0.547841899901211D+03 -.205228986174235D+03 -.459112906947467D+03 -.217318082992444D+03
 0.201979501897884D+03 0.112129281758145D+03 0.694649042799498D+02 0.122809279326512D+03
 0.000000000000000D+00 0.000000000000000D+00 -.000000000000000D+00 0.000000000000000D+00
 0.730607555730964D+03 0.000000000000000D+00 0.000000000000000D+00 0.730607555730964D+03
 0.629283612331587D+03 0.000000000000000D+00 0.000000000000000D+00 -.629283612331587D+03
 0.434642333267481D+03 0.416233962212680D+02 0.410370313467840D+03 0.102285899495061D+03
 0.991592197117821D+01 0.572138709665138D+01 -.226009262936673D+01 -.777709582912847D+01
 0.553384208051936D+03 -.262507310086453D+03 -.436000968665131D+03 -.217318082992444D+03
 0.194478069736021D+03 0.915082439517428D+02 0.777855414869615D+02 0.122809279326512D+03
 0.167470635035935D+03 0.123654282816791D+03 -.498947936603041D+02 0.101323943399377D+03
0.538577351593D-03 0.000000000000D+00 0.000000000000D+00 0.108378392900D-06 0.000000000000D+00  7 2 -2 23 -11 11 23 21 0 0.23337830D-01 0.35599738D+00 0.29294975D+06 0.29294975D+06 0.29294975D+06 0.10853168D+01  1  2  2  1  7  1        2 0.188684110127D-03 0.100000000000D+01
-.296235100501D-04 0.000000000000D+00 -.206827884079D-05 0.108378392900D-06 0.000000000000D+00  7 2 -2 23 -11 11 23 21 2 0.23337830D-01 0.35599738D+00 0.29294975D+06 0.29294975D+06 0.29294975D+06 0.10853168D+01  1  2  3  1  7  1        2 -.122246608736D-04 0.100000000000D+01
0.342249518409D-04 0.000000000000D+00 0.000000000000D+00 0.108378392900D-06 0.000000000000D+00  7 2 -2 23 -11 11 23 21 2 0.23337830D-01 0.35599738D+00 0.29294975D+06 0.29294975D+06 0.29294975D+06 0.10853168D+01  1  2 15  1  7  1        2 0.141235265154D-04 0.100000000000D+01
0.732356998521D-03 0.000000000000D+00 0.000000000000D+00 0.108378392900D-06 0.000000000000D+00  7 2 -2 23 -11 11 23 21 2 0.29380515D-01 0.35599738D+00 0.37310831D+06 0.37310831D+06 0.37310831D+06 0.10776133D+01  1  2 12  1  7  1        2 0.224443215682D-03 0.100000000000D+01
-.757269517577D-03 0.000000000000D+00 0.000000000000D+00 0.108378392900D-06 0.000000000000D+00  7 2 -2 23 -11 11 23 21 2 0.23337830D-01 0.35599738D+00 0.29294975D+06 0.29294975D+06 0.29294975D+06 0.10853168D+01  1  2  4  1  7  1        2 -.312500545231D-03 0.100000000000D+01
-.122518337071D-02 0.000000000000D+00 -.313274823130D-03 0.108378392900D-06 0.000000000000D+00  7 2 -2 23 -11 11 23 21 2 0.30741842D-01 0.35599738D+00 0.29294975D+06 0.29294975D+06 0.29294975D+06 0.10853168D+01  1  2  5  1  7  1        2 -.367111579713D-03 0.100000000000D+01
0.127434824025D-02 0.000000000000D+00 0.301746755181D-03 0.108378392900D-06 0.000000000000D+00  7 2 -2 23 -11 11 23 21 2 0.23337830D-01 0.35599738D+00 0.29294975D+06 0.29294975D+06 0.29294975D+06 0.10853168D+01  1  2  6  1  7  1        2 0.525882147173D-03 0.100000000000D+01
0.233165541057D-04 0.000000000000D+00 0.000000000000D+00 0.108378392900D-06 0.000000000000D+00  7 21 -2 23 -11 11 23 -2 2 0.29380515D-01 0.35599738D+00 0.37310831D+06 0.37310831D+06 0.37310831D+06 0.10776133D+01  1  2 12  3  7  1        2 0.363061318780D-04 0.100000000000D+01
-.383836240039D-04 0.000000000000D+00 -.113857306316D-04 0.108378392900D-06 0.000000000000D+00  7 21 -2 23 -11 11 23 -2 2 0.30741842D-01 0.35599738D+00 0.29294975D+06 0.29294975D+06 0.29294975D+06 0.10853168D+01  1  2  5  3  7  1        2 -.566487152706D-04 0.100000000000D+01
  </mgrwgt>
  </event>
  <event>
  8     66 0.55102590E-06 0.27737431E+03 0.75467711E-02 0.86500694E-01
        2 -1    0    0  501    0 0.00000000E+00 0.00000000E+00 0.32424447E+03 0.32424463E+03 0.32000000E+00 0.0000E+00 0.9000E+01
       -2 -1    0    0    0  501 0.00000000E+00 0.00000000E+00 -.57585940E+03 0.57585949E+03 0.32000000E+00 0.0000E+00 0.9000E+01
       25  2    1    2    0    0 -.17502184E+02 -.18110410E+03 0.20018146E+03 0.40467482E+03 0.30097188E+03 0.0000E+00 0.0000E+00
       23  2    1    2    0    0 0.17502184E+02 0.18110410E+03 -.45179639E+03 0.49542930E+03 0.90692827E+02 0.0000E+00 0.0000E+00
       23  1    3    3    0    0 0.92303992E+02 -.12011443E+02 0.79066337E+02 0.15241732E+03 0.91188000E+02 0.0000E+00 0.9000E+01
      -11  1    4    4    0    0 0.42640048E+02 0.35729401E+02 -.11577822E+03 0.12844984E+03 0.51099893E-03 0.0000E+00 0.9000E+01
       11  1    4    4    0    0 -.25137863E+02 0.14537470E+03 -.33601817E+03 0.36697946E+03 0.51099893E-03 0.0000E+00 0.9000E+01
       23  1    3    3    0    0 -.10980618E+03 -.16909266E+03 0.12111512E+03 0.25225750E+03 0.91188000E+02 0.0000E+00 0.9000E+01
#aMCatNLO 1  0  0  2  1 0.10643073D+04 0.00000000D+00  -5  7  0 0.00000000D+00 0.00000000D+00 0.00000000D+00 0.00000000D+00 0.00000000D+00
  <mgrwgt>
 0.1737867609D-03    5    2    0
 0.432110330893215D+03 0.000000000000000D+00 0.000000000000000D+00 0.432110330893215D+03
 0.432110330893215D+03 0.000000000000000D+00 0.000000000000000D+00 -.432110330893215D+03
 0.181765761789508D+03 0.923039922693164D+02 -.120114430692915D+02 0.126725053014230D+03
 0.100074785332240D+03 0.426400476299562D+02 0.357294006576606D+02 -.831877330262899D+02
 0.284386324189675D+03 -.251378634327831D+02 0.145374703232854D+03 -.243125204098854D+03
 0.297993790475007D+03 -.109806176466490D+03 -.169092660821223D+03 0.199587884110914D+03
 0.000000000000000D+00 0.000000000000000D+00 0.000000000000000D+00 -.000000000000000D+00
 0.890496692732407D+03 0.000000000000000D+00 0.000000000000000D+00 0.890496692732407D+03
 0.206690535524693D+04 0.000000000000000D+00 0.000000000000000D+00 -.206690535524693D+04
 0.299001397804477D+03 0.839800707891371D+02 -.240779345446871D+03 0.126725053014230D+03
 0.112876197198092D+03 0.389530502501715D+02 -.656010430104346D+02 -.831877330262899D+02
 0.273360782792492D+03 -.347946027330246D+02 -.120023282414146D+03 -.243125204098854D+03
 0.685756629453340D+03 -.126838665246489D+03 -.637199759109986D+03 0.199587884110914D+03
 0.158640704073093D+04 0.387001469402053D+02 0.106360342998144D+04 -.117640866251452D+04
0.121244506545D-04 0.000000000000D+00 0.000000000000D+00 0.233854758953D-06 0.000000000000D+00  7 2 -2 23 -11 11 23 21 0 0.49883783D-01 0.88593774D-01 0.76936505D+05 0.76936505D+05 0.76936505D+05 0.11311877D+01  1  2  2  2  7  2       -2 0.169374922932D-03 0.100000000000D+01
-.512630161381D-06 0.000000000000D+00 -.465610829543D-07 0.233854758953D-06 0.000000000000D+00  7 2 -2 23 -11 11 23 21 2 0.49883783D-01 0.88593774D-01 0.76936505D+05 0.76936505D+05 0.76936505D+05 0.11311877D+01  1  2  3  2  7  2       -2 -.916348242230D-05 0.100000000000D+01
0.749881288317D-06 0.000000000000D+00 0.000000000000D+00 0.233854758953D-06 0.000000000000D+00  7 2 -2 23 -11 11 23 21 2 0.49883783D-01 0.88593774D-01 0.76936505D+05 0.76936505D+05 0.76936505D+05 0.11311877D+01  1  2 15  2  7  2       -2 0.134044473423D-04 0.100000000000D+01
0.972116296894D-05 0.000000000000D+00 -.549517432378D-05 0.233854758953D-06 0.000000000000D+00  7 2 -2 23 -11 11 23 21 2 0.49883783D-01 0.54361596D+00 0.76936505D+05 0.76936505D+05 0.76936505D+05 0.11311877D+01  1  2  5  2  7  2       -2 0.535994074645D-07 0.100000000000D+01
0.178597468584D-05 0.000000000000D+00 -.122182476426D-05 0.233854758953D-06 0.000000000000D+00  7 2 21 23 -11 11 23 2 2 0.49883783D-01 0.54361596D+00 0.76936505D+05 0.76936505D+05 0.76936505D+05 0.11311877D+01  1  2  5  4  7  2       -2 0.117273675370D-06 0.100000000000D+01
  </mgrwgt>
  </event>
  <event>
  9     66 -.55102590E-06 0.22838390E+03 0.75467711E-02 0.10332406E+00
        2 -1    0    0  501    0 0.00000000E+00 0.00000000E+00 0.33183660E+04 0.33183661E+04 0.32000000E+00 0.0000E+00 0.9000E+01
       -2 -1    0    0    0  502 0.00000000E+00 0.00000000E+00 -.55773625E+02 0.55774543E+02 0.32000000E+00 0.0000E+00 0.9000E+01
       25  2    1    2    0    0 -.13467825E+03 -.66014923E+02 0.49539634E+03 0.59605054E+03 0.29557149E+03 0.0000E+00 0.0000E+00
       23  2    1    2    0    0 0.14751839E+03 0.94410895E+02 0.26224548E+04 0.26300300E+04 0.95463252E+02 0.0000E+00 0.0000E+00
       23  1    3    3    0    0 -.29228659E+02 0.49414429E+02 0.57310761E+02 0.12204866E+03 0.91188000E+02 0.0000E+00 0.9000E+01
      -13  1    4    4    0    0 0.40312026E+02 0.16795585E+02 0.24271852E+03 0.24661598E+03 0.10565837E+00 0.0000E+00 0.9000E+01
       13  1    4    4    0    0 0.10720636E+03 0.77615311E+02 0.23797363E+04 0.23834140E+04 0.10565837E+00 0.0000E+00 0.9000E+01
       23  1    3    3    0    0 -.10544960E+03 -.11542935E+03 0.43808558E+03 0.47400188E+03 0.91188000E+02 0.0000E+00 0.9000E+01
       21  1    1    2  501  502 -.12840137E+02 -.28395972E+02 0.14474124E+03 0.14806008E+03 0.75000000E+00 0.0000E+00 0.9000E+01
#aMCatNLO 2  0  0  2  1 0.31164087D+02 0.00000000D+00  -5  7  0 0.00000000D+00 0.00000000D+00 0.00000000D+00 0.00000000D+00 0.00000000D+00
  <mgrwgt>
 -.1777372259D-03    3    2    0
 0.414013382115140D+03 0.000000000000000D+00 0.000000000000000D+00 0.414013382115140D+03
 0.414013382115140D+03 0.000000000000000D+00 0.000000000000000D+00 -.414013382115140D+03
 0.258475345676448D+03 -.332435918448087D+02 0.405354015932929D+02 -.236105903775160D+03
 0.457086311360486D+02 0.395943422648346D+02 0.152085350805972D+02 0.170372380874579D+02
 0.321054302583944D+03 0.102197918456372D+03 0.665390190238119D+02 0.296991598565003D+03
 0.202788484833840D+03 -.108548668876398D+03 -.122282955697702D+03 -.779229328773005D+02
 0.000000000000000D+00 -.000000000000000D+00 -.000000000000000D+00 0.000000000000000D+00
 0.433424177658908D+03 0.000000000000000D+00 0.000000000000000D+00 0.433424177658908D+03
 0.427006801339915D+03 0.000000000000000D+00 0.000000000000000D+00 -.427006801339915D+03
 0.259532944673651D+03 -.292286589324162D+02 0.494144283231466D+02 -.236105903775160D+03
 0.468765335772690D+02 0.403119431834522D+02 0.167955099757709D+02 0.170372380874579D+02
 0.325148243422383D+03 0.107206448084883D+03 0.776153855333360D+02 0.296991598565003D+03
 0.197055289705540D+03 -.105449595058239D+03 -.115429351946493D+03 -.779229328773005D+02
 0.318179676199804D+02 -.128401372776798D+02 -.283959718857603D+02 0.641737631899256D+01
-.196641054761D-04 0.000000000000D+00 0.000000000000D+00 0.228399282027D-08 0.000000000000D+00  7 2 -2 23 -13 13 23 21 2 0.48764949D+00 0.87682028D-02 0.61488635D+05 0.61488635D+05 0.61488635D+05 0.11394773D+01  1  2 13  2  7  2       -2 -.361472877478D-03 0.100000000000D+01
-.158079628322D-05 0.000000000000D+00 0.000000000000D+00 0.228399282027D-08 0.000000000000D+00  7 2 -2 23 -13 13 23 21 2 0.48764949D+00 0.83194434D-02 0.52159205D+05 0.52159205D+05 0.52159205D+05 0.11456839D+01  1  2  8  2  7  2       -2 -.320442877254D-04 0.100000000000D+01
0.141998871440D-04 0.000000000000D+00 0.000000000000D+00 0.228399282027D-08 0.162968625987D-10  7 2 -2 23 -13 13 23 21 2 0.51051267D+00 0.85805413D-02 0.61488635D+05 0.61488635D+05 0.61488635D+05 0.11394773D+01  1  2  1  2  7  2       -2 0.215779939290D-03 0.100000000000D+01
  </mgrwgt>
  </event>
  <event>
  9     66 -.55102590E-06 0.23234314E+03 0.75467711E-02 0.10399232E+00
        2 -1    0    0  502    0 0.00000000E+00 0.00000000E+00 0.17477632E+04 0.17477633E+04 0.32000000E+00 0.0000E+00 0.9000E+01
       -2 -1    0    0    0  501 0.00000000E+00 0.00000000E+00 -.54656880E+02 0.54657816E+02 0.32000000E+00 0.0000E+00 0.9000E+01
       25  2    1    2    0    0 0.42053558E+02 -.12586843E+03 0.15229950E+04 0.15579246E+04 0.30000627E+03 0.0000E+00 0.0000E+00
       23  2    1    2    0    0 -.47950045E+02 0.12206747E+03 0.13656724E+03 0.21021846E+03 0.91331903E+02 0.0000E+00 0.0000E+00
       23  1    3    3    0    0 -.42696855E+02 -.16078375E+03 0.10764126E+04 0.10930022E+04 0.91188000E+02 0.0000E+00 0.9000E+01
      -11  1    4    4    0    0 -.52796615E+02 0.46033962E+02 0.23512357E+02 0.73888018E+02 0.51099893E-03 0.0000E+00 0.9000E+01
       11  1    4    4    0    0 0.48465698E+01 0.76033510E+02 0.11305488E+03 0.13633044E+03 0.51099893E-03 0.0000E+00 0.9000E+01
       23  1    3    3    0    0 0.84750413E+02 0.34915321E+02 0.44658237E+03 0.46492234E+03 0.91188000E+02 0.0000E+00 0.9000E+01
       21  1    1    2  502  501 0.58964871E+01 0.38009593E+01 0.33544112E+02 0.34278066E+02 0.75000000E+00 0.0000E+00 0.9000E+01
#aMCatNLO 2  0  0  1  2 0.70154011D+01 0.00000000D+00  -5  7  0 0.00000000D+00 0.00000000D+00 0.00000000D+00 0.00000000D+00 0.00000000D+00
  <mgrwgt>
 -.7657225220D-04    3    2    0
 0.305013797858624D+03 0.000000000000000D+00 0.000000000000000D+00 0.305013797858624D+03
 0.305013797858624D+03 0.000000000000000D+00 0.000000000000000D+00 -.305013797858624D+03
 0.238263937320308D+03 -.403871282310386D+02 -.159294870587726D+03 0.146452984131648D+03
 0.149973578708445D+03 -.513459958683673D+02 0.469690521312005D+02 -.132851688588442D+03
 0.881069806845188D+02 0.569563403242545D+01 0.765808292764689D+02 -.431946337597527D+02
 0.133683099003977D+03 0.860374900669805D+02 0.357449891800570D+02 0.295933382165461D+02
 0.000000000000000D+00 0.000000000000000D+00 0.000000000000000D+00 0.000000000000000D+00
 0.311051939646646D+03 0.000000000000000D+00 0.000000000000000D+00 0.311051939646646D+03
 0.307078502823531D+03 0.000000000000000D+00 0.000000000000000D+00 -.307078502823531D+03
 0.239662606050598D+03 -.426968553285842D+02 -.160783753467038D+03 0.146452984131648D+03
 0.150187147959751D+03 -.527966149511967D+02 0.460339624753179D+02 -.132851688588442D+03
 0.875805933249069D+02 0.484656976508113D+01 0.760335103951920D+02 -.431946337597527D+02
 0.132637586085726D+03 0.847504133989846D+02 0.349153212866613D+02 0.295933382165461D+02
 0.806250904919478D+01 0.589648711571519D+01 0.380095930986633D+01 0.397343682311585D+01
-.130730419663D-05 0.000000000000D+00 0.000000000000D+00 0.999576334481D-06 0.000000000000D+00  7 2 -2 23 -11 11 23 21 2 0.26975190D+00 0.83518148D-02 0.55755957D+05 0.55755957D+05 0.55755957D+05 0.11431561D+01  1  2 13  1  7  1        2 -.166590403402D-03 0.100000000000D+01
-.103586420043D-04 0.000000000000D+00 0.000000000000D+00 0.999576334481D-06 0.000000000000D+00  7 2 -2 23 -11 11 23 21 2 0.26365220D+00 0.83518148D-02 0.53983337D+05 0.53983337D+05 0.53983337D+05 0.11443787D+01  1  2  8  1  7  1        2 -.138859233291D-02 0.100000000000D+01
0.116410340952D-04 0.000000000000D+00 0.000000000000D+00 0.999576334481D-06 0.141589453885D-06  7 2 -2 23 -11 11 23 21 2 0.26887154D+00 0.84083500D-02 0.55755957D+05 0.55755957D+05 0.55755957D+05 0.11431561D+01  1  2  1  1  7  1        2 0.147861048412D-02 0.100000000000D+01
  </mgrwgt>
  </event>
  <event>
  9     66 0.55102590E-06 0.26049868E+03 0.75467711E-02 0.96502919E-01
       21 -1    0    0  501  502 0.00000000E+00 0.00000000E+00 0.39075352E+03 0.39075424E+03 0.75000000E+00 0.0000E+00 0.9000E+01
       -2 -1    0    0    0  501 0.00000000E+00 0.00000000E+00 -.50889904E+03 0.50889914E+03 0.32000000E+00 0.0000E+00 0.9000E+01
       25  2    1    2    0    0 0.22751062E+03 0.25187002E+03 -.14989182E+03 0.47726053E+03 0.30018406E+03 0.0000E+00 0.0000E+00
       23  2    1    2    0    0 -.12675849E+03 -.55135873E+01 0.10069286E+02 0.15534889E+03 0.89071714E+02 0.0000E+00 0.0000E+00
       23  1    3    3    0    0 0.21818484E+03 0.86577608E+02 -.13969994E+03 0.28797853E+03 0.91188000E+02 0.0000E+00 0.9000E+01
      -13  1    4    4    0    0 0.80508690E+01 0.16882180E+01 0.18333384E+02 0.20094544E+02 0.10565837E+00 0.0000E+00 0.9000E+01
       13  1    4    4    0    0 -.13480936E+03 -.72018053E+01 -.82640983E+01 0.13525434E+03 0.10565837E+00 0.0000E+00 0.9000E+01
       23  1    3    3    0    0 0.93257759E+01 0.16529241E+03 -.10191884E+02 0.18928200E+03 0.91188000E+02 0.0000E+00 0.9000E+01
       -2  1    1    2    0  502 -.10075213E+03 -.24635643E+03 0.21677020E+02 0.26704396E+03 0.32000000E+00 0.0000E+00 0.9000E+01
#aMCatNLO 2  0  0  1  2 0.26616251D+03 0.00000000D+00  -5  7  0 0.00000000D+00 0.00000000D+00 0.00000000D+00 0.00000000D+00 0.00000000D+00
  <mgrwgt>
 0.1234980839D-04    1    2    0
 0.278299233069833D+03 0.000000000000000D+00 0.000000000000000D+00 0.278299233069833D+03
 0.278299233069833D+03 0.000000000000000D+00 0.000000000000000D+00 -.278299233069833D+03
 0.214397270878696D+03 0.177146224418134D+03 -.137689385305949D+02 -.779780092229465D+02
 0.252394726789710D+02 0.375863569607032D+01 -.880751517292761D+01 0.233523299757304D+02
 0.179239310725269D+03 -.161943015538770D+03 -.735478135475137D+02 0.221790295067061D+02
 0.137722411856730D+03 -.189618445754338D+02 0.961242672510363D+02 0.324466497405100D+02
 0.000000000000000D+00 -.000000000000000D+00 -.000000000000000D+00 0.000000000000000D+00
 0.489219560254313D+03 0.000000000000000D+00 0.000000000000000D+00 0.489219560254313D+03
 0.406472662027244D+03 0.000000000000000D+00 0.000000000000000D+00 -.406472662027244D+03
 0.263621185886941D+03 0.218184843880697D+03 0.865776084378555D+02 -.779780092229465D+02
 0.247588601513669D+02 0.805106944155818D+01 0.168823030027184D+01 0.233523299757304D+02
 0.136811528619248D+03 -.134809565055617D+03 -.720181801987273D+01 0.221790295067061D+02
 0.191772228814594D+03 0.932577692135336D+01 0.165292411217051D+03 0.324466497405100D+02
 0.278728418809407D+03 -.100752125187992D+03 -.246356431935305D+03 0.827468982270691D+02
0.267223446234D-06 0.000000000000D+00 0.000000000000D+00 0.799432398280D-07 0.119554719173D-11  7 21 -2 23 -13 13 23 -2 2 0.60115977D-01 0.78292207D-01 0.18071951D+06 0.18071951D+06 0.18071951D+06 0.11012227D+01  1  2  1  3  7  1        2 0.123498083914D-04 0.100000000000D+01
  </mgrwgt>
  </event>
  <event>
  8     66 0.55102590E-06 0.20400944E+03 0.75467711E-02 0.96154558E-01
        2 -1    0    0  501    0 0.00000000E+00 0.00000000E+00 0.39921444E+03 0.39921457E+03 0.32000000E+00 0.0000E+00 0.9000E+01
       -2 -1    0    0    0  501 0.00000000E+00 0.00000000E+00 -.40365706E+03 0.40365719E+03 0.32000000E+00 0.0000E+00 0.9000E+01
       25  2    1    2    0    0 0.30106394E+03 0.15527095E+03 -.11812727E+02 0.45241505E+03 0.29965192E+03 0.0000E+00 0.0000E+00
       23  2    1    2    0    0 -.30106394E+03 -.15527095E+03 0.73701076E+01 0.35045670E+03 0.89537807E+02 0.0000E+00 0.0000E+00
       23  1    3    3    0    0 0.20031461E+03 -.27385290E+02 -.31006212E+02 0.22394761E+03 0.91188000E+02 0.0000E+00 0.9000E+01
      -11  1    4    4    0    0 -.29536856E+03 -.14621716E+03 -.10369781E+02 0.32974168E+03 0.51099893E-03 0.0000E+00 0.9000E+01
       11  1    4    4    0    0 -.56953782E+01 -.90537927E+01 0.17739888E+02 0.20715022E+02 0.51099893E-03 0.0000E+00 0.9000E+01
       23  1    3    3    0    0 0.10074933E+03 0.18265624E+03 0.19193484E+02 0.22846744E+03 0.91188000E+02 0.0000E+00 0.9000E+01
#aMCatNLO 1  0  0  1  2 0.82650216D+02 0.00000000D+00  -5  7  0 0.00000000D+00 0.00000000D+00 0.00000000D+00 0.00000000D+00 0.00000000D+00
  <mgrwgt>
 0.3496701317D-03    9    2    0
 0.401429733374494D+03 0.000000000000000D+00 0.000000000000000D+00 0.401429733374494D+03
 0.401429733374494D+03 0.000000000000000D+00 0.000000000000000D+00 -.401429733374494D+03
 0.223779467043497D+03 0.200314607503064D+03 -.273852898097499D+02 -.297674730066352D+02
 0.329689349909002D+03 -.295368561344596D+03 -.146217160408850D+03 -.854531536089394D+01
 0.208135027644908D+02 -.569537817913408D+01 -.905379265559151D+01 0.178547865647750D+02
 0.228577147031997D+03 0.100749332020666D+03 0.182656242874191D+03 0.204580018027542D+02
 0.000000000000000D+00 -.000000000000000D+00 -.000000000000000D+00 0.000000000000000D+00
 0.548344815343615D+03 0.000000000000000D+00 0.000000000000000D+00 0.548344815343615D+03
 0.415345706661153D+03 0.000000000000000D+00 0.000000000000000D+00 -.415345706661153D+03
 0.238915561631489D+03 0.218479661416826D+03 -.120801218403746D+02 -.297674730066352D+02
 0.298479744777374D+03 -.270707121811489D+03 -.125438390567995D+03 -.854531536089394D+01
 0.198745739842730D+02 -.409799532005056D+01 -.770789998245433D+01 0.178547865647750D+02
 0.249832579950592D+03 0.119531333003891D+03 0.198481226450565D+03 0.204580018027542D+02
 0.156588061661040D+03 -.632058772891770D+02 -.532548140597413D+02 0.132999108682462D+03
0.118938086324D-04 0.000000000000D+00 0.000000000000D+00 0.270809638506D-06 0.000000000000D+00  7 2 -2 23 -11 11 23 21 0 0.61417626D-01 0.62101106D-01 0.15591653D+06 0.15591653D+06 0.15591653D+06 0.11062285D+01  1  2  2  1  7  1        2 0.283852325694D-03 0.100000000000D+01
-.660548568246D-06 0.000000000000D+00 -.456753568602D-07 0.270809638506D-06 0.000000000000D+00  7 2 -2 23 -11 11 23 21 2 0.61417626D-01 0.62101106D-01 0.15591653D+06 0.15591653D+06 0.15591653D+06 0.11062285D+01  1  2  3  1  7  1        2 -.192914981596D-04 0.100000000000D+01
0.765615614251D-06 0.000000000000D+00 0.000000000000D+00 0.270809638506D-06 0.000000000000D+00  7 2 -2 23 -11 11 23 21 2 0.61417626D-01 0.62101106D-01 0.15591653D+06 0.15591653D+06 0.15591653D+06 0.11062285D+01  1  2 15  1  7  1        2 0.223600094274D-04 0.100000000000D+01
0.300442794765D-04 0.000000000000D+00 0.000000000000D+00 0.270809638506D-06 0.000000000000D+00  7 2 -2 23 -11 11 23 21 2 0.84668967D-01 0.62101106D-01 0.19174967D+06 0.19174967D+06 0.19174967D+06 0.10992333D+01  1  2 12  1  7  1        2 0.602630726148D-03 0.100000000000D+01
-.300895217495D-04 0.000000000000D+00 0.000000000000D+00 0.270809638506D-06 0.000000000000D+00  7 2 -2 23 -11 11 23 21 2 0.61417626D-01 0.62101106D-01 0.15591653D+06 0.15591653D+06 0.15591653D+06 0.11062285D+01  1  2  4  1  7  1        2 -.878772555656D-03 0.100000000000D+01
-.378665084537D-04 0.000000000000D+00 -.576544204099D-05 0.270809638506D-06 0.000000000000D+00  7 2 -2 23 -11 11 23 21 2 0.85584821D-01 0.62101106D-01 0.15591653D+06 0.15591653D+06 0.15591653D+06 0.11062285D+01  1  2  5  1  7  1        2 -.763273755771D-03 0.100000000000D+01
0.379733384401D-04 0.000000000000D+00 0.546199425227D-05 0.270809638506D-06 0.000000000000D+00  7 2 -2 23 -11 11 23 21 2 0.61417626D-01 0.62101106D-01 0.15591653D+06 0.15591653D+06 0.15591653D+06 0.11062285D+01  1  2  6  1  7  1        2 0.110902153732D-02 0.100000000000D+01
0.121959509206D-05 0.000000000000D+00 0.000000000000D+00 0.270809638506D-06 0.000000000000D+00  7 21 -2 23 -11 11 23 -2 2 0.84668967D-01 0.62101106D-01 0.19174967D+06 0.19174967D+06 0.19174967D+06 0.10992333D+01  1  2 12  3  7  1        2 0.412836507686D-04 0.100000000000D+01
-.142335033308D-05 0.000000000000D+00 -.239661278043D-06 0.270809638506D-06 0.000000000000D+00  7 21 -2 23 -11 11 23 -2 2 0.85584821D-01 0.62101106D-01 0.15591653D+06 0.15591653D+06 0.15591653D+06 0.11062285D+01  1  2  5  3  7  1        2 -.481403081124D-04 0.100000000000D+01
  </mgrwgt>
  </event>
  <event>
  8     66 0.55102590E-06 0.81458084E+02 0.75467711E-02 0.10791669E+00
        2 -1    0    0  501    0 0.00000000E+00 0.00000000E+00 0.10927900E+03 0.10927947E+03 0.32000000E+00 0.0000E+00 0.9000E+01
       -2 -1    0    0    0  501 0.00000000E+00 0.00000000E+00 -.42971601E+03 0.42971613E+03 0.32000000E+00 0.0000E+00 0.9000E+01
       25  2    1    2    0    0 -.77725415E+02 0.14824312E+02 -.19405984E+03 0.36590159E+03 0.29993958E+03 0.0000E+00 0.0000E+00
       23  2    1    2    0    0 0.77725415E+02 -.14824312E+02 -.12637717E+03 0.17309401E+03 0.87916690E+02 0.0000E+00 0.0000E+00
       23  1    3    3    0    0 -.91228542E+01 0.79320797E+02 -.20091750E+03 0.23464464E+03 0.91188000E+02 0.0000E+00 0.9000E+01
      -13  1    4    4    0    0 0.19442468E+02 0.10676313E+02 0.86678031E+01 0.23814601E+02 0.10565837E+00 0.0000E+00 0.9000E+01
       13  1    4    4    0    0 0.58282947E+02 -.25500625E+02 -.13504498E+03 0.14927940E+03 0.10565837E+00 0.0000E+00 0.9000E+01
       23  1    3    3    0    0 -.68602561E+02 -.64496486E+02 0.68576587E+01 0.13125695E+03 0.91188000E+02 0.0000E+00 0.9000E+01
#aMCatNLO 1  0  0  1  2 0.19697397D+02 0.00000000D+00  -5  7  0 0.00000000D+00 0.00000000D+00 0.00000000D+00 0.00000000D+00 0.00000000D+00
  <mgrwgt>
 0.2080158549D-03    9    2    0
 0.216700469766043D+03 0.000000000000000D+00 0.000000000000000D+00 0.216700469766043D+03
 0.216700469766043D+03 0.000000000000000D+00 0.000000000000000D+00 -.216700469766043D+03
 0.143264630064529D+03 -.912290039458397D+01 0.793208062118239D+02 -.763838024310339D+02
 0.360252990824366D+02 0.194424478743280D+02 0.106763346121489D+02 0.283871321884138D+02
 0.858040858307593D+02 0.582830675702909D+02 -.255006656658827D+02 -.575772631378575D+02
 0.168306924554360D+03 -.686026150500349D+02 -.644964751580901D+02 0.105573933380478D+03
 0.000000000000000D+00 -.000000000000000D+00 0.000000000000000D+00 0.000000000000000D+00
 0.231482061657064D+03 0.000000000000000D+00 0.000000000000000D+00 0.231482061657064D+03
 0.223586990348864D+03 0.000000000000000D+00 0.000000000000000D+00 -.223586990348864D+03
 0.139908847384385D+03 -.675010647169146D+01 0.733429275474110D+02 -.763838024310339D+02
 0.359374882453562D+02 0.200454452524161D+02 0.915717817534562D+01 0.283871321884138D+02
 0.879471123557467D+02 0.597389800055458D+02 -.291686065687968D+02 -.575772631378575D+02
 0.170054868648405D+03 -.657673819841297D+02 -.716393960370562D+02 0.105573933380478D+03
 0.212207353720353D+02 -.726693680214072D+01 0.183078968830964D+02 0.789507130819939D+01
0.162338371268D-05 0.000000000000D+00 0.000000000000D+00 0.189121809078D-07 0.000000000000D+00  7 2 -2 23 -13 13 23 21 0 0.16812199D-01 0.66110201D-01 0.28574462D+05 0.28574462D+05 0.28574462D+05 0.11693027D+01  1  2  2  1  7  1        2 0.147706094883D-03 0.100000000000D+01
-.834229570696D-07 0.000000000000D+00 -.623422090342D-08 0.189121809078D-07 0.000000000000D+00  7 2 -2 23 -13 13 23 21 2 0.16812199D-01 0.66110201D-01 0.28574462D+05 0.28574462D+05 0.28574462D+05 0.11693027D+01  1  2  3  1  7  1        2 -.103780731183D-04 0.100000000000D+01
0.104208074993D-06 0.000000000000D+00 0.000000000000D+00 0.189121809078D-07 0.000000000000D+00  7 2 -2 23 -13 13 23 21 2 0.16812199D-01 0.66110201D-01 0.28574462D+05 0.28574462D+05 0.28574462D+05 0.11693027D+01  1  2 15  1  7  1        2 0.129638058849D-04 0.100000000000D+01
0.437956207441D-05 0.000000000000D+00 0.000000000000D+00 0.189121809078D-07 0.000000000000D+00  7 2 -2 23 -13 13 23 21 2 0.18212442D-01 0.66110201D-01 0.32174951D+05 0.32174951D+05 0.32174951D+05 0.11645261D+01  1  2 12  1  7  1        2 0.491825778769D-03 0.100000000000D+01
-.414782218121D-05 0.000000000000D+00 0.000000000000D+00 0.189121809078D-07 0.000000000000D+00  7 2 -2 23 -13 13 23 21 2 0.16812199D-01 0.66110201D-01 0.28574462D+05 0.28574462D+05 0.28574462D+05 0.11693027D+01  1  2  4  1  7  1        2 -.516001870355D-03 0.100000000000D+01
-.122546454680D-04 0.000000000000D+00 -.242583911277D-05 0.189121809078D-07 0.000000000000D+00  7 2 -2 23 -13 13 23 21 2 0.18501805D-01 0.66110201D-01 0.28574462D+05 0.28574462D+05 0.28574462D+05 0.11693027D+01  1  2  5  1  7  1        2 -.136121456229D-02 0.100000000000D+01
0.124409439442D-04 0.000000000000D+00 0.241475818609D-05 0.189121809078D-07 0.000000000000D+00  7 2 -2 23 -13 13 23 21 2 0.16812199D-01 0.66110201D-01 0.28574462D+05 0.28574462D+05 0.28574462D+05 0.11693027D+01  1  2  6  1  7  1        2 0.154769179192D-02 0.100000000000D+01
0.588614083186D-07 0.000000000000D+00 0.000000000000D+00 0.189121809078D-07 0.000000000000D+00  7 21 -2 23 -13 13 23 -2 2 0.18212442D-01 0.66110201D-01 0.32174951D+05 0.32174951D+05 0.32174951D+05 0.11645261D+01  1  2 12  3  7  1        2 0.503954839309D-04 0.100000000000D+01
-.184338277982D-06 0.000000000000D+00 -.379508173253D-07 0.189121809078D-07 0.000000000000D+00  7 21 -2 23 -13 13 23 -2 2 0.18501805D-01 0.66110201D-01 0.28574462D+05 0.28574462D+05 0.28574462D+05 0.11693027D+01  1  2  5  3  7  1        2 -.154972594724D-03 0.100000000000D+01
  </mgrwgt>
  </event>
  <event>
  9     66 0.55102590E-06 0.30921629E+03 0.75467711E-02 0.93473311E-01
        2 -1    0    0  501    0 0.00000000E+00 0.00000000E+00 0.12153491E+04 0.12153491E+04 0.32000000E+00 0.0000E+00 0.9000E+01
       21 -1    0    0  502  501 0.00000000E+00 0.00000000E+00 -.47387891E+03 0.47387951E+03 0.75000000E+00 0.0000E+00 0.9000E+01
       25  2    1    2    0    0 0.30215491E+03 -.22734989E+03 0.88057387E+03 0.10042138E+04 0.30008241E+03 0.0000E+00 0.0000E+00
       23  2    1    2    0    0 -.19225802E+03 -.15142266E+03 -.12896194E+03 0.29049117E+03 0.88667739E+02 0.0000E+00 0.0000E+00
       23  1    3    3    0    0 0.17412159E+03 -.22987931E+03 0.42015005E+03 0.51769116E+03 0.91188000E+02 0.0000E+00 0.9000E+01
      -11  1    4    4    0    0 -.11872196E+02 -.41296051E+02 -.47338190E+02 0.63931347E+02 0.51099893E-03 0.0000E+00 0.9000E+01
       11  1    4    4    0    0 -.18038583E+03 -.11012661E+03 -.81623748E+02 0.22655982E+03 0.51099893E-03 0.0000E+00 0.9000E+01
       23  1    3    3    0    0 0.12803332E+03 0.25294219E+01 0.46042383E+03 0.48652264E+03 0.91188000E+02 0.0000E+00 0.9000E+01
        2  1    1    2  502    0 -.10989689E+03 0.37877255E+03 -.10141749E+02 0.39452368E+03 0.32000000E+00 0.0000E+00 0.9000E+01
#aMCatNLO 2  0  0  2  2 0.39439317D+03 0.00000000D+00  -5  7  0 0.00000000D+00 0.00000000D+00 0.00000000D+00 0.00000000D+00 0.00000000D+00
  <mgrwgt>
 0.3250463832D-04    1    2    0
 0.488823713159807D+03 0.000000000000000D+00 0.000000000000000D+00 0.488823713159807D+03
 0.488823713159807D+03 0.000000000000000D+00 0.000000000000000D+00 -.488823713159807D+03
 0.253936266034789D+03 0.142200494367904D+03 -.119859510483424D+03 0.146905047605209D+03
 0.106393250971041D+03 -.236989124508028D+02 -.533884296639690D+00 -.103718852521583D+03
 0.340397166437578D+03 -.216994116403630D+03 0.160481681438842D+02 -.261775171978104D+03
 0.276920742876206D+03 0.984925344865290D+02 0.104345226636179D+03 0.218588976894477D+03
 0.000000000000000D+00 -.000000000000000D+00 0.000000000000000D+00 -.000000000000000D+00
 0.626111664669338D+03 0.000000000000000D+00 0.000000000000000D+00 0.626111664669338D+03
 0.919849909851838D+03 0.000000000000000D+00 0.000000000000000D+00 -.919849909851838D+03
 0.336242726808908D+03 0.174121588770214D+03 -.229879314641700D+03 0.146905047605209D+03
 0.112267151319294D+03 -.118721964405883D+02 -.412960512474444D+02 -.103718852521583D+03
 0.336441906831906D+03 -.180385826012092D+03 -.110126607967639D+03 -.261775171978104D+03
 0.269249553909527D+03 0.128033324339841D+03 0.252942190903919D+01 0.218588976894477D+03
 0.491760235651542D+03 -.109896890657374D+03 0.378772551947744D+03 -.293738245182500D+03
0.698181582594D-06 0.000000000000D+00 0.000000000000D+00 0.330839787744D-06 0.119294449919D-11  7 2 21 23 -11 11 23 2 2 0.18697682D+00 0.72904491D-01 0.30712006D+06 0.30712006D+06 0.30712006D+06 0.10837990D+01  1  2  1  4  7  2       -2 0.325046383180D-04 0.100000000000D+01
  </mgrwgt>
  </event>
  <event>
  8     66 0.55102590E-06 0.10596728E+03 0.75467711E-02 0.10022782E+00
        2 -1    0    0  501    0 0.00000000E+00 0.00000000E+00 0.10721587E+04 0.10721587E+04 0.32000000E+00 0.0000E+00 0.9000E+01
       -2 -1    0    0    0  501 0.00000000E+00 0.00000000E+00 -.84260599E+02 0.84261207E+02 0.32000000E+00 0.0000E+00 0.9000E+01
       25  2    1    2    0    0 0.18688688E+03 -.97799058E+02 0.53681409E+03 0.65018690E+03 0.30013710E+03 0.0000E+00 0.0000E+00
       23  2    1    2    0    0 -.18688688E+03 0.97799058E+02 0.45108398E+03 0.50623302E+03 0.91124946E+02 0.0000E+00 0.0000E+00
       23  1    3    3    0    0 0.92247639E+02 0.72561022E+02 0.26130162E+03 0.30061357E+03 0.91188000E+02 0.0000E+00 0.9000E+01
      -13  1    4    4    0    0 -.46898651E+02 -.70425361E+01 0.15767265E+03 0.16465041E+03 0.10565837E+00 0.0000E+00 0.9000E+01
       13  1    4    4    0    0 -.13998823E+03 0.10484159E+03 0.29341132E+03 0.34158261E+03 0.10565837E+00 0.0000E+00 0.9000E+01
       23  1    3    3    0    0 0.94639243E+02 -.17036008E+03 0.27551247E+03 0.34957334E+03 0.91188000E+02 0.0000E+00 0.9000E+01
#aMCatNLO 1  0  0  2  1 0.40419291D+02 0.00000000D+00  -5  7  0 0.00000000D+00 0.00000000D+00 0.00000000D+00 0.00000000D+00 0.00000000D+00
  <mgrwgt>
 0.1879791975D-03    9    2    0
 0.300567981041998D+03 0.000000000000000D+00 0.000000000000000D+00 0.300567981041998D+03
 0.300567981041998D+03 0.000000000000000D+00 0.000000000000000D+00 -.300567981041998D+03
 0.148878386660349D+03 0.922476387921243D+02 0.725610209874749D+02 0.864835482166211D+01
 0.576249170815359D+02 -.468985255171321D+02 -.704268617464232D+01 0.327346902294539D+02
 0.174923077672104D+03 -.139988356182066D+03 0.104841744526877D+03 0.309060516487012D+01
 0.219709580670006D+03 0.946392429070740D+02 -.170360079339709D+03 -.444736502159862D+02
 0.000000000000000D+00 0.000000000000000D+00 -.000000000000000D+00 -.000000000000000D+00
 0.306433648276829D+03 0.000000000000000D+00 0.000000000000000D+00 0.306433648276829D+03
 0.379987629160624D+03 0.000000000000000D+00 0.000000000000000D+00 -.379987629160624D+03
 0.154085150627482D+03 0.922340883673578D+02 0.827348850353631D+02 0.864835482166211D+01
 0.572856934635992D+02 -.469036650385313D+02 -.318385570345150D+01 0.327346902294539D+02
 0.182379941780871D+03 -.140004337008430D+03 0.116840390886623D+03 0.309060516487012D+01
 0.208742503681583D+03 0.946200798494103D+02 -.155972165545693D+03 -.444736502159862D+02
 0.839279878839171D+02 0.538338301931990D-01 -.404192546728414D+02 -.735539808837947D+02
0.139775648380D-05 0.000000000000D+00 0.000000000000D+00 0.304042439020D-06 0.000000000000D+00  7 2 -2 23 -13 13 23 21 0 0.16494754D+00 0.12963220D-01 0.85880779D+05 0.85880779D+05 0.85880779D+05 0.11271873D+01  1  2  2  2  7  2       -2 0.162474750984D-03 0.100000000000D+01
-.775926260833D-07 0.000000000000D+00 -.536775293552D-08 0.304042439020D-06 0.000000000000D+00  7 2 -2 23 -13 13 23 21 2 0.16494754D+00 0.12963220D-01 0.85880779D+05 0.85880779D+05 0.85880779D+05 0.11271873D+01  1  2  3  2  7  2       -2 -.114595357624D-04 0.100000000000D+01
0.897597018421D-07 0.000000000000D+00 0.000000000000D+00 0.304042439020D-06 0.000000000000D+00  7 2 -2 23 -13 13 23 21 2 0.16494754D+00 0.12963220D-01 0.85880779D+05 0.85880779D+05 0.85880779D+05 0.11271873D+01  1  2 15  2  7  2       -2 0.132564724923D-04 0.100000000000D+01
0.575936835177D-05 0.000000000000D+00 0.000000000000D+00 0.304042439020D-06 0.000000000000D+00  7 2 -2 23 -13 13 23 21 2 0.16494754D+00 0.16491804D-01 0.98463134D+05 0.98463134D+05 0.98463134D+05 0.11222744D+01  1  2 12  2  7  2       -2 0.573940219880D-03 0.100000000000D+01
-.575455080061D-05 0.000000000000D+00 0.000000000000D+00 0.304042439020D-06 0.000000000000D+00  7 2 -2 23 -13 13 23 21 2 0.16494754D+00 0.12963220D-01 0.85880779D+05 0.85880779D+05 0.85880779D+05 0.11271873D+01  1  2  4  2  7  2       -2 -.849880768633D-03 0.100000000000D+01
-.730189679899D-05 0.000000000000D+00 -.848238485627D-06 0.304042439020D-06 0.000000000000D+00  7 2 -2 23 -13 13 23 21 2 0.16494754D+00 0.16656835D-01 0.85880779D+05 0.85880779D+05 0.85880779D+05 0.11271873D+01  1  2  5  2  7  2       -2 -.723250086933D-03 0.100000000000D+01
0.730961007868D-05 0.000000000000D+00 0.822262129963D-06 0.304042439020D-06 0.000000000000D+00  7 2 -2 23 -13 13 23 21 2 0.16494754D+00 0.12963220D-01 0.85880779D+05 0.85880779D+05 0.85880779D+05 0.11271873D+01  1  2  6  2  7  2       -2 0.107954508481D-02 0.100000000000D+01
0.189552246358D-06 0.000000000000D+00 0.000000000000D+00 0.304042439020D-06 0.000000000000D+00  7 2 21 23 -13 13 23 2 2 0.16494754D+00 0.16491804D-01 0.98463134D+05 0.98463134D+05 0.98463134D+05 0.11222744D+01  1  2 12  4  7  2       -2 0.251535204061D-03 0.100000000000D+01
-.233352098571D-06 0.000000000000D+00 -.287667811239D-07 0.304042439020D-06 0.000000000000D+00  7 2 21 23 -13 13 23 2 2 0.16494754D+00 0.16656835D-01 0.85880779D+05 0.85880779D+05 0.85880779D+05 0.11271873D+01  1  2  5  4  7  2       -2 -.308182143430D-03 0.100000000000D+01
  </mgrwgt>
  </event>
  <event>
  8     66 0.55102590E-06 0.41857001E+03 0.75467711E-02 0.90598220E-01
        2 -1    0    0  501    0 0.00000000E+00 0.00000000E+00 0.25751642E+04 0.25751643E+04 0.32000000E+00 0.0000E+00 0.9000E+01
       -2 -1    0    0    0  501 0.00000000E+00 0.00000000E+00 -.20829948E+03 0.20829972E+03 0.32000000E+00 0.0000E+00 0.9000E+01
       25  2    1    2    0    0 -.17355757E+03 -.66462120E+03 0.98717172E+03 0.12395684E+04 0.30029675E+03 0.0000E+00 0.0000E+00
       23  2    1    2    0    0 0.17355757E+03 0.66462120E+03 0.13796930E+04 0.15438956E+04 0.90649092E+02 0.0000E+00 0.0000E+00
       23  1    3    3    0    0 -.23943213E+02 -.43638093E+02 0.12080769E+03 0.15933396E+03 0.91188000E+02 0.0000E+00 0.9000E+01
      -13  1    4    4    0    0 0.16405269E+03 0.65311692E+03 0.13137359E+04 0.14762713E+04 0.10565837E+00 0.0000E+00 0.9000E+01
       13  1    4    4    0    0 0.95048760E+01 0.11504279E+02 0.65957127E+02 0.67624292E+02 0.10565837E+00 0.0000E+00 0.9000E+01
       23  1    3    3    0    0 -.14961435E+03 -.62098310E+03 0.86636403E+03 0.10802344E+04 0.91188000E+02 0.0000E+00 0.9000E+01
#aMCatNLO 1  0  0  1  2 0.12046089D+02 0.00000000D+00  -5  7  0 0.00000000D+00 0.00000000D+00 0.00000000D+00 0.00000000D+00 0.00000000D+00
  <mgrwgt>
 0.6603475989D-03    9    2    0
 0.732397252419410D+03 0.000000000000000D+00 0.000000000000000D+00 0.732397252419410D+03
 0.732397252419410D+03 0.000000000000000D+00 0.000000000000000D+00 -.732397252419410D+03
 0.107567898927583D+03 -.239432132836819D+02 -.436380934536615D+02 -.278933840377295D+02
 0.682494479972723D+03 0.164052900882095D+03 0.653117789327742D+03 0.111006820371768D+03
 0.219258517512091D+02 0.950466602082396D+01 0.115034073727106D+02 0.160647414441088D+02
 0.652806274187305D+03 -.149614353619237D+03 -.620983103246791D+03 -.991781777781472D+02
 0.000000000000000D+00 -.000000000000000D+00 0.000000000000000D+00 0.000000000000000D+00
 0.743852341262794D+03 0.000000000000000D+00 0.000000000000000D+00 0.743852341262794D+03
 0.735595774837457D+03 0.000000000000000D+00 0.000000000000000D+00 -.735595774837457D+03
 0.107917972743384D+03 -.238901681885821D+02 -.445225390997283D+02 -.278933840377295D+02
 0.677236890757007D+03 0.164387619252776D+03 0.647536873598387D+03 0.111006820371768D+03
 0.218368413257781D+02 0.951543886731312D+01 0.113237866715854D+02 0.160647414441088D+02
 0.657852331129108D+03 -.149291715249383D+03 -.626362603480209D+03 -.991781777781472D+02
 0.146040801449730D+02 -.721174682124104D+00 0.120244823099649D+02 0.825656642533686D+01
0.444888739166D-04 0.000000000000D+00 0.000000000000D+00 0.272262292321D-05 0.000000000000D+00  7 2 -2 23 -13 13 23 21 0 0.39617913D+00 0.32046094D-01 0.51656227D+06 0.51656227D+06 0.51656227D+06 0.10675116D+01  1  2  2  1  7  1        2 0.155855390110D-03 0.100000000000D+01
-.247053660652D-05 0.000000000000D+00 -.170848990029D-06 0.272262292321D-05 0.000000000000D+00  7 2 -2 23 -13 13 23 21 2 0.39617913D+00 0.32046094D-01 0.51656227D+06 0.51656227D+06 0.51656227D+06 0.10675116D+01  1  2  3  1  7  1        2 -.986295177781D-05 0.100000000000D+01
0.277760698263D-05 0.000000000000D+00 0.000000000000D+00 0.272262292321D-05 0.000000000000D+00  7 2 -2 23 -13 13 23 21 2 0.39617913D+00 0.32046094D-01 0.51656227D+06 0.51656227D+06 0.51656227D+06 0.10675116D+01  1  2 15  1  7  1        2 0.110888475221D-04 0.100000000000D+01
0.318676182105D-04 0.000000000000D+00 0.000000000000D+00 0.272262292321D-05 0.000000000000D+00  7 2 -2 23 -13 13 23 21 2 0.40323193D+00 0.32046094D-01 0.52526148D+06 0.52526148D+06 0.52526148D+06 0.10670008D+01  1  2 12  1  7  1        2 0.119278859824D-03 0.100000000000D+01
-.317068835893D-04 0.000000000000D+00 0.000000000000D+00 0.272262292321D-05 0.000000000000D+00  7 2 -2 23 -13 13 23 21 2 0.39617913D+00 0.32046094D-01 0.51656227D+06 0.51656227D+06 0.51656227D+06 0.10675116D+01  1  2  4  1  7  1        2 -.126581190111D-03 0.100000000000D+01
-.213535860177D-02 0.000000000000D+00 -.220174752650D-03 0.272262292321D-05 0.000000000000D+00  7 2 -2 23 -13 13 23 21 2 0.40297302D+00 0.32046094D-01 0.51656227D+06 0.51656227D+06 0.51656227D+06 0.10675116D+01  1  2  5  1  7  1        2 -.802630854478D-02 0.100000000000D+01
0.213882490537D-02 0.000000000000D+00 0.220142929475D-03 0.272262292321D-05 0.000000000000D+00  7 2 -2 23 -13 13 23 21 2 0.39617913D+00 0.32046094D-01 0.51656227D+06 0.51656227D+06 0.51656227D+06 0.10675116D+01  1  2  6  1  7  1        2 0.853868218233D-02 0.100000000000D+01
0.181314718733D-05 0.000000000000D+00 0.000000000000D+00 0.272262292321D-05 0.000000000000D+00  7 21 -2 23 -13 13 23 -2 2 0.40323193D+00 0.32046094D-01 0.52526148D+06 0.52526148D+06 0.52526148D+06 0.10670008D+01  1  2 12  3  7  1        2 0.675241732253D-06 0.100000000000D+01
-.661398565421D-05 0.000000000000D+00 -.684370893956D-06 0.272262292321D-05 0.000000000000D+00  7 21 -2 23 -13 13 23 -2 2 0.40297302D+00 0.32046094D-01 0.51656227D+06 0.51656227D+06 0.51656227D+06 0.10675116D+01  1  2  5  3  7  1        2 -.248023595915D-05 0.100000000000D+01
  </mgrwgt>
  </event>
  <event>
  8     66 0.55102590E-06 0.31147610E+03 0.75467711E-02 0.90426039E-01
        2 -1    0    0  501    0 0.00000000E+00 0.00000000E+00 0.19859811E+04 0.19859811E+04 0.32000000E+00 0.0000E+00 0.9000E+01
       -2 -1    0    0    0  501 0.00000000E+00 0.00000000E+00 -.11895176E+03 0.11895219E+03 0.32000000E+00 0.0000E+00 0.9000E+01
       25  2    1    2    0    0 0.88529263E+02 0.26259642E+03 0.28914654E+03 0.50032070E+03 0.29986793E+03 0.0000E+00 0.0000E+00
       23  2    1    2    0    0 -.88529263E+02 -.26259642E+03 0.15778828E+04 0.16046126E+04 0.90957078E+02 0.0000E+00 0.0000E+00
       23  1    3    3    0    0 0.43368227E+02 0.15004681E+03 0.82304993E+01 0.18104651E+03 0.91188000E+02 0.0000E+00 0.9000E+01
      -11  1    4    4    0    0 0.90784451E+01 0.11338074E+01 0.29017143E+02 0.30425290E+02 0.51099893E-03 0.0000E+00 0.9000E+01
       11  1    4    4    0    0 -.97607709E+02 -.26373022E+03 0.15488656E+04 0.15741873E+04 0.51099893E-03 0.0000E+00 0.9000E+01
       23  1    3    3    0    0 0.45161036E+02 0.11254961E+03 0.28091604E+03 0.31927419E+03 0.91188000E+02 0.0000E+00 0.9000E+01
#aMCatNLO 1  0  0  2  1 0.63331071D+03 0.00000000D+00  -5  7  0 0.00000000D+00 0.00000000D+00 0.00000000D+00 0.00000000D+00 0.00000000D+00
  <mgrwgt>
 0.4344005604D-03    3    2    0
 0.486041581817354D+03 0.000000000000000D+00 0.000000000000000D+00 0.486041581817354D+03
 0.486041581817354D+03 0.000000000000000D+00 0.000000000000000D+00 -.486041581817354D+03
 0.376227325007724D+03 0.433682270894857D+02 0.150046807769636D+03 -.329904381746779D+03
 0.101507252451600D+02 0.907844514528409D+01 0.113380738528982D+01 0.439699187625563D+01
 0.433894663999962D+03 -.976077085903922D+02 -.263730223720493D+03 0.330429544332392D+03
 0.151810449381861D+03 0.451610363556224D+02 0.112549608565567D+03 -.492215446186874D+01
 0.000000000000000D+00 0.000000000000000D+00 0.000000000000000D+00 0.000000000000000D+00
 0.957770099866081D+03 0.000000000000000D+00 0.000000000000000D+00 0.957770099866081D+03
 0.845584711134567D+03 0.000000000000000D+00 0.000000000000000D+00 -.845584711134567D+03
 0.349033206025283D+03 0.229261724240857D+02 -.643926788272101D+02 -.329904381746779D+03
 0.108183036104795D+02 0.848741610702001D+01 -.506615468328320D+01 0.439699187625563D+01
 0.694933827203419D+03 -.129424652623143D+03 -.597493598055459D+03 0.330429544332392D+03
 0.105399188250069D+03 0.379113746851456D+02 0.364998302011050D+02 -.492215446186874D+01
 0.643170285911397D+03 0.600996894068919D+02 0.630452601364847D+03 0.112185388731514D+03
0.200675413201D-04 0.000000000000D+00 0.000000000000D+00 0.282521953648D-05 0.000000000000D+00  7 2 -2 23 -11 11 23 21 0 0.30553558D+00 0.18300306D-01 0.97017360D+05 0.97017360D+05 0.97017360D+05 0.11228028D+01  1  2  2  2  7  2       -2 0.424884457705D-03 0.100000000000D+01
-.846472559303D-06 0.000000000000D+00 -.770646425741D-07 0.282521953648D-05 0.000000000000D+00  7 2 -2 23 -11 11 23 21 2 0.30553558D+00 0.18300306D-01 0.97017360D+05 0.97017360D+05 0.97017360D+05 0.11228028D+01  1  2  3  2  7  2       -2 -.225941774595D-04 0.100000000000D+01
0.120298563876D-05 0.000000000000D+00 0.000000000000D+00 0.282521953648D-05 0.000000000000D+00  7 2 -2 23 -11 11 23 21 2 0.30553558D+00 0.18300306D-01 0.97017360D+05 0.97017360D+05 0.97017360D+05 0.11228028D+01  1  2 15  2  7  2       -2 0.321102801323D-04 0.100000000000D+01
  </mgrwgt>
  </event>
  <event>
  9     66 -.55102590E-06 0.38728047E+03 0.75467711E-02 0.97328065E-01
        2 -1    0    0  501    0 0.00000000E+00 0.00000000E+00 0.49935950E+03 0.49935960E+03 0.32000000E+00 0.0000E+00 0.9000E+01
       -2 -1    0    0    0  502 0.00000000E+00 0.00000000E+00 -.32754902E+03 0.32754918E+03 0.32000000E+00 0.0000E+00 0.9000E+01
       25  2    1    2    0    0 0.30040583E+03 -.12299298E+03 0.76845436E+02 0.44857094E+03 0.29989954E+03 0.0000E+00 0.0000E+00
       23  2    1    2    0    0 -.29419806E+03 0.14042705E+03 0.10812848E+03 0.35561511E+03 0.92185049E+02 0.0000E+00 0.0000E+00
       23  1    3    3    0    0 0.40377499E+02 -.13241785E+03 0.38711527E+02 0.17023121E+03 0.91188000E+02 0.0000E+00 0.9000E+01
      -11  1    4    4    0    0 -.67318308E+02 0.16382962E+01 -.29142011E+01 0.67401270E+02 0.51099893E-03 0.0000E+00 0.9000E+01
       11  1    4    4    0    0 -.22687975E+03 0.13878876E+03 0.11104268E+03 0.28821384E+03 0.51099893E-03 0.0000E+00 0.9000E+01
       23  1    3    3    0    0 0.26002833E+03 0.94248771E+01 0.38133909E+02 0.27833974E+03 0.91188000E+02 0.0000E+00 0.9000E+01
       21  1    1    2  501  502 -.62077743E+01 -.17434078E+02 -.13163447E+02 0.22722728E+02 0.75000000E+00 0.0000E+00 0.9000E+01
#aMCatNLO 2  0  0  2  1 0.18506311D+02 0.00000000D+00  -5  7  0 0.00000000D+00 0.00000000D+00 0.00000000D+00 0.00000000D+00 0.00000000D+00
  <mgrwgt>
 -.1372550207D-04    3    2    0
 0.391202432806447D+03 0.000000000000000D+00 0.000000000000000D+00 0.391202432806447D+03
 0.391202432806447D+03 0.000000000000000D+00 0.000000000000000D+00 -.391202432806447D+03
 0.168448426500249D+03 0.390517959893548D+02 -.136140993542286D+03 -.456238682022743D+00
 0.704642184332728D+02 -.678752576024969D+02 0.741451909682382D-01 -.189248510508625D+02
 0.268692493577844D+03 -.229016144397748D+03 0.132788849041358D+03 0.459824236044697D+02
 0.274799727101529D+03 0.257839606010890D+03 0.327799930996022D+01 -.266013338715845D+02
 0.000000000000000D+00 -.000000000000000D+00 -.000000000000000D+00 -.000000000000000D+00
 0.395088224265625D+03 0.000000000000000D+00 0.000000000000000D+00 0.395088224265625D+03
 0.413984629579161D+03 0.000000000000000D+00 0.000000000000000D+00 -.413984629579161D+03
 0.165771800044427D+03 0.403774994222704D+02 -.132417852771592D+03 -.456238682022743D+00
 0.699470417316345D+02 -.673183083970432D+02 0.163829614852432D+01 -.189248510508625D+02
 0.269909472317355D+03 -.226879749235360D+03 0.138788758020930D+03 0.459824236044697D+02
 0.276995386857285D+03 0.260028332541310D+03 0.942487709497390D+01 -.266013338715845D+02
 0.264491528940847D+02 -.620777433117717D+01 -.174340784928364D+02 -.188964053135369D+02
-.166937167447D-04 0.000000000000D+00 0.000000000000D+00 0.460955979104D-06 0.000000000000D+00  7 2 -2 23 -11 11 23 21 2 0.76067953D-01 0.50619472D-01 0.15732909D+06 0.15732909D+06 0.15732909D+06 0.11059207D+01  1  2 13  2  7  2       -2 -.581568398057D-03 0.100000000000D+01
-.522062175333D-05 0.000000000000D+00 0.000000000000D+00 0.460955979104D-06 0.000000000000D+00  7 2 -2 23 -11 11 23 21 2 0.76067953D-01 0.47618384D-01 0.14998616D+06 0.14998616D+06 0.14998616D+06 0.11075551D+01  1  2  8  2  7  2       -2 -.205774637750D-03 0.100000000000D+01
0.222551493655D-04 0.000000000000D+00 0.000000000000D+00 0.460955979104D-06 0.880354838301D-08  7 2 -2 23 -11 11 23 21 2 0.76823531D-01 0.50391504D-01 0.15732909D+06 0.15732909D+06 0.15732909D+06 0.11059207D+01  1  2  1  2  7  2       -2 0.773617533735D-03 0.100000000000D+01
  </mgrwgt>
  </event>
  <event>
  7     66 0.55102590E-06 0.31894902E+03 0.75467711E-02 0.84939343E-01
        2 -1    0    0  501    0 0.00000000E+00 0.00000000E+00 0.22866838E+03 0.22866861E+03 0.32000000E+00 0.0000E+00 0.9000E+01
       -2 -1    0    0    0  501 0.00000000E+00 0.00000000E+00 -.62953871E+03 0.62953879E+03 0.32000000E+00 0.0000E+00 0.9000E+01
       25  2    1    2    0    0 -.12059018E+03 0.16491348E+03 -.22056507E+03 0.42466864E+03 0.29992676E+03 0.0000E+00 0.0000E+00
       23  1    3    3    0    0 -.17034747E+03 0.81827182E+02 -.64318142E+02 0.21946759E+03 0.91188000E+02 0.0000E+00 0.9000E+01
      -13  1    1    2    0    0 0.18126282E+03 -.10363875E+03 -.24779543E+03 0.32403671E+03 0.10565837E+00 0.0000E+00 0.9000E+01
       13  1    1    2    0    0 -.60672642E+02 -.61274726E+02 0.67490179E+02 0.10950204E+03 0.10565837E+00 0.0000E+00 0.9000E+01
       23  1    3    3    0    0 0.49757286E+02 0.83086297E+02 -.15624693E+03 0.20520106E+03 0.91188000E+02 0.0000E+00 0.9000E+01
#aMCatNLO 1  0  0  2  1 0.12325038D+04 0.00000000D+00  -5  7  0 0.00000000D+00 0.00000000D+00 0.00000000D+00 0.00000000D+00 0.00000000D+00
  <mgrwgt>
 0.2612551393D-02    3    2    0
 0.379414982105939D+03 0.000000000000000D+00 0.000000000000000D+00 0.379414982105939D+03
 0.379414982105939D+03 0.000000000000000D+00 0.000000000000000D+00 -.379414982105939D+03
 0.214244943687784D+03 -.170357809031692D+03 0.818413285564293D+02 0.431955830360215D+02
 0.235566129178506D+03 0.181260936346859D+03 -.103652479739738D+03 -.109050619505841D+03
 0.159481873470459D+03 -.606531923676456D+02 -.612850200406158D+02 0.134163350211159D+03
 0.149537017875129D+03 0.497500650524782D+02 0.830961712239241D+02 -.683083137413394D+02
 0.000000000000000D+00 -.000000000000000D+00 -.000000000000000D+00 0.000000000000000D+00
 0.183614033818815D+04 0.000000000000000D+00 0.000000000000000D+00 0.183614033818815D+04
 0.106506376002143D+04 0.000000000000000D+00 0.000000000000000D+00 -.106506376002143D+04
 0.424494343522490D+03 -.326503571806716D+02 0.411033200752375D+03 0.431955830360215D+02
 0.407616321080313D+03 0.319926301189652D+03 0.227829298826005D+03 -.109050619505841D+03
 0.174344547158213D+03 0.113173074368979D+02 0.110761614001869D+03 0.134163350211159D+03
 0.440917803091575D+03 0.177047744178497D+03 0.387403314769274D+03 -.683083137413394D+02
 0.145383108335699D+04 -.475640995624375D+03 -.113702742834952D+04 0.771076578166713D+03
0.155696174177D-03 0.000000000000D+00 0.000000000000D+00 0.127357990898D-09 0.000000000000D+00  7 2 -2 23 -13 13 23 21 0 0.35179775D-01 0.96852132D-01 0.10172847D+06 0.10172847D+06 0.10172847D+06 0.11211118D+01  1  2  2  2  7  2       -2 0.258070979212D-02 0.100000000000D+01
-.833284326934D-05 0.000000000000D+00 -.597914304582D-06 0.127357990898D-09 0.000000000000D+00  7 2 -2 23 -13 13 23 21 2 0.35179775D-01 0.96852132D-01 0.10172847D+06 0.10172847D+06 0.10172847D+06 0.11211118D+01  1  2  3  2  7  2       -2 -.173601029753D-03 0.100000000000D+01
0.986123897647D-05 0.000000000000D+00 0.000000000000D+00 0.127357990898D-09 0.000000000000D+00  7 2 -2 23 -13 13 23 21 2 0.35179775D-01 0.96852132D-01 0.10172847D+06 0.10172847D+06 0.10172847D+06 0.11211118D+01  1  2 15  2  7  2       -2 0.205442630519D-03 0.100000000000D+01
  </mgrwgt>
  </event>
  <event>
  8     66 0.55102590E-06 0.10501237E+03 0.75467711E-02 0.10591380E+00
        2 -1    0    0  501    0 0.00000000E+00 0.00000000E+00 0.21606848E+04 0.21606848E+04 0.32000000E+00 0.0000E+00 0.9000E+01
       -2 -1    0    0    0  501 0.00000000E+00 0.00000000E+00 -.28488727E+02 0.28490525E+02 0.32000000E+00 0.0000E+00 0.9000E+01
       25  2    1    2    0    0 -.63357305E+02 -.11981447E+03 0.14937130E+04 0.15297749E+04 0.30110315E+03 0.0000E+00 0.0000E+00
       23  2    1    2    0    0 0.63357305E+02 0.11981447E+03 0.63848308E+03 0.65940045E+03 0.93694412E+02 0.0000E+00 0.0000E+00
       23  1    3    3    0    0 -.96139078E+02 -.62463061E+02 0.33532245E+03 0.36592452E+03 0.91188000E+02 0.0000E+00 0.9000E+01
      -13  1    4    4    0    0 0.73996272E+02 0.11473277E+03 0.44295566E+03 0.46351783E+03 0.10565837E+00 0.0000E+00 0.9000E+01
       13  1    4    4    0    0 -.10638968E+02 0.50816972E+01 0.19552743E+03 0.19588261E+03 0.10565837E+00 0.0000E+00 0.9000E+01
       23  1    3    3    0    0 0.32781773E+02 -.57351408E+02 0.11583905E+04 0.11638504E+04 0.91188000E+02 0.0000E+00 0.9000E+01
#aMCatNLO 1  0  0  1  2 0.45305633D+01 0.00000000D+00  -5  7  0 0.00000000D+00 0.00000000D+00 0.00000000D+00 0.00000000D+00 0.00000000D+00
  <mgrwgt>
 0.5022485346D-03   11    2    0
 0.248107140900112D+03 0.000000000000000D+00 0.000000000000000D+00 0.248107140900112D+03
 0.248107140900112D+03 0.000000000000000D+00 0.000000000000000D+00 -.248107140900112D+03
 0.173513186823038D+03 -.961390763177597D+02 -.624630733036736D+02 -.929904142141250D+02
 0.141579129844082D+03 0.739963868610065D+02 0.114732928641893D+03 -.374905297932416D+02
 0.240188439515597D+02 -.106390692602871D+02 0.508156388517438D+01 0.209258877595452D+02
 0.157103121181545D+03 0.327817587170403D+02 -.573514192233942D+02 0.109555056247821D+03
 0.000000000000000D+00 -.000000000000000D+00 -.000000000000000D+00 0.000000000000000D+00
 0.254654733703903D+03 0.000000000000000D+00 0.000000000000000D+00 0.254654733703903D+03
 0.248902445025448D+03 0.000000000000000D+00 0.000000000000000D+00 -.248902445025448D+03
 0.172532975987294D+03 -.951751244835113D+02 -.612115593892660D+02 -.929904142141250D+02
 0.142827196269228D+03 0.747886337609643D+02 0.115761515324045D+03 -.374905297932416D+02
 0.239973279227068D+02 -.105053146288937D+02 0.525521963887267D+01 0.209258877595452D+02
 0.156877463790918D+03 0.336563881547564D+02 -.562158739893260D+02 0.109555056247821D+03
 0.732221475920429D+01 -.276458280331581D+01 -.358930158432558D+01 0.575228867845465D+01
0.998085341777D-06 0.000000000000D+00 0.000000000000D+00 0.107850676074D-07 0.000000000000D+00  7 2 -2 23 -13 13 23 21 0 0.33241319D+00 0.43830212D-02 0.41495294D+05 0.41495294D+05 0.41495294D+05 0.11544864D+01  1  2  2  1  7  1        2 0.154986251140D-03 0.100000000000D+01
-.528276258681D-07 0.000000000000D+00 -.383291051433D-08 0.107850676074D-07 0.000000000000D+00  7 2 -2 23 -13 13 23 21 2 0.33241319D+00 0.43830212D-02 0.41495294D+05 0.41495294D+05 0.41495294D+05 0.11544864D+01  1  2  3  1  7  1        2 -.109336267305D-04 0.100000000000D+01
0.634638366327D-07 0.000000000000D+00 0.000000000000D+00 0.107850676074D-07 0.000000000000D+00  7 2 -2 23 -13 13 23 21 2 0.33241319D+00 0.43830212D-02 0.41495294D+05 0.41495294D+05 0.41495294D+05 0.11544864D+01  1  2 15  1  7  1        2 0.131349817302D-04 0.100000000000D+01
0.532017842755D-06 0.000000000000D+00 0.000000000000D+00 0.107850676074D-07 0.000000000000D+00  7 2 -2 23 -13 13 23 21 2 0.34171028D+00 0.43830212D-02 0.42376482D+05 0.42376482D+05 0.42376482D+05 0.11536690D+01  1  2 12  1  7  1        2 0.101997795164D-03 0.100000000000D+01
-.135875496023D-04 0.000000000000D+00 0.000000000000D+00 0.107850676074D-07 0.000000000000D+00  7 2 -2 23 -13 13 23 21 2 0.33241319D+00 0.43830212D-02 0.41495294D+05 0.41495294D+05 0.41495294D+05 0.11544864D+01  1  2  4  1  7  1        2 -.281218762140D-02 0.100000000000D+01
-.367305414822D-04 0.000000000000D+00 -.343504061664D-05 0.107850676074D-07 0.000000000000D+00  7 2 -2 23 -13 13 23 21 2 0.34157058D+00 0.43830212D-02 0.41495294D+05 0.41495294D+05 0.41495294D+05 0.11544864D+01  1  2  5  1  7  1        2 -.706150701213D-02 0.100000000000D+01
0.368115650270D-04 0.000000000000D+00 0.343377259593D-05 0.107850676074D-07 0.000000000000D+00  7 2 -2 23 -13 13 23 21 2 0.33241319D+00 0.43830212D-02 0.41495294D+05 0.41495294D+05 0.41495294D+05 0.11544864D+01  1  2  6  1  7  1        2 0.761881505666D-02 0.100000000000D+01
0.130524585667D-04 0.000000000000D+00 0.000000000000D+00 0.107850676074D-07 0.373174884615D-08  7 2 -2 23 -13 13 23 21 2 0.34118563D+00 0.43970709D-02 0.42376482D+05 0.42376482D+05 0.42376482D+05 0.11536690D+01  1  2 11  1  7  1        2 0.250121849405D-02 0.100000000000D+01
0.187454471764D-07 0.000000000000D+00 0.000000000000D+00 0.107850676074D-07 0.000000000000D+00  7 21 -2 23 -13 13 23 -2 2 0.34171028D+00 0.43830212D-02 0.42376482D+05 0.42376482D+05 0.42376482D+05 0.11536690D+01  1  2 12  3  7  1        2 0.632389749795D-06 0.100000000000D+01
-.178838099732D-06 0.000000000000D+00 -.168109151316D-07 0.107850676074D-07 0.000000000000D+00  7 21 -2 23 -13 13 23 -2 2 0.34157058D+00 0.43830212D-02 0.41495294D+05 0.41495294D+05 0.41495294D+05 0.11544864D+01  1  2  5  3  7  1        2 -.606389844339D-05 0.100000000000D+01
0.637045041627D-07 0.000000000000D+00 0.000000000000D+00 0.107850676074D-07 0.174614904135D-10  7 21 -2 23 -13 13 23 -2 2 0.34118563D+00 0.43970709D-02 0.42376482D+05 0.42376482D+05 0.42376482D+05 0.11536690D+01  1  2 11  3  7  1        2 0.215572485523D-05 0.100000000000D+01
  </mgrwgt>
  </event>
  <event>
  9     66 0.55102590E-06 0.23284432E+03 0.75467711E-02 0.10060469E+00
        2 -1    0    0  501    0 0.00000000E+00 0.00000000E+00 0.53973936E+03 0.53973946E+03 0.32000000E+00 0.0000E+00 0.9000E+01
       21 -1    0    0  502  501 0.00000000E+00 0.00000000E+00 -.22467815E+03 0.22467940E+03 0.75000000E+00 0.0000E+00 0.9000E+01
       25  2    1    2    0    0 -.67945443E+02 -.19044388E+03 0.12607098E+03 0.38299762E+03 0.29984634E+03 0.0000E+00 0.0000E+00
       23  2    1    2    0    0 0.14341449E+03 0.90826402E+02 0.59025505E+02 0.20111553E+03 0.90256846E+02 0.0000E+00 0.0000E+00
       23  1    3    3    0    0 0.11549271E+02 -.13264130E+03 0.17704890E+03 0.23955931E+03 0.91188000E+02 0.0000E+00 0.9000E+01
      -11  1    4    4    0    0 0.12081565E+03 0.10681043E+03 0.63042828E+02 0.17314528E+03 0.51099893E-03 0.0000E+00 0.9000E+01
       11  1    4    4    0    0 0.22598831E+02 -.15984026E+02 -.40173235E+01 0.27970255E+02 0.51099893E-03 0.0000E+00 0.9000E+01
       23  1    3    3    0    0 -.79494714E+02 -.57802579E+02 -.50977917E+02 0.14343830E+03 0.91188000E+02 0.0000E+00 0.9000E+01
        2  1    1    2  502    0 -.75469042E+02 0.99617475E+02 0.12996472E+03 0.18030571E+03 0.32000000E+00 0.0000E+00 0.9000E+01
#aMCatNLO 2  0  0  2  1 0.12497687D+03 0.00000000D+00  -5  7  0 0.00000000D+00 0.00000000D+00 0.00000000D+00 0.00000000D+00 0.00000000D+00
  <mgrwgt>
 0.8101113081D-04    1    2    0
 0.269864894665751D+03 0.000000000000000D+00 0.000000000000000D+00 0.269864894665751D+03
 0.269864894665751D+03 0.000000000000000D+00 0.000000000000000D+00 -.269864894665751D+03
 0.172444829489258D+03 -.136959687940381D+02 -.993181377418935D+02 0.106631589258786D+03
 0.168583936391822D+03 0.980402218542538D+02 0.136873497580016D+03 0.861998656286319D+01
 0.255379374415265D+02 0.187092379319929D+02 -.108498487972952D+02 -.135805539595125D+02
 0.173163086008895D+03 -.103053490992209D+03 -.267055110408273D+02 -.101671021862137D+03
 0.000000000000000D+00 -.000000000000000D+00 0.000000000000000D+00 0.000000000000000D+00
 0.388738505471945D+03 0.000000000000000D+00 0.000000000000000D+00 0.388738505471945D+03
 0.311952706729807D+03 0.000000000000000D+00 0.000000000000000D+00 -.311952706729807D+03
 0.193423491070640D+03 0.115492707507191D+02 -.132641298513043D+03 0.106631589258786D+03
 0.161490538396737D+03 0.120815654203508D+03 0.106810427967977D+03 0.861998656286319D+01
 0.308322510459964D+02 0.225988310767966D+02 -.159840261723550D+02 -.135805539595125D+02
 0.168264065228322D+03 -.794947138702183D+02 -.578025785182799D+02 -.101671021862137D+03
 0.146680866460057D+03 -.754690421608048D+02 0.996174752357008D+02 0.767857987421380D+02
0.103945755686D-06 0.000000000000D+00 0.000000000000D+00 0.157631738584D-06 0.258939664061D-11  7 2 21 23 -11 11 23 2 2 0.83036885D-01 0.34565955D-01 0.92832254D+05 0.92832254D+05 0.92832254D+05 0.11243824D+01  1  2  1  4  7  2       -2 0.810111308132D-04 0.100000000000D+01
  </mgrwgt>
  </event>
  <event>
  8     66 0.55102590E-06 0.23007754E+03 0.75467711E-02 0.86943286E-01
        2 -1    0    0  501    0 0.00000000E+00 0.00000000E+00 0.10037394E+04 0.10037395E+04 0.32000000E+00 0.0000E+00 0.9000E+01
       -2 -1    0    0    0  501 0.00000000E+00 0.00000000E+00 -.78865150E+02 0.78865800E+02 0.32000000E+00 0.0000E+00 0.9000E+01
       25  2    1    2    0    0 0.16934733E+03 0.79165555E+02 0.60978898E+03 0.70465028E+03 0.29957255E+03 0.0000E+00 0.0000E+00
       23  2    1    2    0    0 -.16934733E+03 -.79165555E+02 0.31508532E+03 0.37795502E+03 0.92873782E+02 0.0000E+00 0.0000E+00
       23  1    3    3    0    0 0.39079887E+02 0.17110599E+02 0.47939564E+03 0.48985247E+03 0.91188000E+02 0.0000E+00 0.9000E+01
      -13  1    4    4    0    0 -.13213178E+03 -.49147062E+02 0.14899235E+03 0.20511697E+03 0.10565837E+00 0.0000E+00 0.9000E+01
       13  1    4    4    0    0 -.37215550E+02 -.30018493E+02 0.16609297E+03 0.17283805E+03 0.10565837E+00 0.0000E+00 0.9000E+01
       23  1    3    3    0    0 0.13026744E+03 0.62054956E+02 0.13039334E+03 0.21479780E+03 0.91188000E+02 0.0000E+00 0.9000E+01
#aMCatNLO 1  0  0  1  1 0.99550624D+03 0.00000000D+00  -5  7  0 0.00000000D+00 0.00000000D+00 0.00000000D+00 0.00000000D+00 0.00000000D+00
  <mgrwgt>
 0.2323413657D-03    5    2    0
 0.281354654206044D+03 0.000000000000000D+00 0.000000000000000D+00 0.281354654206044D+03
 0.281354654206044D+03 0.000000000000000D+00 0.000000000000000D+00 -.281354654206044D+03
 0.154495707583099D+03 0.390798876499173D+02 0.171105998513206D+02 0.117190708128248D+03
 0.149742660952370D+03 -.132131898815272D+03 -.491470878010585D+02 -.504835575731553D+02
 0.595337726512049D+02 -.372154288478989D+02 -.300184680592425D+02 0.354707417053629D+02
 0.198937167225414D+03 0.130267440013253D+03 0.620549560089804D+02 -.102177892260456D+03
 0.000000000000000D+00 0.000000000000000D+00 -.000000000000000D+00 0.000000000000000D+00
 0.120210291642609D+04 0.000000000000000D+00 0.000000000000000D+00 0.120210291642609D+04
 0.964825935590417D+03 0.000000000000000D+00 0.000000000000000D+00 -.964825935590417D+03
 0.310507825389551D+03 -.810067049746232D+02 0.260392223312645D+03 0.117190708128248D+03
 0.329807341631967D+03 -.255975099393341D+03 0.201744991262912D+03 -.504835575731553D+02
 0.102505236824722D+03 -.790618044997676D+02 0.547574755499580D+02 0.354707417053629D+02
 0.400715537638133D+03 -.245921362674024D+02 0.375782644526905D+03 -.102177892260456D+03
 0.102339291053214D+04 0.440635745135134D+03 -.892677334652420D+03 0.237276980835677D+03
0.161649624139D-05 0.000000000000D+00 0.000000000000D+00 0.100809738350D-06 0.000000000000D+00  7 2 -2 23 -13 13 23 21 0 0.15442151D+00 0.12133154D-01 0.52935675D+05 0.52935675D+05 0.52935675D+05 0.11451222D+01  1  2  2  1  7  1        2 0.229099860268D-03 0.100000000000D+01
-.853851874532D-07 0.000000000000D+00 -.620777120017D-08 0.100809738350D-06 0.000000000000D+00  7 2 -2 23 -13 13 23 21 2 0.15442151D+00 0.12133154D-01 0.52935675D+05 0.52935675D+05 0.52935675D+05 0.11451222D+01  1  2  3  1  7  1        2 -.158685178295D-04 0.100000000000D+01
0.102245342953D-06 0.000000000000D+00 0.000000000000D+00 0.100809738350D-06 0.000000000000D+00  7 2 -2 23 -13 13 23 21 2 0.15442151D+00 0.12133154D-01 0.52935675D+05 0.52935675D+05 0.52935675D+05 0.11451222D+01  1  2 15  1  7  1        2 0.190019146883D-04 0.100000000000D+01
0.118522455216D-05 0.000000000000D+00 -.641439695641D-06 0.100809738350D-06 0.000000000000D+00  7 2 -2 23 -13 13 23 21 2 0.82327998D+00 0.12133154D-01 0.52935675D+05 0.52935675D+05 0.52935675D+05 0.11451222D+01  1  2  5  1  7  1        2 0.108015667763D-06 0.100000000000D+01
0.216360941146D-06 0.000000000000D+00 -.131245226130D-06 0.100809738350D-06 0.000000000000D+00  7 21 -2 23 -13 13 23 -2 2 0.82327998D+00 0.12133154D-01 0.52935675D+05 0.52935675D+05 0.52935675D+05 0.11451222D+01  1  2  5  3  7  1        2 0.929015104438D-10 0.100000000000D+01
  </mgrwgt>
  </event>
  <event>
  8     66 0.55102590E-06 0.12681798E+03 0.75467711E-02 0.97264744E-01
        2 -1    0    0  501    0 0.00000000E+00 0.00000000E+00 0.30059750E+04 0.30059750E+04 0.32000000E+00 0.0000E+00 0.9000E+01
       -2 -1    0    0    0  501 0.00000000E+00 0.00000000E+00 -.39846497E+02 0.39847782E+02 0.32000000E+00 0.0000E+00 0.9000E+01
       25  2    1    2    0    0 -.17674145E+03 0.10920478E+03 0.25028783E+04 0.25298434E+04 0.30421176E+03 0.0000E+00 0.0000E+00
       23  2    1    2    0    0 0.17674145E+03 -.10920478E+03 0.46325025E+03 0.51597941E+03 0.92036591E+02 0.0000E+00 0.0000E+00
       23  1    3    3    0    0 -.18992556E+03 -.15226491E+02 0.15820322E+04 0.15960716E+04 0.91188000E+02 0.0000E+00 0.9000E+01
      -11  1    4    4    0    0 0.12824714E+03 -.10581729E+03 0.27325678E+03 0.31986543E+03 0.51099893E-03 0.0000E+00 0.9000E+01
       11  1    4    4    0    0 0.48494305E+02 -.33874919E+01 0.18999347E+03 0.19611398E+03 0.51099893E-03 0.0000E+00 0.9000E+01
       23  1    3    3    0    0 0.13184115E+02 0.12443127E+03 0.92084609E+03 0.93377178E+03 0.91188000E+02 0.0000E+00 0.9000E+01
#aMCatNLO 1  0  0  1  2 0.20057361D+03 0.00000000D+00  -5  7  0 0.00000000D+00 0.00000000D+00 0.00000000D+00 0.00000000D+00 0.00000000D+00
  <mgrwgt>
 0.3949652936D-03    8    2    0
 0.346091833271841D+03 0.000000000000000D+00 0.000000000000000D+00 0.346091833271841D+03
 0.346091833271841D+03 0.000000000000000D+00 0.000000000000000D+00 -.346091833271841D+03
 0.243924572910596D+03 -.189925562103193D+03 -.152264904943720D+02 0.121985166199123D+03
 0.236553851748594D+03 0.128247142686517D+03 -.105817291125948D+03 -.168264957934224D+03
 0.488069460467004D+02 0.484943049461880D+02 -.338749186033782D+01 -.435261634971376D+01
 0.162898295837791D+03 0.131841144704875D+02 0.124431273480658D+03 0.506324080848146D+02
 0.000000000000000D+00 0.000000000000000D+00 -.000000000000000D+00 0.000000000000000D+00
 0.608143639880196D+03 0.000000000000000D+00 0.000000000000000D+00 0.608143639880196D+03
 0.400913558107819D+03 0.000000000000000D+00 0.000000000000000D+00 -.400913558107819D+03
 0.304993574179046D+03 -.264103306965073D+03 0.865398312882972D+01 0.121985166199123D+03
 0.201514372339785D+03 0.690490397802601D+02 -.867593009210861D+02 -.168264957934224D+03
 0.371378300146802D+02 0.368802060050367D+02 0.351502684964772D+00 -.435261634971376D+01
 0.177012256108145D+03 -.327495066564324D+02 0.139218951776649D+03 0.506324080848146D+02
 0.288399165346358D+03 0.190923567836209D+03 -.614651366693569D+02 0.207230081772377D+03
0.771785750869D-05 0.000000000000D+00 0.000000000000D+00 0.115109644894D-07 0.000000000000D+00  7 2 -2 23 -11 11 23 21 0 0.46245780D+00 0.61303304D-02 0.84372969D+05 0.84372969D+05 0.84372969D+05 0.11278287D+01  1  2  2  1  7  1        2 0.234602525152D-03 0.100000000000D+01
-.412767329238D-06 0.000000000000D+00 -.296386049919D-07 0.115109644894D-07 0.000000000000D+00  7 2 -2 23 -11 11 23 21 2 0.46245780D+00 0.61303304D-02 0.84372969D+05 0.84372969D+05 0.84372969D+05 0.11278287D+01  1  2  3  1  7  1        2 -.159598027055D-04 0.100000000000D+01
0.488632960947D-06 0.000000000000D+00 0.000000000000D+00 0.115109644894D-07 0.000000000000D+00  7 2 -2 23 -11 11 23 21 2 0.46245780D+00 0.61303304D-02 0.84372969D+05 0.84372969D+05 0.84372969D+05 0.11278287D+01  1  2 15  1  7  1        2 0.188931756458D-04 0.100000000000D+01
0.862537846688D-06 0.000000000000D+00 0.000000000000D+00 0.115109644894D-07 0.000000000000D+00  7 2 -2 23 -11 11 23 21 2 0.82555721D+00 0.61303304D-02 0.15899796D+06 0.15899796D+06 0.15899796D+06 0.11055609D+01  1  2 12  1  7  1        2 0.174046730128D-06 0.100000000000D+01
-.368132074099D-05 0.000000000000D+00 -.153296062472D-05 0.115109644894D-07 0.000000000000D+00  7 2 -2 23 -11 11 23 21 2 0.82220916D+00 0.61303304D-02 0.84372969D+05 0.84372969D+05 0.84372969D+05 0.11278287D+01  1  2  5  1  7  1        2 -.897007997255D-06 0.100000000000D+01
0.409028725193D-05 0.000000000000D+00 0.131001596354D-05 0.115109644894D-07 0.000000000000D+00  7 2 -2 23 -11 11 23 21 2 0.46245780D+00 0.61303304D-02 0.84372969D+05 0.84372969D+05 0.84372969D+05 0.11278287D+01  1  2  6  1  7  1        2 0.158152481860D-03 0.100000000000D+01
0.549256062240D-07 0.000000000000D+00 0.000000000000D+00 0.115109644894D-07 0.000000000000D+00  7 21 -2 23 -11 11 23 -2 2 0.82555721D+00 0.61303304D-02 0.15899796D+06 0.15899796D+06 0.15899796D+06 0.11055609D+01  1  2 12  3  7  1        2 0.500583955563D-10 0.100000000000D+01
-.153073998803D-06 0.000000000000D+00 -.970292179881D-07 0.115109644894D-07 0.000000000000D+00  7 21 -2 23 -11 11 23 -2 2 0.82220916D+00 0.61303304D-02 0.84372969D+05 0.84372969D+05 0.84372969D+05 0.11278287D+01  1  2  5  3  7  1        2 -.175179159194D-09 0.100000000000D+01
  </mgrwgt>
  </event>
  <event>
  8     66 0.55102590E-06 0.18008898E+03 0.75467711E-02 0.10312611E+00
        2 -1    0    0  501    0 0.00000000E+00 0.00000000E+00 0.19997397E+04 0.19997397E+04 0.32000000E+00 0.0000E+00 0.9000E+01
       -2 -1    0    0    0  501 0.00000000E+00 0.00000000E+00 -.26913562E+02 0.26915465E+02 0.32000000E+00 0.0000E+00 0.9000E+01
       25  2    1    2    0    0 -.97095078E+02 -.34698330E+02 0.11516474E+04 0.11944061E+04 0.29947100E+03 0.0000E+00 0.0000E+00
       23  2    1    2    0    0 0.97095078E+02 0.34698330E+02 0.82117876E+03 0.83224906E+03 0.87592942E+02 0.0000E+00 0.0000E+00
       23  1    3    3    0    0 -.48535107E+02 0.37140245E+02 0.15550415E+03 0.19034665E+03 0.91188000E+02 0.0000E+00 0.9000E+01
      -13  1    4    4    0    0 0.97559537E+02 0.80208065E+01 0.74760928E+03 0.75399061E+03 0.10565837E+00 0.0000E+00 0.9000E+01
       13  1    4    4    0    0 -.46445905E+00 0.26677524E+02 0.73569478E+02 0.78258452E+02 0.10565837E+00 0.0000E+00 0.9000E+01
       23  1    3    3    0    0 -.48559971E+02 -.71838576E+02 0.99614323E+03 0.10040595E+04 0.91188000E+02 0.0000E+00 0.9000E+01
#aMCatNLO 1  0  0  2  2 0.12549660D+03 0.00000000D+00  -5  7  0 0.00000000D+00 0.00000000D+00 0.00000000D+00 0.00000000D+00 0.00000000D+00
  <mgrwgt>
 0.4189893934D-03    3    2    0
 0.231995846673871D+03 0.000000000000000D+00 0.000000000000000D+00 0.231995846673871D+03
 0.231995846673871D+03 0.000000000000000D+00 0.000000000000000D+00 -.231995846673871D+03
 0.170227982283512D+03 -.485351099845618D+02 0.371402424969379D+02 -.130104804270906D+03
 0.114605324895065D+03 0.975596827753976D+02 0.802078242871776D+01 0.595999651031635D+02
 0.290157127341516D+02 -.464599097180518D+00 0.266775502302095D+02 -.114019317163519D+02
 0.150142673435013D+03 -.485599736936552D+02 -.718385751558652D+02 0.819067708840947D+02
 0.000000000000000D+00 -.000000000000000D+00 -.000000000000000D+00 0.000000000000000D+00
 0.576562267866481D+03 0.000000000000000D+00 0.000000000000000D+00 0.576562267866481D+03
 0.252042171433008D+03 0.000000000000000D+00 0.000000000000000D+00 -.252042171433008D+03
 0.171611919898688D+03 -.117666070798408D+02 0.637940951089624D+02 -.130104804270906D+03
 0.141360782035823D+03 0.125091549260610D+03 0.279789056444600D+02 0.595999651031635D+02
 0.341914937614038D+02 0.633400557358852D+01 0.316059262190734D+02 -.114019317163519D+02
 0.133499603309770D+03 -.180512419457928D+02 -.497224927715887D+02 0.819067708840947D+02
 0.347940640293805D+03 -.101607705808565D+03 -.736564342009071D+02 0.324520096433473D+03
0.200154893553D-05 0.000000000000D+00 0.000000000000D+00 0.899179054178D-08 0.000000000000D+00  7 2 -2 23 -13 13 23 21 0 0.30765241D+00 0.41406964D-02 0.32432039D+05 0.32432039D+05 0.32432039D+05 0.11642080D+01  1  2  2  2  7  2       -2 0.412157980704D-03 0.100000000000D+01
-.102524802628D-06 0.000000000000D+00 -.768647493238D-08 0.899179054178D-08 0.000000000000D+00  7 2 -2 23 -13 13 23 21 2 0.30765241D+00 0.41406964D-02 0.32432039D+05 0.32432039D+05 0.32432039D+05 0.11642080D+01  1  2  3  2  7  2       -2 -.286145926025D-04 0.100000000000D+01
0.127001448261D-06 0.000000000000D+00 0.000000000000D+00 0.899179054178D-08 0.000000000000D+00  7 2 -2 23 -13 13 23 21 2 0.30765241D+00 0.41406964D-02 0.32432039D+05 0.32432039D+05 0.32432039D+05 0.11642080D+01  1  2 15  2  7  2       -2 0.354460053449D-04 0.100000000000D+01
  </mgrwgt>
  </event>
  <event>
  8     66 0.55102590E-06 0.33811779E+03 0.75467711E-02 0.97686209E-01
        2 -1    0    0  501    0 0.00000000E+00 0.00000000E+00 0.21387657E+04 0.21387657E+04 0.32000000E+00 0.0000E+00 0.9000E+01
       -2 -1    0    0    0  501 0.00000000E+00 0.00000000E+00 -.74867523E+02 0.74868207E+02 0.32000000E+00 0.0000E+00 0.9000E+01
       25  2    1    2    0    0 -.28198677E+03 0.29844576E+02 0.65867515E+03 0.77711114E+03 0.29940197E+03 0.0000E+00 0.0000E+00
       23  2    1    2    0    0 0.28198677E+03 -.29844576E+02 0.14052230E+04 0.14365228E+04 0.92405202E+02 0.0000E+00 0.0000E+00
       23  1    3    3    0    0 -.15300346E+02 0.58359245E+02 0.30477891E+03 0.32379830E+03 0.91188000E+02 0.0000E+00 0.9000E+01
      -11  1    4    4    0    0 0.32914501E+02 -.52068467E+01 0.36897799E+03 0.37047974E+03 0.51099893E-03 0.0000E+00 0.9000E+01
       11  1    4    4    0    0 0.24907227E+03 -.24637730E+02 0.10362450E+04 0.10660431E+04 0.51099893E-03 0.0000E+00 0.9000E+01
       23  1    3    3    0    0 -.26668643E+03 -.28514668E+02 0.35389624E+03 0.45331285E+03 0.91188000E+02 0.0000E+00 0.9000E+01
#aMCatNLO 1  0  0  1  2 0.86928811D+02 0.00000000D+00  -5  7  0 0.00000000D+00 0.00000000D+00 0.00000000D+00 0.00000000D+00 0.00000000D+00
  <mgrwgt>
 0.2364709372D-03    4    2    0
 0.400156062306257D+03 0.000000000000000D+00 0.000000000000000D+00 0.400156062306257D+03
 0.400156062306257D+03 0.000000000000000D+00 0.000000000000000D+00 -.400156062306257D+03
 0.109630053658309D+03 -.153003462250481D+02 0.583592446796006D+02 0.797466531861575D+01
 0.731883302417798D+02 0.329145014852213D+02 -.520684671375576D+01 0.651617681072163D+02
 0.276298240588572D+03 0.249072272630106D+03 -.246377296186013D+02 0.117032914338040D+03
 0.341195500123854D+03 -.266686427890279D+03 -.285146683472435D+02 -.190169347763872D+03
 0.000000000000000D+00 0.000000000000000D+00 0.000000000000000D+00 -.000000000000000D+00
 0.431689441303823D+03 0.000000000000000D+00 0.000000000000000D+00 0.431689441303823D+03
 0.467251570816995D+03 0.000000000000000D+00 0.000000000000000D+00 -.467251570816995D+03
 0.104564131976623D+03 -.182399633031309D+02 0.471393127207115D+02 0.797466531861575D+01
 0.732597983529893D+02 0.309046363780321D+02 -.128781008772114D+02 0.651617681072163D+02
 0.273655407998397D+03 0.241524667485046D+03 -.534454327754246D+02 0.117032914338040D+03
 0.353539987469847D+03 -.276221029859174D+03 -.649063419919821D+02 -.190169347763872D+03
 0.939216863229618D+02 0.220316892992272D+02 0.840905629239067D+02 -.355621295131723D+02
0.116155981311D-04 0.000000000000D+00 0.000000000000D+00 0.264170201484D-06 0.000000000000D+00  7 2 -2 23 -11 11 23 21 0 0.32904093D+00 0.11518135D-01 0.11432364D+06 0.11432364D+06 0.11432364D+06 0.11169823D+01  1  2  2  1  7  1        2 0.423551664468D-03 0.100000000000D+01
-.623044826022D-06 0.000000000000D+00 -.446069552808D-07 0.264170201484D-06 0.000000000000D+00  7 2 -2 23 -11 11 23 21 2 0.32904093D+00 0.11518135D-01 0.11432364D+06 0.11432364D+06 0.11432364D+06 0.11169823D+01  1  2  3  1  7  1        2 -.283450151323D-04 0.100000000000D+01
0.741754344329D-06 0.000000000000D+00 0.000000000000D+00 0.264170201484D-06 0.000000000000D+00  7 2 -2 23 -11 11 23 21 2 0.32904093D+00 0.11518135D-01 0.11432364D+06 0.11432364D+06 0.11432364D+06 0.11169823D+01  1  2 15  1  7  1        2 0.337456266969D-04 0.100000000000D+01
-.423088510250D-05 0.000000000000D+00 0.000000000000D+00 0.264170201484D-06 0.000000000000D+00  7 2 -2 23 -11 11 23 21 2 0.32904093D+00 0.11518135D-01 0.11432364D+06 0.11432364D+06 0.11432364D+06 0.11169823D+01  1  2  4  1  7  1        2 -.192481338813D-03 0.100000000000D+01
  </mgrwgt>
  </event>
  <event>
  8     66 0.55102590E-06 0.81005562E+02 0.75467711E-02 0.10121243E+00
        2 -1    0    0  501    0 0.00000000E+00 0.00000000E+00 0.84259895E+03 0.84259901E+03 0.32000000E+00 0.0000E+00 0.9000E+01
       -2 -1    0    0    0  501 0.00000000E+00 0.00000000E+00 -.10491561E+03 0.10491610E+03 0.32000000E+00 0.0000E+00 0.9000E+01
       25  2    1    2    0    0 -.21020693E+03 -.16951979E+02 0.43370554E+03 0.56617606E+03 0.29661508E+03 0.0000E+00 0.0000E+00
       23  2    1    2    0    0 0.21020693E+03 0.16951979E+02 0.30397779E+03 0.38133905E+03 0.92426475E+02 0.0000E+00 0.0000E+00
       23  1    3    3    0    0 -.23664532E+03 -.36654802E+02 0.24758909E+03 0.35631474E+03 0.91188000E+02 0.0000E+00 0.9000E+01
      -13  1    4    4    0    0 0.12459962E+03 0.31743329E+02 0.11160719E+03 0.17026122E+03 0.10565837E+00 0.0000E+00 0.9000E+01
       13  1    4    4    0    0 0.85607306E+02 -.14791350E+02 0.19237060E+03 0.21107784E+03 0.10565837E+00 0.0000E+00 0.9000E+01
       23  1    3    3    0    0 0.26438389E+02 0.19702823E+02 0.18611645E+03 0.20986132E+03 0.91188000E+02 0.0000E+00 0.9000E+01
#aMCatNLO 1  0  0  1  2 0.12738627D+02 0.00000000D+00  -5  7  0 0.00000000D+00 0.00000000D+00 0.00000000D+00 0.00000000D+00 0.00000000D+00
  <mgrwgt>
 0.3165445056D-03    9    2    0
 0.297324814947953D+03 0.000000000000000D+00 0.000000000000000D+00 0.297324814947953D+03
 0.297324814947953D+03 0.000000000000000D+00 0.000000000000000D+00 -.297324814947953D+03
 0.260609344083597D+03 -.236645319883413D+03 -.366548022434726D+02 -.475120714077148D+02
 0.132841814185652D+03 0.124599674646369D+03 0.317433881193546D+02 -.333800237396270D+02
 0.976891687807426D+02 0.856072566989616D+02 -.147914087988541D+02 0.446742154189158D+02
 0.103509302845915D+03 0.264383885380815D+02 0.197028229229721D+02 0.362178797284260D+02
 0.000000000000000D+00 0.000000000000000D+00 0.000000000000000D+00 0.000000000000000D+00
 0.307467994032014D+03 0.000000000000000D+00 0.000000000000000D+00 0.307467994032014D+03
 0.301419659144115D+03 0.000000000000000D+00 0.000000000000000D+00 -.301419659144115D+03
 0.264304005124266D+03 -.239974537339756D+03 -.411847092966081D+02 -.475120714077148D+02
 0.130743642770711D+03 0.122927906713887D+03 0.294686934056987D+02 -.333800237396270D+02
 0.968808670902830D+02 0.843732130975161D+02 -.164705129389014D+02 0.446742154189158D+02
 0.102857543159063D+03 0.251295246900441D+02 0.179219144498650D+02 0.362178797284260D+02
 0.141015950318059D+02 0.754389283830898D+01 0.102646143799458D+02 0.604833488789869D+01
0.115441055168D-05 0.000000000000D+00 0.000000000000D+00 0.570074147636D-08 0.000000000000D+00  7 2 -2 23 -13 13 23 21 0 0.12963065D+00 0.16140906D-01 0.80844478D+05 0.80844478D+05 0.80844478D+05 0.11293801D+01  1  2  2  1  7  1        2 0.131495106719D-03 0.100000000000D+01
-.639782256296D-07 0.000000000000D+00 -.443324048173D-08 0.570074147636D-08 0.000000000000D+00  7 2 -2 23 -13 13 23 21 2 0.12963065D+00 0.16140906D-01 0.80844478D+05 0.80844478D+05 0.80844478D+05 0.11293801D+01  1  2  3  1  7  1        2 -.929526473357D-05 0.100000000000D+01
0.740046434025D-07 0.000000000000D+00 0.000000000000D+00 0.570074147636D-08 0.000000000000D+00  7 2 -2 23 -13 13 23 21 2 0.12963065D+00 0.16140906D-01 0.80844478D+05 0.80844478D+05 0.80844478D+05 0.11293801D+01  1  2 15  1  7  1        2 0.107519823373D-04 0.100000000000D+01
0.281962586006D-05 0.000000000000D+00 0.000000000000D+00 0.570074147636D-08 0.000000000000D+00  7 2 -2 23 -13 13 23 21 2 0.13492389D+00 0.16140906D-01 0.84501772D+05 0.84501772D+05 0.84501772D+05 0.11277734D+01  1  2 12  1  7  1        2 0.387827613027D-03 0.100000000000D+01
-.271244197844D-05 0.000000000000D+00 0.000000000000D+00 0.570074147636D-08 0.000000000000D+00  7 2 -2 23 -13 13 23 21 2 0.12963065D+00 0.16140906D-01 0.80844478D+05 0.80844478D+05 0.80844478D+05 0.11293801D+01  1  2  4  1  7  1        2 -.394085112800D-03 0.100000000000D+01
-.241406280250D-04 0.000000000000D+00 -.332848327902D-05 0.570074147636D-08 0.000000000000D+00  7 2 -2 23 -13 13 23 21 2 0.13527776D+00 0.16140906D-01 0.80844478D+05 0.80844478D+05 0.80844478D+05 0.11293801D+01  1  2  5  1  7  1        2 -.331899334500D-02 0.100000000000D+01
0.242635193139D-04 0.000000000000D+00 0.332545957285D-05 0.570074147636D-08 0.000000000000D+00  7 2 -2 23 -13 13 23 21 2 0.12963065D+00 0.16140906D-01 0.80844478D+05 0.80844478D+05 0.80844478D+05 0.11293801D+01  1  2  6  1  7  1        2 0.352519678642D-02 0.100000000000D+01
0.471508748964D-07 0.000000000000D+00 0.000000000000D+00 0.570074147636D-08 0.000000000000D+00  7 21 -2 23 -13 13 23 -2 2 0.13492389D+00 0.16140906D-01 0.84501772D+05 0.84501772D+05 0.84501772D+05 0.11277734D+01  1  2 12  3  7  1        2 0.586265184001D-05 0.100000000000D+01
-.179091836670D-06 0.000000000000D+00 -.249894820469D-07 0.570074147636D-08 0.000000000000D+00  7 21 -2 23 -13 13 23 -2 2 0.13527776D+00 0.16140906D-01 0.80844478D+05 0.80844478D+05 0.80844478D+05 0.11293801D+01  1  2  5  3  7  1        2 -.222159121638D-04 0.100000000000D+01
  </mgrwgt>
  </event>
  <event>
  8     66 0.55102590E-06 0.54300609E+03 0.75467711E-02 0.93678446E-01
        2 -1    0    0  501    0 0.00000000E+00 0.00000000E+00 0.42276883E+03 0.42276895E+03 0.32000000E+00 0.0000E+00 0.9000E+01
       -2 -1    0    0    0  501 0.00000000E+00 0.00000000E+00 -.91101082E+03 0.91101088E+03 0.32000000E+00 0.0000E+00 0.9000E+01
       25  2    1    2    0    0 -.33434500E+03 -.39736863E+03 -.53604732E+03 0.80416293E+03 0.29940420E+03 0.0000E+00 0.0000E+00
       23  2    1    2    0    0 0.33434500E+03 0.39736863E+03 0.47805334E+02 0.52961691E+03 0.92305553E+02 0.0000E+00 0.0000E+00
       23  1    3    3    0    0 -.89141942E+02 -.20686587E+03 -.10394942E+03 0.26431139E+03 0.91188000E+02 0.0000E+00 0.9000E+01
      -13  1    4    4    0    0 0.18833077E+03 0.23002824E+03 -.18434546E+02 0.29786123E+03 0.10565837E+00 0.0000E+00 0.9000E+01
       13  1    4    4    0    0 0.14601423E+03 0.16734038E+03 0.66239880E+02 0.23175567E+03 0.10565837E+00 0.0000E+00 0.9000E+01
       23  1    3    3    0    0 -.24520306E+03 -.19050275E+03 -.43209790E+03 0.53985154E+03 0.91188000E+02 0.0000E+00 0.9000E+01
#aMCatNLO 1  0  0  1  1 0.20596974D+01 0.00000000D+00  -5  7  0 0.00000000D+00 0.00000000D+00 0.00000000D+00 0.00000000D+00 0.00000000D+00
  <mgrwgt>
 0.1923917127D-03    8    2    0
 0.620602206873453D+03 0.000000000000000D+00 0.000000000000000D+00 0.620602206873453D+03
 0.620602206873453D+03 0.000000000000000D+00 0.000000000000000D+00 -.620602206873453D+03
 0.243135392915873D+03 -.891419419305322D+02 -.206865872344558D+03 -.773259285973873D+01
 0.312825868847680D+03 0.188330823870137D+03 0.230028326216014D+03 0.973575582015101D+02
 0.275097369671319D+03 0.146014173225849D+03 0.167340299552773D+03 0.162344227377626D+03
 0.410145782312034D+03 -.245203055165453D+03 -.190502753424229D+03 -.251969192719398D+03
 0.000000000000000D+00 -.000000000000000D+00 -.000000000000000D+00 -.000000000000000D+00
 0.620624050730440D+03 0.000000000000000D+00 0.000000000000000D+00 0.620624050730440D+03
 0.671132835581628D+03 0.000000000000000D+00 0.000000000000000D+00 -.671132835581628D+03
 0.242806502080250D+03 -.888260600230773D+02 -.206615304798285D+03 -.773259285973873D+01
 0.313308365487079D+03 0.188737836474526D+03 0.230351181521041D+03 0.973575582015101D+02
 0.275460151212095D+03 0.146372057906406D+03 0.167624185030667D+03 0.162344227377626D+03
 0.409631103932750D+03 -.244670166996763D+03 -.190080049629820D+03 -.251969192719398D+03
 0.505507635998944D+02 -.161366736109242D+01 -.128001212360306D+01 -.505087848511878D+02
0.579840392372D-04 0.000000000000D+00 0.000000000000D+00 0.781208807884D-06 0.000000000000D+00  7 2 -2 23 -13 13 23 21 0 0.65041372D-01 0.14015552D+00 0.29485561D+06 0.29485561D+06 0.29485561D+06 0.10851081D+01  1  2  2  1  7  1        2 0.186317453533D-03 0.100000000000D+01
-.315145857080D-05 0.000000000000D+00 -.222673978219D-06 0.781208807884D-06 0.000000000000D+00  7 2 -2 23 -13 13 23 21 2 0.65041372D-01 0.14015552D+00 0.29485561D+06 0.29485561D+06 0.29485561D+06 0.10851081D+01  1  2  3  1  7  1        2 -.119234698706D-04 0.100000000000D+01
0.363756630259D-05 0.000000000000D+00 0.000000000000D+00 0.781208807884D-06 0.000000000000D+00  7 2 -2 23 -13 13 23 21 2 0.65041372D-01 0.14015552D+00 0.29485561D+06 0.29485561D+06 0.29485561D+06 0.10851081D+01  1  2 15  1  7  1        2 0.137626471162D-04 0.100000000000D+01
-.970068403034D-06 0.000000000000D+00 0.000000000000D+00 0.781208807884D-06 0.000000000000D+00  7 2 -2 23 -13 13 23 21 2 0.65041372D-01 0.14015552D+00 0.29485561D+06 0.29485561D+06 0.29485561D+06 0.10851081D+01  1  2  4  1  7  1        2 -.367023113780D-05 0.100000000000D+01
0.661627526589D-08 0.000000000000D+00 0.000000000000D+00 0.781208807884D-06 0.000000000000D+00  7 2 -2 23 -13 13 23 21 2 0.70842162D-01 0.14015552D+00 0.29485561D+06 0.29485561D+06 0.29485561D+06 0.10851081D+01  1  2  5  1  7  1        2 0.227511592468D-07 0.100000000000D+01
-.659220430959D-08 0.000000000000D+00 0.000000000000D+00 0.781208807884D-06 0.000000000000D+00  7 2 -2 23 -13 13 23 21 2 0.65041372D-01 0.14015552D+00 0.29485561D+06 0.29485561D+06 0.29485561D+06 0.10851081D+01  1  2  6  1  7  1        2 -.249414509823D-07 0.100000000000D+01
0.971732750586D-06 0.000000000000D+00 0.000000000000D+00 0.781208807884D-06 0.115967562861D-05  7 2 -2 23 -13 13 23 21 2 0.65043662D-01 0.15156726D+00 0.29596166D+06 0.29596166D+06 0.29596166D+06 0.10849876D+01  1  2 11  1  7  1        2 0.296714378335D-05 0.100000000000D+01
0.701510117019D-06 0.000000000000D+00 0.000000000000D+00 0.781208807884D-06 0.797016893206D-11  7 21 -2 23 -13 13 23 -2 2 0.65043662D-01 0.15156726D+00 0.29596166D+06 0.29596166D+06 0.29596166D+06 0.10849876D+01  1  2 11  3  7  1        2 0.494035960104D-05 0.100000000000D+01
  </mgrwgt>
  </event>
  <event>
  8     66 0.55102590E-06 0.15338616E+03 0.75467711E-02 0.10605977E+00
        2 -1    0    0  501    0 0.00000000E+00 0.00000000E+00 0.11375685E+04 0.11375686E+04 0.32000000E+00 0.0000E+00 0.9000E+01
       -2 -1    0    0    0  501 0.00000000E+00 0.00000000E+00 -.52812134E+02 0.52813103E+02 0.32000000E+00 0.0000E+00 0.9000E+01
       25  2    1    2    0    0 -.43317215E+02 0.61113438E+02 0.98353000E+03 0.10311911E+04 0.30068689E+03 0.0000E+00 0.0000E+00
       23  2    1    2    0    0 0.43317215E+02 -.61113438E+02 0.10122641E+03 0.15919058E+03 0.97383891E+02 0.0000E+00 0.0000E+00
       23  1    3    3    0    0 -.10439713E+03 0.11763531E+03 0.67010947E+03 0.69433334E+03 0.91188000E+02 0.0000E+00 0.9000E+01
      -13  1    4    4    0    0 0.13193990E+02 -.35424380E+01 -.18483130E+02 0.22984071E+02 0.10565837E+00 0.0000E+00 0.9000E+01
       13  1    4    4    0    0 0.30123224E+02 -.57571000E+02 0.11970954E+03 0.13620651E+03 0.10565837E+00 0.0000E+00 0.9000E+01
       23  1    3    3    0    0 0.61079918E+02 -.56521876E+02 0.31342052E+03 0.33685777E+03 0.91188000E+02 0.0000E+00 0.9000E+01
#aMCatNLO 1  0  0  1  2 0.20465560D+02 0.00000000D+00  -5  7  0 0.00000000D+00 0.00000000D+00 0.00000000D+00 0.00000000D+00 0.00000000D+00
  <mgrwgt>
 0.2347763817D-03    6    2    0
 0.245108191088470D+03 0.000000000000000D+00 0.000000000000000D+00 0.245108191088470D+03
 0.245108191088470D+03 0.000000000000000D+00 0.000000000000000D+00 -.245108191088470D+03
 0.203208552599754D+03 -.104397140769964D+03 0.117635328208227D+03 0.907834294466022D+02
 0.967114337918373D+02 0.131939994722083D+02 -.354243402900967D+01 -.957416887523424D+02
 0.658525960218011D+02 0.301232384555698D+02 -.575710371471561D+02 -.107112366027547D+02
 0.124443799763547D+03 0.610799028421856D+02 -.565218570320608D+02 0.156694959084949D+02
 0.000000000000000D+00 -.000000000000000D+00 0.000000000000000D+00 -.000000000000000D+00
 0.253895351904313D+03 0.000000000000000D+00 0.000000000000000D+00 0.253895351904313D+03
 0.257534667272567D+03 0.000000000000000D+00 0.000000000000000D+00 -.257534667272567D+03
 0.197535779289665D+03 -.966120868105042D+02 0.114584494481621D+03 0.907834294466022D+02
 0.973624854736584D+02 0.169641736540419D+02 -.501990285697311D+01 -.957416887523424D+02
 0.679577941652751D+02 0.327227040625598D+02 -.585897246715141D+02 -.107112366027547D+02
 0.127787335510076D+03 0.659798673385087D+02 -.584420719750012D+02 0.156694959084949D+02
 0.207866247382050D+02 -.190546582446063D+02 0.746720502186719D+01 -.363931536825455D+01
0.654473143337D-06 0.000000000000D+00 0.000000000000D+00 0.514569708644D-08 0.000000000000D+00  7 2 -2 23 -13 13 23 21 0 0.17501062D+00 0.81250217D-02 0.36843377D+05 0.36843377D+05 0.36843377D+05 0.11591457D+01  1  2  2  1  7  1        2 0.142897507804D-03 0.100000000000D+01
-.337171971562D-07 0.000000000000D+00 -.251334919715D-08 0.514569708644D-08 0.000000000000D+00  7 2 -2 23 -13 13 23 21 2 0.17501062D+00 0.81250217D-02 0.36843377D+05 0.36843377D+05 0.36843377D+05 0.11591457D+01  1  2  3  1  7  1        2 -.989145882135D-05 0.100000000000D+01
0.400876420241D-07 0.000000000000D+00 0.000000000000D+00 0.514569708644D-08 0.000000000000D+00  7 2 -2 23 -13 13 23 21 2 0.17501062D+00 0.81250217D-02 0.36843377D+05 0.36843377D+05 0.36843377D+05 0.11591457D+01  1  2 15  1  7  1        2 0.117603268887D-04 0.100000000000D+01
0.120949337794D-05 0.000000000000D+00 0.000000000000D+00 0.514569708644D-08 0.000000000000D+00  7 2 -2 23 -13 13 23 21 2 0.18553610D+00 0.81250217D-02 0.41519556D+05 0.41519556D+05 0.41519556D+05 0.11544637D+01  1  2 12  1  7  1        2 0.322328185626D-03 0.100000000000D+01
-.798479414356D-06 0.000000000000D+00 0.000000000000D+00 0.514569708644D-08 0.000000000000D+00  7 2 -2 23 -13 13 23 21 2 0.17501062D+00 0.81250217D-02 0.36843377D+05 0.36843377D+05 0.36843377D+05 0.11591457D+01  1  2  4  1  7  1        2 -.234246227829D-03 0.100000000000D+01
0.128110706964D-07 0.000000000000D+00 0.000000000000D+00 0.514569708644D-08 0.000000000000D+00  7 21 -2 23 -13 13 23 -2 2 0.18553610D+00 0.81250217D-02 0.41519556D+05 0.41519556D+05 0.41519556D+05 0.11544637D+01  1  2 12  3  7  1        2 0.192804798763D-05 0.100000000000D+01
  </mgrwgt>
  </event>
  <event>
  9     66 0.55102590E-06 0.27700253E+03 0.75467711E-02 0.10130021E+00
        2 -1    0    0  501    0 0.00000000E+00 0.00000000E+00 0.17274671E+04 0.17274671E+04 0.32000000E+00 0.0000E+00 0.9000E+01
       21 -1    0    0  502  501 0.00000000E+00 0.00000000E+00 -.55839520E+02 0.55844557E+02 0.75000000E+00 0.0000E+00 0.9000E+01
       25  2    1    2    0    0 0.18595290E+03 -.10639057E+03 0.10922981E+04 0.11529253E+04 0.30037367E+03 0.0000E+00 0.0000E+00
       23  2    1    2    0    0 -.16440696E+03 0.11618131E+03 0.48312160E+03 0.53130986E+03 0.91410802E+02 0.0000E+00 0.0000E+00
       23  1    3    3    0    0 0.21076863E+03 -.95514883E+02 0.56802905E+03 0.62009577E+03 0.91188000E+02 0.0000E+00 0.9000E+01
      -11  1    4    4    0    0 -.90759727E+02 0.27808253E+02 0.13779655E+03 0.16732757E+03 0.51099893E-03 0.0000E+00 0.9000E+01
       11  1    4    4    0    0 -.73647238E+02 0.88373056E+02 0.34532505E+03 0.36398228E+03 0.51099893E-03 0.0000E+00 0.9000E+01
       23  1    3    3    0    0 -.24815728E+02 -.10875684E+02 0.52426902E+03 0.53282958E+03 0.91188000E+02 0.0000E+00 0.9000E+01
        2  1    1    2  502    0 -.21545938E+02 -.97907416E+01 0.96207917E+02 0.99076495E+02 0.32000000E+00 0.0000E+00 0.9000E+01
#aMCatNLO 2  0  0  2  2 0.23666138D+02 0.00000000D+00  -5  7  0 0.00000000D+00 0.00000000D+00 0.00000000D+00 0.00000000D+00 0.00000000D+00
  <mgrwgt>
 0.3754475489D-04    1    2    0
 0.297548728859639D+03 0.000000000000000D+00 0.000000000000000D+00 0.297548728859639D+03
 0.297548728859639D+03 0.000000000000000D+00 0.000000000000000D+00 -.297548728859639D+03
 0.245164776254684D+03 0.201789706215510D+03 -.995950179528976D+02 -.339450001683535D+02
 0.111603282501774D+03 -.947460702234340D+02 0.259968093236655D+02 -.529399730579449D+02
 0.117159732179976D+03 -.778638172011241D+02 0.864569898086261D+02 0.137410963385295D+02
 0.121169666782844D+03 -.291798187909521D+02 -.128587811793940D+02 0.731438768877689D+02
 0.000000000000000D+00 -.000000000000000D+00 -.000000000000000D+00 0.000000000000000D+00
 0.315623005699003D+03 0.000000000000000D+00 0.000000000000000D+00 0.315623005699003D+03
 0.305633073011289D+03 0.000000000000000D+00 0.000000000000000D+00 -.305633073011289D+03
 0.251025941180409D+03 0.210768631150784D+03 -.955148830701547D+02 -.339450001683535D+02
 0.108688857335259D+03 -.907597268318201D+02 0.278082532152186D+02 -.529399730579449D+02
 0.115855644459337D+03 -.736472377648460D+02 0.883730558151731D+02 0.137410963385295D+02
 0.119997412312263D+03 -.248157284846126D+02 -.108756844034776D+02 0.731438768877689D+02
 0.256882234230256D+02 -.215459380695052D+02 -.979074155675935D+01 0.998993268771475D+01
0.204671823972D-07 0.000000000000D+00 0.000000000000D+00 0.248052965595D-06 0.143274128315D-10  7 2 21 23 -11 11 23 2 2 0.26576370D+00 0.85910574D-02 0.83369824D+05 0.83369824D+05 0.83369824D+05 0.11282624D+01  1  2  1  4  7  2       -2 0.375447548918D-04 0.100000000000D+01
  </mgrwgt>
  </event>
  <event>
  8     66 0.55102590E-06 0.12279986E+03 0.75467711E-02 0.10238176E+00
        2 -1    0    0  501    0 0.00000000E+00 0.00000000E+00 0.31560547E+04 0.31560548E+04 0.32000000E+00 0.0000E+00 0.9000E+01
       -2 -1    0    0    0  501 0.00000000E+00 0.00000000E+00 -.28134847E+02 0.28136666E+02 0.32000000E+00 0.0000E+00 0.9000E+01
       25  2    1    2    0    0 -.52055234E+01 0.18721901E+03 0.14085525E+04 0.14522576E+04 0.29992348E+03 0.0000E+00 0.0000E+00
       23  2    1    2    0    0 0.52055234E+01 -.18721901E+03 0.17193674E+04 0.17319338E+04 0.91062024E+02 0.0000E+00 0.0000E+00
       23  1    3    3    0    0 -.55629897E+02 -.12610618E+02 0.71402605E+03 0.72208182E+03 0.91188000E+02 0.0000E+00 0.9000E+01
      -11  1    4    4    0    0 0.29807287E+02 -.73633301E+02 0.10089937E+04 0.10121159E+04 0.51099893E-03 0.0000E+00 0.9000E+01
       11  1    4    4    0    0 -.24601763E+02 -.11358571E+03 0.71037370E+03 0.71981786E+03 0.51099893E-03 0.0000E+00 0.9000E+01
       23  1    3    3    0    0 0.50424373E+02 0.19982962E+03 0.69452643E+03 0.73017581E+03 0.91188000E+02 0.0000E+00 0.9000E+01
#aMCatNLO 1  0  0  1  2 0.34567793D+01 0.00000000D+00  -5  7  0 0.00000000D+00 0.00000000D+00 0.00000000D+00 0.00000000D+00 0.00000000D+00
  <mgrwgt>
 0.3896926668D-03   11    2    0
 0.297989999112431D+03 0.000000000000000D+00 0.000000000000000D+00 0.297989999112431D+03
 0.297989999112431D+03 0.000000000000000D+00 0.000000000000000D+00 -.297989999112431D+03
 0.110457520825863D+03 -.556298967253503D+02 -.126106177045306D+02 0.251376107542642D+02
 0.111948971859089D+03 0.298072868024535D+02 -.736333012426589D+02 0.788811441466925D+02
 0.117530506157697D+03 -.246017634380015D+02 -.113585705628408D+03 0.175060158323263D+02
 0.256042999382214D+03 0.504243733608983D+02 0.199829624575598D+03 -.121524770733283D+03
 0.000000000000000D+00 0.000000000000000D+00 -.000000000000000D+00 0.000000000000000D+00
 0.302904765926530D+03 0.000000000000000D+00 0.000000000000000D+00 0.302904765926530D+03
 0.298603459650276D+03 0.000000000000000D+00 0.000000000000000D+00 -.298603459650276D+03
 0.110659558357708D+03 -.561211580522106D+02 -.121984694273075D+02 0.251376107542642D+02
 0.111543908671404D+03 0.293107470985165D+02 -.732167246217015D+02 0.788811441466925D+02
 0.117218364003555D+03 -.251233108546921D+02 -.113148148553332D+03 0.175060158323263D+02
 0.256568192044275D+03 0.492854922984610D+02 0.200785099477002D+03 -.121524770733283D+03
 0.551820249986240D+01 0.264822950992527D+01 -.222175687466125D+01 0.430130627625424D+01
0.235204729762D-05 0.000000000000D+00 0.000000000000D+00 0.338894277754D-06 0.000000000000D+00  7 2 -2 23 -11 11 23 21 0 0.48554703D+00 0.43285792D-02 0.69849734D+05 0.69849734D+05 0.69849734D+05 0.11347390D+01  1  2  2  1  7  1        2 0.971013052431D-04 0.100000000000D+01
-.128381148281D-06 0.000000000000D+00 -.903248093113D-08 0.338894277754D-06 0.000000000000D+00  7 2 -2 23 -11 11 23 21 2 0.48554703D+00 0.43285792D-02 0.69849734D+05 0.69849734D+05 0.69849734D+05 0.11347390D+01  1  2  3  1  7  1        2 -.682452156760D-05 0.100000000000D+01
0.150618479970D-06 0.000000000000D+00 0.000000000000D+00 0.338894277754D-06 0.000000000000D+00  7 2 -2 23 -11 11 23 21 2 0.48554703D+00 0.43285792D-02 0.69849734D+05 0.69849734D+05 0.69849734D+05 0.11347390D+01  1  2 15  1  7  1        2 0.800661996563D-05 0.100000000000D+01
0.897654679793D-07 0.000000000000D+00 0.000000000000D+00 0.338894277754D-06 0.000000000000D+00  7 2 -2 23 -11 11 23 21 2 0.49405025D+00 0.43285792D-02 0.70744089D+05 0.70744089D+05 0.70744089D+05 0.11342695D+01  1  2 12  1  7  1        2 0.439043778635D-05 0.100000000000D+01
-.462978781501D-04 0.000000000000D+00 0.000000000000D+00 0.338894277754D-06 0.000000000000D+00  7 2 -2 23 -11 11 23 21 2 0.48554703D+00 0.43285792D-02 0.69849734D+05 0.69849734D+05 0.69849734D+05 0.11347390D+01  1  2  4  1  7  1        2 -.246111576506D-02 0.100000000000D+01
-.116777613930D-03 0.000000000000D+00 -.997689761744D-05 0.338894277754D-06 0.000000000000D+00  7 2 -2 23 -11 11 23 21 2 0.49382296D+00 0.43285792D-02 0.69849734D+05 0.69849734D+05 0.69849734D+05 0.11347390D+01  1  2  5  1  7  1        2 -.573154534174D-02 0.100000000000D+01
0.116930956912D-03 0.000000000000D+00 0.997547288024D-05 0.338894277754D-06 0.000000000000D+00  7 2 -2 23 -11 11 23 21 2 0.48554703D+00 0.43285792D-02 0.69849734D+05 0.69849734D+05 0.69849734D+05 0.11347390D+01  1  2  6  1  7  1        2 0.621584904054D-02 0.100000000000D+01
0.462160271321D-04 0.000000000000D+00 0.000000000000D+00 0.338894277754D-06 0.194644472060D-06  7 2 -2 23 -11 11 23 21 2 0.49355518D+00 0.43374903D-02 0.70744089D+05 0.70744089D+05 0.70744089D+05 0.11342695D+01  1  2 11  1  7  1        2 0.226441050895D-02 0.100000000000D+01
0.600086341027D-08 0.000000000000D+00 0.000000000000D+00 0.338894277754D-06 0.000000000000D+00  7 21 -2 23 -11 11 23 -2 2 0.49405025D+00 0.43285792D-02 0.70744089D+05 0.70744089D+05 0.70744089D+05 0.11342695D+01  1  2 12  3  7  1        2 0.164539012835D-07 0.100000000000D+01
-.359807043119D-06 0.000000000000D+00 -.308295071716D-07 0.338894277754D-06 0.000000000000D+00  7 21 -2 23 -11 11 23 -2 2 0.49382296D+00 0.43285792D-02 0.69849734D+05 0.69849734D+05 0.69849734D+05 0.11347390D+01  1  2  5  3  7  1        2 -.992741225208D-06 0.100000000000D+01
0.143820876071D-06 0.000000000000D+00 0.000000000000D+00 0.338894277754D-06 0.579873143104D-09  7 21 -2 23 -11 11 23 -2 2 0.49355518D+00 0.43374903D-02 0.70744089D+05 0.70744089D+05 0.70744089D+05 0.11342695D+01  1  2 11  3  7  1        2 0.396670055432D-06 0.100000000000D+01
  </mgrwgt>
  </event>
  <event>
  9     66 -.55102590E-06 0.43406722E+03 0.75467711E-02 0.94737513E-01
        2 -1    0    0  501    0 0.00000000E+00 0.00000000E+00 0.10609962E+04 0.10609962E+04 0.32000000E+00 0.0000E+00 0.9000E+01
       -2 -1    0    0    0  502 0.00000000E+00 0.00000000E+00 -.27310098E+03 0.27310117E+03 0.32000000E+00 0.0000E+00 0.9000E+01
       25  2    1    2    0    0 -.24309281E+03 -.37192908E+03 0.60458311E+03 0.80782585E+03 0.29939357E+03 0.0000E+00 0.0000E+00
       23  2    1    2    0    0 0.13494198E+03 0.32761115E+03 0.89026299E+02 0.37610147E+03 0.89376899E+02 0.0000E+00 0.0000E+00
       23  1    3    3    0    0 -.43260744E+01 -.57530685E+02 0.23843856E+03 0.26171873E+03 0.91188000E+02 0.0000E+00 0.9000E+01
      -11  1    4    4    0    0 0.33534919E+02 0.27240641E+02 0.32526292E+02 0.54079599E+02 0.51099893E-03 0.0000E+00 0.9000E+01
       11  1    4    4    0    0 0.10140707E+03 0.30037051E+03 0.56500006E+02 0.32202187E+03 0.51099893E-03 0.0000E+00 0.9000E+01
       23  1    3    3    0    0 -.23876673E+03 -.31439840E+03 0.36614456E+03 0.54610712E+03 0.91188000E+02 0.0000E+00 0.9000E+01
       21  1    1    2  501  502 0.10815082E+03 0.44317932E+02 0.94285805E+02 0.15017009E+03 0.75000000E+00 0.0000E+00 0.9000E+01
#aMCatNLO 2  0  0  2  1 0.11687891D+03 0.00000000D+00  -5  7  0 0.00000000D+00 0.00000000D+00 0.00000000D+00 0.00000000D+00 0.00000000D+00
  <mgrwgt>
 -.3809927616D-04    2    2    0
 0.476164154770343D+03 0.000000000000000D+00 0.000000000000000D+00 0.476164154770343D+03
 0.476164154770343D+03 0.000000000000000D+00 0.000000000000000D+00 -.476164154770343D+03
 0.148536184867890D+03 0.125946711111601D+02 -.505969197477594D+02 0.105019392698437D+03
 0.486175297360690D+02 0.387300184324951D+02 0.293694832441785D+02 0.104082843257480D+01
 0.384678908745573D+03 0.143336166262283D+03 0.317552172937223D+03 -.163074289015050D+03
 0.370495686191153D+03 -.194660855805938D+03 -.296324736433642D+03 0.570140678840381D+02
 0.000000000000000D+00 0.000000000000000D+00 0.000000000000000D+00 0.000000000000000D+00
 0.542197565566431D+03 0.000000000000000D+00 0.000000000000000D+00 0.542197565566431D+03
 0.534413987572220D+03 0.000000000000000D+00 0.000000000000000D+00 -.534413987572220D+03
 0.150574960958637D+03 -.432607444276064D+01 -.575306853849513D+02 0.105019392698437D+03
 0.432172028880629D+02 0.335349190006388D+02 0.272406407645364D+02 0.104082843257480D+01
 0.356509550525288D+03 0.101407065652644D+03 0.300370509394147D+03 -.163074289015050D+03
 0.409172041689304D+03 -.238766732247332D+03 -.314398396928862D+03 0.570140678840381D+02
 0.117137797077359D+03 0.108150822036810D+03 0.443179321551308D+02 0.778357799421068D+01
-.776955455979D-05 0.000000000000D+00 0.000000000000D+00 0.187292704305D-06 0.000000000000D+00  7 2 -2 23 -11 11 23 21 2 0.14335033D+00 0.44296853D-01 0.24512239D+06 0.24512239D+06 0.24512239D+06 0.10911034D+01  1  2 13  2  7  2       -2 -.156396317535D-03 0.100000000000D+01
0.638949007552D-05 0.000000000000D+00 0.000000000000D+00 0.187292704305D-06 0.888476219651D-10  7 2 -2 23 -11 11 23 21 2 0.16322984D+00 0.42015459D-01 0.24512239D+06 0.24512239D+06 0.24512239D+06 0.10911034D+01  1  2  1  2  7  2       -2 0.118297041372D-03 0.100000000000D+01
  </mgrwgt>
  </event>
  <event>
  8     66 0.55102590E-06 0.17555273E+03 0.75467711E-02 0.92154219E-01
        2 -1    0    0  501    0 0.00000000E+00 0.00000000E+00 0.14377691E+03 0.14377727E+03 0.32000000E+00 0.0000E+00 0.9000E+01
       -2 -1    0    0    0  501 0.00000000E+00 0.00000000E+00 -.67618382E+03 0.67618389E+03 0.32000000E+00 0.0000E+00 0.9000E+01
       25  2    1    2    0    0 0.25184993E+02 -.91774847E+02 -.59663647E+03 0.67457697E+03 0.30003684E+03 0.0000E+00 0.0000E+00
       23  2    1    2    0    0 -.25184993E+02 0.91774847E+02 0.64229568E+02 0.14538419E+03 0.89186426E+02 0.0000E+00 0.0000E+00
       23  1    3    3    0    0 0.21718203E+02 -.96741279E+02 -.95373565E+02 0.16505128E+03 0.91188000E+02 0.0000E+00 0.9000E+01
      -13  1    4    4    0    0 -.38872029E+02 0.74473974E+01 0.18858378E+01 0.39624057E+02 0.10565837E+00 0.0000E+00 0.9000E+01
       13  1    4    4    0    0 0.13687036E+02 0.84327450E+02 0.62343730E+02 0.10576013E+03 0.10565837E+00 0.0000E+00 0.9000E+01
       23  1    3    3    0    0 0.34667896E+01 0.49664316E+01 -.50126290E+03 0.50952570E+03 0.91188000E+02 0.0000E+00 0.9000E+01
#aMCatNLO 1  0  0  2  1 0.56039680D+03 0.00000000D+00  -5  7  0 0.00000000D+00 0.00000000D+00 0.00000000D+00 0.00000000D+00 0.00000000D+00
  <mgrwgt>
 0.2212240014D-03    5    2    0
 0.311800896879010D+03 0.000000000000000D+00 0.000000000000000D+00 0.311800896879010D+03
 0.311800896879010D+03 0.000000000000000D+00 0.000000000000000D+00 -.311800896879010D+03
 0.135596292657791D+03 0.217182028875503D+02 -.967412786488140D+02 0.155096069345710D+02
 0.537107169174463D+02 -.388721020012848D+02 0.744728969147074D+01 0.363089338047687D+02
 0.192288662582397D+03 0.136871094397424D+02 0.843275576652867D+02 0.172268557232941D+03
 0.242006121600386D+03 0.346678967399206D+01 0.496643129205658D+01 -.224087097972281D+03
 0.000000000000000D+00 0.000000000000000D+00 -.000000000000000D+00 -.000000000000000D+00
 0.570026876478915D+03 0.000000000000000D+00 0.000000000000000D+00 0.570026876478915D+03
 0.939750373989227D+03 0.000000000000000D+00 0.000000000000000D+00 -.939750373989227D+03
 0.977435392480187D+02 -.243771173873037D+02 -.200936895902589D+02 0.155096069345710D+02
 0.959500787028017D+02 -.684369741894569D+02 0.566079454920101D+02 0.363089338047687D+02
 0.317126079536295D+03 -.869456693657722D+02 0.251660376478855D+03 0.172268557232941D+03
 0.327585795049323D+03 -.109053741473621D+03 0.192066279619987D+03 -.224087097972281D+03
 0.671371757931703D+03 0.288813502416153D+03 -.480240912000594D+03 -.369723497510312D+03
0.874772064956D-05 0.000000000000D+00 0.000000000000D+00 0.199268863001D-06 0.000000000000D+00  7 2 -2 23 -13 13 23 21 0 0.22119558D-01 0.10402831D+00 0.30818762D+05 0.30818762D+05 0.30818762D+05 0.11662525D+01  1  2  2  2  7  2       -2 0.210270251705D-03 0.100000000000D+01
-.291012992517D-06 0.000000000000D+00 -.335935506220D-07 0.199268863001D-06 0.000000000000D+00  7 2 -2 23 -13 13 23 21 2 0.22119558D-01 0.10402831D+00 0.30818762D+05 0.30818762D+05 0.30818762D+05 0.11662525D+01  1  2  3  2  7  2       -2 -.951437959860D-05 0.100000000000D+01
0.546004053391D-06 0.000000000000D+00 0.000000000000D+00 0.199268863001D-06 0.000000000000D+00  7 2 -2 23 -13 13 23 21 2 0.22119558D-01 0.10402831D+00 0.30818762D+05 0.30818762D+05 0.30818762D+05 0.11662525D+01  1  2 15  2  7  2       -2 0.178510580624D-04 0.100000000000D+01
0.479245040791D-05 0.000000000000D+00 -.293344630501D-05 0.199268863001D-06 0.000000000000D+00  7 2 -2 23 -13 13 23 21 2 0.22119558D-01 0.41574093D+00 0.30818762D+05 0.30818762D+05 0.30818762D+05 0.11662525D+01  1  2  5  2  7  2       -2 0.107724707535D-05 0.100000000000D+01
0.826954126050D-06 0.000000000000D+00 -.484943095673D-06 0.199268863001D-06 0.000000000000D+00  7 2 21 23 -13 13 23 2 2 0.22119558D-01 0.41574093D+00 0.30818762D+05 0.30818762D+05 0.30818762D+05 0.11662525D+01  1  2  5  4  7  2       -2 0.153982419320D-05 0.100000000000D+01
  </mgrwgt>
  </event>
  <event>
  8     66 0.55102590E-06 0.22682351E+03 0.75467711E-02 0.93596579E-01
        2 -1    0    0  501    0 0.00000000E+00 0.00000000E+00 0.10156194E+04 0.10156195E+04 0.32000000E+00 0.0000E+00 0.9000E+01
       -2 -1    0    0    0  501 0.00000000E+00 0.00000000E+00 -.31720384E+03 0.31720401E+03 0.32000000E+00 0.0000E+00 0.9000E+01
       25  2    1    2    0    0 0.29316641E+03 -.27252594E+03 0.76757739E+03 0.91674337E+03 0.30170587E+03 0.0000E+00 0.0000E+00
       23  2    1    2    0    0 -.29316641E+03 0.27252594E+03 -.69161827E+02 0.41608009E+03 0.90124085E+02 0.0000E+00 0.0000E+00
       23  1    3    3    0    0 0.30546219E+03 -.18489865E+03 0.62675091E+03 0.72706713E+03 0.91188000E+02 0.0000E+00 0.9000E+01
      -13  1    4    4    0    0 -.17056396E+03 0.14262223E+03 -.82049763E+02 0.23699228E+03 0.10565837E+00 0.0000E+00 0.9000E+01
       13  1    4    4    0    0 -.12260245E+03 0.12990370E+03 0.12887935E+02 0.17908781E+03 0.10565837E+00 0.0000E+00 0.9000E+01
       23  1    3    3    0    0 -.12295779E+02 -.87627284E+02 0.14082648E+03 0.18967624E+03 0.91188000E+02 0.0000E+00 0.9000E+01
#aMCatNLO 1  0  0  1  2 0.17979016D+03 0.00000000D+00  -5  7  0 0.00000000D+00 0.00000000D+00 0.00000000D+00 0.00000000D+00 0.00000000D+00
  <mgrwgt>
 0.2969300033D-03    9    2    0
 0.567590098428838D+03 0.000000000000000D+00 0.000000000000000D+00 0.567590098428838D+03
 0.567590098428838D+03 0.000000000000000D+00 0.000000000000000D+00 -.567590098428838D+03
 0.468048637118979D+03 0.305462191338233D+03 -.184898651656922D+03 0.288547420094567D+03
 0.328735384767829D+03 -.170564027647228D+03 0.142622249889701D+03 -.242144088318521D+03
 0.202338889390258D+03 -.122602384494586D+03 0.129903685854786D+03 -.950511119201963D+02
 0.136057285580610D+03 -.122957791964185D+02 -.876272840875655D+02 0.486477801441508D+02
 0.000000000000000D+00 -.000000000000000D+00 -.000000000000000D+00 0.000000000000000D+00
 0.706189788834119D+03 0.000000000000000D+00 0.000000000000000D+00 0.706189788834119D+03
 0.636106562527975D+03 0.000000000000000D+00 0.000000000000000D+00 -.636106562527975D+03
 0.482337222167970D+03 0.353324080235308D+03 -.127422232076498D+03 0.288547420094567D+03
 0.332904682160619D+03 -.137243515705960D+03 0.182636210247372D+03 -.242144088318521D+03
 0.208245623171487D+03 -.101925150999305D+03 0.154734576894062D+03 -.950511119201963D+02
 0.125842094262418D+03 0.893599515155197D+00 -.717884134892543D+02 0.486477801441508D+02
 0.192966729599600D+03 -.115049013045199D+03 -.138160141575683D+03 0.700832263061437D+02
0.183100605538D-04 0.000000000000D+00 0.000000000000D+00 0.142609573161D-06 0.000000000000D+00  7 2 -2 23 -13 13 23 21 0 0.15624916D+00 0.48800608D-01 0.20094869D+06 0.20094869D+06 0.20094869D+06 0.10976676D+01  1  2  2  1  7  1        2 0.228607387163D-03 0.100000000000D+01
-.948342593963D-06 0.000000000000D+00 -.703154536762D-07 0.142609573161D-06 0.000000000000D+00  7 2 -2 23 -13 13 23 21 2 0.15624916D+00 0.48800608D-01 0.20094869D+06 0.20094869D+06 0.20094869D+06 0.10976676D+01  1  2  3  1  7  1        2 -.142661704107D-04 0.100000000000D+01
0.117733510676D-05 0.000000000000D+00 0.000000000000D+00 0.142609573161D-06 0.000000000000D+00  7 2 -2 23 -13 13 23 21 2 0.15624916D+00 0.48800608D-01 0.20094869D+06 0.20094869D+06 0.20094869D+06 0.10976676D+01  1  2 15  1  7  1        2 0.177109658160D-04 0.100000000000D+01
0.116707945221D-04 0.000000000000D+00 0.000000000000D+00 0.142609573161D-06 0.000000000000D+00  7 2 -2 23 -13 13 23 21 2 0.20201148D+00 0.48800608D-01 0.30035947D+06 0.30035947D+06 0.30035947D+06 0.10845134D+01  1  2 12  1  7  1        2 0.113201112495D-03 0.100000000000D+01
-.138366698884D-04 0.000000000000D+00 0.000000000000D+00 0.142609573161D-06 0.000000000000D+00  7 2 -2 23 -13 13 23 21 2 0.15624916D+00 0.48800608D-01 0.20094869D+06 0.20094869D+06 0.20094869D+06 0.10976676D+01  1  2  4  1  7  1        2 -.208148713135D-03 0.100000000000D+01
-.244516763818D-04 0.000000000000D+00 -.890263788871D-05 0.142609573161D-06 0.000000000000D+00  7 2 -2 23 -13 13 23 21 2 0.20825495D+00 0.48800608D-01 0.20094869D+06 0.20094869D+06 0.20094869D+06 0.10976676D+01  1  2  5  1  7  1        2 -.234143230369D-03 0.100000000000D+01
0.262728598773D-04 0.000000000000D+00 0.854741949777D-05 0.142609573161D-06 0.000000000000D+00  7 2 -2 23 -13 13 23 21 2 0.15624916D+00 0.48800608D-01 0.20094869D+06 0.20094869D+06 0.20094869D+06 0.10976676D+01  1  2  6  1  7  1        2 0.395229633859D-03 0.100000000000D+01
0.402942865732D-06 0.000000000000D+00 0.000000000000D+00 0.142609573161D-06 0.000000000000D+00  7 21 -2 23 -13 13 23 -2 2 0.20201148D+00 0.48800608D-01 0.30035947D+06 0.30035947D+06 0.30035947D+06 0.10845134D+01  1  2 12  3  7  1        2 0.173291895107D-05 0.100000000000D+01
-.729504348178D-06 0.000000000000D+00 -.333536792934D-06 0.142609573161D-06 0.000000000000D+00  7 21 -2 23 -13 13 23 -2 2 0.20825495D+00 0.48800608D-01 0.20094869D+06 0.20094869D+06 0.20094869D+06 0.10976676D+01  1  2  5  3  7  1        2 -.299390109388D-05 0.100000000000D+01
  </mgrwgt>
  </event>
  <event>
  9     66 0.55102590E-06 0.16505424E+03 0.75467711E-02 0.10530685E+00
        2 -1    0    0  502    0 0.00000000E+00 0.00000000E+00 0.12334367E+04 0.12334368E+04 0.32000000E+00 0.0000E+00 0.9000E+01
       -2 -1    0    0    0  501 0.00000000E+00 0.00000000E+00 -.63968965E+02 0.63969765E+02 0.32000000E+00 0.0000E+00 0.9000E+01
       25  2    1    2    0    0 -.39398506E+02 0.40730325E+02 0.44776194E+03 0.54237228E+03 0.30077522E+03 0.0000E+00 0.0000E+00
       23  2    1    2    0    0 -.13657374E+02 0.28739570E+02 0.16093061E+03 0.18748656E+03 0.90774778E+02 0.0000E+00 0.0000E+00
       23  1    3    3    0    0 0.75061887E+02 -.10184086E+02 0.32096308E+03 0.34215574E+03 0.91188000E+02 0.0000E+00 0.9000E+01
      -11  1    4    4    0    0 0.17944887E+02 0.32349718E+02 0.14898576E+03 0.15350987E+03 0.51099893E-03 0.0000E+00 0.9000E+01
       11  1    4    4    0    0 -.31602260E+02 -.36101482E+01 0.11944857E+02 0.33976692E+02 0.51099893E-03 0.0000E+00 0.9000E+01
       23  1    3    3    0    0 -.11446039E+03 0.50914411E+02 0.12679886E+03 0.20021654E+03 0.91188000E+02 0.0000E+00 0.9000E+01
       21  1    1    2  502  501 0.53055880E+02 -.69469895E+02 0.56077519E+03 0.56754768E+03 0.75000000E+00 0.0000E+00 0.9000E+01
#aMCatNLO 2  0  0  1  2 0.87412772D+02 0.00000000D+00  -5  7  0 0.00000000D+00 0.00000000D+00 0.00000000D+00 0.00000000D+00 0.00000000D+00
  <mgrwgt>
 0.3084043814D-04    2    2    0
 0.196561887368783D+03 0.000000000000000D+00 0.000000000000000D+00 0.196561887368783D+03
 0.196561887368783D+03 0.000000000000000D+00 0.000000000000000D+00 -.196561887368783D+03
 0.150200829117872D+03 0.940733762595445D+02 -.350777436727025D+02 0.645351803411007D+02
 0.510245020826986D+02 0.248811702122868D+02 0.232679690775025D+02 0.379872188592810D+02
 0.409574366232091D+02 -.259702859976134D+02 -.109838409794936D+02 -.297054051863218D+02
 0.150941006913787D+03 -.929842604742179D+02 0.227936155746935D+02 -.728169940140599D+02
 0.000000000000000D+00 0.000000000000000D+00 -.000000000000000D+00 0.000000000000000D+00
 0.371098216072694D+03 0.000000000000000D+00 0.000000000000000D+00 0.371098216072694D+03
 0.212616663441185D+03 0.000000000000000D+00 0.000000000000000D+00 -.212616663441185D+03
 0.134974313546521D+03 0.750619489323702D+02 -.101847088407231D+02 0.645351803411007D+02
 0.530244331665484D+02 0.179446653245208D+02 0.323504358913721D+02 0.379872188592810D+02
 0.435216799595951D+02 -.316021533846948D+02 -.360963026805915D+01 -.297054051863218D+02
 0.171204411091337D+03 -.114460340562987D+03 0.509137982681812D+02 -.728169940140599D+02
 0.180990041749878D+03 0.530558796907907D+02 -.694698950507711D+02 0.158481552631509D+03
-.203899629889D-06 0.000000000000D+00 0.000000000000D+00 0.280008318897D-07 0.000000000000D+00  7 2 -2 23 -11 11 23 21 2 0.19051676D+00 0.90982805D-02 0.46162284D+05 0.46162284D+05 0.46162284D+05 0.11503586D+01  1  2 13  1  7  1        2 -.436427031730D-04 0.100000000000D+01
0.389736787731D-06 0.000000000000D+00 0.000000000000D+00 0.280008318897D-07 0.310879275642D-10  7 2 -2 23 -11 11 23 21 2 0.18975890D+00 0.98414096D-02 0.46162284D+05 0.46162284D+05 0.46162284D+05 0.11503586D+01  1  2  1  1  7  1        2 0.744831413130D-04 0.100000000000D+01
  </mgrwgt>
  </event>
  <event>
  8     66 0.55102590E-06 0.22568078E+03 0.75467711E-02 0.96697241E-01
        2 -1    0    0  501    0 0.00000000E+00 0.00000000E+00 0.66144358E+03 0.66144366E+03 0.32000000E+00 0.0000E+00 0.9000E+01
       -2 -1    0    0    0  501 0.00000000E+00 0.00000000E+00 -.17311084E+03 0.17311113E+03 0.32000000E+00 0.0000E+00 0.9000E+01
       25  2    1    2    0    0 0.25542011E+03 -.29790194E+02 0.35594193E+03 0.53174852E+03 0.29989155E+03 0.0000E+00 0.0000E+00
       23  2    1    2    0    0 -.25542011E+03 0.29790194E+02 0.13239081E+03 0.30280627E+03 0.89651689E+02 0.0000E+00 0.0000E+00
       23  1    3    3    0    0 0.50798435E+02 0.80975690E+02 0.19128986E+03 0.23247496E+03 0.91188000E+02 0.0000E+00 0.9000E+01
      -13  1    4    4    0    0 -.24093851E+02 0.25361149E+02 -.23541741E+01 0.35060731E+02 0.10565837E+00 0.0000E+00 0.9000E+01
       13  1    4    4    0    0 -.23132626E+03 0.44290444E+01 0.13474498E+03 0.26774554E+03 0.10565837E+00 0.0000E+00 0.9000E+01
       23  1    3    3    0    0 0.20462167E+03 -.11076588E+03 0.16465207E+03 0.29927356E+03 0.91188000E+02 0.0000E+00 0.9000E+01
#aMCatNLO 1  0  0  1  2 0.16764927D+03 0.00000000D+00  -5  7  0 0.00000000D+00 0.00000000D+00 0.00000000D+00 0.00000000D+00 0.00000000D+00
  <mgrwgt>
 0.1901944411D-03    9    2    0
 0.338383228404669D+03 0.000000000000000D+00 0.000000000000000D+00 0.338383228404669D+03
 0.338383228404669D+03 0.000000000000000D+00 0.000000000000000D+00 -.338383228404669D+03
 0.148648010503878D+03 0.507984353165062D+02 0.809756898806550D+02 0.681427641096824D+02
 0.449335870657386D+02 -.240935632287839D+02 0.253611782481400D+02 -.282017392265260D+02
 0.232943157606975D+03 -.231326545012020D+03 0.442901548234937D+01 -.270356814333773D+02
 0.250241701632747D+03 0.204621672924298D+03 -.110765883611144D+03 -.129053434497791D+02
 0.000000000000000D+00 -.000000000000000D+00 0.000000000000000D+00 0.000000000000000D+00
 0.501226286180059D+03 0.000000000000000D+00 0.000000000000000D+00 0.501226286180059D+03
 0.394652341161710D+03 0.000000000000000D+00 0.000000000000000D+00 -.394652341161710D+03
 0.165444439241344D+03 0.891191740640086D+02 0.804422006506767D+02 0.681427641096824D+02
 0.402363935214534D+02 -.137024297333462D+02 0.252165161672858D+02 -.282017392265260D+02
 0.182669940513892D+03 -.180619815302188D+03 0.372309239548351D+01 -.270356814333773D+02
 0.308871656250411D+03 0.272836101303773D+03 -.111715543353076D+03 -.129053434497791D+02
 0.198656197814668D+03 -.167633030332247D+03 0.233373413962985D+01 0.106573945018349D+03
0.262419693299D-05 0.000000000000D+00 0.000000000000D+00 0.198443605966D-06 0.000000000000D+00  7 2 -2 23 -13 13 23 21 0 0.10176058D+00 0.26632465D-01 0.10509525D+06 0.10509525D+06 0.10509525D+06 0.11199552D+01  1  2  2  1  7  1        2 0.174925494968D-03 0.100000000000D+01
-.145462979436D-06 0.000000000000D+00 -.100776071896D-07 0.198443605966D-06 0.000000000000D+00  7 2 -2 23 -13 13 23 21 2 0.10176058D+00 0.26632465D-01 0.10509525D+06 0.10509525D+06 0.10509525D+06 0.11199552D+01  1  2  3  1  7  1        2 -.121621530446D-04 0.100000000000D+01
0.167704684797D-06 0.000000000000D+00 0.000000000000D+00 0.198443605966D-06 0.000000000000D+00  7 2 -2 23 -13 13 23 21 2 0.10176058D+00 0.26632465D-01 0.10509525D+06 0.10509525D+06 0.10509525D+06 0.11199552D+01  1  2 15  1  7  1        2 0.140217810105D-04 0.100000000000D+01
0.101481654762D-05 0.000000000000D+00 0.000000000000D+00 0.198443605966D-06 0.000000000000D+00  7 2 -2 23 -13 13 23 21 2 0.15593103D+00 0.26632465D-01 0.17487779D+06 0.17487779D+06 0.17487779D+06 0.11023309D+01  1  2 12  1  7  1        2 0.471430711611D-04 0.100000000000D+01
-.169281093081D-05 0.000000000000D+00 0.000000000000D+00 0.198443605966D-06 0.000000000000D+00  7 2 -2 23 -13 13 23 21 2 0.10176058D+00 0.26632465D-01 0.10509525D+06 0.10509525D+06 0.10509525D+06 0.11199552D+01  1  2  4  1  7  1        2 -.141535844349D-03 0.100000000000D+01
-.218345760102D-05 0.000000000000D+00 -.942203883425D-06 0.198443605966D-06 0.000000000000D+00  7 2 -2 23 -13 13 23 21 2 0.16633574D+00 0.26632465D-01 0.10509525D+06 0.10509525D+06 0.10509525D+06 0.11199552D+01  1  2  5  1  7  1        2 -.962693594122D-04 0.100000000000D+01
0.244820707705D-05 0.000000000000D+00 0.838872583585D-06 0.198443605966D-06 0.000000000000D+00  7 2 -2 23 -13 13 23 21 2 0.10176058D+00 0.26632465D-01 0.10509525D+06 0.10509525D+06 0.10509525D+06 0.11199552D+01  1  2  6  1  7  1        2 0.204694481519D-03 0.100000000000D+01
0.506771572155D-07 0.000000000000D+00 0.000000000000D+00 0.198443605966D-06 0.000000000000D+00  7 21 -2 23 -13 13 23 -2 2 0.15593103D+00 0.26632465D-01 0.17487779D+06 0.17487779D+06 0.17487779D+06 0.11023309D+01  1  2 12  3  7  1        2 0.164416121894D-05 0.100000000000D+01
-.797668249828D-07 0.000000000000D+00 -.524002307889D-07 0.198443605966D-06 0.000000000000D+00  7 21 -2 23 -13 13 23 -2 2 0.16633574D+00 0.26632465D-01 0.10509525D+06 0.10509525D+06 0.10509525D+06 0.11199552D+01  1  2  5  3  7  1        2 -.226719194732D-05 0.100000000000D+01
  </mgrwgt>
  </event>
  <event>
  8     66 0.55102590E-06 0.40014798E+03 0.75467711E-02 0.93995025E-01
        2 -1    0    0  501    0 0.00000000E+00 0.00000000E+00 0.65755005E+03 0.65755012E+03 0.32000000E+00 0.0000E+00 0.9000E+01
       -2 -1    0    0    0  501 0.00000000E+00 0.00000000E+00 -.34316746E+03 0.34316761E+03 0.32000000E+00 0.0000E+00 0.9000E+01
       25  2    1    2    0    0 0.33344834E+03 -.16484185E+03 -.38596412E+02 0.47979759E+03 0.30059177E+03 0.0000E+00 0.0000E+00
       23  2    1    2    0    0 -.33344834E+03 0.16484185E+03 0.35297900E+03 0.52092014E+03 0.91667816E+02 0.0000E+00 0.0000E+00
       23  1    3    3    0    0 0.20899558E+03 -.14987049E+03 -.12741206E+03 0.30114680E+03 0.91188000E+02 0.0000E+00 0.9000E+01
      -11  1    4    4    0    0 -.60403023E+02 0.22127566E+02 0.20214121E+02 0.67429705E+02 0.51099893E-03 0.0000E+00 0.9000E+01
       11  1    4    4    0    0 -.27304532E+03 0.14271428E+03 0.33276488E+03 0.45349044E+03 0.51099893E-03 0.0000E+00 0.9000E+01
       23  1    3    3    0    0 0.12445276E+03 -.14971359E+02 0.88815644E+02 0.17865078E+03 0.91188000E+02 0.0000E+00 0.9000E+01
#aMCatNLO 1  0  0  1  2 0.23491141D+03 0.00000000D+00  -5  7  0 0.00000000D+00 0.00000000D+00 0.00000000D+00 0.00000000D+00 0.00000000D+00
  <mgrwgt>
 0.2647599710D-03    4    2    0
 0.475026199293233D+03 0.000000000000000D+00 0.000000000000000D+00 0.475026199293233D+03
 0.475026199293233D+03 0.000000000000000D+00 0.000000000000000D+00 -.475026199293233D+03
 0.359368681870316D+03 0.208995576587280D+03 -.149870488338818D+03 -.233859538734777D+03
 0.643365915091399D+02 -.604030229203502D+02 0.221275663045330D+02 -.102109673198376D+01
 0.367559132826023D+03 -.273045317621241D+03 0.142714281001739D+03 0.200446014295846D+03
 0.158787992380986D+03 0.124452763954311D+03 -.149713589674545D+02 0.344346211709152D+02
 0.000000000000000D+00 0.000000000000000D+00 -.000000000000000D+00 -.000000000000000D+00
 0.569514294615420D+03 0.000000000000000D+00 0.000000000000000D+00 0.569514294615420D+03
 0.661387736528643D+03 0.000000000000000D+00 0.000000000000000D+00 -.661387736528643D+03
 0.314268966114456D+03 0.127598628614994D+03 -.139563741125620D+03 -.233859538734777D+03
 0.817784676769599D+02 -.780583898763362D+02 0.243631464915635D+02 -.102109673198376D+01
 0.450040059744089D+03 -.371837419189349D+03 0.155223659337027D+03 0.200446014295846D+03
 0.132576356245533D+03 0.892466426855839D+02 -.105134449877128D+02 0.344346211709152D+02
 0.252238181363026D+03 0.233050537765107D+03 -.295096197152579D+02 -.918734419132226D+02
0.186856158336D-04 0.000000000000D+00 0.000000000000D+00 0.884491165136D-06 0.000000000000D+00  7 2 -2 23 -11 11 23 21 0 0.10116156D+00 0.52795011D-01 0.16011841D+06 0.16011841D+06 0.16011841D+06 0.11053216D+01  1  2  2  1  7  1        2 0.352429543009D-03 0.100000000000D+01
-.100095124887D-05 0.000000000000D+00 -.717576848365D-07 0.884491165136D-06 0.000000000000D+00  7 2 -2 23 -11 11 23 21 2 0.10116156D+00 0.52795011D-01 0.16011841D+06 0.16011841D+06 0.16011841D+06 0.11053216D+01  1  2  3  1  7  1        2 -.230650891112D-04 0.100000000000D+01
0.119775702496D-05 0.000000000000D+00 0.000000000000D+00 0.884491165136D-06 0.000000000000D+00  7 2 -2 23 -11 11 23 21 2 0.10116156D+00 0.52795011D-01 0.16011841D+06 0.16011841D+06 0.16011841D+06 0.11053216D+01  1  2 15  1  7  1        2 0.276001179333D-04 0.100000000000D+01
-.400138538083D-05 0.000000000000D+00 0.000000000000D+00 0.884491165136D-06 0.000000000000D+00  7 2 -2 23 -11 11 23 21 2 0.10116156D+00 0.52795011D-01 0.16011841D+06 0.16011841D+06 0.16011841D+06 0.11053216D+01  1  2  4  1  7  1        2 -.922046008544D-04 0.100000000000D+01
  </mgrwgt>
  </event>
  <event>
  8     66 0.55102590E-06 0.15383032E+03 0.75467711E-02 0.91727532E-01
        2 -1    0    0  501    0 0.00000000E+00 0.00000000E+00 0.12258604E+04 0.12258604E+04 0.32000000E+00 0.0000E+00 0.9000E+01
       -2 -1    0    0    0  501 0.00000000E+00 0.00000000E+00 -.22927825E+03 0.22927847E+03 0.32000000E+00 0.0000E+00 0.9000E+01
       25  2    1    2    0    0 0.15785143E+03 -.39120406E+03 0.21217125E+03 0.55962057E+03 0.30033455E+03 0.0000E+00 0.0000E+00
       23  2    1    2    0    0 -.15785143E+03 0.39120406E+03 0.78441087E+03 0.89551831E+03 0.93246653E+02 0.0000E+00 0.0000E+00
       23  1    3    3    0    0 0.12757820E+03 -.32998909E+03 0.24638364E+03 0.44066898E+03 0.91188000E+02 0.0000E+00 0.9000E+01
      -11  1    4    4    0    0 -.98767531E+02 0.18825783E+03 0.47942005E+03 0.52444220E+03 0.51099893E-03 0.0000E+00 0.9000E+01
       11  1    4    4    0    0 -.59083901E+02 0.20294623E+03 0.30499082E+03 0.37107611E+03 0.51099893E-03 0.0000E+00 0.9000E+01
       23  1    3    3    0    0 0.30273232E+02 -.61214972E+02 -.34212389E+02 0.11895159E+03 0.91188000E+02 0.0000E+00 0.9000E+01
#aMCatNLO 1  0  0  2  1 0.33592704D+03 0.00000000D+00  -5  7  0 0.00000000D+00 0.00000000D+00 0.00000000D+00 0.00000000D+00 0.00000000D+00
  <mgrwgt>
 0.2628544926D-03    9    2    0
 0.530154040487159D+03 0.000000000000000D+00 0.000000000000000D+00 0.530154040487159D+03
 0.530154040487159D+03 0.000000000000000D+00 0.000000000000000D+00 -.530154040487159D+03
 0.373186847660262D+03 0.127578199999498D+03 -.329989092696605D+03 -.760537540740980D+02
 0.269124406692617D+03 -.987675309355833D+02 0.188257833437102D+03 0.165020935823640D+03
 0.222594623092957D+03 -.590839010084728D+02 0.202946231160454D+03 0.697874353253095D+02
 0.195402203528481D+03 0.302732319445582D+02 -.612149719009508D+02 -.158754617074852D+03
 0.000000000000000D+00 0.000000000000000D+00 0.000000000000000D+00 -.000000000000000D+00
 0.682463922577613D+03 0.000000000000000D+00 0.000000000000000D+00 0.682463922577613D+03
 0.779427170481913D+03 0.000000000000000D+00 0.000000000000000D+00 -.779427170481913D+03
 0.361949755480008D+03 0.145049664498759D+02 -.341610606667243D+03 -.760537540740980D+02
 0.307337755172859D+03 -.187434644479782D+03 0.179144747462269D+03 0.165020935823640D+03
 0.245546112076083D+03 -.131089819984269D+03 0.195545560222901D+03 0.697874353253095D+02
 0.197416441089466D+03 -.301472044148812D+02 -.674249026088680D+02 -.158754617074852D+03
 0.349641029241110D+03 0.334166702429057D+03 0.343452015909420D+02 -.969632479042999D+02
0.143307945720D-04 0.000000000000D+00 0.000000000000D+00 0.348061374388D-06 0.000000000000D+00  7 2 -2 23 -11 11 23 21 0 0.18859392D+00 0.35273597D-01 0.20396326D+06 0.20396326D+06 0.20396326D+06 0.10971715D+01  1  2  2  2  7  2       -2 0.248295591911D-03 0.100000000000D+01
-.771275001368D-06 0.000000000000D+00 -.550340245415D-07 0.348061374388D-06 0.000000000000D+00  7 2 -2 23 -11 11 23 21 2 0.18859392D+00 0.35273597D-01 0.20396326D+06 0.20396326D+06 0.20396326D+06 0.10971715D+01  1  2  3  2  7  2       -2 -.160863313235D-04 0.100000000000D+01
0.909281773030D-06 0.000000000000D+00 0.000000000000D+00 0.348061374388D-06 0.000000000000D+00  7 2 -2 23 -11 11 23 21 2 0.18859392D+00 0.35273597D-01 0.20396326D+06 0.20396326D+06 0.20396326D+06 0.10971715D+01  1  2 15  2  7  2       -2 0.189647114732D-04 0.100000000000D+01
0.806781049737D-06 0.000000000000D+00 0.000000000000D+00 0.348061374388D-06 0.000000000000D+00  7 2 -2 23 -11 11 23 21 2 0.18859392D+00 0.54992046D-01 0.42369685D+06 0.42369685D+06 0.42369685D+06 0.10736304D+01  1  2 12  2  7  2       -2 0.668393635307D-05 0.100000000000D+01
-.541220402024D-05 0.000000000000D+00 0.000000000000D+00 0.348061374388D-06 0.000000000000D+00  7 2 -2 23 -11 11 23 21 2 0.18859392D+00 0.35273597D-01 0.20396326D+06 0.20396326D+06 0.20396326D+06 0.10971715D+01  1  2  4  2  7  2       -2 -.112881276984D-03 0.100000000000D+01
-.467828133418D-05 0.000000000000D+00 -.471867284554D-05 0.348061374388D-06 0.000000000000D+00  7 2 -2 23 -11 11 23 21 2 0.18859392D+00 0.66044558D-01 0.20396326D+06 0.20396326D+06 0.20396326D+06 0.10971715D+01  1  2  5  2  7  2       -2 -.284865396340D-04 0.100000000000D+01
0.701017238361D-05 0.000000000000D+00 0.392170580417D-05 0.348061374388D-06 0.000000000000D+00  7 2 -2 23 -11 11 23 21 2 0.18859392D+00 0.35273597D-01 0.20396326D+06 0.20396326D+06 0.20396326D+06 0.10971715D+01  1  2  6  2  7  2       -2 0.146209789502D-03 0.100000000000D+01
0.415047202717D-07 0.000000000000D+00 0.000000000000D+00 0.348061374388D-06 0.000000000000D+00  7 2 21 23 -11 11 23 2 2 0.18859392D+00 0.54992046D-01 0.42369685D+06 0.42369685D+06 0.42369685D+06 0.10736304D+01  1  2 12  4  7  2       -2 0.349132982101D-05 0.100000000000D+01
-.546449586219D-07 0.000000000000D+00 -.322219263301D-06 0.348061374388D-06 0.000000000000D+00  7 2 21 23 -11 11 23 2 2 0.18859392D+00 0.66044558D-01 0.20396326D+06 0.20396326D+06 0.20396326D+06 0.10971715D+01  1  2  5  4  7  2       -2 -.333671847471D-05 0.100000000000D+01
  </mgrwgt>
  </event>
  <event>
  9     66 0.55102590E-06 0.29782668E+03 0.75467711E-02 0.99020558E-01
       21 -1    0    0  501  502 0.00000000E+00 0.00000000E+00 0.10128687E+04 0.10128690E+04 0.75000000E+00 0.0000E+00 0.9000E+01
       -2 -1    0    0    0  501 0.00000000E+00 0.00000000E+00 -.12953317E+03 0.12953357E+03 0.32000000E+00 0.0000E+00 0.9000E+01
       25  2    1    2    0    0 -.15774425E+03 0.22547208E+03 0.59531868E+03 0.72127810E+03 0.30019471E+03 0.0000E+00 0.0000E+00
       23  2    1    2    0    0 0.13372230E+03 -.13909803E+03 0.23201355E+03 0.31541729E+03 0.91803398E+02 0.0000E+00 0.0000E+00
       23  1    3    3    0    0 0.28052879E+01 0.19026242E+03 0.24199895E+03 0.32107071E+03 0.91188000E+02 0.0000E+00 0.9000E+01
      -13  1    4    4    0    0 0.77295368E+02 -.11957439E+03 0.11122096E+03 0.18067297E+03 0.10565837E+00 0.0000E+00 0.9000E+01
       13  1    4    4    0    0 0.56426936E+02 -.19523638E+02 0.12079258E+03 0.13474432E+03 0.10565837E+00 0.0000E+00 0.9000E+01
       23  1    3    3    0    0 -.16054954E+03 0.35209659E+02 0.35331972E+03 0.40020739E+03 0.91188000E+02 0.0000E+00 0.9000E+01
       -2  1    1    2    0  502 0.24021949E+02 -.86374057E+02 0.56003325E+02 0.10570717E+03 0.32000000E+00 0.0000E+00 0.9000E+01
#aMCatNLO 2  0  0  1  1 0.89652282D+02 0.00000000D+00  -5  7  0 0.00000000D+00 0.00000000D+00 0.00000000D+00 0.00000000D+00 0.00000000D+00
  <mgrwgt>
 0.3550294333D-05    1    2    0
 0.309120201234253D+03 0.000000000000000D+00 0.000000000000000D+00 0.309120201234253D+03
 0.309120201234253D+03 0.000000000000000D+00 0.000000000000000D+00 -.309120201234253D+03
 0.188070286850944D+03 0.105435093343081D+02 0.162438634995379D+03 -.236157939513335D+02
 0.173833908018568D+03 0.836028922900232D+02 -.142253945540801D+03 -.547046520492133D+02
 0.692205667398741D+02 0.589945529597538D+02 -.287558057865991D+02 0.220052996896560D+02
 0.187115640859119D+03 -.153140954584085D+03 0.857111633202055D+01 0.563151463108908D+02
 0.000000000000000D+00 0.000000000000000D+00 -.000000000000000D+00 -.000000000000000D+00
 0.339450897756892D+03 0.000000000000000D+00 0.000000000000000D+00 0.339450897756892D+03
 0.386507429316604D+03 0.000000000000000D+00 0.000000000000000D+00 -.386507429316604D+03
 0.212321964097456D+03 0.280528735018504D+01 0.190262423334541D+03 -.236157939513335D+02
 0.152529483457489D+03 0.772953966660421D+02 -.119574520790267D+03 -.547046520492133D+02
 0.636348686551355D+02 0.564269087347500D+02 -.195235054476638D+02 0.220052996896560D+02
 0.196220596641070D+03 -.160549541771546D+03 0.352096596846256D+02 0.563151463108908D+02
 0.101251414222346D+03 0.240219490205689D+02 -.863740567812359D+02 -.470565315597125D+02
0.637629587223D-07 0.000000000000D+00 0.000000000000D+00 0.339123489114D-06 0.606352910016D-11  7 21 -2 23 -13 13 23 -2 2 0.15582590D+00 0.19928218D-01 0.11927132D+06 0.11927132D+06 0.11927132D+06 0.11154950D+01  1  2  1  3  7  1        2 0.355029433287D-05 0.100000000000D+01
  </mgrwgt>
  </event>
  <event>
  8     66 0.55102590E-06 0.90612302E+02 0.75467711E-02 0.10051182E+00
        2 -1    0    0  501    0 0.00000000E+00 0.00000000E+00 0.15373673E+04 0.15373674E+04 0.32000000E+00 0.0000E+00 0.9000E+01
       -2 -1    0    0    0  501 0.00000000E+00 0.00000000E+00 -.56476640E+02 0.56477547E+02 0.32000000E+00 0.0000E+00 0.9000E+01
       25  2    1    2    0    0 0.15077020E+03 0.55930919E+02 0.56653921E+03 0.66093470E+03 0.30001347E+03 0.0000E+00 0.0000E+00
       23  2    1    2    0    0 -.15077020E+03 -.55930919E+02 0.91435149E+03 0.93291022E+03 0.91776419E+02 0.0000E+00 0.0000E+00
       23  1    3    3    0    0 0.10256374E+03 -.86551167E+02 0.23413893E+03 0.28486263E+03 0.91188000E+02 0.0000E+00 0.9000E+01
      -13  1    4    4    0    0 -.44121074E+02 -.48669202E+02 0.52703405E+03 0.53111228E+03 0.10565837E+00 0.0000E+00 0.9000E+01
       13  1    4    4    0    0 -.10664913E+03 -.72617172E+01 0.38731745E+03 0.40179794E+03 0.10565837E+00 0.0000E+00 0.9000E+01
       23  1    3    3    0    0 0.48206459E+02 0.14248209E+03 0.33240028E+03 0.37607207E+03 0.91188000E+02 0.0000E+00 0.9000E+01
#aMCatNLO 1  0  0  2  1 0.10101508D+03 0.00000000D+00  -5  7  0 0.00000000D+00 0.00000000D+00 0.00000000D+00 0.00000000D+00 0.00000000D+00
  <mgrwgt>
 0.2340550137D-03    6    2    0
 0.294662674384089D+03 0.000000000000000D+00 0.000000000000000D+00 0.294662674384089D+03
 0.294662674384089D+03 0.000000000000000D+00 0.000000000000000D+00 -.294662674384089D+03
 0.182060191366409D+03 0.102563744051717D+03 -.865511660043107D+02 -.825847201712360D+02
 0.112044724443845D+03 -.441209916982343D+02 -.486692566066867D+02 0.907670745844214D+02
 0.113398826016672D+03 -.106649211281887D+03 -.726166276922384D+01 0.378484838366997D+02
 0.181821606941253D+03 0.482064589284041D+02 0.142482085380221D+03 -.460308382498851D+02
 0.000000000000000D+00 -.000000000000000D+00 -.000000000000000D+00 0.000000000000000D+00
 0.350538278749296D+03 0.000000000000000D+00 0.000000000000000D+00 0.350538278749296D+03
 0.348419096980636D+03 0.000000000000000D+00 0.000000000000000D+00 -.348419096980636D+03
 0.170587881797696D+03 0.103752372437093D+03 -.565701624545850D+02 -.825847201712360D+02
 0.105043438473682D+03 -.433892787747592D+02 -.302131200832778D+02 0.907670745844214D+02
 0.113084723144531D+03 -.105885830461632D+03 0.119932392367108D+02 0.378484838366997D+02
 0.209204028594031D+03 0.495244419408632D+02 0.175725825695688D+03 -.460308382498851D+02
 0.101037303719991D+03 -.400170514156538D+01 -.100935782394536D+03 0.211918176865930D+01
0.193856638179D-05 0.000000000000D+00 0.000000000000D+00 0.285303912602D-06 0.000000000000D+00  7 2 -2 23 -13 13 23 21 0 0.23651813D+00 0.86887862D-02 0.65213291D+05 0.65213291D+05 0.65213291D+05 0.11372840D+01  1  2  2  2  7  2       -2 0.231325233319D-03 0.100000000000D+01
-.105015864768D-06 0.000000000000D+00 -.744460534233D-08 0.285303912602D-06 0.000000000000D+00  7 2 -2 23 -13 13 23 21 2 0.23651813D+00 0.86887862D-02 0.65213291D+05 0.65213291D+05 0.65213291D+05 0.11372840D+01  1  2  3  2  7  2       -2 -.162082119617D-04 0.100000000000D+01
0.124666636480D-06 0.000000000000D+00 0.000000000000D+00 0.285303912602D-06 0.000000000000D+00  7 2 -2 23 -13 13 23 21 2 0.23651813D+00 0.86887862D-02 0.65213291D+05 0.65213291D+05 0.65213291D+05 0.11372840D+01  1  2 15  2  7  2       -2 0.192411239300D-04 0.100000000000D+01
0.815581292222D-06 0.000000000000D+00 0.000000000000D+00 0.285303912602D-06 0.000000000000D+00  7 2 -2 23 -13 13 23 21 2 0.23651813D+00 0.10957221D-01 0.94185178D+05 0.94185178D+05 0.94185178D+05 0.11238633D+01  1  2 12  2  7  2       -2 0.857287109059D-04 0.100000000000D+01
-.812834967545D-06 0.000000000000D+00 0.000000000000D+00 0.285303912602D-06 0.000000000000D+00  7 2 -2 23 -13 13 23 21 2 0.23651813D+00 0.86887862D-02 0.65213291D+05 0.65213291D+05 0.65213291D+05 0.11372840D+01  1  2  4  2  7  2       -2 -.125453439563D-03 0.100000000000D+01
0.261101168579D-07 0.000000000000D+00 0.000000000000D+00 0.285303912602D-06 0.000000000000D+00  7 2 21 23 -13 13 23 2 2 0.23651813D+00 0.10957221D-01 0.94185178D+05 0.94185178D+05 0.94185178D+05 0.11238633D+01  1  2 12  4  7  2       -2 0.394215970493D-04 0.100000000000D+01
  </mgrwgt>
  </event>
  <event>
  9     66 0.55102590E-06 0.17497832E+03 0.75467711E-02 0.10395488E+00
        2 -1    0    0  502    0 0.00000000E+00 0.00000000E+00 0.83744392E+03 0.83744398E+03 0.32000000E+00 0.0000E+00 0.9000E+01
       -2 -1    0    0    0  501 0.00000000E+00 0.00000000E+00 -.15730040E+03 0.15730073E+03 0.32000000E+00 0.0000E+00 0.9000E+01
       25  2    1    2    0    0 -.27307134E+02 0.19530175E+02 0.34106707E+02 0.30389113E+03 0.30009905E+03 0.0000E+00 0.0000E+00
       23  2    1    2    0    0 0.89119501E+02 0.54847586E+02 0.46878557E+03 0.48893433E+03 0.91358213E+02 0.0000E+00 0.0000E+00
       23  1    3    3    0    0 -.96965548E+02 0.62673059E+02 -.49811493E+02 0.15532761E+03 0.91188000E+02 0.0000E+00 0.9000E+01
      -11  1    4    4    0    0 0.80895866E+02 0.56570978E+02 0.47016812E+03 0.48041906E+03 0.51099893E-03 0.0000E+00 0.9000E+01
       11  1    4    4    0    0 0.82236354E+01 -.17233921E+01 -.13825501E+01 0.85152631E+01 0.51099893E-03 0.0000E+00 0.9000E+01
       23  1    3    3    0    0 0.69658414E+02 -.43142884E+02 0.83918200E+02 0.14856352E+03 0.91188000E+02 0.0000E+00 0.9000E+01
       21  1    1    2  502  501 -.61812367E+02 -.74377761E+02 0.17725125E+03 0.20191926E+03 0.75000000E+00 0.0000E+00 0.9000E+01
#aMCatNLO 2  0  0  1  2 0.96709979D+02 0.00000000D+00  -5  7  0 0.00000000D+00 0.00000000D+00 0.00000000D+00 0.00000000D+00 0.00000000D+00
  <mgrwgt>
 0.6716507852D-04    2    2    0
 0.302621353981262D+03 0.000000000000000D+00 0.000000000000000D+00 0.302621353981262D+03
 0.302621353981262D+03 0.000000000000000D+00 0.000000000000000D+00 -.302621353981262D+03
 0.247057390676264D+03 -.121770728009610D+03 0.328254108402787D+02 -.191876223506043D+03
 0.223441862596131D+03 0.575996888818842D+02 0.285390880799946D+02 0.213995472505146D+03
 0.116750695063351D+02 0.701474642352897D+01 -.317802748526697D+01 -.877500552103699D+01
 0.123068385183793D+03 0.571562927041966D+02 -.581864714350064D+02 -.133442434780667D+02
 0.000000000000000D+00 -.000000000000000D+00 -.000000000000000D+00 0.000000000000000D+00
 0.396139428007313D+03 0.000000000000000D+00 0.000000000000000D+00 0.396139428007313D+03
 0.332533256269684D+03 0.000000000000000D+00 0.000000000000000D+00 -.332533256269684D+03
 0.241789094436649D+03 -.969655475749065D+02 0.626730586540374D+02 -.191876223506043D+03
 0.235666032505897D+03 0.808958657468404D+02 0.565709778016855D+02 0.213995472505146D+03
 0.121490321363505D+02 0.822363542639257D+01 -.172339209979249D+01 -.877500552103699D+01
 0.123316354166652D+03 0.696584137218683D+02 -.431428838246378D+02 -.133442434780667D+02
 0.115752171031449D+03 -.618123673201948D+02 -.743777605312926D+02 0.636061717376289D+02
-.966421188383D-06 0.000000000000D+00 0.000000000000D+00 0.770097044312D-06 0.000000000000D+00  7 2 -2 23 -11 11 23 21 2 0.13255028D+00 0.22023177D-01 0.56060584D+05 0.56060584D+05 0.56060584D+05 0.11429504D+01  1  2 13  1  7  1        2 -.842720296133D-04 0.100000000000D+01
0.196091434212D-05 0.000000000000D+00 0.000000000000D+00 0.770097044312D-06 0.586674955642D-09  7 2 -2 23 -11 11 23 21 2 0.12883710D+00 0.24200007D-01 0.56060584D+05 0.56060584D+05 0.56060584D+05 0.11429504D+01  1  2  1  1  7  1        2 0.151437108130D-03 0.100000000000D+01
  </mgrwgt>
  </event>
  <event>
  9     66 0.55102590E-06 0.41422202E+03 0.75467711E-02 0.93836565E-01
        2 -1    0    0  501    0 0.00000000E+00 0.00000000E+00 0.12941418E+04 0.12941418E+04 0.32000000E+00 0.0000E+00 0.9000E+01
       21 -1    0    0  502  501 0.00000000E+00 0.00000000E+00 -.25266379E+03 0.25266490E+03 0.75000000E+00 0.0000E+00 0.9000E+01
       25  2    1    2    0    0 -.46806442E+03 -.16368117E+03 0.57390932E+03 0.81594505E+03 0.30086307E+03 0.0000E+00 0.0000E+00
       23  2    1    2    0    0 0.29136781E+03 0.39670521E+02 0.40127068E+03 0.50503905E+03 0.87047897E+02 0.0000E+00 0.0000E+00
       23  1    3    3    0    0 -.41017668E+03 -.14588559E+03 0.54355189E+03 0.70234708E+03 0.91188000E+02 0.0000E+00 0.9000E+01
      -13  1    4    4    0    0 0.15128994E+03 0.56467158E+02 0.17272281E+03 0.23645373E+03 0.10565837E+00 0.0000E+00 0.9000E+01
       13  1    4    4    0    0 0.14007787E+03 -.16796636E+02 0.22854787E+03 0.26858533E+03 0.10565837E+00 0.0000E+00 0.9000E+01
       23  1    3    3    0    0 -.57887739E+02 -.17795587E+02 0.30357426E+02 0.11359797E+03 0.91188000E+02 0.0000E+00 0.9000E+01
        2  1    1    2  502    0 0.17669661E+03 0.12401065E+03 0.66298002E+02 0.22582263E+03 0.32000000E+00 0.0000E+00 0.9000E+01
#aMCatNLO 2  0  0  2  1 0.21587110D+03 0.00000000D+00  -5  7  0 0.00000000D+00 0.00000000D+00 0.00000000D+00 0.00000000D+00 0.00000000D+00
  <mgrwgt>
 0.3615169934D-04    2    2    0
 0.432268041611483D+03 0.000000000000000D+00 0.000000000000000D+00 0.432268041611483D+03
 0.432268041611483D+03 0.000000000000000D+00 0.000000000000000D+00 -.432268041611483D+03
 0.355289049418730D+03 -.329495069668003D+03 -.892609605500007D+02 0.371555820709877D+02
 0.205486817933408D+03 0.188226626947619D+03 0.823904607037428D+02 -.271684326828449D+01
 0.178812576228217D+03 0.172975128059780D+03 0.629148634122824D+01 0.448771622286092D+02
 0.124947639642610D+03 -.317066853393961D+02 0.579013505029678D+00 -.793159010313124D+02
 0.000000000000000D+00 0.000000000000000D+00 0.000000000000000D+00 -.000000000000000D+00
 0.502221830462133D+03 0.000000000000000D+00 0.000000000000000D+00 0.502221830462133D+03
 0.651073931649837D+03 0.000000000000000D+00 0.000000000000000D+00 -.651073931649837D+03
 0.446344376085519D+03 -.410176680861129D+03 -.145885585024308D+03 0.371555820709877D+02
 0.161507225334732D+03 0.151289955188295D+03 0.564672653588202D+02 -.271684326828449D+01
 0.148046939301567D+03 0.140077856678962D+03 -.167967441814521D+02 0.448771622286092D+02
 0.135181125741220D+03 -.578877392240247D+02 -.177955866378712D+02 -.793159010313124D+02
 0.262216095648931D+03 0.176696608217897D+03 0.124010650484811D+03 -.148852101187704D+03
-.875660799304D-07 0.000000000000D+00 0.000000000000D+00 0.122485052700D-07 0.000000000000D+00  7 2 21 23 -13 13 23 2 2 0.17136659D+00 0.40109816D-01 0.28767053D+06 0.28767053D+06 0.28767053D+06 0.10859029D+01  1  2 13  4  7  2       -2 -.176791171720D-04 0.100000000000D+01
0.317797087333D-06 0.000000000000D+00 0.000000000000D+00 0.122485052700D-07 0.149405394263D-12  7 2 21 23 -13 13 23 2 2 0.19909879D+00 0.38871434D-01 0.28767053D+06 0.28767053D+06 0.28767053D+06 0.10859029D+01  1  2  1  4  7  2       -2 0.538308165106D-04 0.100000000000D+01
  </mgrwgt>
  </event>
  <event>
  8     66 0.55102590E-06 0.18348258E+03 0.75467711E-02 0.10416644E+00
        2 -1    0    0  501    0 0.00000000E+00 0.00000000E+00 0.12988012E+04 0.12988012E+04 0.32000000E+00 0.0000E+00 0.9000E+01
       -2 -1    0    0    0  501 0.00000000E+00 0.00000000E+00 -.32692119E+02 0.32693685E+02 0.32000000E+00 0.0000E+00 0.9000E+01
       25  2    1    2    0    0 0.28570702E+02 -.18569903E+02 0.10862620E+04 0.11270803E+04 0.29863648E+03 0.0000E+00 0.0000E+00
       23  2    1    2    0    0 -.28570702E+02 0.18569903E+02 0.17984703E+03 0.20441457E+03 0.90990314E+02 0.0000E+00 0.0000E+00
       23  1    3    3    0    0 0.35309131E+02 0.86489780E+02 0.28076895E+03 0.30963474E+03 0.91188000E+02 0.0000E+00 0.9000E+01
      -13  1    4    4    0    0 -.61884400E+02 0.94543932E+01 0.11790326E+03 0.13349253E+03 0.10565837E+00 0.0000E+00 0.9000E+01
       13  1    4    4    0    0 0.33313698E+02 0.91155095E+01 0.61943764E+02 0.70922042E+02 0.10565837E+00 0.0000E+00 0.9000E+01
       23  1    3    3    0    0 -.67384281E+01 -.10505968E+03 0.80549308E+03 0.81744559E+03 0.91188000E+02 0.0000E+00 0.9000E+01
#aMCatNLO 1  0  0  1  1 0.87645918D+02 0.00000000D+00  -5  7  0 0.00000000D+00 0.00000000D+00 0.00000000D+00 0.00000000D+00 0.00000000D+00
  <mgrwgt>
 0.4882405005D-03    4    2    0
 0.206062204015599D+03 0.000000000000000D+00 0.000000000000000D+00 0.206062204015599D+03
 0.206062204015599D+03 0.000000000000000D+00 0.000000000000000D+00 -.206062204015599D+03
 0.137805311955724D+03 0.353091534720588D+02 0.864896967728841D+02 -.441344388480859D+02
 0.690720634918352D+02 -.618845774359859D+02 0.945442742051990D+01 -.291866893076227D+02
 0.388347767064767D+02 0.333137943358926D+02 0.911552771907638D+01 -.177549470061306D+02
 0.166412255877163D+03 -.673837037196540D+01 -.105059651912480D+03 0.910760751618392D+02
 0.000000000000000D+00 -.000000000000000D+00 0.000000000000000D+00 -.000000000000000D+00
 0.244787627327017D+03 0.000000000000000D+00 0.000000000000000D+00 0.244787627327017D+03
 0.266960611832180D+03 0.000000000000000D+00 0.000000000000000D+00 -.266960611832180D+03
 0.130846992491278D+03 0.524827169406824D+02 0.640577850858217D+02 -.441344388480859D+02
 0.610198810712074D+02 -.535684668732685D+02 -.140798084224670D+01 -.291866893076227D+02
 0.424707819209045D+02 0.385112415504750D+02 0.232668176240047D+01 -.177549470061306D+02
 0.187003458893738D+03 0.158536830292530D+02 -.134569133019965D+03 0.910760751618392D+02
 0.904071247820687D+02 -.532791746471419D+02 0.695926470139893D+02 -.221729845051627D+02
0.213815374980D-05 0.000000000000D+00 0.000000000000D+00 0.135767916995D-07 0.000000000000D+00  7 2 -2 23 -13 13 23 21 0 0.19981569D+00 0.50296803D-02 0.33665856D+05 0.33665856D+05 0.33665856D+05 0.11627188D+01  1  2  2  1  7  1        2 0.773991720315D-03 0.100000000000D+01
-.116840955466D-06 0.000000000000D+00 -.821107338803D-08 0.135767916995D-07 0.000000000000D+00  7 2 -2 23 -13 13 23 21 2 0.19981569D+00 0.50296803D-02 0.33665856D+05 0.33665856D+05 0.33665856D+05 0.11627188D+01  1  2  3  1  7  1        2 -.571797000956D-04 0.100000000000D+01
0.131639476740D-06 0.000000000000D+00 0.000000000000D+00 0.135767916995D-07 0.000000000000D+00  7 2 -2 23 -13 13 23 21 2 0.19981569D+00 0.50296803D-02 0.33665856D+05 0.33665856D+05 0.33665856D+05 0.11627188D+01  1  2 15  1  7  1        2 0.644218097217D-04 0.100000000000D+01
-.598702345393D-06 0.000000000000D+00 0.000000000000D+00 0.135767916995D-07 0.000000000000D+00  7 2 -2 23 -13 13 23 21 2 0.19981569D+00 0.50296803D-02 0.33665856D+05 0.33665856D+05 0.33665856D+05 0.11627188D+01  1  2  4  1  7  1        2 -.292993329433D-03 0.100000000000D+01
  </mgrwgt>
  </event>
  <event>
  8     66 0.55102590E-06 0.10150464E+03 0.75467711E-02 0.10860742E+00
        2 -1    0    0  501    0 0.00000000E+00 0.00000000E+00 0.15972556E+03 0.15972588E+03 0.32000000E+00 0.0000E+00 0.9000E+01
       -2 -1    0    0    0  501 0.00000000E+00 0.00000000E+00 -.26109218E+03 0.26109238E+03 0.32000000E+00 0.0000E+00 0.9000E+01
       25  2    1    2    0    0 -.36094093E+02 -.37457695E+02 -.70523032E+02 0.31219024E+03 0.29963876E+03 0.0000E+00 0.0000E+00
       23  2    1    2    0    0 0.36094093E+02 0.37457695E+02 -.30843584E+02 0.10862802E+03 0.90237779E+02 0.0000E+00 0.0000E+00
       23  1    3    3    0    0 -.45073906E+02 0.85307839E+02 -.86065059E+02 0.15821356E+03 0.91188000E+02 0.0000E+00 0.9000E+01
      -11  1    4    4    0    0 0.19476431E+02 0.11232276E+02 -.61204436E+02 0.65203362E+02 0.51099893E-03 0.0000E+00 0.9000E+01
       11  1    4    4    0    0 0.16617662E+02 0.26225419E+02 0.30360852E+02 0.43424654E+02 0.51099893E-03 0.0000E+00 0.9000E+01
       23  1    3    3    0    0 0.89798135E+01 -.12276553E+03 0.15542027E+02 0.15397668E+03 0.91188000E+02 0.0000E+00 0.9000E+01
#aMCatNLO 1  0  0  2  1 0.28358308D+01 0.00000000D+00  -5  7  0 0.00000000D+00 0.00000000D+00 0.00000000D+00 0.00000000D+00 0.00000000D+00
  <mgrwgt>
 0.2044367607D-03   11    2    0
 0.204213623614510D+03 0.000000000000000D+00 0.000000000000000D+00 0.204213623614510D+03
 0.204213623614510D+03 0.000000000000000D+00 0.000000000000000D+00 -.204213623614510D+03
 0.141653209414504D+03 -.450739064464232D+02 0.853078384661043D+02 -.494094732549292D+02
 0.519913369824634D+02 0.194764311219080D+02 0.112322766005057D+02 -.468786061476594D+02
 0.522772770490795D+02 0.166176620907621D+02 0.262254189523464D+02 0.420594151537723D+02
 0.162505423782972D+03 0.897981323375309D+01 -.122765534018956D+03 0.542286642488163D+02
 0.000000000000000D+00 0.000000000000000D+00 -.000000000000000D+00 -.000000000000000D+00
 0.205243334059612D+03 0.000000000000000D+00 0.000000000000000D+00 0.205243334059612D+03
 0.206180399773474D+03 0.000000000000000D+00 0.000000000000000D+00 -.206180399773474D+03
 0.142270339485538D+03 -.451463442617401D+02 0.862908436961940D+02 -.494094732549292D+02
 0.520604301015805D+02 0.194498842478757D+02 0.115925265045378D+02 -.468786061476594D+02
 0.524516561085278D+02 0.165909424503948D+02 0.265880133529676D+02 0.420594151537723D+02
 0.161654666419740D+03 0.889710981292658D+01 -.121643221110111D+03 0.542286642488163D+02
 0.298664171769991D+01 0.208407750543028D+00 -.282816244358811D+01 -.937065713862554D+00
0.153286214290D-05 0.000000000000D+00 0.000000000000D+00 0.799269568872D-07 0.000000000000D+00  7 2 -2 23 -11 11 23 21 0 0.24573203D-01 0.40168067D-01 0.28811200D+05 0.28811200D+05 0.28811200D+05 0.11689687D+01  1  2  2  2  7  2       -2 0.236830257226D-03 0.100000000000D+01
-.816188855490D-07 0.000000000000D+00 -.588659424060D-08 0.799269568872D-07 0.000000000000D+00  7 2 -2 23 -11 11 23 21 2 0.24573203D-01 0.40168067D-01 0.28811200D+05 0.28811200D+05 0.28811200D+05 0.11689687D+01  1  2  3  2  7  2       -2 -.172317938306D-04 0.100000000000D+01
0.994421017967D-07 0.000000000000D+00 0.000000000000D+00 0.799269568872D-07 0.000000000000D+00  7 2 -2 23 -11 11 23 21 2 0.24573203D-01 0.40168067D-01 0.28811200D+05 0.28811200D+05 0.28811200D+05 0.11689687D+01  1  2 15  2  7  2       -2 0.209947218064D-04 0.100000000000D+01
0.761872606610D-08 0.000000000000D+00 0.000000000000D+00 0.799269568872D-07 0.000000000000D+00  7 2 -2 23 -11 11 23 21 2 0.24573203D-01 0.40655450D-01 0.29330094D+05 0.29330094D+05 0.29330094D+05 0.11682470D+01  1  2 12  2  7  2       -2 0.157165137973D-05 0.100000000000D+01
-.221013141337D-04 0.000000000000D+00 0.000000000000D+00 0.799269568872D-07 0.000000000000D+00  7 2 -2 23 -11 11 23 21 2 0.24573203D-01 0.40168067D-01 0.28811200D+05 0.28811200D+05 0.28811200D+05 0.11689687D+01  1  2  4  2  7  2       -2 -.466614173884D-02 0.100000000000D+01
-.124152098214D-03 0.000000000000D+00 -.139220535758D-04 0.799269568872D-07 0.000000000000D+00  7 2 -2 23 -11 11 23 21 2 0.24573203D-01 0.40737094D-01 0.28811200D+05 0.28811200D+05 0.28811200D+05 0.11689687D+01  1  2  5  2  7  2       -2 -.255428930120D-01 0.100000000000D+01
0.124337011756D-03 0.000000000000D+00 0.139206762884D-04 0.799269568872D-07 0.000000000000D+00  7 2 -2 23 -11 11 23 21 2 0.24573203D-01 0.40168067D-01 0.28811200D+05 0.28811200D+05 0.28811200D+05 0.11689687D+01  1  2  6  2  7  2       -2 0.262506616904D-01 0.100000000000D+01
0.220952213091D-04 0.000000000000D+00 0.000000000000D+00 0.799269568872D-07 0.723466337366D-07  7 2 -2 23 -11 11 23 21 2 0.24697109D-01 0.40554925D-01 0.29330094D+05 0.29330094D+05 0.29330094D+05 0.11682470D+01  1  2 11  2  7  2       -2 0.455263744685D-02 0.100000000000D+01
0.604473507981D-09 0.000000000000D+00 0.000000000000D+00 0.799269568872D-07 0.000000000000D+00  7 2 21 23 -11 11 23 2 2 0.24573203D-01 0.40655450D-01 0.29330094D+05 0.29330094D+05 0.29330094D+05 0.11682470D+01  1  2 12  4  7  2       -2 0.144618575553D-05 0.100000000000D+01
-.319636292127D-06 0.000000000000D+00 -.359568968132D-07 0.799269568872D-07 0.000000000000D+00  7 2 21 23 -11 11 23 2 2 0.24573203D-01 0.40737094D-01 0.28811200D+05 0.28811200D+05 0.28811200D+05 0.11689687D+01  1  2  5  4  7  2       -2 -.762774302268D-03 0.100000000000D+01
0.540987889239D-07 0.000000000000D+00 0.000000000000D+00 0.799269568872D-07 0.128348634484D-09  7 2 21 23 -11 11 23 2 2 0.24697109D-01 0.40554925D-01 0.29330094D+05 0.29330094D+05 0.29330094D+05 0.11682470D+01  1  2 11  4  7  2       -2 0.129335654290D-03 0.100000000000D+01
  </mgrwgt>
  </event>
  <event>
  8     66 0.55102590E-06 0.15840813E+03 0.75467711E-02 0.98299321E-01
        2 -1    0    0  501    0 0.00000000E+00 0.00000000E+00 0.11721007E+04 0.11721007E+04 0.32000000E+00 0.0000E+00 0.9000E+01
       -2 -1    0    0    0  501 0.00000000E+00 0.00000000E+00 -.34867851E+03 0.34867866E+03 0.32000000E+00 0.0000E+00 0.9000E+01
       25  2    1    2    0    0 0.24426678E+03 -.20767629E+03 -.17125534E+03 0.47168036E+03 0.30059652E+03 0.0000E+00 0.0000E+00
       23  2    1    2    0    0 -.24426678E+03 0.20767629E+03 0.99467748E+03 0.10490990E+04 0.91813526E+02 0.0000E+00 0.0000E+00
       23  1    3    3    0    0 0.35469955E+02 -.12499548E+03 -.16537617E+03 0.22923027E+03 0.91188000E+02 0.0000E+00 0.9000E+01
      -13  1    4    4    0    0 -.23056226E+03 0.18829535E+03 0.97086369E+03 0.10154755E+04 0.10565837E+00 0.0000E+00 0.9000E+01
       13  1    4    4    0    0 -.13704525E+02 0.19380943E+02 0.23813796E+02 0.33623548E+02 0.10565837E+00 0.0000E+00 0.9000E+01
       23  1    3    3    0    0 0.20879682E+03 -.82680803E+02 -.58791729E+01 0.24245009E+03 0.91188000E+02 0.0000E+00 0.9000E+01
#aMCatNLO 1  0  0  1  2 0.10385543D+02 0.00000000D+00  -5  7  0 0.00000000D+00 0.00000000D+00 0.00000000D+00 0.00000000D+00 0.00000000D+00
  <mgrwgt>
 0.7488034949D-03    9    2    0
 0.639285898012288D+03 0.000000000000000D+00 0.000000000000000D+00 0.639285898012288D+03
 0.639285898012288D+03 0.000000000000000D+00 0.000000000000000D+00 -.639285898012288D+03
 0.379159826175064D+03 0.354699553177729D+02 -.124995484819013D+03 -.344332591378916D+03
 0.582590983418631D+03 -.230562542848192D+03 0.188295568979035D+03 0.500797310794422D+03
 0.246558279830774D+02 -.137042373517472D+02 0.193807192470743D+02 0.667019142185308D+01
 0.292165158447803D+03 0.208796824882166D+03 -.826808034070966D+02 -.163134910837359D+03
 0.000000000000000D+00 -.000000000000000D+00 0.000000000000000D+00 0.000000000000000D+00
 0.664857332833933D+03 0.000000000000000D+00 0.000000000000000D+00 0.664857332833933D+03
 0.640362349932543D+03 0.000000000000000D+00 0.000000000000000D+00 -.640362349932543D+03
 0.380089071558684D+03 0.376709534665910D+02 -.127155089373334D+03 -.344332591378916D+03
 0.580202226029650D+03 -.227191703971648D+03 0.184988124584512D+03 0.500797310794422D+03
 0.244669305033742D+02 -.135618346418898D+02 0.192409946676054D+02 0.667019142185308D+01
 0.293855746916959D+03 0.210495649775724D+03 -.843476789467653D+02 -.163134910837359D+03
 0.266057077578094D+02 -.741306462877723D+01 0.727364906798194D+01 0.244949829013898D+02
0.244501512906D-04 0.000000000000D+00 0.000000000000D+00 0.166955633680D-05 0.000000000000D+00  7 2 -2 23 -13 13 23 21 0 0.18032319D+00 0.53642863D-01 0.13051355D+06 0.13051355D+06 0.13051355D+06 0.11123529D+01  1  2  2  1  7  1        2 0.207406288259D-03 0.100000000000D+01
-.820368714150D-06 0.000000000000D+00 -.938950188285D-07 0.166955633680D-05 0.000000000000D+00  7 2 -2 23 -13 13 23 21 2 0.18032319D+00 0.53642863D-01 0.13051355D+06 0.13051355D+06 0.13051355D+06 0.11123529D+01  1  2  3  1  7  1        2 -.861062494676D-05 0.100000000000D+01
0.145181030967D-05 0.000000000000D+00 0.000000000000D+00 0.166955633680D-05 0.000000000000D+00  7 2 -2 23 -13 13 23 21 2 0.18032319D+00 0.53642863D-01 0.13051355D+06 0.13051355D+06 0.13051355D+06 0.11123529D+01  1  2 15  1  7  1        2 0.152382628137D-04 0.100000000000D+01
0.271403426659D-03 0.000000000000D+00 0.000000000000D+00 0.166955633680D-05 0.000000000000D+00  7 2 -2 23 -13 13 23 21 2 0.18768460D+00 0.53642863D-01 0.13405192D+06 0.13405192D+06 0.13405192D+06 0.11114251D+01  1  2 12  1  7  1        2 0.266759603553D-02 0.100000000000D+01
-.274794274547D-03 0.000000000000D+00 0.000000000000D+00 0.166955633680D-05 0.000000000000D+00  7 2 -2 23 -13 13 23 21 2 0.18032319D+00 0.53642863D-01 0.13051355D+06 0.13051355D+06 0.13051355D+06 0.11123529D+01  1  2  4  1  7  1        2 -.288425240362D-02 0.100000000000D+01
-.116034188780D-02 0.000000000000D+00 -.707933897648D-04 0.166955633680D-05 0.000000000000D+00  7 2 -2 23 -13 13 23 21 2 0.18766932D+00 0.53642863D-01 0.13051355D+06 0.13051355D+06 0.13051355D+06 0.11123529D+01  1  2  5  1  7  1        2 -.114370056883D-01 0.100000000000D+01
0.116229837611D-02 0.000000000000D+00 0.707369885671D-04 0.166955633680D-05 0.000000000000D+00  7 2 -2 23 -13 13 23 21 2 0.18032319D+00 0.53642863D-01 0.13051355D+06 0.13051355D+06 0.13051355D+06 0.11123529D+01  1  2  6  1  7  1        2 0.121995332346D-01 0.100000000000D+01
0.620986217525D-05 0.000000000000D+00 0.000000000000D+00 0.166955633680D-05 0.000000000000D+00  7 21 -2 23 -13 13 23 -2 2 0.18768460D+00 0.53642863D-01 0.13405192D+06 0.13405192D+06 0.13405192D+06 0.11114251D+01  1  2 12  3  7  1        2 0.318809218392D-04 0.100000000000D+01
-.833672798625D-05 0.000000000000D+00 -.499679302644D-06 0.166955633680D-05 0.000000000000D+00  7 21 -2 23 -13 13 23 -2 2 0.18766932D+00 0.53642863D-01 0.13051355D+06 0.13051355D+06 0.13051355D+06 0.11123529D+01  1  2  5  3  7  1        2 -.429825312332D-04 0.100000000000D+01
  </mgrwgt>
  </event>
  <event>
  8     66 0.55102590E-06 0.26523828E+03 0.75467711E-02 0.93921160E-01
        2 -1    0    0  501    0 0.00000000E+00 0.00000000E+00 0.13995822E+03 0.13995859E+03 0.32000000E+00 0.0000E+00 0.9000E+01
       -2 -1    0    0    0  501 0.00000000E+00 0.00000000E+00 -.60513955E+03 0.60513963E+03 0.32000000E+00 0.0000E+00 0.9000E+01
       25  2    1    2    0    0 -.62295647E+01 -.18800120E+03 -.38099816E+03 0.51940650E+03 0.29873107E+03 0.0000E+00 0.0000E+00
       23  2    1    2    0    0 0.62295647E+01 0.18800120E+03 -.84183167E+02 0.22569173E+03 0.92014624E+02 0.0000E+00 0.0000E+00
       23  1    3    3    0    0 -.80954834E+02 -.18413984E+03 -.31356142E+03 0.38353251E+03 0.91188000E+02 0.0000E+00 0.9000E+01
      -13  1    4    4    0    0 -.15262759E+02 0.62490462E+02 -.73846365E+02 0.97935216E+02 0.10565837E+00 0.0000E+00 0.9000E+01
       13  1    4    4    0    0 0.21492324E+02 0.12551074E+03 -.10336802E+02 0.12775651E+03 0.10565837E+00 0.0000E+00 0.9000E+01
       23  1    3    3    0    0 0.74725269E+02 -.38613575E+01 -.67436737E+02 0.13587399E+03 0.91188000E+02 0.0000E+00 0.9000E+01
#aMCatNLO 1  0  0  1  2 0.40442211D+03 0.00000000D+00  -5  7  0 0.00000000D+00 0.00000000D+00 0.00000000D+00 0.00000000D+00 0.00000000D+00
  <mgrwgt>
 0.2288712517D-03    3    2    0
 0.291023063716464D+03 0.000000000000000D+00 0.000000000000000D+00 0.291023063716464D+03
 0.291023063716464D+03 0.000000000000000D+00 0.000000000000000D+00 -.291023063716464D+03
 0.240370074974095D+03 -.809548341029947D+02 -.184139843891241D+03 -.948754674619207D+02
 0.663509888430000D+02 -.152628063893890D+02 0.624903786483835D+02 -.162620121124538D+02
 0.155284480244045D+03 0.214923711240610D+02 0.125510823322024D+03 0.888728362164536D+02
 0.120040583371789D+03 0.747252693683228D+02 -.386135807916681D+01 0.222646433579209D+02
 0.000000000000000D+00 -.000000000000000D+00 -.000000000000000D+00 -.000000000000000D+00
 0.504791386548981D+03 0.000000000000000D+00 0.000000000000000D+00 0.504791386548981D+03
 0.626224098965573D+03 0.000000000000000D+00 0.000000000000000D+00 -.626224098965573D+03
 0.159860818331843D+03 -.686804117403814D+02 -.593454009235783D+02 -.948754674619207D+02
 0.122968907610633D+03 -.945667695364396D+01 0.121521481483733D+03 -.162620121124538D+02
 0.277340905724412D+03 0.347602792265630D+02 0.260406067438859D+03 0.888728362164536D+02
 0.148585278319240D+03 0.829635821499307D+02 0.798978302721810D+02 0.222646433579209D+02
 0.422259575528425D+03 -.395867726824683D+02 -.402479978271195D+03 -.121432712416592D+03
0.706890482241D-05 0.000000000000D+00 0.000000000000D+00 0.566877598467D-07 0.000000000000D+00  7 2 -2 23 -13 13 23 21 0 0.21532069D-01 0.93098427D-01 0.70351346D+05 0.70351346D+05 0.70351346D+05 0.11344748D+01  1  2  2  1  7  1        2 0.226174878981D-03 0.100000000000D+01
-.388607207814D-06 0.000000000000D+00 -.271464558034D-07 0.566877598467D-07 0.000000000000D+00  7 2 -2 23 -13 13 23 21 2 0.21532069D-01 0.93098427D-01 0.70351346D+05 0.70351346D+05 0.70351346D+05 0.11344748D+01  1  2  3  1  7  1        2 -.160026832320D-04 0.100000000000D+01
0.454085593484D-06 0.000000000000D+00 0.000000000000D+00 0.566877598467D-07 0.000000000000D+00  7 2 -2 23 -13 13 23 21 2 0.21532069D-01 0.93098427D-01 0.70351346D+05 0.70351346D+05 0.70351346D+05 0.11344748D+01  1  2 15  1  7  1        2 0.186990559275D-04 0.100000000000D+01
  </mgrwgt>
  </event>
  <event>
  8     66 0.55102590E-06 0.20296889E+03 0.75467711E-02 0.97543862E-01
        2 -1    0    0  501    0 0.00000000E+00 0.00000000E+00 0.12600436E+04 0.12600436E+04 0.32000000E+00 0.0000E+00 0.9000E+01
       -2 -1    0    0    0  501 0.00000000E+00 0.00000000E+00 -.47195775E+02 0.47196860E+02 0.32000000E+00 0.0000E+00 0.9000E+01
       25  2    1    2    0    0 -.97720207E+01 0.90032801E+02 0.10714928E+04 0.11162666E+04 0.29958776E+03 0.0000E+00 0.0000E+00
       23  2    1    2    0    0 0.97720207E+01 -.90032801E+02 0.14135496E+03 0.19097387E+03 0.91040632E+02 0.0000E+00 0.0000E+00
       23  1    3    3    0    0 -.97742130E+02 0.27040711E+02 0.78473382E+03 0.79649679E+03 0.91188000E+02 0.0000E+00 0.9000E+01
      -11  1    4    4    0    0 0.41681776E+02 -.11424800E+02 0.41115987E+02 0.59652501E+02 0.51099893E-03 0.0000E+00 0.9000E+01
       11  1    4    4    0    0 -.31909755E+02 -.78608001E+02 0.10023897E+03 0.13132137E+03 0.51099893E-03 0.0000E+00 0.9000E+01
       23  1    3    3    0    0 0.87970109E+02 0.62992090E+02 0.28675901E+03 0.31976980E+03 0.91188000E+02 0.0000E+00 0.9000E+01
#aMCatNLO 1  0  0  2  1 0.28279766D+03 0.00000000D+00  -5  7  0 0.00000000D+00 0.00000000D+00 0.00000000D+00 0.00000000D+00 0.00000000D+00
  <mgrwgt>
 0.1818714051D-03    5    2    0
 0.243863624931259D+03 0.000000000000000D+00 0.000000000000000D+00 0.243863624931259D+03
 0.243863624931259D+03 0.000000000000000D+00 0.000000000000000D+00 -.243863624931259D+03
 0.183402015110050D+03 -.977421298657460D+02 0.270407114266914D+02 0.122622688672501D+03
 0.576402673998423D+02 0.416817757059927D+02 -.114248001964235D+02 -.381379593108027D+02
 0.102709026332959D+03 -.319097549854697D+02 -.786080012068272D+02 -.578938146376559D+02
 0.143975941019667D+03 0.879701091452231D+02 0.629920899765593D+02 -.265909147240422D+02
 0.000000000000000D+00 0.000000000000000D+00 0.000000000000000D+00 -.000000000000000D+00
 0.367919251165871D+03 0.000000000000000D+00 0.000000000000000D+00 0.367919251165871D+03
 0.514302390365105D+03 0.000000000000000D+00 0.000000000000000D+00 -.514302390365105D+03
 0.264846489562565D+03 -.216257758018681D+03 0.496689128874910D+01 0.122622688672501D+03
 0.440820678784573D+02 0.147866799342930D+02 -.164340763223630D+02 -.381379593108027D+02
 0.145260627369324D+03 -.974722252782730D+02 -.908191686249758D+02 -.578938146376559D+02
 0.109594803687128D+03 0.209267263411190D+02 0.505050990495289D+02 -.265909147240422D+02
 0.318437653033503D+03 0.278016577021542D+03 0.517812546090608D+02 -.146383139199234D+03
0.719050420659D-06 0.000000000000D+00 0.000000000000D+00 0.101837063463D-06 0.000000000000D+00  7 2 -2 23 -11 11 23 21 0 0.19385294D+00 0.72609750D-02 0.41196371D+05 0.41196371D+05 0.41196371D+05 0.11547681D+01  1  2  2  2  7  2       -2 0.158836168976D-03 0.100000000000D+01
-.383107773908D-07 0.000000000000D+00 -.276134294565D-08 0.101837063463D-06 0.000000000000D+00  7 2 -2 23 -11 11 23 21 2 0.19385294D+00 0.72609750D-02 0.41196371D+05 0.41196371D+05 0.41196371D+05 0.11547681D+01  1  2  3  2  7  2       -2 -.112849738987D-04 0.100000000000D+01
0.459565006060D-07 0.000000000000D+00 0.000000000000D+00 0.101837063463D-06 0.000000000000D+00  7 2 -2 23 -11 11 23 21 2 0.19385294D+00 0.72609750D-02 0.41196371D+05 0.41196371D+05 0.41196371D+05 0.11547681D+01  1  2 15  2  7  2       -2 0.135371283262D-04 0.100000000000D+01
0.119780485142D-06 0.000000000000D+00 -.243110663276D-06 0.101837063463D-06 0.000000000000D+00  7 2 -2 23 -11 11 23 21 2 0.19385294D+00 0.23776935D-01 0.41196371D+05 0.41196371D+05 0.41196371D+05 0.11547681D+01  1  2  5  2  7  2       -2 0.548714103810D-05 0.100000000000D+01
0.262869633805D-07 0.000000000000D+00 -.333502235996D-07 0.101837063463D-06 0.000000000000D+00  7 2 21 23 -11 11 23 2 2 0.19385294D+00 0.23776935D-01 0.41196371D+05 0.41196371D+05 0.41196371D+05 0.11547681D+01  1  2  5  4  7  2       -2 0.152959406524D-04 0.100000000000D+01
  </mgrwgt>
  </event>
  <event>
  8     66 0.55102590E-06 0.27136475E+03 0.75467711E-02 0.10065564E+00
        2 -1    0    0  501    0 0.00000000E+00 0.00000000E+00 0.26272964E+04 0.26272965E+04 0.32000000E+00 0.0000E+00 0.9000E+01
       -2 -1    0    0    0  501 0.00000000E+00 0.00000000E+00 -.52369481E+02 0.52370459E+02 0.32000000E+00 0.0000E+00 0.9000E+01
       25  2    1    2    0    0 0.18015685E+03 -.77423466E+02 0.64704559E+03 0.73961303E+03 0.29984756E+03 0.0000E+00 0.0000E+00
       23  2    1    2    0    0 -.18015685E+03 0.77423466E+02 0.19278814E+04 0.19400539E+04 0.92906535E+02 0.0000E+00 0.0000E+00
       23  1    3    3    0    0 0.21760941E+03 -.47731081E+02 0.34641424E+03 0.42184143E+03 0.91188000E+02 0.0000E+00 0.9000E+01
      -13  1    4    4    0    0 -.16116890E+02 -.29437009E+01 0.53434164E+03 0.53459276E+03 0.10565837E+00 0.0000E+00 0.9000E+01
       13  1    4    4    0    0 -.16403996E+03 0.80367167E+02 0.13935397E+04 0.14054611E+04 0.10565837E+00 0.0000E+00 0.9000E+01
       23  1    3    3    0    0 -.37452567E+02 -.29692384E+02 0.30063135E+03 0.31777160E+03 0.91188000E+02 0.0000E+00 0.9000E+01
#aMCatNLO 1  0  0  1  1 0.59347423D+02 0.00000000D+00  -5  7  0 0.00000000D+00 0.00000000D+00 0.00000000D+00 0.00000000D+00 0.00000000D+00
  <mgrwgt>
 0.2728615667D-03    4    2    0
 0.370933264136270D+03 0.000000000000000D+00 0.000000000000000D+00 0.370933264136270D+03
 0.370933264136270D+03 0.000000000000000D+00 0.000000000000000D+00 -.370933264136270D+03
 0.321355855503620D+03 0.217609414470343D+03 -.477310814882750D+02 -.212890162093736D+03
 0.763475373940688D+02 -.161166996739826D+02 -.294380822205096D+01 0.745689778051783D+02
 0.239807049404966D+03 -.164040148284765D+03 0.803672741114338D+02 0.155368439352803D+03
 0.104356085969885D+03 -.374525665115955D+02 -.296923844011078D+02 -.170472550642449D+02
 0.000000000000000D+00 0.000000000000000D+00 -.000000000000000D+00 -.000000000000000D+00
 0.384975527980315D+03 0.000000000000000D+00 0.000000000000000D+00 0.384975527980315D+03
 0.440603332681765D+03 0.000000000000000D+00 0.000000000000000D+00 -.440603332681765D+03
 0.304601971321757D+03 0.193614584526892D+03 -.407219981248737D+02 -.212890162093736D+03
 0.777629891245863D+02 -.220242156724086D+02 -.121817515021102D+01 0.745689778051783D+02
 0.254972223454574D+03 -.183006513114837D+03 0.859075022567447D+02 0.155368439352803D+03
 0.106899379582465D+03 -.455506184143276D+02 -.273268781232485D+02 -.170472550642449D+02
 0.813422971786969D+02 0.569667626746821D+02 -.166404508584115D+02 -.556278047014502D+02
0.108570185733D-04 0.000000000000D+00 0.000000000000D+00 0.329750750059D-06 0.000000000000D+00  7 2 -2 23 -13 13 23 21 0 0.40419953D+00 0.80569199D-02 0.73638828D+05 0.73638828D+05 0.73638828D+05 0.11327934D+01  1  2  2  1  7  1        2 0.370378526001D-03 0.100000000000D+01
-.531523396412D-06 0.000000000000D+00 -.416938100402D-07 0.329750750059D-06 0.000000000000D+00  7 2 -2 23 -13 13 23 21 2 0.40419953D+00 0.80569199D-02 0.73638828D+05 0.73638828D+05 0.73638828D+05 0.11327934D+01  1  2  3  1  7  1        2 -.232679978111D-04 0.100000000000D+01
0.672439481082D-06 0.000000000000D+00 0.000000000000D+00 0.329750750059D-06 0.000000000000D+00  7 2 -2 23 -13 13 23 21 2 0.40419953D+00 0.80569199D-02 0.73638828D+05 0.73638828D+05 0.73638828D+05 0.11327934D+01  1  2 15  1  7  1        2 0.294367481837D-04 0.100000000000D+01
-.236854846679D-05 0.000000000000D+00 0.000000000000D+00 0.329750750059D-06 0.000000000000D+00  7 2 -2 23 -13 13 23 21 2 0.40419953D+00 0.80569199D-02 0.73638828D+05 0.73638828D+05 0.73638828D+05 0.11327934D+01  1  2  4  1  7  1        2 -.103685709628D-03 0.100000000000D+01
  </mgrwgt>
  </event>
  <event>
  8     66 0.55102590E-06 0.91411773E+03 0.75467711E-02 0.85030539E-01
        2 -1    0    0  501    0 0.00000000E+00 0.00000000E+00 0.78169137E+03 0.78169144E+03 0.32000000E+00 0.0000E+00 0.9000E+01
       -2 -1    0    0    0  501 0.00000000E+00 0.00000000E+00 -.13944936E+04 0.13944936E+04 0.32000000E+00 0.0000E+00 0.9000E+01
       25  2    1    2    0    0 0.76899742E+03 -.44287054E+03 -.83704797E+03 0.12561969E+04 0.29981652E+03 0.0000E+00 0.0000E+00
       23  2    1    2    0    0 -.76899742E+03 0.44287054E+03 0.22424573E+03 0.91998821E+03 0.92740607E+02 0.0000E+00 0.0000E+00
       23  1    3    3    0    0 0.21416656E+03 -.21426769E+02 -.22148737E+03 0.32202225E+03 0.91188000E+02 0.0000E+00 0.9000E+01
      -11  1    4    4    0    0 -.56385840E+03 0.27828619E+03 0.14480359E+03 0.64525002E+03 0.51099893E-03 0.0000E+00 0.9000E+01
       11  1    4    4    0    0 -.20513901E+03 0.16458435E+03 0.79442139E+02 0.27473820E+03 0.51099893E-03 0.0000E+00 0.9000E+01
       23  1    3    3    0    0 0.55483085E+03 -.42144377E+03 -.61556059E+03 0.93417462E+03 0.91188000E+02 0.0000E+00 0.9000E+01
#aMCatNLO 1  0  0  2  1 0.64194733D+03 0.00000000D+00  -5  7  0 0.00000000D+00 0.00000000D+00 0.00000000D+00 0.00000000D+00 0.00000000D+00
  <mgrwgt>
 0.1241484199D-03    4    2    0
 0.104406117501623D+04 0.000000000000000D+00 0.000000000000000D+00 0.104406117501623D+04
 0.104406117501623D+04 0.000000000000000D+00 0.000000000000000D+00 -.104406117501623D+04
 0.270602950584164D+03 0.214166564841674D+03 -.214267690949913D+02 -.136324178306426D+03
 0.714957830926728D+03 -.563858402771185D+03 0.278286189613277D+03 0.340272241445439D+03
 0.309638697874212D+03 -.205139013615986D+03 0.164584349017489D+03 0.163420012153920D+03
 0.792922870647365D+03 0.554830851545497D+03 -.421443769535775D+03 -.367368075292933D+03
 0.000000000000000D+00 0.000000000000000D+00 -.000000000000000D+00 0.000000000000000D+00
 0.143251036833861D+04 0.000000000000000D+00 0.000000000000000D+00 0.143251036833861D+04
 0.139509745333256D+04 0.000000000000000D+00 0.000000000000000D+00 -.139509745333256D+04
 0.251564946341345D+03 0.183826951356685D+03 0.509219132369198D+02 -.136324178306426D+03
 0.893914923897632D+03 -.657339020433254D+03 0.501202658696515D+03 0.340272241445439D+03
 0.394990761533950D+03 -.246080223472918D+03 0.262213891585288D+03 0.163420012153920D+03
 0.644100566712844D+03 0.471335225109851D+03 -.222337786986418D+03 -.367368075292933D+03
 0.643036623185402D+03 0.248257067439636D+03 -.592000676532304D+03 0.374129150060532D+02
0.410557443107D-03 0.000000000000D+00 0.000000000000D+00 0.135364178328D-05 0.000000000000D+00  7 2 -2 23 -11 11 23 21 0 0.12026022D+00 0.21453749D+00 0.83561123D+06 0.83561123D+06 0.83561123D+06 0.10530957D+01  1  2  2  2  7  2       -2 0.172116789994D-03 0.100000000000D+01
-.223188277836D-04 0.000000000000D+00 -.157664868379D-05 0.135364178328D-05 0.000000000000D+00  7 2 -2 23 -11 11 23 21 2 0.12026022D+00 0.21453749D+00 0.83561123D+06 0.83561123D+06 0.83561123D+06 0.10530957D+01  1  2  3  2  7  2       -2 -.103766302513D-04 0.100000000000D+01
0.259648443403D-04 0.000000000000D+00 0.000000000000D+00 0.135364178328D-05 0.000000000000D+00  7 2 -2 23 -11 11 23 21 2 0.12026022D+00 0.21453749D+00 0.83561123D+06 0.83561123D+06 0.83561123D+06 0.10530957D+01  1  2 15  2  7  2       -2 0.120717625435D-04 0.100000000000D+01
-.106819953113D-03 0.000000000000D+00 0.000000000000D+00 0.135364178328D-05 0.000000000000D+00  7 2 -2 23 -11 11 23 21 2 0.12026022D+00 0.21453749D+00 0.83561123D+06 0.83561123D+06 0.83561123D+06 0.10530957D+01  1  2  4  2  7  2       -2 -.496635023874D-04 0.100000000000D+01
  </mgrwgt>
  </event>
  <event>
  8     66 0.55102590E-06 0.50830090E+03 0.75467711E-02 0.93768063E-01
        2 -1    0    0  501    0 0.00000000E+00 0.00000000E+00 0.20066678E+04 0.20066678E+04 0.32000000E+00 0.0000E+00 0.9000E+01
       -2 -1    0    0    0  501 0.00000000E+00 0.00000000E+00 -.14274601E+03 0.14274637E+03 0.32000000E+00 0.0000E+00 0.9000E+01
       25  2    1    2    0    0 0.41695498E+03 0.24873413E+03 0.87881953E+03 0.10479693E+04 0.30032594E+03 0.0000E+00 0.0000E+00
       23  2    1    2    0    0 -.41695498E+03 -.24873413E+03 0.98510226E+03 0.11014449E+04 0.83871246E+02 0.0000E+00 0.0000E+00
       23  1    3    3    0    0 0.10444597E+03 0.94375359E+02 0.11475903E+03 0.20322538E+03 0.91188000E+02 0.0000E+00 0.9000E+01
      -13  1    4    4    0    0 -.33825296E+03 -.22552873E+03 0.76085790E+03 0.86266043E+03 0.10565837E+00 0.0000E+00 0.9000E+01
       13  1    4    4    0    0 -.78702028E+02 -.23205398E+02 0.22424436E+03 0.23878451E+03 0.10565837E+00 0.0000E+00 0.9000E+01
       23  1    3    3    0    0 0.31250901E+03 0.15435877E+03 0.76406050E+03 0.84474388E+03 0.91188000E+02 0.0000E+00 0.9000E+01
#aMCatNLO 1  0  0  1  1 0.62670428D+02 0.00000000D+00  -5  7  0 0.00000000D+00 0.00000000D+00 0.00000000D+00 0.00000000D+00 0.00000000D+00
  <mgrwgt>
 0.3130724173D-03    4    2    0
 0.535204862114906D+03 0.000000000000000D+00 0.000000000000000D+00 0.535204862114906D+03
 0.535204862114906D+03 0.000000000000000D+00 0.000000000000000D+00 -.535204862114906D+03
 0.208250783567957D+03 0.104445969901432D+03 0.943753593788746D+02 -.123440141064913D+03
 0.407353841720608D+03 -.338253367073821D+03 -.225529053733395D+03 0.256604354966999D+02
 0.890054831114418D+02 -.787016157196779D+02 -.232050770225423D+02 0.344899421192785D+02
 0.365799615829805D+03 0.312509012892068D+03 0.154358771377063D+03 0.632897634489345D+02
 0.000000000000000D+00 0.000000000000000D+00 0.000000000000000D+00 -.000000000000000D+00
 0.540063022111534D+03 0.000000000000000D+00 0.000000000000000D+00 0.540063022111534D+03
 0.785230008641361D+03 0.000000000000000D+00 0.000000000000000D+00 -.785230008641361D+03
 0.200936949730768D+03 0.991165699357296D+02 0.836590913239880D+02 -.123440141064913D+03
 0.428692952613025D+03 -.349142324377422D+03 -.247424386426487D+03 0.256604354966999D+02
 0.924262129622961D+02 -.810646437289432D+02 -.279566141057898D+02 0.344899421192785D+02
 0.350186655860242D+03 0.303183764598267D+03 0.135607718530989D+03 0.632897634489345D+02
 0.253050259586564D+03 0.279066335723690D+02 0.561141906772999D+02 -.245166986529827D+03
0.219691482132D-04 0.000000000000D+00 0.000000000000D+00 0.312286330616D-07 0.000000000000D+00  7 2 -2 23 -13 13 23 21 0 0.30871815D+00 0.21960955D-01 0.25836980D+06 0.25836980D+06 0.25836980D+06 0.10893848D+01  1  2  2  1  7  1        2 0.323158992207D-03 0.100000000000D+01
-.121656077526D-05 0.000000000000D+00 -.843673137481D-07 0.312286330616D-07 0.000000000000D+00  7 2 -2 23 -13 13 23 21 2 0.30871815D+00 0.21960955D-01 0.25836980D+06 0.25836980D+06 0.25836980D+06 0.10893848D+01  1  2  3  1  7  1        2 -.212373084993D-04 0.100000000000D+01
0.136864307551D-05 0.000000000000D+00 0.000000000000D+00 0.312286330616D-07 0.000000000000D+00  7 2 -2 23 -13 13 23 21 2 0.30871815D+00 0.21960955D-01 0.25836980D+06 0.25836980D+06 0.25836980D+06 0.10893848D+01  1  2 15  1  7  1        2 0.238921850935D-04 0.100000000000D+01
-.729882983821D-06 0.000000000000D+00 0.000000000000D+00 0.312286330616D-07 0.000000000000D+00  7 2 -2 23 -13 13 23 21 2 0.30871815D+00 0.21960955D-01 0.25836980D+06 0.25836980D+06 0.25836980D+06 0.10893848D+01  1  2  4  1  7  1        2 -.127414514843D-04 0.100000000000D+01
  </mgrwgt>
  </event>
  <event>
  7     66 0.55102590E-06 0.31736049E+03 0.75467711E-02 0.94143537E-01
        2 -1    0    0  501    0 0.00000000E+00 0.00000000E+00 0.20791491E+04 0.20791491E+04 0.32000000E+00 0.0000E+00 0.9000E+01
       -2 -1    0    0    0  501 0.00000000E+00 0.00000000E+00 -.57376263E+02 0.57377155E+02 0.32000000E+00 0.0000E+00 0.9000E+01
       23  2    1    2    0    0 -.20300448E+03 -.12237021E+03 0.11586379E+04 0.11862767E+04 0.92872119E+02 0.0000E+00 0.0000E+00
       23  1    1    2    0    0 -.47855601E+02 -.16401915E+01 0.23499790E+03 0.25657769E+03 0.91188000E+02 0.0000E+00 0.9000E+01
      -13  1    3    3    0    0 -.44857389E+02 -.20760297E+02 0.10563838E+03 0.11663042E+03 0.10565837E+00 0.0000E+00 0.9000E+01
       13  1    3    3    0    0 -.15814709E+03 -.10160991E+03 0.10529995E+04 0.10696463E+04 0.10565837E+00 0.0000E+00 0.9000E+01
       23  1    1    2    0    0 0.25086008E+03 0.12401040E+03 0.62813704E+03 0.69367193E+03 0.91188000E+02 0.0000E+00 0.9000E+01
#aMCatNLO 1  0  0  2  1 0.32670812D+03 0.00000000D+00  -5  7  0 0.00000000D+00 0.00000000D+00 0.00000000D+00 0.00000000D+00 0.00000000D+00
  <mgrwgt>
 0.3250272236D-03    3    2    0
 0.345390772441305D+03 0.000000000000000D+00 0.000000000000000D+00 0.345390772441305D+03
 0.345390772441305D+03 0.000000000000000D+00 0.000000000000000D+00 -.345390772441305D+03
 0.105782525006595D+03 -.478556011785070D+02 -.164019130478827D+01 -.241214108438616D+02
 0.515459388628210D+02 -.448572422247045D+02 -.207601927481507D+02 -.146227914675517D+02
 0.226412578241556D+03 -.158147239481336D+03 -.101610014367215D+03 0.126204244028147D+03
 0.307040502771638D+03 0.250860082884547D+03 0.124010398420154D+03 -.874600417167341D+02
 0.000000000000000D+00 0.000000000000000D+00 0.000000000000000D+00 0.000000000000000D+00
 0.884615410719012D+03 0.000000000000000D+00 0.000000000000000D+00 0.884615410719012D+03
 0.435171460395353D+03 0.000000000000000D+00 0.000000000000000D+00 -.435171460395353D+03
 0.139291342006235D+03 -.101610410961999D+03 -.134279014344499D+02 -.241214108438616D+02
 0.798464362738179D+02 -.736770108053401D+02 -.270799821660790D+02 -.146227914675517D+02
 0.333812425881614D+03 -.281027695482874D+03 -.128556053275748D+03 0.126204244028147D+03
 0.211194639062391D+03 0.137189736013370D+03 0.990840131412866D+02 -.874600417167341D+02
 0.555642027890306D+03 0.319125381236843D+03 0.699799237349902D+02 0.449443950323659D+03
0.541028491648D-05 0.000000000000D+00 0.000000000000D+00 0.295977069596D-09 0.000000000000D+00  7 2 -2 23 -13 13 23 21 0 0.31986917D+00 0.88271879D-02 0.10071768D+06 0.10071768D+06 0.10071768D+06 0.11214673D+01  1  2  2  2  7  2       -2 0.321792034151D-03 0.100000000000D+01
-.297953434902D-06 0.000000000000D+00 -.207769186400D-07 0.295977069596D-09 0.000000000000D+00  7 2 -2 23 -13 13 23 21 2 0.31986917D+00 0.88271879D-02 0.10071768D+06 0.10071768D+06 0.10071768D+06 0.11214673D+01  1  2  3  2  7  2       -2 -.222882904236D-04 0.100000000000D+01
0.341201965773D-06 0.000000000000D+00 0.000000000000D+00 0.295977069596D-09 0.000000000000D+00  7 2 -2 23 -13 13 23 21 2 0.31986917D+00 0.88271879D-02 0.10071768D+06 0.10071768D+06 0.10071768D+06 0.11214673D+01  1  2 15  2  7  2       -2 0.255234798980D-04 0.100000000000D+01
  </mgrwgt>
  </event>
  <event>
  8     66 0.55102590E-06 0.24430353E+03 0.75467711E-02 0.96889180E-01
        2 -1    0    0  501    0 0.00000000E+00 0.00000000E+00 0.10863264E+04 0.10863264E+04 0.32000000E+00 0.0000E+00 0.9000E+01
       -2 -1    0    0    0  501 0.00000000E+00 0.00000000E+00 -.72020234E+02 0.72020945E+02 0.32000000E+00 0.0000E+00 0.9000E+01
       25  2    1    2    0    0 0.14224616E+03 0.88962337E+02 0.79904314E+03 0.86998203E+03 0.30041725E+03 0.0000E+00 0.0000E+00
       23  2    1    2    0    0 -.14224616E+03 -.88962337E+02 0.21526301E+03 0.28836535E+03 0.93102856E+02 0.0000E+00 0.0000E+00
       23  1    3    3    0    0 0.79999980E+02 -.54615049E+02 0.17282528E+03 0.21809775E+03 0.91188000E+02 0.0000E+00 0.9000E+01
      -13  1    4    4    0    0 -.34831996E+02 -.48410738E+02 0.13698870E+03 0.14940811E+03 0.10565837E+00 0.0000E+00 0.9000E+01
       13  1    4    4    0    0 -.10741417E+03 -.40551598E+02 0.78274307E+02 0.13895724E+03 0.10565837E+00 0.0000E+00 0.9000E+01
       23  1    3    3    0    0 0.62246183E+02 0.14357739E+03 0.62621786E+03 0.65188427E+03 0.91188000E+02 0.0000E+00 0.9000E+01
#aMCatNLO 1  0  0  2  1 0.26890245D+03 0.00000000D+00  -5  7  0 0.00000000D+00 0.00000000D+00 0.00000000D+00 0.00000000D+00 0.00000000D+00
  <mgrwgt>
 0.1814842768D-03    3    2    0
 0.279710420695019D+03 0.000000000000000D+00 0.000000000000000D+00 0.279710420695019D+03
 0.279710420695019D+03 0.000000000000000D+00 0.000000000000000D+00 -.279710420695019D+03
 0.138241566614723D+03 0.799999819480171D+02 -.546150478609582D+02 -.375856200102515D+02
 0.609879768048499D+02 -.348319056330910D+02 -.484107437359131D+02 0.127542759752213D+02
 0.145805615958429D+03 -.107414262429688D+03 -.405515966819672D+02 -.898722531054276D+02
 0.214385682012037D+03 0.622461861147617D+02 0.143577388278838D+03 0.114703597140458D+03
 0.000000000000000D+00 -.000000000000000D+00 -.000000000000000D+00 0.000000000000000D+00
 0.459043088263598D+03 0.000000000000000D+00 0.000000000000000D+00 0.459043088263598D+03
 0.431917388919991D+03 0.000000000000000D+00 0.000000000000000D+00 -.431917388919991D+03
 0.141675976559270D+03 0.101562100871953D+03 0.541219224926500D+01 -.375856200102515D+02
 0.401077316801002D+02 -.270444777200891D+02 -.267311580317504D+02 0.127542759752213D+02
 0.125976184533862D+03 -.864788418157191D+02 0.177309647136178D+02 -.898722531054276D+02
 0.312933434508872D+03 0.102865710608878D+03 0.256658943879789D+03 0.114703597140458D+03
 0.270267149901484D+03 -.909044919450229D+02 -.253070942810922D+03 0.271256993436072D+02
0.122910853766D-05 0.000000000000D+00 0.000000000000D+00 0.670265121942D-07 0.000000000000D+00  7 2 -2 23 -13 13 23 21 0 0.16712719D+00 0.11080094D-01 0.59684212D+05 0.59684212D+05 0.59684212D+05 0.11405930D+01  1  2  2  2  7  2       -2 0.179230468070D-03 0.100000000000D+01
-.667630020471D-07 0.000000000000D+00 -.472010041634D-08 0.670265121942D-07 0.000000000000D+00  7 2 -2 23 -13 13 23 21 2 0.16712719D+00 0.11080094D-01 0.59684212D+05 0.59684212D+05 0.59684212D+05 0.11405930D+01  1  2  3  2  7  2       -2 -.126653990957D-04 0.100000000000D+01
0.786434833657D-07 0.000000000000D+00 0.000000000000D+00 0.670265121942D-07 0.000000000000D+00  7 2 -2 23 -13 13 23 21 2 0.16712719D+00 0.11080094D-01 0.59684212D+05 0.59684212D+05 0.59684212D+05 0.11405930D+01  1  2 15  2  7  2       -2 0.149192078331D-04 0.100000000000D+01
  </mgrwgt>
  </event>
  <event>
  8     66 0.55102590E-06 0.22063655E+03 0.75467711E-02 0.91169066E-01
        2 -1    0    0  501    0 0.00000000E+00 0.00000000E+00 0.13892427E+04 0.13892427E+04 0.32000000E+00 0.0000E+00 0.9000E+01
       -2 -1    0    0    0  501 0.00000000E+00 0.00000000E+00 -.81164569E+02 0.81165200E+02 0.32000000E+00 0.0000E+00 0.9000E+01
       25  2    1    2    0    0 0.29682937E+01 -.10502525E+03 0.12907374E+04 0.13293830E+04 0.30036133E+03 0.0000E+00 0.0000E+00
       23  2    1    2    0    0 -.29682937E+01 0.10502525E+03 0.17340720E+02 0.14102496E+03 0.92456601E+02 0.0000E+00 0.0000E+00
       23  1    3    3    0    0 0.90122003E+02 -.13052734E+03 0.62090514E+03 0.64730039E+03 0.91188000E+02 0.0000E+00 0.9000E+01
      -13  1    4    4    0    0 -.35678798E+02 0.82558928E+02 -.13263829E+02 0.90911460E+02 0.10565837E+00 0.0000E+00 0.9000E+01
       13  1    4    4    0    0 0.32710505E+02 0.22466326E+02 0.30604550E+02 0.50113497E+02 0.10565837E+00 0.0000E+00 0.9000E+01
       23  1    3    3    0    0 -.87153710E+02 0.25502086E+02 0.66983226E+03 0.68208258E+03 0.91188000E+02 0.0000E+00 0.9000E+01
#aMCatNLO 1  0  0  2  2 0.64506842D+03 0.00000000D+00  -5  7  0 0.00000000D+00 0.00000000D+00 0.00000000D+00 0.00000000D+00 0.00000000D+00
  <mgrwgt>
 0.3177548530D-03    5    2    0
 0.335794244939935D+03 0.000000000000000D+00 0.000000000000000D+00 0.335794244939935D+03
 0.335794244939935D+03 0.000000000000000D+00 0.000000000000000D+00 -.335794244939935D+03
 0.207870161112599D+03 0.901220029997370D+02 -.130527339043705D+03 0.986680843761706D+02
 0.224880580599128D+03 -.356788871162934D+02 0.825590062744423D+02 -.206112355349504D+03
 0.501110247241550D+02 0.327105934139791D+02 0.224662474809058D+02 -.306006470770948D+02
 0.188726723443989D+03 -.871537092974227D+02 0.255020852883570D+02 0.138044918050428D+03
 0.000000000000000D+00 -.000000000000000D+00 0.000000000000000D+00 -.000000000000000D+00
 0.766117257395650D+03 0.000000000000000D+00 0.000000000000000D+00 0.766117257395650D+03
 0.811770521715562D+03 0.000000000000000D+00 0.000000000000000D+00 -.811770521715562D+03
 0.435687390437634D+03 0.286141320975201D+03 -.299826623898645D+03 0.986680843761706D+02
 0.234044430447027D+03 0.104103743746251D+03 -.381693978675061D+02 -.206112355349504D+03
 0.791555108161427D+02 0.720835105254682D+02 -.115396187697987D+02 -.306006470770948D+02
 0.182318537806552D+03 0.258618848373337D+02 -.721079842807319D+02 0.138044918050428D+03
 0.646681909603856D+03 -.488190460084254D+03 0.421643624816681D+03 -.456532643199115D+02
0.318056449513D-05 0.000000000000D+00 0.000000000000D+00 0.353670569493D-06 0.000000000000D+00  7 2 -2 23 -13 13 23 21 0 0.21372970D+00 0.12486908D-01 0.48680486D+05 0.48680486D+05 0.48680486D+05 0.11483184D+01  1  2  2  2  7  2       -2 0.261496284329D-03 0.100000000000D+01
-.138803698662D-06 0.000000000000D+00 -.122142051232D-07 0.353670569493D-06 0.000000000000D+00  7 2 -2 23 -13 13 23 21 2 0.21372970D+00 0.12486908D-01 0.48680486D+05 0.48680486D+05 0.48680486D+05 0.11483184D+01  1  2  3  2  7  2       -2 -.150482860931D-04 0.100000000000D+01
0.193126786007D-06 0.000000000000D+00 0.000000000000D+00 0.353670569493D-06 0.000000000000D+00  7 2 -2 23 -13 13 23 21 2 0.21372970D+00 0.12486908D-01 0.48680486D+05 0.48680486D+05 0.48680486D+05 0.11483184D+01  1  2 15  2  7  2       -2 0.209376778579D-04 0.100000000000D+01
0.437268276999D-05 0.000000000000D+00 -.161616767153D-05 0.353670569493D-06 0.000000000000D+00  7 2 -2 23 -13 13 23 21 2 0.21372970D+00 0.80137796D-01 0.48680486D+05 0.48680486D+05 0.48680486D+05 0.11483184D+01  1  2  5  2  7  2       -2 0.166528740830D-04 0.100000000000D+01
0.871213346573D-06 0.000000000000D+00 -.368092752027D-06 0.353670569493D-06 0.000000000000D+00  7 2 21 23 -13 13 23 2 2 0.21372970D+00 0.80137796D-01 0.48680486D+05 0.48680486D+05 0.48680486D+05 0.11483184D+01  1  2  5  4  7  2       -2 0.337163028570D-04 0.100000000000D+01
  </mgrwgt>
  </event>
  <event>
  8     66 0.55102590E-06 0.25414927E+03 0.75467711E-02 0.94381093E-01
        2 -1    0    0  501    0 0.00000000E+00 0.00000000E+00 0.64182489E+03 0.64182497E+03 0.32000000E+00 0.0000E+00 0.9000E+01
       -2 -1    0    0    0  501 0.00000000E+00 0.00000000E+00 -.46774569E+03 0.46774580E+03 0.32000000E+00 0.0000E+00 0.9000E+01
       25  2    1    2    0    0 -.46055543E+02 -.14818422E+03 0.57741922E+03 0.66773480E+03 0.29728291E+03 0.0000E+00 0.0000E+00
       23  2    1    2    0    0 0.46055543E+02 0.14818422E+03 -.40334002E+03 0.44183597E+03 0.91957468E+02 0.0000E+00 0.0000E+00
       23  1    3    3    0    0 0.14964606E+02 -.19410693E+03 0.34161916E+03 0.40363392E+03 0.91188000E+02 0.0000E+00 0.9000E+01
      -13  1    4    4    0    0 0.60829735E+02 0.61724947E+02 -.14401687E+03 0.16808062E+03 0.10565837E+00 0.0000E+00 0.9000E+01
       13  1    4    4    0    0 -.14774191E+02 0.86459272E+02 -.25932315E+03 0.27375534E+03 0.10565837E+00 0.0000E+00 0.9000E+01
       23  1    3    3    0    0 -.61020149E+02 0.45922711E+02 0.23580007E+03 0.26410088E+03 0.91188000E+02 0.0000E+00 0.9000E+01
#aMCatNLO 1  0  0  2  2 0.40998892D+03 0.00000000D+00  -5  7  0 0.00000000D+00 0.00000000D+00 0.00000000D+00 0.00000000D+00 0.00000000D+00
  <mgrwgt>
 0.3464604094D-03    6    2    0
 0.547915075809884D+03 0.000000000000000D+00 0.000000000000000D+00 0.547915075809884D+03
 0.547915075809884D+03 0.000000000000000D+00 0.000000000000000D+00 -.547915075809884D+03
 0.354426827812790D+03 0.149646056942415D+02 -.194106929107004D+03 0.281783047003366D+03
 0.193065966214050D+03 0.608298342609174D+02 0.617249139128523D+02 -.172523139249218D+03
 0.318383169786632D+03 -.147742911577729D+02 0.864593046288663D+02 -.306062659870918D+03
 0.229954187806295D+03 -.610201487973860D+02 0.459227105652857D+02 0.196802752116770D+03
 0.000000000000000D+00 -.000000000000000D+00 0.000000000000000D+00 -.000000000000000D+00
 0.787456922465898D+03 0.000000000000000D+00 0.000000000000000D+00 0.787456922465898D+03
 0.792578790350863D+03 0.000000000000000D+00 0.000000000000000D+00 -.792578790350863D+03
 0.425860969903607D+03 0.128850218482498D+03 -.277557651600081D+03 0.281783047003366D+03
 0.210843979351305D+03 0.119781841195544D+03 0.185272926272004D+02 -.172523139249218D+03
 0.316358742918043D+03 0.778684131140622D+02 0.185745172890354D+02 -.306062659870918D+03
 0.216951109218286D+03 0.420717342771535D+01 -.187320529016067D+01 0.196802752116770D+03
 0.410020911425520D+03 -.330707646219820D+03 0.242329046974006D+03 -.512186788496552D+01
0.263167493391D-04 0.000000000000D+00 0.000000000000D+00 0.563095403740D-07 0.000000000000D+00  7 2 -2 23 -13 13 23 21 0 0.98742306D-01 0.71960889D-01 0.64591850D+05 0.64591850D+05 0.64591850D+05 0.11376402D+01  1  2  2  2  7  2       -2 0.275118323113D-03 0.100000000000D+01
-.413010927255D-06 0.000000000000D+00 -.101063246821D-06 0.563095403740D-07 0.000000000000D+00  7 2 -2 23 -13 13 23 21 2 0.98742306D-01 0.71960889D-01 0.64591850D+05 0.64591850D+05 0.64591850D+05 0.11376402D+01  1  2  3  2  7  2       -2 -.558802934628D-05 0.100000000000D+01
0.158142808952D-05 0.000000000000D+00 0.000000000000D+00 0.563095403740D-07 0.000000000000D+00  7 2 -2 23 -13 13 23 21 2 0.98742306D-01 0.71960889D-01 0.64591850D+05 0.64591850D+05 0.64591850D+05 0.11376402D+01  1  2 15  2  7  2       -2 0.213966895065D-04 0.100000000000D+01
0.515673749317D-05 0.000000000000D+00 -.816524869376D-05 0.563095403740D-07 0.000000000000D+00  7 2 -2 23 -13 13 23 21 2 0.98742306D-01 0.14008238D+00 0.64591850D+05 0.64591850D+05 0.64591850D+05 0.11376402D+01  1  2  5  2  7  2       -2 0.142131863012D-04 0.100000000000D+01
0.147131799164D-05 0.000000000000D+00 0.663746903651D-05 0.563095403740D-07 0.000000000000D+00  7 2 -2 23 -13 13 23 21 2 0.98742306D-01 0.71960889D-01 0.64591850D+05 0.64591850D+05 0.64591850D+05 0.11376402D+01  1  2  6  2  7  2       -2 0.199069021482D-04 0.100000000000D+01
0.850619218835D-06 0.000000000000D+00 -.589505011162D-06 0.563095403740D-07 0.000000000000D+00  7 2 21 23 -13 13 23 2 2 0.98742306D-01 0.14008238D+00 0.64591850D+05 0.64591850D+05 0.64591850D+05 0.11376402D+01  1  2  5  4  7  2       -2 0.214133377129D-04 0.100000000000D+01
  </mgrwgt>
  </event>
  <event>
  8     66 0.55102590E-06 0.20373283E+03 0.75467711E-02 0.97910922E-01
        2 -1    0    0  501    0 0.00000000E+00 0.00000000E+00 0.78783330E+03 0.78783336E+03 0.32000000E+00 0.0000E+00 0.9000E+01
       -2 -1    0    0    0  501 0.00000000E+00 0.00000000E+00 -.22410998E+03 0.22411021E+03 0.32000000E+00 0.0000E+00 0.9000E+01
       25  2    1    2    0    0 -.34882569E+02 0.10889494E+03 -.96932125E+02 0.33527402E+03 0.29989653E+03 0.0000E+00 0.0000E+00
       23  2    1    2    0    0 0.34882569E+02 -.10889494E+03 0.66065544E+03 0.67666955E+03 0.91329986E+02 0.0000E+00 0.0000E+00
       23  1    3    3    0    0 -.16169389E+02 -.26943563E+02 -.13532934E+03 0.16618269E+03 0.91188000E+02 0.0000E+00 0.9000E+01
      -13  1    4    4    0    0 -.13421809E+02 0.10825199E+02 0.78631804E+02 0.80500321E+02 0.10565837E+00 0.0000E+00 0.9000E+01
       13  1    4    4    0    0 0.48304378E+02 -.11972014E+03 0.58202364E+03 0.59616923E+03 0.10565837E+00 0.0000E+00 0.9000E+01
       23  1    3    3    0    0 -.18713180E+02 0.13583850E+03 0.38397212E+02 0.16909133E+03 0.91188000E+02 0.0000E+00 0.9000E+01
#aMCatNLO 1  0  0  1  2 0.28218506D+03 0.00000000D+00  -5  7  0 0.00000000D+00 0.00000000D+00 0.00000000D+00 0.00000000D+00 0.00000000D+00
  <mgrwgt>
 0.3488882441D-03    6    2    0
 0.420192162420872D+03 0.000000000000000D+00 0.000000000000000D+00 0.420192162420872D+03
 0.420192162420872D+03 0.000000000000000D+00 0.000000000000000D+00 -.420192162420872D+03
 0.290885726015804D+03 -.161693891092823D+02 -.269435627430107D+02 -.274430044889927D+03
 0.441879756874313D+02 -.134218912454995D+02 0.108253732574206D+02 0.406846571152385D+02
 0.327456896104313D+03 0.483044606212708D+02 -.119720312840465D+03 0.300934784602479D+03
 0.177853727034195D+03 -.187131802664889D+02 0.135838502326055D+03 -.671893968277903D+02
 0.000000000000000D+00 0.000000000000000D+00 -.000000000000000D+00 0.000000000000000D+00
 0.665633005522674D+03 0.000000000000000D+00 0.000000000000000D+00 0.665633005522674D+03
 0.532764012577216D+03 0.000000000000000D+00 0.000000000000000D+00 -.532764012577216D+03
 0.309328913245941D+03 -.109781081374259D+03 0.232160718597746D+01 -.274430044889927D+03
 0.519986501855905D+02 -.284235127192889D+02 0.155152254651780D+02 0.406846571152385D+02
 0.317948417170894D+03 -.523553360921383D+02 -.882517432146017D+02 0.300934784602479D+03
 0.207219490035910D+03 -.787706216181176D+02 0.154613841005765D+03 -.671893968277903D+02
 0.311901547461554D+03 0.269330551803804D+03 -.841989304423183D+02 0.132868992945458D+03
0.738715973706D-05 0.000000000000D+00 0.000000000000D+00 0.203722188722D-05 0.000000000000D+00  7 2 -2 23 -13 13 23 21 0 0.12120515D+00 0.34478481D-01 0.41507065D+05 0.41507065D+05 0.41507065D+05 0.11544754D+01  1  2  2  1  7  1        2 0.256331633205D-03 0.100000000000D+01
-.148912723072D-06 0.000000000000D+00 -.283686384742D-07 0.203722188722D-05 0.000000000000D+00  7 2 -2 23 -13 13 23 21 2 0.12120515D+00 0.34478481D-01 0.41507065D+05 0.41507065D+05 0.41507065D+05 0.11544754D+01  1  2  3  1  7  1        2 -.688693308912D-05 0.100000000000D+01
0.454741889587D-06 0.000000000000D+00 0.000000000000D+00 0.203722188722D-05 0.000000000000D+00  7 2 -2 23 -13 13 23 21 2 0.12120515D+00 0.34478481D-01 0.41507065D+05 0.41507065D+05 0.41507065D+05 0.11544754D+01  1  2 15  1  7  1        2 0.210309562662D-04 0.100000000000D+01
-.396113587319D-06 0.000000000000D+00 -.234849106980D-05 0.203722188722D-05 0.000000000000D+00  7 2 -2 23 -13 13 23 21 2 0.22198629D+00 0.34478481D-01 0.41507065D+05 0.41507065D+05 0.41507065D+05 0.11544754D+01  1  2  5  1  7  1        2 -.760726041562D-05 0.100000000000D+01
0.184239992779D-05 0.000000000000D+00 0.197560117513D-05 0.203722188722D-05 0.000000000000D+00  7 2 -2 23 -13 13 23 21 2 0.12120515D+00 0.34478481D-01 0.41507065D+05 0.41507065D+05 0.41507065D+05 0.11544754D+01  1  2  6  1  7  1        2 0.852075280360D-04 0.100000000000D+01
0.101844754501D-06 0.000000000000D+00 -.155306493621D-06 0.203722188722D-05 0.000000000000D+00  7 21 -2 23 -13 13 23 -2 2 0.22198629D+00 0.34478481D-01 0.41507065D+05 0.41507065D+05 0.41507065D+05 0.11544754D+01  1  2  5  3  7  1        2 0.812320083221D-06 0.100000000000D+01
  </mgrwgt>
  </event>
  <event>
  8     66 0.55102590E-06 0.27105443E+03 0.75467711E-02 0.98331766E-01
        2 -1    0    0  501    0 0.00000000E+00 0.00000000E+00 0.72913857E+03 0.72913864E+03 0.32000000E+00 0.0000E+00 0.9000E+01
       -2 -1    0    0    0  501 0.00000000E+00 0.00000000E+00 -.18721428E+03 0.18721455E+03 0.32000000E+00 0.0000E+00 0.9000E+01
       25  2    1    2    0    0 -.63830762E+02 0.29339074E+03 0.32206313E+03 0.53303337E+03 0.30041209E+03 0.0000E+00 0.0000E+00
       23  2    1    2    0    0 0.63830762E+02 -.29339074E+03 0.21986116E+03 0.38331982E+03 0.91883943E+02 0.0000E+00 0.0000E+00
       23  1    3    3    0    0 0.31801739E+02 0.30285065E+02 0.17913647E+03 0.20575146E+03 0.91188000E+02 0.0000E+00 0.9000E+01
      -11  1    4    4    0    0 0.55298235E+02 -.25379098E+03 0.14317507E+03 0.29659207E+03 0.51099893E-03 0.0000E+00 0.9000E+01
       11  1    4    4    0    0 0.85325271E+01 -.39599759E+02 0.76686093E+02 0.86727745E+02 0.51099893E-03 0.0000E+00 0.9000E+01
       23  1    3    3    0    0 -.95632501E+02 0.26310567E+03 0.14292666E+03 0.32728191E+03 0.91188000E+02 0.0000E+00 0.9000E+01
#aMCatNLO 1  0  0  1  2 0.33975549D+02 0.00000000D+00  -5  7  0 0.00000000D+00 0.00000000D+00 0.00000000D+00 0.00000000D+00 0.00000000D+00
  <mgrwgt>
 0.3067450024D-03    9    2    0
 0.369466245781187D+03 0.000000000000000D+00 0.000000000000000D+00 0.369466245781187D+03
 0.369466245781187D+03 0.000000000000000D+00 0.000000000000000D+00 -.369466245781187D+03
 0.123776664906537D+03 0.318017388336498D+02 0.302850653073426D+02 0.712521975652087D+02
 0.262802141917459D+03 0.552982352901371D+02 -.253790979169509D+03 -.399651080616898D+02
 0.513107616030185D+02 0.853252706283816D+01 -.395997587920400D+02 0.314936397041686D+02
 0.301042923135359D+03 -.956325011866251D+02 0.263105672654207D+03 -.627807292076875D+02
 0.000000000000000D+00 0.000000000000000D+00 -.000000000000000D+00 0.000000000000000D+00
 0.393934221968082D+03 0.000000000000000D+00 0.000000000000000D+00 0.393934221968082D+03
 0.381842161779415D+03 0.000000000000000D+00 0.000000000000000D+00 -.381842161779415D+03
 0.122787993038225D+03 0.262755601149400D+02 0.315334611663503D+02 0.712521975652087D+02
 0.258028389150055D+03 0.436250189385688D+02 -.251153931817917D+03 -.399651080616898D+02
 0.505810833276675D+02 0.624885611924255D+01 -.390838642662860D+02 0.314936397041686D+02
 0.308315698478018D+03 -.109289870717568D+03 0.266190951729536D+03 -.627807292076875D+02
 0.360632197535314D+02 0.331404355448171D+02 -.748661681168359D+01 0.120920601886669D+02
0.299707159418D-05 0.000000000000D+00 0.000000000000D+00 0.481148561520D-06 0.000000000000D+00  7 2 -2 23 -11 11 23 21 0 0.11217519D+00 0.28802223D-01 0.12106559D+06 0.12106559D+06 0.12106559D+06 0.11149722D+01  1  2  2  1  7  1        2 0.154922039915D-03 0.100000000000D+01
-.165774800020D-06 0.000000000000D+00 -.115095440687D-07 0.481148561520D-06 0.000000000000D+00  7 2 -2 23 -11 11 23 21 2 0.11217519D+00 0.28802223D-01 0.12106559D+06 0.12106559D+06 0.12106559D+06 0.11149722D+01  1  2  3  1  7  1        2 -.106527739431D-04 0.100000000000D+01
0.191987430750D-06 0.000000000000D+00 0.000000000000D+00 0.481148561520D-06 0.000000000000D+00  7 2 -2 23 -11 11 23 21 2 0.11217519D+00 0.28802223D-01 0.12106559D+06 0.12106559D+06 0.12106559D+06 0.11149722D+01  1  2 15  1  7  1        2 0.123372110806D-04 0.100000000000D+01
0.758075237154D-05 0.000000000000D+00 0.000000000000D+00 0.481148561520D-06 0.000000000000D+00  7 2 -2 23 -11 11 23 21 2 0.12138726D+00 0.28802223D-01 0.13334425D+06 0.13334425D+06 0.13334425D+06 0.11116085D+01  1  2 12  1  7  1        2 0.438558374256D-03 0.100000000000D+01
-.707824361951D-05 0.000000000000D+00 0.000000000000D+00 0.481148561520D-06 0.000000000000D+00  7 2 -2 23 -11 11 23 21 2 0.11217519D+00 0.28802223D-01 0.12106559D+06 0.12106559D+06 0.12106559D+06 0.11149722D+01  1  2  4  1  7  1        2 -.454851576858D-03 0.100000000000D+01
-.242134589128D-04 0.000000000000D+00 -.438684195633D-05 0.481148561520D-06 0.000000000000D+00  7 2 -2 23 -11 11 23 21 2 0.12247896D+00 0.28802223D-01 0.12106559D+06 0.12106559D+06 0.12106559D+06 0.11149722D+01  1  2  5  1  7  1        2 -.139520939853D-02 0.100000000000D+01
0.245211050855D-04 0.000000000000D+00 0.436995773529D-05 0.481148561520D-06 0.000000000000D+00  7 2 -2 23 -11 11 23 21 2 0.11217519D+00 0.28802223D-01 0.12106559D+06 0.12106559D+06 0.12106559D+06 0.11149722D+01  1  2  6  1  7  1        2 0.157573882929D-02 0.100000000000D+01
0.100699465322D-06 0.000000000000D+00 0.000000000000D+00 0.481148561520D-06 0.000000000000D+00  7 21 -2 23 -11 11 23 -2 2 0.12138726D+00 0.28802223D-01 0.13334425D+06 0.13334425D+06 0.13334425D+06 0.11116085D+01  1  2 12  3  7  1        2 0.604183071890D-05 0.100000000000D+01
-.340047462950D-06 0.000000000000D+00 -.636644896152D-07 0.481148561520D-06 0.000000000000D+00  7 21 -2 23 -11 11 23 -2 2 0.12247896D+00 0.28802223D-01 0.12106559D+06 0.12106559D+06 0.12106559D+06 0.11149722D+01  1  2  5  3  7  1        2 -.201395335173D-04 0.100000000000D+01
  </mgrwgt>
  </event>
  <event>
  8     66 0.55102590E-06 0.14402856E+03 0.75467711E-02 0.10554354E+00
        4 -1    0    0  501    0 0.00000000E+00 0.00000000E+00 0.29835585E+03 0.29835988E+03 0.15500000E+01 0.0000E+00 0.9000E+01
       -4 -1    0    0    0  501 0.00000000E+00 0.00000000E+00 -.39064120E+03 0.39064428E+03 0.15500000E+01 0.0000E+00 0.9000E+01
       25  2    1    2    0    0 -.21162367E+02 0.65944012E+02 0.20515542E+03 0.37011522E+03 0.30016674E+03 0.0000E+00 0.0000E+00
       23  2    1    2    0    0 0.21162367E+02 -.65944012E+02 -.29744078E+03 0.31888893E+03 0.91775145E+02 0.0000E+00 0.0000E+00
       23  1    3    3    0    0 0.18873640E+02 0.19229118E+02 0.23719368E+03 0.25554269E+03 0.91188000E+02 0.0000E+00 0.9000E+01
      -13  1    4    4    0    0 -.93126164E+01 0.10483937E+01 -.18031908E+03 0.18056247E+03 0.10565837E+00 0.0000E+00 0.9000E+01
       13  1    4    4    0    0 0.30474983E+02 -.66992405E+02 -.11712169E+03 0.13832646E+03 0.10565837E+00 0.0000E+00 0.9000E+01
       23  1    3    3    0    0 -.40036007E+02 0.46714893E+02 -.32038258E+02 0.11457253E+03 0.91188000E+02 0.0000E+00 0.9000E+01
#aMCatNLO 1  0  0  1  1 0.10510428D+03 0.00000000D+00  -5  7  0 0.00000000D+00 0.00000000D+00 0.00000000D+00 0.00000000D+00 0.00000000D+00
  <mgrwgt>
 0.8048181418D-05    4    2    0
 0.341397910781273D+03 0.000000000000000D+00 0.000000000000000D+00 0.341397910781273D+03
 0.341397910781273D+03 0.000000000000000D+00 0.000000000000000D+00 -.341397910781273D+03
 0.289924851407825D+03 0.188736402334549D+02 0.192291184428248D+02 0.273889019181309D+03
 0.157832709037301D+03 -.931266899039415D+01 0.104848354038295D+01 -.157554241201543D+03
 0.123754208389366D+03 0.304750357817138D+02 -.669924953128228D+02 -.994906119186293D+02
 0.111284052728054D+03 -.400360070247746D+02 0.467148933296150D+02 -.168441660611364D+02
 0.000000000000000D+00 0.000000000000000D+00 0.000000000000000D+00 -.000000000000000D+00
 0.386113497517521D+03 0.000000000000000D+00 0.000000000000000D+00 0.386113497517521D+03
 0.413283792301267D+03 0.000000000000000D+00 0.000000000000000D+00 -.413283792301267D+03
 0.289848383739523D+03 0.980733326304500D+01 -.241961897533845D+02 0.273889019181309D+03
 0.159826678013797D+03 -.142801240925697D+02 -.227443650215329D+02 -.157554241201543D+03
 0.134347723713980D+03 0.264389209625981D+02 -.863244604125507D+02 -.994906119186293D+02
 0.106815143345691D+03 -.434465719521149D+02 0.303791533666607D+02 -.168441660611364D+02
 0.108559361005798D+03 0.214804418190415D+02 0.102885861820807D+03 -.271702947837460D+02
0.527213158885D-05 0.000000000000D+00 0.000000000000D+00 0.589878217732D-06 0.000000000000D+00  7 4 -4 23 -13 13 23 21 0 0.45901446D-01 0.60099193D-01 0.20744227D+05 0.20744227D+05 0.20744227D+05 0.11825002D+01  1  2  2  1  7  1        4 0.141257834238D-04 0.100000000000D+01
-.276469802368D-07 0.000000000000D+00 -.202463734853D-07 0.589878217732D-06 0.000000000000D+00  7 4 -4 23 -13 13 23 21 2 0.45901446D-01 0.60099193D-01 0.20744227D+05 0.20744227D+05 0.20744227D+05 0.11825002D+01  1  2  3  1  7  1        4 -.103580134554D-06 0.100000000000D+01
0.321321674707D-06 0.000000000000D+00 0.000000000000D+00 0.589878217732D-06 0.000000000000D+00  7 4 -4 23 -13 13 23 21 2 0.45901446D-01 0.60099193D-01 0.20744227D+05 0.20744227D+05 0.20744227D+05 0.11825002D+01  1  2 15  1  7  1        4 0.120384005834D-05 0.100000000000D+01
-.191587129881D-05 0.000000000000D+00 0.000000000000D+00 0.589878217732D-06 0.000000000000D+00  7 4 -4 23 -13 13 23 21 2 0.45901446D-01 0.60099193D-01 0.20744227D+05 0.20744227D+05 0.20744227D+05 0.11825002D+01  1  2  4  1  7  1        4 -.717786192992D-05 0.100000000000D+01
  </mgrwgt>
  </event>
  <event>
  8     66 -.55102590E-06 0.24156525E+03 0.75467711E-02 0.98367936E-01
        2 -1    0    0  501    0 0.00000000E+00 0.00000000E+00 0.16151303E+04 0.16151304E+04 0.32000000E+00 0.0000E+00 0.9000E+01
       -2 -1    0    0    0  501 0.00000000E+00 0.00000000E+00 -.10010783E+03 0.10010834E+03 0.32000000E+00 0.0000E+00 0.9000E+01
       25  2    1    2    0    0 0.12619265E+03 0.28027793E+03 0.11623259E+04 0.12390684E+04 0.29968096E+03 0.0000E+00 0.0000E+00
       23  2    1    2    0    0 -.12619265E+03 -.28027793E+03 0.35269660E+03 0.47617031E+03 0.88673370E+02 0.0000E+00 0.0000E+00
       23  1    3    3    0    0 0.87609406E+02 0.28593268E+03 0.70663852E+03 0.77271350E+03 0.91188000E+02 0.0000E+00 0.9000E+01
      -13  1    4    4    0    0 -.60539892E+02 -.18329609E+03 0.27362062E+03 0.33485936E+03 0.10565837E+00 0.0000E+00 0.9000E+01
       13  1    4    4    0    0 -.65652760E+02 -.96981839E+02 0.79075974E+02 0.14131094E+03 0.10565837E+00 0.0000E+00 0.9000E+01
       23  1    3    3    0    0 0.38583246E+02 -.56547517E+01 0.45568739E+03 0.46635490E+03 0.91188000E+02 0.0000E+00 0.9000E+01
#aMCatNLO 1  0  0  2  1 0.59873788D+01 0.00000000D+00  -5  7  0 0.00000000D+00 0.00000000D+00 0.00000000D+00 0.00000000D+00 0.00000000D+00
  <mgrwgt>
 -.4841644560D-04    9    2    0
 0.402104037440611D+03 0.000000000000000D+00 0.000000000000000D+00 0.402104037440611D+03
 0.402104037440611D+03 0.000000000000000D+00 0.000000000000000D+00 -.402104037440611D+03
 0.316851888309056D+03 0.876094059950884D+02 0.285932683584936D+03 0.514486172809265D+02
 0.198732636771947D+03 -.605398852647295D+02 -.183296215660435D+03 -.472448995662758D+02
 0.152423322504113D+03 -.656527671874388D+02 -.969817162234544D+02 -.975557795426713D+02
 0.136200227296106D+03 0.385832464570799D+02 -.565475170104688D+01 0.933520618280206D+02
 0.000000000000000D+00 0.000000000000000D+00 0.000000000000000D+00 -.000000000000000D+00
 0.402133903882443D+03 0.000000000000000D+00 0.000000000000000D+00 0.402133903882443D+03
 0.880800101564864D+03 0.000000000000000D+00 0.000000000000000D+00 -.880800101564864D+03
 0.314974237835016D+03 0.858311707546555D+02 0.284393335123232D+03 0.514486172809265D+02
 0.199972079849344D+03 -.616620148321623D+02 -.184267599189557D+03 -.472448995662758D+02
 0.153269672151458D+03 -.665131210622737D+02 -.977264908087484D+02 -.975557795426713D+02
 0.136014372938770D+03 0.378171154361103D+02 -.631796125947758D+01 0.933520618280206D+02
 0.478703642672718D+03 0.452684970367022D+01 0.391871613455071D+01 -.478666197682421D+03
0.549375898287D-06 0.000000000000D+00 0.000000000000D+00 0.122840485159D-06 0.000000000000D+00  7 2 -2 23 -13 13 23 21 0 0.24848163D+00 0.15401246D-01 0.13031107D+06 0.13031107D+06 0.13031107D+06 0.11124069D+01  1  2  2  2  7  2       -2 0.241101026958D-04 0.100000000000D+01
-.300890779123D-07 0.000000000000D+00 -.210974810342D-08 0.122840485159D-06 0.000000000000D+00  7 2 -2 23 -13 13 23 21 2 0.24848163D+00 0.15401246D-01 0.13031107D+06 0.13031107D+06 0.13031107D+06 0.11124069D+01  1  2  3  2  7  2       -2 -.163405119753D-05 0.100000000000D+01
0.348469527259D-07 0.000000000000D+00 0.000000000000D+00 0.122840485159D-06 0.000000000000D+00  7 2 -2 23 -13 13 23 21 2 0.24848163D+00 0.15401246D-01 0.13031107D+06 0.13031107D+06 0.13031107D+06 0.11124069D+01  1  2 15  2  7  2       -2 0.189243768114D-05 0.100000000000D+01
0.790213747675D-03 0.000000000000D+00 0.000000000000D+00 0.122840485159D-06 0.000000000000D+00  7 2 -2 23 -13 13 23 21 2 0.24848163D+00 0.33735944D-01 0.13256030D+06 0.13256030D+06 0.13256030D+06 0.11118129D+01  1  2 12  2  7  2       -2 0.113569368321D-01 0.100000000000D+01
-.101602915382D-02 0.000000000000D+00 -.174089682045D-06 0.122840485159D-06 0.000000000000D+00  7 2 -2 23 -13 13 23 21 2 0.24848163D+00 0.33736854D-01 0.13031107D+06 0.13031107D+06 0.13031107D+06 0.11124069D+01  1  2  5  2  7  2       -2 -.146266809452D-01 0.100000000000D+01
0.225374984981D-03 0.000000000000D+00 0.000000000000D+00 0.122840485159D-06 0.298217167632D-07  7 2 -2 23 -13 13 23 21 2 0.24850009D+00 0.33736093D-01 0.13256030D+06 0.13256030D+06 0.13256030D+06 0.11118129D+01  1  2 11  2  7  2       -2 0.323857779592D-02 0.100000000000D+01
0.671401697412D-04 0.000000000000D+00 0.000000000000D+00 0.122840485159D-06 0.000000000000D+00  7 2 21 23 -13 13 23 2 2 0.24848163D+00 0.33735944D-01 0.13256030D+06 0.13256030D+06 0.13256030D+06 0.11118129D+01  1  2 12  4  7  2       -2 0.111063774191D-01 0.100000000000D+01
-.863186528118D-04 0.000000000000D+00 -.147919907287D-07 0.122840485159D-06 0.000000000000D+00  7 2 21 23 -13 13 23 2 2 0.24848163D+00 0.33736854D-01 0.13031107D+06 0.13031107D+06 0.13031107D+06 0.11124069D+01  1  2  5  4  7  2       -2 -.143092296044D-01 0.100000000000D+01
0.191132691150D-04 0.000000000000D+00 0.000000000000D+00 0.122840485159D-06 0.252907413862D-08  7 2 21 23 -13 13 23 2 2 0.24850009D+00 0.33736093D-01 0.13256030D+06 0.13256030D+06 0.13256030D+06 0.11118129D+01  1  2 11  4  7  2       -2 0.316123356774D-02 0.100000000000D+01
  </mgrwgt>
  </event>
  <event>
  8     66 0.55102590E-06 0.38499465E+03 0.75467711E-02 0.89897896E-01
        2 -1    0    0  501    0 0.00000000E+00 0.00000000E+00 0.25787756E+04 0.25787757E+04 0.32000000E+00 0.0000E+00 0.9000E+01
       -2 -1    0    0    0  501 0.00000000E+00 0.00000000E+00 -.28158745E+03 0.28158763E+03 0.32000000E+00 0.0000E+00 0.9000E+01
       25  2    1    2    0    0 0.46323999E+03 0.59310735E+03 0.62388582E+03 0.10233973E+04 0.30288745E+03 0.0000E+00 0.0000E+00
       23  2    1    2    0    0 -.46323999E+03 -.59310735E+03 0.16733024E+04 0.18369660E+04 0.90198488E+02 0.0000E+00 0.0000E+00
       23  1    3    3    0    0 0.17592152E+03 0.14596347E+03 0.32233645E+03 0.40554871E+03 0.91188000E+02 0.0000E+00 0.9000E+01
      -13  1    4    4    0    0 -.46622469E+03 -.58944340E+03 0.16486600E+04 0.18118744E+04 0.10565837E+00 0.0000E+00 0.9000E+01
       13  1    4    4    0    0 0.29847054E+01 -.36639505E+01 0.24642404E+02 0.25091676E+02 0.10565837E+00 0.0000E+00 0.9000E+01
       23  1    3    3    0    0 0.28731847E+03 0.44714388E+03 0.30154937E+03 0.61784855E+03 0.91188000E+02 0.0000E+00 0.9000E+01
#aMCatNLO 1  0  0  1  2 0.99399106D+01 0.00000000D+00  -5  7  0 0.00000000D+00 0.00000000D+00 0.00000000D+00 0.00000000D+00 0.00000000D+00
  <mgrwgt>
 0.1495440252D-02   11    2    0
 0.852145021896841D+03 0.000000000000000D+00 0.000000000000000D+00 0.852145021896841D+03
 0.852145021896841D+03 0.000000000000000D+00 0.000000000000000D+00 -.852145021896841D+03
 0.246172382497253D+03 0.175921515806230D+03 0.145963468100100D+03 -.564595580955151D+01
 0.818721310529659D+03 -.466225336325334D+03 -.589444202835753D+03 0.324798478794244D+03
 0.889589034563177D+01 0.298534924590013D+01 -.366314674076716D+01 0.753696960834501D+01
 0.630500460421137D+03 0.287318471273204D+03 0.447143881476420D+03 -.326689492593037D+03
 0.000000000000000D+00 0.000000000000000D+00 0.000000000000000D+00 0.000000000000000D+00
 0.877696744581813D+03 0.000000000000000D+00 0.000000000000000D+00 0.877696744581813D+03
 0.853126748046057D+03 0.000000000000000D+00 0.000000000000000D+00 -.853126748046057D+03
 0.244885581266251D+03 0.174626086680734D+03 0.145353189169274D+03 -.564595580955151D+01
 0.822660211425732D+03 -.470555361671622D+03 -.591484085363304D+03 0.324798478794244D+03
 0.888939566274301D+01 0.293843100161803D+01 -.368525000785692D+01 0.753696960834501D+01
 0.627883841403642D+03 0.283998806801911D+03 0.445579981727398D+03 -.326689492593037D+03
 0.265044628695028D+02 0.899203718735832D+01 0.423616447448930D+01 0.245699965357566D+02
0.121466147083D-03 0.000000000000D+00 0.000000000000D+00 0.127977303648D-06 0.000000000000D+00  7 2 -2 23 -13 13 23 21 0 0.39673473D+00 0.43321161D-01 0.59415975D+06 0.59415975D+06 0.59415975D+06 0.10632545D+01  1  2  2  1  7  1        2 0.239211443496D-03 0.100000000000D+01
-.666557078531D-05 0.000000000000D+00 -.466461987570D-06 0.127977303648D-06 0.000000000000D+00  7 2 -2 23 -13 13 23 21 2 0.39673473D+00 0.43321161D-01 0.59415975D+06 0.59415975D+06 0.59415975D+06 0.10632545D+01  1  2  3  1  7  1        2 -.148401564667D-04 0.100000000000D+01
0.766136088300D-05 0.000000000000D+00 0.000000000000D+00 0.127977303648D-06 0.000000000000D+00  7 2 -2 23 -13 13 23 21 2 0.39673473D+00 0.43321161D-01 0.59415975D+06 0.59415975D+06 0.59415975D+06 0.10632545D+01  1  2 15  1  7  1        2 0.170571730335D-04 0.100000000000D+01
0.738235726231D-03 0.000000000000D+00 0.000000000000D+00 0.127977303648D-06 0.000000000000D+00  7 2 -2 23 -13 13 23 21 2 0.40885572D+00 0.43321161D-01 0.60179050D+06 0.60179050D+06 0.60179050D+06 0.10628689D+01  1  2 12  1  7  1        2 0.147292737747D-02 0.100000000000D+01
-.746967707082D-03 0.000000000000D+00 0.000000000000D+00 0.127977303648D-06 0.000000000000D+00  7 2 -2 23 -13 13 23 21 2 0.39673473D+00 0.43321161D-01 0.59415975D+06 0.59415975D+06 0.59415975D+06 0.10632545D+01  1  2  4  1  7  1        2 -.166304102165D-02 0.100000000000D+01
-.630747118923D-02 0.000000000000D+00 -.343982689474D-03 0.127977303648D-06 0.000000000000D+00  7 2 -2 23 -13 13 23 21 2 0.40877090D+00 0.43321161D-01 0.59415975D+06 0.59415975D+06 0.59415975D+06 0.10632545D+01  1  2  5  1  7  1        2 -.126136869802D-01 0.100000000000D+01
0.631508473754D-02 0.000000000000D+00 0.343829118525D-03 0.127977303648D-06 0.000000000000D+00  7 2 -2 23 -13 13 23 21 2 0.39673473D+00 0.43321161D-01 0.59415975D+06 0.59415975D+06 0.59415975D+06 0.10632545D+01  1  2  6  1  7  1        2 0.140598380280D-01 0.100000000000D+01
0.776234859207D-11 0.000000000000D+00 0.000000000000D+00 0.127977303648D-06 0.780726931708D-08  7 2 -2 23 -13 13 23 21 2 0.40863089D+00 0.43371070D-01 0.60179050D+06 0.60179050D+06 0.60179050D+06 0.10628689D+01  1  2 11  1  7  1        2 0.154842576225D-10 0.100000000000D+01
0.252058117470D-04 0.000000000000D+00 0.000000000000D+00 0.127977303648D-06 0.000000000000D+00  7 21 -2 23 -13 13 23 -2 2 0.40885572D+00 0.43321161D-01 0.60179050D+06 0.60179050D+06 0.60179050D+06 0.10628689D+01  1  2 12  3  7  1        2 0.477464144745D-05 0.100000000000D+01
-.357705303685D-04 0.000000000000D+00 -.184404725072D-05 0.127977303648D-06 0.000000000000D+00  7 21 -2 23 -13 13 23 -2 2 0.40877090D+00 0.43321161D-01 0.59415975D+06 0.59415975D+06 0.59415975D+06 0.10632545D+01  1  2  5  3  7  1        2 -.680026885290D-05 0.100000000000D+01
0.415870579814D-13 0.000000000000D+00 0.000000000000D+00 0.127977303648D-06 0.415084443939D-10  7 21 -2 23 -13 13 23 -2 2 0.40863089D+00 0.43371070D-01 0.60179050D+06 0.60179050D+06 0.60179050D+06 0.10628689D+01  1  2 11  3  7  1        2 0.788857317817D-14 0.100000000000D+01
  </mgrwgt>
  </event>
  <event>
  8     66 0.55102590E-06 0.15062477E+03 0.75467711E-02 0.99685412E-01
        2 -1    0    0  501    0 0.00000000E+00 0.00000000E+00 0.29261291E+04 0.29261291E+04 0.32000000E+00 0.0000E+00 0.9000E+01
       -2 -1    0    0    0  501 0.00000000E+00 0.00000000E+00 -.42332295E+02 0.42333504E+02 0.32000000E+00 0.0000E+00 0.9000E+01
       25  2    1    2    0    0 0.25455005E+03 -.40655946E+02 0.21272061E+04 0.21638777E+04 0.30151606E+03 0.0000E+00 0.0000E+00
       23  2    1    2    0    0 -.25455005E+03 0.40655946E+02 0.75659067E+03 0.80458496E+03 0.92080897E+02 0.0000E+00 0.0000E+00
       23  1    3    3    0    0 0.13208068E+03 0.77821606E+02 0.64807775E+03 0.67217671E+03 0.91188000E+02 0.0000E+00 0.9000E+01
      -13  1    4    4    0    0 -.15057064E+03 0.60380786E+01 0.55543280E+03 0.57551158E+03 0.10565837E+00 0.0000E+00 0.9000E+01
       13  1    4    4    0    0 -.10397941E+03 0.34617867E+02 0.20115787E+03 0.22907338E+03 0.10565837E+00 0.0000E+00 0.9000E+01
       23  1    3    3    0    0 0.12246937E+03 -.11847755E+03 0.14791284E+04 0.14917009E+04 0.91188000E+02 0.0000E+00 0.9000E+01
#aMCatNLO 1  0  0  1  2 0.22328297D+02 0.00000000D+00  -5  7  0 0.00000000D+00 0.00000000D+00 0.00000000D+00 0.00000000D+00 0.00000000D+00
  <mgrwgt>
 0.3803697530D-03    9    2    0
 0.351953946094651D+03 0.000000000000000D+00 0.000000000000000D+00 0.351953946094651D+03
 0.351953946094651D+03 0.000000000000000D+00 0.000000000000000D+00 -.351953946094651D+03
 0.179578745705080D+03 0.132080685483690D+03 0.778216031395642D+02 -.207789598381737D+02
 0.151481885699638D+03 -.150570697414264D+03 0.603804126006421D+01 -.154521465512722D+02
 0.141918208225959D+03 -.103979354594391D+03 0.346179049374329D+02 -.901702406669939D+02
 0.230929052558626D+03 0.122469366524965D+03 -.118477549337061D+03 0.126401347056440D+03
 0.000000000000000D+00 -.000000000000000D+00 0.000000000000000D+00 0.000000000000000D+00
 0.397139504900757D+03 0.000000000000000D+00 0.000000000000000D+00 0.397139504900757D+03
 0.354900180217530D+03 0.000000000000000D+00 0.000000000000000D+00 -.354900180217530D+03
 0.177396716424011D+03 0.132342176174035D+03 0.721673533364326D+02 -.207789598381737D+02
 0.151146104406649D+03 -.150349017185661D+03 0.124461864419317D+01 -.154521465512722D+02
 0.140740292706342D+03 -.103772302361445D+03 0.301407855194264D+02 -.901702406669939D+02
 0.234978821764253D+03 0.122810652088311D+03 -.125857214849519D+03 0.126401347056440D+03
 0.477777498170316D+02 -.103150871523992D+01 0.223044573494666D+02 0.422393246832270D+02
0.614313441515D-05 0.000000000000D+00 0.000000000000D+00 0.504319568544D-07 0.000000000000D+00  7 2 -2 23 -13 13 23 21 0 0.45017380D+00 0.65127551D-02 0.99830328D+05 0.99830328D+05 0.99830328D+05 0.11217826D+01  1  2  2  1  7  1        2 0.189877581245D-03 0.100000000000D+01
-.336455383781D-06 0.000000000000D+00 -.235912536786D-07 0.504319568544D-07 0.000000000000D+00  7 2 -2 23 -13 13 23 21 2 0.45017380D+00 0.65127551D-02 0.99830328D+05 0.99830328D+05 0.99830328D+05 0.11217826D+01  1  2  3  1  7  1        2 -.130866512877D-04 0.100000000000D+01
0.389065824417D-06 0.000000000000D+00 0.000000000000D+00 0.504319568544D-07 0.000000000000D+00  7 2 -2 23 -13 13 23 21 2 0.45017380D+00 0.65127551D-02 0.99830328D+05 0.99830328D+05 0.99830328D+05 0.11217826D+01  1  2 15  1  7  1        2 0.151329686417D-04 0.100000000000D+01
0.325120684415D-04 0.000000000000D+00 0.000000000000D+00 0.504319568544D-07 0.000000000000D+00  7 2 -2 23 -13 13 23 21 2 0.50970451D+00 0.65127551D-02 0.10725760D+06 0.10725760D+06 0.10725760D+06 0.11192336D+01  1  2 12  1  7  1        2 0.709969910638D-03 0.100000000000D+01
-.329147801403D-04 0.000000000000D+00 0.000000000000D+00 0.504319568544D-07 0.000000000000D+00  7 2 -2 23 -13 13 23 21 2 0.45017380D+00 0.65127551D-02 0.99830328D+05 0.99830328D+05 0.99830328D+05 0.11217826D+01  1  2  4  1  7  1        2 -.128024181116D-02 0.100000000000D+01
-.449230449914D-04 0.000000000000D+00 -.406937222830D-05 0.504319568544D-07 0.000000000000D+00  7 2 -2 23 -13 13 23 21 2 0.50898281D+00 0.65127551D-02 0.99830328D+05 0.99830328D+05 0.99830328D+05 0.11217826D+01  1  2  5  1  7  1        2 -.995723207657D-03 0.100000000000D+01
0.451127005187D-04 0.000000000000D+00 0.403889071659D-05 0.504319568544D-07 0.000000000000D+00  7 2 -2 23 -13 13 23 21 2 0.45017380D+00 0.65127551D-02 0.99830328D+05 0.99830328D+05 0.99830328D+05 0.11217826D+01  1  2  6  1  7  1        2 0.175468786886D-02 0.100000000000D+01
0.634918919701D-06 0.000000000000D+00 0.000000000000D+00 0.504319568544D-07 0.000000000000D+00  7 21 -2 23 -13 13 23 -2 2 0.50970451D+00 0.65127551D-02 0.10725760D+06 0.10725760D+06 0.10725760D+06 0.11192336D+01  1  2 12  3  7  1        2 0.663760882058D-06 0.100000000000D+01
-.849274384526D-06 0.000000000000D+00 -.787100676089D-07 0.504319568544D-07 0.000000000000D+00  7 21 -2 23 -13 13 23 -2 2 0.50898281D+00 0.65127551D-02 0.99830328D+05 0.99830328D+05 0.99830328D+05 0.11217826D+01  1  2  5  3  7  1        2 -.910667131234D-06 0.100000000000D+01
  </mgrwgt>
  </event>
  <event>
  7     66 0.55102590E-06 0.30121616E+03 0.75467711E-02 0.94041325E-01
        2 -1    0    0  501    0 0.00000000E+00 0.00000000E+00 0.21430477E+04 0.21430477E+04 0.32000000E+00 0.0000E+00 0.9000E+01
       -2 -1    0    0    0  501 0.00000000E+00 0.00000000E+00 -.16014520E+03 0.16014551E+03 0.32000000E+00 0.0000E+00 0.9000E+01
       23  2    1    2    0    0 0.12281870E+03 0.45268054E+03 0.50434534E+03 0.69546143E+03 0.96427565E+02 0.0000E+00 0.0000E+00
       23  1    1    2    0    0 -.17092461E+03 -.41530057E+03 0.13992859E+04 0.14724151E+04 0.91188000E+02 0.0000E+00 0.9000E+01
      -11  1    3    3    0    0 0.99597048E+02 0.27428108E+03 0.25202623E+03 0.38557348E+03 0.51099893E-03 0.0000E+00 0.9000E+01
       11  1    3    3    0    0 0.23221649E+02 0.17839945E+03 0.25231911E+03 0.30988795E+03 0.51099893E-03 0.0000E+00 0.9000E+01
       23  1    1    2    0    0 0.48105911E+02 -.37379969E+02 0.79271249E+02 0.13531675E+03 0.91188000E+02 0.0000E+00 0.9000E+01
#aMCatNLO 1  0  0  2  1 0.13603684D+02 0.00000000D+00  -5  7  0 0.00000000D+00 0.00000000D+00 0.00000000D+00 0.00000000D+00 0.00000000D+00
  <mgrwgt>
 0.8128218075D-03    9    2    0
 0.585832048464154D+03 0.000000000000000D+00 0.000000000000000D+00 0.585832048464154D+03
 0.585832048464154D+03 0.000000000000000D+00 0.000000000000000D+00 -.585832048464154D+03
 0.526267611501264D+03 -.170924607361091D+03 -.415300568392585D+03 0.258751935379233D+03
 0.331414762819196D+03 0.995970482303834D+02 0.274281082581923D+03 -.157117983490073D+03
 0.182140636645780D+03 0.232216485669880D+02 0.178399454660331D+03 -.284534906902114D+02
 0.131841085962069D+03 0.481059105637198D+02 -.373799688496689D+02 -.731804611989479D+02
 0.000000000000000D+00 -.000000000000000D+00 -.000000000000000D+00 -.000000000000000D+00
 0.587425327920702D+03 0.000000000000000D+00 0.000000000000000D+00 0.587425327920702D+03
 0.615647072085904D+03 0.000000000000000D+00 0.000000000000000D+00 -.615647072085904D+03
 0.523194960317462D+03 -.165019025419433D+03 -.413804147326622D+03 0.258751935379233D+03
 0.333340269020251D+03 0.103337786982842D+03 0.275228951958174D+03 -.157117983490073D+03
 0.182923043683225D+03 0.252759509651860D+02 0.178919996313108D+03 -.284534906902114D+02
 0.132284794490742D+03 0.495922113350027D+02 -.370033536733024D+02 -.731804611989479D+02
 0.313293324949265D+02 -.131869238635977D+02 -.334144727135808D+01 -.282217441652012D+02
0.420605255970D-04 0.000000000000D+00 0.000000000000D+00 0.245106500249D-10 0.000000000000D+00  7 2 -2 23 -11 11 23 21 0 0.32969967D+00 0.24637749D-01 0.27021178D+06 0.27021178D+06 0.27021178D+06 0.10879281D+01  1  2  2  2  7  2       -2 0.426957080607D-03 0.100000000000D+01
-.229608886175D-05 0.000000000000D+00 -.161523493083D-06 0.245106500249D-10 0.000000000000D+00  7 2 -2 23 -11 11 23 21 2 0.32969967D+00 0.24637749D-01 0.27021178D+06 0.27021178D+06 0.27021178D+06 0.10879281D+01  1  2  3  2  7  2       -2 -.275866266497D-04 0.100000000000D+01
0.264987477822D-05 0.000000000000D+00 0.000000000000D+00 0.245106500249D-10 0.000000000000D+00  7 2 -2 23 -11 11 23 21 2 0.32969967D+00 0.24637749D-01 0.27021178D+06 0.27021178D+06 0.27021178D+06 0.10879281D+01  1  2 15  2  7  2       -2 0.318372286862D-04 0.100000000000D+01
0.555797246713D-03 0.000000000000D+00 0.000000000000D+00 0.245106500249D-10 0.000000000000D+00  7 2 -2 23 -11 11 23 21 2 0.32969967D+00 0.25924195D-01 0.27731804D+06 0.27731804D+06 0.27731804D+06 0.10870870D+01  1  2 12  2  7  2       -2 0.609919598181D-02 0.100000000000D+01
-.563822145594D-03 0.000000000000D+00 0.000000000000D+00 0.245106500249D-10 0.000000000000D+00  7 2 -2 23 -11 11 23 21 2 0.32969967D+00 0.24637749D-01 0.27021178D+06 0.27021178D+06 0.27021178D+06 0.10879281D+01  1  2  4  2  7  2       -2 -.677410673708D-02 0.100000000000D+01
-.158234186429D-02 0.000000000000D+00 -.108086651391D-03 0.245106500249D-10 0.000000000000D+00  7 2 -2 23 -11 11 23 21 2 0.32969967D+00 0.25940710D-01 0.27021178D+06 0.27021178D+06 0.27021178D+06 0.10879281D+01  1  2  5  2  7  2       -2 -.173918807097D-01 0.100000000000D+01
0.158594895116D-02 0.000000000000D+00 0.107943285550D-03 0.245106500249D-10 0.000000000000D+00  7 2 -2 23 -11 11 23 21 2 0.32969967D+00 0.24637749D-01 0.27021178D+06 0.27021178D+06 0.27021178D+06 0.10879281D+01  1  2  6  2  7  2       -2 0.190545681093D-01 0.100000000000D+01
0.946152517020D-05 0.000000000000D+00 0.000000000000D+00 0.245106500249D-10 0.000000000000D+00  7 2 21 23 -11 11 23 2 2 0.32969967D+00 0.25924195D-01 0.27731804D+06 0.27731804D+06 0.27731804D+06 0.10870870D+01  1  2 12  4  7  2       -2 0.123561465343D-02 0.100000000000D+01
-.140736320669D-04 0.000000000000D+00 -.968230181124D-06 0.245106500249D-10 0.000000000000D+00  7 2 21 23 -11 11 23 2 2 0.32969967D+00 0.25940710D-01 0.27021178D+06 0.27021178D+06 0.27021178D+06 0.10879281D+01  1  2  5  4  7  2       -2 -.184177717296D-02 0.100000000000D+01
  </mgrwgt>
  </event>
  <event>
  8     66 0.55102590E-06 0.22000800E+03 0.75467711E-02 0.99082896E-01
        2 -1    0    0  501    0 0.00000000E+00 0.00000000E+00 0.21726047E+04 0.21726047E+04 0.32000000E+00 0.0000E+00 0.9000E+01
       -2 -1    0    0    0  501 0.00000000E+00 0.00000000E+00 -.32218559E+02 0.32220148E+02 0.32000000E+00 0.0000E+00 0.9000E+01
       25  2    1    2    0    0 -.37732948E+02 0.13669035E+03 0.10071198E+04 0.10591396E+04 0.29559819E+03 0.0000E+00 0.0000E+00
       23  2    1    2    0    0 0.37732948E+02 -.13669035E+03 0.11332663E+04 0.11456853E+04 0.90521858E+02 0.0000E+00 0.0000E+00
       23  1    3    3    0    0 0.21031355E+02 0.14294151E+03 0.31325039E+03 0.35681319E+03 0.91188000E+02 0.0000E+00 0.9000E+01
      -11  1    4    4    0    0 0.13878146E+02 -.13592942E+03 0.10563781E+04 0.10651780E+04 0.51099893E-03 0.0000E+00 0.9000E+01
       11  1    4    4    0    0 0.23854801E+02 -.76092404E+00 0.76888176E+02 0.80507281E+02 0.51099893E-03 0.0000E+00 0.9000E+01
       23  1    3    3    0    0 -.58764302E+02 -.62511636E+01 0.69386941E+03 0.70232637E+03 0.91188000E+02 0.0000E+00 0.9000E+01
#aMCatNLO 1  0  0  1  1 0.20280722D+03 0.00000000D+00  -5  7  0 0.00000000D+00 0.00000000D+00 0.00000000D+00 0.00000000D+00 0.00000000D+00
  <mgrwgt>
 0.4209355987D-03    3    2    0
 0.264575070905063D+03 0.000000000000000D+00 0.000000000000000D+00 0.264575070905063D+03
 0.264575070905063D+03 0.000000000000000D+00 0.000000000000000D+00 -.264575070905063D+03
 0.219661280701130D+03 0.210313548137677D+02 0.142941512337820D+03 -.138062424506216D+03
 0.165310035959430D+03 0.138781462215178D+02 -.135929424734585D+03 0.930483559107148D+02
 0.244430949618513D+02 0.238548014248136D+02 -.760924037532760D+00 -.527582551890197D+01
 0.119735730187714D+03 -.587643024600991D+02 -.625116356570258D+01 0.502898941144033D+02
 0.000000000000000D+00 -.000000000000000D+00 -.000000000000000D+00 -.000000000000000D+00
 0.316372721167864D+03 0.000000000000000D+00 0.000000000000000D+00 0.316372721167864D+03
 0.594648394467572D+03 0.000000000000000D+00 0.000000000000000D+00 -.594648394467572D+03
 0.273791611924991D+03 0.951484563299130D+02 0.196296035655296D+03 -.138062424506216D+03
 0.150915499201357D+03 0.613755273124980D+02 -.101737584051424D+03 0.930483559107148D+02
 0.334266900669963D+02 0.325468990815405D+02 0.549623817762192D+01 -.527582551890197D+01
 0.108550097588036D+03 -.244755504337281D+02 0.184322088557031D+02 0.502898941144033D+02
 0.344337216854055D+03 -.164595332290223D+03 -.118486898637197D+03 -.278275673299708D+03
0.326403017598D-05 0.000000000000D+00 0.000000000000D+00 0.325456163607D-08 0.000000000000D+00  7 2 -2 23 -11 11 23 21 0 0.33424699D+00 0.49568254D-02 0.48403520D+05 0.48403520D+05 0.48403520D+05 0.11485371D+01  1  2  2  1  7  1        2 0.415837118657D-03 0.100000000000D+01
-.173833082080D-06 0.000000000000D+00 -.125347353146D-07 0.325456163607D-08 0.000000000000D+00  7 2 -2 23 -11 11 23 21 2 0.33424699D+00 0.49568254D-02 0.48403520D+05 0.48403520D+05 0.48403520D+05 0.11485371D+01  1  2  3  1  7  1        2 -.292140356235D-04 0.100000000000D+01
0.204170708493D-06 0.000000000000D+00 0.000000000000D+00 0.325456163607D-08 0.000000000000D+00  7 2 -2 23 -11 11 23 21 2 0.33424699D+00 0.49568254D-02 0.48403520D+05 0.48403520D+05 0.48403520D+05 0.11485371D+01  1  2 15  1  7  1        2 0.343125156604D-04 0.100000000000D+01
  </mgrwgt>
  </event>
  <event>
  8     66 0.55102590E-06 0.20921524E+03 0.75467711E-02 0.90602362E-01
        2 -1    0    0  501    0 0.00000000E+00 0.00000000E+00 0.16413445E+04 0.16413445E+04 0.32000000E+00 0.0000E+00 0.9000E+01
       -2 -1    0    0    0  501 0.00000000E+00 0.00000000E+00 -.37812960E+03 0.37812974E+03 0.32000000E+00 0.0000E+00 0.9000E+01
       25  2    1    2    0    0 0.28196993E+03 -.63901670E+03 0.10248633E+04 0.12758333E+04 0.29925980E+03 0.0000E+00 0.0000E+00
       23  2    1    2    0    0 -.28196993E+03 0.63901670E+03 0.23835159E+03 0.74364097E+03 0.91329240E+02 0.0000E+00 0.0000E+00
       23  1    3    3    0    0 0.22030191E+02 -.72829989E+02 0.25483025E+03 0.28114631E+03 0.91188000E+02 0.0000E+00 0.9000E+01
      -13  1    4    4    0    0 -.19514874E+03 0.49851190E+03 0.21467955E+03 0.57678806E+03 0.10565837E+00 0.0000E+00 0.9000E+01
       13  1    4    4    0    0 -.86821193E+02 0.14050479E+03 0.23672046E+02 0.16685291E+03 0.10565837E+00 0.0000E+00 0.9000E+01
       23  1    3    3    0    0 0.25993974E+03 -.56618671E+03 0.77003305E+03 0.99468699E+03 0.91188000E+02 0.0000E+00 0.9000E+01
#aMCatNLO 1  0  0  1  1 0.20280722D+03 0.00000000D+00  -5  7  0 0.00000000D+00 0.00000000D+00 0.00000000D+00 0.00000000D+00 0.00000000D+00
  <mgrwgt>
 0.1855002088D-05    1    2    0
 0.787807788348719D+03 0.000000000000000D+00 0.000000000000000D+00 0.787807788348719D+03
 0.787807788348719D+03 0.000000000000000D+00 0.000000000000000D+00 -.787807788348719D+03
 0.156042097894563D+03 0.220301914081183D+02 -.728299892033475D+02 0.101214368103043D+03
 0.567158032183632D+03 -.195148881727577D+03 0.498512383067608D+03 -.187271330852165D+03
 0.194877163365176D+03 -.868210484679984D+02 0.140504315702211D+03 -.103429935769237D+03
 0.657538283254067D+03 0.259939738787457D+03 -.566186709566471D+03 0.189486898518358D+03
 0.000000000000000D+00 -.000000000000000D+00 -.000000000000000D+00 -.000000000000000D+00
 0.855098898147637D+03 0.000000000000000D+00 0.000000000000000D+00 0.855098898147637D+03
 0.951053351341028D+03 0.000000000000000D+00 0.000000000000000D+00 -.951053351341028D+03
 0.156562117619633D+03 0.401303049938734D+02 -.658912409971487D+02 0.101214368103043D+03
 0.571066657352766D+03 -.129244472432162D+03 0.523777092021647D+03 -.187271330852165D+03
 0.192550280890311D+03 -.643885910690204D+02 0.149103884583386D+03 -.103429935769237D+03
 0.667600473354912D+03 0.336666669587338D+03 -.536773145340344D+03 0.189486898518358D+03
 0.218372720271043D+03 -.183163911080029D+03 -.702165902675403D+02 -.959544531933910D+02
0.439294961905D-06 0.000000000000D+00 0.000000000000D+00 0.145841010517D-05 0.000000000000D+00  7 2 -2 23 -13 13 23 21 2 0.25251455D+00 0.58173798D-01 0.52484244D+06 0.52484244D+06 0.52484244D+06 0.10670252D+01  1  2 14  1  7  1        2 0.185500208777D-05 0.100000000000D+01
  </mgrwgt>
  </event>
  <event>
  8     66 0.55102590E-06 0.26747607E+03 0.75467711E-02 0.97781155E-01
        2 -1    0    0  501    0 0.00000000E+00 0.00000000E+00 0.13045661E+04 0.13045662E+04 0.32000000E+00 0.0000E+00 0.9000E+01
       -2 -1    0    0    0  501 0.00000000E+00 0.00000000E+00 -.21098262E+03 0.21098287E+03 0.32000000E+00 0.0000E+00 0.9000E+01
       25  2    1    2    0    0 0.16541970E+03 -.54608856E+02 -.53274363E+02 0.35210472E+03 0.30132005E+03 0.0000E+00 0.0000E+00
       23  2    1    2    0    0 -.16541970E+03 0.54608856E+02 0.11468579E+04 0.11634443E+04 0.89296667E+02 0.0000E+00 0.0000E+00
       23  1    3    3    0    0 0.76786225E+02 0.91194828E+02 0.46079352E+01 0.15016360E+03 0.91188000E+02 0.0000E+00 0.9000E+01
      -13  1    4    4    0    0 0.79942035E+01 -.31770372E+01 0.18823957E+02 0.20696699E+02 0.10565837E+00 0.0000E+00 0.9000E+01
       13  1    4    4    0    0 -.17341390E+03 0.57785893E+02 0.11280339E+04 0.11427476E+04 0.10565837E+00 0.0000E+00 0.9000E+01
       23  1    3    3    0    0 0.88633470E+02 -.14580368E+03 -.57882298E+02 0.20194113E+03 0.91188000E+02 0.0000E+00 0.9000E+01
#aMCatNLO 1  0  0  2  2 0.21489244D+03 0.00000000D+00  -5  7  0 0.00000000D+00 0.00000000D+00 0.00000000D+00 0.00000000D+00 0.00000000D+00
  <mgrwgt>
 0.2381380008D-03    4    2    0
 0.524634158106890D+03 0.000000000000000D+00 0.000000000000000D+00 0.524634158106890D+03
 0.524634158106890D+03 0.000000000000000D+00 0.000000000000000D+00 -.524634158106890D+03
 0.212091729375778D+03 0.767862247143101D+02 0.911948281080121D+02 -.149850022843114D+03
 0.102744087904592D+02 0.799445748639322D+01 -.317712251263221D+01 0.561765235943297D+01
 0.474894210319486D+03 -.173414152662099D+03 0.577859786458335D+02 0.438306768511960D+03
 0.352007967728058D+03 0.886334704613959D+02 -.145803684241213D+03 -.294074398028280D+03
 0.000000000000000D+00 -.000000000000000D+00 -.000000000000000D+00 0.000000000000000D+00
 0.666101351216573D+03 0.000000000000000D+00 0.000000000000000D+00 0.666101351216573D+03
 0.623936237092623D+03 0.000000000000000D+00 0.000000000000000D+00 -.623936237092623D+03
 0.240333070326593D+03 0.113200859136748D+03 0.119059940757701D+03 -.149850022843114D+03
 0.113925136779537D+02 0.973837837946895D+01 -.184264386391183D+01 0.561765235943297D+01
 0.463738266342774D+03 -.978657775129706D+02 0.115596911459545D+03 0.438306768511960D+03
 0.355583655110829D+03 0.145585897213883D+03 -.102222695105885D+03 -.294074398028280D+03
 0.218990082851047D+03 -.170659357217130D+03 -.130591513247449D+03 0.421651141239494D+02
0.188374693486D-04 0.000000000000D+00 0.000000000000D+00 0.178890358401D-06 0.000000000000D+00  7 2 -2 23 -13 13 23 21 0 0.20070250D+00 0.32458887D-01 0.71543448D+05 0.71543448D+05 0.71543448D+05 0.11338553D+01  1  2  2  2  7  2       -2 0.353024871712D-03 0.100000000000D+01
-.469058830701D-06 0.000000000000D+00 -.723408423182D-07 0.178890358401D-06 0.000000000000D+00  7 2 -2 23 -13 13 23 21 2 0.20070250D+00 0.32458887D-01 0.71543448D+05 0.71543448D+05 0.71543448D+05 0.11338553D+01  1  2  3  2  7  2       -2 -.113012200263D-04 0.100000000000D+01
0.115105759108D-05 0.000000000000D+00 0.000000000000D+00 0.178890358401D-06 0.000000000000D+00  7 2 -2 23 -13 13 23 21 2 0.20070250D+00 0.32458887D-01 0.71543448D+05 0.71543448D+05 0.71543448D+05 0.11338553D+01  1  2 15  2  7  2       -2 0.277328860439D-04 0.100000000000D+01
-.545039555447D-05 0.000000000000D+00 0.000000000000D+00 0.178890358401D-06 0.000000000000D+00  7 2 -2 23 -13 13 23 21 2 0.20070250D+00 0.32458887D-01 0.71543448D+05 0.71543448D+05 0.71543448D+05 0.11338553D+01  1  2  4  2  7  2       -2 -.131318536951D-03 0.100000000000D+01
  </mgrwgt>
  </event>
  <event>
  8     66 0.55102590E-06 0.97495576E+03 0.75467711E-02 0.76485591E-01
        2 -1    0    0  501    0 0.00000000E+00 0.00000000E+00 0.13723703E+04 0.13723703E+04 0.32000000E+00 0.0000E+00 0.9000E+01
       -2 -1    0    0    0  501 0.00000000E+00 0.00000000E+00 -.92210699E+03 0.92210705E+03 0.32000000E+00 0.0000E+00 0.9000E+01
       25  2    1    2    0    0 0.46070792E+03 -.83281393E+03 -.34003619E+03 0.10541220E+04 0.29952913E+03 0.0000E+00 0.0000E+00
       23  2    1    2    0    0 -.46070792E+03 0.83281393E+03 0.79029945E+03 0.12403554E+04 0.89874155E+02 0.0000E+00 0.0000E+00
       23  1    3    3    0    0 0.20269029E+02 -.12153274E+03 -.82289329E+02 0.17397651E+03 0.91188000E+02 0.0000E+00 0.9000E+01
      -13  1    4    4    0    0 -.41682214E+03 0.69475614E+03 0.65038019E+03 0.10389520E+04 0.10565837E+00 0.0000E+00 0.9000E+01
       13  1    4    4    0    0 -.43885785E+02 0.13805780E+03 0.13991926E+03 0.20140339E+03 0.10565837E+00 0.0000E+00 0.9000E+01
       23  1    3    3    0    0 0.44043889E+03 -.71128119E+03 -.25774686E+03 0.88014547E+03 0.91188000E+02 0.0000E+00 0.9000E+01
#aMCatNLO 1  0  0  1  1 0.34031668D+04 0.00000000D+00  -5  7  0 0.00000000D+00 0.00000000D+00 0.00000000D+00 0.00000000D+00 0.00000000D+00
  <mgrwgt>
 0.3224735654D-03    5    2    0
 0.112493213755691D+04 0.000000000000000D+00 0.000000000000000D+00 0.112493213755691D+04
 0.112493213755691D+04 0.000000000000000D+00 0.000000000000000D+00 -.112493213755691D+04
 0.193894817166799D+03 0.202690293090602D+02 -.121532743514417D+03 -.118738820462703D+03
 0.929394630015227D+03 -.416822654457452D+03 0.694756905888100D+03 0.455352714665212D+03
 0.177394116334379D+03 -.438852696631462D+02 0.138057027966207D+03 0.102386584305688D+03
 0.949180711597410D+03 0.440438894811538D+03 -.711281190339890D+03 -.439000478508198D+03
 0.000000000000000D+00 0.000000000000000D+00 0.000000000000000D+00 0.000000000000000D+00
 0.504313412724315D+04 0.000000000000000D+00 0.000000000000000D+00 0.504313412724315D+04
 0.300388137326891D+04 0.000000000000000D+00 0.000000000000000D+00 -.300388137326891D+04
 0.499221368629566D+03 -.155511021041368D+03 -.450137910425432D+03 -.118738820462703D+03
 0.105599781365286D+04 -.920334750791425D+03 -.246514166271067D+03 0.455352714665212D+03
 0.168839749288436D+03 -.131693068094912D+03 -.260918399072330D+02 0.102386584305688D+03
 0.235557754503002D+04 -.397675384800211D+03 -.227806127825816D+04 -.439000478508198D+03
 0.396737902391119D+04 0.160521422472792D+04 0.300080519486190D+04 0.203925275397424D+04
0.521972544827D-03 0.000000000000D+00 0.000000000000D+00 0.196113268238D-05 0.000000000000D+00  7 2 -2 23 -13 13 23 21 0 0.21113389D+00 0.14186262D+00 0.95053874D+06 0.95053874D+06 0.95053874D+06 0.10493336D+01  1  2  2  1  7  1        2 0.319494695863D-03 0.100000000000D+01
-.282766192049D-04 0.000000000000D+00 -.200451201066D-05 0.196113268238D-05 0.000000000000D+00  7 2 -2 23 -13 13 23 21 2 0.21113389D+00 0.14186262D+00 0.95053874D+06 0.95053874D+06 0.95053874D+06 0.10493336D+01  1  2  3  1  7  1        2 -.190577060432D-04 0.100000000000D+01
0.326963764617D-04 0.000000000000D+00 0.000000000000D+00 0.196113268238D-05 0.000000000000D+00  7 2 -2 23 -13 13 23 21 2 0.21113389D+00 0.14186262D+00 0.95053874D+06 0.95053874D+06 0.95053874D+06 0.10493336D+01  1  2 15  1  7  1        2 0.220365075036D-04 0.100000000000D+01
0.203965207743D-03 0.000000000000D+00 -.174793726071D-03 0.196113268238D-05 0.000000000000D+00  7 2 -2 23 -13 13 23 21 2 0.96856330D+00 0.14186262D+00 0.95053874D+06 0.95053874D+06 0.95053874D+06 0.10493336D+01  1  2  5  1  7  1        2 0.680471524086D-10 0.100000000000D+01
0.354882365671D-04 0.000000000000D+00 -.322505140152D-04 0.196113268238D-05 0.000000000000D+00  7 21 -2 23 -13 13 23 -2 2 0.96856330D+00 0.14186262D+00 0.95053874D+06 0.95053874D+06 0.95053874D+06 0.10493336D+01  1  2  5  3  7  1        2 0.567273157886D-13 0.100000000000D+01
  </mgrwgt>
  </event>
  <event>
  8     66 0.55102590E-06 0.42285797E+03 0.75467711E-02 0.92936941E-01
        2 -1    0    0  501    0 0.00000000E+00 0.00000000E+00 0.19811037E+04 0.19811037E+04 0.32000000E+00 0.0000E+00 0.9000E+01
       -2 -1    0    0    0  501 0.00000000E+00 0.00000000E+00 -.11923039E+03 0.11923082E+03 0.32000000E+00 0.0000E+00 0.9000E+01
       25  2    1    2    0    0 -.36219145E+03 -.15748989E+03 0.14202067E+04 0.15041511E+04 0.29916216E+03 0.0000E+00 0.0000E+00
       23  2    1    2    0    0 0.36219145E+03 0.15748989E+03 0.44166664E+03 0.59618340E+03 0.66177920E+02 0.0000E+00 0.0000E+00
       23  1    3    3    0    0 -.70403796E+02 -.59600613E+02 0.74887484E+03 0.76002481E+03 0.91188000E+02 0.0000E+00 0.9000E+01
      -11  1    4    4    0    0 0.17223819E+03 0.78734215E+02 0.16305226E+03 0.24990220E+03 0.51099893E-03 0.0000E+00 0.9000E+01
       11  1    4    4    0    0 0.18995326E+03 0.78755674E+02 0.27861438E+03 0.34628120E+03 0.51099893E-03 0.0000E+00 0.9000E+01
       23  1    3    3    0    0 -.29178765E+03 -.97889276E+02 0.67133181E+03 0.74412633E+03 0.91188000E+02 0.0000E+00 0.9000E+01
#aMCatNLO 1  0  0  2  2 0.27890519D+03 0.00000000D+00  -5  7  0 0.00000000D+00 0.00000000D+00 0.00000000D+00 0.00000000D+00 0.00000000D+00
  <mgrwgt>
 0.1512792157D-02    3    2    0
 0.486012605961762D+03 0.000000000000000D+00 0.000000000000000D+00 0.486012605961762D+03
 0.486012605961762D+03 0.000000000000000D+00 0.000000000000000D+00 -.486012605961762D+03
 0.207809716970607D+03 -.704037956741198D+02 -.596006127951119D+02 0.162359784529692D+03
 0.227664442742726D+03 0.172238190313276D+03 0.787342146252131D+02 -.126356747878039D+03
 0.214564072071643D+03 0.189953256348480D+03 0.787556741579904D+02 -.612621025960934D+02
 0.321986980138547D+03 -.291787650987637D+03 -.978892759880917D+02 0.252590659444409D+02
 0.000000000000000D+00 -.000000000000000D+00 -.000000000000000D+00 0.000000000000000D+00
 0.101370433936775D+04 0.000000000000000D+00 0.000000000000000D+00 0.101370433936775D+04
 0.543899121275636D+03 0.000000000000000D+00 0.000000000000000D+00 -.543899121275636D+03
 0.192092909665554D+03 -.163018167967982D+02 -.442491326058981D+02 0.162359784529692D+03
 0.290561498289186D+03 0.242347879642467D+03 0.986278955800175D+02 -.126356747878039D+03
 0.281824170469166D+03 0.257108569727623D+03 0.978110485515598D+02 -.612621025960934D+02
 0.246768728697317D+03 -.214841896455772D+03 -.760558560124838D+02 0.252590659444409D+02
 0.546356153522167D+03 -.268312736117519D+03 -.761339555131955D+02 0.469805218092119D+03
0.719089711098D-04 0.000000000000D+00 0.000000000000D+00 0.868928472034D-09 0.000000000000D+00  7 2 -2 23 -11 11 23 21 0 0.30478522D+00 0.18343173D-01 0.17880886D+06 0.17880886D+06 0.17880886D+06 0.11015808D+01  1  2  2  2  7  2       -2 0.149468774816D-02 0.100000000000D+01
-.390082771861D-05 0.000000000000D+00 -.276149383128D-06 0.868928472034D-09 0.000000000000D+00  7 2 -2 23 -11 11 23 21 2 0.30478522D+00 0.18343173D-01 0.17880886D+06 0.17880886D+06 0.17880886D+06 0.11015808D+01  1  2  3  2  7  2       -2 -.983913403867D-04 0.100000000000D+01
0.461859594603D-05 0.000000000000D+00 0.000000000000D+00 0.868928472034D-09 0.000000000000D+00  7 2 -2 23 -11 11 23 21 2 0.30478522D+00 0.18343173D-01 0.17880886D+06 0.17880886D+06 0.17880886D+06 0.11015808D+01  1  2 15  2  7  2       -2 0.116495748753D-03 0.100000000000D+01
  </mgrwgt>
  </event>
  <event>
  8     66 0.55102590E-06 0.17735917E+03 0.75467711E-02 0.97666615E-01
        2 -1    0    0  501    0 0.00000000E+00 0.00000000E+00 0.34181251E+03 0.34181266E+03 0.32000000E+00 0.0000E+00 0.9000E+01
       -2 -1    0    0    0  501 0.00000000E+00 0.00000000E+00 -.56197566E+03 0.56197575E+03 0.32000000E+00 0.0000E+00 0.9000E+01
       25  2    1    2    0    0 -.31371218E+03 -.11749976E+02 0.10057666E+03 0.44606920E+03 0.30051402E+03 0.0000E+00 0.0000E+00
       23  2    1    2    0    0 0.31371218E+03 0.11749976E+02 -.32073981E+03 0.45771921E+03 0.89885762E+02 0.0000E+00 0.0000E+00
       23  1    3    3    0    0 -.17121894E+03 0.10912647E+03 0.82468657E+02 0.23736226E+03 0.91188000E+02 0.0000E+00 0.9000E+01
      -11  1    4    4    0    0 0.19044399E+02 -.20725668E+02 -.43617001E+02 0.51910357E+02 0.51099893E-03 0.0000E+00 0.9000E+01
       11  1    4    4    0    0 0.29466778E+03 0.32475644E+02 -.27712281E+03 0.40580885E+03 0.51099893E-03 0.0000E+00 0.9000E+01
       23  1    3    3    0    0 -.14249324E+03 -.12087644E+03 0.18108001E+02 0.20870694E+03 0.91188000E+02 0.0000E+00 0.9000E+01
#aMCatNLO 1  0  0  2  1 0.15683066D+02 0.00000000D+00  -5  7  0 0.00000000D+00 0.00000000D+00 0.00000000D+00 0.00000000D+00 0.00000000D+00
  <mgrwgt>
 0.2428120567D-03    9    2    0
 0.438281209452833D+03 0.000000000000000D+00 0.000000000000000D+00 0.438281209452833D+03
 0.438281209452833D+03 0.000000000000000D+00 0.000000000000000D+00 -.438281209452833D+03
 0.265448087190263D+03 -.171218939715785D+03 0.109126465350361D+03 0.144647588613527D+03
 0.425675591713003D+02 0.190443985970144D+02 -.207256677968084D+02 -.319335978282517D+02
 0.348809275026384D+03 0.294667781692835D+03 0.324756440958673D+02 -.183804628116961D+03
 0.219737497517718D+03 -.142493240574064D+03 -.120876441649420D+03 0.710906373316859D+02
 0.000000000000000D+00 -.000000000000000D+00 -.000000000000000D+00 -.000000000000000D+00
 0.445294824920053D+03 0.000000000000000D+00 0.000000000000000D+00 0.445294824920053D+03
 0.447207099831183D+03 0.000000000000000D+00 0.000000000000000D+00 -.447207099831183D+03
 0.264030849313640D+03 -.167283022693584D+03 0.111760921041623D+03 0.144647588613527D+03
 0.426512697766017D+02 0.196778784511570D+02 -.203016561630184D+02 -.319335978282517D+02
 0.353569509727052D+03 0.299888961279690D+03 0.359703738373991D+02 -.183804628116961D+03
 0.216451076089063D+03 -.139250803692468D+03 -.118706158015875D+03 0.710906373316859D+02
 0.157992198448796D+02 -.130330133447945D+02 -.872348070012849D+01 -.191227491112906D+01
0.774572736290D-05 0.000000000000D+00 0.000000000000D+00 0.293335921672D-06 0.000000000000D+00  7 2 -2 23 -11 11 23 21 0 0.52586558D-01 0.86457813D-01 0.14254173D+06 0.14254173D+06 0.14254173D+06 0.11093040D+01  1  2  2  2  7  2       -2 0.106677314661D-03 0.100000000000D+01
-.418676680723D-06 0.000000000000D+00 -.297456325704D-07 0.293335921672D-06 0.000000000000D+00  7 2 -2 23 -11 11 23 21 2 0.52586558D-01 0.86457813D-01 0.14254173D+06 0.14254173D+06 0.14254173D+06 0.11093040D+01  1  2  3  2  7  2       -2 -.709561149833D-05 0.100000000000D+01
0.494701925308D-06 0.000000000000D+00 0.000000000000D+00 0.293335921672D-06 0.000000000000D+00  7 2 -2 23 -11 11 23 21 2 0.52586558D-01 0.86457813D-01 0.14254173D+06 0.14254173D+06 0.14254173D+06 0.11093040D+01  1  2 15  2  7  2       -2 0.838406539242D-05 0.100000000000D+01
0.953428243015D-05 0.000000000000D+00 0.000000000000D+00 0.293335921672D-06 0.000000000000D+00  7 2 -2 23 -11 11 23 21 2 0.52586558D-01 0.88897819D-01 0.14873424D+06 0.14873424D+06 0.14873424D+06 0.11078424D+01  1  2 12  2  7  2       -2 0.151034722794D-03 0.100000000000D+01
-.789858981600D-05 0.000000000000D+00 0.000000000000D+00 0.293335921672D-06 0.000000000000D+00  7 2 -2 23 -11 11 23 21 2 0.52586558D-01 0.86457813D-01 0.14254173D+06 0.14254173D+06 0.14254173D+06 0.11093040D+01  1  2  4  2  7  2       -2 -.133863019603D-03 0.100000000000D+01
-.199328505135D-03 0.000000000000D+00 -.286639798345D-04 0.293335921672D-06 0.000000000000D+00  7 2 -2 23 -11 11 23 21 2 0.52586558D-01 0.89375346D-01 0.14254173D+06 0.14254173D+06 0.14254173D+06 0.11093040D+01  1  2  5  2  7  2       -2 -.312983511227D-02 0.100000000000D+01
0.200185334071D-03 0.000000000000D+00 0.286482009254D-04 0.293335921672D-06 0.000000000000D+00  7 2 -2 23 -11 11 23 21 2 0.52586558D-01 0.86457813D-01 0.14254173D+06 0.14254173D+06 0.14254173D+06 0.11093040D+01  1  2  6  2  7  2       -2 0.339268324135D-02 0.100000000000D+01
0.206783316763D-06 0.000000000000D+00 0.000000000000D+00 0.293335921672D-06 0.000000000000D+00  7 2 21 23 -11 11 23 2 2 0.52586558D-01 0.88897819D-01 0.14873424D+06 0.14873424D+06 0.14873424D+06 0.11078424D+01  1  2 12  4  7  2       -2 0.314984645717D-04 0.100000000000D+01
-.116953815825D-05 0.000000000000D+00 -.169815552546D-06 0.293335921672D-06 0.000000000000D+00  7 2 21 23 -11 11 23 2 2 0.52586558D-01 0.89375346D-01 0.14254173D+06 0.14254173D+06 0.14254173D+06 0.11093040D+01  1  2  5  4  7  2       -2 -.176672008702D-03 0.100000000000D+01
  </mgrwgt>
  </event>
  <event>
  8     66 0.55102590E-06 0.27522291E+03 0.75467711E-02 0.98614274E-01
        2 -1    0    0  501    0 0.00000000E+00 0.00000000E+00 0.98663777E+03 0.98663782E+03 0.32000000E+00 0.0000E+00 0.9000E+01
       -2 -1    0    0    0  501 0.00000000E+00 0.00000000E+00 -.13866275E+03 0.13866312E+03 0.32000000E+00 0.0000E+00 0.9000E+01
       25  2    1    2    0    0 0.25034491E+03 0.14285813E+03 0.32363375E+03 0.52002527E+03 0.28741339E+03 0.0000E+00 0.0000E+00
       23  2    1    2    0    0 -.25034491E+03 -.14285813E+03 0.52434126E+03 0.60527567E+03 0.91344717E+02 0.0000E+00 0.0000E+00
       23  1    3    3    0    0 0.26318990E+03 0.90338241E+02 0.28075288E+03 0.40566902E+03 0.91188000E+02 0.0000E+00 0.9000E+01
      -11  1    4    4    0    0 -.20156878E+02 0.10843966E+02 0.22109345E+02 0.31823175E+02 0.51099893E-03 0.0000E+00 0.9000E+01
       11  1    4    4    0    0 -.23018803E+03 -.15370209E+03 0.50223192E+03 0.57345250E+03 0.51099893E-03 0.0000E+00 0.9000E+01
       23  1    3    3    0    0 -.12844990E+02 0.52519887E+02 0.42880874E+02 0.11435625E+03 0.91188000E+02 0.0000E+00 0.9000E+01
#aMCatNLO 1  0  0  2  1 0.15396857D+02 0.00000000D+00  -5  7  0 0.00000000D+00 0.00000000D+00 0.00000000D+00 0.00000000D+00 0.00000000D+00
  <mgrwgt>
 0.1755660041D-02    9    2    0
 0.369878556190074D+03 0.000000000000000D+00 0.000000000000000D+00 0.369878556190074D+03
 0.369878556190074D+03 0.000000000000000D+00 0.000000000000000D+00 -.369878556190074D+03
 0.295270296478465D+03 0.263189901149316D+03 0.903382412266124D+02 -.379390925507797D+02
 0.230649718342379D+02 -.201568783746137D+02 0.108439660982150D+02 -.284632731181459D+01
 0.296619675671064D+03 -.230188032374791D+03 -.153702094710809D+03 0.106641304512553D+03
 0.124802168396381D+03 -.128449903999106D+02 0.525198873859811D+02 -.658558846499587D+02
 0.000000000000000D+00 -.000000000000000D+00 0.000000000000000D+00 -.000000000000000D+00
 0.374030930132866D+03 0.000000000000000D+00 0.000000000000000D+00 0.374030930132866D+03
 0.384512177826537D+03 0.000000000000000D+00 0.000000000000000D+00 -.384512177826537D+03
 0.300070498491928D+03 0.269139023483021D+03 0.886107443610716D+02 -.379390925507797D+02
 0.226041375887316D+02 -.197005160337092D+02 0.107114483133652D+02 -.284632731181459D+01
 0.292975060908494D+03 -.224296329261459D+03 -.155412918272683D+03 0.106641304512553D+03
 0.124267628485108D+03 -.103560853831582D+02 0.517971630286908D+02 -.658558846499587D+02
 0.186257824851424D+02 -.147860928046949D+02 0.429356256955549D+01 -.104812476936716D+02
0.258832910915D-04 0.000000000000D+00 0.000000000000D+00 0.140143871355D-08 0.000000000000D+00  7 2 -2 23 -11 11 23 21 0 0.15179046D+00 0.21332764D-01 0.12197916D+06 0.12197916D+06 0.12197916D+06 0.11147093D+01  1  2  2  2  7  2       -2 0.150752240107D-02 0.100000000000D+01
-.143220584426D-05 0.000000000000D+00 -.993986530185D-07 0.140143871355D-08 0.000000000000D+00  7 2 -2 23 -11 11 23 21 2 0.15179046D+00 0.21332764D-01 0.12197916D+06 0.12197916D+06 0.12197916D+06 0.11147093D+01  1  2  3  2  7  2       -2 -.103650881393D-03 0.100000000000D+01
0.164591252897D-05 0.000000000000D+00 0.000000000000D+00 0.140143871355D-08 0.000000000000D+00  7 2 -2 23 -11 11 23 21 2 0.15179046D+00 0.21332764D-01 0.12197916D+06 0.12197916D+06 0.12197916D+06 0.11147093D+01  1  2 15  2  7  2       -2 0.119117154149D-03 0.100000000000D+01
0.829581661915D-04 0.000000000000D+00 0.000000000000D+00 0.140143871355D-08 0.000000000000D+00  7 2 -2 23 -11 11 23 21 2 0.15179046D+00 0.22293372D-01 0.12735734D+06 0.12735734D+06 0.12735734D+06 0.11132042D+01  1  2 12  2  7  2       -2 0.555825645963D-02 0.100000000000D+01
-.826362538740D-04 0.000000000000D+00 0.000000000000D+00 0.140143871355D-08 0.000000000000D+00  7 2 -2 23 -11 11 23 21 2 0.15179046D+00 0.21332764D-01 0.12197916D+06 0.12197916D+06 0.12197916D+06 0.11147093D+01  1  2  4  2  7  2       -2 -.598050942425D-02 0.100000000000D+01
-.520138403301D-03 0.000000000000D+00 -.697978962528D-04 0.140143871355D-08 0.000000000000D+00  7 2 -2 23 -11 11 23 21 2 0.15179046D+00 0.22408889D-01 0.12197916D+06 0.12197916D+06 0.12197916D+06 0.11147093D+01  1  2  5  2  7  2       -2 -.346615811292D-01 0.100000000000D+01
0.523024344559D-03 0.000000000000D+00 0.697134569021D-04 0.140143871355D-08 0.000000000000D+00  7 2 -2 23 -11 11 23 21 2 0.15179046D+00 0.21332764D-01 0.12197916D+06 0.12197916D+06 0.12197916D+06 0.11147093D+01  1  2  6  2  7  2       -2 0.378520549409D-01 0.100000000000D+01
0.135236466116D-05 0.000000000000D+00 0.000000000000D+00 0.140143871355D-08 0.000000000000D+00  7 2 21 23 -11 11 23 2 2 0.15179046D+00 0.22293372D-01 0.12735734D+06 0.12735734D+06 0.12735734D+06 0.11132042D+01  1  2 12  4  7  2       -2 0.113205723841D-02 0.100000000000D+01
-.440488208164D-05 0.000000000000D+00 -.599088453244D-06 0.140143871355D-08 0.000000000000D+00  7 2 21 23 -11 11 23 2 2 0.15179046D+00 0.22408889D-01 0.12197916D+06 0.12197916D+06 0.12197916D+06 0.11147093D+01  1  2  5  4  7  2       -2 -.366760671804D-02 0.100000000000D+01
  </mgrwgt>
  </event>
  <event>
  8     66 0.55102590E-06 0.26981451E+03 0.75467711E-02 0.10168807E+00
        2 -1    0    0  501    0 0.00000000E+00 0.00000000E+00 0.90345337E+02 0.90345904E+02 0.32000000E+00 0.0000E+00 0.9000E+01
       -2 -1    0    0    0  501 0.00000000E+00 0.00000000E+00 -.13516896E+04 0.13516896E+04 0.32000000E+00 0.0000E+00 0.9000E+01
       25  2    1    2    0    0 0.14623496E+03 0.14602836E+03 -.35432563E+03 0.50740802E+03 0.29867591E+03 0.0000E+00 0.0000E+00
       23  2    1    2    0    0 -.14623496E+03 -.14602836E+03 -.90701861E+03 0.93462750E+03 0.90204521E+02 0.0000E+00 0.0000E+00
       23  1    3    3    0    0 -.17911013E+02 0.42560847E+02 -.11220438E+02 0.10282694E+03 0.91188000E+02 0.0000E+00 0.9000E+01
      -13  1    4    4    0    0 -.15364987E+03 -.11717455E+03 -.82612447E+03 0.84842195E+03 0.10565837E+00 0.0000E+00 0.9000E+01
       13  1    4    4    0    0 0.74149101E+01 -.28853805E+02 -.80894144E+02 0.86205549E+02 0.10565837E+00 0.0000E+00 0.9000E+01
       23  1    3    3    0    0 0.16414597E+03 0.10346751E+03 -.34310519E+03 0.40458108E+03 0.91188000E+02 0.0000E+00 0.9000E+01
#aMCatNLO 1  0  0  1  1 0.18864746D+02 0.00000000D+00  -5  7  0 0.00000000D+00 0.00000000D+00 0.00000000D+00 0.00000000D+00 0.00000000D+00
  <mgrwgt>
 0.2525347804D-03    4    2    0
 0.349455700227761D+03 0.000000000000000D+00 0.000000000000000D+00 0.349455700227761D+03
 0.349455700227761D+03 0.000000000000000D+00 0.000000000000000D+00 -.349455700227761D+03
 0.191908824508510D+03 -.179110128867898D+02 0.425608468460002D+02 0.162423876056935D+03
 0.259585788472943D+03 -.153650091569533D+03 -.117174674410109D+03 -.173339339489565D+03
 0.318722552785795D+02 0.741513085381445D+01 -.288536841963700D+02 -.113279035686173D+02
 0.215544532195490D+03 0.164145973602509D+03 0.103467511760479D+03 0.222433670012472D+02
 0.000000000000000D+00 0.000000000000000D+00 -.000000000000000D+00 -.000000000000000D+00
 0.352896564064869D+03 0.000000000000000D+00 0.000000000000000D+00 0.352896564064869D+03
 0.376432907605903D+03 0.000000000000000D+00 0.000000000000000D+00 -.376432907605903D+03
 0.192527726747419D+03 -.230896854994565D+02 0.428605311762086D+02 0.162423876056935D+03
 0.263637950048219D+03 -.160698340327682D+03 -.116766799677294D+03 -.173339339489565D+03
 0.316390578405177D+02 0.655958187760535D+01 -.288041744781329D+02 -.113279035686173D+02
 0.211361214417493D+03 0.158395206431822D+03 0.103800302600262D+03 0.222433670012472D+02
 0.301635226171227D+02 0.188332375177116D+02 -.108985962104361D+01 -.235363435410335D+02
0.642859626353D-04 0.000000000000D+00 0.000000000000D+00 0.815335305040D-07 0.000000000000D+00  7 2 -2 23 -13 13 23 21 0 0.13899329D-01 0.20795229D+00 0.72799870D+05 0.72799870D+05 0.72799870D+05 0.11332145D+01  1  2  2  1  7  1        2 0.403739713293D-03 0.100000000000D+01
-.328095750496D-05 0.000000000000D+00 -.246875023402D-06 0.815335305040D-07 0.000000000000D+00  7 2 -2 23 -13 13 23 21 2 0.13899329D-01 0.20795229D+00 0.72799870D+05 0.72799870D+05 0.72799870D+05 0.11332145D+01  1  2  3  1  7  1        2 -.264612396736D-04 0.100000000000D+01
0.405253264880D-05 0.000000000000D+00 0.000000000000D+00 0.815335305040D-07 0.000000000000D+00  7 2 -2 23 -13 13 23 21 2 0.13899329D-01 0.20795229D+00 0.72799870D+05 0.72799870D+05 0.72799870D+05 0.11332145D+01  1  2 15  1  7  1        2 0.326840678499D-04 0.100000000000D+01
-.195196370485D-04 0.000000000000D+00 0.000000000000D+00 0.815335305040D-07 0.000000000000D+00  7 2 -2 23 -13 13 23 21 2 0.13899329D-01 0.20795229D+00 0.72799870D+05 0.72799870D+05 0.72799870D+05 0.11332145D+01  1  2  4  1  7  1        2 -.157427761103D-03 0.100000000000D+01
  </mgrwgt>
  </event>
  <event>
  8     66 0.55102590E-06 0.22905092E+03 0.75467711E-02 0.10136684E+00
        2 -1    0    0  501    0 0.00000000E+00 0.00000000E+00 0.14237928E+04 0.14237929E+04 0.32000000E+00 0.0000E+00 0.9000E+01
       -2 -1    0    0    0  501 0.00000000E+00 0.00000000E+00 -.74567415E+02 0.74568102E+02 0.32000000E+00 0.0000E+00 0.9000E+01
       25  2    1    2    0    0 0.13402927E+03 -.65653918E+01 0.32659337E+03 0.46356410E+03 0.30036894E+03 0.0000E+00 0.0000E+00
       23  2    1    2    0    0 -.13402927E+03 0.65653918E+01 0.10226321E+04 0.10347969E+04 0.83793244E+02 0.0000E+00 0.0000E+00
       23  1    3    3    0    0 0.11390898E+03 -.11133760E+03 0.22468599E+03 0.29012129E+03 0.91188000E+02 0.0000E+00 0.9000E+01
      -11  1    4    4    0    0 -.12048716E+03 0.66954586E+01 0.10066129E+04 0.10138202E+04 0.51099893E-03 0.0000E+00 0.9000E+01
       11  1    4    4    0    0 -.13542111E+02 -.13006685E+00 0.16019202E+02 0.20976666E+02 0.51099893E-03 0.0000E+00 0.9000E+01
       23  1    3    3    0    0 0.20120283E+02 0.10477221E+03 0.10190738E+03 0.17344281E+03 0.91188000E+02 0.0000E+00 0.9000E+01
#aMCatNLO 1  0  0  1  1 0.12617426D+03 0.00000000D+00  -5  7  0 0.00000000D+00 0.00000000D+00 0.00000000D+00 0.00000000D+00 0.00000000D+00
  <mgrwgt>
 0.3905711251D-03    3    2    0
 0.325835992254944D+03 0.000000000000000D+00 0.000000000000000D+00 0.325835992254944D+03
 0.325835992254944D+03 0.000000000000000D+00 0.000000000000000D+00 -.325835992254944D+03
 0.201872070986433D+03 0.113908983156402D+03 -.111337604813762D+03 -.840580930723539D+02
 0.246935564436021D+03 -.120487155403029D+03 0.669545863490832D+01 0.215441846445603D+03
 0.150644859194675D+02 -.135421111568362D+02 -.130066847965498D+00 -.659795756645845D+01
 0.187799863167967D+03 0.201202834034637D+02 0.104772213026819D+03 -.124785795806791D+03
 0.000000000000000D+00 -.000000000000000D+00 0.000000000000000D+00 -.000000000000000D+00
 0.345754683421802D+03 0.000000000000000D+00 0.000000000000000D+00 0.345754683421802D+03
 0.618887401043957D+03 0.000000000000000D+00 0.000000000000000D+00 -.618887401043957D+03
 0.234422690599048D+03 0.152315950312099D+03 -.127956378478209D+03 -.840580930723539D+02
 0.229596732355501D+03 -.785380836218525D+02 -.114559909846070D+02 0.215441846445603D+03
 0.129478925800035D+02 -.110761853752099D+02 -.119707800435390D+01 -.659795756645845D+01
 0.186806982572641D+03 0.530968719106807D+02 0.905031753700475D+02 -.124785795806791D+03
 0.300867786358567D+03 -.115798553225717D+03 0.501062720971224D+02 -.273132717622155D+03
0.426901454303D-05 0.000000000000D+00 0.000000000000D+00 0.149459234382D-07 0.000000000000D+00  7 2 -2 23 -11 11 23 21 0 0.21904511D+00 0.11471966D-01 0.52464325D+05 0.52464325D+05 0.52464325D+05 0.11454621D+01  1  2  2  1  7  1        2 0.383317221483D-03 0.100000000000D+01
-.201347010025D-06 0.000000000000D+00 -.163941399026D-07 0.149459234382D-07 0.000000000000D+00  7 2 -2 23 -11 11 23 21 2 0.21904511D+00 0.11471966D-01 0.52464325D+05 0.52464325D+05 0.52464325D+05 0.11454621D+01  1  2  3  1  7  1        2 -.237212359592D-04 0.100000000000D+01
0.262918498129D-06 0.000000000000D+00 0.000000000000D+00 0.149459234382D-07 0.000000000000D+00  7 2 -2 23 -11 11 23 21 2 0.21904511D+00 0.11471966D-01 0.52464325D+05 0.52464325D+05 0.52464325D+05 0.11454621D+01  1  2 15  1  7  1        2 0.309751395432D-04 0.100000000000D+01
  </mgrwgt>
  </event>
  <event>
  8     66 0.55102590E-06 0.19676144E+03 0.75467711E-02 0.93820602E-01
        2 -1    0    0  501    0 0.00000000E+00 0.00000000E+00 0.18810902E+04 0.18810902E+04 0.32000000E+00 0.0000E+00 0.9000E+01
       -2 -1    0    0    0  501 0.00000000E+00 0.00000000E+00 -.81179142E+02 0.81179772E+02 0.32000000E+00 0.0000E+00 0.9000E+01
       25  2    1    2    0    0 0.27950105E+03 -.25910079E+02 0.14382770E+04 0.14958314E+04 0.30013113E+03 0.0000E+00 0.0000E+00
       23  2    1    2    0    0 -.27950105E+03 0.25910079E+02 0.36163408E+03 0.46643861E+03 0.89406951E+02 0.0000E+00 0.0000E+00
       23  1    3    3    0    0 -.12366477E+01 -.13811509E+00 0.16491578E+03 0.18845163E+03 0.91188000E+02 0.0000E+00 0.9000E+01
      -13  1    4    4    0    0 -.27836955E+03 0.99246171E+01 0.34064203E+03 0.44002852E+03 0.10565837E+00 0.0000E+00 0.9000E+01
       13  1    4    4    0    0 -.11315059E+01 0.15985462E+02 0.20992051E+02 0.26410087E+02 0.10565837E+00 0.0000E+00 0.9000E+01
       23  1    3    3    0    0 0.28073770E+03 -.25771964E+02 0.12733612E+04 0.13073797E+04 0.91188000E+02 0.0000E+00 0.9000E+01
#aMCatNLO 1  0  0  1  2 0.33128539D+03 0.00000000D+00  -5  7  0 0.00000000D+00 0.00000000D+00 0.00000000D+00 0.00000000D+00 0.00000000D+00
  <mgrwgt>
 0.4141161779D-03    8    2    0
 0.390776064084765D+03 0.000000000000000D+00 0.000000000000000D+00 0.390776064084765D+03
 0.390776064084765D+03 0.000000000000000D+00 0.000000000000000D+00 -.390776064084765D+03
 0.933517122485262D+02 -.123664766321556D+01 -.138115095905118D+00 -.199434817047821D+02
 0.320298216648524D+03 -.278369932395714D+03 0.992460871609030D+01 -.158122201060010D+03
 0.179636969886437D+02 -.113111880973489D+01 0.159854704125062D+02 -.811663202498168D+01
 0.349938502283836D+03 0.280737698868665D+03 -.257719640326914D+02 0.186182314789774D+03
 0.000000000000000D+00 0.000000000000000D+00 0.000000000000000D+00 0.000000000000000D+00
 0.720193796811226D+03 0.000000000000000D+00 0.000000000000000D+00 0.720193796811226D+03
 0.517202327936835D+03 0.000000000000000D+00 0.000000000000000D+00 -.517202327936835D+03
 0.101904991867550D+03 -.385643998188352D+02 -.135801556555700D+02 -.199434817047821D+02
 0.457476691051748D+03 -.427059264825685D+03 -.436196826460206D+02 -.158122201060010D+03
 0.176662320413419D+02 -.794258869587498D+01 0.135326022596446D+02 -.811663202498168D+01
 0.271818232320927D+03 0.161874782506947D+03 -.685755096657957D+02 0.186182314789774D+03
 0.388529977466494D+03 0.311691470833449D+03 0.112242745707742D+03 0.202991468874391D+03
0.623902527245D-05 0.000000000000D+00 0.000000000000D+00 0.380848701930D-06 0.000000000000D+00  7 2 -2 23 -13 13 23 21 0 0.28939854D+00 0.12489149D-01 0.11630410D+06 0.11630410D+06 0.11630410D+06 0.11163786D+01  1  2  2  1  7  1        2 0.275958632119D-03 0.100000000000D+01
-.338800205505D-06 0.000000000000D+00 -.239594998193D-07 0.380848701930D-06 0.000000000000D+00  7 2 -2 23 -13 13 23 21 2 0.28939854D+00 0.12489149D-01 0.11630410D+06 0.11630410D+06 0.11630410D+06 0.11163786D+01  1  2  3  1  7  1        2 -.186764330652D-04 0.100000000000D+01
0.395856156936D-06 0.000000000000D+00 0.000000000000D+00 0.380848701930D-06 0.000000000000D+00  7 2 -2 23 -13 13 23 21 2 0.28939854D+00 0.12489149D-01 0.11630410D+06 0.11630410D+06 0.11630410D+06 0.11163786D+01  1  2 15  1  7  1        2 0.218216544687D-04 0.100000000000D+01
0.269471315425D-08 0.000000000000D+00 0.000000000000D+00 0.380848701930D-06 0.000000000000D+00  7 2 -2 23 -13 13 23 21 2 0.54781252D+00 0.12489149D-01 0.28849568D+06 0.28849568D+06 0.28849568D+06 0.10858105D+01  1  2 12  1  7  1        2 0.129562988036D-07 0.100000000000D+01
-.186516649197D-05 0.000000000000D+00 -.153857861923D-05 0.380848701930D-06 0.000000000000D+00  7 2 -2 23 -13 13 23 21 2 0.57225517D+00 0.12489149D-01 0.11630410D+06 0.11630410D+06 0.11630410D+06 0.11163786D+01  1  2  5  1  7  1        2 -.767448635997D-05 0.100000000000D+01
0.258827184770D-05 0.000000000000D+00 0.123923481582D-05 0.380848701930D-06 0.000000000000D+00  7 2 -2 23 -13 13 23 21 2 0.28939854D+00 0.12489149D-01 0.11630410D+06 0.11630410D+06 0.11630410D+06 0.11163786D+01  1  2  6  1  7  1        2 0.142679033639D-03 0.100000000000D+01
0.186933559994D-09 0.000000000000D+00 0.000000000000D+00 0.380848701930D-06 0.000000000000D+00  7 21 -2 23 -13 13 23 -2 2 0.54781252D+00 0.12489149D-01 0.28849568D+06 0.28849568D+06 0.28849568D+06 0.10858105D+01  1  2 12  3  7  1        2 0.292045206191D-10 0.100000000000D+01
-.462314795528D-07 0.000000000000D+00 -.113566871006D-06 0.380848701930D-06 0.000000000000D+00  7 21 -2 23 -13 13 23 -2 2 0.57225517D+00 0.12489149D-01 0.11630410D+06 0.11630410D+06 0.11630410D+06 0.11163786D+01  1  2  5  3  7  1        2 -.520837553447D-08 0.100000000000D+01
  </mgrwgt>
  </event>
  <event>
  8     66 0.55102590E-06 0.39708965E+03 0.75467711E-02 0.87817834E-01
        2 -1    0    0  501    0 0.00000000E+00 0.00000000E+00 0.11489474E+04 0.11489475E+04 0.32000000E+00 0.0000E+00 0.9000E+01
       -2 -1    0    0    0  501 0.00000000E+00 0.00000000E+00 -.46689538E+03 0.46689549E+03 0.32000000E+00 0.0000E+00 0.9000E+01
       25  2    1    2    0    0 0.30917593E+03 -.18322588E+03 0.10147190E+04 0.11175790E+04 0.30027762E+03 0.0000E+00 0.0000E+00
       23  2    1    2    0    0 -.30917593E+03 0.18322588E+03 -.33266700E+03 0.49826394E+03 0.91859411E+02 0.0000E+00 0.0000E+00
       23  1    3    3    0    0 0.28346245E+03 -.15329700E+03 0.56319116E+03 0.65524840E+03 0.91188000E+02 0.0000E+00 0.9000E+01
      -13  1    4    4    0    0 -.52798196E+02 0.39974534E+02 -.19727144E+02 0.69099814E+02 0.10565837E+00 0.0000E+00 0.9000E+01
       13  1    4    4    0    0 -.25637773E+03 0.14325134E+03 -.31293985E+03 0.42916413E+03 0.10565837E+00 0.0000E+00 0.9000E+01
       23  1    3    3    0    0 0.25713476E+02 -.29928879E+02 0.45152789E+03 0.46233062E+03 0.91188000E+02 0.0000E+00 0.9000E+01
#aMCatNLO 1  0  0  1  2 0.80267398D+03 0.00000000D+00  -5  7  0 0.00000000D+00 0.00000000D+00 0.00000000D+00 0.00000000D+00 0.00000000D+00
  <mgrwgt>
 0.4337147592D-03    3    2    0
 0.732419531947382D+03 0.000000000000000D+00 0.000000000000000D+00 0.732419531947382D+03
 0.732419531947382D+03 0.000000000000000D+00 0.000000000000000D+00 -.732419531947382D+03
 0.460564470377336D+03 0.283462449825619D+03 -.153296996536448D+03 0.316154156103820D+03
 0.854075751523182D+02 -.527979264435476D+02 0.399743975999304D+02 -.539340374270579D+02
 0.619115206631239D+03 -.256377998909024D+03 0.143251477996355D+03 -.545025664358392D+03
 0.299751811733870D+03 0.257134755269528D+02 -.299288790598370D+02 0.282805545681629D+03
 0.000000000000000D+00 0.000000000000000D+00 -.000000000000000D+00 -.000000000000000D+00
 0.962239418421309D+03 0.000000000000000D+00 0.000000000000000D+00 0.962239418421309D+03
 0.210276111108290D+04 0.000000000000000D+00 0.000000000000000D+00 -.210276111108290D+04
 0.358101560742471D+03 0.767499350623612D+02 -.118648529314097D+03 0.316154156103820D+03
 0.129543541894615D+03 -.107072910706868D+03 0.490717907374239D+02 -.539340374270579D+02
 0.857499140357640D+03 -.629221934529588D+03 0.205746343859686D+03 -.545025664358392D+03
 0.325196740469605D+03 -.132085531532046D+03 -.347913202799883D+01 0.282805545681629D+03
 0.139465954603988D+04 0.791630441706142D+03 -.132690473255013D+03 -.114052169266159D+04
0.883478533192D-04 0.000000000000D+00 0.000000000000D+00 0.346090686157D-05 0.000000000000D+00  7 2 -2 23 -13 13 23 21 0 0.17676116D+00 0.71830070D-01 0.15768019D+06 0.15768019D+06 0.15768019D+06 0.11058446D+01  1  2  2  1  7  1        2 0.417872655039D-03 0.100000000000D+01
-.267165972435D-05 0.000000000000D+00 -.339279019270D-06 0.346090686157D-05 0.000000000000D+00  7 2 -2 23 -13 13 23 21 2 0.17676116D+00 0.71830070D-01 0.15768019D+06 0.15768019D+06 0.15768019D+06 0.11058446D+01  1  2  3  1  7  1        2 -.154531607468D-04 0.100000000000D+01
0.541056294005D-05 0.000000000000D+00 0.000000000000D+00 0.346090686157D-05 0.000000000000D+00  7 2 -2 23 -13 13 23 21 2 0.17676116D+00 0.71830070D-01 0.15768019D+06 0.15768019D+06 0.15768019D+06 0.11058446D+01  1  2 15  1  7  1        2 0.312952649175D-04 0.100000000000D+01
  </mgrwgt>
  </event>
  <event>
  8     66 0.55102590E-06 0.79067180E+02 0.75467711E-02 0.10175714E+00
        2 -1    0    0  501    0 0.00000000E+00 0.00000000E+00 0.43871180E+03 0.43871192E+03 0.32000000E+00 0.0000E+00 0.9000E+01
       -2 -1    0    0    0  501 0.00000000E+00 0.00000000E+00 -.91153859E+03 0.91153864E+03 0.32000000E+00 0.0000E+00 0.9000E+01
       25  2    1    2    0    0 0.21599021E+03 0.47857080E+02 0.33885597E+03 0.50387694E+03 0.30021081E+03 0.0000E+00 0.0000E+00
       23  2    1    2    0    0 -.21599021E+03 -.47857080E+02 -.81168276E+03 0.84637362E+03 0.92613895E+02 0.0000E+00 0.0000E+00
       23  1    3    3    0    0 0.31008026E+02 0.16137421E+02 0.26517844E+03 0.28258940E+03 0.91188000E+02 0.0000E+00 0.9000E+01
      -11  1    4    4    0    0 -.10895575E+03 -.29552958E+02 -.57489246E+03 0.58587207E+03 0.51099893E-03 0.0000E+00 0.9000E+01
       11  1    4    4    0    0 -.10703446E+03 -.18304121E+02 -.23679030E+03 0.26050156E+03 0.51099893E-03 0.0000E+00 0.9000E+01
       23  1    3    3    0    0 0.18498219E+03 0.31719659E+02 0.73677534E+02 0.22128754E+03 0.91188000E+02 0.0000E+00 0.9000E+01
#aMCatNLO 1  0  0  1  2 0.28776636D+02 0.00000000D+00  -5  7  0 0.00000000D+00 0.00000000D+00 0.00000000D+00 0.00000000D+00 0.00000000D+00
  <mgrwgt>
 0.1674884893D-03    9    2    0
 0.632378725218745D+03 0.000000000000000D+00 0.000000000000000D+00 0.632378725218745D+03
 0.632378725218745D+03 0.000000000000000D+00 0.000000000000000D+00 -.632378725218745D+03
 0.400827812447752D+03 0.310080257325689D+02 0.161374210269799D+02 0.388748980539392D+03
 0.410552654635286D+03 -.108955754954353D+03 -.295529582695244D+02 -.394726168815708D+03
 0.189587004525117D+03 -.107034457771602D+03 -.183041214520177D+02 -.155408546329395D+03
 0.263789978829335D+03 0.184982186993387D+03 0.317196586945622D+02 0.161385734605711D+03
 0.000000000000000D+00 0.000000000000000D+00 -.000000000000000D+00 0.000000000000000D+00
 0.673294200095170D+03 0.000000000000000D+00 0.000000000000000D+00 0.673294200095170D+03
 0.637622501111022D+03 0.000000000000000D+00 0.000000000000000D+00 -.637622501111022D+03
 0.401173564725347D+03 0.294586784846567D+02 0.251275562274436D+02 0.388748980539392D+03
 0.410417295488665D+03 -.110541746660909D+03 -.203501924673662D+02 -.394726168815708D+03
 0.189639256332990D+03 -.107767066443258D+03 -.140531370351357D+02 -.155408546329395D+03
 0.263854664499031D+03 0.183962856105330D+03 0.376343576169540D+02 0.161385734605711D+03
 0.458319201601596D+02 0.488727851418026D+01 -.283585843418957D+02 0.356716989841480D+02
0.364748824260D-04 0.000000000000D+00 0.000000000000D+00 0.155217909177D-05 0.000000000000D+00  7 2 -2 23 -11 11 23 21 0 0.67494136D-01 0.14023672D+00 0.69643526D+05 0.69643526D+05 0.69643526D+05 0.11348482D+01  1  2  2  1  7  1        2 0.118304390525D-03 0.100000000000D+01
-.144717689481D-06 0.000000000000D+00 -.140073152573D-06 0.155217909177D-05 0.000000000000D+00  7 2 -2 23 -11 11 23 21 2 0.67494136D-01 0.14023672D+00 0.69643526D+05 0.69643526D+05 0.69643526D+05 0.11348482D+01  1  2  3  1  7  1        2 -.604510846810D-06 0.100000000000D+01
0.220894263491D-05 0.000000000000D+00 0.000000000000D+00 0.155217909177D-05 0.000000000000D+00  7 2 -2 23 -11 11 23 21 2 0.67494136D-01 0.14023672D+00 0.69643526D+05 0.69643526D+05 0.69643526D+05 0.11348482D+01  1  2 15  1  7  1        2 0.922713586416D-05 0.100000000000D+01
0.268653455566D-03 0.000000000000D+00 0.000000000000D+00 0.155217909177D-05 0.000000000000D+00  7 2 -2 23 -11 11 23 21 2 0.72129966D-01 0.14023672D+00 0.77748147D+05 0.77748147D+05 0.77748147D+05 0.11308041D+01  1  2 12  1  7  1        2 0.103169267059D-02 0.100000000000D+01
-.273873584530D-03 0.000000000000D+00 0.000000000000D+00 0.155217909177D-05 0.000000000000D+00  7 2 -2 23 -11 11 23 21 2 0.67494136D-01 0.14023672D+00 0.69643526D+05 0.69643526D+05 0.69643526D+05 0.11348482D+01  1  2  4  1  7  1        2 -.114401738376D-02 0.100000000000D+01
-.518032569863D-03 0.000000000000D+00 -.716405582719D-04 0.155217909177D-05 0.000000000000D+00  7 2 -2 23 -11 11 23 21 2 0.72243978D-01 0.14023672D+00 0.69643526D+05 0.69643526D+05 0.69643526D+05 0.11348482D+01  1  2  5  1  7  1        2 -.200841775642D-02 0.100000000000D+01
0.521862768532D-03 0.000000000000D+00 0.714752037944D-04 0.155217909177D-05 0.000000000000D+00  7 2 -2 23 -11 11 23 21 2 0.67494136D-01 0.14023672D+00 0.69643526D+05 0.69643526D+05 0.69643526D+05 0.11348482D+01  1  2  6  1  7  1        2 0.217991114463D-02 0.100000000000D+01
0.367960024512D-05 0.000000000000D+00 0.000000000000D+00 0.155217909177D-05 0.000000000000D+00  7 21 -2 23 -11 11 23 -2 2 0.72129966D-01 0.14023672D+00 0.77748147D+05 0.77748147D+05 0.77748147D+05 0.11308041D+01  1  2 12  3  7  1        2 0.302989320262D-04 0.100000000000D+01
-.586798912348D-05 0.000000000000D+00 -.827263920481D-06 0.155217909177D-05 0.000000000000D+00  7 21 -2 23 -11 11 23 -2 2 0.72243978D-01 0.14023672D+00 0.69643526D+05 0.69643526D+05 0.69643526D+05 0.11348482D+01  1  2  5  3  7  1        2 -.489061332993D-04 0.100000000000D+01
  </mgrwgt>
  </event>
  <event>
  8     66 0.55102590E-06 0.28175095E+03 0.75467711E-02 0.91134347E-01
        2 -1    0    0  501    0 0.00000000E+00 0.00000000E+00 0.11854295E+04 0.11854296E+04 0.32000000E+00 0.0000E+00 0.9000E+01
       -2 -1    0    0    0  501 0.00000000E+00 0.00000000E+00 -.72093709E+02 0.72094420E+02 0.32000000E+00 0.0000E+00 0.9000E+01
       25  2    1    2    0    0 0.17181308E+03 0.10649979E+03 0.65041309E+03 0.74458649E+03 0.30084865E+03 0.0000E+00 0.0000E+00
       23  2    1    2    0    0 -.17181308E+03 -.10649979E+03 0.46292271E+03 0.51293749E+03 0.89137480E+02 0.0000E+00 0.0000E+00
       23  1    3    3    0    0 0.13372967E+03 -.55037169E+02 0.26859771E+03 0.31839079E+03 0.91188000E+02 0.0000E+00 0.9000E+01
      -13  1    4    4    0    0 -.10734462E+03 -.54731974E+02 0.16865615E+03 0.20727606E+03 0.10565837E+00 0.0000E+00 0.9000E+01
       13  1    4    4    0    0 -.64468461E+02 -.51767813E+02 0.29426656E+03 0.30566143E+03 0.10565837E+00 0.0000E+00 0.9000E+01
       23  1    3    3    0    0 0.38083411E+02 0.16153696E+03 0.38181539E+03 0.42619570E+03 0.91188000E+02 0.0000E+00 0.9000E+01
#aMCatNLO 1  0  0  1  2 0.57430410D+03 0.00000000D+00  -5  7  0 0.00000000D+00 0.00000000D+00 0.00000000D+00 0.00000000D+00 0.00000000D+00
  <mgrwgt>
 0.3326162963D-03    3    2    0
 0.292339673034004D+03 0.000000000000000D+00 0.000000000000000D+00 0.292339673034004D+03
 0.292339673034004D+03 0.000000000000000D+00 0.000000000000000D+00 -.292339673034004D+03
 0.173333652061613D+03 0.133729670782760D+03 -.550371682957718D+02 -.285760188153273D+02
 0.124655858512448D+03 -.107344680556353D+03 -.547319783264153D+02 -.319470368924390D+02
 0.970772348761052D+02 -.644684018417264D+02 -.517678090154105D+02 0.508714914751688D+02
 0.189612600617841D+03 0.380834116153198D+02 0.161536955637598D+03 0.965156423259747D+01
 0.000000000000000D+00 0.000000000000000D+00 -.000000000000000D+00 -.000000000000000D+00
 0.671746664579430D+03 0.000000000000000D+00 0.000000000000000D+00 0.671746664579430D+03
 0.724536430044204D+03 0.000000000000000D+00 0.000000000000000D+00 -.724536430044204D+03
 0.128491952526693D+03 0.695512619818751D+02 0.504079718449024D+02 -.285760188153273D+02
 0.183629055115545D+03 -.172896558571971D+03 0.529697720439668D+02 -.319470368924390D+02
 0.125562210904233D+03 -.111809134865298D+03 0.260130260239884D+02 0.508714914751688D+02
 0.381874673232398D+03 -.834342572905104D+02 0.361190513068375D+03 0.965156423259747D+01
 0.576725202844766D+03 0.298588688745904D+03 -.490581282981233D+03 -.527897654647739D+02
0.257640929764D-05 0.000000000000D+00 0.000000000000D+00 0.380890836108D-07 0.000000000000D+00  7 2 -2 23 -13 13 23 21 0 0.18237383D+00 0.11091398D-01 0.79383597D+05 0.79383597D+05 0.79383597D+05 0.11300444D+01  1  2  2  1  7  1        2 0.328787370940D-03 0.100000000000D+01
-.142896980553D-06 0.000000000000D+00 -.989409008708D-08 0.380890836108D-07 0.000000000000D+00  7 2 -2 23 -13 13 23 21 2 0.18237383D+00 0.11091398D-01 0.79383597D+05 0.79383597D+05 0.79383597D+05 0.11300444D+01  1  2  3  1  7  1        2 -.232870406879D-04 0.100000000000D+01
0.166392532652D-06 0.000000000000D+00 0.000000000000D+00 0.380890836108D-07 0.000000000000D+00  7 2 -2 23 -13 13 23 21 2 0.18237383D+00 0.11091398D-01 0.79383597D+05 0.79383597D+05 0.79383597D+05 0.11300444D+01  1  2 15  1  7  1        2 0.271159660829D-04 0.100000000000D+01
  </mgrwgt>
  </event>
  <event>
  9     66 0.55102590E-06 0.33663911E+03 0.75467711E-02 0.95996119E-01
        2 -1    0    0  501    0 0.00000000E+00 0.00000000E+00 0.58253101E+03 0.58253109E+03 0.32000000E+00 0.0000E+00 0.9000E+01
       21 -1    0    0  502  501 0.00000000E+00 0.00000000E+00 -.67540517E+03 0.67540558E+03 0.75000000E+00 0.0000E+00 0.9000E+01
       25  2    1    2    0    0 0.10555587E+03 0.20649698E+03 0.18389796E+03 0.42177172E+03 0.30048274E+03 0.0000E+00 0.0000E+00
       23  2    1    2    0    0 0.12203088E+02 -.35767878E+03 0.12577364E+03 0.39033282E+03 0.91965632E+02 0.0000E+00 0.0000E+00
       23  1    3    3    0    0 -.24028448E+02 0.12403853E+03 -.12473096E+02 0.15631300E+03 0.91188000E+02 0.0000E+00 0.9000E+01
      -11  1    4    4    0    0 -.20316361E+02 -.11112798E+03 0.77517946E+02 0.13700808E+03 0.51099893E-03 0.0000E+00 0.9000E+01
       11  1    4    4    0    0 0.32519450E+02 -.24655080E+03 0.48255691E+02 0.25332474E+03 0.51099893E-03 0.0000E+00 0.9000E+01
       23  1    3    3    0    0 0.12958431E+03 0.82458449E+02 0.19637106E+03 0.26545872E+03 0.91188000E+02 0.0000E+00 0.9000E+01
        2  1    1    2  502    0 -.11775895E+03 0.15118180E+03 -.40254576E+03 0.44583214E+03 0.32000000E+00 0.0000E+00 0.9000E+01
#aMCatNLO 2  0  0  2  1 0.19163274D+03 0.00000000D+00  -5  7  0 0.00000000D+00 0.00000000D+00 0.00000000D+00 0.00000000D+00 0.00000000D+00
  <mgrwgt>
 0.2372897936D-04    2    2    0
 0.362937382343402D+03 0.000000000000000D+00 0.000000000000000D+00 0.362937382343402D+03
 0.362937382343402D+03 0.000000000000000D+00 0.000000000000000D+00 -.362937382343402D+03
 0.209935649735061D+03 -.546655888889719D+02 0.163371234135419D+03 -.779694743741072D+02
 0.100363986698400D+03 -.375896015027901D+02 -.889521779874397D+02 0.273397460878641D+02
 0.206205406312951D+03 -.419143404023308D+01 -.199420474889220D+03 -.522931703794441D+02
 0.209369721940391D+03 0.964466244319950D+02 0.125001418741241D+03 0.102922898665687D+03
 0.000000000000000D+00 -.000000000000000D+00 0.000000000000000D+00 -.000000000000000D+00
 0.389856828871798D+03 0.000000000000000D+00 0.000000000000000D+00 0.389856828871798D+03
 0.100920302719559D+04 0.000000000000000D+00 0.000000000000000D+00 -.100920302719559D+04
 0.174233790583698D+03 -.240284481317630D+02 0.124038531043256D+03 -.779694743741072D+02
 0.116230996795097D+03 -.203163613640389D+02 -.111127981898164D+03 0.273397460878641D+02
 0.254124743601351D+03 0.325194495376214D+02 -.246550796072308D+03 -.522931703794441D+02
 0.206154953746570D+03 0.129584314838999D+03 0.824584494652323D+02 0.102922898665687D+03
 0.648315371340667D+03 -.117758954880818D+03 0.151181797461984D+03 -.619346198323787D+03
-.450068670620D-06 0.000000000000D+00 0.000000000000D+00 0.246242529059D-06 0.000000000000D+00  7 2 21 23 -11 11 23 2 2 0.83431949D-01 0.10249871D+00 0.19701520D+06 0.19701520D+06 0.19701520D+06 0.10983273D+01  1  2 13  4  7  2       -2 -.276300000405D-04 0.100000000000D+01
0.941399543327D-06 0.000000000000D+00 0.000000000000D+00 0.246242529059D-06 0.687508453088D-11  7 2 21 23 -11 11 23 2 2 0.89620185D-01 0.10390852D+00 0.19701520D+06 0.19701520D+06 0.19701520D+06 0.10983273D+01  1  2  1  4  7  2       -2 0.513589794007D-04 0.100000000000D+01
  </mgrwgt>
  </event>
  <event>
  7     66 0.55102590E-06 0.27442963E+03 0.75467711E-02 0.91198172E-01
        2 -1    0    0  501    0 0.00000000E+00 0.00000000E+00 0.20269142E+04 0.20269143E+04 0.32000000E+00 0.0000E+00 0.9000E+01
       -2 -1    0    0    0  501 0.00000000E+00 0.00000000E+00 -.18588748E+03 0.18588776E+03 0.32000000E+00 0.0000E+00 0.9000E+01
       25  2    1    2    0    0 -.49292759E+03 0.25899807E+03 0.80960700E+03 0.10276299E+04 0.30083579E+03 0.0000E+00 0.0000E+00
       23  1    3    3    0    0 -.43167220E+03 0.24626205E+03 0.74301849E+03 0.89854194E+03 0.91188000E+02 0.0000E+00 0.9000E+01
      -11  1    1    2    0    0 0.48490893E+02 -.27936473E+01 0.22943196E+02 0.53717422E+02 0.51099893E-03 0.0000E+00 0.9000E+01
       11  1    1    2    0    0 0.44443670E+03 -.25620443E+03 0.10084766E+04 0.11314547E+04 0.51099893E-03 0.0000E+00 0.9000E+01
       23  1    3    3    0    0 -.61255394E+02 0.12736025E+02 0.66588509E+02 0.12908799E+03 0.91188000E+02 0.0000E+00 0.9000E+01
#aMCatNLO 1  0  0  1  2 0.17805964D+03 0.00000000D+00  -5  7  0 0.00000000D+00 0.00000000D+00 0.00000000D+00 0.00000000D+00 0.00000000D+00
  <mgrwgt>
 0.4813043765D-03    6    2    0
 0.613822707503729D+03 0.000000000000000D+00 0.000000000000000D+00 0.613822707503729D+03
 0.613822707503729D+03 0.000000000000000D+00 0.000000000000000D+00 -.613822707503729D+03
 0.505340129540585D+03 -.431672200357310D+03 0.246262047377542D+03 -.821648587871513D+01
 0.624178449842681D+02 0.484908929068009D+02 -.279364769643738D+01 -.392022475137521D+02
 0.527068185061978D+03 0.444436701271430D+03 -.256204424856970D+03 0.120980093202174D+03
 0.132819255420626D+03 -.612553938209206D+02 0.127360251758652D+02 -.735613598097067D+02
 0.000000000000000D+00 0.000000000000000D+00 0.000000000000000D+00 -.000000000000000D+00
 0.706122207300886D+03 0.000000000000000D+00 0.000000000000000D+00 0.706122207300886D+03
 0.712544446459650D+03 0.000000000000000D+00 0.000000000000000D+00 -.712544446459650D+03
 0.508532490725226D+03 -.466054421563769D+03 0.181702526894559D+03 -.821648587871513D+01
 0.601225794913630D+02 0.443353294791684D+02 -.105965520118274D+02 -.392022475137521D+02
 0.535081269414523D+03 0.408417326876492D+03 -.323838029011589D+03 0.120980093202174D+03
 0.136754893808157D+03 -.703971319890713D+02 -.442942289023938D+01 -.735613598097067D+02
 0.178175420321267D+03 0.836988971971792D+02 0.157161477019096D+03 -.642223915876428D+01
0.664424856852D-04 0.000000000000D+00 0.000000000000D+00 0.369064022724D-09 0.000000000000D+00  7 2 -2 23 -11 11 23 21 0 0.31183298D+00 0.28598097D-01 0.34658436D+06 0.34658436D+06 0.34658436D+06 0.10799442D+01  1  2  2  1  7  1        2 0.596436875322D-03 0.100000000000D+01
-.368342054172D-05 0.000000000000D+00 -.255156639739D-06 0.369064022724D-09 0.000000000000D+00  7 2 -2 23 -11 11 23 21 2 0.31183298D+00 0.28598097D-01 0.34658436D+06 0.34658436D+06 0.34658436D+06 0.10799442D+01  1  2  3  1  7  1        2 -.385631546850D-04 0.100000000000D+01
0.413741740542D-05 0.000000000000D+00 0.000000000000D+00 0.369064022724D-09 0.000000000000D+00  7 2 -2 23 -11 11 23 21 2 0.31183298D+00 0.28598097D-01 0.34658436D+06 0.34658436D+06 0.34658436D+06 0.10799442D+01  1  2 15  1  7  1        2 0.433162234924D-04 0.100000000000D+01
0.370040448181D-04 0.000000000000D+00 0.000000000000D+00 0.369064022724D-09 0.000000000000D+00  7 2 -2 23 -11 11 23 21 2 0.38019166D+00 0.28598097D-01 0.46828023D+06 0.46828023D+06 0.46828023D+06 0.10705279D+01  1  2 12  1  7  1        2 0.210677269123D-03 0.100000000000D+01
-.316414359826D-04 0.000000000000D+00 0.000000000000D+00 0.369064022724D-09 0.000000000000D+00  7 2 -2 23 -11 11 23 21 2 0.31183298D+00 0.28598097D-01 0.34658436D+06 0.34658436D+06 0.34658436D+06 0.10799442D+01  1  2  4  1  7  1        2 -.331266434672D-03 0.100000000000D+01
0.105164621543D-05 0.000000000000D+00 0.000000000000D+00 0.369064022724D-09 0.000000000000D+00  7 21 -2 23 -11 11 23 -2 2 0.38019166D+00 0.28598097D-01 0.46828023D+06 0.46828023D+06 0.46828023D+06 0.10705279D+01  1  2 12  3  7  1        2 0.703597931274D-06 0.100000000000D+01
  </mgrwgt>
  </event>
  <event>
  8     66 0.55102590E-06 0.23096892E+03 0.75467711E-02 0.95956886E-01
        2 -1    0    0  501    0 0.00000000E+00 0.00000000E+00 0.31556458E+03 0.31556474E+03 0.32000000E+00 0.0000E+00 0.9000E+01
       -2 -1    0    0    0  501 0.00000000E+00 0.00000000E+00 -.38136276E+03 0.38136289E+03 0.32000000E+00 0.0000E+00 0.9000E+01
       25  2    1    2    0    0 -.63170842E+02 0.12407391E+03 0.19712278E+03 0.38512661E+03 0.30013368E+03 0.0000E+00 0.0000E+00
       23  2    1    2    0    0 0.63170842E+02 -.12407391E+03 -.26292096E+03 0.31180103E+03 0.93314315E+02 0.0000E+00 0.0000E+00
       23  1    3    3    0    0 -.11258707E+03 0.13013024E+03 0.43290082E+02 0.19949689E+03 0.91188000E+02 0.0000E+00 0.9000E+01
      -13  1    4    4    0    0 0.83473906E+02 -.11197832E+03 -.24547140E+03 0.28242390E+03 0.10565837E+00 0.0000E+00 0.9000E+01
       13  1    4    4    0    0 -.20303064E+02 -.12095593E+02 -.17449553E+02 0.29377131E+02 0.10565837E+00 0.0000E+00 0.9000E+01
       23  1    3    3    0    0 0.49416226E+02 -.60563334E+01 0.15383269E+03 0.18562972E+03 0.91188000E+02 0.0000E+00 0.9000E+01
#aMCatNLO 1  0  0  1  2 0.33755418D+03 0.00000000D+00  -5  7  0 0.00000000D+00 0.00000000D+00 0.00000000D+00 0.00000000D+00 0.00000000D+00
  <mgrwgt>
 0.2510245294D-03    3    2    0
 0.346907310680246D+03 0.000000000000000D+00 0.000000000000000D+00 0.346907310680246D+03
 0.346907310680246D+03 0.000000000000000D+00 0.000000000000000D+00 -.346907310680246D+03
 0.204497429595052D+03 -.112587067910808D+03 0.130130242222199D+03 0.624036823065945D+02
 0.260412000137449D+03 0.834740373817781D+02 -.111978444358729D+03 -.219789269296232D+03
 0.278538062546811D+02 -.203031949308322D+02 -.120954647371926D+02 -.147415918836899D+02
 0.201051385373309D+03 0.494162254598620D+02 -.605633312627754D+01 0.172127178873327D+03
 0.000000000000000D+00 0.000000000000000D+00 0.000000000000000D+00 -.000000000000000D+00
 0.530046925092032D+03 0.000000000000000D+00 0.000000000000000D+00 0.530046925092032D+03
 0.583244230162178D+03 0.000000000000000D+00 0.000000000000000D+00 -.583244230162178D+03
 0.255291184465052D+03 -.211186828563960D+03 0.914562266728913D+02 0.624036823065945D+02
 0.271682233143945D+03 -.306313633222278D+02 -.156734273499229D+03 -.219789269296232D+03
 0.423199991756627D+02 -.353516763589701D+02 -.179979659287780D+02 -.147415918836899D+02
 0.202277417945384D+03 -.370759630277516D+02 -.399813672268211D+02 0.172127178873327D+03
 0.341720320524167D+03 0.314245831272909D+03 0.123257379981937D+03 -.531973050701465D+02
0.699710964634D-05 0.000000000000D+00 0.000000000000D+00 0.303247215193D-06 0.000000000000D+00  7 2 -2 23 -13 13 23 21 0 0.48548420D-01 0.58671217D-01 0.53346641D+05 0.53346641D+05 0.53346641D+05 0.11448287D+01  1  2  2  1  7  1        2 0.245779103852D-03 0.100000000000D+01
-.310523212729D-06 0.000000000000D+00 -.268707434232D-07 0.303247215193D-06 0.000000000000D+00  7 2 -2 23 -13 13 23 21 2 0.48548420D-01 0.58671217D-01 0.53346641D+05 0.53346641D+05 0.53346641D+05 0.11448287D+01  1  2  3  1  7  1        2 -.142955652887D-04 0.100000000000D+01
0.424462491422D-06 0.000000000000D+00 0.000000000000D+00 0.303247215193D-06 0.000000000000D+00  7 2 -2 23 -13 13 23 21 2 0.48548420D-01 0.58671217D-01 0.53346641D+05 0.53346641D+05 0.53346641D+05 0.11448287D+01  1  2 15  1  7  1        2 0.195409908502D-04 0.100000000000D+01
  </mgrwgt>
  </event>
  <event>
  8     66 0.55102590E-06 0.13019555E+03 0.75467711E-02 0.10481889E+00
        2 -1    0    0  501    0 0.00000000E+00 0.00000000E+00 0.90666349E+03 0.90666354E+03 0.32000000E+00 0.0000E+00 0.9000E+01
       -2 -1    0    0    0  501 0.00000000E+00 0.00000000E+00 -.64532085E+02 0.64532878E+02 0.32000000E+00 0.0000E+00 0.9000E+01
       25  2    1    2    0    0 -.10964887E+03 -.30157563E+01 0.44044104E+03 0.54504835E+03 0.30175722E+03 0.0000E+00 0.0000E+00
       23  2    1    2    0    0 0.10964887E+03 0.30157563E+01 0.40169036E+03 0.42614807E+03 0.90637004E+02 0.0000E+00 0.0000E+00
       23  1    3    3    0    0 0.12790897E+02 0.93248391E+02 0.25248984E+03 0.28447362E+03 0.91188000E+02 0.0000E+00 0.9000E+01
      -13  1    4    4    0    0 0.10405781E+03 0.84358937E+00 0.40576492E+03 0.41889607E+03 0.10565837E+00 0.0000E+00 0.9000E+01
       13  1    4    4    0    0 0.55910629E+01 0.21721669E+01 -.40745609E+01 0.72520000E+01 0.10565837E+00 0.0000E+00 0.9000E+01
       23  1    3    3    0    0 -.12243977E+03 -.96264147E+02 0.18795120E+03 0.26057472E+03 0.91188000E+02 0.0000E+00 0.9000E+01
#aMCatNLO 1  0  0  1  2 0.24115214D+02 0.00000000D+00  -5  7  0 0.00000000D+00 0.00000000D+00 0.00000000D+00 0.00000000D+00 0.00000000D+00
  <mgrwgt>
 0.3885977112D-03    9    2    0
 0.241886952572208D+03 0.000000000000000D+00 0.000000000000000D+00 0.241886952572208D+03
 0.241886952572208D+03 0.000000000000000D+00 0.000000000000000D+00 -.241886952572208D+03
 0.131569979254361D+03 0.127908539066955D+02 0.932483545215464D+02 0.116853126767966D+02
 0.134614710575536D+03 0.104057983453276D+03 0.843588768852901D+00 0.853952266872224D+02
 0.216513467148618D+02 0.559093615657130D+01 0.217216889842457D+01 -.208039402454683D+02
 0.195937868599658D+03 -.122439773516542D+03 -.962641121888238D+02 -.762765991185507D+02
 0.000000000000000D+00 0.000000000000000D+00 0.000000000000000D+00 0.000000000000000D+00
 0.256253306057540D+03 0.000000000000000D+00 0.000000000000000D+00 0.256253306057540D+03
 0.252523258631957D+03 0.000000000000000D+00 0.000000000000000D+00 -.252523258631957D+03
 0.128561004358951D+03 0.746589162513879D+01 0.895566548485894D+02 0.116853126767966D+02
 0.130495052119428D+03 0.986311040127178D+02 -.291876822009216D+01 0.853952266872224D+02
 0.213874997165319D+02 0.470991756084123D+01 0.156137470125423D+01 -.208039402454683D+02
 0.203931024936717D+03 -.130625214351280D+03 -.101938929709555D+03 -.762765991185507D+02
 0.244019835578695D+02 0.198183011525826D+02 0.137396683798037D+02 0.373004742558306D+01
0.781899576546D-06 0.000000000000D+00 0.000000000000D+00 0.198292315004D-07 0.000000000000D+00  7 2 -2 23 -13 13 23 21 0 0.13948676D+00 0.99280784D-02 0.44434721D+05 0.44434721D+05 0.44434721D+05 0.11518306D+01  1  2  2  1  7  1        2 0.173015617564D-03 0.100000000000D+01
-.424391305434D-07 0.000000000000D+00 -.300270025282D-08 0.198292315004D-07 0.000000000000D+00  7 2 -2 23 -13 13 23 21 2 0.13948676D+00 0.99280784D-02 0.44434721D+05 0.44434721D+05 0.44434721D+05 0.11518306D+01  1  2  3  1  7  1        2 -.124588513315D-04 0.100000000000D+01
0.495621214774D-07 0.000000000000D+00 0.000000000000D+00 0.198292315004D-07 0.000000000000D+00  7 2 -2 23 -13 13 23 21 2 0.13948676D+00 0.99280784D-02 0.44434721D+05 0.44434721D+05 0.44434721D+05 0.11518306D+01  1  2 15  1  7  1        2 0.145499470713D-04 0.100000000000D+01
0.159302472124D-05 0.000000000000D+00 0.000000000000D+00 0.198292315004D-07 0.000000000000D+00  7 2 -2 23 -13 13 23 21 2 0.15068040D+00 0.99280784D-02 0.49486055D+05 0.49486055D+05 0.49486055D+05 0.11476903D+01  1  2 12  1  7  1        2 0.419063557982D-03 0.100000000000D+01
-.136272853120D-05 0.000000000000D+00 0.000000000000D+00 0.198292315004D-07 0.000000000000D+00  7 2 -2 23 -13 13 23 21 2 0.13948676D+00 0.99280784D-02 0.44434721D+05 0.44434721D+05 0.44434721D+05 0.11518306D+01  1  2  4  1  7  1        2 -.400056079331D-03 0.100000000000D+01
-.556733424261D-05 0.000000000000D+00 -.110270553943D-05 0.198292315004D-07 0.000000000000D+00  7 2 -2 23 -13 13 23 21 2 0.15238318D+00 0.99280784D-02 0.44434721D+05 0.44434721D+05 0.44434721D+05 0.11518306D+01  1  2  5  1  7  1        2 -.145177832783D-02 0.100000000000D+01
0.564704903784D-05 0.000000000000D+00 0.109840817506D-05 0.198292315004D-07 0.000000000000D+00  7 2 -2 23 -13 13 23 21 2 0.13948676D+00 0.99280784D-02 0.44434721D+05 0.44434721D+05 0.44434721D+05 0.11518306D+01  1  2  6  1  7  1        2 0.165780362423D-02 0.100000000000D+01
0.206507060262D-07 0.000000000000D+00 0.000000000000D+00 0.198292315004D-07 0.000000000000D+00  7 21 -2 23 -13 13 23 -2 2 0.15068040D+00 0.99280784D-02 0.49486055D+05 0.49486055D+05 0.49486055D+05 0.11476903D+01  1  2 12  3  7  1        2 0.424952511922D-05 0.100000000000D+01
-.783538821557D-07 0.000000000000D+00 -.160912507363D-07 0.198292315004D-07 0.000000000000D+00  7 21 -2 23 -13 13 23 -2 2 0.15238318D+00 0.99280784D-02 0.44434721D+05 0.44434721D+05 0.44434721D+05 0.11518306D+01  1  2  5  3  7  1        2 -.157913022285D-04 0.100000000000D+01
  </mgrwgt>
  </event>
  <event>
  8     66 0.55102590E-06 0.36536301E+03 0.75467711E-02 0.87358786E-01
        2 -1    0    0  501    0 0.00000000E+00 0.00000000E+00 0.18343905E+04 0.18343905E+04 0.32000000E+00 0.0000E+00 0.9000E+01
       -2 -1    0    0    0  501 0.00000000E+00 0.00000000E+00 -.83769148E+02 0.83769759E+02 0.32000000E+00 0.0000E+00 0.9000E+01
       25  2    1    2    0    0 0.31879127E+02 0.30718695E+03 0.12720643E+04 0.13429032E+04 0.29976889E+03 0.0000E+00 0.0000E+00
       23  2    1    2    0    0 -.31879127E+02 -.30718695E+03 0.47855705E+03 0.57525705E+03 0.80769611E+02 0.0000E+00 0.0000E+00
       23  1    3    3    0    0 -.58768294E+02 0.24760756E+02 0.46771324E+03 0.48076786E+03 0.91188000E+02 0.0000E+00 0.9000E+01
      -11  1    4    4    0    0 0.13751978E+01 -.13943663E+02 0.69222333E+02 0.70626116E+02 0.51099893E-03 0.0000E+00 0.9000E+01
       11  1    4    4    0    0 -.33254325E+02 -.29324329E+03 0.40933471E+03 0.50463094E+03 0.51099893E-03 0.0000E+00 0.9000E+01
       23  1    3    3    0    0 0.90647421E+02 0.28242619E+03 0.80435102E+03 0.86213533E+03 0.91188000E+02 0.0000E+00 0.9000E+01
#aMCatNLO 1  0  0  2  2 0.86764405D+03 0.00000000D+00  -5  7  0 0.00000000D+00 0.00000000D+00 0.00000000D+00 0.00000000D+00 0.00000000D+00
  <mgrwgt>
 0.3004495806D-02    3    2    0
 0.392002472057255D+03 0.000000000000000D+00 0.000000000000000D+00 0.392002472057255D+03
 0.392002472057255D+03 0.000000000000000D+00 0.000000000000000D+00 -.392002472057255D+03
 0.131888234883249D+03 -.587682935370422D+02 0.247607564475708D+02 0.707986424411320D+02
 0.182270752754138D+02 0.137519776197264D+01 -.139436633024666D+02 0.116580168947600D+02
 0.320626716332472D+03 -.332543247778689D+02 -.293243287198270D+03 -.125315663916626D+03
 0.313262917623374D+03 0.906474205529384D+02 0.282426194053166D+03 0.428590045807336D+02
 0.000000000000000D+00 0.000000000000000D+00 -.000000000000000D+00 0.000000000000000D+00
 0.133176338532390D+04 0.000000000000000D+00 0.000000000000000D+00 0.133176338532390D+04
 0.836614250013449D+03 0.000000000000000D+00 0.000000000000000D+00 -.836614250013449D+03
 0.266234512862973D+03 -.231134935253963D+03 0.642631965359923D+02 0.707986424411320D+02
 0.222561815027150D+02 -.161519670536832D+02 -.992684327769981D+01 0.116580168947600D+02
 0.441610613125061D+03 -.363263824143673D+03 -.217612757140620D+03 -.125315663916626D+03
 0.439287403447397D+03 -.235168103177557D+03 0.357095562080762D+03 0.428590045807336D+02
 0.998988924399198D+03 0.845718829628875D+03 -.193819158198434D+03 0.495149135310447D+03
0.668645577302D-04 0.000000000000D+00 0.000000000000D+00 0.107033297787D-07 0.000000000000D+00  7 2 -2 23 -11 11 23 21 0 0.28221397D+00 0.12887610D-01 0.13349013D+06 0.13349013D+06 0.13349013D+06 0.11115706D+01  1  2  2  2  7  2       -2 0.297182285345D-02 0.100000000000D+01
-.369232779465D-05 0.000000000000D+00 -.256777507526D-06 0.107033297787D-07 0.000000000000D+00  7 2 -2 23 -11 11 23 21 2 0.28221397D+00 0.12887610D-01 0.13349013D+06 0.13349013D+06 0.13349013D+06 0.11115706D+01  1  2  3  2  7  2       -2 -.202768871587D-03 0.100000000000D+01
0.428728722537D-05 0.000000000000D+00 0.000000000000D+00 0.107033297787D-07 0.000000000000D+00  7 2 -2 23 -11 11 23 21 2 0.28221397D+00 0.12887610D-01 0.13349013D+06 0.13349013D+06 0.13349013D+06 0.11115706D+01  1  2 15  2  7  2       -2 0.235441824563D-03 0.100000000000D+01
  </mgrwgt>
  </event>
  <event>
  8     66 0.55102590E-06 0.32172890E+03 0.75467711E-02 0.97031860E-01
        2 -1    0    0  501    0 0.00000000E+00 0.00000000E+00 0.15760364E+03 0.15760396E+03 0.32000000E+00 0.0000E+00 0.9000E+01
       -2 -1    0    0    0  501 0.00000000E+00 0.00000000E+00 -.82221120E+03 0.82221126E+03 0.32000000E+00 0.0000E+00 0.9000E+01
       25  2    1    2    0    0 0.12480180E+03 0.26011202E+03 -.38562394E+03 0.56805185E+03 0.30123634E+03 0.0000E+00 0.0000E+00
       23  2    1    2    0    0 -.12480180E+03 -.26011202E+03 -.27898362E+03 0.41176338E+03 0.92105739E+02 0.0000E+00 0.0000E+00
       23  1    3    3    0    0 0.59025477E+02 0.14640991E+03 -.39155335E+02 0.18646249E+03 0.91188000E+02 0.0000E+00 0.9000E+01
      -11  1    4    4    0    0 0.11973516E+02 -.79303590E+01 -.54080821E+01 0.15346108E+02 0.51099893E-03 0.0000E+00 0.9000E+01
       11  1    4    4    0    0 -.13677531E+03 -.25218166E+03 -.27357554E+03 0.39641727E+03 0.51099893E-03 0.0000E+00 0.9000E+01
       23  1    3    3    0    0 0.65776321E+02 0.11370210E+03 -.34646861E+03 0.38158936E+03 0.91188000E+02 0.0000E+00 0.9000E+01
#aMCatNLO 1  0  0  2  2 0.15099171D+03 0.00000000D+00  -5  7  0 0.00000000D+00 0.00000000D+00 0.00000000D+00 0.00000000D+00 0.00000000D+00
  <mgrwgt>
 0.2380117362D-03    4    2    0
 0.359977315541931D+03 0.000000000000000D+00 0.000000000000000D+00 0.359977315541931D+03
 0.359977315541931D+03 0.000000000000000D+00 0.000000000000000D+00 -.359977315541931D+03
 0.217619071906089D+03 0.590254770964639D+02 0.146409913782468D+03 0.118839973548518D+03
 0.158928043212807D+02 0.119735160214816D+02 -.793035897960135D+01 0.680628751468062D+01
 0.286956004924889D+03 -.136775313772172D+03 -.252181658402166D+03 -.637757559815038D+01
 0.199486749931603D+03 0.657763206542261D+02 0.113702103599299D+03 -.119268685465049D+03
 0.000000000000000D+00 0.000000000000000D+00 -.000000000000000D+00 0.000000000000000D+00
 0.484607523424397D+03 0.000000000000000D+00 0.000000000000000D+00 0.484607523424397D+03
 0.416607443853737D+03 0.000000000000000D+00 0.000000000000000D+00 -.416607443853737D+03
 0.228763365795523D+03 0.202441075576189D+02 0.171710986783838D+03 0.118839973548518D+03
 0.132266591158493D+02 0.944363899911737D+01 -.627986019659136D+01 0.680628751468062D+01
 0.288324831585932D+03 -.186755278988132D+03 -.219574590534995D+03 -.637757559815038D+01
 0.205302685035609D+03 0.306085198247110D+02 0.136645674356746D+03 -.119268685465049D+03
 0.165597425745221D+03 0.126459012606684D+03 -.825022104089972D+02 0.680000795706599D+02
0.243797307612D-04 0.000000000000D+00 0.000000000000D+00 0.784932643281D-07 0.000000000000D+00  7 2 -2 23 -11 11 23 21 0 0.24246744D-01 0.12649406D+00 0.10350949D+06 0.10350949D+06 0.10350949D+06 0.11204948D+01  1  2  2  2  7  2       -2 0.318796398411D-03 0.100000000000D+01
-.133364961011D-05 0.000000000000D+00 -.936245854534D-07 0.784932643281D-07 0.000000000000D+00  7 2 -2 23 -11 11 23 21 2 0.24246744D-01 0.12649406D+00 0.10350949D+06 0.10350949D+06 0.10350949D+06 0.11204948D+01  1  2  3  2  7  2       -2 -.218950504031D-04 0.100000000000D+01
0.154442390531D-05 0.000000000000D+00 0.000000000000D+00 0.784932643281D-07 0.000000000000D+00  7 2 -2 23 -11 11 23 21 2 0.24246744D-01 0.12649406D+00 0.10350949D+06 0.10350949D+06 0.10350949D+06 0.11204948D+01  1  2 15  2  7  2       -2 0.253554149412D-04 0.100000000000D+01
-.513144957398D-05 0.000000000000D+00 0.000000000000D+00 0.784932643281D-07 0.000000000000D+00  7 2 -2 23 -11 11 23 21 2 0.24246744D-01 0.12649406D+00 0.10350949D+06 0.10350949D+06 0.10350949D+06 0.11204948D+01  1  2  4  2  7  2       -2 -.842450267385D-04 0.100000000000D+01
  </mgrwgt>
  </event>
  <event>
  8     66 0.55102590E-06 0.45629312E+03 0.75467711E-02 0.90485103E-01
        2 -1    0    0  501    0 0.00000000E+00 0.00000000E+00 0.99345039E+03 0.99345044E+03 0.32000000E+00 0.0000E+00 0.9000E+01
       -2 -1    0    0    0  501 0.00000000E+00 0.00000000E+00 -.36966369E+03 0.36966383E+03 0.32000000E+00 0.0000E+00 0.9000E+01
       25  2    1    2    0    0 0.50827535E+02 -.40338197E+03 0.77010847E+03 0.92134201E+03 0.30083816E+03 0.0000E+00 0.0000E+00
       23  2    1    2    0    0 -.50827535E+02 0.40338197E+03 -.14632177E+03 0.44177226E+03 0.91935944E+02 0.0000E+00 0.0000E+00
       23  1    3    3    0    0 0.90109241E+02 -.62478873E+02 0.30036699E+03 0.33250394E+03 0.91188000E+02 0.0000E+00 0.9000E+01
      -13  1    4    4    0    0 -.18636315E+01 0.30506027E+03 -.88501771E+02 0.31764417E+03 0.10565837E+00 0.0000E+00 0.9000E+01
       13  1    4    4    0    0 -.48963904E+02 0.98321701E+02 -.57819996E+02 0.12412809E+03 0.10565837E+00 0.0000E+00 0.9000E+01
       23  1    3    3    0    0 -.39281706E+02 -.34090310E+03 0.46974147E+03 0.58883808E+03 0.91188000E+02 0.0000E+00 0.9000E+01
#aMCatNLO 1  0  0  1  2 0.45660142D+03 0.00000000D+00  -5  7  0 0.00000000D+00 0.00000000D+00 0.00000000D+00 0.00000000D+00 0.00000000D+00
  <mgrwgt>
 0.3338864638D-03    3    2    0
 0.606005503490031D+03 0.000000000000000D+00 0.000000000000000D+00 0.606005503490031D+03
 0.606005503490031D+03 0.000000000000000D+00 0.000000000000000D+00 -.606005503490031D+03
 0.219367583327942D+03 0.901092412623709D+02 -.624788729637037D+02 0.166684133448408D+03
 0.402794941158291D+03 -.186356930177665D+01 0.305060546117291D+03 -.263017784445822D+03
 0.169361291183242D+03 -.489639658778393D+02 0.983214280944121D+02 -.128913435196817D+03
 0.420487191310588D+03 -.392817060827550D+02 -.340903101247999D+03 0.225247086194231D+03
 0.000000000000000D+00 0.000000000000000D+00 0.000000000000000D+00 -.000000000000000D+00
 0.716118667814132D+03 0.000000000000000D+00 0.000000000000000D+00 0.716118667814132D+03
 0.140808197654399D+04 0.000000000000000D+00 0.000000000000000D+00 -.140808197654399D+04
 0.207087342579447D+03 0.146990181089415D+02 -.810571072504051D+02 0.166684133448408D+03
 0.403620762410543D+03 -.144462433721417D+03 0.269929565178333D+03 -.263017784445822D+03
 0.190031237643200D+03 -.112515514123674D+03 0.826647239603914D+02 -.128913435196817D+03
 0.494426877308945D+03 -.201066386923313D+03 -.380760743606911D+03 0.225247086194231D+03
 0.829034424415991D+03 0.443345316659462D+03 0.109223561718591D+03 -.691963308729863D+03
0.347203097849D-04 0.000000000000D+00 0.000000000000D+00 0.516671264373D-06 0.000000000000D+00  7 2 -2 23 -13 13 23 21 0 0.15283854D+00 0.56871352D-01 0.20820342D+06 0.20820342D+06 0.20820342D+06 0.10964871D+01  1  2  2  1  7  1        2 0.328970419824D-03 0.100000000000D+01
-.174007414363D-05 0.000000000000D+00 -.133335131642D-06 0.516671264373D-06 0.000000000000D+00  7 2 -2 23 -13 13 23 21 2 0.15283854D+00 0.56871352D-01 0.20820342D+06 0.20820342D+06 0.20820342D+06 0.10964871D+01  1  2  3  1  7  1        2 -.198220265787D-04 0.100000000000D+01
0.217162845267D-05 0.000000000000D+00 0.000000000000D+00 0.516671264373D-06 0.000000000000D+00  7 2 -2 23 -13 13 23 21 2 0.15283854D+00 0.56871352D-01 0.20820342D+06 0.20820342D+06 0.20820342D+06 0.10964871D+01  1  2 15  1  7  1        2 0.247380705389D-04 0.100000000000D+01
  </mgrwgt>
  </event>
  <event>
  8     66 0.55102590E-06 0.20669776E+03 0.75467711E-02 0.94924140E-01
        2 -1    0    0  501    0 0.00000000E+00 0.00000000E+00 0.15485123E+04 0.15485123E+04 0.32000000E+00 0.0000E+00 0.9000E+01
       -2 -1    0    0    0  501 0.00000000E+00 0.00000000E+00 -.51770341E+02 0.51771330E+02 0.32000000E+00 0.0000E+00 0.9000E+01
       25  2    1    2    0    0 -.40534542E+01 -.11539682E+03 0.51045139E+03 0.60314201E+03 0.29981128E+03 0.0000E+00 0.0000E+00
       23  2    1    2    0    0 0.40534542E+01 0.11539682E+03 0.98629055E+03 0.99714164E+03 0.90496086E+02 0.0000E+00 0.0000E+00
       23  1    3    3    0    0 -.63543942E+02 0.30638007E+02 0.31753629E+03 0.33781810E+03 0.91188000E+02 0.0000E+00 0.9000E+01
      -13  1    4    4    0    0 -.36233666E+01 0.34215393E+02 0.65715999E+03 0.65806010E+03 0.10565837E+00 0.0000E+00 0.9000E+01
       13  1    4    4    0    0 0.76768208E+01 0.81181430E+02 0.32913055E+03 0.33908154E+03 0.10565837E+00 0.0000E+00 0.9000E+01
       23  1    3    3    0    0 0.59490487E+02 -.14603483E+03 0.19291510E+03 0.26532391E+03 0.91188000E+02 0.0000E+00 0.9000E+01
#aMCatNLO 1  0  0  1  1 0.39731238D+03 0.00000000D+00  -5  7  0 0.00000000D+00 0.00000000D+00 0.00000000D+00 0.00000000D+00 0.00000000D+00
  <mgrwgt>
 0.2464697170D-03    5    2    0
 0.283139236197025D+03 0.000000000000000D+00 0.000000000000000D+00 0.283139236197025D+03
 0.283139236197025D+03 0.000000000000000D+00 0.000000000000000D+00 -.283139236197025D+03
 0.115375908314220D+03 -.635439417097030D+02 0.306380069993479D+02 0.445296243336995D+01
 0.122702725414983D+03 -.362338175229443D+01 0.342153305572965D+02 0.117780053845279D+03
 0.883012772546447D+02 0.767683601066403D+01 0.811814932912974D+02 0.338784134909244D+02
 0.239898561410202D+03 0.594904874513334D+02 -.146034830847942D+03 -.156111429769573D+03
 0.000000000000000D+00 0.000000000000000D+00 0.000000000000000D+00 0.000000000000000D+00
 0.114949100783531D+04 0.000000000000000D+00 0.000000000000000D+00 0.114949100783531D+04
 0.394987362283912D+03 0.000000000000000D+00 0.000000000000000D+00 -.394987362283912D+03
 0.183303134703807D+03 -.157453559289056D+03 0.217562781977224D+02 0.445296243336995D+01
 0.150162443977053D+03 -.894166916859444D+02 0.261012211458658D+02 0.117780053845279D+03
 0.971421934894861D+02 -.506296499221915D+02 0.756670166191522D+02 0.338784134909244D+02
 0.261149728048894D+03 -.980473591161372D+02 -.160934353019055D+03 -.156111429769573D+03
 0.852720869899981D+03 0.395547260013329D+03 0.374098370563151D+02 0.754503645551397D+03
0.179942094192D-05 0.000000000000D+00 0.000000000000D+00 0.275514095815D-06 0.000000000000D+00  7 2 -2 23 -13 13 23 21 0 0.23823274D+00 0.79647465D-02 0.42723965D+05 0.42723965D+05 0.42723965D+05 0.11533518D+01  1  2  2  1  7  1        2 0.242250276860D-03 0.100000000000D+01
-.879318023124D-07 0.000000000000D+00 -.691025021537D-08 0.275514095815D-06 0.000000000000D+00  7 2 -2 23 -13 13 23 21 2 0.23823274D+00 0.79647465D-02 0.42723965D+05 0.42723965D+05 0.42723965D+05 0.11533518D+01  1  2  3  1  7  1        2 -.157471175342D-04 0.100000000000D+01
0.111493407045D-06 0.000000000000D+00 0.000000000000D+00 0.275514095815D-06 0.000000000000D+00  7 2 -2 23 -13 13 23 21 2 0.23823274D+00 0.79647465D-02 0.42723965D+05 0.42723965D+05 0.42723965D+05 0.11533518D+01  1  2 15  1  7  1        2 0.199666075169D-04 0.100000000000D+01
-.330991323671D-06 0.000000000000D+00 -.542086250455D-06 0.275514095815D-06 0.000000000000D+00  7 2 -2 23 -13 13 23 21 2 0.97059758D+00 0.79647465D-02 0.42723965D+05 0.42723965D+05 0.42723965D+05 0.11533518D+01  1  2  5  1  7  1        2 -.497678660073D-10 0.100000000000D+01
-.509387581336D-07 0.000000000000D+00 -.910836907423D-07 0.275514095815D-06 0.000000000000D+00  7 21 -2 23 -13 13 23 -2 2 0.97059758D+00 0.79647465D-02 0.42723965D+05 0.42723965D+05 0.42723965D+05 0.11533518D+01  1  2  5  3  7  1        2 -.417978279379D-13 0.100000000000D+01
  </mgrwgt>
  </event>
  <event>
  8     66 0.55102590E-06 0.42856957E+03 0.75467711E-02 0.88014225E-01
        2 -1    0    0  501    0 0.00000000E+00 0.00000000E+00 0.14945455E+04 0.14945455E+04 0.32000000E+00 0.0000E+00 0.9000E+01
       -2 -1    0    0    0  501 0.00000000E+00 0.00000000E+00 -.14690661E+03 0.14690696E+03 0.32000000E+00 0.0000E+00 0.9000E+01
       25  2    1    2    0    0 0.90988921E+02 0.38898208E+03 0.53907735E+03 0.73486452E+03 0.29972558E+03 0.0000E+00 0.0000E+00
       23  2    1    2    0    0 -.90988921E+02 -.38898208E+03 0.80856152E+03 0.90658796E+03 0.92433470E+02 0.0000E+00 0.0000E+00
       23  1    3    3    0    0 0.96694240E+02 0.15799600E+03 0.97754365E+02 0.22843747E+03 0.91188000E+02 0.0000E+00 0.9000E+01
      -13  1    4    4    0    0 -.51759934E+02 -.30767720E+03 0.54491603E+03 0.62791548E+03 0.10565837E+00 0.0000E+00 0.9000E+01
       13  1    4    4    0    0 -.39228987E+02 -.81304881E+02 0.26364549E+03 0.27867248E+03 0.10565837E+00 0.0000E+00 0.9000E+01
       23  1    3    3    0    0 -.57053186E+01 0.23098608E+03 0.44132298E+03 0.50642704E+03 0.91188000E+02 0.0000E+00 0.9000E+01
#aMCatNLO 1  0  0  2  1 0.76154455D+03 0.00000000D+00  -5  7  0 0.00000000D+00 0.00000000D+00 0.00000000D+00 0.00000000D+00 0.00000000D+00
  <mgrwgt>
 0.2261078851D-03    5    2    0
 0.468571150038000D+03 0.000000000000000D+00 0.000000000000000D+00 0.468571150038000D+03
 0.468571150038000D+03 0.000000000000000D+00 0.000000000000000D+00 -.468571150038000D+03
 0.259546149856890D+03 0.966942399394219D+02 0.157996002163390D+03 -.157278224253895D+03
 0.316220530620814D+03 -.517599507315175D+02 -.307677495476734D+03 0.514867969827646D+02
 0.108978616146511D+03 -.392289706480326D+02 -.813045850240182D+02 0.610490875703861D+02
 0.252397003451784D+03 -.570531855987190D+01 0.230986078337361D+03 0.447423397007446D+02
 0.000000000000000D+00 0.000000000000000D+00 0.000000000000000D+00 -.000000000000000D+00
 0.706964297067913D+03 0.000000000000000D+00 0.000000000000000D+00 0.706964297067913D+03
 0.200886522765767D+04 0.000000000000000D+00 0.000000000000000D+00 -.200886522765767D+04
 0.198368589005808D+03 0.792777723233222D+02 -.366616300074196D+01 -.157278224253895D+03
 0.660558694299471D+03 -.889110670750428D+02 -.652519517334658D+03 0.514867969827646D+02
 0.209528852521107D+03 -.513431800034968D+02 -.193750424032475D+03 0.610490875703861D+02
 0.139097505736441D+03 -.205955390801641D+02 0.927729031894549D+02 0.447423397007446D+02
 0.150827588316276D+04 0.815720138353815D+02 0.757163201178420D+03 -.130190093058976D+04
0.836407105207D-05 0.000000000000D+00 0.000000000000D+00 0.539397451222D-06 0.000000000000D+00  7 2 -2 23 -13 13 23 21 0 0.22993010D+00 0.22601046D-01 0.18367187D+06 0.18367187D+06 0.18367187D+06 0.11006775D+01  1  2  2  2  7  2       -2 0.224827366671D-03 0.100000000000D+01
-.460171820768D-06 0.000000000000D+00 -.321202351504D-07 0.539397451222D-06 0.000000000000D+00  7 2 -2 23 -13 13 23 21 2 0.22993010D+00 0.22601046D-01 0.18367187D+06 0.18367187D+06 0.18367187D+06 0.11006775D+01  1  2  3  2  7  2       -2 -.149855132817D-04 0.100000000000D+01
0.525824490634D-06 0.000000000000D+00 0.000000000000D+00 0.539397451222D-06 0.000000000000D+00  7 2 -2 23 -13 13 23 21 2 0.22993010D+00 0.22601046D-01 0.18367187D+06 0.18367187D+06 0.18367187D+06 0.11006775D+01  1  2 15  2  7  2       -2 0.171234950351D-04 0.100000000000D+01
0.428483083990D-06 0.000000000000D+00 -.404629418160D-05 0.539397451222D-06 0.000000000000D+00  7 2 -2 23 -13 13 23 21 2 0.22993010D+00 0.13781841D+00 0.18367187D+06 0.18367187D+06 0.18367187D+06 0.11006775D+01  1  2  5  2  7  2       -2 0.325515802662D-06 0.100000000000D+01
-.176563226317D-06 0.000000000000D+00 -.896588480396D-06 0.539397451222D-06 0.000000000000D+00  7 2 21 23 -13 13 23 2 2 0.22993010D+00 0.13781841D+00 0.18367187D+06 0.18367187D+06 0.18367187D+06 0.11006775D+01  1  2  5  4  7  2       -2 -.118297909435D-05 0.100000000000D+01
  </mgrwgt>
  </event>
  <event>
  8     66 0.55102590E-06 0.26369896E+03 0.75467711E-02 0.98334011E-01
        2 -1    0    0  501    0 0.00000000E+00 0.00000000E+00 0.35577860E+04 0.35577861E+04 0.32000000E+00 0.0000E+00 0.9000E+01
       -2 -1    0    0    0  501 0.00000000E+00 0.00000000E+00 -.35828433E+02 0.35829862E+02 0.32000000E+00 0.0000E+00 0.9000E+01
       25  2    1    2    0    0 -.55486170E+01 -.17251510E+03 0.31850067E+04 0.32038235E+04 0.30070787E+03 0.0000E+00 0.0000E+00
       23  2    1    2    0    0 0.55486170E+01 0.17251510E+03 0.33695093E+03 0.38979242E+03 0.92789836E+02 0.0000E+00 0.0000E+00
       23  1    3    3    0    0 0.10270477E+03 -.11890768E+03 0.12820109E+04 0.12948183E+04 0.91188000E+02 0.0000E+00 0.9000E+01
      -11  1    4    4    0    0 0.35230923E+02 0.23297203E+02 0.54264156E+02 0.68764644E+02 0.51099893E-03 0.0000E+00 0.9000E+01
       11  1    4    4    0    0 -.29682306E+02 0.14921790E+03 0.28268677E+03 0.32102777E+03 0.51099893E-03 0.0000E+00 0.9000E+01
       23  1    3    3    0    0 -.10825339E+03 -.53607416E+02 0.19029958E+04 0.19090052E+04 0.91188000E+02 0.0000E+00 0.9000E+01
#aMCatNLO 1  0  0  2  2 0.16667731D+03 0.00000000D+00  -5  7  0 0.00000000D+00 0.00000000D+00 0.00000000D+00 0.00000000D+00 0.00000000D+00
  <mgrwgt>
 0.1654714833D-03    4    2    0
 0.357032901343361D+03 0.000000000000000D+00 0.000000000000000D+00 0.357032901343361D+03
 0.357032901343361D+03 0.000000000000000D+00 0.000000000000000D+00 -.357032901343361D+03
 0.193107857845925D+03 0.102704774125185D+03 -.118907683461574D+03 0.654834758052660D+02
 0.784208705882695D+02 0.352309234885706D+02 0.232972029483545D+02 -.660746192478457D+02
 0.221323704651470D+03 -.296823064686228D+02 0.149217896746430D+03 -.160739423334556D+03
 0.221213369601057D+03 -.108253391145133D+03 -.536074162332112D+02 0.161330566777136D+03
 0.000000000000000D+00 0.000000000000000D+00 -.000000000000000D+00 0.000000000000000D+00
 0.475732318621463D+03 0.000000000000000D+00 0.000000000000000D+00 0.475732318621463D+03
 0.430289456303923D+03 0.000000000000000D+00 0.000000000000000D+00 -.430289456303923D+03
 0.161833292025073D+03 0.794434555084611D+02 -.852960423291077D+02 0.654834758052660D+02
 0.803207088208226D+02 0.248276821126440D+02 0.383294554832844D+02 -.660746192478457D+02
 0.259856567817323D+03 -.612167950283370D+02 0.194783925492664D+03 -.160739423334556D+03
 0.231250159854808D+03 -.137905907695963D+03 -.107607590250325D+02 0.161330566777136D+03
 0.172761046407359D+03 0.948515651031954D+02 -.137056579621808D+03 0.454428623175403D+02
0.131741299622D-04 0.000000000000D+00 0.000000000000D+00 0.922658092748D-07 0.000000000000D+00  7 2 -2 23 -11 11 23 21 0 0.54735181D+00 0.55121777D-02 0.69537139D+05 0.69537139D+05 0.69537139D+05 0.11349046D+01  1  2  2  2  7  2       -2 0.204085991372D-03 0.100000000000D+01
-.650186530899D-06 0.000000000000D+00 -.505921278827D-07 0.922658092748D-07 0.000000000000D+00  7 2 -2 23 -11 11 23 21 2 0.54735181D+00 0.55121777D-02 0.69537139D+05 0.69537139D+05 0.69537139D+05 0.11349046D+01  1  2  3  2  7  2       -2 -.129732252681D-04 0.100000000000D+01
0.808836299958D-06 0.000000000000D+00 0.000000000000D+00 0.922658092748D-07 0.000000000000D+00  7 2 -2 23 -11 11 23 21 2 0.54735181D+00 0.55121777D-02 0.69537139D+05 0.69537139D+05 0.69537139D+05 0.11349046D+01  1  2 15  2  7  2       -2 0.161387771443D-04 0.100000000000D+01
-.209391509679D-05 0.000000000000D+00 0.000000000000D+00 0.922658092748D-07 0.000000000000D+00  7 2 -2 23 -11 11 23 21 2 0.54735181D+00 0.55121777D-02 0.69537139D+05 0.69537139D+05 0.69537139D+05 0.11349046D+01  1  2  4  2  7  2       -2 -.417800599550D-04 0.100000000000D+01
  </mgrwgt>
  </event>
  <event>
  8     66 0.55102590E-06 0.13435516E+03 0.75467711E-02 0.83358817E-01
        2 -1    0    0  501    0 0.00000000E+00 0.00000000E+00 0.18269000E+03 0.18269028E+03 0.32000000E+00 0.0000E+00 0.9000E+01
       -2 -1    0    0    0  501 0.00000000E+00 0.00000000E+00 -.10495857E+04 0.10495858E+04 0.32000000E+00 0.0000E+00 0.9000E+01
       25  2    1    2    0    0 0.14551529E+02 -.31933722E+02 0.51803633E+02 0.30832056E+03 0.30190468E+03 0.0000E+00 0.0000E+00
       23  2    1    2    0    0 -.14551529E+02 0.31933722E+02 -.91869937E+03 0.92395550E+03 0.91944196E+02 0.0000E+00 0.0000E+00
       23  1    3    3    0    0 -.75428850E+01 0.25816286E+02 -.88527894E+02 0.12990695E+03 0.91188000E+02 0.0000E+00 0.9000E+01
      -11  1    4    4    0    0 0.49793024E+01 -.13295812E+02 -.23886007E+02 0.27786928E+02 0.51099893E-03 0.0000E+00 0.9000E+01
       11  1    4    4    0    0 -.19530832E+02 0.45229534E+02 -.89481336E+03 0.89616857E+03 0.51099893E-03 0.0000E+00 0.9000E+01
       23  1    3    3    0    0 0.22094414E+02 -.57750008E+02 0.14033153E+03 0.17841361E+03 0.91188000E+02 0.0000E+00 0.9000E+01
#aMCatNLO 1  0  0  1  2 0.15287380D+04 0.00000000D+00  -5  7  0 0.00000000D+00 0.00000000D+00 0.00000000D+00 0.00000000D+00 0.00000000D+00
  <mgrwgt>
 0.4341027272D-03    5    2    0
 0.437891559129967D+03 0.000000000000000D+00 0.000000000000000D+00 0.437891559129967D+03
 0.437891559129967D+03 0.000000000000000D+00 0.000000000000000D+00 -.437891559129967D+03
 0.951568559060121D+02 -.754288499640870D+01 0.258162860278566D+02 0.402494019538092D+01
 0.154541565767360D+02 0.497930242198615D+01 -.132958124483003D+02 -.610400476968152D+01
 0.375226682225281D+03 -.195308317924063D+02 0.452295341180354D+02 -.371978358116106D+03
 0.389945423551905D+03 0.220944143668289D+02 -.577500076975917D+02 0.374057422690406D+03
 0.000000000000000D+00 -.000000000000000D+00 -.000000000000000D+00 0.000000000000000D+00
 0.242750466570969D+04 0.000000000000000D+00 0.000000000000000D+00 0.242750466570969D+04
 0.125868654057827D+04 0.000000000000000D+00 0.000000000000000D+00 -.125868654057827D+04
 0.182651659368610D+03 0.152728136601321D+03 0.412830894291921D+02 0.402494019538092D+01
 0.375115174568286D+02 0.355358268632195D+02 -.103469839486176D+02 -.610400476968152D+01
 0.728498914329073D+03 0.617221532505943D+03 0.106678718978523D+03 -.371978358116106D+03
 0.813165381027538D+03 0.716183281853852D+03 0.923238219084622D+01 0.374057422690406D+03
 0.192436373410591D+04 -.152166877782434D+04 -.146847206649944D+03 0.116881812513143D+04
0.545975608299D-04 0.000000000000D+00 0.000000000000D+00 0.206134515323D-06 0.000000000000D+00  7 2 -2 23 -11 11 23 21 0 0.28106179D-01 0.16147475D+00 0.18051309D+05 0.18051309D+05 0.18051309D+05 0.11883755D+01  1  2  2  1  7  1        2 0.326999558406D-03 0.100000000000D+01
0.211479973009D-05 0.000000000000D+00 -.209669009455D-06 0.206134515323D-06 0.000000000000D+00  7 2 -2 23 -11 11 23 21 2 0.28106179D-01 0.16147475D+00 0.18051309D+05 0.18051309D+05 0.18051309D+05 0.11883755D+01  1  2  3  1  7  1        2 0.178875360975D-04 0.100000000000D+01
0.330783370251D-05 0.000000000000D+00 0.000000000000D+00 0.206134515323D-06 0.000000000000D+00  7 2 -2 23 -11 11 23 21 2 0.28106179D-01 0.16147475D+00 0.18051309D+05 0.18051309D+05 0.18051309D+05 0.11883755D+01  1  2 15  1  7  1        2 0.279785333411D-04 0.100000000000D+01
0.244196187882D-03 0.000000000000D+00 -.515593738150D-04 0.206134515323D-06 0.000000000000D+00  7 2 -2 23 -11 11 23 21 2 0.36249928D+00 0.16147475D+00 0.18051309D+05 0.18051309D+05 0.18051309D+05 0.11883755D+01  1  2  5  1  7  1        2 0.588352928924D-04 0.100000000000D+01
0.616422659816D-04 0.000000000000D+00 -.151930070573D-04 0.206134515323D-06 0.000000000000D+00  7 21 -2 23 -11 11 23 -2 2 0.36249928D+00 0.16147475D+00 0.18051309D+05 0.18051309D+05 0.18051309D+05 0.11883755D+01  1  2  5  3  7  1        2 0.240180642377D-05 0.100000000000D+01
  </mgrwgt>
  </event>
  <event>
  8     66 0.55102590E-06 0.53512310E+03 0.75467711E-02 0.88668760E-01
        2 -1    0    0  501    0 0.00000000E+00 0.00000000E+00 0.17432170E+04 0.17432170E+04 0.32000000E+00 0.0000E+00 0.9000E+01
       -2 -1    0    0    0  501 0.00000000E+00 0.00000000E+00 -.40856633E+03 0.40856645E+03 0.32000000E+00 0.0000E+00 0.9000E+01
       25  2    1    2    0    0 0.30189826E+03 -.40926589E+03 -.12625014E+03 0.60293856E+03 0.29825273E+03 0.0000E+00 0.0000E+00
       23  2    1    2    0    0 -.30189826E+03 0.40926589E+03 0.14609008E+04 0.15488449E+04 0.77770684E+02 0.0000E+00 0.0000E+00
       23  1    3    3    0    0 0.17227222E+03 -.12460158E+03 0.43754816E+02 0.23544215E+03 0.91188000E+02 0.0000E+00 0.9000E+01
      -13  1    4    4    0    0 -.13740598E+03 0.24332939E+03 0.85183161E+03 0.89649690E+03 0.10565837E+00 0.0000E+00 0.9000E+01
       13  1    4    4    0    0 -.16449228E+03 0.16593649E+03 0.60906922E+03 0.65234803E+03 0.10565837E+00 0.0000E+00 0.9000E+01
       23  1    3    3    0    0 0.12962603E+03 -.28466430E+03 -.17000495E+03 0.36749641E+03 0.91188000E+02 0.0000E+00 0.9000E+01
#aMCatNLO 1  0  0  2  2 0.56624338D+03 0.00000000D+00  -5  7  0 0.00000000D+00 0.00000000D+00 0.00000000D+00 0.00000000D+00 0.00000000D+00
  <mgrwgt>
 0.2280034258D-02    3    2    0
 0.843931240619901D+03 0.000000000000000D+00 0.000000000000000D+00 0.843931240619901D+03
 0.843931240619901D+03 0.000000000000000D+00 0.000000000000000D+00 -.843931240619901D+03
 0.265556674665473D+03 0.172272220513395D+03 -.124601584635633D+03 -.130391039803575D+03
 0.469333241634354D+03 -.137405928453262D+03 0.243329536719034D+03 0.377072989073744D+03
 0.350038412215680D+03 -.164492326717693D+03 0.165936350599549D+03 0.260642076471122D+03
 0.602934152724294D+03 0.129626034657561D+03 -.284664302682949D+03 -.507324025741291D+03
 0.000000000000000D+00 -.000000000000000D+00 -.000000000000000D+00 0.000000000000000D+00
 0.150190338817303D+04 0.000000000000000D+00 0.000000000000000D+00 0.150190338817303D+04
 0.102118711877375D+04 0.000000000000000D+00 0.000000000000000D+00 -.102118711877375D+04
 0.334843276597688D+03 0.270060394380789D+03 -.117772359509824D+03 -.130391039803575D+03
 0.454742336376798D+03 0.130998520669624D+02 0.253840397258286D+03 0.377072989073744D+03
 0.318039661990376D+03 -.556813004342805D+02 0.173535377815942D+03 0.260642076471122D+03
 0.672686867112861D+03 0.337388626600315D+03 -.270154802638264D+03 -.507324025741291D+03
 0.742778364869056D+03 -.564867572613786D+03 -.394486129261395D+02 0.480716269399281D+03
0.777476021429D-03 0.000000000000D+00 0.000000000000D+00 0.233815879496D-08 0.000000000000D+00  7 2 -2 23 -13 13 23 21 0 0.26818725D+00 0.62856370D-01 0.28635673D+06 0.28635673D+06 0.28635673D+06 0.10860506D+01  1  2  2  2  7  2       -2 0.222527323051D-02 0.100000000000D+01
-.322934196823D-04 0.000000000000D+00 -.298571263643D-05 0.233815879496D-08 0.000000000000D+00  7 2 -2 23 -13 13 23 21 2 0.26818725D+00 0.62856370D-01 0.28635673D+06 0.28635673D+06 0.28635673D+06 0.10860506D+01  1  2  3  2  7  2       -2 -.109021074126D-03 0.100000000000D+01
0.485143278383D-04 0.000000000000D+00 0.000000000000D+00 0.233815879496D-08 0.000000000000D+00  7 2 -2 23 -13 13 23 21 2 0.26818725D+00 0.62856370D-01 0.28635673D+06 0.28635673D+06 0.28635673D+06 0.10860506D+01  1  2 15  2  7  2       -2 0.163782101229D-03 0.100000000000D+01
  </mgrwgt>
  </event>
  <event>
  8     66 0.55102590E-06 0.25353833E+03 0.75467711E-02 0.10224004E+00
        2 -1    0    0  501    0 0.00000000E+00 0.00000000E+00 0.10665173E+04 0.10665173E+04 0.32000000E+00 0.0000E+00 0.9000E+01
       -2 -1    0    0    0  501 0.00000000E+00 0.00000000E+00 -.83239069E+02 0.83239684E+02 0.32000000E+00 0.0000E+00 0.9000E+01
       25  2    1    2    0    0 0.13703398E+03 -.10319888E+03 0.37043095E+03 0.50677939E+03 0.30029641E+03 0.0000E+00 0.0000E+00
       23  2    1    2    0    0 -.13703398E+03 0.10319888E+03 0.61284726E+03 0.64297763E+03 0.91706853E+02 0.0000E+00 0.0000E+00
       23  1    3    3    0    0 0.17584830E+03 -.13930585E+02 0.28853186E+03 0.35026072E+03 0.91188000E+02 0.0000E+00 0.9000E+01
      -13  1    4    4    0    0 -.11551116E+03 0.10108145E+03 0.39054221E+03 0.41962307E+03 0.10565837E+00 0.0000E+00 0.9000E+01
       13  1    4    4    0    0 -.21522814E+02 0.21174358E+01 0.22230505E+03 0.22335456E+03 0.10565837E+00 0.0000E+00 0.9000E+01
       23  1    3    3    0    0 -.38814325E+02 -.89268296E+02 0.81899095E+02 0.15651867E+03 0.91188000E+02 0.0000E+00 0.9000E+01
#aMCatNLO 1  0  0  1  1 0.27274082D+02 0.00000000D+00  -5  7  0 0.00000000D+00 0.00000000D+00 0.00000000D+00 0.00000000D+00 0.00000000D+00
  <mgrwgt>
 0.1357274431D-03    4    2    0
 0.297953497507883D+03 0.000000000000000D+00 0.000000000000000D+00 0.297953497507883D+03
 0.297953497507883D+03 0.000000000000000D+00 0.000000000000000D+00 -.297953497507883D+03
 0.199708390407630D+03 0.175848299762370D+03 -.139305855638823D+02 -.212486261141083D+02
 0.165215370628680D+03 -.115511285724945D+03 0.101081576355053D+03 0.611209987133690D+02
 0.641302826556419D+02 -.215226899219618D+02 0.211730497419554D+01 0.603737028155625D+02
 0.166852951323815D+03 -.388143241154633D+02 -.892682957653660D+02 -.100246075414823D+03
 0.000000000000000D+00 0.000000000000000D+00 0.000000000000000D+00 -.000000000000000D+00
 0.303672148508134D+03 0.000000000000000D+00 0.000000000000000D+00 0.303672148508134D+03
 0.332661180419865D+03 0.000000000000000D+00 0.000000000000000D+00 -.332661180419865D+03
 0.193084641734667D+03 0.167890679341917D+03 -.181009173297103D+02 -.212486261141083D+02
 0.167923564114058D+03 -.122260369779462D+03 0.975445994529563D+02 0.611209987133690D+02
 0.650249504840618D+02 -.241392544649617D+02 0.746048033745792D+00 0.603737028155625D+02
 0.170497666216689D+03 -.456487329346615D+02 -.928499886199409D+02 -.100246075414823D+03
 0.398025063785241D+02 0.241576778371684D+02 0.126602584629490D+02 -.289890319117310D+02
0.182428175662D-05 0.000000000000D+00 0.000000000000D+00 0.302402623421D-06 0.000000000000D+00  7 2 -2 23 -13 13 23 21 0 0.16407963D+00 0.12806062D-01 0.64281685D+05 0.64281685D+05 0.64281685D+05 0.11378194D+01  1  2  2  1  7  1        2 0.218053477229D-03 0.100000000000D+01
-.981380733745D-07 0.000000000000D+00 -.700572228985D-08 0.302402623421D-06 0.000000000000D+00  7 2 -2 23 -13 13 23 21 2 0.16407963D+00 0.12806062D-01 0.64281685D+05 0.64281685D+05 0.64281685D+05 0.11378194D+01  1  2  3  1  7  1        2 -.151864162203D-04 0.100000000000D+01
0.116827464071D-06 0.000000000000D+00 0.000000000000D+00 0.302402623421D-06 0.000000000000D+00  7 2 -2 23 -13 13 23 21 2 0.16407963D+00 0.12806062D-01 0.64281685D+05 0.64281685D+05 0.64281685D+05 0.11378194D+01  1  2 15  1  7  1        2 0.180785136119D-04 0.100000000000D+01
-.550698935306D-06 0.000000000000D+00 0.000000000000D+00 0.302402623421D-06 0.000000000000D+00  7 2 -2 23 -13 13 23 21 2 0.16407963D+00 0.12806062D-01 0.64281685D+05 0.64281685D+05 0.64281685D+05 0.11378194D+01  1  2  4  1  7  1        2 -.852181315168D-04 0.100000000000D+01
  </mgrwgt>
  </event>
  <event>
  8     66 0.55102590E-06 0.22968990E+03 0.75467711E-02 0.93493667E-01
        2 -1    0    0  501    0 0.00000000E+00 0.00000000E+00 0.47756008E+03 0.47756019E+03 0.32000000E+00 0.0000E+00 0.9000E+01
       -2 -1    0    0    0  501 0.00000000E+00 0.00000000E+00 -.60569917E+03 0.60569925E+03 0.32000000E+00 0.0000E+00 0.9000E+01
       25  2    1    2    0    0 -.83448001E+02 0.68629290E+02 0.41413675E+03 0.52277841E+03 0.30019072E+03 0.0000E+00 0.0000E+00
       23  2    1    2    0    0 0.83448001E+02 -.68629290E+02 -.54227584E+03 0.56048103E+03 0.91664360E+02 0.0000E+00 0.0000E+00
       23  1    3    3    0    0 0.29777150E+02 -.68880793E+02 0.17225854E+03 0.20885282E+03 0.91188000E+02 0.0000E+00 0.9000E+01
      -11  1    4    4    0    0 0.42792834E+02 0.17264829E+02 -.15551578E+03 0.16221732E+03 0.51099893E-03 0.0000E+00 0.9000E+01
       11  1    4    4    0    0 0.40655168E+02 -.85894119E+02 -.38676006E+03 0.39826372E+03 0.51099893E-03 0.0000E+00 0.9000E+01
       23  1    3    3    0    0 -.11322515E+03 0.13751008E+03 0.24187821E+03 0.31392559E+03 0.91188000E+02 0.0000E+00 0.9000E+01
#aMCatNLO 1  0  0  2  2 0.45513161D+03 0.00000000D+00  -5  7  0 0.00000000D+00 0.00000000D+00 0.00000000D+00 0.00000000D+00 0.00000000D+00
  <mgrwgt>
 0.2863241906D-03    3    2    0
 0.537826968146898D+03 0.000000000000000D+00 0.000000000000000D+00 0.537826968146898D+03
 0.537826968146898D+03 0.000000000000000D+00 0.000000000000000D+00 -.537826968146898D+03
 0.230850116850015D+03 0.297771498321893D+02 -.688807929117017D+02 0.198356453944388D+03
 0.144838208172598D+03 0.427928338436467D+02 0.172648294377121D+02 -.137290952297541D+03
 0.355006231685399D+03 0.406551675977056D+02 -.858941192356238D+02 -.342050847336775D+03
 0.344959379585785D+03 -.113225151273542D+03 0.137510082709613D+03 0.280985345689928D+03
 0.000000000000000D+00 0.000000000000000D+00 0.000000000000000D+00 0.000000000000000D+00
 0.917830332105851D+03 0.000000000000000D+00 0.000000000000000D+00 0.917830332105851D+03
 0.739112301096934D+03 0.000000000000000D+00 0.000000000000000D+00 -.739112301096934D+03
 0.276756513931869D+03 0.949401062545218D+01 -.169833735166404D+03 0.198356453944388D+03
 0.146541354224619D+03 0.311497782417185D+02 -.406848157266483D+02 -.137290952297541D+03
 0.417720211554750D+03 0.977826988495375D+01 -.239574160575793D+03 -.342050847336775D+03
 0.326961447226288D+03 -.140074019747033D+03 0.387828927853388D+01 0.280985345689928D+03
 0.488963106265259D+03 0.896519609949091D+02 0.446214422190312D+03 0.178718031008917D+03
0.324233945120D-04 0.000000000000D+00 0.000000000000D+00 0.177140823386D-05 0.000000000000D+00  7 2 -2 23 -11 11 23 21 0 0.73470796D-01 0.93184502D-01 0.52757452D+05 0.52757452D+05 0.52757452D+05 0.11452503D+01  1  2  2  2  7  2       -2 0.267029531515D-03 0.100000000000D+01
-.215934520689D-06 0.000000000000D+00 -.124514372202D-06 0.177140823386D-05 0.000000000000D+00  7 2 -2 23 -11 11 23 21 2 0.73470796D-01 0.93184502D-01 0.52757452D+05 0.52757452D+05 0.52757452D+05 0.11452503D+01  1  2  3  2  7  2       -2 -.233251128651D-05 0.100000000000D+01
0.200215651887D-05 0.000000000000D+00 0.000000000000D+00 0.177140823386D-05 0.000000000000D+00  7 2 -2 23 -11 11 23 21 2 0.73470796D-01 0.93184502D-01 0.52757452D+05 0.52757452D+05 0.52757452D+05 0.11452503D+01  1  2 15  2  7  2       -2 0.216271704160D-04 0.100000000000D+01
  </mgrwgt>
  </event>
  <event>
  8     66 0.55102590E-06 0.88618413E+02 0.75467711E-02 0.10608288E+00
        2 -1    0    0  501    0 0.00000000E+00 0.00000000E+00 0.87571307E+03 0.87571313E+03 0.32000000E+00 0.0000E+00 0.9000E+01
       -2 -1    0    0    0  501 0.00000000E+00 0.00000000E+00 -.14884764E+03 0.14884799E+03 0.32000000E+00 0.0000E+00 0.9000E+01
       25  2    1    2    0    0 -.30258077E+02 -.66295136E+02 0.21402278E+02 0.30939672E+03 0.29992945E+03 0.0000E+00 0.0000E+00
       23  2    1    2    0    0 0.30258077E+02 0.66295136E+02 0.70546315E+03 0.71516440E+03 0.92039473E+02 0.0000E+00 0.0000E+00
       23  1    3    3    0    0 0.13436490E+02 -.13000340E+03 0.77690757E+02 0.17729221E+03 0.91188000E+02 0.0000E+00 0.9000E+01
      -11  1    4    4    0    0 -.12894203E+02 0.17651894E+02 0.48037025E+03 0.48086737E+03 0.51099893E-03 0.0000E+00 0.9000E+01
       11  1    4    4    0    0 0.43152280E+02 0.48643243E+02 0.22509291E+03 0.23429703E+03 0.51099893E-03 0.0000E+00 0.9000E+01
       23  1    3    3    0    0 -.43694566E+02 0.63708261E+02 -.56288479E+02 0.13210451E+03 0.91188000E+02 0.0000E+00 0.9000E+01
#aMCatNLO 1  0  0  1  2 0.31786621D+02 0.00000000D+00  -5  7  0 0.00000000D+00 0.00000000D+00 0.00000000D+00 0.00000000D+00 0.00000000D+00
  <mgrwgt>
 0.1654539072D-03    9    2    0
 0.361037441765892D+03 0.000000000000000D+00 0.000000000000000D+00 0.361037441765892D+03
 0.361037441765892D+03 0.000000000000000D+00 0.000000000000000D+00 -.361037441765892D+03
 0.173355953046758D+03 0.134364895345611D+02 -.130003397362922D+03 -.682320491839109D+02
 0.198751521088261D+03 -.128942032199812D+02 0.176518936452630D+02 0.197545734727317D+03
 0.105860739298722D+03 0.431522801504332D+02 0.486432426921471D+02 0.835356916717838D+02
 0.244106670098042D+03 -.436945664650131D+02 0.637082610255118D+02 -.212849377215190D+03
 0.000000000000000D+00 0.000000000000000D+00 -.000000000000000D+00 0.000000000000000D+00
 0.415507209910396D+03 0.000000000000000D+00 0.000000000000000D+00 0.415507209910396D+03
 0.366054440116339D+03 0.000000000000000D+00 0.000000000000000D+00 -.366054440116339D+03
 0.171232020692432D+03 0.620937670212580D+01 -.127714465396637D+03 -.682320491839109D+02
 0.199719751960753D+03 -.212514213189187D+02 0.202987464202775D+02 0.197545734727317D+03
 0.104798842541930D+03 0.387340743997348D+02 0.500425528469591D+02 0.835356916717838D+02
 0.247023572702284D+03 -.539951397601966D+02 0.669706027147951D+02 -.212849377215190D+03
 0.587874621293370D+02 0.303031099772547D+02 -.959743658539470D+01 0.494527697940567D+02
0.221054659217D-05 0.000000000000D+00 0.000000000000D+00 0.574963470567D-06 0.000000000000D+00  7 2 -2 23 -11 11 23 21 0 0.13472512D+00 0.22899669D-01 0.33445233D+05 0.33445233D+05 0.33445233D+05 0.11629806D+01  1  2  2  1  7  1        2 0.135995956856D-03 0.100000000000D+01
-.537337133979D-07 0.000000000000D+00 -.848908096423D-08 0.574963470567D-06 0.000000000000D+00  7 2 -2 23 -11 11 23 21 2 0.13472512D+00 0.22899669D-01 0.33445233D+05 0.33445233D+05 0.33445233D+05 0.11629806D+01  1  2  3  1  7  1        2 -.447113850587D-05 0.100000000000D+01
0.137397698458D-06 0.000000000000D+00 0.000000000000D+00 0.574963470567D-06 0.000000000000D+00  7 2 -2 23 -11 11 23 21 2 0.13472512D+00 0.22899669D-01 0.33445233D+05 0.33445233D+05 0.33445233D+05 0.11629806D+01  1  2 15  1  7  1        2 0.114327505275D-04 0.100000000000D+01
0.112984247679D-04 0.000000000000D+00 0.000000000000D+00 0.574963470567D-06 0.000000000000D+00  7 2 -2 23 -11 11 23 21 2 0.15589692D+00 0.22899669D-01 0.41385688D+05 0.41385688D+05 0.41385688D+05 0.11545894D+01  1  2 12  1  7  1        2 0.761253067648D-03 0.100000000000D+01
-.115464168241D-04 0.000000000000D+00 0.000000000000D+00 0.574963470567D-06 0.000000000000D+00  7 2 -2 23 -11 11 23 21 2 0.13472512D+00 0.22899669D-01 0.33445233D+05 0.33445233D+05 0.33445233D+05 0.11629806D+01  1  2  4  1  7  1        2 -.960767935113D-03 0.100000000000D+01
-.144115598425D-04 0.000000000000D+00 -.195380508094D-05 0.574963470567D-06 0.000000000000D+00  7 2 -2 23 -11 11 23 21 2 0.15606216D+00 0.22899669D-01 0.33445233D+05 0.33445233D+05 0.33445233D+05 0.11629806D+01  1  2  5  1  7  1        2 -.986359480003D-03 0.100000000000D+01
0.145620727829D-04 0.000000000000D+00 0.193287857025D-05 0.574963470567D-06 0.000000000000D+00  7 2 -2 23 -11 11 23 21 2 0.13472512D+00 0.22899669D-01 0.33445233D+05 0.33445233D+05 0.33445233D+05 0.11629806D+01  1  2  6  1  7  1        2 0.121169821008D-02 0.100000000000D+01
0.252078341252D-06 0.000000000000D+00 0.000000000000D+00 0.574963470567D-06 0.000000000000D+00  7 21 -2 23 -11 11 23 -2 2 0.15589692D+00 0.22899669D-01 0.41385688D+05 0.41385688D+05 0.41385688D+05 0.11545894D+01  1  2 12  3  7  1        2 0.127116095174D-04 0.100000000000D+01
-.310351843972D-06 0.000000000000D+00 -.438482468538D-07 0.574963470567D-06 0.000000000000D+00  7 21 -2 23 -11 11 23 -2 2 0.15606216D+00 0.22899669D-01 0.33445233D+05 0.33445233D+05 0.33445233D+05 0.11629806D+01  1  2  5  3  7  1        2 -.160391338144D-04 0.100000000000D+01
  </mgrwgt>
  </event>
  <event>
  9     66 0.55102590E-06 0.38550833E+03 0.75467711E-02 0.95885660E-01
        2 -1    0    0  502    0 0.00000000E+00 0.00000000E+00 0.68195162E+03 0.68195169E+03 0.32000000E+00 0.0000E+00 0.9000E+01
       -2 -1    0    0    0  501 0.00000000E+00 0.00000000E+00 -.30219713E+03 0.30219730E+03 0.32000000E+00 0.0000E+00 0.9000E+01
       25  2    1    2    0    0 -.35502087E+03 0.17303535E+03 0.20181803E+03 0.53509220E+03 0.29935279E+03 0.0000E+00 0.0000E+00
       23  2    1    2    0    0 0.25009102E+03 -.12269770E+03 0.15084303E+03 0.32956299E+03 0.90872995E+02 0.0000E+00 0.0000E+00
       23  1    3    3    0    0 -.36160276E+03 0.13697568E+03 0.16040000E+03 0.42844172E+03 0.91188000E+02 0.0000E+00 0.9000E+01
      -13  1    4    4    0    0 0.25320041E+03 -.12041893E+03 0.15770892E+03 0.32168818E+03 0.10565837E+00 0.0000E+00 0.9000E+01
       13  1    4    4    0    0 -.31093887E+01 -.22787734E+01 -.68658930E+01 0.78748179E+01 0.10565837E+00 0.0000E+00 0.9000E+01
       23  1    3    3    0    0 0.65818868E+01 0.36059670E+02 0.41418028E+02 0.10665048E+03 0.91188000E+02 0.0000E+00 0.9000E+01
       21  1    1    2  502  501 0.10492985E+03 -.50337650E+02 0.27093431E+02 0.11949380E+03 0.75000000E+00 0.0000E+00 0.9000E+01
#aMCatNLO 2  0  0  1  2 0.11637935D+03 0.00000000D+00  -5  7  0 0.00000000D+00 0.00000000D+00 0.00000000D+00 0.00000000D+00 0.00000000D+00
  <mgrwgt>
 0.1083534068D-03    1    2    0
 0.390421127222568D+03 0.000000000000000D+00 0.000000000000000D+00 0.390421127222568D+03
 0.390421127222568D+03 0.000000000000000D+00 0.000000000000000D+00 -.390421127222568D+03
 0.344563273364636D+03 -.312010976414905D+03 0.113185182442015D+03 -.157118770342211D+02
 0.326777622035537D+03 0.293871667598077D+03 -.139930012230690D+03 0.290284157928754D+02
 0.115496347227666D+02 -.155673748411513D+01 -.302362814702891D+01 -.110375859436465D+02
 0.979517243221970D+02 0.196960463009426D+02 0.297684579357041D+02 -.227895281500777D+01
 0.000000000000000D+00 0.000000000000000D+00 -.000000000000000D+00 -.000000000000000D+00
 0.442265728460937D+03 0.000000000000000D+00 0.000000000000000D+00 0.442265728460937D+03
 0.465970679112733D+03 0.000000000000000D+00 0.000000000000000D+00 -.465970679112733D+03
 0.397594022227151D+03 -.361602757345502D+03 0.136975683852849D+03 -.157118770342211D+02
 0.281875912180585D+03 0.253200757387040D+03 -.120419090690896D+03 0.290284157928754D+02
 0.116914856446690D+02 -.310973515278922D+01 -.227861370039474D+01 -.110375859436465D+02
 0.983059816755777D+02 0.658188678301665D+01 0.360596704039503D+02 -.227895281500777D+01
 0.118769005845687D+03 0.104929848328234D+03 -.503376498655082D+02 -.237049506517959D+02
0.389649305317D-05 0.000000000000D+00 0.000000000000D+00 0.384397556576D-06 0.190745917219D-09  7 2 -2 23 -13 13 23 21 2 0.10491538D+00 0.46491763D-01 0.20078230D+06 0.20078230D+06 0.20078230D+06 0.10976952D+01  1  2  1  1  7  1        2 0.108353406844D-03 0.100000000000D+01
  </mgrwgt>
  </event>
  <event>
  8     66 0.55102590E-06 0.24342548E+03 0.75467711E-02 0.10262533E+00
        2 -1    0    0  501    0 0.00000000E+00 0.00000000E+00 0.16459770E+04 0.16459770E+04 0.32000000E+00 0.0000E+00 0.9000E+01
       -2 -1    0    0    0  501 0.00000000E+00 0.00000000E+00 -.68755914E+02 0.68756658E+02 0.32000000E+00 0.0000E+00 0.9000E+01
       25  2    1    2    0    0 0.99009170E+02 0.14503478E+03 0.14186789E+04 0.14606652E+04 0.30009164E+03 0.0000E+00 0.0000E+00
       23  2    1    2    0    0 -.99009170E+02 -.14503478E+03 0.15854214E+03 0.25406848E+03 0.92613602E+02 0.0000E+00 0.0000E+00
       23  1    3    3    0    0 0.79309940E+02 -.11185697E+02 0.95304635E+03 0.96074335E+03 0.91188000E+02 0.0000E+00 0.9000E+01
      -11  1    4    4    0    0 -.78012558E+02 -.67381253E+02 0.39493283E+02 0.11038982E+03 0.51099893E-03 0.0000E+00 0.9000E+01
       11  1    4    4    0    0 -.20996613E+02 -.77653529E+02 0.11904885E+03 0.14367866E+03 0.51099893E-03 0.0000E+00 0.9000E+01
       23  1    3    3    0    0 0.19699231E+02 0.15622048E+03 0.46563260E+03 0.49992186E+03 0.91188000E+02 0.0000E+00 0.9000E+01
#aMCatNLO 1  0  0  2  1 0.36052235D+02 0.00000000D+00  -5  7  0 0.00000000D+00 0.00000000D+00 0.00000000D+00 0.00000000D+00 0.00000000D+00
  <mgrwgt>
 0.2739061523D-03    4    2    0
 0.336409449342401D+03 0.000000000000000D+00 0.000000000000000D+00 0.336409449342401D+03
 0.336409449342401D+03 0.000000000000000D+00 0.000000000000000D+00 -.336409449342401D+03
 0.214402699361080D+03 0.793099396175714D+02 -.111856970619178D+02 0.176742976687658D+03
 0.188757332602620D+03 -.780125576290545D+02 -.673812533793283D+02 -.158123806419085D+03
 0.871026059889151D+02 -.209966126079342D+02 -.776535286458828D+02 -.334056240458934D+02
 0.182556260732186D+03 0.196992306194173D+02 0.156220479087129D+03 0.147864537773205D+02
 0.000000000000000D+00 0.000000000000000D+00 -.000000000000000D+00 0.000000000000000D+00
 0.451926994219999D+03 0.000000000000000D+00 0.000000000000000D+00 0.451926994219999D+03
 0.339716772621255D+03 0.000000000000000D+00 0.000000000000000D+00 -.339716772621255D+03
 0.210848810926780D+03 0.698606744747813D+02 -.483488146202778D+01 0.176742976687658D+03
 0.190483529310920D+03 -.864394470592073D+02 -.617175726546535D+02 -.158123806419085D+03
 0.858402791014877D+02 -.248394753285677D+02 -.750707550496677D+02 -.334056240458934D+02
 0.186611495977872D+03 0.114961697697073D+02 0.161733725463852D+03 0.147864537773205D+02
 0.117859651524193D+03 0.299220781432863D+02 -.201105162975033D+02 0.112210221598744D+03
0.363811531340D-05 0.000000000000D+00 0.000000000000D+00 0.347568606859D-06 0.000000000000D+00  7 2 -2 23 -11 11 23 21 0 0.25322729D+00 0.10577893D-01 0.59255966D+05 0.59255966D+05 0.59255966D+05 0.11408633D+01  1  2  2  2  7  2       -2 0.281638042984D-03 0.100000000000D+01
-.176396820191D-06 0.000000000000D+00 -.139713207412D-07 0.347568606859D-06 0.000000000000D+00  7 2 -2 23 -11 11 23 21 2 0.25322729D+00 0.10577893D-01 0.59255966D+05 0.59255966D+05 0.59255966D+05 0.11408633D+01  1  2  3  2  7  2       -2 -.177734941212D-04 0.100000000000D+01
0.233124760007D-06 0.000000000000D+00 0.000000000000D+00 0.347568606859D-06 0.000000000000D+00  7 2 -2 23 -11 11 23 21 2 0.25322729D+00 0.10577893D-01 0.59255966D+05 0.59255966D+05 0.59255966D+05 0.11408633D+01  1  2 15  2  7  2       -2 0.234893211057D-04 0.100000000000D+01
-.133464732284D-06 0.000000000000D+00 0.000000000000D+00 0.347568606859D-06 0.000000000000D+00  7 2 -2 23 -11 11 23 21 2 0.25322729D+00 0.10577893D-01 0.59255966D+05 0.59255966D+05 0.59255966D+05 0.11408633D+01  1  2  4  2  7  2       -2 -.134477176633D-04 0.100000000000D+01
  </mgrwgt>
  </event>
  <event>
  8     66 0.55102590E-06 0.14758632E+03 0.75467711E-02 0.97475411E-01
        2 -1    0    0  501    0 0.00000000E+00 0.00000000E+00 0.22682452E+04 0.22682452E+04 0.32000000E+00 0.0000E+00 0.9000E+01
       -2 -1    0    0    0  501 0.00000000E+00 0.00000000E+00 -.61139593E+02 0.61140430E+02 0.32000000E+00 0.0000E+00 0.9000E+01
       25  2    1    2    0    0 0.28230895E+02 0.21836677E+03 0.19515535E+04 0.19866998E+04 0.29988984E+03 0.0000E+00 0.0000E+00
       23  2    1    2    0    0 -.28230895E+02 -.21836677E+03 0.25555213E+03 0.34268589E+03 0.60379643E+02 0.0000E+00 0.0000E+00
       23  1    3    3    0    0 0.10891197E+03 0.41822205E+02 0.58656254E+03 0.60496428E+03 0.91188000E+02 0.0000E+00 0.9000E+01
      -11  1    4    4    0    0 -.15347454E+02 -.58847328E+02 0.34939164E+02 0.70137704E+02 0.51099893E-03 0.0000E+00 0.9000E+01
       11  1    4    4    0    0 -.12883441E+02 -.15951945E+03 0.22061296E+03 0.27254819E+03 0.51099893E-03 0.0000E+00 0.9000E+01
       23  1    3    3    0    0 -.80681071E+02 0.17654457E+03 0.13649910E+04 0.13817355E+04 0.91188000E+02 0.0000E+00 0.9000E+01
#aMCatNLO 1  0  0  1  2 0.17496839D+03 0.00000000D+00  -5  7  0 0.00000000D+00 0.00000000D+00 0.00000000D+00 0.00000000D+00 0.00000000D+00
  <mgrwgt>
 0.1635088891D-02    9    2    0
 0.372398428660434D+03 0.000000000000000D+00 0.000000000000000D+00 0.372398428660434D+03
 0.372398428660434D+03 0.000000000000000D+00 0.000000000000000D+00 -.372398428660434D+03
 0.153853547425066D+03 0.108911965620477D+03 0.418222051675512D+02 0.417702000340482D+02
 0.115821295010269D+03 -.153474541940402D+02 -.588473276660062D+02 -.985698739686078D+02
 0.198649786331283D+03 -.128834408481153D+02 -.159519445303122D+03 -.117683053714466D+03
 0.276472228554250D+03 -.806810705783211D+02 0.176544567801577D+03 0.174482727649026D+03
 0.000000000000000D+00 -.000000000000000D+00 0.000000000000000D+00 0.000000000000000D+00
 0.483661847130736D+03 0.000000000000000D+00 0.000000000000000D+00 0.483661847130736D+03
 0.458219418231298D+03 0.000000000000000D+00 0.000000000000000D+00 -.458219418231298D+03
 0.153833034295177D+03 0.116430431442063D+03 0.696822213995308D+01 0.417702000340482D+02
 0.131727723127476D+03 -.929847792204868D+01 -.868890746555334D+02 -.985698739686078D+02
 0.240051377654333D+03 -.216357230891774D+01 -.209214439599769D+03 -.117683053714466D+03
 0.239460604199106D+03 -.680740100181783D+02 0.118100959063006D+03 0.174482727649026D+03
 0.176808526085943D+03 -.368943711929184D+02 0.171034333052343D+03 0.254424288994379D+02
0.287896019159D-04 0.000000000000D+00 0.000000000000D+00 0.812186933622D-09 0.000000000000D+00  7 2 -2 23 -11 11 23 21 0 0.34896087D+00 0.94061573D-02 0.85085525D+05 0.85085525D+05 0.85085525D+05 0.11275240D+01  1  2  2  1  7  1        2 0.123028343991D-02 0.100000000000D+01
-.148339960850D-05 0.000000000000D+00 -.110559651833D-06 0.812186933622D-09 0.000000000000D+00  7 2 -2 23 -11 11 23 21 2 0.34896087D+00 0.94061573D-02 0.85085525D+05 0.85085525D+05 0.85085525D+05 0.11275240D+01  1  2  3  1  7  1        2 -.805896568556D-04 0.100000000000D+01
0.183661806384D-05 0.000000000000D+00 0.000000000000D+00 0.812186933622D-09 0.000000000000D+00  7 2 -2 23 -11 11 23 21 2 0.34896087D+00 0.94061573D-02 0.85085525D+05 0.85085525D+05 0.85085525D+05 0.11275240D+01  1  2 15  1  7  1        2 0.997791954991D-04 0.100000000000D+01
0.479091215850D-05 0.000000000000D+00 0.000000000000D+00 0.812186933622D-09 0.000000000000D+00  7 2 -2 23 -11 11 23 21 2 0.48325782D+00 0.94061573D-02 0.15352146D+06 0.15352146D+06 0.15352146D+06 0.11067575D+01  1  2 12  1  7  1        2 0.745953613237D-04 0.100000000000D+01
-.108245458470D-04 0.000000000000D+00 0.000000000000D+00 0.812186933622D-09 0.000000000000D+00  7 2 -2 23 -11 11 23 21 2 0.34896087D+00 0.94061573D-02 0.85085525D+05 0.85085525D+05 0.85085525D+05 0.11275240D+01  1  2  4  1  7  1        2 -.588072445504D-03 0.100000000000D+01
-.198981760746D-04 0.000000000000D+00 -.960164520434D-05 0.812186933622D-09 0.000000000000D+00  7 2 -2 23 -11 11 23 21 2 0.48807399D+00 0.94061573D-02 0.85085525D+05 0.85085525D+05 0.85085525D+05 0.11275240D+01  1  2  5  1  7  1        2 -.315597800883D-03 0.100000000000D+01
0.223651463582D-04 0.000000000000D+00 0.908547665451D-05 0.812186933622D-09 0.000000000000D+00  7 2 -2 23 -11 11 23 21 2 0.34896087D+00 0.94061573D-02 0.85085525D+05 0.85085525D+05 0.85085525D+05 0.11275240D+01  1  2  6  1  7  1        2 0.121504647851D-02 0.100000000000D+01
0.196455115449D-06 0.000000000000D+00 0.000000000000D+00 0.812186933622D-09 0.000000000000D+00  7 21 -2 23 -11 11 23 -2 2 0.48325782D+00 0.94061573D-02 0.15352146D+06 0.15352146D+06 0.15352146D+06 0.11067575D+01  1  2 12  3  7  1        2 0.178707884312D-06 0.100000000000D+01
-.578608383781D-06 0.000000000000D+00 -.402324540543D-06 0.812186933622D-09 0.000000000000D+00  7 21 -2 23 -11 11 23 -2 2 0.48807399D+00 0.94061573D-02 0.85085525D+05 0.85085525D+05 0.85085525D+05 0.11275240D+01  1  2  5  3  7  1        2 -.534389212195D-06 0.100000000000D+01
  </mgrwgt>
  </event>
  <event>
  8     66 0.55102590E-06 0.63382543E+03 0.75467711E-02 0.90040686E-01
        2 -1    0    0  501    0 0.00000000E+00 0.00000000E+00 0.38862702E+04 0.38862702E+04 0.32000000E+00 0.0000E+00 0.9000E+01
       -2 -1    0    0    0  501 0.00000000E+00 0.00000000E+00 -.18787318E+03 0.18787345E+03 0.32000000E+00 0.0000E+00 0.9000E+01
       25  2    1    2    0    0 -.64054652E+03 0.37645288E+03 0.10425471E+04 0.13150019E+04 0.30051442E+03 0.0000E+00 0.0000E+00
       23  2    1    2    0    0 0.64054652E+03 -.37645288E+03 0.26558500E+04 0.27591418E+04 0.85485978E+02 0.0000E+00 0.0000E+00
       23  1    3    3    0    0 -.20518651E+03 0.59801056E+02 0.17898387E+03 0.29330555E+03 0.91188000E+02 0.0000E+00 0.9000E+01
      -11  1    4    4    0    0 -.41930140E+00 0.19325484E+01 0.23513973E+02 0.23596981E+02 0.51099893E-03 0.0000E+00 0.9000E+01
       11  1    4    4    0    0 0.64096582E+03 -.37838543E+03 0.26323360E+04 0.27355448E+04 0.51099893E-03 0.0000E+00 0.9000E+01
       23  1    3    3    0    0 -.43536001E+03 0.31665183E+03 0.86356322E+03 0.10216963E+04 0.91188000E+02 0.0000E+00 0.9000E+01
#aMCatNLO 1  0  0  1  1 0.53779965D+01 0.00000000D+00  -5  7  0 0.00000000D+00 0.00000000D+00 0.00000000D+00 0.00000000D+00 0.00000000D+00
  <mgrwgt>
 0.1349575802D-03    7    2    0
 0.854474409259204D+03 0.000000000000000D+00 0.000000000000000D+00 0.854474409259204D+03
 0.854474409259204D+03 0.000000000000000D+00 0.000000000000000D+00 -.854474409259204D+03
 0.311896733603952D+03 -.205186510293378D+03 0.598010563098111D+02 -.208054441785488D+03
 0.536790822471978D+01 -.419301423986695D+00 0.193254845069674D+01 0.499037889448965D+01
 0.824822255221548D+03 0.640965818288847D+03 -.378385432181602D+03 0.355413895629885D+03
 0.566861921468189D+03 -.435360006571483D+03 0.316651827421094D+03 -.152349832738886D+03
 0.000000000000000D+00 -.000000000000000D+00 -.000000000000000D+00 -.000000000000000D+00
 0.856844093097913D+03 0.000000000000000D+00 0.000000000000000D+00 0.856844093097913D+03
 0.857535438500661D+03 0.000000000000000D+00 0.000000000000000D+00 -.857535438500661D+03
 0.311619377904581D+03 -.204546130193415D+03 0.605443244067163D+02 -.208054441785488D+03
 0.537168095410905D+01 -.408271365476650D+00 0.194535067643423D+01 0.499037889448965D+01
 0.825240828374003D+03 0.642660509962268D+03 -.376418459355591D+03 0.355413895629885D+03
 0.566725393439386D+03 -.434195759578281D+03 0.318003130572169D+03 -.152349832738886D+03
 0.542225092649391D+01 -.351034882509560D+01 -.407434629972878D+01 -.691345402747695D+00
0.297127211353D-03 0.000000000000D+00 0.000000000000D+00 0.172808021511D-06 0.000000000000D+00  7 2 -2 23 -11 11 23 21 0 0.59788775D+00 0.28903588D-01 0.58115240D+06 0.58115240D+06 0.58115240D+06 0.10639243D+01  1  2  2  1  7  1        2 0.160247678472D-03 0.100000000000D+01
-.162457663686D-04 0.000000000000D+00 -.114104672699D-05 0.172808021511D-06 0.000000000000D+00  7 2 -2 23 -11 11 23 21 2 0.59788775D+00 0.28903588D-01 0.58115240D+06 0.58115240D+06 0.58115240D+06 0.10639243D+01  1  2  3  1  7  1        2 -.991770071896D-05 0.100000000000D+01
0.187426984682D-04 0.000000000000D+00 0.000000000000D+00 0.172808021511D-06 0.000000000000D+00  7 2 -2 23 -11 11 23 21 2 0.59788775D+00 0.28903588D-01 0.58115240D+06 0.58115240D+06 0.58115240D+06 0.10639243D+01  1  2 15  1  7  1        2 0.114420255625D-04 0.100000000000D+01
-.163984869089D-02 0.000000000000D+00 0.000000000000D+00 0.172808021511D-06 0.000000000000D+00  7 2 -2 23 -11 11 23 21 2 0.59788775D+00 0.28903588D-01 0.58115240D+06 0.58115240D+06 0.58115240D+06 0.10639243D+01  1  2  4  1  7  1        2 -.100109334159D-02 0.100000000000D+01
0.163986314302D-02 0.000000000000D+00 0.000000000000D+00 0.172808021511D-06 0.360557119743D-07  7 2 -2 23 -11 11 23 21 2 0.59954585D+00 0.29007131D-01 0.58522876D+06 0.58522876D+06 0.58522876D+06 0.10637127D+01  1  2 11  1  7  1        2 0.974221393718D-03 0.100000000000D+01
0.257727428335D-05 0.000000000000D+00 0.000000000000D+00 0.172808021511D-06 0.000000000000D+00  7 21 -2 23 -11 11 23 -2 2 0.60061338D+00 0.28903588D-01 0.58522876D+06 0.58522876D+06 0.58522876D+06 0.10637127D+01  1  2 12  3  7  1        2 0.315151667145D-07 0.100000000000D+01
0.209699493241D-05 0.000000000000D+00 0.000000000000D+00 0.172808021511D-06 0.186874983614D-10  7 21 -2 23 -11 11 23 -2 2 0.59954585D+00 0.29007131D-01 0.58522876D+06 0.58522876D+06 0.58522876D+06 0.10637127D+01  1  2 11  3  7  1        2 0.260095520522D-07 0.100000000000D+01
  </mgrwgt>
  </event>
  <event>
  8     66 0.55102590E-06 0.31905184E+03 0.75467711E-02 0.89206299E-01
        2 -1    0    0  501    0 0.00000000E+00 0.00000000E+00 0.33338277E+03 0.33338292E+03 0.32000000E+00 0.0000E+00 0.9000E+01
       -2 -1    0    0    0  501 0.00000000E+00 0.00000000E+00 -.49851937E+03 0.49851947E+03 0.32000000E+00 0.0000E+00 0.9000E+01
       25  2    1    2    0    0 -.10063947E+03 0.23208511E+03 0.14850263E+03 0.41853400E+03 0.29853957E+03 0.0000E+00 0.0000E+00
       23  2    1    2    0    0 0.10063947E+03 -.23208511E+03 -.31363923E+03 0.41336840E+03 0.92260853E+02 0.0000E+00 0.0000E+00
       23  1    3    3    0    0 -.14095223E+03 0.46738661E+02 0.10554897E+03 0.20373481E+03 0.91188000E+02 0.0000E+00 0.9000E+01
      -13  1    4    4    0    0 0.47280584E+02 -.12720440E+03 -.23648402E+03 0.27265567E+03 0.10565837E+00 0.0000E+00 0.9000E+01
       13  1    4    4    0    0 0.53358885E+02 -.10488071E+03 -.77155216E+02 0.14071273E+03 0.10565837E+00 0.0000E+00 0.9000E+01
       23  1    3    3    0    0 0.40312763E+02 0.18534645E+03 0.42953657E+02 0.21479919E+03 0.91188000E+02 0.0000E+00 0.9000E+01
#aMCatNLO 1  0  0  1  2 0.70870637D+03 0.00000000D+00  -5  7  0 0.00000000D+00 0.00000000D+00 0.00000000D+00 0.00000000D+00 0.00000000D+00
  <mgrwgt>
 0.2075059486D-03    5    2    0
 0.407673734835951D+03 0.000000000000000D+00 0.000000000000000D+00 0.407673734835951D+03
 0.407673734835951D+03 0.000000000000000D+00 0.000000000000000D+00 -.407673734835951D+03
 0.229248852977188D+03 -.140952231936753D+03 0.467386611913995D+02 0.148955534000720D+03
 0.230295492236911D+03 0.472805765060092D+02 -.127204427217319D+03 -.186063415335241D+03
 0.127942994030205D+03 0.533588925514456D+02 -.104880679297314D+03 -.502223199108755D+02
 0.227860130427599D+03 0.403127628792985D+02 0.185346445323233D+03 0.873302012453960D+02
 0.000000000000000D+00 -.000000000000000D+00 0.000000000000000D+00 0.000000000000000D+00
 0.104191962897667D+04 0.000000000000000D+00 0.000000000000000D+00 0.104191962897667D+04
 0.790399491401027D+03 0.000000000000000D+00 0.000000000000000D+00 -.790399491401027D+03
 0.238036307507458D+03 -.103864160570401D+03 -.123977890719884D+03 0.148955534000720D+03
 0.421904013715243D+03 0.990451602491901D+02 -.365477028681735D+03 -.186063415335241D+03
 0.268450894540618D+03 0.848203770403878D+02 -.249698027627681D+03 -.502223199108755D+02
 0.151912545619673D+03 0.704550342444398D+02 0.466014406719651D+02 0.873302012453960D+02
 0.752015358994706D+03 -.150456410963617D+03 0.692551506357334D+03 0.251520137575643D+03
0.986503949080D-05 0.000000000000D+00 0.000000000000D+00 0.942669883392D-07 0.000000000000D+00  7 2 -2 23 -13 13 23 21 0 0.51289676D-01 0.76695308D-01 0.10179407D+06 0.10179407D+06 0.10179407D+06 0.11210889D+01  1  2  2  1  7  1        2 0.183872388964D-03 0.100000000000D+01
-.508022491019D-06 0.000000000000D+00 -.378843491692D-07 0.942669883392D-07 0.000000000000D+00  7 2 -2 23 -13 13 23 21 2 0.51289676D-01 0.76695308D-01 0.10179407D+06 0.10179407D+06 0.10179407D+06 0.11210889D+01  1  2  3  1  7  1        2 -.119009249315D-04 0.100000000000D+01
0.624670681448D-06 0.000000000000D+00 0.000000000000D+00 0.942669883392D-07 0.000000000000D+00  7 2 -2 23 -13 13 23 21 2 0.51289676D-01 0.76695308D-01 0.10179407D+06 0.10179407D+06 0.10179407D+06 0.11210889D+01  1  2 15  1  7  1        2 0.146335231574D-04 0.100000000000D+01
0.506282793658D-05 0.000000000000D+00 -.375128773232D-05 0.942669883392D-07 0.000000000000D+00  7 2 -2 23 -13 13 23 21 2 0.21395837D+00 0.76695308D-01 0.10179407D+06 0.10179407D+06 0.10179407D+06 0.11210889D+01  1  2  5  1  7  1        2 0.194633055335D-04 0.100000000000D+01
0.884779713680D-06 0.000000000000D+00 -.642734351285D-06 0.942669883392D-07 0.000000000000D+00  7 21 -2 23 -13 13 23 -2 2 0.21395837D+00 0.76695308D-01 0.10179407D+06 0.10179407D+06 0.10179407D+06 0.11210889D+01  1  2  5  3  7  1        2 0.143765588645D-05 0.100000000000D+01
  </mgrwgt>
  </event>
  <event>
  7     66 0.55102590E-06 0.16133224E+03 0.75467711E-02 0.10225110E+00
        2 -1    0    0  501    0 0.00000000E+00 0.00000000E+00 0.60978056E+03 0.60978065E+03 0.32000000E+00 0.0000E+00 0.9000E+01
       -2 -1    0    0    0  501 0.00000000E+00 0.00000000E+00 -.14397504E+03 0.14397539E+03 0.32000000E+00 0.0000E+00 0.9000E+01
       23  2    1    2    0    0 0.16726460E+03 -.50230975E+02 0.23498417E+03 0.30674179E+03 0.91500644E+02 0.0000E+00 0.0000E+00
       23  1    1    2    0    0 -.88033897E+02 -.89958782E+02 0.56156723E+01 0.15552921E+03 0.91188000E+02 0.0000E+00 0.9000E+01
      -11  1    3    3    0    0 0.83670664E+02 0.10119914E+02 0.59347151E+02 0.10307898E+03 0.51099893E-03 0.0000E+00 0.9000E+01
       11  1    3    3    0    0 0.83593938E+02 -.60350888E+02 0.17563702E+03 0.20366281E+03 0.51099893E-03 0.0000E+00 0.9000E+01
       23  1    1    2    0    0 -.79230706E+02 0.14018976E+03 0.22520569E+03 0.29148503E+03 0.91188000E+02 0.0000E+00 0.9000E+01
#aMCatNLO 1  0  0  2  1 0.88562348D+01 0.00000000D+00  -5  7  0 0.00000000D+00 0.00000000D+00 0.00000000D+00 0.00000000D+00 0.00000000D+00
  <mgrwgt>
 0.1121473370D-03   11    2    0
 0.296299416103237D+03 0.000000000000000D+00 0.000000000000000D+00 0.296299416103237D+03
 0.296299416103237D+03 0.000000000000000D+00 0.000000000000000D+00 -.296299416103237D+03
 0.193411237030261D+03 -.880338965816800D+02 -.899587819019452D+02 -.115109104231334D+03
 0.844621576959898D+02 0.836706643072977D+02 0.101199135513689D+02 -.553745128651916D+01
 0.120991422393193D+03 0.835939383529639D+02 -.603508884421751D+02 0.633146746624269D+02
 0.193734015087032D+03 -.792307060785816D+02 0.140189756792751D+03 0.573318808554261D+02
 0.000000000000000D+00 0.000000000000000D+00 0.000000000000000D+00 -.000000000000000D+00
 0.297393244154452D+03 0.000000000000000D+00 0.000000000000000D+00 0.297393244154452D+03
 0.314817898279572D+03 0.000000000000000D+00 0.000000000000000D+00 -.314817898279572D+03
 0.195095852743688D+03 -.888593410535233D+02 -.927418570246479D+02 -.115109104231334D+03
 0.839710300965480D+02 0.833128014847191D+02 0.891334042279187D+01 -.553745128651916D+01
 0.121514393150052D+03 0.830786965720572D+02 -.620880817138393D+02 0.633146746624269D+02
 0.192083729579808D+03 -.800504366133824D+02 0.137425946825463D+03 0.573318808554261D+02
 0.195461368639289D+02 0.251827961012938D+01 0.849065149023258D+01 -.174246541251199D+02
0.904223833274D-06 0.000000000000D+00 0.000000000000D+00 0.142366201249D-09 0.000000000000D+00  7 2 -2 23 -11 11 23 21 0 0.93812428D-01 0.22150039D-01 0.69661032D+05 0.69661032D+05 0.69661032D+05 0.11348389D+01  1  2  2  2  7  2       -2 0.907073007199D-04 0.100000000000D+01
-.494174284960D-07 0.000000000000D+00 -.347245760738D-08 0.142366201249D-09 0.000000000000D+00  7 2 -2 23 -11 11 23 21 2 0.93812428D-01 0.22150039D-01 0.69661032D+05 0.69661032D+05 0.69661032D+05 0.11348389D+01  1  2  3  2  7  2       -2 -.638432293014D-05 0.100000000000D+01
0.569527001130D-07 0.000000000000D+00 0.000000000000D+00 0.142366201249D-09 0.000000000000D+00  7 2 -2 23 -11 11 23 21 2 0.93812428D-01 0.22150039D-01 0.69661032D+05 0.69661032D+05 0.69661032D+05 0.11348389D+01  1  2 15  2  7  2       -2 0.735781768358D-05 0.100000000000D+01
0.125246796940D-04 0.000000000000D+00 0.000000000000D+00 0.142366201249D-09 0.000000000000D+00  7 2 -2 23 -11 11 23 21 2 0.93812428D-01 0.23573823D-01 0.72148045D+05 0.72148045D+05 0.72148045D+05 0.11335454D+01  1  2 12  2  7  2       -2 0.145429672076D-02 0.100000000000D+01
-.127195830609D-04 0.000000000000D+00 0.000000000000D+00 0.142366201249D-09 0.000000000000D+00  7 2 -2 23 -11 11 23 21 2 0.93812428D-01 0.22150039D-01 0.69661032D+05 0.69661032D+05 0.69661032D+05 0.11348389D+01  1  2  4  2  7  2       -2 -.164326490207D-02 0.100000000000D+01
-.254301269551D-04 0.000000000000D+00 -.190863262939D-05 0.142366201249D-09 0.000000000000D+00  7 2 -2 23 -11 11 23 21 2 0.93812428D-01 0.23597711D-01 0.69661032D+05 0.69661032D+05 0.69661032D+05 0.11348389D+01  1  2  5  2  7  2       -2 -.295465896969D-02 0.100000000000D+01
0.255036529577D-04 0.000000000000D+00 0.190481390444D-05 0.142366201249D-09 0.000000000000D+00  7 2 -2 23 -11 11 23 21 2 0.93812428D-01 0.22150039D-01 0.69661032D+05 0.69661032D+05 0.69661032D+05 0.11348389D+01  1  2  6  2  7  2       -2 0.329486096981D-02 0.100000000000D+01
0.611255823976D-08 0.000000000000D+00 0.000000000000D+00 0.142366201249D-09 0.124673516786D-10  7 2 -2 23 -11 11 23 21 2 0.94158749D-01 0.23534399D-01 0.72148045D+05 0.72148045D+05 0.72148045D+05 0.11335454D+01  1  2 11  2  7  2       -2 0.708746726123D-06 0.100000000000D+01
0.182532124234D-06 0.000000000000D+00 0.000000000000D+00 0.142366201249D-09 0.000000000000D+00  7 2 21 23 -11 11 23 2 2 0.93812428D-01 0.23573823D-01 0.72148045D+05 0.72148045D+05 0.72148045D+05 0.11335454D+01  1  2 12  4  7  2       -2 0.265719074449D-03 0.100000000000D+01
-.272545131108D-06 0.000000000000D+00 -.206542701275D-07 0.142366201249D-09 0.000000000000D+00  7 2 21 23 -11 11 23 2 2 0.93812428D-01 0.23597711D-01 0.69661032D+05 0.69661032D+05 0.69661032D+05 0.11348389D+01  1  2  5  4  7  2       -2 -.397288596395D-03 0.100000000000D+01
0.642981165881D-10 0.000000000000D+00 0.000000000000D+00 0.142366201249D-09 0.129209852118D-12  7 2 21 23 -11 11 23 2 2 0.94158749D-01 0.23534399D-01 0.72148045D+05 0.72148045D+05 0.72148045D+05 0.11335454D+01  1  2 11  4  7  2       -2 0.934979729199D-07 0.100000000000D+01
  </mgrwgt>
  </event>
  <event>
  8     66 0.55102590E-06 0.40329418E+03 0.75467711E-02 0.89619659E-01
        2 -1    0    0  501    0 0.00000000E+00 0.00000000E+00 0.37412878E+04 0.37412878E+04 0.32000000E+00 0.0000E+00 0.9000E+01
       -2 -1    0    0    0  501 0.00000000E+00 0.00000000E+00 -.51359048E+02 0.51360045E+02 0.32000000E+00 0.0000E+00 0.9000E+01
       25  2    1    2    0    0 -.31386335E+03 -.20415270E+03 0.17327674E+04 0.17980334E+04 0.30042085E+03 0.0000E+00 0.0000E+00
       23  2    1    2    0    0 0.31386335E+03 0.20415270E+03 0.19571614E+04 0.19946145E+04 0.88418271E+02 0.0000E+00 0.0000E+00
       23  1    3    3    0    0 -.56998225E+02 -.63402793E+02 0.20697054E+03 0.24170389E+03 0.91188000E+02 0.0000E+00 0.9000E+01
      -11  1    4    4    0    0 0.22658446E+03 0.13615213E+03 0.11553455E+04 0.11852009E+04 0.51099893E-03 0.0000E+00 0.9000E+01
       11  1    4    4    0    0 0.87278888E+02 0.68000573E+02 0.80181592E+03 0.80941365E+03 0.51099893E-03 0.0000E+00 0.9000E+01
       23  1    3    3    0    0 -.25686512E+03 -.14074991E+03 0.15257968E+04 0.15563295E+04 0.91188000E+02 0.0000E+00 0.9000E+01
#aMCatNLO 1  0  0  2  1 0.59558716D+03 0.00000000D+00  -5  7  0 0.00000000D+00 0.00000000D+00 0.00000000D+00 0.00000000D+00 0.00000000D+00
  <mgrwgt>
 0.3151043143D-03    5    2    0
 0.438350198598149D+03 0.000000000000000D+00 0.000000000000000D+00 0.438350198598149D+03
 0.438350198598149D+03 0.000000000000000D+00 0.000000000000000D+00 -.438350198598149D+03
 0.174507930195371D+03 -.569982253267439D+02 -.634027929319049D+02 -.121938732628759D+03
 0.264522553399738D+03 0.226584458577279D+03 0.136152126376618D+03 0.970890681201517D+01
 0.126813353447355D+03 0.872788881419148D+02 0.680005726213669D+02 0.619672850820589D+02
 0.310856560153834D+03 -.256865121392450D+03 -.140749906066080D+03 0.502625407346854D+02
 0.000000000000000D+00 0.000000000000000D+00 -.000000000000000D+00 -.000000000000000D+00
 0.639148932921236D+03 0.000000000000000D+00 0.000000000000000D+00 0.639148932921236D+03
 0.134193503264387D+04 0.000000000000000D+00 0.000000000000000D+00 -.134193503264387D+04
 0.185027070017392D+03 -.974101421194902D+02 0.395218293146131D+02 -.121938732628759D+03
 0.349628731250156D+03 0.157553541980167D+03 0.311966133183737D+03 0.970890681201517D+01
 0.174639183526127D+03 0.533954697433569D+02 0.154297841245810D+03 0.619672850820589D+02
 0.350576539102610D+03 -.331210537986945D+03 0.485995365251184D+02 0.502625407346854D+02
 0.921212441668827D+03 0.217671668382911D+03 -.554385340269279D+03 -.702786099722638D+03
0.464643009344D-04 0.000000000000D+00 0.000000000000D+00 0.135698469571D-06 0.000000000000D+00  7 2 -2 23 -11 11 23 21 0 0.57558282D+00 0.79014697D-02 0.16264620D+06 0.16264620D+06 0.16264620D+06 0.11047885D+01  1  2  2  2  7  2       -2 0.294298955756D-03 0.100000000000D+01
-.255954490610D-05 0.000000000000D+00 -.178435149920D-06 0.135698469571D-06 0.000000000000D+00  7 2 -2 23 -11 11 23 21 2 0.57558282D+00 0.79014697D-02 0.16264620D+06 0.16264620D+06 0.16264620D+06 0.11047885D+01  1  2  3  2  7  2       -2 -.197874738290D-04 0.100000000000D+01
0.295669793439D-05 0.000000000000D+00 0.000000000000D+00 0.135698469571D-06 0.000000000000D+00  7 2 -2 23 -11 11 23 21 2 0.57558282D+00 0.79014697D-02 0.16264620D+06 0.16264620D+06 0.16264620D+06 0.11047885D+01  1  2 15  2  7  2       -2 0.228578068146D-04 0.100000000000D+01
0.405077474001D-04 0.000000000000D+00 -.308745240583D-04 0.135698469571D-06 0.000000000000D+00  7 2 -2 23 -11 11 23 21 2 0.57558282D+00 0.70180068D-01 0.16264620D+06 0.16264620D+06 0.16264620D+06 0.11047885D+01  1  2  5  2  7  2       -2 0.690110644098D-05 0.100000000000D+01
0.636561964877D-05 0.000000000000D+00 -.811841300420D-05 0.135698469571D-06 0.000000000000D+00  7 2 21 23 -11 11 23 2 2 0.57558282D+00 0.70180068D-01 0.16264620D+06 0.16264620D+06 0.16264620D+06 0.11047885D+01  1  2  5  4  7  2       -2 0.108339191263D-04 0.100000000000D+01
  </mgrwgt>
  </event>
  <event>
  8     66 0.55102590E-06 0.73091178E+02 0.75467711E-02 0.10328102E+00
        2 -1    0    0  501    0 0.00000000E+00 0.00000000E+00 0.97039018E+03 0.97039023E+03 0.32000000E+00 0.0000E+00 0.9000E+01
       -2 -1    0    0    0  501 0.00000000E+00 0.00000000E+00 -.21936933E+03 0.21936956E+03 0.32000000E+00 0.0000E+00 0.9000E+01
       25  2    1    2    0    0 -.15609713E+03 0.54169528E+02 -.67797009E+02 0.34933995E+03 0.30023543E+03 0.0000E+00 0.0000E+00
       23  2    1    2    0    0 0.15609713E+03 -.54169528E+02 0.81881786E+03 0.84041984E+03 0.92423801E+02 0.0000E+00 0.0000E+00
       23  1    3    3    0    0 -.13523584E+03 0.72116147E+02 0.61589663E+02 0.18867435E+03 0.91188000E+02 0.0000E+00 0.9000E+01
      -11  1    4    4    0    0 -.73292303E+01 0.11015856E+02 0.49432678E+02 0.51172808E+02 0.51099893E-03 0.0000E+00 0.9000E+01
       11  1    4    4    0    0 0.16342636E+03 -.65185385E+02 0.76938518E+03 0.78924703E+03 0.51099893E-03 0.0000E+00 0.9000E+01
       23  1    3    3    0    0 -.20861290E+02 -.17946619E+02 -.12938667E+03 0.16066561E+03 0.91188000E+02 0.0000E+00 0.9000E+01
#aMCatNLO 1  0  0  1  2 0.32323174D+02 0.00000000D+00  -5  7  0 0.00000000D+00 0.00000000D+00 0.00000000D+00 0.00000000D+00 0.00000000D+00
  <mgrwgt>
 0.3557788436D-03    9    2    0
 0.461382714819424D+03 0.000000000000000D+00 0.000000000000000D+00 0.461382714819424D+03
 0.461382714819424D+03 0.000000000000000D+00 0.000000000000000D+00 -.461382714819424D+03
 0.193139043211032D+03 -.135235842520127D+03 0.721161474463401D+02 -.741482760679043D+02
 0.257469312926733D+02 -.732923025761958D+01 0.110158564042259D+02 0.220870496558936D+02
 0.391421319834892D+03 0.163426362589102D+03 -.651853848185140D+02 0.349647449923843D+03
 0.312458135300250D+03 -.208612898113561D+02 -.179466190320520D+02 -.297586223511833D+03
 0.000000000000000D+00 0.000000000000000D+00 0.000000000000000D+00 0.000000000000000D+00
 0.516956378241912D+03 0.000000000000000D+00 0.000000000000000D+00 0.516956378241912D+03
 0.466389753113942D+03 0.000000000000000D+00 0.000000000000000D+00 -.466389753113942D+03
 0.193113982568142D+03 -.138257380264343D+03 0.660657920404150D+02 -.741482760679043D+02
 0.255322103806942D+02 -.773037109462541D+01 0.102126082447874D+02 0.220870496558936D+02
 0.391146515643421D+03 0.157304576882602D+03 -.774437057063258D+02 0.349647449923843D+03
 0.313538665126809D+03 -.257582688225454D+02 -.277523755511506D+02 -.297586223511833D+03
 0.600147576367889D+02 0.144414432989116D+02 0.289176809722740D+02 0.505666251279697D+02
0.998100112565D-05 0.000000000000D+00 0.000000000000D+00 0.123995954317D-05 0.000000000000D+00  7 2 -2 23 -11 11 23 21 0 0.14929082D+00 0.33749149D-01 0.53538271D+05 0.53538271D+05 0.53538271D+05 0.11446926D+01  1  2  2  1  7  1        2 0.273639682467D-03 0.100000000000D+01
-.233376300911D-06 0.000000000000D+00 -.383296723804D-07 0.123995954317D-05 0.000000000000D+00  7 2 -2 23 -11 11 23 21 2 0.14929082D+00 0.33749149D-01 0.53538271D+05 0.53538271D+05 0.53538271D+05 0.11446926D+01  1  2  3  1  7  1        2 -.838377251369D-05 0.100000000000D+01
0.610114731557D-06 0.000000000000D+00 0.000000000000D+00 0.123995954317D-05 0.000000000000D+00  7 2 -2 23 -11 11 23 21 2 0.14929082D+00 0.33749149D-01 0.53538271D+05 0.53538271D+05 0.53538271D+05 0.11446926D+01  1  2 15  1  7  1        2 0.219176630046D-04 0.100000000000D+01
0.632902429719D-04 0.000000000000D+00 0.000000000000D+00 0.123995954317D-05 0.000000000000D+00  7 2 -2 23 -11 11 23 21 2 0.16802241D+00 0.33749149D-01 0.61880206D+05 0.61880206D+05 0.61880206D+05 0.11392399D+01  1  2 12  1  7  1        2 0.190021205920D-02 0.100000000000D+01
-.644423189251D-04 0.000000000000D+00 0.000000000000D+00 0.123995954317D-05 0.000000000000D+00  7 2 -2 23 -11 11 23 21 2 0.14929082D+00 0.33749149D-01 0.53538271D+05 0.53538271D+05 0.53538271D+05 0.11446926D+01  1  2  4  1  7  1        2 -.231501544935D-02 0.100000000000D+01
-.840318703130D-04 0.000000000000D+00 -.105561256594D-04 0.123995954317D-05 0.000000000000D+00  7 2 -2 23 -11 11 23 21 2 0.16810428D+00 0.33749149D-01 0.53538271D+05 0.53538271D+05 0.53538271D+05 0.11446926D+01  1  2  5  1  7  1        2 -.255420074056D-02 0.100000000000D+01
0.847609652400D-04 0.000000000000D+00 0.104822080100D-04 0.123995954317D-05 0.000000000000D+00  7 2 -2 23 -11 11 23 21 2 0.14929082D+00 0.33749149D-01 0.53538271D+05 0.53538271D+05 0.53538271D+05 0.11446926D+01  1  2  6  1  7  1        2 0.304493921550D-02 0.100000000000D+01
0.118568241761D-05 0.000000000000D+00 0.000000000000D+00 0.123995954317D-05 0.000000000000D+00  7 21 -2 23 -11 11 23 -2 2 0.16802241D+00 0.33749149D-01 0.61880206D+05 0.61880206D+05 0.61880206D+05 0.11392399D+01  1  2 12  3  7  1        2 0.231699499791D-04 0.100000000000D+01
-.153187694570D-05 0.000000000000D+00 -.198445369661D-06 0.123995954317D-05 0.000000000000D+00  7 21 -2 23 -11 11 23 -2 2 0.16810428D+00 0.33749149D-01 0.53538271D+05 0.53538271D+05 0.53538271D+05 0.11446926D+01  1  2  5  3  7  1        2 -.304997641452D-04 0.100000000000D+01
  </mgrwgt>
  </event>
  <event>
  8     66 0.55102590E-06 0.28769262E+03 0.75467711E-02 0.94049961E-01
        2 -1    0    0  501    0 0.00000000E+00 0.00000000E+00 0.92649937E+03 0.92649943E+03 0.32000000E+00 0.0000E+00 0.9000E+01
       -2 -1    0    0    0  501 0.00000000E+00 0.00000000E+00 -.73239397E+03 0.73239404E+03 0.32000000E+00 0.0000E+00 0.9000E+01
       25  2    1    2    0    0 -.34053689E+03 -.30641400E+03 0.75295618E+03 0.93081646E+03 0.29936826E+03 0.0000E+00 0.0000E+00
       23  2    1    2    0    0 0.34053689E+03 0.30641400E+03 -.55885078E+03 0.72807702E+03 0.89033902E+02 0.0000E+00 0.0000E+00
       23  1    3    3    0    0 -.28064529E+03 -.31289116E+03 0.53031021E+03 0.68279340E+03 0.91188000E+02 0.0000E+00 0.9000E+01
      -13  1    4    4    0    0 0.25184583E+02 0.47479445E+02 -.35304586E+02 0.64303856E+02 0.10565837E+00 0.0000E+00 0.9000E+01
       13  1    4    4    0    0 0.31535230E+03 0.25893456E+03 -.52354619E+03 0.66377316E+03 0.10565837E+00 0.0000E+00 0.9000E+01
       23  1    3    3    0    0 -.59891598E+02 0.64771617E+01 0.22264597E+03 0.24802306E+03 0.91188000E+02 0.0000E+00 0.9000E+01
#aMCatNLO 1  0  0  2  1 0.47928997D+02 0.00000000D+00  -5  7  0 0.00000000D+00 0.00000000D+00 0.00000000D+00 0.00000000D+00 0.00000000D+00
  <mgrwgt>
 0.3360727521D-03    9    2    0
 0.823749149792045D+03 0.000000000000000D+00 0.000000000000000D+00 0.823749149792045D+03
 0.823749149792045D+03 0.000000000000000D+00 0.000000000000000D+00 -.823749149792045D+03
 0.625035813597871D+03 -.280645288721871D+03 -.312891162748749D+03 0.453532643949592D+03
 0.689072176465300D+02 0.251841738797034D+02 0.474791474507472D+02 -.431241531758401D+02
 0.730048486086121D+03 0.315352712686427D+03 0.258934853619314D+03 -.605372777897300D+03
 0.223506782253568D+03 -.598915978442592D+02 0.647716167868741D+01 0.194964287123549D+03
 0.000000000000000D+00 -.000000000000000D+00 -.000000000000000D+00 -.000000000000000D+00
 0.843802097219849D+03 0.000000000000000D+00 0.000000000000000D+00 0.843802097219849D+03
 0.853243246023773D+03 0.000000000000000D+00 0.000000000000000D+00 -.853243246023773D+03
 0.616073973332638D+03 -.280369572731766D+03 -.294843912659163D+03 0.453532643949592D+03
 0.703286644349197D+02 0.252151055180569D+02 0.495038070028910D+02 -.431241531758401D+02
 0.738029549493774D+03 0.315678850304061D+03 0.280282498878534D+03 -.605372777897300D+03
 0.223763139733983D+03 -.597922355874437D+02 0.129810118816758D+02 0.194964287123549D+03
 0.488500162483084D+02 -.732147502908852D+00 -.479234051039379D+02 -.944114880392429D+01
0.677574725568D-04 0.000000000000D+00 0.000000000000D+00 0.676375139923D-06 0.000000000000D+00  7 2 -2 23 -13 13 23 21 0 0.14253837D+00 0.11267601D+00 0.25058159D+06 0.25058159D+06 0.25058159D+06 0.10903832D+01  1  2  2  2  7  2       -2 0.150248939288D-03 0.100000000000D+01
-.262878999386D-05 0.000000000000D+00 -.260206535570D-06 0.676375139923D-06 0.000000000000D+00  7 2 -2 23 -13 13 23 21 2 0.14253837D+00 0.11267601D+00 0.25058159D+06 0.25058159D+06 0.25058159D+06 0.10903832D+01  1  2  3  2  7  2       -2 -.693056132081D-05 0.100000000000D+01
0.410378210706D-05 0.000000000000D+00 0.000000000000D+00 0.676375139923D-06 0.000000000000D+00  7 2 -2 23 -13 13 23 21 2 0.14253837D+00 0.11267601D+00 0.25058159D+06 0.25058159D+06 0.25058159D+06 0.10903832D+01  1  2 15  2  7  2       -2 0.108192414026D-04 0.100000000000D+01
0.150688497802D-03 0.000000000000D+00 0.000000000000D+00 0.676375139923D-06 0.000000000000D+00  7 2 -2 23 -13 13 23 21 2 0.14253837D+00 0.11804055D+00 0.27689066D+06 0.27689066D+06 0.27689066D+06 0.10871369D+01  1  2 12  2  7  2       -2 0.349655842713D-03 0.100000000000D+01
-.130973083408D-03 0.000000000000D+00 0.000000000000D+00 0.676375139923D-06 0.000000000000D+00  7 2 -2 23 -13 13 23 21 2 0.14253837D+00 0.11267601D+00 0.25058159D+06 0.25058159D+06 0.25058159D+06 0.10903832D+01  1  2  4  2  7  2       -2 -.345298402708D-03 0.100000000000D+01
-.826751695858D-03 0.000000000000D+00 -.153075539662D-03 0.676375139923D-06 0.000000000000D+00  7 2 -2 23 -13 13 23 21 2 0.14253837D+00 0.11885435D+00 0.25058159D+06 0.25058159D+06 0.25058159D+06 0.10903832D+01  1  2  5  2  7  2       -2 -.190532933136D-02 0.100000000000D+01
0.833952537612D-03 0.000000000000D+00 0.152857691258D-03 0.676375139923D-06 0.000000000000D+00  7 2 -2 23 -13 13 23 21 2 0.14253837D+00 0.11267601D+00 0.25058159D+06 0.25058159D+06 0.25058159D+06 0.10903832D+01  1  2  6  2  7  2       -2 0.219863861856D-02 0.100000000000D+01
0.189697627479D-05 0.000000000000D+00 0.000000000000D+00 0.676375139923D-06 0.000000000000D+00  7 2 21 23 -13 13 23 2 2 0.14253837D+00 0.11804055D+00 0.27689066D+06 0.27689066D+06 0.27689066D+06 0.10871369D+01  1  2 12  4  7  2       -2 0.394453936659D-04 0.100000000000D+01
-.749841503100D-05 0.000000000000D+00 -.141665951040D-05 0.676375139923D-06 0.000000000000D+00  7 2 21 23 -13 13 23 2 2 0.14253837D+00 0.11885435D+00 0.25058159D+06 0.25058159D+06 0.25058159D+06 0.10903832D+01  1  2  5  4  7  2       -2 -.155176988085D-03 0.100000000000D+01
  </mgrwgt>
  </event>
  <event>
  9     66 0.55102590E-06 0.30696013E+03 0.75467711E-02 0.98282866E-01
        2 -1    0    0  501    0 0.00000000E+00 0.00000000E+00 0.20868203E+03 0.20868228E+03 0.32000000E+00 0.0000E+00 0.9000E+01
       -2 -1    0    0    0  502 0.00000000E+00 0.00000000E+00 -.10801711E+04 0.10801712E+04 0.32000000E+00 0.0000E+00 0.9000E+01
       25  2    1    2    0    0 -.12779319E+03 0.27048371E+03 -.58227314E+03 0.71994538E+03 0.29964446E+03 0.0000E+00 0.0000E+00
       23  2    1    2    0    0 0.97245206E+02 -.15774076E+03 0.48128712E+02 0.21191208E+03 0.90838191E+02 0.0000E+00 0.0000E+00
       23  1    3    3    0    0 -.15589235E+03 0.27206385E+03 -.47427898E+03 0.57582720E+03 0.91188000E+02 0.0000E+00 0.9000E+01
      -11  1    4    4    0    0 -.48329149E+01 -.32616135E+02 -.17824483E+02 0.37481749E+02 0.51099893E-03 0.0000E+00 0.9000E+01
       11  1    4    4    0    0 0.10207812E+03 -.12512463E+03 0.65953195E+02 0.17443033E+03 0.51099893E-03 0.0000E+00 0.9000E+01
       23  1    3    3    0    0 0.28099168E+02 -.15801325E+01 -.10799415E+03 0.14411818E+03 0.91188000E+02 0.0000E+00 0.9000E+01
       21  1    1    2  501  502 0.30547980E+02 -.11274295E+03 -.33734466E+03 0.35699599E+03 0.75000000E+00 0.0000E+00 0.9000E+01
#aMCatNLO 2  0  0  2  1 0.11680819D+03 0.00000000D+00  -5  7  0 0.00000000D+00 0.00000000D+00 0.00000000D+00 0.00000000D+00 0.00000000D+00
  <mgrwgt>
 0.1510384654D-04    2    2    0
 0.377294281338710D+03 0.000000000000000D+00 0.000000000000000D+00 0.377294281338710D+03
 0.377294281338710D+03 0.000000000000000D+00 0.000000000000000D+00 -.377294281338710D+03
 0.328417276131148D+03 -.141819743844324D+03 0.220126285750528D+03 -.175994984289354D+03
 0.383472582176329D+02 -.339178782917726D+01 -.379348798070170D+02 0.446686491387807D+01
 0.284920741589673D+03 0.113022879758874D+03 -.165518279441269D+03 0.202507670990069D+03
 0.102903286738967D+03 0.321886519146268D+02 -.166731265022419D+02 -.309795516145936D+02
 0.000000000000000D+00 0.000000000000000D+00 -.000000000000000D+00 -.000000000000000D+00
 0.400651691308535D+03 0.000000000000000D+00 0.000000000000000D+00 0.400651691308535D+03
 0.562612698810879D+03 0.000000000000000D+00 0.000000000000000D+00 -.562612698810879D+03
 0.370959093061293D+03 -.155892353933970D+03 0.272063847048396D+03 -.175994984289354D+03
 0.332734456645434D+02 -.483291493108905D+01 -.326161346192547D+02 0.446686491387807D+01
 0.259008633133234D+03 0.102078120479090D+03 -.125124628060108D+03 0.202507670990069D+03
 0.100334660141822D+03 0.280991680431941D+02 -.158013253053774D+01 -.309795516145936D+02
 0.199688558118522D+03 0.305479803427749D+02 -.112742951838496D+03 -.161961007502344D+03
-.149099304277D-04 0.000000000000D+00 0.000000000000D+00 0.880308685477D-06 0.000000000000D+00  7 2 -2 23 -11 11 23 21 2 0.30233227D-01 0.16827818D+00 0.13441242D+06 0.13441242D+06 0.13441242D+06 0.11113320D+01  1  2 13  2  7  2       -2 -.856377404686D-04 0.100000000000D+01
0.181140060310D-04 0.000000000000D+00 0.000000000000D+00 0.880308685477D-06 0.445647695692D-09  7 2 -2 23 -11 11 23 21 2 0.32104896D-01 0.16617991D+00 0.13441242D+06 0.13441242D+06 0.13441242D+06 0.11113320D+01  1  2  1  2  7  2       -2 0.100741587013D-03 0.100000000000D+01
  </mgrwgt>
  </event>
  <event>
  8     66 0.55102590E-06 0.27424023E+03 0.75467711E-02 0.94372503E-01
        2 -1    0    0  501    0 0.00000000E+00 0.00000000E+00 0.25487571E+04 0.25487572E+04 0.32000000E+00 0.0000E+00 0.9000E+01
       -2 -1    0    0    0  501 0.00000000E+00 0.00000000E+00 -.12492244E+03 0.12492285E+03 0.32000000E+00 0.0000E+00 0.9000E+01
       25  2    1    2    0    0 -.46496775E+03 0.78265147E+02 0.18103102E+04 0.18945743E+04 0.29978072E+03 0.0000E+00 0.0000E+00
       23  2    1    2    0    0 0.46496775E+03 -.78265147E+02 0.61352452E+03 0.77910569E+03 0.90955527E+02 0.0000E+00 0.0000E+00
       23  1    3    3    0    0 -.17290238E+03 -.34726799E+02 0.10279533E+04 0.10469501E+04 0.91188000E+02 0.0000E+00 0.9000E+01
      -13  1    4    4    0    0 0.84867114E+02 -.14446297E+02 0.61308289E+02 0.10568746E+03 0.10565837E+00 0.0000E+00 0.9000E+01
       13  1    4    4    0    0 0.38010063E+03 -.63818850E+02 0.55221623E+03 0.67341823E+03 0.10565837E+00 0.0000E+00 0.9000E+01
       23  1    3    3    0    0 -.29206536E+03 0.11299195E+03 0.78235689E+03 0.84762428E+03 0.91188000E+02 0.0000E+00 0.9000E+01
#aMCatNLO 1  0  0  1  2 0.26534975D+02 0.00000000D+00  -5  7  0 0.00000000D+00 0.00000000D+00 0.00000000D+00 0.00000000D+00 0.00000000D+00
  <mgrwgt>
 0.3829066941D-03    9    2    0
 0.564267264076749D+03 0.000000000000000D+00 0.000000000000000D+00 0.564267264076749D+03
 0.564267264076749D+03 0.000000000000000D+00 0.000000000000000D+00 -.564267264076749D+03
 0.272584098817724D+03 -.172902382121212D+03 -.347267990697406D+02 0.186777020180350D+03
 0.118714010262378D+03 0.848667157452573D+02 -.144462307016363D+02 -.817432762354478D+02
 0.409402136008358D+03 0.380101030125865D+03 -.638189162768272D+02 -.138059631285593D+03
 0.327834283065038D+03 -.292065363749910D+03 0.112991946048204D+03 0.330258873406907D+02
 0.000000000000000D+00 -.000000000000000D+00 -.000000000000000D+00 0.000000000000000D+00
 0.580879913494553D+03 0.000000000000000D+00 0.000000000000000D+00 0.580879913494553D+03
 0.575119550502994D+03 0.000000000000000D+00 0.000000000000000D+00 -.575119550502994D+03
 0.268569675888386D+03 -.166957969682236D+03 -.324622943571034D+02 0.186777020180350D+03
 0.120490630228248D+03 0.874943072115932D+02 -.134452582221043D+02 -.817432762354478D+02
 0.417332850472736D+03 0.389182466802609D+03 -.603593723163231D+02 -.138059631285593D+03
 0.322453283871003D+03 -.284922149228482D+03 0.115713130540904D+03 0.330258873406907D+02
 0.271530235371741D+02 -.247966551034839D+02 -.944620564537280D+01 0.576036299155896D+01
0.123138762402D-04 0.000000000000D+00 0.000000000000D+00 0.200905137801D-05 0.000000000000D+00  7 2 -2 23 -13 13 23 21 0 0.39211652D+00 0.19218871D-01 0.24810915D+06 0.24810915D+06 0.24810915D+06 0.10907072D+01  1  2  2  1  7  1        2 0.112494253294D-03 0.100000000000D+01
-.671166805470D-06 0.000000000000D+00 -.472885270803D-07 0.200905137801D-05 0.000000000000D+00  7 2 -2 23 -13 13 23 21 2 0.39211652D+00 0.19218871D-01 0.24810915D+06 0.24810915D+06 0.24810915D+06 0.10907072D+01  1  2  3  1  7  1        2 -.729427976669D-05 0.100000000000D+01
0.772939398454D-06 0.000000000000D+00 0.000000000000D+00 0.200905137801D-05 0.000000000000D+00  7 2 -2 23 -13 13 23 21 2 0.39211652D+00 0.19218871D-01 0.24810915D+06 0.24810915D+06 0.24810915D+06 0.10907072D+01  1  2 15  1  7  1        2 0.840035020963D-05 0.100000000000D+01
0.197364610064D-04 0.000000000000D+00 0.000000000000D+00 0.200905137801D-05 0.000000000000D+00  7 2 -2 23 -13 13 23 21 2 0.40733965D+00 0.19218871D-01 0.26144623D+06 0.26144623D+06 0.26144623D+06 0.10889995D+01  1  2 12  1  7  1        2 0.186610282317D-03 0.100000000000D+01
-.173020397579D-04 0.000000000000D+00 0.000000000000D+00 0.200905137801D-05 0.000000000000D+00  7 2 -2 23 -13 13 23 21 2 0.39211652D+00 0.19218871D-01 0.24810915D+06 0.24810915D+06 0.24810915D+06 0.10907072D+01  1  2  4  1  7  1        2 -.188039571534D-03 0.100000000000D+01
-.200786387832D-03 0.000000000000D+00 -.289211989076D-04 0.200905137801D-05 0.000000000000D+00  7 2 -2 23 -13 13 23 21 2 0.40666825D+00 0.19218871D-01 0.24810915D+06 0.24810915D+06 0.24810915D+06 0.10907072D+01  1  2  5  1  7  1        2 -.192067188605D-02 0.100000000000D+01
0.201725490655D-03 0.000000000000D+00 0.289020090317D-04 0.200905137801D-05 0.000000000000D+00  7 2 -2 23 -13 13 23 21 2 0.39211652D+00 0.19218871D-01 0.24810915D+06 0.24810915D+06 0.24810915D+06 0.10907072D+01  1  2  6  1  7  1        2 0.219236433166D-02 0.100000000000D+01
0.303624388846D-06 0.000000000000D+00 0.000000000000D+00 0.200905137801D-05 0.000000000000D+00  7 21 -2 23 -13 13 23 -2 2 0.40733965D+00 0.19218871D-01 0.26144623D+06 0.26144623D+06 0.26144623D+06 0.10889995D+01  1  2 12  3  7  1        2 0.288317945665D-06 0.100000000000D+01
-.128610014364D-05 0.000000000000D+00 -.187230403260D-06 0.200905137801D-05 0.000000000000D+00  7 21 -2 23 -13 13 23 -2 2 0.40666825D+00 0.19218871D-01 0.24810915D+06 0.24810915D+06 0.24810915D+06 0.10907072D+01  1  2  5  3  7  1        2 -.124510396323D-05 0.100000000000D+01
  </mgrwgt>
  </event>
  <event>
  9     66 -.55102590E-06 0.28261482E+03 0.75467711E-02 0.10145502E+00
        2 -1    0    0  502    0 0.00000000E+00 0.00000000E+00 0.24944218E+04 0.24944219E+04 0.32000000E+00 0.0000E+00 0.9000E+01
       -2 -1    0    0    0  501 0.00000000E+00 0.00000000E+00 -.43372295E+02 0.43373475E+02 0.32000000E+00 0.0000E+00 0.9000E+01
       25  2    1    2    0    0 -.12224411E+03 -.20649231E+03 0.15755534E+04 0.16219144E+04 0.30108964E+03 0.0000E+00 0.0000E+00
       23  2    1    2    0    0 0.12406345E+03 0.21177518E+03 0.83583097E+03 0.87581719E+03 0.90564178E+02 0.0000E+00 0.0000E+00
       23  1    3    3    0    0 -.40173350E+01 -.53533118E+02 0.10386495E+04 0.10440258E+04 0.91188000E+02 0.0000E+00 0.9000E+01
      -11  1    4    4    0    0 0.82935882E+02 0.14706781E+03 0.69765055E+03 0.71779077E+03 0.51099893E-03 0.0000E+00 0.9000E+01
       11  1    4    4    0    0 0.41127565E+02 0.64707363E+02 0.13818042E+03 0.15802642E+03 0.51099893E-03 0.0000E+00 0.9000E+01
       23  1    3    3    0    0 -.11822678E+03 -.15295920E+03 0.53690394E+03 0.57788855E+03 0.91188000E+02 0.0000E+00 0.9000E+01
       21  1    1    2  502  501 -.18193368E+01 -.52828647E+01 0.39665181E+02 0.40063795E+02 0.75000000E+00 0.0000E+00 0.9000E+01
#aMCatNLO 2  0  0  1  2 0.55873648D+01 0.00000000D+00  -5  7  0 0.00000000D+00 0.00000000D+00 0.00000000D+00 0.00000000D+00 0.00000000D+00
  <mgrwgt>
 -.9772459901D-04    3    2    0
 0.325521533546984D+03 0.000000000000000D+00 0.000000000000000D+00 0.325521533546984D+03
 0.325521533546984D+03 0.000000000000000D+00 0.000000000000000D+00 -.325521533546984D+03
 0.158827028540374D+03 -.446053747754070D+01 -.548200583373461D+02 0.117837338990093D+03
 0.168371649244075D+03 0.824633942163194D+02 0.145695837685853D+03 0.179310837517292D+02
 0.938260385946615D+02 0.408644845174267D+02 0.639434463913974D+02 -.551783932992107D+02
 0.230018350714858D+03 -.118867341256205D+03 -.154819225739904D+03 -.805900294426118D+02
 0.000000000000000D+00 -.000000000000000D+00 -.000000000000000D+00 0.000000000000000D+00
 0.330799550861962D+03 0.000000000000000D+00 0.000000000000000D+00 0.330799550861962D+03
 0.327015598261982D+03 0.000000000000000D+00 0.000000000000000D+00 -.327015598261982D+03
 0.158375577263597D+03 -.401733505068836D+01 -.535331176787040D+02 0.117837338990093D+03
 0.169790536730695D+03 0.829358818275540D+02 0.147067814644375D+03 0.179310837517292D+02
 0.944625561668551D+02 0.411275654651239D+02 0.647073627140361D+02 -.551783932992107D+02
 0.228438372359492D+03 -.118226775483556D+03 -.152959195001327D+03 -.805900294426118D+02
 0.674810660330398D+01 -.181933675843386D+01 -.528286467838008D+01 0.378395259997934D+01
-.151620362310D-05 0.000000000000D+00 0.000000000000D+00 0.958735892459D-07 0.000000000000D+00  7 2 -2 23 -11 11 23 21 2 0.38459043D+00 0.66418458D-02 0.81415297D+05 0.81415297D+05 0.81415297D+05 0.11291241D+01  1  2 13  1  7  1        2 -.104052843649D-03 0.100000000000D+01
-.228036769020D-04 0.000000000000D+00 0.000000000000D+00 0.958735892459D-07 0.000000000000D+00  7 2 -2 23 -11 11 23 21 2 0.37761040D+00 0.66418458D-02 0.79871137D+05 0.79871137D+05 0.79871137D+05 0.11298212D+01  1  2  8  1  7  1        2 -.166295350590D-02 0.100000000000D+01
0.243142055691D-04 0.000000000000D+00 0.000000000000D+00 0.958735892459D-07 0.208845995938D-07  7 2 -2 23 -11 11 23 21 2 0.38373298D+00 0.66723303D-02 0.81415297D+05 0.81415297D+05 0.81415297D+05 0.11291241D+01  1  2  1  1  7  1        2 0.166928175054D-02 0.100000000000D+01
  </mgrwgt>
  </event>
  <event>
  8     66 0.55102590E-06 0.12681537E+03 0.75467711E-02 0.99013095E-01
        2 -1    0    0  501    0 0.00000000E+00 0.00000000E+00 0.14136566E+04 0.14136566E+04 0.32000000E+00 0.0000E+00 0.9000E+01
       -2 -1    0    0    0  501 0.00000000E+00 0.00000000E+00 -.60976864E+02 0.60977704E+02 0.32000000E+00 0.0000E+00 0.9000E+01
       25  2    1    2    0    0 -.59742014E+02 0.19488941E+03 0.86594942E+03 0.93879124E+03 0.29984930E+03 0.0000E+00 0.0000E+00
       23  2    1    2    0    0 0.59742014E+02 -.19488941E+03 0.48673031E+03 0.53584310E+03 0.93115187E+02 0.0000E+00 0.0000E+00
       23  1    3    3    0    0 0.27770841E+02 -.16296691E+02 0.12503605E+03 0.15806982E+03 0.91188000E+02 0.0000E+00 0.9000E+01
      -13  1    4    4    0    0 0.69010422E+02 -.19864371E+03 0.43510177E+03 0.48325493E+03 0.10565837E+00 0.0000E+00 0.9000E+01
       13  1    4    4    0    0 -.92684080E+01 0.37543026E+01 0.51628543E+02 0.52588172E+02 0.10565837E+00 0.0000E+00 0.9000E+01
       23  1    3    3    0    0 -.87512855E+02 0.21118610E+03 0.74091337E+03 0.78072142E+03 0.91188000E+02 0.0000E+00 0.9000E+01
#aMCatNLO 1  0  0  2  1 0.11708225D+03 0.00000000D+00  -5  7  0 0.00000000D+00 0.00000000D+00 0.00000000D+00 0.00000000D+00 0.00000000D+00
  <mgrwgt>
 0.3955064310D-03    9    2    0
 0.293600054648414D+03 0.000000000000000D+00 0.000000000000000D+00 0.293600054648414D+03
 0.293600054648414D+03 0.000000000000000D+00 0.000000000000000D+00 -.293600054648414D+03
 0.108926150977817D+03 0.277708404100981D+02 -.162966900881751D+02 -.501283685943310D+02
 0.211292725523785D+03 0.690105219022113D+02 -.198643972115384D+03 -.205605464002449D+02
 0.131322996786136D+02 -.926850632799885D+01 0.375456018773198D+01 0.851207160998187D+01
 0.253848933116612D+03 -.875128559843106D+02 0.211186102015827D+03 0.621768433845940D+02
 0.000000000000000D+00 -.000000000000000D+00 0.000000000000000D+00 -.000000000000000D+00
 0.343569136163053D+03 0.000000000000000D+00 0.000000000000000D+00 0.343569136163053D+03
 0.376932909406491D+03 0.000000000000000D+00 0.000000000000000D+00 -.376932909406491D+03
 0.117482779078637D+03 0.475826331789020D+02 -.266456697771481D+02 -.501283685943310D+02
 0.245986725630819D+03 0.109024516586292D+03 -.219545867420502D+03 -.205605464002449D+02
 0.114061528380420D+02 -.712128211733766D+01 0.263292621936166D+01 0.851207160998187D+01
 0.223883242561540D+03 -.457091565402764D+02 0.189349328255935D+03 0.621768433845940D+02
 0.121743145460505D+03 -.103776711107580D+03 0.542092827223535D+02 -.333637732434379D+02
0.246566980224D-05 0.000000000000D+00 0.000000000000D+00 0.128778684922D-06 0.000000000000D+00  7 2 -2 23 -13 13 23 21 0 0.21748570D+00 0.93811234D-02 0.79273944D+05 0.79273944D+05 0.79273944D+05 0.11300948D+01  1  2  2  2  7  2       -2 0.304588597583D-03 0.100000000000D+01
-.136689453376D-06 0.000000000000D+00 -.946882126639D-08 0.128778684922D-06 0.000000000000D+00  7 2 -2 23 -13 13 23 21 2 0.21748570D+00 0.93811234D-02 0.79273944D+05 0.79273944D+05 0.79273944D+05 0.11300948D+01  1  2  3  2  7  2       -2 -.215647014215D-04 0.100000000000D+01
0.158664751506D-06 0.000000000000D+00 0.000000000000D+00 0.128778684922D-06 0.000000000000D+00  7 2 -2 23 -13 13 23 21 2 0.21748570D+00 0.93811234D-02 0.79273944D+05 0.79273944D+05 0.79273944D+05 0.11300948D+01  1  2 15  2  7  2       -2 0.250316166159D-04 0.100000000000D+01
0.112253199343D-05 0.000000000000D+00 0.000000000000D+00 0.128778684922D-06 0.000000000000D+00  7 2 -2 23 -13 13 23 21 2 0.21748570D+00 0.12657067D-01 0.11941452D+06 0.11941452D+06 0.11941452D+06 0.11154529D+01  1  2 12  2  7  2       -2 0.107870055704D-03 0.100000000000D+01
-.133580886859D-05 0.000000000000D+00 0.000000000000D+00 0.128778684922D-06 0.000000000000D+00  7 2 -2 23 -13 13 23 21 2 0.21748570D+00 0.93811234D-02 0.79273944D+05 0.79273944D+05 0.79273944D+05 0.11300948D+01  1  2  4  2  7  2       -2 -.210742809309D-03 0.100000000000D+01
-.223384651089D-05 0.000000000000D+00 -.102867017775D-05 0.128778684922D-06 0.000000000000D+00  7 2 -2 23 -13 13 23 21 2 0.21748570D+00 0.14248946D-01 0.79273944D+05 0.79273944D+05 0.79273944D+05 0.11300948D+01  1  2  5  2  7  2       -2 -.183744138927D-03 0.100000000000D+01
0.252386471913D-05 0.000000000000D+00 0.944918022820D-06 0.128778684922D-06 0.000000000000D+00  7 2 -2 23 -13 13 23 21 2 0.21748570D+00 0.93811234D-02 0.79273944D+05 0.79273944D+05 0.79273944D+05 0.11300948D+01  1  2  6  2  7  2       -2 0.398175482833D-03 0.100000000000D+01
0.433411822715D-07 0.000000000000D+00 0.000000000000D+00 0.128778684922D-06 0.000000000000D+00  7 2 21 23 -13 13 23 2 2 0.21748570D+00 0.12657067D-01 0.11941452D+06 0.11941452D+06 0.11941452D+06 0.11154529D+01  1  2 12  4  7  2       -2 0.580040809273D-04 0.100000000000D+01
-.725988826343D-07 0.000000000000D+00 -.505786848317D-07 0.128778684922D-06 0.000000000000D+00  7 2 21 23 -13 13 23 2 2 0.21748570D+00 0.14248946D-01 0.79273944D+05 0.79273944D+05 0.79273944D+05 0.11300948D+01  1  2  5  4  7  2       -2 -.821117530254D-04 0.100000000000D+01
  </mgrwgt>
  </event>
  <event>
  9     66 -.55102590E-06 0.32974761E+03 0.75467711E-02 0.98568252E-01
        2 -1    0    0  501    0 0.00000000E+00 0.00000000E+00 0.18526882E+04 0.18526882E+04 0.32000000E+00 0.0000E+00 0.9000E+01
       -2 -1    0    0    0  502 0.00000000E+00 0.00000000E+00 -.12082698E+03 0.12082740E+03 0.32000000E+00 0.0000E+00 0.9000E+01
       25  2    1    2    0    0 -.27723254E+03 0.65396986E+02 0.46901661E+03 0.62552897E+03 0.30029197E+03 0.0000E+00 0.0000E+00
       23  2    1    2    0    0 0.23245583E+03 -.97945633E+02 0.12643608E+04 0.12926041E+04 0.92670686E+02 0.0000E+00 0.0000E+00
       23  1    3    3    0    0 -.25989826E+03 -.19817745E+02 0.24821198E+03 0.37130080E+03 0.91188000E+02 0.0000E+00 0.9000E+01
      -13  1    4    4    0    0 0.14712391E+03 -.30771630E+02 0.89777081E+03 0.91026632E+03 0.10565837E+00 0.0000E+00 0.9000E+01
       13  1    4    4    0    0 0.85331914E+02 -.67174003E+02 0.36659003E+03 0.38233774E+03 0.10565837E+00 0.0000E+00 0.9000E+01
       23  1    3    3    0    0 -.17334286E+02 0.85214731E+02 0.22080462E+03 0.25422817E+03 0.91188000E+02 0.0000E+00 0.9000E+01
       21  1    1    2  501  502 0.44776717E+02 0.32548647E+02 -.15162478E+01 0.55382581E+02 0.75000000E+00 0.0000E+00 0.9000E+01
#aMCatNLO 2  0  0  2  1 0.55356741D+02 0.00000000D+00  -5  7  0 0.00000000D+00 0.00000000D+00 0.00000000D+00 0.00000000D+00 0.00000000D+00
  <mgrwgt>
 -.1707650495D-04    2    2    0
 0.409747657464167D+03 0.000000000000000D+00 0.000000000000000D+00 0.409747657464167D+03
 0.409747657464167D+03 0.000000000000000D+00 0.000000000000000D+00 -.409747657464167D+03
 0.329076743416284D+03 -.241550523594477D+03 -.648059308026183D+01 -.203930375810051D+03
 0.238466888372247D+03 0.159938458282398D+03 -.214566192939572D+02 0.175572662737300D+03
 0.121501710145380D+03 0.919012147011537D+02 -.623987001236165D+02 0.492263600887499D+02
 0.130449972994423D+03 -.102891493890743D+02 0.903359124978355D+02 -.208686470159991D+02
 0.000000000000000D+00 0.000000000000000D+00 0.000000000000000D+00 -.000000000000000D+00
 0.416738668536089D+03 0.000000000000000D+00 0.000000000000000D+00 0.416738668536089D+03
 0.537156864465761D+03 0.000000000000000D+00 0.000000000000000D+00 -.537156864465761D+03
 0.343282240069853D+03 -.259898256625502D+03 -.198177452898328D+02 -.203930375810051D+03
 0.231123602258146D+03 0.147123992844126D+03 -.307715834775714D+02 0.175572662737300D+03
 0.119235520198567D+03 0.853318335499162D+02 -.671740495462720D+02 0.492263600887499D+02
 0.127721492705704D+03 -.173342863549462D+02 0.852147313746839D+02 -.208686470159991D+02
 0.132532677769580D+03 0.447767165864052D+02 0.325486469389923D+02 -.120418195929672D+03
-.253503790478D-04 0.000000000000D+00 0.000000000000D+00 0.291130463150D-06 0.000000000000D+00  7 2 -2 23 -13 13 23 21 2 0.28024677D+00 0.18682883D-01 0.12831162D+06 0.12831162D+06 0.12831162D+06 0.11129444D+01  1  2 13  2  7  2       -2 -.780378328444D-03 0.100000000000D+01
0.255535446712D-04 0.000000000000D+00 0.000000000000D+00 0.291130463150D-06 0.637801032747D-09  7 2 -2 23 -13 13 23 21 2 0.28502827D+00 0.18588754D-01 0.12831162D+06 0.12831162D+06 0.12831162D+06 0.11129444D+01  1  2  1  2  7  2       -2 0.763301823492D-03 0.100000000000D+01
  </mgrwgt>
  </event>
  <event>
  8     66 0.55102590E-06 0.26035951E+03 0.75467711E-02 0.10107072E+00
        2 -1    0    0  501    0 0.00000000E+00 0.00000000E+00 0.88526398E+03 0.88526403E+03 0.32000000E+00 0.0000E+00 0.9000E+01
       -2 -1    0    0    0  501 0.00000000E+00 0.00000000E+00 -.85639818E+02 0.85640416E+02 0.32000000E+00 0.0000E+00 0.9000E+01
       25  2    1    2    0    0 -.18219422E+02 0.17758713E+03 0.47665678E+03 0.59035168E+03 0.29907236E+03 0.0000E+00 0.0000E+00
       23  2    1    2    0    0 0.18219422E+02 -.17758713E+03 0.32296738E+03 0.38055277E+03 0.92969617E+02 0.0000E+00 0.0000E+00
       23  1    3    3    0    0 -.10570019E+03 0.33060354E+02 0.12765726E+03 0.19203422E+03 0.91188000E+02 0.0000E+00 0.9000E+01
      -13  1    4    4    0    0 -.11111940E+02 -.12130518E+03 0.27572249E+03 0.30143212E+03 0.10565837E+00 0.0000E+00 0.9000E+01
       13  1    4    4    0    0 0.29331362E+02 -.56281951E+02 0.47244887E+02 0.79120650E+02 0.10565837E+00 0.0000E+00 0.9000E+01
       23  1    3    3    0    0 0.87480763E+02 0.14452678E+03 0.34899953E+03 0.39831746E+03 0.91188000E+02 0.0000E+00 0.9000E+01
#aMCatNLO 1  0  0  2  1 0.62321397D+02 0.00000000D+00  -5  7  0 0.00000000D+00 0.00000000D+00 0.00000000D+00 0.00000000D+00 0.00000000D+00
  <mgrwgt>
 0.2809213437D-03    4    2    0
 0.275343720442754D+03 0.000000000000000D+00 0.000000000000000D+00 0.275343720442754D+03
 0.275343720442754D+03 0.000000000000000D+00 0.000000000000000D+00 -.275343720442754D+03
 0.153206791249140D+03 -.105700185723017D+03 0.330603570899827D+02 -.537731630840143D+02
 0.131086100321068D+03 -.111119856468243D+02 -.121305271100474D+03 0.484264460353067D+02
 0.708939243113144D+02 0.293314089036934D+02 -.562818708832531D+02 -.315906309823584D+02
 0.195500625003986D+03 0.874807624661480D+02 0.144526784893744D+03 0.369373480310659D+02
 0.000000000000000D+00 -.000000000000000D+00 0.000000000000000D+00 0.000000000000000D+00
 0.364946394764709D+03 0.000000000000000D+00 0.000000000000000D+00 0.364946394764709D+03
 0.288154771251737D+03 0.000000000000000D+00 0.000000000000000D+00 -.288154771251737D+03
 0.150277527546783D+03 -.105462415697381D+03 0.159439564972796D+02 -.537731630840143D+02
 0.145632219159020D+03 -.108951859051509D+02 -.136912079473152D+03 0.484264460353067D+02
 0.777613885928629D+02 0.294478754733682D+02 -.646659742069326D+02 -.315906309823584D+02
 0.180531547858911D+03 0.877753713597361D+02 0.123318712819371D+03 0.369373480310659D+02
 0.988984828588681D+02 -.865645230572818D+00 0.623153843634341D+02 0.767916235129723D+02
0.219091098330D-05 0.000000000000D+00 0.000000000000D+00 0.247950472617D-07 0.000000000000D+00  7 2 -2 23 -13 13 23 21 0 0.13619451D+00 0.13175407D-01 0.67787072D+05 0.67787072D+05 0.67787072D+05 0.11358475D+01  1  2  2  2  7  2       -2 0.323260289445D-03 0.100000000000D+01
-.121253894209D-06 0.000000000000D+00 -.841367505597D-08 0.247950472617D-07 0.000000000000D+00  7 2 -2 23 -13 13 23 21 2 0.13619451D+00 0.13175407D-01 0.67787072D+05 0.67787072D+05 0.67787072D+05 0.11358475D+01  1  2  3  2  7  2       -2 -.230814659540D-04 0.100000000000D+01
0.139918357194D-06 0.000000000000D+00 0.000000000000D+00 0.247950472617D-07 0.000000000000D+00  7 2 -2 23 -13 13 23 21 2 0.13619451D+00 0.13175407D-01 0.67787072D+05 0.67787072D+05 0.67787072D+05 0.11358475D+01  1  2 15  2  7  2       -2 0.266343676547D-04 0.100000000000D+01
-.241083700061D-06 0.000000000000D+00 0.000000000000D+00 0.247950472617D-07 0.000000000000D+00  7 2 -2 23 -13 13 23 21 2 0.13619451D+00 0.13175407D-01 0.67787072D+05 0.67787072D+05 0.67787072D+05 0.11358475D+01  1  2  4  2  7  2       -2 -.458918474439D-04 0.100000000000D+01
  </mgrwgt>
  </event>
  <event>
  9     66 0.55102590E-06 0.18543342E+03 0.75467711E-02 0.10605997E+00
        2 -1    0    0  502    0 0.00000000E+00 0.00000000E+00 0.13998731E+03 0.13998767E+03 0.32000000E+00 0.0000E+00 0.9000E+01
       -2 -1    0    0    0  501 0.00000000E+00 0.00000000E+00 -.48536522E+03 0.48536533E+03 0.32000000E+00 0.0000E+00 0.9000E+01
       25  2    1    2    0    0 -.93200337E+02 -.72081078E+02 -.11665512E+03 0.33949830E+03 0.29625781E+03 0.0000E+00 0.0000E+00
       23  2    1    2    0    0 0.56172754E+02 0.63516547E+02 -.17136571E+03 0.21704489E+03 0.10272559E+03 0.0000E+00 0.0000E+00
       23  1    3    3    0    0 -.11142519E+03 0.15773996E+02 -.14873342E+03 0.20760846E+03 0.91188000E+02 0.0000E+00 0.9000E+01
      -11  1    4    4    0    0 0.61642709E+02 0.42120380E+02 -.17878525E+03 0.19374756E+03 0.51099893E-03 0.0000E+00 0.9000E+01
       11  1    4    4    0    0 -.54699544E+01 0.21396168E+02 0.74195367E+01 0.23297337E+02 0.51099893E-03 0.0000E+00 0.9000E+01
       23  1    3    3    0    0 0.18224855E+02 -.87855075E+02 0.32078295E+02 0.13188983E+03 0.91188000E+02 0.0000E+00 0.9000E+01
       21  1    1    2  502  501 0.37027583E+02 0.85645311E+01 -.57357079E+02 0.68809811E+02 0.75000000E+00 0.0000E+00 0.9000E+01
#aMCatNLO 2  0  0  1  1 0.38005172D+02 0.00000000D+00  -5  7  0 0.00000000D+00 0.00000000D+00 0.00000000D+00 0.00000000D+00 0.00000000D+00
  <mgrwgt>
 0.6352977776D-04    1    2    0
 0.237349912603265D+03 0.000000000000000D+00 0.000000000000000D+00 0.237349912603265D+03
 0.237349912603265D+03 0.000000000000000D+00 0.000000000000000D+00 -.237349912603265D+03
 0.144752619249236D+03 -.998438917413625D+02 0.184527668889484D+02 -.482572493165055D+02
 0.124243203507193D+03 0.710869016092051D+02 0.443048352943472D+02 -.917611443197706D+02
 0.317751623068171D+02 -.299775255185322D+01 0.219679912103275D+02 0.227614099177841D+02
 0.173928840143284D+03 0.317547426840107D+02 -.847255933936232D+02 0.117256983718492D+03
 0.000000000000000D+00 0.000000000000000D+00 0.000000000000000D+00 -.000000000000000D+00
 0.248261968182189D+03 0.000000000000000D+00 0.000000000000000D+00 0.248261968182189D+03
 0.273676518121308D+03 0.000000000000000D+00 0.000000000000000D+00 -.273676518121308D+03
 0.152670907302409D+03 -.111425192532380D+03 0.157739960082221D+02 -.482572493165055D+02
 0.118296481951306D+03 0.616427090679469D+02 0.421203805057180D+02 -.917611443197706D+02
 0.317143211477467D+02 -.546995377103277D+01 0.213961676512356D+02 0.227614099177841D+02
 0.173537059848626D+03 0.182248543490699D+02 -.878550752666117D+02 0.117256983718492D+03
 0.457197160534093D+02 0.370275828863963D+02 0.856453110143606D+01 -.254145499391187D+02
0.906493329775D-06 0.000000000000D+00 0.000000000000D+00 0.799023811798D-10 0.399141388508D-12  7 2 -2 23 -11 11 23 21 2 0.21536284D-01 0.74670704D-01 0.41518382D+05 0.41518382D+05 0.41518382D+05 0.11544648D+01  1  2  1  1  7  1        2 0.635297777641D-04 0.100000000000D+01
  </mgrwgt>
  </event>
  <event>
  8     66 0.55102590E-06 0.15400326E+03 0.75467711E-02 0.96854617E-01
        2 -1    0    0  501    0 0.00000000E+00 0.00000000E+00 0.11691817E+04 0.11691818E+04 0.32000000E+00 0.0000E+00 0.9000E+01
       -2 -1    0    0    0  501 0.00000000E+00 0.00000000E+00 -.19753658E+03 0.19753684E+03 0.32000000E+00 0.0000E+00 0.9000E+01
       25  2    1    2    0    0 -.80246892E+01 0.64708582E+02 0.11312434E+04 0.11721896E+04 0.30010877E+03 0.0000E+00 0.0000E+00
       23  2    1    2    0    0 0.80246892E+01 -.64708582E+02 -.15959820E+03 0.19452905E+03 0.90102003E+02 0.0000E+00 0.0000E+00
       23  1    3    3    0    0 -.57693532E+02 0.52318472E+02 0.98572679E+03 0.99299463E+03 0.91188000E+02 0.0000E+00 0.9000E+01
      -13  1    4    4    0    0 -.77357635E+01 0.67919589E+01 -.98870442E+02 0.99404971E+02 0.10565837E+00 0.0000E+00 0.9000E+01
       13  1    4    4    0    0 0.15760453E+02 -.71500541E+02 -.60727754E+02 0.95124079E+02 0.10565837E+00 0.0000E+00 0.9000E+01
       23  1    3    3    0    0 0.49668843E+02 0.12390109E+02 0.14551657E+03 0.17919495E+03 0.91188000E+02 0.0000E+00 0.9000E+01
#aMCatNLO 1  0  0  2  2 0.34180716D+03 0.00000000D+00  -5  7  0 0.00000000D+00 0.00000000D+00 0.00000000D+00 0.00000000D+00 0.00000000D+00
  <mgrwgt>
 0.2830738401D-03    5    2    0
 0.480579204523987D+03 0.000000000000000D+00 0.000000000000000D+00 0.480579204523987D+03
 0.480579204523987D+03 0.000000000000000D+00 0.000000000000000D+00 -.480579204523987D+03
 0.415506517259090D+03 -.576935324144726D+02 0.523184724061598D+02 0.397824896535403D+03
 0.241298072024532D+03 -.773579578947341D+01 0.679206646420529D+01 -.241078379079098D+03
 0.196651892674869D+03 0.157604850080363D+02 -.715006482847805D+02 -.182513646886406D+03
 0.107701927089484D+03 0.496688431959097D+02 0.123901094144154D+02 0.257671294301012D+02
 0.000000000000000D+00 0.000000000000000D+00 -.000000000000000D+00 -.000000000000000D+00
 0.566917580983102D+03 0.000000000000000D+00 0.000000000000000D+00 0.566917580983102D+03
 0.102379668837900D+04 0.000000000000000D+00 0.000000000000000D+00 -.102379668837900D+04
 0.468579583794783D+03 -.160864094111806D+03 0.164650144025068D+03 0.397824896535403D+03
 0.259741729670473D+03 -.662058449305854D+02 0.704540088982224D+02 -.241078379079098D+03
 0.186198339727177D+03 -.289171470413637D+02 -.228558312990322D+02 -.182513646886406D+03
 0.105606625225388D+03 0.247762867685021D+02 0.394930196666815D+02 0.257671294301012D+02
 0.570587990944282D+03 0.231210799315253D+03 -.251741341290940D+03 -.456879107395898D+03
0.922568333265D-05 0.000000000000D+00 0.000000000000D+00 0.967007059663D-06 0.000000000000D+00  7 2 -2 23 -13 13 23 21 0 0.17987414D+00 0.30390267D-01 0.23717003D+05 0.23717003D+05 0.23717003D+05 0.11769255D+01  1  2  2  2  7  2       -2 0.237256203577D-03 0.100000000000D+01
0.294522436734D-06 0.000000000000D+00 -.354290531756D-07 0.967007059663D-06 0.000000000000D+00  7 2 -2 23 -13 13 23 21 2 0.17987414D+00 0.30390267D-01 0.23717003D+05 0.23717003D+05 0.23717003D+05 0.11769255D+01  1  2  3  2  7  2       -2 0.104914455681D-04 0.100000000000D+01
0.553894412069D-06 0.000000000000D+00 0.000000000000D+00 0.967007059663D-06 0.000000000000D+00  7 2 -2 23 -13 13 23 21 2 0.17987414D+00 0.30390267D-01 0.23717003D+05 0.23717003D+05 0.23717003D+05 0.11769255D+01  1  2 15  2  7  2       -2 0.197307652996D-04 0.100000000000D+01
0.244217120796D-06 0.000000000000D+00 -.285419574007D-05 0.967007059663D-06 0.000000000000D+00  7 2 -2 23 -13 13 23 21 2 0.17987414D+00 0.73709845D-01 0.23717003D+05 0.23717003D+05 0.23717003D+05 0.11769255D+01  1  2  5  2  7  2       -2 0.160027463074D-05 0.100000000000D+01
0.202457401274D-06 0.000000000000D+00 -.277091574209D-06 0.967007059663D-06 0.000000000000D+00  7 2 21 23 -13 13 23 2 2 0.17987414D+00 0.73709845D-01 0.23717003D+05 0.23717003D+05 0.23717003D+05 0.11769255D+01  1  2  5  4  7  2       -2 0.139951510624D-04 0.100000000000D+01
  </mgrwgt>
  </event>
  <event>
  8     66 0.55102590E-06 0.97675311E+02 0.75467711E-02 0.95758292E-01
        2 -1    0    0  501    0 0.00000000E+00 0.00000000E+00 0.20139791E+04 0.20139791E+04 0.32000000E+00 0.0000E+00 0.9000E+01
       -2 -1    0    0    0  501 0.00000000E+00 0.00000000E+00 -.22166263E+03 0.22166286E+03 0.32000000E+00 0.0000E+00 0.9000E+01
       25  2    1    2    0    0 0.25088209E+03 0.26912563E+03 0.79245938E+02 0.48125987E+03 0.29993452E+03 0.0000E+00 0.0000E+00
       23  2    1    2    0    0 -.25088209E+03 -.26912563E+03 0.17130705E+04 0.17543821E+04 0.88744154E+02 0.0000E+00 0.0000E+00
       23  1    3    3    0    0 0.86305991E+02 0.18610283E+03 0.14273518E+03 0.26602927E+03 0.91188000E+02 0.0000E+00 0.9000E+01
      -13  1    4    4    0    0 -.20183971E+03 -.25834652E+03 0.15122436E+04 0.15473729E+04 0.10565837E+00 0.0000E+00 0.9000E+01
       13  1    4    4    0    0 -.49042379E+02 -.10779113E+02 0.20082687E+03 0.20700915E+03 0.10565837E+00 0.0000E+00 0.9000E+01
       23  1    3    3    0    0 0.16457610E+03 0.83022800E+02 -.63489240E+02 0.21523060E+03 0.91188000E+02 0.0000E+00 0.9000E+01
#aMCatNLO 1  0  0  1  2 0.88753503D+02 0.00000000D+00  -5  7  0 0.00000000D+00 0.00000000D+00 0.00000000D+00 0.00000000D+00 0.00000000D+00
  <mgrwgt>
 0.4109797903D-03    9    2    0
 0.668149818150023D+03 0.000000000000000D+00 0.000000000000000D+00 0.668149818150023D+03
 0.668149818150023D+03 0.000000000000000D+00 0.000000000000000D+00 -.668149818150023D+03
 0.253625440732948D+03 0.863059910447021D+02 0.186102833906230D+03 -.118015354784215D+03
 0.560468345434093D+03 -.201839926380189D+03 -.258346871788954D+03 0.454579260623856D+03
 0.769678559218539D+02 -.490421624128183D+02 -.107787618063138D+02 0.583329704798647D+02
 0.445237994211151D+03 0.164576097748305D+03 0.830227996890375D+02 -.394896876319506D+03
 0.000000000000000D+00 -.000000000000000D+00 0.000000000000000D+00 0.000000000000000D+00
 0.733110969227336D+03 0.000000000000000D+00 0.000000000000000D+00 0.733110969227336D+03
 0.700639760898193D+03 0.000000000000000D+00 0.000000000000000D+00 -.700639760898193D+03
 0.242828871896428D+03 0.887879921750844D+02 0.169822490157119D+03 -.118015354784215D+03
 0.576645496011506D+03 -.196154976591167D+03 -.295636515064602D+03 0.454579260623856D+03
 0.773542433370094D+02 -.482706359801546D+02 -.158394829242597D+02 0.583329704798647D+02
 0.442415168740626D+03 0.169013880033175D+03 0.539137794726509D+02 -.394896876319506D+03
 0.945069501399590D+02 -.133762596369371D+02 0.877397283590924D+02 0.324712083291433D+02
0.320103647129D-04 0.000000000000D+00 0.000000000000D+00 0.736797597189D-06 0.000000000000D+00  7 2 -2 23 -13 13 23 21 0 0.30984295D+00 0.34101963D-01 0.16329957D+06 0.16329957D+06 0.16329957D+06 0.11046522D+01  1  2  2  1  7  1        2 0.220587691548D-03 0.100000000000D+01
-.123163727646D-05 0.000000000000D+00 -.122928229020D-06 0.736797597189D-06 0.000000000000D+00  7 2 -2 23 -13 13 23 21 2 0.30984295D+00 0.34101963D-01 0.16329957D+06 0.16329957D+06 0.16329957D+06 0.11046522D+01  1  2  3  1  7  1        2 -.103567759477D-04 0.100000000000D+01
0.197177356120D-05 0.000000000000D+00 0.000000000000D+00 0.736797597189D-06 0.000000000000D+00  7 2 -2 23 -13 13 23 21 2 0.30984295D+00 0.34101963D-01 0.16329957D+06 0.16329957D+06 0.16329957D+06 0.11046522D+01  1  2 15  1  7  1        2 0.165805447622D-04 0.100000000000D+01
0.485651756884D-04 0.000000000000D+00 0.000000000000D+00 0.736797597189D-06 0.000000000000D+00  7 2 -2 23 -13 13 23 21 2 0.34693594D+00 0.34101963D-01 0.20522691D+06 0.20522691D+06 0.20522691D+06 0.10969659D+01  1  2 12  1  7  1        2 0.293412629368D-03 0.100000000000D+01
-.466859303959D-04 0.000000000000D+00 0.000000000000D+00 0.736797597189D-06 0.000000000000D+00  7 2 -2 23 -13 13 23 21 2 0.30984295D+00 0.34101963D-01 0.16329957D+06 0.16329957D+06 0.16329957D+06 0.11046522D+01  1  2  4  1  7  1        2 -.392579641965D-03 0.100000000000D+01
-.118642167802D-03 0.000000000000D+00 -.287226511285D-04 0.736797597189D-06 0.000000000000D+00  7 2 -2 23 -13 13 23 21 2 0.34694849D+00 0.34101963D-01 0.16329957D+06 0.16329957D+06 0.16329957D+06 0.11046522D+01  1  2  5  1  7  1        2 -.735501356447D-03 0.100000000000D+01
0.121297006435D-03 0.000000000000D+00 0.285398861188D-04 0.736797597189D-06 0.000000000000D+00  7 2 -2 23 -13 13 23 21 2 0.30984295D+00 0.34101963D-01 0.16329957D+06 0.16329957D+06 0.16329957D+06 0.11046522D+01  1  2  6  1  7  1        2 0.101998042994D-02 0.100000000000D+01
0.876335932872D-06 0.000000000000D+00 0.000000000000D+00 0.736797597189D-06 0.000000000000D+00  7 21 -2 23 -13 13 23 -2 2 0.34693594D+00 0.34101963D-01 0.20522691D+06 0.20522691D+06 0.20522691D+06 0.10969659D+01  1  2 12  3  7  1        2 0.817694993656D-06 0.100000000000D+01
-.202230845494D-05 0.000000000000D+00 -.518427506478D-06 0.736797597189D-06 0.000000000000D+00  7 21 -2 23 -13 13 23 -2 2 0.34694849D+00 0.34101963D-01 0.16329957D+06 0.16329957D+06 0.16329957D+06 0.11046522D+01  1  2  5  3  7  1        2 -.196142595872D-05 0.100000000000D+01
  </mgrwgt>
  </event>
  <event>
  8     66 0.55102590E-06 0.37741404E+03 0.75467711E-02 0.94216058E-01
        2 -1    0    0  501    0 0.00000000E+00 0.00000000E+00 0.41526507E+03 0.41526519E+03 0.32000000E+00 0.0000E+00 0.9000E+01
       -2 -1    0    0    0  501 0.00000000E+00 0.00000000E+00 -.79645961E+03 0.79645968E+03 0.32000000E+00 0.0000E+00 0.9000E+01
       25  2    1    2    0    0 -.16433079E+03 0.41064755E+03 -.51315786E+03 0.74100776E+03 0.30020909E+03 0.0000E+00 0.0000E+00
       23  2    1    2    0    0 0.16433079E+03 -.41064755E+03 0.13196331E+03 0.47071710E+03 0.92326872E+02 0.0000E+00 0.0000E+00
       23  1    3    3    0    0 -.17523413E+03 0.23428957E+03 -.42385677E+03 0.52303769E+03 0.91188000E+02 0.0000E+00 0.9000E+01
      -13  1    4    4    0    0 0.17420588E+03 -.36730458E+03 0.12746039E+03 0.42603581E+03 0.10565837E+00 0.0000E+00 0.9000E+01
       13  1    4    4    0    0 -.98750940E+01 -.43342969E+02 0.45029247E+01 0.44681293E+02 0.10565837E+00 0.0000E+00 0.9000E+01
       23  1    3    3    0    0 0.10903345E+02 0.17635798E+03 -.89301082E+02 0.21797008E+03 0.91188000E+02 0.0000E+00 0.9000E+01
#aMCatNLO 1  0  0  2  1 0.79532701D+02 0.00000000D+00  -5  7  0 0.00000000D+00 0.00000000D+00 0.00000000D+00 0.00000000D+00 0.00000000D+00
  <mgrwgt>
 0.2621480412D-03    6    2    0
 0.575101701198876D+03 0.000000000000000D+00 0.000000000000000D+00 0.575101701198876D+03
 0.575101701198876D+03 0.000000000000000D+00 0.000000000000000D+00 -.575101701198876D+03
 0.410541196900664D+03 -.175234134434350D+03 0.234289573744172D+03 -.273185315806776D+03
 0.491066232325539D+03 0.174206124441485D+03 -.367305007857022D+03 0.275472869699778D+03
 0.485629390527371D+02 -.987533503741326D+01 -.433425450265379D+02 0.195514858248990D+02
 0.200033034118812D+03 0.109033450302781D+02 0.176357979139387D+03 -.218390397179011D+02
 0.000000000000000D+00 -.000000000000000D+00 0.000000000000000D+00 0.000000000000000D+00
 0.619299291765936D+03 0.000000000000000D+00 0.000000000000000D+00 0.619299291765936D+03
 0.613401611666430D+03 0.000000000000000D+00 0.000000000000000D+00 -.613401611666430D+03
 0.392248131052429D+03 -.152668490702268D+03 0.218186755199225D+03 -.273185315806776D+03
 0.516796848801753D+03 0.202536196139655D+03 -.387521315857683D+03 0.275472869699778D+03
 0.498639174536761D+02 -.710864980598947D+01 -.453168485643210D+02 0.195514858248990D+02
 0.194040935723451D+03 0.219803891536988D+02 0.168453412637691D+03 -.218390397179011D+02
 0.797510704010574D+02 -.647394447850960D+02 0.461979965850880D+02 0.589768009950593D+01
0.465779325785D-04 0.000000000000D+00 0.000000000000D+00 0.109130539859D-05 0.000000000000D+00  7 2 -2 23 -13 13 23 21 0 0.63886948D-01 0.12253226D+00 0.22861167D+06 0.22861167D+06 0.22861167D+06 0.10933932D+01  1  2  2  2  7  2       -2 0.219346297780D-03 0.100000000000D+01
-.248038259160D-05 0.000000000000D+00 -.178871525353D-06 0.109130539859D-05 0.000000000000D+00  7 2 -2 23 -13 13 23 21 2 0.63886948D-01 0.12253226D+00 0.22861167D+06 0.22861167D+06 0.22861167D+06 0.10933932D+01  1  2  3  2  7  2       -2 -.139643761854D-04 0.100000000000D+01
0.285110947931D-05 0.000000000000D+00 0.000000000000D+00 0.109130539859D-05 0.000000000000D+00  7 2 -2 23 -13 13 23 21 2 0.63886948D-01 0.12253226D+00 0.22861167D+06 0.22861167D+06 0.22861167D+06 0.10933932D+01  1  2 15  2  7  2       -2 0.160515419878D-04 0.100000000000D+01
0.569757101303D-04 0.000000000000D+00 0.000000000000D+00 0.109130539859D-05 0.000000000000D+00  7 2 -2 23 -13 13 23 21 2 0.63886948D-01 0.13507794D+00 0.26881327D+06 0.26881327D+06 0.26881327D+06 0.10880965D+01  1  2 12  2  7  2       -2 0.244882058204D-03 0.100000000000D+01
-.423039167716D-04 0.000000000000D+00 0.000000000000D+00 0.109130539859D-05 0.000000000000D+00  7 2 -2 23 -13 13 23 21 2 0.63886948D-01 0.12253226D+00 0.22861167D+06 0.22861167D+06 0.22861167D+06 0.10933932D+01  1  2  4  2  7  2       -2 -.238168018884D-03 0.100000000000D+01
0.905181874634D-06 0.000000000000D+00 0.000000000000D+00 0.109130539859D-05 0.000000000000D+00  7 2 21 23 -13 13 23 2 2 0.63886948D-01 0.13507794D+00 0.26881327D+06 0.26881327D+06 0.26881327D+06 0.10880965D+01  1  2 12  4  7  2       -2 0.340005382791D-04 0.100000000000D+01
  </mgrwgt>
  </event>
  <event>
  8     66 0.55102590E-06 0.15324116E+03 0.75467711E-02 0.10125076E+00
        2 -1    0    0  501    0 0.00000000E+00 0.00000000E+00 0.77720562E+03 0.77720568E+03 0.32000000E+00 0.0000E+00 0.9000E+01
       -2 -1    0    0    0  501 0.00000000E+00 0.00000000E+00 -.12620721E+03 0.12620761E+03 0.32000000E+00 0.0000E+00 0.9000E+01
       25  2    1    2    0    0 -.35848922E+02 0.59244327E+02 0.71031548E+03 0.77468919E+03 0.30133075E+03 0.0000E+00 0.0000E+00
       23  2    1    2    0    0 0.35848922E+02 -.59244327E+02 -.59317074E+02 0.12872410E+03 0.90864426E+02 0.0000E+00 0.0000E+00
       23  1    3    3    0    0 -.41055857E+02 0.52968550E+02 0.66116147E+03 0.67077641E+03 0.91188000E+02 0.0000E+00 0.9000E+01
      -13  1    4    4    0    0 -.18767854E+02 -.39422584E+02 -.55333291E+02 0.70485152E+02 0.10565837E+00 0.0000E+00 0.9000E+01
       13  1    4    4    0    0 0.54616775E+02 -.19821743E+02 -.39837825E+01 0.58238950E+02 0.10565837E+00 0.0000E+00 0.9000E+01
       23  1    3    3    0    0 0.52069359E+01 0.62757766E+01 0.49154009E+02 0.10391278E+03 0.91188000E+02 0.0000E+00 0.9000E+01
#aMCatNLO 1  0  0  1  1 0.20772326D+03 0.00000000D+00  -5  7  0 0.00000000D+00 0.00000000D+00 0.00000000D+00 0.00000000D+00 0.00000000D+00
  <mgrwgt>
 0.1723148403D-03    7    2    0
 0.313191894416350D+03 0.000000000000000D+00 0.000000000000000D+00 0.313191894416350D+03
 0.313191894416350D+03 0.000000000000000D+00 0.000000000000000D+00 -.313191894416350D+03
 0.280296622577377D+03 -.410558572434131D+02 0.529685502351231D+02 0.256436531243663D+03
 0.159166267506709D+03 -.187679521958457D+02 -.394226106318234D+02 -.153060518924259D+03
 0.881364097485016D+02 0.546168742671380D+02 -.198217168848764D+02 -.662730964146025D+02
 0.987844890001126D+02 0.520693517212086D+01 0.627577728157669D+01 -.371029159048010D+02
 0.000000000000000D+00 -.000000000000000D+00 0.000000000000000D+00 0.000000000000000D+00
 0.456735535534581D+03 0.000000000000000D+00 0.000000000000000D+00 0.456735535534581D+03
 0.415056364985501D+03 0.000000000000000D+00 0.000000000000000D+00 -.415056364985501D+03
 0.277725689835677D+03 -.409495258171173D+02 -.371449758348838D+02 0.256436531243663D+03
 0.180756180400604D+03 -.187031798060829D+02 -.943157747399325D+02 -.153060518924259D+03
 0.994510781771408D+02 0.546526191552951D+02 -.501147170168888D+02 -.662730964146025D+02
 0.101995536114096D+03 0.524519390473279D+01 -.261476502857304D+02 -.371029159048010D+02
 0.211863415992563D+03 -.245107436827615D+00 0.207723117877436D+03 0.416791705490796D+02
0.216080683155D-05 0.000000000000D+00 0.000000000000D+00 0.843273829644D-07 0.000000000000D+00  7 2 -2 23 -13 13 23 21 0 0.11957013D+00 0.19416530D-01 0.23482854D+05 0.23482854D+05 0.23482854D+05 0.11773357D+01  1  2  2  1  7  1        2 0.202386942601D-03 0.100000000000D+01
-.454690296717D-07 0.000000000000D+00 -.829806718667D-08 0.843273829644D-07 0.000000000000D+00  7 2 -2 23 -13 13 23 21 2 0.11957013D+00 0.19416530D-01 0.23482854D+05 0.23482854D+05 0.23482854D+05 0.11773357D+01  1  2  3  1  7  1        2 -.590313676005D-05 0.100000000000D+01
0.130084968617D-06 0.000000000000D+00 0.000000000000D+00 0.843273829644D-07 0.000000000000D+00  7 2 -2 23 -13 13 23 21 2 0.11957013D+00 0.19416530D-01 0.23482854D+05 0.23482854D+05 0.23482854D+05 0.11773357D+01  1  2 15  1  7  1        2 0.168886243168D-04 0.100000000000D+01
-.759524930189D-06 0.000000000000D+00 0.000000000000D+00 0.843273829644D-07 0.000000000000D+00  7 2 -2 23 -13 13 23 21 2 0.11957013D+00 0.19416530D-01 0.23482854D+05 0.23482854D+05 0.23482854D+05 0.11773357D+01  1  2  4  1  7  1        2 -.986073282834D-04 0.100000000000D+01
-.125853317619D-07 0.000000000000D+00 -.707234408691D-06 0.843273829644D-07 0.000000000000D+00  7 2 -2 23 -13 13 23 21 2 0.21094149D+00 0.19416530D-01 0.23482854D+05 0.23482854D+05 0.23482854D+05 0.11773357D+01  1  2  5  1  7  1        2 -.736330329479D-06 0.100000000000D+01
0.441435819895D-06 0.000000000000D+00 0.606806253209D-06 0.843273829644D-07 0.000000000000D+00  7 2 -2 23 -13 13 23 21 2 0.11957013D+00 0.19416530D-01 0.23482854D+05 0.23482854D+05 0.23482854D+05 0.11773357D+01  1  2  6  1  7  1        2 0.573105701713D-04 0.100000000000D+01
0.356242498130D-07 0.000000000000D+00 -.442487711450D-07 0.843273829644D-07 0.000000000000D+00  7 21 -2 23 -13 13 23 -2 2 0.21094149D+00 0.19416530D-01 0.23482854D+05 0.23482854D+05 0.23482854D+05 0.11773357D+01  1  2  5  3  7  1        2 0.975498575876D-06 0.100000000000D+01
  </mgrwgt>
  </event>
  <event>
  7     66 0.55102590E-06 0.28379354E+03 0.75467711E-02 0.85189685E-01
        4 -1    0    0  501    0 0.00000000E+00 0.00000000E+00 0.69589013E+03 0.69589186E+03 0.15500000E+01 0.0000E+00 0.9000E+01
       -4 -1    0    0    0  501 0.00000000E+00 0.00000000E+00 -.14506691E+03 0.14507519E+03 0.15500000E+01 0.0000E+00 0.9000E+01
       23  2    1    2    0    0 -.40845044E+02 0.19848480E+03 0.11755160E+03 0.25294535E+03 0.95385742E+02 0.0000E+00 0.0000E+00
       23  1    1    2    0    0 0.12630020E+03 -.11170195E+03 0.88420939E+02 0.21109851E+03 0.91188000E+02 0.0000E+00 0.9000E+01
      -11  1    3    3    0    0 -.66700558E+02 0.18001771E+03 0.10469440E+03 0.21866929E+03 0.51099893E-03 0.0000E+00 0.9000E+01
       11  1    3    3    0    0 0.25855514E+02 0.18467090E+02 0.12857199E+02 0.34276065E+02 0.51099893E-03 0.0000E+00 0.9000E+01
       23  1    1    2    0    0 -.85455160E+02 -.86782844E+02 0.34485068E+03 0.37692318E+03 0.91188000E+02 0.0000E+00 0.9000E+01
#aMCatNLO 1  0  0  1  1 0.11985482D+04 0.00000000D+00  -5  7  0 0.00000000D+00 0.00000000D+00 0.00000000D+00 0.00000000D+00 0.00000000D+00
  <mgrwgt>
 0.1552496770D-04    3    2    0
 0.317733914394873D+03 0.000000000000000D+00 0.000000000000000D+00 0.317733914394873D+03
 0.317733914394873D+03 0.000000000000000D+00 0.000000000000000D+00 -.317733914394873D+03
 0.202720855642644D+03 0.126300193367369D+03 -.111701960367327D+03 -.659653482818606D+02
 0.198634079668727D+03 -.667005609512901D+02 0.180017721383117D+03 -.509916930750086D+02
 0.342157336628529D+02 0.258555138094297D+02 0.184670926018464D+02 -.126954844953827D+02
 0.199897159815521D+03 -.854551462255088D+02 -.867828536176367D+02 0.129652525852252D+03
 0.000000000000000D+00 0.000000000000000D+00 0.000000000000000D+00 -.000000000000000D+00
 0.846521104372209D+03 0.000000000000000D+00 0.000000000000000D+00 0.846521104372209D+03
 0.281309908371966D+04 0.000000000000000D+00 0.000000000000000D+00 -.281309908371966D+04
 0.262751480883158D+03 -.142648411979033D+03 -.189797504588984D+03 -.659653482818606D+02
 0.450175402257856D+03 -.441580852661178D+03 0.711624240620925D+02 -.509916930750086D+02
 0.164993277661870D+02 -.344750587848960D+01 0.995827261031487D+01 -.126954844953827D+02
 0.627164066681021D+03 -.563328794018538D+03 -.225544690830058D+03 0.129652525852252D+03
 0.230302991050365D+04 0.115100556453724D+04 0.334221498746635D+03 -.196657797934745D+04
0.563368513352D-05 0.000000000000D+00 0.000000000000D+00 0.171815459465D-10 0.000000000000D+00  7 4 -4 23 -11 11 23 21 0 0.10706079D+00 0.22318756D-01 0.80538775D+05 0.80538775D+05 0.80538775D+05 0.11295180D+01  1  2  2  1  7  1        4 0.153415359833D-04 0.100000000000D+01
-.308126192064D-06 0.000000000000D+00 -.216348342961D-07 0.171815459465D-10 0.000000000000D+00  7 4 -4 23 -11 11 23 21 2 0.10706079D+00 0.22318756D-01 0.80538775D+05 0.80538775D+05 0.80538775D+05 0.11295180D+01  1  2  3  1  7  1        4 -.107051118542D-05 0.100000000000D+01
0.360923508540D-06 0.000000000000D+00 0.000000000000D+00 0.171815459465D-10 0.000000000000D+00  7 4 -4 23 -11 11 23 21 2 0.10706079D+00 0.22318756D-01 0.80538775D+05 0.80538775D+05 0.80538775D+05 0.11295180D+01  1  2 15  1  7  1        4 0.125394290691D-05 0.100000000000D+01
  </mgrwgt>
  </event>
  <event>
  8     66 0.55102590E-06 0.29954134E+03 0.75467711E-02 0.99588906E-01
        2 -1    0    0  501    0 0.00000000E+00 0.00000000E+00 0.49948408E+03 0.49948418E+03 0.32000000E+00 0.0000E+00 0.9000E+01
       -2 -1    0    0    0  501 0.00000000E+00 0.00000000E+00 -.22709569E+03 0.22709591E+03 0.32000000E+00 0.0000E+00 0.9000E+01
       25  2    1    2    0    0 -.14536434E+03 0.19497774E+03 0.62193667E+02 0.39156744E+03 0.30051605E+03 0.0000E+00 0.0000E+00
       23  2    1    2    0    0 0.14536434E+03 -.19497774E+03 0.21019472E+03 0.33501266E+03 0.94363909E+02 0.0000E+00 0.0000E+00
       23  1    3    3    0    0 -.36523119E+02 0.38427050E+00 -.66336483E+02 0.11853213E+03 0.91188000E+02 0.0000E+00 0.9000E+01
      -13  1    4    4    0    0 0.26711483E+02 0.52448358E+01 0.31177770E+02 0.41389324E+02 0.10565837E+00 0.0000E+00 0.9000E+01
       13  1    4    4    0    0 0.11865286E+03 -.20022258E+03 0.17901695E+03 0.29362333E+03 0.10565837E+00 0.0000E+00 0.9000E+01
       23  1    3    3    0    0 -.10884122E+03 0.19459347E+03 0.12853015E+03 0.27303531E+03 0.91188000E+02 0.0000E+00 0.9000E+01
#aMCatNLO 1  0  0  2  1 0.58097081D+02 0.00000000D+00  -5  7  0 0.00000000D+00 0.00000000D+00 0.00000000D+00 0.00000000D+00 0.00000000D+00
  <mgrwgt>
 0.1713813748D-03    4    2    0
 0.336794893903277D+03 0.000000000000000D+00 0.000000000000000D+00 0.336794893903277D+03
 0.336794893903277D+03 0.000000000000000D+00 0.000000000000000D+00 -.336794893903277D+03
 0.154682238083999D+03 -.365231201986935D+02 0.384271569087090D+00 -.119487478260226D+03
 0.320373253504541D+02 0.267113659830474D+02 0.524508800527328D+01 0.168932588551613D+02
 0.244331062841209D+03 0.118652975060859D+03 -.200222831022770D+03 0.743636854623878D+02
 0.242539161530892D+03 -.108841220845213D+03 0.194593471448410D+03 0.282305339426771D+02
 0.000000000000000D+00 -.000000000000000D+00 0.000000000000000D+00 0.000000000000000D+00
 0.385958380628004D+03 0.000000000000000D+00 0.000000000000000D+00 0.385958380628004D+03
 0.355656713253847D+03 0.000000000000000D+00 0.000000000000000D+00 -.355656713253847D+03
 0.153628569572472D+03 -.297849689723574D+02 -.110491722410075D+02 -.119487478260226D+03
 0.329362512143881D+02 0.281313674028408D+02 0.283559823603129D+01 0.168932588551613D+02
 0.265311891162011D+03 0.129791252442743D+03 -.219122506068541D+03 0.743636854623878D+02
 0.224213868554316D+03 -.986403053276196D+02 0.177284332715210D+03 0.282305339426771D+02
 0.655245133786643D+02 -.294973455456069D+02 0.500517473583067D+02 0.303016673741572D+02
0.553227847472D-05 0.000000000000D+00 0.000000000000D+00 0.437299045032D-07 0.000000000000D+00  7 2 -2 23 -13 13 23 21 0 0.76843730D-01 0.34937824D-01 0.89725015D+05 0.89725015D+05 0.89725015D+05 0.11256066D+01  1  2  2  2  7  2       -2 0.315516712991D-03 0.100000000000D+01
-.302213940403D-06 0.000000000000D+00 -.212454060253D-07 0.437299045032D-07 0.000000000000D+00  7 2 -2 23 -13 13 23 21 2 0.76843730D-01 0.34937824D-01 0.89725015D+05 0.89725015D+05 0.89725015D+05 0.11256066D+01  1  2  3  2  7  2       -2 -.218376608660D-04 0.100000000000D+01
0.355871532144D-06 0.000000000000D+00 0.000000000000D+00 0.437299045032D-07 0.000000000000D+00  7 2 -2 23 -13 13 23 21 2 0.76843730D-01 0.34937824D-01 0.89725015D+05 0.89725015D+05 0.89725015D+05 0.11256066D+01  1  2 15  2  7  2       -2 0.257149019018D-04 0.100000000000D+01
-.204836337864D-05 0.000000000000D+00 0.000000000000D+00 0.437299045032D-07 0.000000000000D+00  7 2 -2 23 -13 13 23 21 2 0.76843730D-01 0.34937824D-01 0.89725015D+05 0.89725015D+05 0.89725015D+05 0.11256066D+01  1  2  4  2  7  2       -2 -.148012579213D-03 0.100000000000D+01
  </mgrwgt>
  </event>
  <event>
  8     66 0.55102590E-06 0.35641138E+03 0.75467711E-02 0.85746676E-01
        2 -1    0    0  501    0 0.00000000E+00 0.00000000E+00 0.83596397E+03 0.83596403E+03 0.32000000E+00 0.0000E+00 0.9000E+01
       -2 -1    0    0    0  501 0.00000000E+00 0.00000000E+00 -.28677163E+03 0.28677181E+03 0.32000000E+00 0.0000E+00 0.9000E+01
       25  2    1    2    0    0 -.10772515E+03 0.30550748E+03 0.63728427E+03 0.77564718E+03 0.30092820E+03 0.0000E+00 0.0000E+00
       23  2    1    2    0    0 0.10772515E+03 -.30550748E+03 -.88091937E+02 0.34708865E+03 0.88152235E+02 0.0000E+00 0.0000E+00
       23  1    3    3    0    0 -.71782602E+02 0.90393162E+02 0.73779590E+02 0.16456714E+03 0.91188000E+02 0.0000E+00 0.9000E+01
      -13  1    4    4    0    0 0.83828361E+02 -.28731690E+03 -.98834057E+02 0.31519260E+03 0.10565837E+00 0.0000E+00 0.9000E+01
       13  1    4    4    0    0 0.23896791E+02 -.18190580E+02 0.10742121E+02 0.31896052E+02 0.10565837E+00 0.0000E+00 0.9000E+01
       23  1    3    3    0    0 -.35942551E+02 0.21511432E+03 0.56350468E+03 0.61108004E+03 0.91188000E+02 0.0000E+00 0.9000E+01
#aMCatNLO 1  0  0  2  1 0.10762960D+04 0.00000000D+00  -5  7  0 0.00000000D+00 0.00000000D+00 0.00000000D+00 0.00000000D+00 0.00000000D+00
  <mgrwgt>
 0.3352753009D-03    5    2    0
 0.489623206569806D+03 0.000000000000000D+00 0.000000000000000D+00 0.489623206569806D+03
 0.489623206569806D+03 0.000000000000000D+00 0.000000000000000D+00 -.489623206569806D+03
 0.147303316720705D+03 -.717826016250756D+02 0.903931616521771D+02 -.770390831846993D+01
 0.416807734772201D+03 0.838284474724784D+02 -.287317284806880D+03 -.290086637078459D+03
 0.305447196155804D+02 0.238967047298252D+02 -.181901937082936D+02 -.557173691991348D+01
 0.384590642031126D+03 -.359425505772280D+02 0.215114316862997D+03 0.303362282316842D+03
 0.000000000000000D+00 -.000000000000000D+00 -.000000000000000D+00 -.000000000000000D+00
 0.116883270895637D+04 0.000000000000000D+00 0.000000000000000D+00 0.116883270895637D+04
 0.138383480271594D+04 0.000000000000000D+00 0.000000000000000D+00 -.138383480271594D+04
 0.155359818382022D+03 0.605956262659157D+02 0.109955635134162D+03 -.770390831846993D+01
 0.664334703452164D+03 0.556696476217739D+03 -.217438208616006D+03 -.290086637078459D+03
 0.684478816188748D+02 0.671939008726225D+02 -.117918586883896D+02 -.557173691991348D+01
 0.566964661706066D+03 0.380246903107806D+03 0.276617596374334D+03 0.303362282316842D+03
 0.109756044651318D+04 -.106473290646408D+04 -.157343164204100D+03 -.215002093759574D+03
0.159072346850D-04 0.000000000000D+00 0.000000000000D+00 0.922782124605D-07 0.000000000000D+00  7 2 -2 23 -13 13 23 21 0 0.12860986D+00 0.44118731D-01 0.12702907D+06 0.12702907D+06 0.12702907D+06 0.11132940D+01  1  2  2  2  7  2       -2 0.318280811844D-03 0.100000000000D+01
-.775385164363D-06 0.000000000000D+00 -.610879696614D-07 0.922782124605D-07 0.000000000000D+00  7 2 -2 23 -13 13 23 21 2 0.12860986D+00 0.44118731D-01 0.12702907D+06 0.12702907D+06 0.12702907D+06 0.11132940D+01  1  2  3  2  7  2       -2 -.192288365965D-04 0.100000000000D+01
0.980471126624D-06 0.000000000000D+00 0.000000000000D+00 0.922782124605D-07 0.000000000000D+00  7 2 -2 23 -13 13 23 21 2 0.12860986D+00 0.44118731D-01 0.12702907D+06 0.12702907D+06 0.12702907D+06 0.11132940D+01  1  2 15  2  7  2       -2 0.243147792194D-04 0.100000000000D+01
0.159336595937D-04 0.000000000000D+00 -.717679429976D-05 0.922782124605D-07 0.000000000000D+00  7 2 -2 23 -13 13 23 21 2 0.12860986D+00 0.25230516D+00 0.12702907D+06 0.12702907D+06 0.12702907D+06 0.11132940D+01  1  2  5  2  7  2       -2 0.485302400228D-05 0.100000000000D+01
0.301253025317D-05 0.000000000000D+00 -.153298890313D-05 0.922782124605D-07 0.000000000000D+00  7 2 21 23 -13 13 23 2 2 0.12860986D+00 0.25230516D+00 0.12702907D+06 0.12702907D+06 0.12702907D+06 0.11132940D+01  1  2  5  4  7  2       -2 0.705552242266D-05 0.100000000000D+01
  </mgrwgt>
  </event>
  <event>
  9     66 0.55102590E-06 0.23302998E+03 0.75467711E-02 0.97200161E-01
        2 -1    0    0  501    0 0.00000000E+00 0.00000000E+00 0.21132665E+04 0.21132665E+04 0.32000000E+00 0.0000E+00 0.9000E+01
       -2 -1    0    0    0  502 0.00000000E+00 0.00000000E+00 -.17841332E+03 0.17841361E+03 0.32000000E+00 0.0000E+00 0.9000E+01
       25  2    1    2    0    0 0.18573724E+03 -.25082824E+03 0.39345374E+03 0.58527370E+03 0.30054339E+03 0.0000E+00 0.0000E+00
       23  2    1    2    0    0 -.19549567E+02 -.33045329E+02 0.12863236E+04 0.12901532E+04 0.91610879E+02 0.0000E+00 0.0000E+00
       23  1    3    3    0    0 -.23451798E+01 -.19673304E+03 0.21160824E+03 0.30298958E+03 0.91188000E+02 0.0000E+00 0.9000E+01
      -11  1    4    4    0    0 -.13109690E+02 -.30454464E+02 0.14242335E+03 0.14623183E+03 0.51099893E-03 0.0000E+00 0.9000E+01
       11  1    4    4    0    0 -.64398773E+01 -.25908646E+01 0.11439003E+04 0.11439214E+04 0.51099893E-03 0.0000E+00 0.9000E+01
       23  1    3    3    0    0 0.18808242E+03 -.54095203E+02 0.18184550E+03 0.28228412E+03 0.91188000E+02 0.0000E+00 0.9000E+01
       21  1    1    2  501  502 -.16618767E+03 0.28387357E+03 0.25507581E+03 0.41625326E+03 0.75000000E+00 0.0000E+00 0.9000E+01
#aMCatNLO 2  0  0  2  2 0.32894155D+03 0.00000000D+00  -5  7  0 0.00000000D+00 0.00000000D+00 0.00000000D+00 0.00000000D+00 0.00000000D+00
  <mgrwgt>
 0.2809246283D-04    1    2    0
 0.383200798101235D+03 0.000000000000000D+00 0.000000000000000D+00 0.383200798101235D+03
 0.383200798101235D+03 0.000000000000000D+00 0.000000000000000D+00 -.383200798101235D+03
 0.205274236536545D+03 -.501536642510457D+02 -.115068945054758D+03 -.134409853388210D+03
 0.372403191644044D+02 -.213354488276588D+02 -.164036286168752D+02 0.257402595750061D+02
 0.292506925197067D+03 -.646840702963347D+02 0.968989882338285D+02 0.268303668289127D+03
 0.231380115304453D+03 0.136173183375039D+03 0.345735854378042D+02 -.159634074475923D+03
 0.000000000000000D+00 -.000000000000000D+00 0.000000000000000D+00 -.000000000000000D+00
 0.495748186771126D+03 0.000000000000000D+00 0.000000000000000D+00 0.495748186771126D+03
 0.760536903211918D+03 0.000000000000000D+00 0.000000000000000D+00 -.760536903211918D+03
 0.255128687964965D+03 -.234517979659866D+01 -.196733036174928D+03 -.134409853388210D+03
 0.419749843350111D+02 -.131096895972921D+02 -.304544641325107D+02 0.257402595750061D+02
 0.268393448162711D+03 -.643987732275901D+01 -.259086459233578D+01 0.268303668289127D+03
 0.268513641238433D+03 0.188082416824049D+03 -.540952025133653D+02 -.159634074475923D+03
 0.422274328281925D+03 -.166187670107399D+03 0.283873567413140D+03 -.264788716440792D+03
0.257092735436D-05 0.000000000000D+00 0.000000000000D+00 0.756412281638D-06 0.509675703331D-10  7 2 -2 23 -11 11 23 21 2 0.32511775D+00 0.27448210D-01 0.16072066D+06 0.16072066D+06 0.16072066D+06 0.11051938D+01  1  2  1  2  7  2       -2 0.280924628261D-04 0.100000000000D+01
  </mgrwgt>
  </event>
  <event>
  8     66 0.55102590E-06 0.25191165E+03 0.75467711E-02 0.96400701E-01
        4 -1    0    0  501    0 0.00000000E+00 0.00000000E+00 0.12513585E+03 0.12514545E+03 0.15500000E+01 0.0000E+00 0.9000E+01
       -4 -1    0    0    0  501 0.00000000E+00 0.00000000E+00 -.67878377E+03 0.67878554E+03 0.15500000E+01 0.0000E+00 0.9000E+01
       25  2    1    2    0    0 -.68986524E+02 0.15120655E+03 -.18270839E+03 0.38751966E+03 0.29860772E+03 0.0000E+00 0.0000E+00
       23  2    1    2    0    0 0.68986524E+02 -.15120655E+03 -.37093953E+03 0.41641133E+03 0.90441688E+02 0.0000E+00 0.0000E+00
       23  1    3    3    0    0 -.14721189E+03 0.49970374E+02 -.66523647E+02 0.19211722E+03 0.91188000E+02 0.0000E+00 0.9000E+01
      -13  1    4    4    0    0 0.14329439E+02 -.41695959E+02 -.20801417E+03 0.21263535E+03 0.10565837E+00 0.0000E+00 0.9000E+01
       13  1    4    4    0    0 0.54657085E+02 -.10951059E+03 -.16292537E+03 0.20377598E+03 0.10565837E+00 0.0000E+00 0.9000E+01
       23  1    3    3    0    0 0.78225362E+02 0.10123617E+03 -.11618474E+03 0.19540245E+03 0.91188000E+02 0.0000E+00 0.9000E+01
#aMCatNLO 1  0  0  1  2 0.30167983D+03 0.00000000D+00  -5  7  0 0.00000000D+00 0.00000000D+00 0.00000000D+00 0.00000000D+00 0.00000000D+00
  <mgrwgt>
 0.2465062649D-04    5    2    0
 0.291452832430157D+03 0.000000000000000D+00 0.000000000000000D+00 0.291452832430157D+03
 0.291452832430157D+03 0.000000000000000D+00 0.000000000000000D+00 -.291452832430157D+03
 0.201779311628918D+03 -.147211884564871D+03 0.499703745038912D+02 0.907263025381268D+02
 0.956887400208124D+02 0.143293838533423D+02 -.416958668787996D+02 -.849261939002310D+02
 0.126295843356200D+03 0.546571400543643D+02 -.109510679439194D+03 -.311552271520766D+02
 0.159141769854385D+03 0.782253606571648D+02 0.101236171814102D+03 0.253551185141808D+02
 0.000000000000000D+00 0.000000000000000D+00 -.000000000000000D+00 0.000000000000000D+00
 0.538272495096590D+03 0.000000000000000D+00 0.000000000000000D+00 0.538272495096590D+03
 0.436467592526518D+03 0.000000000000000D+00 0.000000000000000D+00 -.436467592526518D+03
 0.286603153044075D+03 -.204554103230532D+03 0.154118372915491D+03 0.907263025381268D+02
 0.852640392955533D+02 -.691673899151797D+01 -.310752447089968D+01 -.849261939002310D+02
 0.789156472266486D+02 0.305627406504322D+02 -.657491451065166D+02 -.311552271520766D+02
 0.205562903573607D+03 0.354044638297183D+02 0.179009770369313D+03 0.253551185141808D+02
 0.318394344483225D+03 0.145503637741899D+03 -.264271473707388D+03 0.101804902570071D+03
0.583288856763D-05 0.000000000000D+00 0.000000000000D+00 0.447255424951D-07 0.000000000000D+00  7 4 -4 23 -13 13 23 21 0 0.19252544D-01 0.10442915D+00 0.63459477D+05 0.63459477D+05 0.63459477D+05 0.11382991D+01  1  2  2  1  7  1        4 0.222299946784D-04 0.100000000000D+01
-.315673949409D-06 0.000000000000D+00 -.223998279345D-07 0.447255424951D-07 0.000000000000D+00  7 4 -4 23 -13 13 23 21 2 0.19252544D-01 0.10442915D+00 0.63459477D+05 0.63459477D+05 0.63459477D+05 0.11382991D+01  1  2  3  1  7  1        4 -.155886025670D-05 0.100000000000D+01
0.367581033003D-06 0.000000000000D+00 0.000000000000D+00 0.447255424951D-07 0.000000000000D+00  7 4 -4 23 -13 13 23 21 2 0.19252544D-01 0.10442915D+00 0.63459477D+05 0.63459477D+05 0.63459477D+05 0.11382991D+01  1  2 15  1  7  1        4 0.181518767874D-05 0.100000000000D+01
0.234061410844D-06 0.000000000000D+00 -.192792091486D-05 0.447255424951D-07 0.000000000000D+00  7 4 -4 23 -13 13 23 21 2 0.52110852D-01 0.10442915D+00 0.63459477D+05 0.63459477D+05 0.63459477D+05 0.11382991D+01  1  2  5  1  7  1        4 0.155702650922D-06 0.100000000000D+01
0.137949158612D-06 0.000000000000D+00 -.214229732309D-06 0.447255424951D-07 0.000000000000D+00  7 21 -4 23 -13 13 23 -4 2 0.52110852D-01 0.10442915D+00 0.63459477D+05 0.63459477D+05 0.63459477D+05 0.11382991D+01  1  2  5  3  7  1        4 0.200860174009D-05 0.100000000000D+01
  </mgrwgt>
  </event>
  <event>
  9     66 -.55102590E-06 0.20006790E+03 0.75467711E-02 0.10486182E+00
        2 -1    0    0  501    0 0.00000000E+00 0.00000000E+00 0.67827100E+03 0.67827107E+03 0.32000000E+00 0.0000E+00 0.9000E+01
       -2 -1    0    0    0  502 0.00000000E+00 0.00000000E+00 -.15748656E+03 0.15748688E+03 0.32000000E+00 0.0000E+00 0.9000E+01
       25  2    1    2    0    0 0.12070922E+03 -.29916412E+02 0.52711085E+02 0.32904520E+03 0.30004429E+03 0.0000E+00 0.0000E+00
       23  2    1    2    0    0 -.94531193E+02 -.64133881E+01 0.42499221E+03 0.44457025E+03 0.89705365E+02 0.0000E+00 0.0000E+00
       23  1    3    3    0    0 -.53484237E+02 -.11411019E+02 0.75268511E+02 0.13027423E+03 0.91188000E+02 0.0000E+00 0.9000E+01
      -13  1    4    4    0    0 -.17968299E+02 -.36576332E+01 0.70203828E+01 0.19635045E+02 0.10565837E+00 0.0000E+00 0.9000E+01
       13  1    4    4    0    0 -.76562894E+02 -.27557549E+01 0.41797183E+03 0.42493521E+03 0.10565837E+00 0.0000E+00 0.9000E+01
       23  1    3    3    0    0 0.17419346E+03 -.18505393E+02 -.22557426E+02 0.19877097E+03 0.91188000E+02 0.0000E+00 0.9000E+01
       21  1    1    2  501  502 -.26178026E+02 0.36329800E+02 0.43081145E+02 0.62142505E+02 0.75000000E+00 0.0000E+00 0.9000E+01
#aMCatNLO 2  0  0  2  1 0.44778828D+02 0.00000000D+00  -5  7  0 0.00000000D+00 0.00000000D+00 0.00000000D+00 0.00000000D+00 0.00000000D+00
  <mgrwgt>
 -.9202164137D-04    2    2    0
 0.303428445027616D+03 0.000000000000000D+00 0.000000000000000D+00 0.303428445027616D+03
 0.303428445027616D+03 0.000000000000000D+00 0.000000000000000D+00 -.303428445027616D+03
 0.108446808815163D+03 -.581147444434389D+02 -.498481096857427D+01 -.657929601658272D+01
 0.200601539924570D+02 -.188192614469208D+02 -.247655779064295D+01 -.648936347442002D+01
 0.215823927365336D+03 -.857803432850288D+02 0.100360870507052D+02 0.197790235567914D+03
 0.262525999882276D+03 0.162714349175389D+03 -.257471829148803D+01 -.184721576076911D+03
 0.000000000000000D+00 -.000000000000000D+00 0.000000000000000D+00 0.000000000000000D+00
 0.329834942825973D+03 0.000000000000000D+00 0.000000000000000D+00 0.329834942825973D+03
 0.323848936464536D+03 0.000000000000000D+00 0.000000000000000D+00 -.323848936464536D+03
 0.106533156170438D+03 -.534842362971605D+02 -.114110188533068D+02 -.657929601658272D+01
 0.194511431620298D+02 -.179682175677568D+02 -.365763440551345D+01 -.648936347442002D+01
 0.212109548703169D+03 -.765629752985136D+02 -.275575370634674D+01 0.197790235567914D+03
 0.270412872095735D+03 0.174193455092667D+03 -.185053934193537D+02 -.184721576076911D+03
 0.451771591591377D+02 -.261780259292364D+02 0.363298003845207D+02 0.598600636143722D+01
-.295302874130D-05 0.000000000000D+00 0.000000000000D+00 0.398612569858D-06 0.000000000000D+00  7 2 -2 23 -13 13 23 21 2 0.95994313D-01 0.25144278D-01 0.49182988D+05 0.49182988D+05 0.49182988D+05 0.11479253D+01  1  2 13  2  7  2       -2 -.307419146723D-03 0.100000000000D+01
0.214126446877D-05 0.000000000000D+00 0.000000000000D+00 0.398612569858D-06 0.140178043745D-08  7 2 -2 23 -13 13 23 21 2 0.10434842D+00 0.24228501D-01 0.49182988D+05 0.49182988D+05 0.49182988D+05 0.11479253D+01  1  2  1  2  7  2       -2 0.215397505357D-03 0.100000000000D+01
  </mgrwgt>
  </event>
  <event>
  8     66 0.55102590E-06 0.20133779E+03 0.75467711E-02 0.99735387E-01
        2 -1    0    0  501    0 0.00000000E+00 0.00000000E+00 0.23121734E+04 0.23121734E+04 0.32000000E+00 0.0000E+00 0.9000E+01
       -2 -1    0    0    0  501 0.00000000E+00 0.00000000E+00 -.11989127E+03 0.11989170E+03 0.32000000E+00 0.0000E+00 0.9000E+01
       25  2    1    2    0    0 0.18713843E+03 0.14175081E+03 0.20430276E+03 0.42817914E+03 0.29408106E+03 0.0000E+00 0.0000E+00
       23  2    1    2    0    0 -.18713843E+03 -.14175081E+03 0.19879794E+04 0.20038860E+04 0.91558598E+02 0.0000E+00 0.0000E+00
       23  1    3    3    0    0 -.32678616E+02 -.40306871E+01 0.45755473E+02 0.10720519E+03 0.91188000E+02 0.0000E+00 0.9000E+01
      -11  1    4    4    0    0 -.31941906E+02 -.74597032E+02 0.75945346E+03 0.76377652E+03 0.51099893E-03 0.0000E+00 0.9000E+01
       11  1    4    4    0    0 -.15519652E+03 -.67153783E+02 0.12285259E+04 0.12401095E+04 0.51099893E-03 0.0000E+00 0.9000E+01
       23  1    3    3    0    0 0.21981704E+03 0.14578150E+03 0.15854729E+03 0.32097394E+03 0.91188000E+02 0.0000E+00 0.9000E+01
#aMCatNLO 1  0  0  1  2 0.24685751D+02 0.00000000D+00  -5  7  0 0.00000000D+00 0.00000000D+00 0.00000000D+00 0.00000000D+00 0.00000000D+00
  <mgrwgt>
 0.4475781075D-03    9    2    0
 0.526507316220189D+03 0.000000000000000D+00 0.000000000000000D+00 0.526507316220189D+03
 0.526507316220189D+03 0.000000000000000D+00 0.000000000000000D+00 -.526507316220189D+03
 0.152344608491258D+03 -.326786162774849D+02 -.403068708892602D+01 -.117513786391788D+03
 0.182920503394909D+03 -.319419062260380D+02 -.745970322511371D+02 0.163935682413002D+03
 0.306502478841327D+03 -.155196521735796D+03 -.671537825627011D+02 0.255632898243770D+03
 0.411247041712884D+03 0.219817044239319D+03 0.145781501902764D+03 -.302054794264984D+03
 0.000000000000000D+00 0.000000000000000D+00 -.000000000000000D+00 0.000000000000000D+00
 0.541080594908822D+03 0.000000000000000D+00 0.000000000000000D+00 0.541080594908822D+03
 0.537210609614137D+03 0.000000000000000D+00 0.000000000000000D+00 -.537210609614137D+03
 0.153059710600594D+03 -.359913418893622D+02 -.267525363389042D+01 -.117513786391788D+03
 0.183001566146425D+03 -.359110688604281D+02 -.729730112927334D+02 0.163935682413002D+03
 0.309357830179208D+03 -.161876768515205D+03 -.644204955255130D+02 0.255632898243770D+03
 0.407884838970222D+03 0.210931907419011D+03 0.149416940846344D+03 -.302054794264984D+03
 0.249872586265088D+02 0.228472718459844D+02 -.934818039420758D+01 0.386998529468525D+01
0.101082702335D-04 0.000000000000D+00 0.000000000000D+00 0.132935197897D-07 0.000000000000D+00  7 2 -2 23 -11 11 23 21 0 0.35571902D+00 0.18444845D-01 0.98057683D+05 0.98057683D+05 0.98057683D+05 0.11224217D+01  1  2  2  1  7  1        2 0.140262377282D-03 0.100000000000D+01
-.377221804401D-06 0.000000000000D+00 -.388184192653D-07 0.132935197897D-07 0.000000000000D+00  7 2 -2 23 -11 11 23 21 2 0.35571902D+00 0.18444845D-01 0.98057683D+05 0.98057683D+05 0.98057683D+05 0.11224217D+01  1  2  3  1  7  1        2 -.659436958914D-05 0.100000000000D+01
0.621431628904D-06 0.000000000000D+00 0.000000000000D+00 0.132935197897D-07 0.000000000000D+00  7 2 -2 23 -11 11 23 21 2 0.35571902D+00 0.18444845D-01 0.98057683D+05 0.98057683D+05 0.98057683D+05 0.11224217D+01  1  2 15  1  7  1        2 0.108635020234D-04 0.100000000000D+01
0.160166497745D-04 0.000000000000D+00 0.000000000000D+00 0.132935197897D-07 0.000000000000D+00  7 2 -2 23 -11 11 23 21 2 0.36909411D+00 0.18444845D-01 0.10641126D+06 0.10641126D+06 0.10641126D+06 0.11195141D+01  1  2 12  1  7  1        2 0.248252690324D-03 0.100000000000D+01
-.135858646654D-04 0.000000000000D+00 0.000000000000D+00 0.132935197897D-07 0.000000000000D+00  7 2 -2 23 -11 11 23 21 2 0.35571902D+00 0.18444845D-01 0.98057683D+05 0.98057683D+05 0.98057683D+05 0.11224217D+01  1  2  4  1  7  1        2 -.237500090787D-03 0.100000000000D+01
-.154712579877D-03 0.000000000000D+00 -.254074647342D-04 0.132935197897D-07 0.000000000000D+00  7 2 -2 23 -11 11 23 21 2 0.36878787D+00 0.18444845D-01 0.98057683D+05 0.98057683D+05 0.98057683D+05 0.11224217D+01  1  2  5  1  7  1        2 -.242523530399D-02 0.100000000000D+01
0.155544566722D-03 0.000000000000D+00 0.253909359865D-04 0.132935197897D-07 0.000000000000D+00  7 2 -2 23 -11 11 23 21 2 0.35571902D+00 0.18444845D-01 0.98057683D+05 0.98057683D+05 0.98057683D+05 0.11224217D+01  1  2  6  1  7  1        2 0.271913857731D-02 0.100000000000D+01
0.245913302773D-06 0.000000000000D+00 0.000000000000D+00 0.132935197897D-07 0.000000000000D+00  7 21 -2 23 -11 11 23 -2 2 0.36909411D+00 0.18444845D-01 0.10641126D+06 0.10641126D+06 0.10641126D+06 0.11195141D+01  1  2 12  3  7  1        2 0.525752964793D-06 0.100000000000D+01
-.980399380498D-06 0.000000000000D+00 -.162951021756D-06 0.132935197897D-07 0.000000000000D+00  7 21 -2 23 -11 11 23 -2 2 0.36878787D+00 0.18444845D-01 0.98057683D+05 0.98057683D+05 0.98057683D+05 0.11224217D+01  1  2  5  3  7  1        2 -.213502799816D-05 0.100000000000D+01
  </mgrwgt>
  </event>
  <event>
  8     66 0.55102590E-06 0.27561659E+03 0.75467711E-02 0.96458760E-01
        2 -1    0    0  501    0 0.00000000E+00 0.00000000E+00 0.18301264E+03 0.18301292E+03 0.32000000E+00 0.0000E+00 0.9000E+01
       -2 -1    0    0    0  501 0.00000000E+00 0.00000000E+00 -.70309105E+03 0.70309113E+03 0.32000000E+00 0.0000E+00 0.9000E+01
       25  2    1    2    0    0 -.77483702E+02 0.17444232E+03 -.35745584E+02 0.35728418E+03 0.29990064E+03 0.0000E+00 0.0000E+00
       23  2    1    2    0    0 0.77483702E+02 -.17444232E+03 -.48433283E+03 0.52881987E+03 0.92942551E+02 0.0000E+00 0.0000E+00
       23  1    3    3    0    0 0.57352149E+02 0.10051745E+02 0.37682085E+02 0.11456656E+03 0.91188000E+02 0.0000E+00 0.9000E+01
      -13  1    4    4    0    0 0.98571679E+02 -.14894348E+03 -.39315074E+03 0.43181947E+03 0.10565837E+00 0.0000E+00 0.9000E+01
       13  1    4    4    0    0 -.21087977E+02 -.25498837E+02 -.91182085E+02 0.97000398E+02 0.10565837E+00 0.0000E+00 0.9000E+01
       23  1    3    3    0    0 -.13483585E+03 0.16439057E+03 -.73427669E+02 0.24271761E+03 0.91188000E+02 0.0000E+00 0.9000E+01
#aMCatNLO 1  0  0  2  2 0.26603420D+03 0.00000000D+00  -5  7  0 0.00000000D+00 0.00000000D+00 0.00000000D+00 0.00000000D+00 0.00000000D+00
  <mgrwgt>
 0.3211175767D-03    3    2    0
 0.358712567995570D+03 0.000000000000000D+00 0.000000000000000D+00 0.358712567995570D+03
 0.358712567995570D+03 0.000000000000000D+00 0.000000000000000D+00 -.358712567995570D+03
 0.168819753699790D+03 0.573521484971226D+02 0.100517456093414D+02 0.129593793710296D+03
 0.248343605912359D+03 0.985718317760719D+02 -.148943639123451D+03 -.172551247293452D+03
 0.537065522493871D+02 -.210881298053318D+02 -.254986781585901D+02 -.423025052212545D+02
 0.246555224129603D+03 -.134835850467863D+03 0.164390571672700D+03 0.852599588044101D+02
 0.000000000000000D+00 -.000000000000000D+00 -.000000000000000D+00 0.000000000000000D+00
 0.112830558951010D+04 0.000000000000000D+00 0.000000000000000D+00 0.112830558951010D+04
 0.406307700033675D+03 0.000000000000000D+00 0.000000000000000D+00 -.406307700033675D+03
 0.186338883443553D+03 0.651021990108977D+02 0.733081199779980D+02 0.129593793710296D+03
 0.214492207325347D+03 0.108671546543050D+03 -.665091650279515D+02 -.172551247293452D+03
 0.469439902314879D+02 -.188917963732075D+02 -.757207373531393D+01 -.423025052212545D+02
 0.317387008299005D+03 -.122529854411208D+03 0.264832845197931D+03 0.852599588044101D+02
 0.769451200244379D+03 -.323520947695320D+02 -.264059726412664D+03 0.721997889476422D+03
0.192707078892D-04 0.000000000000D+00 0.000000000000D+00 0.310317891342D-06 0.000000000000D+00  7 2 -2 23 -13 13 23 21 0 0.28155818D-01 0.10816788D+00 0.75964503D+05 0.75964503D+05 0.75964503D+05 0.11316530D+01  1  2  2  2  7  2       -2 0.316058936718D-03 0.100000000000D+01
-.980208467940D-06 0.000000000000D+00 -.740045923885D-07 0.310317891342D-06 0.000000000000D+00  7 2 -2 23 -13 13 23 21 2 0.28155818D-01 0.10816788D+00 0.75964503D+05 0.75964503D+05 0.75964503D+05 0.11316530D+01  1  2  3  2  7  2       -2 -.205880594963D-04 0.100000000000D+01
0.122105300893D-05 0.000000000000D+00 0.000000000000D+00 0.310317891342D-06 0.000000000000D+00  7 2 -2 23 -13 13 23 21 2 0.28155818D-01 0.10816788D+00 0.75964503D+05 0.75964503D+05 0.75964503D+05 0.11316530D+01  1  2 15  2  7  2       -2 0.256466994708D-04 0.100000000000D+01
  </mgrwgt>
  </event>
  <event>
  7     66 0.55102590E-06 0.19231510E+03 0.75467711E-02 0.98706759E-01
        2 -1    0    0  501    0 0.00000000E+00 0.00000000E+00 0.37243667E+04 0.37243668E+04 0.32000000E+00 0.0000E+00 0.9000E+01
       -2 -1    0    0    0  501 0.00000000E+00 0.00000000E+00 -.33109043E+02 0.33110590E+02 0.32000000E+00 0.0000E+00 0.9000E+01
       23  2    1    2    0    0 0.15219316E+03 -.24437358E+03 0.14358020E+04 0.14671680E+04 0.90407026E+02 0.0000E+00 0.0000E+00
       23  1    1    2    0    0 -.13023875E+03 0.81278252E+02 0.65745824E+03 0.68127445E+03 0.91188000E+02 0.0000E+00 0.9000E+01
      -13  1    3    3    0    0 0.91131400E+02 -.67672857E+02 0.60960631E+03 0.62008420E+03 0.10565837E+00 0.0000E+00 0.9000E+01
       13  1    3    3    0    0 0.61061757E+02 -.17670072E+03 0.82619569E+03 0.84708383E+03 0.10565837E+00 0.0000E+00 0.9000E+01
       23  1    1    2    0    0 -.21954403E+02 0.16309533E+03 0.15979975E+04 0.16090349E+04 0.91188000E+02 0.0000E+00 0.9000E+01
#aMCatNLO 1  0  0  2  1 0.40776800D+02 0.00000000D+00  -5  7  0 0.00000000D+00 0.00000000D+00 0.00000000D+00 0.00000000D+00 0.00000000D+00
  <mgrwgt>
 0.4814380442D-03    9    2    0
 0.351159722350687D+03 0.000000000000000D+00 0.000000000000000D+00 0.351159722350687D+03
 0.351159722350687D+03 0.000000000000000D+00 0.000000000000000D+00 -.351159722350687D+03
 0.189408853248912D+03 -.130238752929353D+03 0.812782535199271D+02 -.631836615370238D+02
 0.113535610274865D+03 0.911314411593920D+02 -.676727089890847D+02 0.240825471595608D+01
 0.189653253834561D+03 0.610617170625769D+02 -.176700871751128D+03 -.318845624369797D+02
 0.209721727343036D+03 -.219544052926157D+02 0.163095327220285D+03 0.926599692580474D+02
 0.000000000000000D+00 -.000000000000000D+00 0.000000000000000D+00 -.000000000000000D+00
 0.356014947541495D+03 0.000000000000000D+00 0.000000000000000D+00 0.356014947541495D+03
 0.449242162152137D+03 0.000000000000000D+00 0.000000000000000D+00 -.449242162152137D+03
 0.181504779487886D+03 -.119620631480443D+03 0.795453522962896D+02 -.631836615370238D+02
 0.119581697931756D+03 0.978048758134839D+02 -.687618284848057D+02 0.240825471595608D+01
 0.195124084111056D+03 0.720767139365095D+02 -.178498543933824D+03 -.318845624369797D+02
 0.207291641638169D+03 -.100165895671863D+02 0.161147048932295D+03 0.926599692580474D+02
 0.101754906524765D+03 -.402443687023637D+02 0.656797119004548D+01 -.932272146106412D+02
0.354254508079D-04 0.000000000000D+00 0.000000000000D+00 0.354553570727D-10 0.000000000000D+00  7 2 -2 23 -13 13 23 21 0 0.57297962D+00 0.50938190D-02 0.11127738D+06 0.11127738D+06 0.11127738D+06 0.11179336D+01  1  2  2  2  7  2       -2 0.456916130562D-03 0.100000000000D+01
-.196177082505D-05 0.000000000000D+00 -.136043058838D-06 0.354553570727D-10 0.000000000000D+00  7 2 -2 23 -13 13 23 21 2 0.57297962D+00 0.50938190D-02 0.11127738D+06 0.11127738D+06 0.11127738D+06 0.11179336D+01  1  2  3  2  7  2       -2 -.316228781077D-04 0.100000000000D+01
0.217348176148D-05 0.000000000000D+00 0.000000000000D+00 0.354553570727D-10 0.000000000000D+00  7 2 -2 23 -13 13 23 21 2 0.57297962D+00 0.50938190D-02 0.11127738D+06 0.11127738D+06 0.11127738D+06 0.11179336D+01  1  2 15  2  7  2       -2 0.350355647739D-04 0.100000000000D+01
0.200091657992D-03 0.000000000000D+00 0.000000000000D+00 0.354553570727D-10 0.000000000000D+00  7 2 -2 23 -13 13 23 21 2 0.57297962D+00 0.65449429D-02 0.12546368D+06 0.12546368D+06 0.12546368D+06 0.11137261D+01  1  2 12  2  7  2       -2 0.218486374454D-02 0.100000000000D+01
-.198126725426D-03 0.000000000000D+00 0.000000000000D+00 0.354553570727D-10 0.000000000000D+00  7 2 -2 23 -13 13 23 21 2 0.57297962D+00 0.50938190D-02 0.11127738D+06 0.11127738D+06 0.11127738D+06 0.11179336D+01  1  2  4  2  7  2       -2 -.319371519243D-02 0.100000000000D+01
-.234236119287D-03 0.000000000000D+00 -.206075348438D-04 0.354553570727D-10 0.000000000000D+00  7 2 -2 23 -13 13 23 21 2 0.57297962D+00 0.66509701D-02 0.11127738D+06 0.11127738D+06 0.11127738D+06 0.11179336D+01  1  2  5  2  7  2       -2 -.253145203991D-02 0.100000000000D+01
0.232137746486D-03 0.000000000000D+00 0.198955686596D-04 0.354553570727D-10 0.000000000000D+00  7 2 -2 23 -13 13 23 21 2 0.57297962D+00 0.50938190D-02 0.11127738D+06 0.11127738D+06 0.11127738D+06 0.11179336D+01  1  2  6  2  7  2       -2 0.374195781055D-02 0.100000000000D+01
0.678502652401D-05 0.000000000000D+00 0.000000000000D+00 0.354553570727D-10 0.000000000000D+00  7 2 21 23 -13 13 23 2 2 0.57297962D+00 0.65449429D-02 0.12546368D+06 0.12546368D+06 0.12546368D+06 0.11137261D+01  1  2 12  4  7  2       -2 0.115593809595D-02 0.100000000000D+01
-.792989400952D-05 0.000000000000D+00 -.731409202414D-06 0.354553570727D-10 0.000000000000D+00  7 2 21 23 -13 13 23 2 2 0.57297962D+00 0.66509701D-02 0.11127738D+06 0.11127738D+06 0.11127738D+06 0.11179336D+01  1  2  5  4  7  2       -2 -.133648319174D-02 0.100000000000D+01
  </mgrwgt>
  </event>
  <event>
  9     66 0.55102590E-06 0.55415244E+03 0.75467711E-02 0.92179376E-01
        2 -1    0    0  501    0 0.00000000E+00 0.00000000E+00 0.12020001E+04 0.12020002E+04 0.32000000E+00 0.0000E+00 0.9000E+01
       -2 -1    0    0    0  502 0.00000000E+00 0.00000000E+00 -.32848245E+03 0.32848261E+03 0.32000000E+00 0.0000E+00 0.9000E+01
       25  2    1    2    0    0 0.35232321E+03 -.32764676E+03 0.33951549E+03 0.66168787E+03 0.30178806E+03 0.0000E+00 0.0000E+00
       23  2    1    2    0    0 -.47076693E+03 0.26958077E+03 0.39756602E+03 0.67901617E+03 0.93321615E+02 0.0000E+00 0.0000E+00
       23  1    3    3    0    0 0.12819738E+03 0.35016305E+01 0.82425758E+02 0.17764033E+03 0.91188000E+02 0.0000E+00 0.9000E+01
      -11  1    4    4    0    0 -.38252489E+03 0.17966639E+03 0.28205341E+03 0.50809392E+03 0.51099893E-03 0.0000E+00 0.9000E+01
       11  1    4    4    0    0 -.88242046E+02 0.89914381E+02 0.11551260E+03 0.17092225E+03 0.51099893E-03 0.0000E+00 0.9000E+01
       23  1    3    3    0    0 0.22412583E+03 -.33114839E+03 0.25708973E+03 0.48404755E+03 0.91188000E+02 0.0000E+00 0.9000E+01
       21  1    1    2  501  502 0.11844373E+03 0.58065997E+02 0.13643616E+03 0.18977873E+03 0.75000000E+00 0.0000E+00 0.9000E+01
#aMCatNLO 2  0  0  2  2 0.13191124D+03 0.00000000D+00  -5  7  0 0.00000000D+00 0.00000000D+00 0.00000000D+00 0.00000000D+00 0.00000000D+00
  <mgrwgt>
 0.6392960538D-04    1    2    0
 0.556057013407154D+03 0.000000000000000D+00 0.000000000000000D+00 0.556057013407154D+03
 0.556057013407154D+03 0.000000000000000D+00 0.000000000000000D+00 -.556057013407154D+03
 0.173360015442925D+03 0.145803132847935D+03 0.121326971331757D+02 -.182397292297187D+02
 0.394232999271146D+03 -.339177563998695D+03 0.200917030520238D+03 0.325340454979381D+01
 0.124792241248076D+03 -.747959360573225D+02 0.965062185081352D+02 0.257918827208669D+02
 0.419728770852161D+03 0.268170367208083D+03 -.309555946161549D+03 -.108055580409421D+02
 0.000000000000000D+00 0.000000000000000D+00 0.000000000000000D+00 0.000000000000000D+00
 0.647867504338602D+03 0.000000000000000D+00 0.000000000000000D+00 0.647867504338602D+03
 0.609437577362886D+03 0.000000000000000D+00 0.000000000000000D+00 -.609437577362886D+03
 0.158413282923175D+03 0.128197377992361D+03 0.350163047852628D+01 -.182397292297187D+02
 0.422629725821376D+03 -.382524888691368D+03 0.179666385387873D+03 0.325340454979381D+01
 0.128594229285266D+03 -.882420455118762D+02 0.899143814696211D+02 0.257918827208669D+02
 0.410272662442046D+03 0.224125828855188D+03 -.331148394165944D+03 -.108055580409421D+02
 0.137395181229625D+03 0.118443727355695D+03 0.580659968299234D+02 0.384299269757156D+02
0.625341225536D-05 0.000000000000D+00 0.000000000000D+00 0.240475624440D-07 0.890046011095D-11  7 2 -2 23 -11 11 23 21 2 0.18492281D+00 0.50535694D-01 0.38937580D+06 0.38937580D+06 0.38937580D+06 0.10762714D+01  1  2  1  2  7  2       -2 0.639296053806D-04 0.100000000000D+01
  </mgrwgt>
  </event>
  <event>
  8     66 0.55102590E-06 0.50293686E+03 0.75467711E-02 0.82146368E-01
        2 -1    0    0  501    0 0.00000000E+00 0.00000000E+00 0.13384307E+04 0.13384307E+04 0.32000000E+00 0.0000E+00 0.9000E+01
       -2 -1    0    0    0  501 0.00000000E+00 0.00000000E+00 -.36719583E+03 0.36719597E+03 0.32000000E+00 0.0000E+00 0.9000E+01
       25  2    1    2    0    0 -.47432924E+03 -.56195211E+02 0.10697629E+04 0.12095060E+04 0.30060936E+03 0.0000E+00 0.0000E+00
       23  2    1    2    0    0 0.47432924E+03 0.56195211E+02 -.98528070E+02 0.49612066E+03 0.91004416E+02 0.0000E+00 0.0000E+00
       23  1    3    3    0    0 -.10767583E+03 -.13284432E+01 0.52936458E+03 0.54784848E+03 0.91188000E+02 0.0000E+00 0.9000E+01
      -11  1    4    4    0    0 0.11028930E+03 -.17182655E+02 -.47356212E+02 0.12125009E+03 0.51099893E-03 0.0000E+00 0.9000E+01
       11  1    4    4    0    0 0.36403994E+03 0.73377866E+02 -.51171857E+02 0.37487058E+03 0.51099893E-03 0.0000E+00 0.9000E+01
       23  1    3    3    0    0 -.36665341E+03 -.54866768E+02 0.54039835E+03 0.66165755E+03 0.91188000E+02 0.0000E+00 0.9000E+01
#aMCatNLO 1  0  0  2  1 0.16360912D+04 0.00000000D+00  -5  7  0 0.00000000D+00 0.00000000D+00 0.00000000D+00 0.00000000D+00 0.00000000D+00
  <mgrwgt>
 0.4055455283D-03    3    2    0
 0.701046585719630D+03 0.000000000000000D+00 0.000000000000000D+00 0.701046585719630D+03
 0.701046585719630D+03 0.000000000000000D+00 0.000000000000000D+00 -.701046585719630D+03
 0.299757297407466D+03 -.107675828756984D+03 -.132844315556718D+01 0.264468026697571D+03
 0.180302846196285D+03 0.110289297925729D+03 -.171826549129817D+02 -.141598529228494D+03
 0.491471725553686D+03 0.364039940881759D+03 0.733778657683256D+02 -.321924008543645D+03
 0.430561302281823D+03 -.366653410050504D+03 -.548667676997767D+02 0.199054511074568D+03
 0.000000000000000D+00 -.000000000000000D+00 0.000000000000000D+00 0.000000000000000D+00
 0.224300675922149D+04 0.000000000000000D+00 0.000000000000000D+00 0.224300675922149D+04
 0.165143323527369D+04 0.000000000000000D+00 0.000000000000000D+00 -.165143323527369D+04
 0.413017339347944D+03 0.203591681477307D+02 -.303167014012211D+03 0.264468026697571D+03
 0.345797040647156D+03 0.204792095738785D+03 -.239970096811195D+03 -.141598529228494D+03
 0.842333630628294D+03 0.603630066349220D+03 -.491448492733340D+03 -.321924008543645D+03
 0.553535194356845D+03 -.189881138137706D+03 -.471601966755933D+03 0.199054511074568D+03
 0.173975678951494D+04 -.638900192098029D+03 0.150618757031268D+04 0.591573523947797D+03
0.664465932652D-04 0.000000000000D+00 0.000000000000D+00 0.132818284133D-05 0.000000000000D+00  7 2 -2 23 -11 11 23 21 0 0.20591243D+00 0.56491680D-01 0.25294549D+06 0.25294549D+06 0.25294549D+06 0.10900766D+01  1  2  2  2  7  2       -2 0.398110290650D-03 0.100000000000D+01
-.319643221693D-05 0.000000000000D+00 -.255172413928D-06 0.132818284133D-05 0.000000000000D+00  7 2 -2 23 -11 11 23 21 2 0.20591243D+00 0.56491680D-01 0.25294549D+06 0.25294549D+06 0.25294549D+06 0.10900766D+01  1  2  3  2  7  2       -2 -.227567500019D-04 0.100000000000D+01
0.424079194109D-05 0.000000000000D+00 0.000000000000D+00 0.132818284133D-05 0.000000000000D+00  7 2 -2 23 -11 11 23 21 2 0.20591243D+00 0.56491680D-01 0.25294549D+06 0.25294549D+06 0.25294549D+06 0.10900766D+01  1  2 15  2  7  2       -2 0.301919876486D-04 0.100000000000D+01
  </mgrwgt>
  </event>
  <event>
  8     66 0.55102590E-06 0.13760413E+03 0.75467711E-02 0.10632739E+00
        2 -1    0    0  501    0 0.00000000E+00 0.00000000E+00 0.18784990E+04 0.18784990E+04 0.32000000E+00 0.0000E+00 0.9000E+01
       -2 -1    0    0    0  501 0.00000000E+00 0.00000000E+00 -.24935733E+02 0.24937786E+02 0.32000000E+00 0.0000E+00 0.9000E+01
       25  2    1    2    0    0 0.49779111E+02 -.35754580E+02 0.11081326E+04 0.11498555E+04 0.30075489E+03 0.0000E+00 0.0000E+00
       23  2    1    2    0    0 -.49779111E+02 0.35754580E+02 0.74543072E+03 0.75358135E+03 0.91986621E+02 0.0000E+00 0.0000E+00
       23  1    3    3    0    0 0.11869598E+03 -.43989493E+02 0.88881377E+03 0.90240179E+03 0.91188000E+02 0.0000E+00 0.9000E+01
      -11  1    4    4    0    0 0.19892527E+02 -.11061352E+02 0.25551268E+03 0.25652446E+03 0.51099893E-03 0.0000E+00 0.9000E+01
       11  1    4    4    0    0 -.69671637E+02 0.46815932E+02 0.48991804E+03 0.49705689E+03 0.51099893E-03 0.0000E+00 0.9000E+01
       23  1    3    3    0    0 -.68916868E+02 0.82349126E+01 0.21931879E+03 0.24745370E+03 0.91188000E+02 0.0000E+00 0.9000E+01
#aMCatNLO 1  0  0  1  2 0.22547663D+02 0.00000000D+00  -5  7  0 0.00000000D+00 0.00000000D+00 0.00000000D+00 0.00000000D+00 0.00000000D+00
  <mgrwgt>
 0.3683276616D-03    6    2    0
 0.216434123799454D+03 0.000000000000000D+00 0.000000000000000D+00 0.216434123799454D+03
 0.216434123799454D+03 0.000000000000000D+00 0.000000000000000D+00 -.216434123799454D+03
 0.162156086951884D+03 0.118695978198271D+03 -.439894930655138D+02 0.442214252477401D+02
 0.338883079108500D+02 0.198925264890790D+02 -.110613516458816D+02 0.251067979381684D+02
 0.878380554844190D+02 -.696716373398540D+02 0.468159323160918D+02 0.258777012704539D+02
 0.148985797251756D+03 -.689168673474963D+02 0.823491239530357D+01 -.952059244563624D+02
 0.000000000000000D+00 -.000000000000000D+00 -.000000000000000D+00 -.000000000000000D+00
 0.226176454919908D+03 0.000000000000000D+00 0.000000000000000D+00 0.226176454919908D+03
 0.230178758719198D+03 0.000000000000000D+00 0.000000000000000D+00 -.230178758719198D+03
 0.166816092258088D+03 0.126301998610104D+03 -.400578080829536D+02 0.442214252477401D+02
 0.345901498839504D+02 0.214757866571847D+02 -.102429367732706D+02 0.251067979381684D+02
 0.858530527979840D+02 -.656558019639799D+02 0.488917878601020D+02 0.258777012704539D+02
 0.146195797206799D+03 -.620921041166333D+02 0.117627518765872D+02 -.952059244563624D+02
 0.229001214922841D+02 -.200298791866754D+02 -.103537948804651D+02 -.400230379929058D+01
0.101519208192D-05 0.000000000000D+00 0.000000000000D+00 0.313687519944D-07 0.000000000000D+00  7 2 -2 23 -11 11 23 21 0 0.28900001D+00 0.38364266D-02 0.35590352D+05 0.35590352D+05 0.35590352D+05 0.11605125D+01  1  2  2  1  7  1        2 0.270740009248D-03 0.100000000000D+01
-.551055157501D-07 0.000000000000D+00 -.389860490078D-08 0.313687519944D-07 0.000000000000D+00  7 2 -2 23 -11 11 23 21 2 0.28900001D+00 0.38364266D-02 0.35590352D+05 0.35590352D+05 0.35590352D+05 0.11605125D+01  1  2  3  1  7  1        2 -.197924211159D-04 0.100000000000D+01
0.653558280346D-07 0.000000000000D+00 0.000000000000D+00 0.313687519944D-07 0.000000000000D+00  7 2 -2 23 -11 11 23 21 2 0.28900001D+00 0.38364266D-02 0.35590352D+05 0.35590352D+05 0.35590352D+05 0.11605125D+01  1  2 15  1  7  1        2 0.234740579637D-04 0.100000000000D+01
0.152558589270D-05 0.000000000000D+00 0.000000000000D+00 0.313687519944D-07 0.000000000000D+00  7 2 -2 23 -11 11 23 21 2 0.31070951D+00 0.38364266D-02 0.39999079D+05 0.39999079D+05 0.39999079D+05 0.11559193D+01  1  2 12  1  7  1        2 0.458013419352D-03 0.100000000000D+01
-.101713446744D-05 0.000000000000D+00 0.000000000000D+00 0.313687519944D-07 0.000000000000D+00  7 2 -2 23 -11 11 23 21 2 0.28900001D+00 0.38364266D-02 0.35590352D+05 0.35590352D+05 0.35590352D+05 0.11605125D+01  1  2  4  1  7  1        2 -.365327380337D-03 0.100000000000D+01
0.186458482463D-07 0.000000000000D+00 0.000000000000D+00 0.313687519944D-07 0.000000000000D+00  7 21 -2 23 -11 11 23 -2 2 0.31070951D+00 0.38364266D-02 0.39999079D+05 0.39999079D+05 0.39999079D+05 0.11559193D+01  1  2 12  3  7  1        2 0.121997653543D-05 0.100000000000D+01
  </mgrwgt>
  </event>
  <event>
  8     66 0.55102590E-06 0.18570936E+03 0.75467711E-02 0.94509497E-01
        2 -1    0    0  501    0 0.00000000E+00 0.00000000E+00 0.10220675E+04 0.10220675E+04 0.32000000E+00 0.0000E+00 0.9000E+01
       -2 -1    0    0    0  501 0.00000000E+00 0.00000000E+00 -.13216219E+03 0.13216258E+03 0.32000000E+00 0.0000E+00 0.9000E+01
       25  2    1    2    0    0 -.34104867E+02 -.12002415E+03 0.93964469E+03 0.99415618E+03 0.29974225E+03 0.0000E+00 0.0000E+00
       23  2    1    2    0    0 0.34104867E+02 0.12002415E+03 -.49739400E+02 0.16007393E+03 0.87067314E+02 0.0000E+00 0.0000E+00
       23  1    3    3    0    0 -.39376992E+02 -.85671284E+02 0.15320818E+03 0.20168816E+03 0.91188000E+02 0.0000E+00 0.9000E+01
      -11  1    4    4    0    0 0.50431473E+02 0.11501380E+03 -.21997402E+02 0.12749664E+03 0.51099893E-03 0.0000E+00 0.9000E+01
       11  1    4    4    0    0 -.16326605E+02 0.50103544E+01 -.27741998E+02 0.32577295E+02 0.51099893E-03 0.0000E+00 0.9000E+01
       23  1    3    3    0    0 0.52721252E+01 -.34352867E+02 0.78643652E+03 0.79246802E+03 0.91188000E+02 0.0000E+00 0.9000E+01
#aMCatNLO 1  0  0  1  2 0.43591060D+03 0.00000000D+00  -5  7  0 0.00000000D+00 0.00000000D+00 0.00000000D+00 0.00000000D+00 0.00000000D+00
  <mgrwgt>
 0.4043099727D-03    3    2    0
 0.367530855001997D+03 0.000000000000000D+00 0.000000000000000D+00 0.367530855001997D+03
 0.367530855001997D+03 0.000000000000000D+00 0.000000000000000D+00 -.367530855001997D+03
 0.131218612996398D+03 -.393769923536443D+02 -.856712844709110D+02 -.359951982683724D+01
 0.226832741709009D+03 0.504314725991126D+02 0.115013797512296D+03 -.188895700492393D+03
 0.847404311653979D+02 -.163266053955549D+02 0.501035435971422D+01 -.830016805826573D+02
 0.292269924133189D+03 0.527212515008664D+01 -.343528674010989D+02 0.275496900901887D+03
 0.000000000000000D+00 -.000000000000000D+00 0.000000000000000D+00 -.000000000000000D+00
 0.599757152676762D+03 0.000000000000000D+00 0.000000000000000D+00 0.599757152676762D+03
 0.702751278998555D+03 0.000000000000000D+00 0.000000000000000D+00 -.702751278998555D+03
 0.171749203546142D+03 0.196150107383141D+02 -.144169457186626D+03 -.359951982683724D+01
 0.236930099035461D+03 0.140732479641198D+03 0.254687129333495D+02 -.188895700492393D+03
 0.895535670912705D+02 0.176108345655752D+02 -.286429905060412D+02 -.830016805826573D+02
 0.356362804298719D+03 0.131569843362766D+03 -.159593329605595D+03 0.275496900901887D+03
 0.447912757703724D+03 -.309528168307854D+03 0.306937064364913D+03 -.102994126321793D+03
0.632601482559D-05 0.000000000000D+00 0.000000000000D+00 0.655309319859D-07 0.000000000000D+00  7 2 -2 23 -11 11 23 21 0 0.15724118D+00 0.20332678D-01 0.34487965D+05 0.34487965D+05 0.34487965D+05 0.11617597D+01  1  2  2  1  7  1        2 0.385202235499D-03 0.100000000000D+01
-.152330784744D-06 0.000000000000D+00 -.242935626082D-07 0.655309319859D-07 0.000000000000D+00  7 2 -2 23 -11 11 23 21 2 0.15724118D+00 0.20332678D-01 0.34487965D+05 0.34487965D+05 0.34487965D+05 0.11617597D+01  1  2  3  1  7  1        2 -.125192659767D-04 0.100000000000D+01
0.384828169481D-06 0.000000000000D+00 0.000000000000D+00 0.655309319859D-07 0.000000000000D+00  7 2 -2 23 -11 11 23 21 2 0.15724118D+00 0.20332678D-01 0.34487965D+05 0.34487965D+05 0.34487965D+05 0.11617597D+01  1  2 15  1  7  1        2 0.316270031507D-04 0.100000000000D+01
  </mgrwgt>
  </event>
  <event>
  8     66 -.55102590E-06 0.19528006E+03 0.75467711E-02 0.93423228E-01
        2 -1    0    0  501    0 0.00000000E+00 0.00000000E+00 0.97293422E+02 0.97293948E+02 0.32000000E+00 0.0000E+00 0.9000E+01
       -2 -1    0    0    0  501 0.00000000E+00 0.00000000E+00 -.23276988E+04 0.23276988E+04 0.32000000E+00 0.0000E+00 0.9000E+01
       25  2    1    2    0    0 -.26793769E+03 0.99070224E+02 -.20147334E+04 0.20568808E+04 0.30000412E+03 0.0000E+00 0.0000E+00
       23  2    1    2    0    0 0.26793769E+03 -.99070224E+02 -.21567196E+03 0.36811194E+03 0.85944726E+02 0.0000E+00 0.0000E+00
       23  1    3    3    0    0 -.12512551E+03 0.17007608E+03 -.10674376E+04 0.10919343E+04 0.91188000E+02 0.0000E+00 0.9000E+01
      -13  1    4    4    0    0 0.23954724E+03 -.11399542E+03 -.20103289E+03 0.33285443E+03 0.10565837E+00 0.0000E+00 0.9000E+01
       13  1    4    4    0    0 0.28390448E+02 0.14925194E+02 -.14639064E+02 0.35257515E+02 0.10565837E+00 0.0000E+00 0.9000E+01
       23  1    3    3    0    0 -.14281217E+03 -.71005857E+02 -.94729583E+03 0.96494652E+03 0.91188000E+02 0.0000E+00 0.9000E+01
#aMCatNLO 1  0  0  1  2 0.32991876D+03 0.00000000D+00  -5  7  0 0.00000000D+00 0.00000000D+00 0.00000000D+00 0.00000000D+00 0.00000000D+00
  <mgrwgt>
 -.1067134836D-03    7    2    0
 0.475889111766494D+03 0.000000000000000D+00 0.000000000000000D+00 0.475889111766494D+03
 0.475889111766494D+03 0.000000000000000D+00 0.000000000000000D+00 -.475889111766494D+03
 0.280647580169720D+03 -.125125512711213D+03 0.170076081019521D+03 -.160827689297947D+03
 0.376963025205852D+03 0.239547557850737D+03 -.113995613375655D+03 0.267811668960118D+03
 0.555252335523884D+02 0.283901290209251D+02 0.149253890795194D+02 0.453242197511161D+02
 0.238642384605028D+03 -.142812174160449D+03 -.710058567233856D+02 -.152308199413287D+03
 0.000000000000000D+00 -.000000000000000D+00 0.000000000000000D+00 0.000000000000000D+00
 0.368418525966779D+04 0.000000000000000D+00 0.000000000000000D+00 0.368418525966779D+04
 0.512224301308754D+03 0.000000000000000D+00 0.000000000000000D+00 -.512224301308754D+03
 0.223961849706970D+03 -.788002621577287D+02 0.988363891445046D+02 -.160827689297947D+03
 0.477361227585442D+03 0.317978087922572D+03 -.234607304173977D+03 0.267811668960118D+03
 0.597939893952010D+02 0.389769147216714D+02 -.135513487355080D+01 0.453242197511161D+02
 0.246220104058605D+03 -.982997751812669D+02 -.139457717210003D+03 -.152308199413287D+03
 0.318907239023032D+04 -.179854965305248D+03 0.276583767113026D+03 0.317196095835904D+04
0.167067180358D-03 0.000000000000D+00 0.000000000000D+00 0.796890764583D-07 0.000000000000D+00  7 2 -2 23 -13 13 23 21 0 0.14968261D-01 0.35810755D+00 0.12640721D+06 0.12640721D+06 0.12640721D+06 0.11134649D+01  1  2  2  1  7  1        2 0.101518878923D-03 0.100000000000D+01
-.832225291263D-05 0.000000000000D+00 -.641581962372D-06 0.796890764583D-07 0.000000000000D+00  7 2 -2 23 -13 13 23 21 2 0.14968261D-01 0.35810755D+00 0.12640721D+06 0.12640721D+06 0.12640721D+06 0.11134649D+01  1  2  3  1  7  1        2 -.626974209797D-05 0.100000000000D+01
0.105797716453D-04 0.000000000000D+00 0.000000000000D+00 0.796890764583D-07 0.000000000000D+00  7 2 -2 23 -13 13 23 21 2 0.14968261D-01 0.35810755D+00 0.12640721D+06 0.12640721D+06 0.12640721D+06 0.11134649D+01  1  2 15  1  7  1        2 0.797049072746D-05 0.100000000000D+01
0.193501422959D-04 0.000000000000D+00 0.000000000000D+00 0.796890764583D-07 0.000000000000D+00  7 2 -2 23 -13 13 23 21 2 0.11052030D+00 0.35810755D+00 0.30991543D+06 0.30991543D+06 0.30991543D+06 0.10835086D+01  1  2 12  1  7  1        2 0.130206813010D-05 0.100000000000D+01
-.236003858367D-02 0.000000000000D+00 -.104831802681D-03 0.796890764583D-07 0.000000000000D+00  7 2 -2 23 -13 13 23 21 2 0.11874118D+00 0.35810755D+00 0.12640721D+06 0.12640721D+06 0.12640721D+06 0.11134649D+01  1  2  5  1  7  1        2 -.165860561462D-03 0.100000000000D+01
0.471784753520D-05 0.000000000000D+00 0.000000000000D+00 0.796890764583D-07 0.000000000000D+00  7 21 -2 23 -13 13 23 -2 2 0.11052030D+00 0.35810755D+00 0.30991543D+06 0.30991543D+06 0.30991543D+06 0.10835086D+01  1  2 12  3  7  1        2 0.363916522999D-06 0.100000000000D+01
-.605972979185D-03 0.000000000000D+00 -.263674622546D-04 0.796890764583D-07 0.000000000000D+00  7 21 -2 23 -13 13 23 -2 2 0.11874118D+00 0.35810755D+00 0.12640721D+06 0.12640721D+06 0.12640721D+06 0.11134649D+01  1  2  5  3  7  1        2 -.457385343587D-04 0.100000000000D+01
  </mgrwgt>
  </event>
  <event>
  9     66 0.55102590E-06 0.21529787E+03 0.75467711E-02 0.10315734E+00
        2 -1    0    0  501    0 0.00000000E+00 0.00000000E+00 0.22827585E+04 0.22827585E+04 0.32000000E+00 0.0000E+00 0.9000E+01
       -2 -1    0    0    0  502 0.00000000E+00 0.00000000E+00 -.63504941E+02 0.63505747E+02 0.32000000E+00 0.0000E+00 0.9000E+01
       25  2    1    2    0    0 0.85758019E+02 -.10598593E+03 0.18990493E+04 0.19274263E+04 0.29999416E+03 0.0000E+00 0.0000E+00
       23  2    1    2    0    0 -.73401869E+02 0.35984723E+02 0.38422325E+02 0.12822745E+03 0.91012474E+02 0.0000E+00 0.0000E+00
       23  1    3    3    0    0 -.27886421E+02 -.14240905E+03 0.79922225E+03 0.81739186E+03 0.91188000E+02 0.0000E+00 0.9000E+01
      -11  1    4    4    0    0 -.22855278E+02 0.51667956E+02 0.48372663E+02 0.74376448E+02 0.51099893E-03 0.0000E+00 0.9000E+01
       11  1    4    4    0    0 -.50546591E+02 -.15683233E+02 -.99503387E+01 0.53851007E+02 0.51099893E-03 0.0000E+00 0.9000E+01
       23  1    3    3    0    0 0.11364444E+03 0.36423128E+02 0.10998270E+04 0.11100344E+04 0.91188000E+02 0.0000E+00 0.9000E+01
       21  1    1    2  501  502 -.12356150E+02 0.70001203E+02 0.28178193E+03 0.29061050E+03 0.75000000E+00 0.0000E+00 0.9000E+01
#aMCatNLO 2  0  0  2  1 0.71083351D+02 0.00000000D+00  -5  7  0 0.00000000D+00 0.00000000D+00 0.00000000D+00 0.00000000D+00 0.00000000D+00
  <mgrwgt>
 0.7736512171D-04    1    2    0
 0.341636967015355D+03 0.000000000000000D+00 0.000000000000000D+00 0.341636967015355D+03
 0.341636967015355D+03 0.000000000000000D+00 0.000000000000000D+00 -.341636967015355D+03
 0.178815517842973D+03 -.312290514664746D+02 -.123472076477728D+03 0.862503956642117D+02
 0.923067326064829D+02 -.244643843854291D+02 0.607840170602267D+02 -.650179209998965D+02
 0.189534873483439D+03 -.539619052552973D+02 0.366551898184433D+01 -.181653915504718D+03
 0.222616810097814D+03 0.109655341107201D+03 0.590225404356567D+02 0.160421440840403D+03
 0.000000000000000D+00 -.000000000000000D+00 0.000000000000000D+00 0.000000000000000D+00
 0.392714864528906D+03 0.000000000000000D+00 0.000000000000000D+00 0.392714864528906D+03
 0.369137979154010D+03 0.000000000000000D+00 0.000000000000000D+00 -.369137979154010D+03
 0.191865508211780D+03 -.278864213875425D+02 -.142409053951383D+03 0.862503956642117D+02
 0.861351930545848D+02 -.228552776167186D+02 0.516679563797963D+02 -.650179209998965D+02
 0.189206413007061D+03 -.505465914750620D+02 -.156832329274440D+02 -.181653915504718D+03
 0.219754392472105D+03 0.113644440046258D+03 0.364231277081678D+02 0.160421440840403D+03
 0.748913369373856D+02 -.123561495669348D+02 0.700012027908631D+02 0.235768853748965D+02
0.149523916813D-05 0.000000000000D+00 0.000000000000D+00 0.688408829160D-06 0.953994194185D-09  7 2 -2 23 -11 11 23 21 2 0.35119193D+00 0.97700061D-02 0.63021162D+05 0.63021162D+05 0.63021162D+05 0.11385576D+01  1  2  1  2  7  2       -2 0.773651217138D-04 0.100000000000D+01
  </mgrwgt>
  </event>
  <event>
  8     66 0.55102590E-06 0.10455186E+03 0.75467711E-02 0.10459234E+00
        2 -1    0    0  501    0 0.00000000E+00 0.00000000E+00 0.12419126E+03 0.12419167E+03 0.32000000E+00 0.0000E+00 0.9000E+01
       -2 -1    0    0    0  501 0.00000000E+00 0.00000000E+00 -.50335334E+03 0.50335344E+03 0.32000000E+00 0.0000E+00 0.9000E+01
       25  2    1    2    0    0 0.10178582E+03 -.59518685E+01 -.12441829E+03 0.33863546E+03 0.29799042E+03 0.0000E+00 0.0000E+00
       23  2    1    2    0    0 -.10178582E+03 0.59518685E+01 -.25474379E+03 0.28890965E+03 0.90435681E+02 0.0000E+00 0.0000E+00
       23  1    3    3    0    0 0.17116035E+03 -.53259643E+01 -.11034775E+03 0.22319522E+03 0.91188000E+02 0.0000E+00 0.9000E+01
      -13  1    4    4    0    0 -.28041945E+02 -.78127637E+01 -.68385519E+01 0.29902624E+02 0.10565837E+00 0.0000E+00 0.9000E+01
       13  1    4    4    0    0 -.73743876E+02 0.13764632E+02 -.24790523E+03 0.25900703E+03 0.10565837E+00 0.0000E+00 0.9000E+01
       23  1    3    3    0    0 -.69374531E+02 -.62590421E+00 -.14070547E+02 0.11544024E+03 0.91188000E+02 0.0000E+00 0.9000E+01
#aMCatNLO 1  0  0  1  2 0.36067142D+02 0.00000000D+00  -5  7  0 0.00000000D+00 0.00000000D+00 0.00000000D+00 0.00000000D+00 0.00000000D+00
  <mgrwgt>
 0.2705873974D-03    9    2    0
 0.250024494156272D+03 0.000000000000000D+00 0.000000000000000D+00 0.250024494156272D+03
 0.250024494156272D+03 0.000000000000000D+00 0.000000000000000D+00 -.250024494156272D+03
 0.196431538128958D+03 0.171160350251621D+03 -.532596438071834D+01 0.307549416007551D+02
 0.323413402638260D+02 -.280418832524969D+02 -.781279292742677D+01 0.140916762802392D+02
 0.137071379553401D+03 -.737439413150227D+02 0.137646616594928D+02 -.114721089174566D+03
 0.134204730366360D+03 -.693745256841016D+02 -.625904351347720D+00 0.698744712935718D+02
 0.000000000000000D+00 0.000000000000000D+00 0.000000000000000D+00 0.000000000000000D+00
 0.276936833965571D+03 0.000000000000000D+00 0.000000000000000D+00 0.276936833965571D+03
 0.263056894971506D+03 0.000000000000000D+00 0.000000000000000D+00 -.263056894971506D+03
 0.191519953010626D+03 0.164639187895842D+03 -.176836770306481D+02 0.307549416007551D+02
 0.338676854370330D+02 -.291548053983688D+02 -.992179916436541D+01 0.140916762802392D+02
 0.139031787862184D+03 -.783850204777116D+02 0.496973836989626D+01 -.114721089174566D+03
 0.136928585974558D+03 -.739320655216889D+02 -.926251921090507D+01 0.698744712935718D+02
 0.386457166526763D+02 0.168327035019277D+02 0.318982570360223D+02 0.138799389940657D+02
0.338864692436D-05 0.000000000000D+00 0.000000000000D+00 0.155975572715D-07 0.000000000000D+00  7 2 -2 23 -13 13 23 21 0 0.19106387D-01 0.77439015D-01 0.42583619D+05 0.42583619D+05 0.42583619D+05 0.11534796D+01  1  2  2  1  7  1        2 0.189370452943D-03 0.100000000000D+01
-.179824905182D-06 0.000000000000D+00 -.130132964408D-07 0.155975572715D-07 0.000000000000D+00  7 2 -2 23 -13 13 23 21 2 0.19106387D-01 0.77439015D-01 0.42583619D+05 0.42583619D+05 0.42583619D+05 0.11534796D+01  1  2  3  1  7  1        2 -.133707429009D-04 0.100000000000D+01
0.220775007813D-06 0.000000000000D+00 0.000000000000D+00 0.155975572715D-07 0.000000000000D+00  7 2 -2 23 -13 13 23 21 2 0.19106387D-01 0.77439015D-01 0.42583619D+05 0.42583619D+05 0.42583619D+05 0.11534796D+01  1  2 15  1  7  1        2 0.164155563737D-04 0.100000000000D+01
0.576894081231D-05 0.000000000000D+00 0.000000000000D+00 0.155975572715D-07 0.000000000000D+00  7 2 -2 23 -13 13 23 21 2 0.21619805D-01 0.77439015D-01 0.51120994D+05 0.51120994D+05 0.51120994D+05 0.11464494D+01  1  2 12  1  7  1        2 0.366531825251D-03 0.100000000000D+01
-.549678828365D-05 0.000000000000D+00 0.000000000000D+00 0.155975572715D-07 0.000000000000D+00  7 2 -2 23 -13 13 23 21 2 0.19106387D-01 0.77439015D-01 0.42583619D+05 0.42583619D+05 0.42583619D+05 0.11534796D+01  1  2  4  1  7  1        2 -.408709476849D-03 0.100000000000D+01
-.139932783644D-04 0.000000000000D+00 -.332661949281D-05 0.155975572715D-07 0.000000000000D+00  7 2 -2 23 -13 13 23 21 2 0.22206723D-01 0.77439015D-01 0.42583619D+05 0.42583619D+05 0.42583619D+05 0.11534796D+01  1  2  5  1  7  1        2 -.872885923641D-03 0.100000000000D+01
0.143680193431D-04 0.000000000000D+00 0.328936010312D-05 0.155975572715D-07 0.000000000000D+00  7 2 -2 23 -13 13 23 21 2 0.19106387D-01 0.77439015D-01 0.42583619D+05 0.42583619D+05 0.42583619D+05 0.11534796D+01  1  2  6  1  7  1        2 0.106832305813D-02 0.100000000000D+01
0.112196677782D-06 0.000000000000D+00 0.000000000000D+00 0.155975572715D-07 0.000000000000D+00  7 21 -2 23 -13 13 23 -2 2 0.21619805D-01 0.77439015D-01 0.51120994D+05 0.51120994D+05 0.51120994D+05 0.11464494D+01  1  2 12  3  7  1        2 0.480992673770D-04 0.100000000000D+01
-.296649850683D-06 0.000000000000D+00 -.760358268813D-07 0.155975572715D-07 0.000000000000D+00  7 21 -2 23 -13 13 23 -2 2 0.22206723D-01 0.77439015D-01 0.42583619D+05 0.42583619D+05 0.42583619D+05 0.11534796D+01  1  2  5  3  7  1        2 -.123186619261D-03 0.100000000000D+01
  </mgrwgt>
  </event>
  <event>
  8     66 0.55102590E-06 0.13839455E+03 0.75467711E-02 0.97013942E-01
        2 -1    0    0  501    0 0.00000000E+00 0.00000000E+00 0.10310366E+04 0.10310366E+04 0.32000000E+00 0.0000E+00 0.9000E+01
       -2 -1    0    0    0  501 0.00000000E+00 0.00000000E+00 -.15508478E+03 0.15508511E+03 0.32000000E+00 0.0000E+00 0.9000E+01
       25  2    1    2    0    0 -.75567883E+02 -.32766190E+03 0.46213226E+03 0.64502519E+03 0.29902916E+03 0.0000E+00 0.0000E+00
       23  2    1    2    0    0 0.75567883E+02 0.32766190E+03 0.41381954E+03 0.54109656E+03 0.92011159E+02 0.0000E+00 0.0000E+00
       23  1    3    3    0    0 0.78234134E+02 -.18652789E+03 0.24025647E+03 0.32703464E+03 0.91188000E+02 0.0000E+00 0.9000E+01
      -11  1    4    4    0    0 0.63143074E+02 0.22962232E+03 0.22324418E+03 0.32642215E+03 0.51099893E-03 0.0000E+00 0.9000E+01
       11  1    4    4    0    0 0.12424809E+02 0.98039580E+02 0.19057536E+03 0.21467441E+03 0.51099893E-03 0.0000E+00 0.9000E+01
       23  1    3    3    0    0 -.15380202E+03 -.14113401E+03 0.22187580E+03 0.31799055E+03 0.91188000E+02 0.0000E+00 0.9000E+01
#aMCatNLO 1  0  0  2  1 0.27286825D+02 0.00000000D+00  -5  7  0 0.00000000D+00 0.00000000D+00 0.00000000D+00 0.00000000D+00 0.00000000D+00
  <mgrwgt>
 0.1698568567D-03    9    2    0
 0.399872868799827D+03 0.000000000000000D+00 0.000000000000000D+00 0.399872868799827D+03
 0.399872868799827D+03 0.000000000000000D+00 0.000000000000000D+00 -.399872868799827D+03
 0.221882784817811D+03 0.782341337078506D+02 -.186527888865315D+03 -.186704390359997D+01
 0.239607744441922D+03 0.631430743468189D+02 0.229622319805253D+03 -.264275160738116D+02
 0.109653798047037D+03 0.124248091010531D+02 0.980395795989345D+02 0.475165274089656D+02
 0.228601410292884D+03 -.153802017155723D+03 -.141134010538872D+03 -.192219674315540D+02
 0.000000000000000D+00 0.000000000000000D+00 -.000000000000000D+00 -.000000000000000D+00
 0.400695771665224D+03 0.000000000000000D+00 0.000000000000000D+00 0.400695771665224D+03
 0.715485006687212D+03 0.000000000000000D+00 0.000000000000000D+00 -.715485006687212D+03
 0.218841915145412D+03 0.707417961234526D+02 -.185926450266769D+03 -.186704390359997D+01
 0.238226571469947D+03 0.550198718021911D+02 0.230274400347421D+03 -.264275160738116D+02
 0.109562696694267D+03 0.869811989391917D+01 0.983387351973984D+02 0.475165274089656D+02
 0.233579923588010D+03 -.161659118377714D+03 -.140503290967796D+03 -.192219674315540D+02
 0.315969671454800D+03 0.271993305581515D+02 -.218339431025457D+01 -.314789235021988D+03
0.377701962741D-05 0.000000000000D+00 0.000000000000D+00 0.184778627939D-06 0.000000000000D+00  7 2 -2 23 -11 11 23 21 0 0.15862104D+00 0.23859227D-01 0.15469921D+06 0.15469921D+06 0.15469921D+06 0.11064962D+01  1  2  2  2  7  2       -2 0.170546649452D-03 0.100000000000D+01
-.209764731573D-06 0.000000000000D+00 -.145047498814D-07 0.184778627939D-06 0.000000000000D+00  7 2 -2 23 -11 11 23 21 2 0.15862104D+00 0.23859227D-01 0.15469921D+06 0.15469921D+06 0.15469921D+06 0.11064962D+01  1  2  3  2  7  2       -2 -.115964834425D-04 0.100000000000D+01
0.239867613568D-06 0.000000000000D+00 0.000000000000D+00 0.184778627939D-06 0.000000000000D+00  7 2 -2 23 -11 11 23 21 2 0.15862104D+00 0.23859227D-01 0.15469921D+06 0.15469921D+06 0.15469921D+06 0.11064962D+01  1  2 15  2  7  2       -2 0.132606696477D-04 0.100000000000D+01
0.194711339999D-03 0.000000000000D+00 0.000000000000D+00 0.184778627939D-06 0.000000000000D+00  7 2 -2 23 -11 11 23 21 2 0.15862104D+00 0.42697522D-01 0.16580666D+06 0.16580666D+06 0.16580666D+06 0.11041346D+01  1  2 12  2  7  2       -2 0.377478586824D-02 0.100000000000D+01
-.166195710762D-03 0.000000000000D+00 0.000000000000D+00 0.184778627939D-06 0.000000000000D+00  7 2 -2 23 -11 11 23 21 2 0.15862104D+00 0.23859227D-01 0.15469921D+06 0.15469921D+06 0.15469921D+06 0.11064962D+01  1  2  4  2  7  2       -2 -.918784484697D-02 0.100000000000D+01
-.194821848165D-03 0.000000000000D+00 -.129619473499D-05 0.184778627939D-06 0.000000000000D+00  7 2 -2 23 -11 11 23 21 2 0.15862104D+00 0.42722883D-01 0.15469921D+06 0.15469921D+06 0.15469921D+06 0.11064962D+01  1  2  5  2  7  2       -2 -.379623064270D-02 0.100000000000D+01
0.166677103743D-03 0.000000000000D+00 0.110357276954D-05 0.184778627939D-06 0.000000000000D+00  7 2 -2 23 -11 11 23 21 2 0.15862104D+00 0.23859227D-01 0.15469921D+06 0.15469921D+06 0.15469921D+06 0.11064962D+01  1  2  6  2  7  2       -2 0.921445783234D-02 0.100000000000D+01
0.124445161968D-04 0.000000000000D+00 0.000000000000D+00 0.184778627939D-06 0.000000000000D+00  7 2 21 23 -11 11 23 2 2 0.15862104D+00 0.42697522D-01 0.16580666D+06 0.16580666D+06 0.16580666D+06 0.11041346D+01  1  2 12  4  7  2       -2 0.263693038561D-02 0.100000000000D+01
-.123941904570D-04 0.000000000000D+00 -.829162096133D-07 0.184778627939D-06 0.000000000000D+00  7 2 21 23 -11 11 23 2 2 0.15862104D+00 0.42722883D-01 0.15469921D+06 0.15469921D+06 0.15469921D+06 0.11064962D+01  1  2  5  4  7  2       -2 -.264445257551D-02 0.100000000000D+01
  </mgrwgt>
  </event>
  <event>
  8     66 0.55102590E-06 0.11133701E+03 0.75467711E-02 0.10019499E+00
        2 -1    0    0  501    0 0.00000000E+00 0.00000000E+00 0.78757938E+03 0.78757945E+03 0.32000000E+00 0.0000E+00 0.9000E+01
       -2 -1    0    0    0  501 0.00000000E+00 0.00000000E+00 -.23788616E+03 0.23788637E+03 0.32000000E+00 0.0000E+00 0.9000E+01
       25  2    1    2    0    0 -.13618776E+03 -.12650197E+03 -.80510550E+02 0.36222430E+03 0.30029092E+03 0.0000E+00 0.0000E+00
       23  2    1    2    0    0 0.13618776E+03 0.12650197E+03 0.63020378E+03 0.66324152E+03 0.90458056E+02 0.0000E+00 0.0000E+00
       23  1    3    3    0    0 0.35921200E+02 -.10973176E+03 -.78412535E+02 0.16671883E+03 0.91188000E+02 0.0000E+00 0.9000E+01
      -11  1    4    4    0    0 0.85636891E+02 0.56854667E+02 0.47282879E+03 0.48387311E+03 0.51099893E-03 0.0000E+00 0.9000E+01
       11  1    4    4    0    0 0.50550869E+02 0.69647305E+02 0.15737499E+03 0.17936841E+03 0.51099893E-03 0.0000E+00 0.9000E+01
       23  1    3    3    0    0 -.17210896E+03 -.16770210E+02 -.20980153E+01 0.19550547E+03 0.91188000E+02 0.0000E+00 0.9000E+01
#aMCatNLO 1  0  0  2  1 0.98408800D+02 0.00000000D+00  -5  7  0 0.00000000D+00 0.00000000D+00 0.00000000D+00 0.00000000D+00 0.00000000D+00
  <mgrwgt>
 0.2266317364D-03    6    2    0
 0.432844517076216D+03 0.000000000000000D+00 0.000000000000000D+00 0.432844517076216D+03
 0.432844517076216D+03 0.000000000000000D+00 0.000000000000000D+00 -.432844517076216D+03
 0.247279675735271D+03 0.359212000649744D+02 -.109731761599918D+03 -.198747564940584D+03
 0.272943920509823D+03 0.856368909285392D+02 0.568546669565886D+02 0.252848281585265D+03
 0.112544112063198D+03 0.505508692629290D+02 0.696473050982013D+02 0.725261309419859D+02
 0.232921325844139D+03 -.172108960256443D+03 -.167702104548716D+02 -.126626847586667D+03
 0.000000000000000D+00 0.000000000000000D+00 -.000000000000000D+00 0.000000000000000D+00
 0.487213099483478D+03 0.000000000000000D+00 0.000000000000000D+00 0.487213099483478D+03
 0.482569670593287D+03 0.000000000000000D+00 0.000000000000000D+00 -.482569670593287D+03
 0.237544917303783D+03 0.153585178885148D+02 -.915197123647015D+02 -.198747564940584D+03
 0.271699401305009D+03 0.625371396230038D+02 0.773137590384227D+02 0.252848281585265D+03
 0.114216492027849D+03 0.409333574885406D+02 0.781653863704955D+02 0.725261309419859D+02
 0.247803670286191D+03 -.192497767779067D+03 0.128784069151429D+01 -.126626847586667D+03
 0.985182891539342D+02 0.736687527790074D+02 -.652472737357310D+02 0.464342889019072D+01
0.710293153972D-05 0.000000000000D+00 0.000000000000D+00 0.783274370006D-06 0.000000000000D+00  7 2 -2 23 -11 11 23 21 0 0.12116608D+00 0.36597892D-01 0.70615833D+05 0.70615833D+05 0.70615833D+05 0.11343364D+01  1  2  2  2  7  2       -2 0.219602913777D-03 0.100000000000D+01
-.280408510344D-06 0.000000000000D+00 -.272771273573D-07 0.783274370006D-06 0.000000000000D+00  7 2 -2 23 -11 11 23 21 2 0.12116608D+00 0.36597892D-01 0.70615833D+05 0.70615833D+05 0.70615833D+05 0.11343364D+01  1  2  3  2  7  2       -2 -.111551491597D-04 0.100000000000D+01
0.441326931745D-06 0.000000000000D+00 0.000000000000D+00 0.783274370006D-06 0.000000000000D+00  7 2 -2 23 -11 11 23 21 2 0.12116608D+00 0.36597892D-01 0.70615833D+05 0.70615833D+05 0.70615833D+05 0.11343364D+01  1  2 15  2  7  2       -2 0.175567701057D-04 0.100000000000D+01
0.466851115720D-05 0.000000000000D+00 0.000000000000D+00 0.783274370006D-06 0.000000000000D+00  7 2 -2 23 -11 11 23 21 2 0.12116608D+00 0.42841744D-01 0.98971600D+05 0.98971600D+05 0.98971600D+05 0.11220906D+01  1  2 12  2  7  2       -2 0.134882906999D-03 0.100000000000D+01
-.426653938153D-05 0.000000000000D+00 0.000000000000D+00 0.783274370006D-06 0.000000000000D+00  7 2 -2 23 -11 11 23 21 2 0.12116608D+00 0.36597892D-01 0.70615833D+05 0.70615833D+05 0.70615833D+05 0.11343364D+01  1  2  4  2  7  2       -2 -.169730523294D-03 0.100000000000D+01
0.110776717327D-06 0.000000000000D+00 0.000000000000D+00 0.783274370006D-06 0.000000000000D+00  7 2 21 23 -11 11 23 2 2 0.12116608D+00 0.42841744D-01 0.98971600D+05 0.98971600D+05 0.98971600D+05 0.11220906D+01  1  2 12  4  7  2       -2 0.354748179481D-04 0.100000000000D+01
  </mgrwgt>
  </event>
  <event>
  8     66 0.55102590E-06 0.13649308E+03 0.75467711E-02 0.10112777E+00
        2 -1    0    0  501    0 0.00000000E+00 0.00000000E+00 0.17779866E+04 0.17779867E+04 0.32000000E+00 0.0000E+00 0.9000E+01
       -2 -1    0    0    0  501 0.00000000E+00 0.00000000E+00 -.41329671E+02 0.41330910E+02 0.32000000E+00 0.0000E+00 0.9000E+01
       25  2    1    2    0    0 0.14973360E+03 0.35317527E+02 0.84647564E+03 0.91188522E+03 0.30223529E+03 0.0000E+00 0.0000E+00
       23  2    1    2    0    0 -.14973360E+03 -.35317527E+02 0.89018132E+03 0.90743235E+03 0.85692525E+02 0.0000E+00 0.0000E+00
       23  1    3    3    0    0 -.23559189E+02 -.25452066E+02 0.49883392E+03 0.50828473E+03 0.91188000E+02 0.0000E+00 0.9000E+01
      -11  1    4    4    0    0 -.18032179E+02 -.21454580E+02 0.35520226E+03 0.35630619E+03 0.51099893E-03 0.0000E+00 0.9000E+01
       11  1    4    4    0    0 -.13170142E+03 -.13862947E+02 0.53497907E+03 0.55112616E+03 0.51099893E-03 0.0000E+00 0.9000E+01
       23  1    3    3    0    0 0.17329278E+03 0.60769594E+02 0.34764172E+03 0.40360048E+03 0.91188000E+02 0.0000E+00 0.9000E+01
#aMCatNLO 1  0  0  2  1 0.10873350D+03 0.00000000D+00  -5  7  0 0.00000000D+00 0.00000000D+00 0.00000000D+00 0.00000000D+00 0.00000000D+00
  <mgrwgt>
 0.2313719055D-03    9    2    0
 0.271080717857226D+03 0.000000000000000D+00 0.000000000000000D+00 0.271080717857226D+03
 0.271080717857226D+03 0.000000000000000D+00 0.000000000000000D+00 -.271080717857226D+03
 0.107768553369517D+03 -.235591884407588D+02 -.254520662161389D+02 0.457817290706744D+02
 0.578603346970210D+02 -.180321794064672D+02 -.214545800338172D+02 0.506197573352224D+02
 0.135749953698106D+03 -.131701417028427D+03 -.138629474387026D+02 0.298430120807857D+02
 0.240782593949808D+03 0.173292784875653D+03 0.607695936886587D+02 -.126244498486683D+03
 0.000000000000000D+00 0.000000000000000D+00 0.000000000000000D+00 -.000000000000000D+00
 0.290526717328896D+03 0.000000000000000D+00 0.000000000000000D+00 0.290526717328896D+03
 0.486882399252988D+03 0.000000000000000D+00 0.000000000000000D+00 -.486882399252988D+03
 0.116407137277337D+03 -.318118843221712D+02 -.461238285951732D+02 0.457817290706744D+02
 0.643495316498231D+02 -.225311545529622D+02 -.327238363488348D+02 0.506197573352224D+02
 0.150828599341383D+03 -.142251381824101D+03 -.402890230504961D+02 0.298430120807857D+02
 0.221372231687756D+03 0.156279239762405D+03 0.181532211893161D+02 -.126244498486683D+03
 0.224451616625585D+03 0.403151809368295D+02 0.100983466805188D+03 -.196355681924091D+03
0.207160078945D-05 0.000000000000D+00 0.000000000000D+00 0.730463933191D-09 0.000000000000D+00  7 2 -2 23 -11 11 23 21 0 0.27353650D+00 0.63585084D-02 0.53603571D+05 0.53603571D+05 0.53603571D+05 0.11446464D+01  1  2  2  2  7  2       -2 0.295289915823D-03 0.100000000000D+01
-.111607564457D-06 0.000000000000D+00 -.795549249651D-08 0.730463933191D-09 0.000000000000D+00  7 2 -2 23 -11 11 23 21 2 0.27353650D+00 0.63585084D-02 0.53603571D+05 0.53603571D+05 0.53603571D+05 0.11446464D+01  1  2  3  2  7  2       -2 -.208438939350D-04 0.100000000000D+01
0.133060293732D-06 0.000000000000D+00 0.000000000000D+00 0.730463933191D-09 0.000000000000D+00  7 2 -2 23 -11 11 23 21 2 0.27353650D+00 0.63585084D-02 0.53603571D+05 0.53603571D+05 0.53603571D+05 0.11446464D+01  1  2 15  2  7  2       -2 0.248504181863D-04 0.100000000000D+01
0.228075444102D-05 0.000000000000D+00 0.000000000000D+00 0.730463933191D-09 0.000000000000D+00  7 2 -2 23 -11 11 23 21 2 0.27353650D+00 0.11485892D-01 0.85609818D+05 0.85609818D+05 0.85609818D+05 0.11273017D+01  1  2 12  2  7  2       -2 0.167048282006D-03 0.100000000000D+01
-.300686740895D-05 0.000000000000D+00 0.000000000000D+00 0.730463933191D-09 0.000000000000D+00  7 2 -2 23 -11 11 23 21 2 0.27353650D+00 0.63585084D-02 0.53603571D+05 0.53603571D+05 0.53603571D+05 0.11446464D+01  1  2  4  2  7  2       -2 -.561564313795D-03 0.100000000000D+01
-.316534261224D-05 0.000000000000D+00 -.691111645082D-06 0.730463933191D-09 0.000000000000D+00  7 2 -2 23 -11 11 23 21 2 0.27353650D+00 0.12270327D-01 0.53603571D+05 0.53603571D+05 0.53603571D+05 0.11446464D+01  1  2  5  2  7  2       -2 -.217672008452D-03 0.100000000000D+01
0.306063219955D-05 0.000000000000D+00 0.564644935522D-06 0.730463933191D-09 0.000000000000D+00  7 2 -2 23 -11 11 23 21 2 0.27353650D+00 0.63585084D-02 0.53603571D+05 0.53603571D+05 0.53603571D+05 0.11446464D+01  1  2  6  2  7  2       -2 0.571605457495D-03 0.100000000000D+01
0.147799891287D-06 0.000000000000D+00 0.000000000000D+00 0.730463933191D-09 0.000000000000D+00  7 2 21 23 -11 11 23 2 2 0.27353650D+00 0.11485892D-01 0.85609818D+05 0.85609818D+05 0.85609818D+05 0.11273017D+01  1  2 12  4  7  2       -2 0.154503494623D-03 0.100000000000D+01
-.185581531236D-06 0.000000000000D+00 -.492819304655D-07 0.730463933191D-09 0.000000000000D+00  7 2 21 23 -11 11 23 2 2 0.27353650D+00 0.12270327D-01 0.53603571D+05 0.53603571D+05 0.53603571D+05 0.11446464D+01  1  2  5  4  7  2       -2 -.181845446445D-03 0.100000000000D+01
  </mgrwgt>
  </event>
  <event>
  8     66 0.55102590E-06 0.60291856E+03 0.75467711E-02 0.91613538E-01
        2 -1    0    0  501    0 0.00000000E+00 0.00000000E+00 0.14644243E+04 0.14644243E+04 0.32000000E+00 0.0000E+00 0.9000E+01
       -2 -1    0    0    0  501 0.00000000E+00 0.00000000E+00 -.33408003E+03 0.33408018E+03 0.32000000E+00 0.0000E+00 0.9000E+01
       25  2    1    2    0    0 -.54993925E+03 -.16396279E+03 0.15889557E+03 0.66647845E+03 0.29938059E+03 0.0000E+00 0.0000E+00
       23  2    1    2    0    0 0.54993925E+03 0.16396279E+03 0.97144868E+03 0.11320261E+04 0.91942670E+02 0.0000E+00 0.0000E+00
       23  1    3    3    0    0 -.42243684E+03 -.17819926E+03 0.19247035E+03 0.50553729E+03 0.91188000E+02 0.0000E+00 0.9000E+01
      -13  1    4    4    0    0 0.14918378E+03 0.87615116E+02 0.27558944E+03 0.32539477E+03 0.10565837E+00 0.0000E+00 0.9000E+01
       13  1    4    4    0    0 0.40075547E+03 0.76347677E+02 0.69585924E+03 0.80663128E+03 0.10565837E+00 0.0000E+00 0.9000E+01
       23  1    3    3    0    0 -.12750241E+03 0.14236465E+02 -.33574771E+02 0.16094116E+03 0.91188000E+02 0.0000E+00 0.9000E+01
#aMCatNLO 1  0  0  1  1 0.10697716D+03 0.00000000D+00  -5  7  0 0.00000000D+00 0.00000000D+00 0.00000000D+00 0.00000000D+00 0.00000000D+00
  <mgrwgt>
 0.2557879654D-03    4    2    0
 0.699453409836033D+03 0.000000000000000D+00 0.000000000000000D+00 0.699453409836033D+03
 0.699453409836033D+03 0.000000000000000D+00 0.000000000000000D+00 -.699453409836033D+03
 0.494424161410197D+03 -.422436842268480D+03 -.178199258043840D+03 -.161034588734957D+03
 0.195661715968462D+03 0.149183446958641D+03 0.876151311439286D+02 0.913859674342492D+02
 0.474777865125692D+03 0.400755805323859D+03 0.763476616761971D+02 0.242857654335027D+03
 0.234043077167716D+03 -.127502410014020D+03 0.142364652237139D+02 -.173209033034320D+03
 0.000000000000000D+00 0.000000000000000D+00 0.000000000000000D+00 -.000000000000000D+00
 0.707331070867526D+03 0.000000000000000D+00 0.000000000000000D+00 0.707331070867526D+03
 0.119177934082309D+04 0.000000000000000D+00 0.000000000000000D+00 -.119177934082309D+04
 0.520442743609282D+03 -.436719030278222D+03 -.214218925063520D+03 -.161034588734957D+03
 0.185799602380173D+03 0.143815154584387D+03 0.740763019636212D+02 0.913859674342492D+02
 0.459440594396418D+03 0.387608580190126D+03 0.431903701444776D+02 0.242857654335027D+03
 0.237308293522939D+03 -.134135722088300D+03 -.249274265327486D+01 -.173209033034320D+03
 0.496119177781801D+03 0.394310175920090D+02 0.994449956086956D+02 -.484448269955561D+03
0.428402999092D-04 0.000000000000D+00 0.000000000000D+00 0.651684402320D-06 0.000000000000D+00  7 2 -2 23 -13 13 23 21 0 0.22529606D+00 0.51396942D-01 0.36351078D+06 0.36351078D+06 0.36351078D+06 0.10784353D+01  1  2  2  1  7  1        2 0.260293045940D-03 0.100000000000D+01
-.231618822445D-05 0.000000000000D+00 -.164518031762D-06 0.651684402320D-06 0.000000000000D+00  7 2 -2 23 -13 13 23 21 2 0.22529606D+00 0.51396942D-01 0.36351078D+06 0.36351078D+06 0.36351078D+06 0.10784353D+01  1  2  3  1  7  1        2 -.163671126352D-04 0.100000000000D+01
0.267097361360D-05 0.000000000000D+00 0.000000000000D+00 0.651684402320D-06 0.000000000000D+00  7 2 -2 23 -13 13 23 21 2 0.22529606D+00 0.51396942D-01 0.36351078D+06 0.36351078D+06 0.36351078D+06 0.10784353D+01  1  2 15  1  7  1        2 0.188741681345D-04 0.100000000000D+01
-.992320837817D-06 0.000000000000D+00 0.000000000000D+00 0.651684402320D-06 0.000000000000D+00  7 2 -2 23 -13 13 23 21 2 0.22529606D+00 0.51396942D-01 0.36351078D+06 0.36351078D+06 0.36351078D+06 0.10784353D+01  1  2  4  1  7  1        2 -.701213603944D-05 0.100000000000D+01
  </mgrwgt>
  </event>
  <event>
  8     66 0.55102590E-06 0.16395088E+03 0.75467711E-02 0.99343033E-01
        2 -1    0    0  501    0 0.00000000E+00 0.00000000E+00 0.56777609E+03 0.56777618E+03 0.32000000E+00 0.0000E+00 0.9000E+01
       -2 -1    0    0    0  501 0.00000000E+00 0.00000000E+00 -.18375715E+03 0.18375743E+03 0.32000000E+00 0.0000E+00 0.9000E+01
       25  2    1    2    0    0 0.11373997E+03 0.19359762E+03 0.34790093E+03 0.51086715E+03 0.29922127E+03 0.0000E+00 0.0000E+00
       23  2    1    2    0    0 -.11373997E+03 -.19359762E+03 0.36118022E+02 0.24066646E+03 0.78733806E+02 0.0000E+00 0.0000E+00
       23  1    3    3    0    0 -.64304219E+02 0.11175407E+03 0.14298283E+03 0.21303367E+03 0.91188000E+02 0.0000E+00 0.9000E+01
      -13  1    4    4    0    0 -.36179360E+02 -.11945940E+03 -.70421781E+01 0.12501639E+03 0.10565837E+00 0.0000E+00 0.9000E+01
       13  1    4    4    0    0 -.77560614E+02 -.74138227E+02 0.43160200E+02 0.11565007E+03 0.10565837E+00 0.0000E+00 0.9000E+01
       23  1    3    3    0    0 0.17804419E+03 0.81843552E+02 0.20491810E+03 0.29783348E+03 0.91188000E+02 0.0000E+00 0.9000E+01
#aMCatNLO 1  0  0  2  1 0.65504560D+02 0.00000000D+00  -5  7  0 0.00000000D+00 0.00000000D+00 0.00000000D+00 0.00000000D+00 0.00000000D+00
  <mgrwgt>
 0.1052994124D-02    9    2    0
 0.323006274913924D+03 0.000000000000000D+00 0.000000000000000D+00 0.323006274913924D+03
 0.323006274913924D+03 0.000000000000000D+00 0.000000000000000D+00 -.323006274913924D+03
 0.162835613762270D+03 -.643042187936959D+02 0.111754072529736D+03 0.397011395766703D+02
 0.149623089782422D+03 -.361792868936072D+02 -.119459478426243D+03 -.825079463448137D+02
 0.108884162242929D+03 -.775606873034449D+02 -.741381460628636D+02 -.185374181245211D+02
 0.224669684040226D+03 0.178044192990748D+03 0.818435519593714D+02 0.613442248926645D+02
 0.000000000000000D+00 -.000000000000000D+00 -.000000000000000D+00 -.000000000000000D+00
 0.337449348372717D+03 0.000000000000000D+00 0.000000000000000D+00 0.337449348372717D+03
 0.408554618864375D+03 0.000000000000000D+00 0.000000000000000D+00 -.408554618864375D+03
 0.170554337675014D+03 -.563083157833707D+02 0.126596697609838D+03 0.397011395766703D+02
 0.137986417374846D+03 -.292813653630912D+02 -.106655013067271D+03 -.825079463448137D+02
 0.990943386061542D+02 -.725726067873621D+02 -.648788780509862D+02 -.185374181245211D+02
 0.241689988196376D+03 0.189229193291611D+03 0.102606030665300D+03 0.613442248926645D+02
 0.966788853847017D+02 -.310669053577874D+02 -.576688371568803D+02 -.711052704916575D+02
0.113032519718D-04 0.000000000000D+00 0.000000000000D+00 0.107429615594D-08 0.000000000000D+00  7 2 -2 23 -13 13 23 21 0 0.87350197D-01 0.28270359D-01 0.91859568D+05 0.91859568D+05 0.91859568D+05 0.11247607D+01  1  2  2  2  7  2       -2 0.811721488902D-03 0.100000000000D+01
-.624863910142D-06 0.000000000000D+00 -.434074637863D-07 0.107429615594D-08 0.000000000000D+00  7 2 -2 23 -13 13 23 21 2 0.87350197D-01 0.28270359D-01 0.91859568D+05 0.91859568D+05 0.91859568D+05 0.11247607D+01  1  2  3  2  7  2       -2 -.567687547039D-04 0.100000000000D+01
0.725474586958D-06 0.000000000000D+00 0.000000000000D+00 0.107429615594D-08 0.000000000000D+00  7 2 -2 23 -13 13 23 21 2 0.87350197D-01 0.28270359D-01 0.91859568D+05 0.91859568D+05 0.91859568D+05 0.11247607D+01  1  2 15  2  7  2       -2 0.659092135144D-04 0.100000000000D+01
0.210224312593D-04 0.000000000000D+00 0.000000000000D+00 0.107429615594D-08 0.000000000000D+00  7 2 -2 23 -13 13 23 21 2 0.87350197D-01 0.36269578D-01 0.11326445D+06 0.11326445D+06 0.11326445D+06 0.11173099D+01  1  2 12  2  7  2       -2 0.120806626451D-02 0.100000000000D+01
-.215425818622D-04 0.000000000000D+00 0.000000000000D+00 0.107429615594D-08 0.000000000000D+00  7 2 -2 23 -13 13 23 21 2 0.87350197D-01 0.28270359D-01 0.91859568D+05 0.91859568D+05 0.91859568D+05 0.11247607D+01  1  2  4  2  7  2       -2 -.195713902751D-02 0.100000000000D+01
-.314464262319D-04 0.000000000000D+00 -.634157686784D-05 0.107429615594D-08 0.000000000000D+00  7 2 -2 23 -13 13 23 21 2 0.87350197D-01 0.37069108D-01 0.91859568D+05 0.91859568D+05 0.91859568D+05 0.11247607D+01  1  2  5  2  7  2       -2 -.176373899343D-02 0.100000000000D+01
0.322012654582D-04 0.000000000000D+00 0.611567849636D-05 0.107429615594D-08 0.000000000000D+00  7 2 -2 23 -13 13 23 21 2 0.87350197D-01 0.28270359D-01 0.91859568D+05 0.91859568D+05 0.91859568D+05 0.11247607D+01  1  2  6  2  7  2       -2 0.292547818859D-02 0.100000000000D+01
0.709713836139D-06 0.000000000000D+00 0.000000000000D+00 0.107429615594D-08 0.000000000000D+00  7 2 21 23 -13 13 23 2 2 0.87350197D-01 0.36269578D-01 0.11326445D+06 0.11326445D+06 0.11326445D+06 0.11173099D+01  1  2 12  4  7  2       -2 0.464835593834D-03 0.100000000000D+01
-.100792272827D-05 0.000000000000D+00 -.227681732366D-06 0.107429615594D-08 0.000000000000D+00  7 2 21 23 -13 13 23 2 2 0.87350197D-01 0.37069108D-01 0.91859568D+05 0.91859568D+05 0.91859568D+05 0.11247607D+01  1  2  5  4  7  2       -2 -.645369849542D-03 0.100000000000D+01
  </mgrwgt>
  </event>
  <event>
  8     66 0.55102590E-06 0.20234989E+03 0.75467711E-02 0.10004967E+00
        2 -1    0    0  501    0 0.00000000E+00 0.00000000E+00 0.15244330E+04 0.15244331E+04 0.32000000E+00 0.0000E+00 0.9000E+01
       -2 -1    0    0    0  501 0.00000000E+00 0.00000000E+00 -.77477043E+02 0.77477703E+02 0.32000000E+00 0.0000E+00 0.9000E+01
       25  2    1    2    0    0 -.23729927E+03 -.78686701E+01 0.55205659E+03 0.67171016E+03 0.30009198E+03 0.0000E+00 0.0000E+00
       23  2    1    2    0    0 0.23729927E+03 0.78686701E+01 0.89489938E+03 0.93020060E+03 0.89751806E+02 0.0000E+00 0.0000E+00
       23  1    3    3    0    0 -.93579703E+02 0.11389754E+03 0.24495477E+03 0.30007982E+03 0.91188000E+02 0.0000E+00 0.9000E+01
      -11  1    4    4    0    0 0.42635332E+02 0.39944582E+01 0.65510888E+02 0.78264959E+02 0.51099893E-03 0.0000E+00 0.9000E+01
       11  1    4    4    0    0 0.19466394E+03 0.38742119E+01 0.82938850E+03 0.85193564E+03 0.51099893E-03 0.0000E+00 0.9000E+01
       23  1    3    3    0    0 -.14371957E+03 -.12176621E+03 0.30710183E+03 0.37163034E+03 0.91188000E+02 0.0000E+00 0.9000E+01
#aMCatNLO 1  0  0  2  1 0.15772490D+02 0.00000000D+00  -5  7  0 0.00000000D+00 0.00000000D+00 0.00000000D+00 0.00000000D+00 0.00000000D+00
  <mgrwgt>
 0.3258892679D-03    6    2    0
 0.343670071811413D+03 0.000000000000000D+00 0.000000000000000D+00 0.343670071811413D+03
 0.343670071811413D+03 0.000000000000000D+00 0.000000000000000D+00 -.343670071811413D+03
 0.183697012367272D+03 -.935797029754822D+02 0.113897540346840D+03 -.608237659358762D+02
 0.444934107725075D+02 0.426353319683993D+02 0.399445817517475D+01 -.120804128241649D+02
 0.239526566648409D+03 0.194663937317371D+03 0.387421188524590D+01 0.139513146766682D+03
 0.219623153834636D+03 -.143719566310288D+03 -.121766210407261D+03 -.666089680066407D+02
 0.000000000000000D+00 -.000000000000000D+00 -.000000000000000D+00 0.000000000000000D+00
 0.352792941534767D+03 0.000000000000000D+00 0.000000000000000D+00 0.352792941534767D+03
 0.350646074752489D+03 0.000000000000000D+00 0.000000000000000D+00 -.350646074752489D+03
 0.185408655289362D+03 -.920525795911425D+02 0.117846977900172D+03 -.608237659358762D+02
 0.449434584656080D+02 0.430053645807479D+02 0.495143435021958D+01 -.120804128241649D+02
 0.241283543414253D+03 0.196653222302252D+03 0.901888906335266D+01 0.139513146766682D+03
 0.215885429405437D+03 -.141917710094509D+03 -.117106260414169D+03 -.666089680066407D+02
 0.159179297125965D+02 -.568829719734816D+01 -.147110408995746D+02 0.214686678227744D+01
0.245565455328D-05 0.000000000000D+00 0.000000000000D+00 0.416199347806D-06 0.000000000000D+00  7 2 -2 23 -11 11 23 21 0 0.23452821D+00 0.11919598D-01 0.96142891D+05 0.96142891D+05 0.96142891D+05 0.11231266D+01  1  2  2  2  7  2       -2 0.182059113657D-03 0.100000000000D+01
-.134669373442D-06 0.000000000000D+00 -.943036007327D-08 0.416199347806D-06 0.000000000000D+00  7 2 -2 23 -11 11 23 21 2 0.23452821D+00 0.11919598D-01 0.96142891D+05 0.96142891D+05 0.96142891D+05 0.11231266D+01  1  2  3  2  7  2       -2 -.125942238357D-04 0.100000000000D+01
0.157316891815D-06 0.000000000000D+00 0.000000000000D+00 0.416199347806D-06 0.000000000000D+00  7 2 -2 23 -11 11 23 21 2 0.23452821D+00 0.11919598D-01 0.96142891D+05 0.96142891D+05 0.96142891D+05 0.11231266D+01  1  2 15  2  7  2       -2 0.147122103416D-04 0.100000000000D+01
0.327910495630D-05 0.000000000000D+00 0.000000000000D+00 0.416199347806D-06 0.000000000000D+00  7 2 -2 23 -11 11 23 21 2 0.23452821D+00 0.12316117D-01 0.10125847D+06 0.10125847D+06 0.10125847D+06 0.11212766D+01  1  2 12  2  7  2       -2 0.290141200597D-03 0.100000000000D+01
-.221508206903D-05 0.000000000000D+00 0.000000000000D+00 0.416199347806D-06 0.000000000000D+00  7 2 -2 23 -11 11 23 21 2 0.23452821D+00 0.11919598D-01 0.96142891D+05 0.96142891D+05 0.96142891D+05 0.11231266D+01  1  2  4  2  7  2       -2 -.207153554508D-03 0.100000000000D+01
0.472542410140D-07 0.000000000000D+00 0.000000000000D+00 0.416199347806D-06 0.000000000000D+00  7 2 21 23 -11 11 23 2 2 0.23452821D+00 0.12316117D-01 0.10125847D+06 0.10125847D+06 0.10125847D+06 0.11212766D+01  1  2 12  4  7  2       -2 0.587245216642D-04 0.100000000000D+01
  </mgrwgt>
  </event>
  <event>
  8     66 0.55102590E-06 0.31694349E+03 0.75467711E-02 0.98320601E-01
        2 -1    0    0  501    0 0.00000000E+00 0.00000000E+00 0.14642763E+04 0.14642763E+04 0.32000000E+00 0.0000E+00 0.9000E+01
       -2 -1    0    0    0  501 0.00000000E+00 0.00000000E+00 -.12697902E+03 0.12697942E+03 0.32000000E+00 0.0000E+00 0.9000E+01
       25  2    1    2    0    0 0.21950375E+03 -.17708038E+03 0.29302928E+03 0.50571271E+03 0.30056585E+03 0.0000E+00 0.0000E+00
       23  2    1    2    0    0 -.21950375E+03 0.17708038E+03 0.10442680E+04 0.10855430E+04 0.91480580E+02 0.0000E+00 0.0000E+00
       23  1    3    3    0    0 0.16799956E+03 -.12343347E+03 0.46076930E+02 0.23215945E+03 0.91188000E+02 0.0000E+00 0.9000E+01
      -11  1    4    4    0    0 -.74247918E+02 0.99051996E+02 0.57427624E+03 0.58746681E+03 0.51099893E-03 0.0000E+00 0.9000E+01
       11  1    4    4    0    0 -.14525583E+03 0.78028387E+02 0.46999171E+03 0.49807619E+03 0.51099893E-03 0.0000E+00 0.9000E+01
       23  1    3    3    0    0 0.51504188E+02 -.53646909E+02 0.24695235E+03 0.27355326E+03 0.91188000E+02 0.0000E+00 0.9000E+01
#aMCatNLO 1  0  0  2  1 0.89036745D+02 0.00000000D+00  -5  7  0 0.00000000D+00 0.00000000D+00 0.00000000D+00 0.00000000D+00 0.00000000D+00
  <mgrwgt>
 0.2296146441D-03    4    2    0
 0.431199156630854D+03 0.000000000000000D+00 0.000000000000000D+00 0.431199156630854D+03
 0.431199156630854D+03 0.000000000000000D+00 0.000000000000000D+00 -.431199156630854D+03
 0.356919177063114D+03 0.167999558789251D+03 -.123433474588584D+03 -.274984314478148D+03
 0.193451083135501D+03 -.742479175335338D+02 0.990519964359098D+02 0.148658233240855D+03
 0.190222973502689D+03 -.145255829424000D+03 0.780283866726043D+02 0.948530154492779D+02
 0.121805079560404D+03 0.515041881682825D+02 -.536469085199304D+02 0.314730657880154D+02
 0.000000000000000D+00 -.000000000000000D+00 0.000000000000000D+00 0.000000000000000D+00
 0.533005290519964D+03 0.000000000000000D+00 0.000000000000000D+00 0.533005290519964D+03
 0.453406796034485D+03 0.000000000000000D+00 0.000000000000000D+00 -.453406796034485D+03
 0.377365818058458D+03 0.205608543999744D+03 -.127273181464979D+03 -.274984314478148D+03
 0.185814738777890D+03 -.548224862882387D+02 0.970687479778073D+02 0.148658233240855D+03
 0.175496755928468D+03 -.126524208886004D+03 0.761159731420817D+02 0.948530154492779D+02
 0.128305035792697D+03 0.643144562410379D+02 -.549547788102914D+02 0.314730657880154D+02
 0.119429737996936D+03 -.885763050665390D+02 0.904323915538146D+01 0.795984944854787D+02
0.783067585044D-05 0.000000000000D+00 0.000000000000D+00 0.442257913963D-06 0.000000000000D+00  7 2 -2 23 -11 11 23 21 0 0.22527330D+00 0.19535268D-01 0.10045318D+06 0.10045318D+06 0.10045318D+06 0.11215609D+01  1  2  2  2  7  2       -2 0.283098059919D-03 0.100000000000D+01
-.384909951768D-06 0.000000000000D+00 -.300718571300D-07 0.442257913963D-06 0.000000000000D+00  7 2 -2 23 -11 11 23 21 2 0.22527330D+00 0.19535268D-01 0.10045318D+06 0.10045318D+06 0.10045318D+06 0.11215609D+01  1  2  3  2  7  2       -2 -.175042108578D-04 0.100000000000D+01
0.490997482207D-06 0.000000000000D+00 0.000000000000D+00 0.442257913963D-06 0.000000000000D+00  7 2 -2 23 -11 11 23 21 2 0.22527330D+00 0.19535268D-01 0.10045318D+06 0.10045318D+06 0.10045318D+06 0.11215609D+01  1  2 15  2  7  2       -2 0.223286600405D-04 0.100000000000D+01
-.128216448438D-05 0.000000000000D+00 0.000000000000D+00 0.442257913963D-06 0.000000000000D+00  7 2 -2 23 -11 11 23 21 2 0.22527330D+00 0.19535268D-01 0.10045318D+06 0.10045318D+06 0.10045318D+06 0.11215609D+01  1  2  4  2  7  2       -2 -.583078649591D-04 0.100000000000D+01
  </mgrwgt>
  </event>
  <event>
  8     66 0.55102590E-06 0.33592573E+03 0.75467711E-02 0.96677809E-01
        2 -1    0    0  501    0 0.00000000E+00 0.00000000E+00 0.33736123E+03 0.33736138E+03 0.32000000E+00 0.0000E+00 0.9000E+01
       -2 -1    0    0    0  501 0.00000000E+00 0.00000000E+00 -.41096770E+03 0.41096783E+03 0.32000000E+00 0.0000E+00 0.9000E+01
       25  2    1    2    0    0 -.15250066E+03 0.22470589E+03 0.92812981E+02 0.41677987E+03 0.30222843E+03 0.0000E+00 0.0000E+00
       23  2    1    2    0    0 0.15250066E+03 -.22470589E+03 -.16641945E+03 0.33154934E+03 0.92088771E+02 0.0000E+00 0.0000E+00
       23  1    3    3    0    0 -.18032009E+03 0.21382681E+03 0.11893884E+03 0.31733096E+03 0.91188000E+02 0.0000E+00 0.9000E+01
      -11  1    4    4    0    0 0.11170264E+03 -.98044615E+02 -.56687565E+02 0.15907138E+03 0.51099893E-03 0.0000E+00 0.9000E+01
       11  1    4    4    0    0 0.40798022E+02 -.12666128E+03 -.10973189E+03 0.17247796E+03 0.51099893E-03 0.0000E+00 0.9000E+01
       23  1    3    3    0    0 0.27819429E+02 0.10879086E+02 -.26125859E+02 0.99448917E+02 0.91188000E+02 0.0000E+00 0.9000E+01
#aMCatNLO 1  0  0  2  2 0.15187901D+03 0.00000000D+00  -5  7  0 0.00000000D+00 0.00000000D+00 0.00000000D+00 0.00000000D+00 0.00000000D+00
  <mgrwgt>
 0.1455649567D-03    4    2    0
 0.372350204422919D+03 0.000000000000000D+00 0.000000000000000D+00 0.372350204422919D+03
 0.372350204422919D+03 0.000000000000000D+00 0.000000000000000D+00 -.372350204422919D+03
 0.330633219110972D+03 -.180320086933424D+03 0.213826806521998D+03 0.150883522283285D+03
 0.154243493028664D+03 0.111702635880499D+03 -.980446147687287D+02 -.412411177574501D+02
 0.162472471448281D+03 0.407980218263350D+02 -.126661278179052D+03 -.932188071347155D+02
 0.973512252579212D+02 0.278194292265904D+02 0.108790864257825D+02 -.164235973911198D+02
 0.000000000000000D+00 -.000000000000000D+00 0.000000000000000D+00 0.000000000000000D+00
 0.652141902014125D+03 0.000000000000000D+00 0.000000000000000D+00 0.652141902014125D+03
 0.401206732571848D+03 0.000000000000000D+00 0.000000000000000D+00 -.401206732571848D+03
 0.289751697263268D+03 -.120303759971745D+03 0.195964187450143D+03 0.150883522283285D+03
 0.184957473980661D+03 0.144517096071966D+03 -.107811160509240D+03 -.412411177574501D+02
 0.181160824535606D+03 0.740412675957849D+02 -.136555443083060D+03 -.932188071347155D+02
 0.104160222651238D+03 0.473137409434503D+02 0.507700752667545D+01 -.164235973911198D+02
 0.293318416155199D+03 -.145568344639457D+03 0.433254086154824D+02 0.250935169442277D+03
0.560053473799D-05 0.000000000000D+00 0.000000000000D+00 0.155587354462D-07 0.000000000000D+00  7 2 -2 23 -11 11 23 21 0 0.51901749D-01 0.63225822D-01 0.11284609D+06 0.11284609D+06 0.11284609D+06 0.11174402D+01  1  2  2  2  7  2       -2 0.155564234054D-03 0.100000000000D+01
-.307131720046D-06 0.000000000000D+00 -.215075280485D-07 0.155587354462D-07 0.000000000000D+00  7 2 -2 23 -11 11 23 21 2 0.51901749D-01 0.63225822D-01 0.11284609D+06 0.11284609D+06 0.11284609D+06 0.11174402D+01  1  2  3  2  7  2       -2 -.106525482939D-04 0.100000000000D+01
0.352673408439D-06 0.000000000000D+00 0.000000000000D+00 0.155587354462D-07 0.000000000000D+00  7 2 -2 23 -11 11 23 21 2 0.51901749D-01 0.63225822D-01 0.11284609D+06 0.11284609D+06 0.11284609D+06 0.11174402D+01  1  2 15  2  7  2       -2 0.122321149857D-04 0.100000000000D+01
-.333838456651D-06 0.000000000000D+00 0.000000000000D+00 0.155587354462D-07 0.000000000000D+00  7 2 -2 23 -11 11 23 21 2 0.51901749D-01 0.63225822D-01 0.11284609D+06 0.11284609D+06 0.11284609D+06 0.11174402D+01  1  2  4  2  7  2       -2 -.115788440259D-04 0.100000000000D+01
  </mgrwgt>
  </event>
  <event>
  8     66 0.55102590E-06 0.25088902E+03 0.75467711E-02 0.89203761E-01
        2 -1    0    0  501    0 0.00000000E+00 0.00000000E+00 0.22224287E+04 0.22224287E+04 0.32000000E+00 0.0000E+00 0.9000E+01
       -2 -1    0    0    0  501 0.00000000E+00 0.00000000E+00 -.41124153E+03 0.41124166E+03 0.32000000E+00 0.0000E+00 0.9000E+01
       25  2    1    2    0    0 0.32051993E+03 0.65140125E+03 0.17276330E+04 0.18979656E+04 0.30083399E+03 0.0000E+00 0.0000E+00
       23  2    1    2    0    0 -.32051993E+03 -.65140125E+03 0.83554224E+02 0.73570482E+03 0.84992122E+02 0.0000E+00 0.0000E+00
       23  1    3    3    0    0 0.14426489E+01 0.99085482E+02 0.40352822E+03 0.42540603E+03 0.91188000E+02 0.0000E+00 0.9000E+01
      -13  1    4    4    0    0 -.25416939E+03 -.52938323E+03 0.10052633E+03 0.59578036E+03 0.10565837E+00 0.0000E+00 0.9000E+01
       13  1    4    4    0    0 -.66350540E+02 -.12201802E+03 -.16972104E+02 0.13992446E+03 0.10565837E+00 0.0000E+00 0.9000E+01
       23  1    3    3    0    0 0.31907728E+03 0.55231577E+03 0.13241047E+04 0.14725595E+04 0.91188000E+02 0.0000E+00 0.9000E+01
#aMCatNLO 1  0  0  1  2 0.14925691D+03 0.00000000D+00  -5  7  0 0.00000000D+00 0.00000000D+00 0.00000000D+00 0.00000000D+00 0.00000000D+00
  <mgrwgt>
 0.7605154047D-03    9    2    0
 0.956010036926668D+03 0.000000000000000D+00 0.000000000000000D+00 0.956010036926668D+03
 0.956010036926668D+03 0.000000000000000D+00 0.000000000000000D+00 -.956010036926668D+03
 0.203718639674917D+03 0.144264892552039D+01 0.990854821136192D+02 0.152859474045242D+03
 0.725420535897349D+03 -.254169681817348D+03 -.529383858091117D+03 -.425893716247410D+03
 0.208812159938519D+03 -.663502495987052D+02 -.122017390284453D+03 -.155922798155210D+03
 0.774068738342552D+03 0.319077282490533D+03 0.552315766261950D+03 0.428957040357378D+03
 0.000000000000000D+00 -.000000000000000D+00 0.000000000000000D+00 0.000000000000000D+00
 0.106216836863297D+04 0.000000000000000D+00 0.000000000000000D+00 0.106216836863297D+04
 0.101285947525272D+04 0.000000000000000D+00 0.000000000000000D+00 -.101285947525272D+04
 0.197880405140102D+03 0.986748923803044D+01 0.858953854707009D+02 0.152859474045242D+03
 0.751774159396076D+03 -.223180740038200D+03 -.577900758325033D+03 -.425893716247410D+03
 0.214686616684345D+03 -.574659915018404D+02 -.135926760498185D+03 -.155922798155210D+03
 0.753495722078178D+03 0.351122893186738D+03 0.502144524269785D+03 0.428957040357378D+03
 0.157190940586990D+03 -.803436508847285D+02 0.125787609082733D+03 0.493088933802517D+02
0.267848235826D-03 0.000000000000D+00 0.000000000000D+00 0.929716836132D-07 0.000000000000D+00  7 2 -2 23 -13 13 23 21 0 0.34191212D+00 0.63267940D-01 0.56636161D+06 0.56636161D+06 0.56636161D+06 0.10647061D+01  1  2  2  1  7  1        2 0.395396489808D-03 0.100000000000D+01
-.138446233557D-04 0.000000000000D+00 -.102860775163D-05 0.929716836132D-07 0.000000000000D+00  7 2 -2 23 -13 13 23 21 2 0.34191212D+00 0.63267940D-01 0.56636161D+06 0.56636161D+06 0.56636161D+06 0.10647061D+01  1  2  3  1  7  1        2 -.231677927558D-04 0.100000000000D+01
0.170396720971D-04 0.000000000000D+00 0.000000000000D+00 0.929716836132D-07 0.000000000000D+00  7 2 -2 23 -13 13 23 21 2 0.34191212D+00 0.63267940D-01 0.56636161D+06 0.56636161D+06 0.56636161D+06 0.10647061D+01  1  2 15  1  7  1        2 0.285144334830D-04 0.100000000000D+01
0.333713960852D-03 0.000000000000D+00 0.000000000000D+00 0.929716836132D-07 0.000000000000D+00  7 2 -2 23 -13 13 23 21 2 0.38915668D+00 0.63267940D-01 0.69011957D+06 0.69011957D+06 0.69011957D+06 0.10587575D+01  1  2 12  1  7  1        2 0.362746099890D-03 0.100000000000D+01
-.314927763385D-03 0.000000000000D+00 0.000000000000D+00 0.929716836132D-07 0.000000000000D+00  7 2 -2 23 -13 13 23 21 2 0.34191212D+00 0.63267940D-01 0.56636161D+06 0.56636161D+06 0.56636161D+06 0.10647061D+01  1  2  4  1  7  1        2 -.527004669445D-03 0.100000000000D+01
-.885811931803D-03 0.000000000000D+00 -.204099880909D-03 0.929716836132D-07 0.000000000000D+00  7 2 -2 23 -13 13 23 21 2 0.38867018D+00 0.63267940D-01 0.56636161D+06 0.56636161D+06 0.56636161D+06 0.10647061D+01  1  2  5  1  7  1        2 -.991134528254D-03 0.100000000000D+01
0.906183894671D-03 0.000000000000D+00 0.202434659363D-03 0.929716836132D-07 0.000000000000D+00  7 2 -2 23 -13 13 23 21 2 0.34191212D+00 0.63267940D-01 0.56636161D+06 0.56636161D+06 0.56636161D+06 0.10647061D+01  1  2  6  1  7  1        2 0.151642122223D-02 0.100000000000D+01
0.674495877976D-05 0.000000000000D+00 0.000000000000D+00 0.929716836132D-07 0.000000000000D+00  7 21 -2 23 -13 13 23 -2 2 0.38915668D+00 0.63267940D-01 0.69011957D+06 0.69011957D+06 0.69011957D+06 0.10587575D+01  1  2 12  3  7  1        2 0.793455473827D-06 0.100000000000D+01
-.166946173879D-04 0.000000000000D+00 -.409205742558D-05 0.929716836132D-07 0.000000000000D+00  7 21 -2 23 -13 13 23 -2 2 0.38867018D+00 0.63267940D-01 0.56636161D+06 0.56636161D+06 0.56636161D+06 0.10647061D+01  1  2  5  3  7  1        2 -.204930573123D-05 0.100000000000D+01
  </mgrwgt>
  </event>
  <event>
  8     66 0.55102590E-06 0.18686024E+03 0.75467711E-02 0.95997442E-01
        2 -1    0    0  501    0 0.00000000E+00 0.00000000E+00 0.53482734E+03 0.53482744E+03 0.32000000E+00 0.0000E+00 0.9000E+01
       -2 -1    0    0    0  501 0.00000000E+00 0.00000000E+00 -.37565086E+03 0.37565100E+03 0.32000000E+00 0.0000E+00 0.9000E+01
       25  2    1    2    0    0 -.23077624E+03 0.31022924E+03 0.15432824E+03 0.51327696E+03 0.30022688E+03 0.0000E+00 0.0000E+00
       23  2    1    2    0    0 0.23077624E+03 -.31022924E+03 0.48482347E+01 0.39720147E+03 0.90805552E+02 0.0000E+00 0.0000E+00
       23  1    3    3    0    0 -.73369226E+02 0.12397636E+03 0.18446427E+03 0.25118817E+03 0.91188000E+02 0.0000E+00 0.9000E+01
      -11  1    4    4    0    0 0.11357140E+02 -.18959878E+02 0.23238772E+02 0.32070268E+02 0.51099893E-03 0.0000E+00 0.9000E+01
       11  1    4    4    0    0 0.21941910E+03 -.29126936E+03 -.18390537E+02 0.36513120E+03 0.51099893E-03 0.0000E+00 0.9000E+01
       23  1    3    3    0    0 -.15740701E+03 0.18625288E+03 -.30136024E+02 0.26208879E+03 0.91188000E+02 0.0000E+00 0.9000E+01
#aMCatNLO 1  0  0  2  1 0.70092293D+02 0.00000000D+00  -5  7  0 0.00000000D+00 0.00000000D+00 0.00000000D+00 0.00000000D+00 0.00000000D+00
  <mgrwgt>
 0.4142494398D-03    9    2    0
 0.448228130989680D+03 0.000000000000000D+00 0.000000000000000D+00 0.448228130989680D+03
 0.448228130989680D+03 0.000000000000000D+00 0.000000000000000D+00 -.448228130989680D+03
 0.222363379045431D+03 -.733692262960310D+02 0.123976361251005D+03 0.142748168044932D+03
 0.284455840805397D+02 0.113571396838047D+02 -.189598782285213D+02 0.179078097333327D+02
 0.374107963087457D+03 0.219419098187462D+03 -.291269363309417D+03 -.835115883777436D+02
 0.271539335765933D+03 -.157407011575236D+03 0.186252880286933D+03 -.771443894005208D+02
 0.000000000000000D+00 -.000000000000000D+00 0.000000000000000D+00 -.000000000000000D+00
 0.477473672747095D+03 0.000000000000000D+00 0.000000000000000D+00 0.477473672747095D+03
 0.493654286750105D+03 0.000000000000000D+00 0.000000000000000D+00 -.493654286750105D+03
 0.212775459808024D+03 -.594712691613501D+02 0.114211530138905D+03 0.142748168044932D+03
 0.301112279827472D+02 0.132273934771537D+02 -.202739355573674D+02 0.179078097333327D+02
 0.402379795992927D+03 0.244219443796092D+03 -.308694311741995D+03 -.835115883777436D+02
 0.253925797732898D+03 -.140624110925920D+03 0.174461061617211D+03 -.771443894005208D+02
 0.719356779806036D+02 -.573514571859755D+02 0.402956555432458D+02 -.161806140030099D+02
0.124208185076D-04 0.000000000000D+00 0.000000000000D+00 0.110787009609D-05 0.000000000000D+00  7 2 -2 23 -11 11 23 21 0 0.82281147D-01 0.57792458D-01 0.16712319D+06 0.16712319D+06 0.16712319D+06 0.11038662D+01  1  2  2  2  7  2       -2 0.247822176276D-03 0.100000000000D+01
-.682935095671D-06 0.000000000000D+00 -.476992135456D-07 0.110787009609D-05 0.000000000000D+00  7 2 -2 23 -11 11 23 21 2 0.82281147D-01 0.57792458D-01 0.16712319D+06 0.16712319D+06 0.16712319D+06 0.11038662D+01  1  2  3  2  7  2       -2 -.166035992044D-04 0.100000000000D+01
0.782836147254D-06 0.000000000000D+00 0.000000000000D+00 0.110787009609D-05 0.000000000000D+00  7 2 -2 23 -11 11 23 21 2 0.82281147D-01 0.57792458D-01 0.16712319D+06 0.16712319D+06 0.16712319D+06 0.11038662D+01  1  2 15  2  7  2       -2 0.190324054425D-04 0.100000000000D+01
0.167854794214D-04 0.000000000000D+00 0.000000000000D+00 0.110787009609D-05 0.000000000000D+00  7 2 -2 23 -11 11 23 21 2 0.82281147D-01 0.65377001D-01 0.19697057D+06 0.19697057D+06 0.19697057D+06 0.10983348D+01  1  2 12  2  7  2       -2 0.311564818318D-03 0.100000000000D+01
-.151303963699D-04 0.000000000000D+00 0.000000000000D+00 0.110787009609D-05 0.000000000000D+00  7 2 -2 23 -11 11 23 21 2 0.82281147D-01 0.57792458D-01 0.16712319D+06 0.16712319D+06 0.16712319D+06 0.11038662D+01  1  2  4  2  7  2       -2 -.367851994607D-03 0.100000000000D+01
-.465441002747D-04 0.000000000000D+00 -.111882126020D-04 0.110787009609D-05 0.000000000000D+00  7 2 -2 23 -11 11 23 21 2 0.82281147D-01 0.67185923D-01 0.16712319D+06 0.16712319D+06 0.16712319D+06 0.11038662D+01  1  2  5  2  7  2       -2 -.826628198094D-03 0.100000000000D+01
0.478115469377D-04 0.000000000000D+00 0.110625152794D-04 0.110787009609D-05 0.000000000000D+00  7 2 -2 23 -11 11 23 21 2 0.82281147D-01 0.57792458D-01 0.16712319D+06 0.16712319D+06 0.16712319D+06 0.11038662D+01  1  2  6  2  7  2       -2 0.116240001096D-02 0.100000000000D+01
0.325842929644D-06 0.000000000000D+00 0.000000000000D+00 0.110787009609D-05 0.000000000000D+00  7 2 21 23 -11 11 23 2 2 0.82281147D-01 0.65377001D-01 0.19697057D+06 0.19697057D+06 0.19697057D+06 0.10983348D+01  1  2 12  4  7  2       -2 0.608258610531D-04 0.100000000000D+01
-.986966622695D-06 0.000000000000D+00 -.256047209787D-06 0.110787009609D-05 0.000000000000D+00  7 2 21 23 -11 11 23 2 2 0.82281147D-01 0.67185923D-01 0.16712319D+06 0.16712319D+06 0.16712319D+06 0.11038662D+01  1  2  5  4  7  2       -2 -.176312040379D-03 0.100000000000D+01
  </mgrwgt>
  </event>
  <event>
  8     66 0.55102590E-06 0.20537420E+03 0.75467711E-02 0.10021273E+00
        2 -1    0    0  501    0 0.00000000E+00 0.00000000E+00 0.38080131E+04 0.38080132E+04 0.32000000E+00 0.0000E+00 0.9000E+01
       -2 -1    0    0    0  501 0.00000000E+00 0.00000000E+00 -.34358246E+02 0.34359736E+02 0.32000000E+00 0.0000E+00 0.9000E+01
       25  2    1    2    0    0 -.15178011E+03 0.14358809E+03 0.32643382E+04 0.32847024E+04 0.29951846E+03 0.0000E+00 0.0000E+00
       23  2    1    2    0    0 0.15178011E+03 -.14358809E+03 0.50931672E+03 0.55767050E+03 0.89096181E+02 0.0000E+00 0.0000E+00
       23  1    3    3    0    0 -.48526966E+02 0.19090039E+03 0.21366672E+04 0.21476638E+04 0.91188000E+02 0.0000E+00 0.9000E+01
      -13  1    4    4    0    0 0.47013192E+02 0.27132556E+01 0.98931515E+02 0.10956759E+03 0.10565837E+00 0.0000E+00 0.9000E+01
       13  1    4    4    0    0 0.10476692E+03 -.14630134E+03 0.41038520E+03 0.44810290E+03 0.10565837E+00 0.0000E+00 0.9000E+01
       23  1    3    3    0    0 -.10325315E+03 -.47312309E+02 0.11276710E+04 0.11370386E+04 0.91188000E+02 0.0000E+00 0.9000E+01
#aMCatNLO 1  0  0  1  2 0.37601166D+02 0.00000000D+00  -5  7  0 0.00000000D+00 0.00000000D+00 0.00000000D+00 0.00000000D+00 0.00000000D+00
  <mgrwgt>
 0.4097085872D-03    9    2    0
 0.361717489087564D+03 0.000000000000000D+00 0.000000000000000D+00 0.361717489087564D+03
 0.361717489087564D+03 0.000000000000000D+00 0.000000000000000D+00 -.361717489087564D+03
 0.261364926238385D+03 -.485269660228161D+02 0.190900393623827D+03 0.145597206726245D+03
 0.658884144799990D+02 0.470131110111709D+02 0.271346498020024D+01 -.460834858006715D+02
 0.239311777617414D+03 0.104767000113347D+03 -.146301550102630D+03 -.157765202219070D+03
 0.156869859839330D+03 -.103253145101702D+03 -.473123085013975D+02 0.582514812934971D+02
 0.000000000000000D+00 0.000000000000000D+00 0.000000000000000D+00 0.000000000000000D+00
 0.416059123664447D+03 0.000000000000000D+00 0.000000000000000D+00 0.416059123664447D+03
 0.368769160377252D+03 0.000000000000000D+00 0.000000000000000D+00 -.368769160377252D+03
 0.253351419679338D+03 -.533026005897138D+02 0.178415180613716D+03 0.145597206726245D+03
 0.649726441479368D+02 0.457989576235800D+02 -.460765262644201D+00 -.460834858006715D+02
 0.244791716255618D+03 0.100275397315744D+03 -.158044202707080D+03 -.157765202219070D+03
 0.161295715764119D+03 -.106205144844666D+03 -.550298892920582D+02 0.582514812934971D+02
 0.604167881946872D+02 0.134333904950558D+02 0.351196766480663D+02 0.472899632871956D+02
0.190771420903D-04 0.000000000000D+00 0.000000000000D+00 0.838683361057D-07 0.000000000000D+00  7 2 -2 23 -13 13 23 21 0 0.58584829D+00 0.52859997D-02 0.86949916D+05 0.86949916D+05 0.86949916D+05 0.11267400D+01  1  2  2  1  7  1        2 0.203911206606D-03 0.100000000000D+01
-.100604611001D-05 0.000000000000D+00 -.732612487538D-07 0.838683361057D-07 0.000000000000D+00  7 2 -2 23 -13 13 23 21 2 0.58584829D+00 0.52859997D-02 0.86949916D+05 0.86949916D+05 0.86949916D+05 0.11267400D+01  1  2  3  1  7  1        2 -.136519007690D-04 0.100000000000D+01
0.119498587286D-05 0.000000000000D+00 0.000000000000D+00 0.838683361057D-07 0.000000000000D+00  7 2 -2 23 -13 13 23 21 2 0.58584829D+00 0.52859997D-02 0.86949916D+05 0.86949916D+05 0.86949916D+05 0.11267400D+01  1  2 15  1  7  1        2 0.162157861297D-04 0.100000000000D+01
0.360680340068D-04 0.000000000000D+00 0.000000000000D+00 0.838683361057D-07 0.000000000000D+00  7 2 -2 23 -13 13 23 21 2 0.67901233D+00 0.52859997D-02 0.98696485D+05 0.98696485D+05 0.98696485D+05 0.11221900D+01  1  2 12  1  7  1        2 0.148056930156D-03 0.100000000000D+01
-.377160877021D-04 0.000000000000D+00 0.000000000000D+00 0.838683361057D-07 0.000000000000D+00  7 2 -2 23 -13 13 23 21 2 0.58584829D+00 0.52859997D-02 0.86949916D+05 0.86949916D+05 0.86949916D+05 0.11267400D+01  1  2  4  1  7  1        2 -.511801876253D-03 0.100000000000D+01
-.571986214949D-04 0.000000000000D+00 -.827510054836D-05 0.838683361057D-07 0.000000000000D+00  7 2 -2 23 -13 13 23 21 2 0.67592490D+00 0.52859997D-02 0.86949916D+05 0.86949916D+05 0.86949916D+05 0.11267400D+01  1  2  5  1  7  1        2 -.249379609652D-03 0.100000000000D+01
0.601616104340D-04 0.000000000000D+00 0.868768955243D-05 0.838683361057D-07 0.000000000000D+00  7 2 -2 23 -13 13 23 21 2 0.58584829D+00 0.52859997D-02 0.86949916D+05 0.86949916D+05 0.86949916D+05 0.11267400D+01  1  2  6  1  7  1        2 0.816384385935D-03 0.100000000000D+01
0.811962145557D-06 0.000000000000D+00 0.000000000000D+00 0.838683361057D-07 0.000000000000D+00  7 21 -2 23 -13 13 23 -2 2 0.67901233D+00 0.52859997D-02 0.98696485D+05 0.98696485D+05 0.98696485D+05 0.11221900D+01  1  2 12  3  7  1        2 0.428268459592D-07 0.100000000000D+01
-.120247553844D-05 0.000000000000D+00 -.181591518623D-06 0.838683361057D-07 0.000000000000D+00  7 21 -2 23 -13 13 23 -2 2 0.67592490D+00 0.52859997D-02 0.86949916D+05 0.86949916D+05 0.86949916D+05 0.11267400D+01  1  2  5  3  7  1        2 -.691617856428D-07 0.100000000000D+01
  </mgrwgt>
  </event>
  <event>
  8     66 0.55102590E-06 0.39280925E+03 0.75467711E-02 0.86828120E-01
        2 -1    0    0  501    0 0.00000000E+00 0.00000000E+00 0.16607828E+04 0.16607829E+04 0.32000000E+00 0.0000E+00 0.9000E+01
       -2 -1    0    0    0  501 0.00000000E+00 0.00000000E+00 -.46919344E+03 0.46919354E+03 0.32000000E+00 0.0000E+00 0.9000E+01
       25  2    1    2    0    0 -.69257357E+03 -.41586422E+03 0.27448906E+03 0.90453460E+03 0.30039539E+03 0.0000E+00 0.0000E+00
       23  2    1    2    0    0 0.69257357E+03 0.41586422E+03 0.91710035E+03 0.12254418E+04 0.89629276E+02 0.0000E+00 0.0000E+00
       23  1    3    3    0    0 -.50000330E+03 -.28619243E+03 0.81055803E+02 0.58889278E+03 0.91188000E+02 0.0000E+00 0.9000E+01
      -13  1    4    4    0    0 0.22413360E+02 0.34854567E+02 0.38180471E+02 0.56346775E+02 0.10565837E+00 0.0000E+00 0.9000E+01
       13  1    4    4    0    0 0.67016021E+03 0.38100965E+03 0.87891987E+03 0.11690950E+04 0.10565837E+00 0.0000E+00 0.9000E+01
       23  1    3    3    0    0 -.19257027E+03 -.12967179E+03 0.19343326E+03 0.31564182E+03 0.91188000E+02 0.0000E+00 0.9000E+01
#aMCatNLO 1  0  0  1  2 0.42260398D+03 0.00000000D+00  -5  7  0 0.00000000D+00 0.00000000D+00 0.00000000D+00 0.00000000D+00 0.00000000D+00
  <mgrwgt>
 0.4517092373D-03    9    2    0
 0.882739234575422D+03 0.000000000000000D+00 0.000000000000000D+00 0.882739234575422D+03
 0.882739234575422D+03 0.000000000000000D+00 0.000000000000000D+00 -.882739234575422D+03
 0.655766989383784D+03 -.500003304413403D+03 -.286192433750611D+03 -.299675957429107D+03
 0.422094960276164D+02 0.224124597623383D+02 0.348540862177761D+02 0.803217755224327D+01
 0.817248801569192D+03 0.670161112330236D+03 0.381010132714609D+03 0.271313409096153D+03
 0.250253182170252D+03 -.192570267679172D+03 -.129671785181774D+03 0.203303707807101D+02
 0.000000000000000D+00 0.000000000000000D+00 -.000000000000000D+00 0.000000000000000D+00
 0.119308354184329D+04 0.000000000000000D+00 0.000000000000000D+00 0.119308354184329D+04
 0.106411497598167D+04 0.000000000000000D+00 0.000000000000000D+00 -.106411497598167D+04
 0.621540792800430D+03 -.519147476032543D+03 -.136667203230975D+03 -.299675957429107D+03
 0.509960973373962D+02 0.210155028971790D+02 0.457649943230968D+02 0.803217755224327D+01
 0.910428070738444D+03 0.644266850189817D+03 0.583256831747079D+03 0.271313409096153D+03
 0.232388544411101D+03 -.199804057508927D+03 -.731723913535573D+02 0.203303707807101D+02
 0.441845012537591D+03 0.536691804544744D+02 -.419182231485644D+03 0.128968565861627D+03
0.156044962290D-03 0.000000000000D+00 0.000000000000D+00 0.166031677425D-05 0.000000000000D+00  7 2 -2 23 -13 13 23 21 0 0.25550506D+00 0.72183616D-01 0.67654788D+06 0.67654788D+06 0.67654788D+06 0.10593508D+01  1  2  2  1  7  1        2 0.351730657502D-03 0.100000000000D+01
-.861655190611D-05 0.000000000000D+00 -.599253742774D-06 0.166031677425D-05 0.000000000000D+00  7 2 -2 23 -13 13 23 21 2 0.25550506D+00 0.72183616D-01 0.67654788D+06 0.67654788D+06 0.67654788D+06 0.10593508D+01  1  2  3  1  7  1        2 -.217958363513D-04 0.100000000000D+01
0.973427099244D-05 0.000000000000D+00 0.000000000000D+00 0.166031677425D-05 0.000000000000D+00  7 2 -2 23 -13 13 23 21 2 0.25550506D+00 0.72183616D-01 0.67654788D+06 0.67654788D+06 0.67654788D+06 0.10593508D+01  1  2 15  1  7  1        2 0.246231415841D-04 0.100000000000D+01
0.452658580778D-04 0.000000000000D+00 0.000000000000D+00 0.166031677425D-05 0.000000000000D+00  7 2 -2 23 -13 13 23 21 2 0.36407252D+00 0.72183616D-01 0.11215315D+07 0.11215315D+07 0.11215315D+07 0.10445642D+01  1  2 12  1  7  1        2 0.433955506068D-04 0.100000000000D+01
-.721300185831D-04 0.000000000000D+00 0.000000000000D+00 0.166031677425D-05 0.000000000000D+00  7 2 -2 23 -13 13 23 21 2 0.25550506D+00 0.72183616D-01 0.67654788D+06 0.67654788D+06 0.67654788D+06 0.10593508D+01  1  2  4  1  7  1        2 -.182455128013D-03 0.100000000000D+01
-.125326781456D-03 0.000000000000D+00 -.541452092580D-04 0.166031677425D-05 0.000000000000D+00  7 2 -2 23 -13 13 23 21 2 0.37491855D+00 0.72183616D-01 0.67654788D+06 0.67654788D+06 0.67654788D+06 0.10593508D+01  1  2  5  1  7  1        2 -.116348124177D-03 0.100000000000D+01
0.139460582600D-03 0.000000000000D+00 0.503944188599D-04 0.166031677425D-05 0.000000000000D+00  7 2 -2 23 -13 13 23 21 2 0.25550506D+00 0.72183616D-01 0.67654788D+06 0.67654788D+06 0.67654788D+06 0.10593508D+01  1  2  6  1  7  1        2 0.352769886253D-03 0.100000000000D+01
0.197197722224D-05 0.000000000000D+00 0.000000000000D+00 0.166031677425D-05 0.000000000000D+00  7 21 -2 23 -13 13 23 -2 2 0.36407252D+00 0.72183616D-01 0.11215315D+07 0.11215315D+07 0.11215315D+07 0.10445642D+01  1  2 12  3  7  1        2 0.237525072470D-06 0.100000000000D+01
-.404024397631D-05 0.000000000000D+00 -.249897854508D-05 0.166031677425D-05 0.000000000000D+00  7 21 -2 23 -13 13 23 -2 2 0.37491855D+00 0.72183616D-01 0.67654788D+06 0.67654788D+06 0.67654788D+06 0.10593508D+01  1  2  5  3  7  1        2 -.448435160867D-06 0.100000000000D+01
  </mgrwgt>
  </event>
  <event>
  7     66 0.55102590E-06 0.17199199E+03 0.75467711E-02 0.10100887E+00
        2 -1    0    0  501    0 0.00000000E+00 0.00000000E+00 0.30740225E+04 0.30740225E+04 0.32000000E+00 0.0000E+00 0.9000E+01
       -2 -1    0    0    0  501 0.00000000E+00 0.00000000E+00 -.25826164E+02 0.25828146E+02 0.32000000E+00 0.0000E+00 0.9000E+01
       23  2    1    2    0    0 -.15973084E+03 0.15866217E+02 0.18235240E+04 0.18327787E+04 0.89845338E+02 0.0000E+00 0.0000E+00
       23  1    1    2    0    0 0.56167405E+02 -.10748749E+03 0.72342763E+03 0.73916921E+03 0.91188000E+02 0.0000E+00 0.9000E+01
      -13  1    3    3    0    0 -.11604369E+03 0.51018091E+02 0.11670647E+04 0.11739289E+04 0.10565837E+00 0.0000E+00 0.9000E+01
       13  1    3    3    0    0 -.43687145E+02 -.35151873E+02 0.65645934E+03 0.65884983E+03 0.10565837E+00 0.0000E+00 0.9000E+01
       23  1    1    2    0    0 0.10356343E+03 0.91621270E+02 0.50124470E+03 0.52790278E+03 0.91188000E+02 0.0000E+00 0.9000E+01
#aMCatNLO 1  0  0  1  2 0.82108017D+02 0.00000000D+00  -5  7  0 0.00000000D+00 0.00000000D+00 0.00000000D+00 0.00000000D+00 0.00000000D+00
  <mgrwgt>
 0.1779073811D-02    9    2    0
 0.281768180131196D+03 0.000000000000000D+00 0.000000000000000D+00 0.281768180131196D+03
 0.281768180131196D+03 0.000000000000000D+00 0.000000000000000D+00 -.281768180131196D+03
 0.152900022327648D+03 0.561674057517446D+02 -.107487487242714D+03 -.188368814075342D+02
 0.144732315314675D+03 -.116043794752769D+03 0.510182083812022D+02 0.698457100278620D+02
 0.733210324292230D+02 -.436870453892069D+02 -.351519908889524D+02 0.472414373002298D+02
 0.192582990190845D+03 0.103563434390231D+03 0.916212697504643D+02 -.982502659205577D+02
 0.000000000000000D+00 0.000000000000000D+00 -.000000000000000D+00 0.000000000000000D+00
 0.434173279481362D+03 0.000000000000000D+00 0.000000000000000D+00 0.434173279481362D+03
 0.296022357873494D+03 0.000000000000000D+00 0.000000000000000D+00 -.296022357873494D+03
 0.137480636239626D+03 0.517334953897744D+02 -.869165769600205D+02 -.188368814075342D+02
 0.157089567342387D+03 -.120652404636035D+03 0.723996285492181D+02 0.698457100278620D+02
 0.704296813492104D+02 -.458820186443389D+02 -.249685198175683D+02 0.472414373002298D+02
 0.204486687202713D+03 0.975004570359331D+02 0.119750156674070D+03 -.982502659205577D+02
 0.160709065220919D+03 0.173004708546661D+02 -.802646884456991D+02 0.138150921607868D+03
0.278563332045D-04 0.000000000000D+00 0.000000000000D+00 0.110304118566D-09 0.000000000000D+00  7 2 -2 23 -13 13 23 21 0 0.47292670D+00 0.39734097D-02 0.62551928D+05 0.62551928D+05 0.62551928D+05 0.11388365D+01  1  2  2  1  7  1        2 0.147673590017D-02 0.100000000000D+01
-.152083492558D-05 0.000000000000D+00 -.106975654246D-06 0.110304118566D-09 0.000000000000D+00  7 2 -2 23 -13 13 23 21 2 0.47292670D+00 0.39734097D-02 0.62551928D+05 0.62551928D+05 0.62551928D+05 0.11388365D+01  1  2  3  1  7  1        2 -.104564374553D-03 0.100000000000D+01
0.180372682673D-05 0.000000000000D+00 0.000000000000D+00 0.110304118566D-09 0.000000000000D+00  7 2 -2 23 -13 13 23 21 2 0.47292670D+00 0.39734097D-02 0.62551928D+05 0.62551928D+05 0.62551928D+05 0.11388365D+01  1  2 15  1  7  1        2 0.124014489890D-03 0.100000000000D+01
0.291206850012D-04 0.000000000000D+00 0.000000000000D+00 0.110304118566D-09 0.000000000000D+00  7 2 -2 23 -13 13 23 21 2 0.73541486D+00 0.39734097D-02 0.87194011D+05 0.87194011D+05 0.87194011D+05 0.11266388D+01  1  2 12  1  7  1        2 0.779202855303D-04 0.100000000000D+01
-.307358694405D-04 0.000000000000D+00 0.000000000000D+00 0.110304118566D-09 0.000000000000D+00  7 2 -2 23 -13 13 23 21 2 0.47292670D+00 0.39734097D-02 0.62551928D+05 0.62551928D+05 0.62551928D+05 0.11388365D+01  1  2  4  1  7  1        2 -.211323195590D-02 0.100000000000D+01
-.353469741531D-04 0.000000000000D+00 -.627696284674D-05 0.110304118566D-09 0.000000000000D+00  7 2 -2 23 -13 13 23 21 2 0.73284235D+00 0.39734097D-02 0.62551928D+05 0.62551928D+05 0.62551928D+05 0.11388365D+01  1  2  5  1  7  1        2 -.103398481501D-03 0.100000000000D+01
0.352209838821D-04 0.000000000000D+00 0.571953202168D-05 0.110304118566D-09 0.000000000000D+00  7 2 -2 23 -13 13 23 21 2 0.47292670D+00 0.39734097D-02 0.62551928D+05 0.62551928D+05 0.62551928D+05 0.11388365D+01  1  2  6  1  7  1        2 0.242160413917D-02 0.100000000000D+01
0.149159258007D-05 0.000000000000D+00 0.000000000000D+00 0.110304118566D-09 0.000000000000D+00  7 21 -2 23 -13 13 23 -2 2 0.73541486D+00 0.39734097D-02 0.87194011D+05 0.87194011D+05 0.87194011D+05 0.11266388D+01  1  2 12  3  7  1        2 0.349801143018D-07 0.100000000000D+01
-.155827211639D-05 0.000000000000D+00 -.319590749191D-06 0.110304118566D-09 0.000000000000D+00  7 21 -2 23 -13 13 23 -2 2 0.73284235D+00 0.39734097D-02 0.62551928D+05 0.62551928D+05 0.62551928D+05 0.11388365D+01  1  2  5  3  7  1        2 -.411719067975D-07 0.100000000000D+01
  </mgrwgt>
  </event>
  <event>
  8     66 0.55102590E-06 0.20627272E+03 0.75467711E-02 0.10094031E+00
        2 -1    0    0  501    0 0.00000000E+00 0.00000000E+00 0.15162252E+03 0.15162285E+03 0.32000000E+00 0.0000E+00 0.9000E+01
       -2 -1    0    0    0  501 0.00000000E+00 0.00000000E+00 -.47625765E+03 0.47625776E+03 0.32000000E+00 0.0000E+00 0.9000E+01
       25  2    1    2    0    0 0.10003642E+03 0.33247471E+02 -.52299506E+02 0.32213910E+03 0.29987611E+03 0.0000E+00 0.0000E+00
       23  2    1    2    0    0 -.10003642E+03 -.33247471E+02 -.27233563E+03 0.30574152E+03 0.90545573E+02 0.0000E+00 0.0000E+00
       23  1    3    3    0    0 0.16302549E+03 0.83878577E+01 -.82855398E+02 0.20451879E+03 0.91188000E+02 0.0000E+00 0.9000E+01
      -13  1    4    4    0    0 -.46849476E+02 0.40413583E+01 -.21177630E+03 0.21693414E+03 0.10565837E+00 0.0000E+00 0.9000E+01
       13  1    4    4    0    0 -.53186943E+02 -.37288829E+02 -.60559328E+02 0.88807381E+02 0.10565837E+00 0.0000E+00 0.9000E+01
       23  1    3    3    0    0 -.62989071E+02 0.24859613E+02 0.30555892E+02 0.11762031E+03 0.91188000E+02 0.0000E+00 0.9000E+01
#aMCatNLO 1  0  0  1  1 0.16479562D+03 0.00000000D+00  -5  7  0 0.00000000D+00 0.00000000D+00 0.00000000D+00 0.00000000D+00 0.00000000D+00
  <mgrwgt>
 0.2294966968D-03    3    2    0
 0.268722019860212D+03 0.000000000000000D+00 0.000000000000000D+00 0.268722019860212D+03
 0.268722019860212D+03 0.000000000000000D+00 0.000000000000000D+00 -.268722019860212D+03
 0.188885914802774D+03 0.163025489102484D+03 0.838785786789182D+01 0.267389455694286D+02
 0.125517725221473D+03 -.468494681328410D+02 0.404141411054290D+01 -.116376516756733D+03
 0.671710954767692D+02 -.531869512278501D+02 -.372888849626513D+02 -.171068215889946D+02
 0.155869304219408D+03 -.629890697417926D+02 0.248596129842166D+02 0.106744392776299D+03
 0.000000000000000D+00 -.000000000000000D+00 0.000000000000000D+00 -.000000000000000D+00
 0.301798884538643D+03 0.000000000000000D+00 0.000000000000000D+00 0.301798884538643D+03
 0.608620527159751D+03 0.000000000000000D+00 0.000000000000000D+00 -.608620527159751D+03
 0.220886330912585D+03 0.194391998000453D+03 -.444105814333793D+02 0.267389455694286D+02
 0.122883354098119D+03 -.278353090573738D+02 -.279646317990084D+02 -.116376516756733D+03
 0.717583133258428D+02 -.425524327045438D+02 -.551896970223375D+02 -.171068215889946D+02
 0.146614058113054D+03 -.398351173321423D+02 -.141148407830808D+02 0.106744392776299D+03
 0.348277355248792D+03 -.841691389063935D+02 0.141679751037806D+03 -.306821642621108D+03
0.452719949130D-05 0.000000000000D+00 0.000000000000D+00 0.332429502178D-06 0.000000000000D+00  7 2 -2 23 -13 13 23 21 0 0.23326575D-01 0.73270443D-01 0.42548437D+05 0.42548437D+05 0.42548437D+05 0.11535117D+01  1  2  2  1  7  1        2 0.226091313949D-03 0.100000000000D+01
-.230120698174D-06 0.000000000000D+00 -.173856380856D-07 0.332429502178D-06 0.000000000000D+00  7 2 -2 23 -13 13 23 21 2 0.23326575D-01 0.73270443D-01 0.42548437D+05 0.42548437D+05 0.42548437D+05 0.11535117D+01  1  2  3  1  7  1        2 -.152916342842D-04 0.100000000000D+01
0.281367612320D-06 0.000000000000D+00 0.000000000000D+00 0.332429502178D-06 0.000000000000D+00  7 2 -2 23 -13 13 23 21 2 0.23326575D-01 0.73270443D-01 0.42548437D+05 0.42548437D+05 0.42548437D+05 0.11535117D+01  1  2 15  1  7  1        2 0.186970170921D-04 0.100000000000D+01
  </mgrwgt>
  </event>
  <event>
  8     66 0.55102590E-06 0.18970895E+03 0.75467711E-02 0.97638791E-01
        2 -1    0    0  501    0 0.00000000E+00 0.00000000E+00 0.13390541E+04 0.13390541E+04 0.32000000E+00 0.0000E+00 0.9000E+01
       -2 -1    0    0    0  501 0.00000000E+00 0.00000000E+00 -.20329431E+03 0.20329456E+03 0.32000000E+00 0.0000E+00 0.9000E+01
       25  2    1    2    0    0 -.18835099E+02 0.26514293E+02 0.13080621E+04 0.13427963E+04 0.30169149E+03 0.0000E+00 0.0000E+00
       23  2    1    2    0    0 0.18835099E+02 -.26514293E+02 -.17230228E+03 0.19955240E+03 0.95264457E+02 0.0000E+00 0.0000E+00
       23  1    3    3    0    0 -.64287384E+02 -.78756699E+02 0.39234371E+03 0.41543270E+03 0.91188000E+02 0.0000E+00 0.9000E+01
      -11  1    4    4    0    0 0.49768296E+02 0.75454778E+01 -.11857193E+03 0.12881429E+03 0.51099893E-03 0.0000E+00 0.9000E+01
       11  1    4    4    0    0 -.30933196E+02 -.34059770E+02 -.53730347E+02 0.70738114E+02 0.51099893E-03 0.0000E+00 0.9000E+01
       23  1    3    3    0    0 0.45452285E+02 0.10527099E+03 0.91571836E+03 0.92736360E+03 0.91188000E+02 0.0000E+00 0.9000E+01
#aMCatNLO 1  0  0  2  2 0.32158665D+03 0.00000000D+00  -5  7  0 0.00000000D+00 0.00000000D+00 0.00000000D+00 0.00000000D+00 0.00000000D+00
  <mgrwgt>
 0.2712705031D-03    7    2    0
 0.521749275436587D+03 0.000000000000000D+00 0.000000000000000D+00 0.521749275436587D+03
 0.521749275436587D+03 0.000000000000000D+00 0.000000000000000D+00 -.521749275436587D+03
 0.186999655000437D+03 -.642873841284102D+02 -.787566986731312D+02 0.127742452936831D+03
 0.319450166750381D+03 0.497682955350376D+02 0.754547777947365D+01 -.315459334243675D+03
 0.163035786455236D+03 -.309331960860653D+02 -.340597703959088D+02 -.156408877898783D+03
 0.374012942667120D+03 0.454522846794380D+02 0.105270991289566D+03 0.344125759205627D+03
 0.000000000000000D+00 0.000000000000000D+00 0.000000000000000D+00 -.000000000000000D+00
 0.682199437306398D+03 0.000000000000000D+00 0.000000000000000D+00 0.682199437306398D+03
 0.735742279344707D+03 0.000000000000000D+00 0.000000000000000D+00 -.735742279344707D+03
 0.224066057721833D+03 -.120048528012309D+03 -.105643568279206D+03 0.127742452936831D+03
 0.319450668322847D+03 -.368987270101662D+02 -.342435669211051D+02 -.315459334243675D+03
 0.183748284301952D+03 -.779745227344897D+02 -.567421245873223D+02 -.156408877898783D+03
 0.364663192765222D+03 -.547492767659797D+02 0.569558720280696D+02 0.344125759205627D+03
 0.326013513539251D+03 0.289671054522944D+03 0.139673387759564D+03 -.535428420383097D+02
0.150837700499D-04 0.000000000000D+00 0.000000000000D+00 0.202376828397D-07 0.000000000000D+00  7 2 -2 23 -11 11 23 21 0 0.20600835D+00 0.31276070D-01 0.35989486D+05 0.35989486D+05 0.35989486D+05 0.11600714D+01  1  2  2  2  7  2       -2 0.294741394504D-03 0.100000000000D+01
0.204856061430D-06 0.000000000000D+00 -.579256486395D-07 0.202376828397D-07 0.000000000000D+00  7 2 -2 23 -11 11 23 21 2 0.20600835D+00 0.31276070D-01 0.35989486D+05 0.35989486D+05 0.35989486D+05 0.11600714D+01  1  2  3  2  7  2       -2 0.538703134759D-05 0.100000000000D+01
0.912608962727D-06 0.000000000000D+00 0.000000000000D+00 0.202376828397D-07 0.000000000000D+00  7 2 -2 23 -11 11 23 21 2 0.20600835D+00 0.31276070D-01 0.35989486D+05 0.35989486D+05 0.35989486D+05 0.11600714D+01  1  2 15  2  7  2       -2 0.239985727344D-04 0.100000000000D+01
-.509129681325D-05 0.000000000000D+00 0.000000000000D+00 0.202376828397D-07 0.000000000000D+00  7 2 -2 23 -11 11 23 21 2 0.20600835D+00 0.31276070D-01 0.35989486D+05 0.35989486D+05 0.35989486D+05 0.11600714D+01  1  2  4  2  7  2       -2 -.133884129869D-03 0.100000000000D+01
0.396334664275D-05 0.000000000000D+00 -.502854850821D-05 0.202376828397D-07 0.000000000000D+00  7 2 -2 23 -11 11 23 21 2 0.20600835D+00 0.57774417D-01 0.35989486D+05 0.35989486D+05 0.35989486D+05 0.11600714D+01  1  2  5  2  7  2       -2 0.331335256539D-04 0.100000000000D+01
-.496455593189D-07 0.000000000000D+00 0.421047724161D-05 0.202376828397D-07 0.000000000000D+00  7 2 -2 23 -11 11 23 21 2 0.20600835D+00 0.31276070D-01 0.35989486D+05 0.35989486D+05 0.35989486D+05 0.11600714D+01  1  2  6  2  7  2       -2 -.130551267291D-05 0.100000000000D+01
0.542758958145D-06 0.000000000000D+00 -.336720133008D-06 0.202376828397D-07 0.000000000000D+00  7 2 21 23 -11 11 23 2 2 0.20600835D+00 0.57774417D-01 0.35989486D+05 0.35989486D+05 0.35989486D+05 0.11600714D+01  1  2  5  4  7  2       -2 0.491996214264D-04 0.100000000000D+01
  </mgrwgt>
  </event>
  <event>
  8     66 0.55102590E-06 0.24307911E+03 0.75467711E-02 0.98263745E-01
        2 -1    0    0  501    0 0.00000000E+00 0.00000000E+00 0.61899195E+03 0.61899203E+03 0.32000000E+00 0.0000E+00 0.9000E+01
       -2 -1    0    0    0  501 0.00000000E+00 0.00000000E+00 -.10052532E+03 0.10052583E+03 0.32000000E+00 0.0000E+00 0.9000E+01
       25  2    1    2    0    0 -.11135670E+03 -.80367466E+02 0.32434843E+03 0.46420927E+03 0.30237245E+03 0.0000E+00 0.0000E+00
       23  2    1    2    0    0 0.11135670E+03 0.80367466E+02 0.19411820E+03 0.25530859E+03 0.92958887E+02 0.0000E+00 0.0000E+00
       23  1    3    3    0    0 -.12235474E+03 -.15184447E+03 0.19900356E+03 0.29316394E+03 0.91188000E+02 0.0000E+00 0.9000E+01
      -11  1    4    4    0    0 -.20882160E+01 -.95295378E+01 -.34882861E+01 0.10360544E+02 0.51099893E-03 0.0000E+00 0.9000E+01
       11  1    4    4    0    0 0.11344491E+03 0.89897004E+02 0.19760649E+03 0.24494804E+03 0.51099893E-03 0.0000E+00 0.9000E+01
       23  1    3    3    0    0 0.10998040E+02 0.71477005E+02 0.12534487E+03 0.17104533E+03 0.91188000E+02 0.0000E+00 0.9000E+01
#aMCatNLO 1  0  0  2  1 0.20510278D+03 0.00000000D+00  -5  7  0 0.00000000D+00 0.00000000D+00 0.00000000D+00 0.00000000D+00 0.00000000D+00
  <mgrwgt>
 0.3417783319D-03    3    2    0
 0.249448541505032D+03 0.000000000000000D+00 0.000000000000000D+00 0.249448541505032D+03
 0.249448541505032D+03 0.000000000000000D+00 0.000000000000000D+00 -.249448541505032D+03
 0.215996414938063D+03 -.122354735804665D+03 -.151844471314894D+03 -.176571537730972D+02
 0.185672693818612D+02 -.208821600599418D+01 -.952953773435435D+01 -.157978086069058D+02
 0.147910507021015D+03 0.113444911853001D+03 0.898970040192386D+02 0.304351561560574D+02
 0.116422891669124D+03 0.109980399576577D+02 0.714770050300101D+02 0.301980622394562D+01
 0.000000000000000D+00 -.000000000000000D+00 0.000000000000000D+00 0.000000000000000D+00
 0.376489045774470D+03 0.000000000000000D+00 0.000000000000000D+00 0.376489045774470D+03
 0.368193557820630D+03 0.000000000000000D+00 0.000000000000000D+00 -.368193557820630D+03
 0.236568695746880D+03 -.549146910157070D+02 -.210528140861649D+03 -.176571537730972D+02
 0.219991921926150D+02 0.395688981617508D+01 -.147897506175674D+02 -.157978086069058D+02
 0.170845230003034D+03 0.160945040948469D+03 0.485642633902914D+02 0.304351561560574D+02
 0.109999015853973D+03 0.447388282421290D+02 0.421171005974270D+02 0.301980622394562D+01
 0.205270469798598D+03 -.154726067991066D+03 0.134636527491498D+03 0.829548795384067D+01
0.190961010472D-05 0.000000000000D+00 0.000000000000D+00 0.474920083017D-08 0.000000000000D+00  7 2 -2 23 -11 11 23 21 0 0.95229576D-01 0.15465479D-01 0.59087455D+05 0.59087455D+05 0.59087455D+05 0.11409702D+01  1  2  2  2  7  2       -2 0.337858347928D-03 0.100000000000D+01
-.106003152025D-06 0.000000000000D+00 -.733340561402D-08 0.474920083017D-08 0.000000000000D+00  7 2 -2 23 -11 11 23 21 2 0.95229576D-01 0.15465479D-01 0.59087455D+05 0.59087455D+05 0.59087455D+05 0.11409702D+01  1  2  3  2  7  2       -2 -.244150346984D-04 0.100000000000D+01
0.123022609833D-06 0.000000000000D+00 0.000000000000D+00 0.474920083017D-08 0.000000000000D+00  7 2 -2 23 -11 11 23 21 2 0.95229576D-01 0.15465479D-01 0.59087455D+05 0.59087455D+05 0.59087455D+05 0.11409702D+01  1  2 15  2  7  2       -2 0.283350186329D-04 0.100000000000D+01
  </mgrwgt>
  </event>
  <event>
  8     66 0.55102590E-06 0.20813877E+03 0.75467711E-02 0.99065084E-01
        2 -1    0    0  501    0 0.00000000E+00 0.00000000E+00 0.64152799E+03 0.64152807E+03 0.32000000E+00 0.0000E+00 0.9000E+01
       -2 -1    0    0    0  501 0.00000000E+00 0.00000000E+00 -.37499980E+03 0.37499994E+03 0.32000000E+00 0.0000E+00 0.9000E+01
       25  2    1    2    0    0 0.58051198E+02 0.25130729E+03 -.22435238E+03 0.45431056E+03 0.29923035E+03 0.0000E+00 0.0000E+00
       23  2    1    2    0    0 -.58051198E+02 -.25130729E+03 0.49088056E+03 0.56221745E+03 0.92733179E+02 0.0000E+00 0.0000E+00
       23  1    3    3    0    0 0.20511714E+02 -.28308444E+02 -.42639314E+02 0.10656200E+03 0.91188000E+02 0.0000E+00 0.9000E+01
      -13  1    4    4    0    0 0.10088526E+02 -.24540131E+01 0.38681101E+01 0.11080342E+02 0.10565837E+00 0.0000E+00 0.9000E+01
       13  1    4    4    0    0 -.68139724E+02 -.24885327E+03 0.48701245E+03 0.55113711E+03 0.10565837E+00 0.0000E+00 0.9000E+01
       23  1    3    3    0    0 0.37539484E+02 0.27961573E+03 -.18171306E+03 0.34774856E+03 0.91188000E+02 0.0000E+00 0.9000E+01
#aMCatNLO 1  0  0  1  2 0.23775017D+02 0.00000000D+00  -5  7  0 0.00000000D+00 0.00000000D+00 0.00000000D+00 0.00000000D+00 0.00000000D+00
  <mgrwgt>
 0.4209132843D-03    6    2    0
 0.490482395283430D+03 0.000000000000000D+00 0.000000000000000D+00 0.490482395283430D+03
 0.490482395283430D+03 0.000000000000000D+00 0.000000000000000D+00 -.490482395283430D+03
 0.122010333811071D+03 0.205117142100028D+02 -.283084443516311D+02 -.731380323173016D+02
 0.104305192768083D+02 0.100886277091227D+02 -.245369323632156D+01 0.997352912775206D+00
 0.438796898571196D+03 -.681398255768315D+02 -.248853593462063D+03 0.354924740455040D+03
 0.409727038907786D+03 0.375394836577060D+02 0.279615731050016D+03 -.282784061050513D+03
 0.000000000000000D+00 0.000000000000000D+00 0.000000000000000D+00 -.000000000000000D+00
 0.499934493123576D+03 0.000000000000000D+00 0.000000000000000D+00 0.499934493123576D+03
 0.505808195959998D+03 0.000000000000000D+00 0.000000000000000D+00 -.505808195959998D+03
 0.122039738366815D+03 0.181041230984511D+02 -.300252452484579D+02 -.731380323173016D+02
 0.102690280497478D+02 0.988442352384290D+01 -.259930680282048D+01 0.997352912775206D+00
 0.443772069283043D+03 -.768465027901391D+02 -.255062135758331D+03 0.354924740455040D+03
 0.405172022519242D+03 0.295003803720757D+02 0.273883221213012D+03 -.282784061050513D+03
 0.244898308647269D+02 0.193575757957694D+02 0.138034665965976D+02 -.587370283642138D+01
0.149385944102D-04 0.000000000000D+00 0.000000000000D+00 0.419755599391D-06 0.000000000000D+00  7 2 -2 23 -13 13 23 21 0 0.98696630D-01 0.57692294D-01 0.10974351D+06 0.10974351D+06 0.10974351D+06 0.11184235D+01  1  2  2  1  7  1        2 0.244671969283D-03 0.100000000000D+01
-.674517773509D-06 0.000000000000D+00 -.573681359575D-07 0.419755599391D-06 0.000000000000D+00  7 2 -2 23 -13 13 23 21 2 0.98696630D-01 0.57692294D-01 0.10974351D+06 0.10974351D+06 0.10974351D+06 0.11184235D+01  1  2  3  1  7  1        2 -.138191213227D-04 0.100000000000D+01
0.927138120325D-06 0.000000000000D+00 0.000000000000D+00 0.419755599391D-06 0.000000000000D+00  7 2 -2 23 -13 13 23 21 2 0.98696630D-01 0.57692294D-01 0.10974351D+06 0.10974351D+06 0.10974351D+06 0.11184235D+01  1  2 15  1  7  1        2 0.189946576219D-04 0.100000000000D+01
0.228661251845D-04 0.000000000000D+00 0.000000000000D+00 0.419755599391D-06 0.000000000000D+00  7 2 -2 23 -13 13 23 21 2 0.10210260D+00 0.57692294D-01 0.11842091D+06 0.11842091D+06 0.11842091D+06 0.11157457D+01  1  2 12  1  7  1        2 0.447133910677D-03 0.100000000000D+01
-.138482975947D-04 0.000000000000D+00 0.000000000000D+00 0.419755599391D-06 0.000000000000D+00  7 2 -2 23 -13 13 23 21 2 0.98696630D-01 0.57692294D-01 0.10974351D+06 0.10974351D+06 0.10974351D+06 0.11184235D+01  1  2  4  1  7  1        2 -.283715733063D-03 0.100000000000D+01
0.292654137945D-06 0.000000000000D+00 0.000000000000D+00 0.419755599391D-06 0.000000000000D+00  7 21 -2 23 -13 13 23 -2 2 0.10210260D+00 0.57692294D-01 0.11842091D+06 0.11842091D+06 0.11842091D+06 0.11157457D+01  1  2 12  3  7  1        2 0.764760112735D-05 0.100000000000D+01
  </mgrwgt>
  </event>
  <event>
  8     66 0.55102590E-06 0.23519522E+03 0.75467711E-02 0.93637234E-01
        2 -1    0    0  501    0 0.00000000E+00 0.00000000E+00 0.21654588E+04 0.21654588E+04 0.32000000E+00 0.0000E+00 0.9000E+01
       -2 -1    0    0    0  501 0.00000000E+00 0.00000000E+00 -.38542118E+02 0.38543446E+02 0.32000000E+00 0.0000E+00 0.9000E+01
       25  2    1    2    0    0 0.71745738E+02 -.12000151E+03 0.18656833E+04 0.18946215E+04 0.29877879E+03 0.0000E+00 0.0000E+00
       23  2    1    2    0    0 -.71745738E+02 0.12000151E+03 0.26123340E+03 0.30938075E+03 0.89026667E+02 0.0000E+00 0.0000E+00
       23  1    3    3    0    0 0.14323499E+03 -.25256156E+02 0.12070037E+04 0.12191502E+04 0.91188000E+02 0.0000E+00 0.9000E+01
      -11  1    4    4    0    0 -.10134358E+02 0.67043840E+02 0.18854486E+03 0.20036653E+03 0.51099893E-03 0.0000E+00 0.9000E+01
       11  1    4    4    0    0 -.61611380E+02 0.52957672E+02 0.72688539E+02 0.10901422E+03 0.51099893E-03 0.0000E+00 0.9000E+01
       23  1    3    3    0    0 -.71489255E+02 -.94745355E+02 0.65867961E+03 0.67547130E+03 0.91188000E+02 0.0000E+00 0.9000E+01
#aMCatNLO 1  0  0  2  2 0.44568957D+03 0.00000000D+00  -5  7  0 0.00000000D+00 0.00000000D+00 0.00000000D+00 0.00000000D+00 0.00000000D+00
  <mgrwgt>
 0.2813557603D-03    5    2    0
 0.288899389346520D+03 0.000000000000000D+00 0.000000000000000D+00 0.288899389346520D+03
 0.288899389346520D+03 0.000000000000000D+00 0.000000000000000D+00 -.288899389346520D+03
 0.207362153431213D+03 0.143234993117960D+03 -.252561562921078D+02 0.116317129639087D+03
 0.702477703493080D+02 -.101343577888488D+02 0.670438396739881D+02 -.183621238702196D+02
 0.148261179756589D+03 -.616113803839144D+02 0.529576715316221D+02 -.124019757522554D+03
 0.151927675155931D+03 -.714892549451970D+02 -.947453549135024D+02 0.260647517536860D+02
 0.000000000000000D+00 -.000000000000000D+00 -.000000000000000D+00 -.000000000000000D+00
 0.543963629683150D+03 0.000000000000000D+00 0.000000000000000D+00 0.543963629683150D+03
 0.642127938664925D+03 0.000000000000000D+00 0.000000000000000D+00 -.642127938664925D+03
 0.355590063765362D+03 0.319399608855528D+03 0.508257544962569D+02 0.116317129639087D+03
 0.102045565204134D+03 0.437813890982754D+02 0.903289530185715D+02 -.183621238702196D+02
 0.159810206012875D+03 0.347933865500914D+02 0.945929275490540D+02 -.124019757522554D+03
 0.112273712732895D+03 0.111872752344772D+02 -.590390448404738D+02 0.260647517536860D+02
 0.456372020632809D+03 -.409161659738372D+03 -.176708590223409D+03 -.981643089817744D+02
0.228498205463D-05 0.000000000000D+00 0.000000000000D+00 0.144374492552D-07 0.000000000000D+00  7 2 -2 23 -11 11 23 21 0 0.33314761D+00 0.59296606D-02 0.55316789D+05 0.55316789D+05 0.55316789D+05 0.11434550D+01  1  2  2  2  7  2       -2 0.224767710909D-03 0.100000000000D+01
-.120415111198D-06 0.000000000000D+00 -.877493273938D-08 0.144374492552D-07 0.000000000000D+00  7 2 -2 23 -11 11 23 21 2 0.33314761D+00 0.59296606D-02 0.55316789D+05 0.55316789D+05 0.55316789D+05 0.11434550D+01  1  2  3  2  7  2       -2 -.154871063068D-04 0.100000000000D+01
0.145925648883D-06 0.000000000000D+00 0.000000000000D+00 0.144374492552D-07 0.000000000000D+00  7 2 -2 23 -11 11 23 21 2 0.33314761D+00 0.59296606D-02 0.55316789D+05 0.55316789D+05 0.55316789D+05 0.11434550D+01  1  2 15  2  7  2       -2 0.187681264805D-04 0.100000000000D+01
0.220783874941D-05 0.000000000000D+00 -.109440703306D-05 0.144374492552D-07 0.000000000000D+00  7 2 -2 23 -11 11 23 21 2 0.33314761D+00 0.34875814D-01 0.55316789D+05 0.55316789D+05 0.55316789D+05 0.11434550D+01  1  2  5  2  7  2       -2 0.166808832284D-04 0.100000000000D+01
0.413717564710D-06 0.000000000000D+00 -.237621688945D-06 0.144374492552D-07 0.000000000000D+00  7 2 21 23 -11 11 23 2 2 0.33314761D+00 0.34875814D-01 0.55316789D+05 0.55316789D+05 0.55316789D+05 0.11434550D+01  1  2  5  4  7  2       -2 0.366261459598D-04 0.100000000000D+01
  </mgrwgt>
  </event>
  <event>
  7     66 0.55102590E-06 0.22755309E+03 0.75467711E-02 0.96337045E-01
        2 -1    0    0  501    0 0.00000000E+00 0.00000000E+00 0.10460302E+04 0.10460303E+04 0.32000000E+00 0.0000E+00 0.9000E+01
       -2 -1    0    0    0  501 0.00000000E+00 0.00000000E+00 -.11269995E+03 0.11270040E+03 0.32000000E+00 0.0000E+00 0.9000E+01
       25  2    1    2    0    0 -.28956669E+01 -.14169312E+03 0.82738767E+03 0.89232456E+03 0.30263419E+03 0.0000E+00 0.0000E+00
       23  1    3    3    0    0 -.84244679E+02 -.87263240E+02 0.20121301E+03 0.25201977E+03 0.91188000E+02 0.0000E+00 0.9000E+01
      -13  1    1    2    0    0 0.40797909E+02 0.27342874E+02 0.13399735E+03 0.14271441E+03 0.10565837E+00 0.0000E+00 0.9000E+01
       13  1    1    2    0    0 -.37902242E+02 0.11435024E+03 -.28054736E+02 0.12369170E+03 0.10565837E+00 0.0000E+00 0.9000E+01
       23  1    3    3    0    0 0.81349012E+02 -.54429876E+02 0.62617466E+03 0.64030479E+03 0.91188000E+02 0.0000E+00 0.9000E+01
#aMCatNLO 1  0  0  1  2 0.34197024D+03 0.00000000D+00  -5  7  0 0.00000000D+00 0.00000000D+00 0.00000000D+00 0.00000000D+00 0.00000000D+00
  <mgrwgt>
 0.7392526856D-03    5    2    0
 0.343347990312974D+03 0.000000000000000D+00 0.000000000000000D+00 0.343347990312974D+03
 0.343347990312974D+03 0.000000000000000D+00 0.000000000000000D+00 -.343347990312974D+03
 0.151778619958196D+03 -.842447276701477D+02 -.872656341000740D+02 -.300551115605086D+01
 0.586852891860228D+02 0.407937897825103D+02 0.273439916750035D+02 0.321268735065337D+02
 0.246849311362530D+03 -.378979999729531D+02 0.114355137082448D+03 -.215455857987338D+03
 0.229382760119199D+03 0.813489378605905D+02 -.544334946573771D+02 0.186334495636855D+03
 0.000000000000000D+00 0.000000000000000D+00 0.000000000000000D+00 0.000000000000000D+00
 0.107744102855334D+04 0.000000000000000D+00 0.000000000000000D+00 0.107744102855334D+04
 0.425701472122921D+03 0.000000000000000D+00 0.000000000000000D+00 -.425701472122921D+03
 0.221484568277697D+03 -.104396827699147D+03 -.172720675977728D+03 -.300551115605086D+01
 0.476431653517232D+02 0.350532246282005D+02 0.300110756084062D+01 0.321268735065337D+02
 0.224668838035045D+03 -.633547854573644D+02 0.640556028844800D+01 -.215455857987338D+03
 0.273337714237712D+03 0.542075705756280D+02 -.169526545734716D+03 0.186334495636855D+03
 0.736008214774084D+03 0.784908179526830D+02 0.332840553863155D+03 0.651739556430420D+03
0.974275060068D-05 0.000000000000D+00 0.000000000000D+00 0.114960988913D-10 0.000000000000D+00  7 2 -2 23 -13 13 23 21 0 0.16092777D+00 0.17338492D-01 0.51780411D+05 0.51780411D+05 0.51780411D+05 0.11459612D+01  1  2  2  1  7  1        2 0.740921659056D-03 0.100000000000D+01
-.429902036337D-06 0.000000000000D+00 -.374147276318D-07 0.114960988913D-10 0.000000000000D+00  7 2 -2 23 -13 13 23 21 2 0.16092777D+00 0.17338492D-01 0.51780411D+05 0.51780411D+05 0.51780411D+05 0.11459612D+01  1  2  3  1  7  1        2 -.429338693555D-04 0.100000000000D+01
0.584893311141D-06 0.000000000000D+00 0.000000000000D+00 0.114960988913D-10 0.000000000000D+00  7 2 -2 23 -13 13 23 21 2 0.16092777D+00 0.17338492D-01 0.51780411D+05 0.51780411D+05 0.51780411D+05 0.11459612D+01  1  2 15  1  7  1        2 0.584126868097D-04 0.100000000000D+01
-.389472715748D-05 0.000000000000D+00 -.291087128980D-05 0.114960988913D-10 0.000000000000D+00  7 2 -2 23 -13 13 23 21 2 0.52713199D+00 0.17338492D-01 0.51780411D+05 0.51780411D+05 0.51780411D+05 0.11459612D+01  1  2  5  1  7  1        2 -.170694788353D-04 0.100000000000D+01
-.416544728018D-06 0.000000000000D+00 -.399436859463D-06 0.114960988913D-10 0.000000000000D+00  7 21 -2 23 -13 13 23 -2 2 0.52713199D+00 0.17338492D-01 0.51780411D+05 0.51780411D+05 0.51780411D+05 0.11459612D+01  1  2  5  3  7  1        2 -.783120385092D-07 0.100000000000D+01
  </mgrwgt>
  </event>
  <event>
  8     66 0.55102590E-06 0.14602969E+03 0.75467711E-02 0.10011674E+00
        2 -1    0    0  501    0 0.00000000E+00 0.00000000E+00 0.44071661E+03 0.44071673E+03 0.32000000E+00 0.0000E+00 0.9000E+01
       -2 -1    0    0    0  501 0.00000000E+00 0.00000000E+00 -.38062090E+03 0.38062104E+03 0.32000000E+00 0.0000E+00 0.9000E+01
       25  2    1    2    0    0 0.17367016E+03 0.18611643E+02 0.33514630E+03 0.48298279E+03 0.30073512E+03 0.0000E+00 0.0000E+00
       23  2    1    2    0    0 -.17367016E+03 -.18611643E+02 -.27505060E+03 0.33835497E+03 0.91233432E+02 0.0000E+00 0.0000E+00
       23  1    3    3    0    0 -.11328073E+02 -.69792992E+02 0.16512637E+03 0.20144815E+03 0.91188000E+02 0.0000E+00 0.9000E+01
      -13  1    4    4    0    0 -.75363556E+02 -.25998087E+02 -.19730919E+03 0.21280623E+03 0.10565837E+00 0.0000E+00 0.9000E+01
       13  1    4    4    0    0 -.98306607E+02 0.73864442E+01 -.77741408E+02 0.12554874E+03 0.10565837E+00 0.0000E+00 0.9000E+01
       23  1    3    3    0    0 0.18499824E+03 0.88404635E+02 0.17001994E+03 0.28153465E+03 0.91188000E+02 0.0000E+00 0.9000E+01
#aMCatNLO 1  0  0  2  1 0.94984085D+02 0.00000000D+00  -5  7  0 0.00000000D+00 0.00000000D+00 0.00000000D+00 0.00000000D+00 0.00000000D+00
  <mgrwgt>
 0.2148075632D-03    9    2    0
 0.409568135907414D+03 0.000000000000000D+00 0.000000000000000D+00 0.409568135907414D+03
 0.409568135907414D+03 0.000000000000000D+00 0.000000000000000D+00 -.409568135907414D+03
 0.189875103514057D+03 -.113280729951397D+02 -.697929915946751D+02 0.150790970143959D+03
 0.227853830320364D+03 -.753635253449995D+02 -.259981316279173D+02 -.213452112172947D+03
 0.131589511147893D+03 -.983066380622634D+02 0.738648890601728D+01 -.871610241947508D+02
 0.269817826832514D+03 0.184998236402403D+03 0.884046343165751D+02 0.149822166223739D+03
 0.000000000000000D+00 0.000000000000000D+00 0.000000000000000D+00 -.000000000000000D+00
 0.445866081809169D+03 0.000000000000000D+00 0.000000000000000D+00 0.445866081809169D+03
 0.479532999140370D+03 0.000000000000000D+00 0.000000000000000D+00 -.479532999140370D+03
 0.199287211072401D+03 -.175631280718467D+02 -.913989114179791D+02 0.150790970143959D+03
 0.234700017043173D+03 -.827744400357478D+02 -.516786792182393D+02 -.213452112172947D+03
 0.134808935606914D+03 -.102574803107048D+03 -.740369828811908D+01 -.871610241947508D+02
 0.255828725647584D+03 0.176576467174626D+03 0.592212400294132D+02 0.149822166223739D+03
 0.100774191579466D+03 0.263359040400166D+02 0.912600488949244D+02 -.336669173312008D+02
0.657801800794D-05 0.000000000000D+00 0.000000000000D+00 0.480635733582D-06 0.000000000000D+00  7 2 -2 23 -13 13 23 21 0 0.67802575D-01 0.58557081D-01 0.67105286D+05 0.67105286D+05 0.67105286D+05 0.11362221D+01  1  2  2  2  7  2       -2 0.161074348308D-03 0.100000000000D+01
-.272202991422D-06 0.000000000000D+00 -.252613211824D-07 0.480635733582D-06 0.000000000000D+00  7 2 -2 23 -13 13 23 21 2 0.67802575D-01 0.58557081D-01 0.67105286D+05 0.67105286D+05 0.67105286D+05 0.11362221D+01  1  2  3  2  7  2       -2 -.860499650654D-05 0.100000000000D+01
0.395681613896D-06 0.000000000000D+00 0.000000000000D+00 0.480635733582D-06 0.000000000000D+00  7 2 -2 23 -13 13 23 21 2 0.67802575D-01 0.58557081D-01 0.67105286D+05 0.67105286D+05 0.67105286D+05 0.11362221D+01  1  2 15  2  7  2       -2 0.125084551330D-04 0.100000000000D+01
0.572717602577D-05 0.000000000000D+00 0.000000000000D+00 0.480635733582D-06 0.000000000000D+00  7 2 -2 23 -13 13 23 21 2 0.67802575D-01 0.70805056D-01 0.10019568D+06 0.10019568D+06 0.10019568D+06 0.11216524D+01  1  2 12  2  7  2       -2 0.117820987650D-03 0.100000000000D+01
-.633061859850D-05 0.000000000000D+00 0.000000000000D+00 0.480635733582D-06 0.000000000000D+00  7 2 -2 23 -13 13 23 21 2 0.67802575D-01 0.58557081D-01 0.67105286D+05 0.67105286D+05 0.67105286D+05 0.11362221D+01  1  2  4  2  7  2       -2 -.200126202287D-03 0.100000000000D+01
-.113008102415D-04 0.000000000000D+00 -.411477455747D-05 0.480635733582D-06 0.000000000000D+00  7 2 -2 23 -13 13 23 21 2 0.67802575D-01 0.73574511D-01 0.67105286D+05 0.67105286D+05 0.67105286D+05 0.11362221D+01  1  2  5  2  7  2       -2 -.221422473593D-03 0.100000000000D+01
0.120302795630D-04 0.000000000000D+00 0.400982518864D-05 0.480635733582D-06 0.000000000000D+00  7 2 -2 23 -13 13 23 21 2 0.67802575D-01 0.58557081D-01 0.67105286D+05 0.67105286D+05 0.67105286D+05 0.11362221D+01  1  2  6  2  7  2       -2 0.380306304026D-03 0.100000000000D+01
0.157494953326D-06 0.000000000000D+00 0.000000000000D+00 0.480635733582D-06 0.000000000000D+00  7 2 21 23 -13 13 23 2 2 0.67802575D-01 0.70805056D-01 0.10019568D+06 0.10019568D+06 0.10019568D+06 0.11216524D+01  1  2 12  4  7  2       -2 0.328146527631D-04 0.100000000000D+01
-.298172618588D-06 0.000000000000D+00 -.130169948926D-06 0.480635733582D-06 0.000000000000D+00  7 2 21 23 -13 13 23 2 2 0.67802575D-01 0.73574511D-01 0.67105286D+05 0.67105286D+05 0.67105286D+05 0.11362221D+01  1  2  5  4  7  2       -2 -.595635123172D-04 0.100000000000D+01
  </mgrwgt>
  </event>
  <event>
  8     66 0.55102590E-06 0.18065068E+03 0.75467711E-02 0.96064352E-01
        2 -1    0    0  501    0 0.00000000E+00 0.00000000E+00 0.46139931E+03 0.46139942E+03 0.32000000E+00 0.0000E+00 0.9000E+01
       -2 -1    0    0    0  501 0.00000000E+00 0.00000000E+00 -.21301910E+03 0.21301934E+03 0.32000000E+00 0.0000E+00 0.9000E+01
       25  2    1    2    0    0 -.27449560E+02 -.36284432E+02 -.93047857E+02 0.31779494E+03 0.30044248E+03 0.0000E+00 0.0000E+00
       23  2    1    2    0    0 0.27449560E+02 0.36284432E+02 0.34142806E+03 0.35662382E+03 0.92397987E+02 0.0000E+00 0.0000E+00
       23  1    3    3    0    0 0.79323316E+02 -.12886586E+02 -.12234996E+03 0.17246164E+03 0.91188000E+02 0.0000E+00 0.9000E+01
      -11  1    4    4    0    0 0.40296236E+02 -.16156699E+02 0.21175267E+03 0.21615739E+03 0.51099893E-03 0.0000E+00 0.9000E+01
       11  1    4    4    0    0 -.12846676E+02 0.52441130E+02 0.12967539E+03 0.14046643E+03 0.51099893E-03 0.0000E+00 0.9000E+01
       23  1    3    3    0    0 -.10677288E+03 -.23397845E+02 0.29302099E+02 0.14533331E+03 0.91188000E+02 0.0000E+00 0.9000E+01
#aMCatNLO 1  0  0  2  1 0.34521010D+03 0.00000000D+00  -5  7  0 0.00000000D+00 0.00000000D+00 0.00000000D+00 0.00000000D+00 0.00000000D+00
  <mgrwgt>
 0.1563081424D-03    5    2    0
 0.313507551805263D+03 0.000000000000000D+00 0.000000000000000D+00 0.313507551805263D+03
 0.313507551805263D+03 0.000000000000000D+00 0.000000000000000D+00 -.313507551805263D+03
 0.233966724091074D+03 0.793233156236455D+02 -.128865863967529D+02 -.199917293217519D+03
 0.148617519250533D+03 0.402962358077780D+02 -.161566987934836D+02 0.142134941136946D+03
 0.997175226551301D+02 -.128466758902958D+02 0.524411303131818D+02 0.838360011839899D+02
 0.144713337613789D+03 -.106772875541128D+03 -.233978451229453D+02 -.260536491034169D+02
 0.000000000000000D+00 -.000000000000000D+00 -.000000000000000D+00 -.000000000000000D+00
 0.440619548011394D+03 0.000000000000000D+00 0.000000000000000D+00 0.440619548011394D+03
 0.717966155153915D+03 0.000000000000000D+00 0.000000000000000D+00 -.717966155153915D+03
 0.308759139114424D+03 0.216562313055824D+03 0.122798647863988D+02 -.199917293217519D+03
 0.189870340564135D+03 0.125889603792048D+03 -.460859000991791D+00 0.142134941136946D+03
 0.112082463638389D+03 0.407111508979694D+02 0.622623943748685D+02 0.838360011839899D+02
 0.105051951710444D+03 -.436147689829428D+02 -.118161122681688D+02 -.260536491034169D+02
 0.442821808137917D+03 -.339548298762899D+03 -.622652878921067D+02 -.277346607142521D+03
0.197564052195D-05 0.000000000000D+00 0.000000000000D+00 0.165056904508D-06 0.000000000000D+00  7 2 -2 23 -11 11 23 21 0 0.70984536D-01 0.32772197D-01 0.32634666D+05 0.32634666D+05 0.32634666D+05 0.11639591D+01  1  2  2  2  7  2       -2 0.138363647972D-03 0.100000000000D+01
-.692044198245D-07 0.000000000000D+00 -.758697980240D-08 0.165056904508D-06 0.000000000000D+00  7 2 -2 23 -11 11 23 21 2 0.70984536D-01 0.32772197D-01 0.32634666D+05 0.32634666D+05 0.32634666D+05 0.11639591D+01  1  2  3  2  7  2       -2 -.656634017795D-05 0.100000000000D+01
0.123148030005D-06 0.000000000000D+00 0.000000000000D+00 0.165056904508D-06 0.000000000000D+00  7 2 -2 23 -11 11 23 21 2 0.70984536D-01 0.32772197D-01 0.32634666D+05 0.32634666D+05 0.32634666D+05 0.11639591D+01  1  2 15  2  7  2       -2 0.116846851590D-04 0.100000000000D+01
0.419007302355D-06 0.000000000000D+00 -.632495171032D-06 0.165056904508D-06 0.000000000000D+00  7 2 -2 23 -11 11 23 21 2 0.70984536D-01 0.98897515D-01 0.32634666D+05 0.32634666D+05 0.32634666D+05 0.11639591D+01  1  2  5  2  7  2       -2 0.428121011020D-05 0.100000000000D+01
0.839830110762D-07 0.000000000000D+00 -.795747152690D-07 0.165056904508D-06 0.000000000000D+00  7 2 21 23 -11 11 23 2 2 0.70984536D-01 0.98897515D-01 0.32634666D+05 0.32634666D+05 0.32634666D+05 0.11639591D+01  1  2  5  4  7  2       -2 0.854493930994D-05 0.100000000000D+01
  </mgrwgt>
  </event>
  <event>
  8     66 0.55102590E-06 0.19335646E+03 0.75467711E-02 0.99103881E-01
        2 -1    0    0  501    0 0.00000000E+00 0.00000000E+00 0.14623118E+04 0.14623118E+04 0.32000000E+00 0.0000E+00 0.9000E+01
       -2 -1    0    0    0  501 0.00000000E+00 0.00000000E+00 -.25921273E+03 0.25921293E+03 0.32000000E+00 0.0000E+00 0.9000E+01
       25  2    1    2    0    0 -.13931746E+02 0.44598735E+02 0.14369231E+04 0.14686522E+04 0.30001383E+03 0.0000E+00 0.0000E+00
       23  2    1    2    0    0 0.13931746E+02 -.44598735E+02 -.23382404E+03 0.25287251E+03 0.84188381E+02 0.0000E+00 0.0000E+00
       23  1    3    3    0    0 0.88192486E+02 0.82636631E+02 0.55169857E+03 0.57209553E+03 0.91188000E+02 0.0000E+00 0.9000E+01
      -13  1    4    4    0    0 0.33808764E+02 0.98811622E+01 -.59376357E+02 0.69037908E+02 0.10565837E+00 0.0000E+00 0.9000E+01
       13  1    4    4    0    0 -.19877018E+02 -.54479898E+02 -.17444768E+03 0.18383460E+03 0.10565837E+00 0.0000E+00 0.9000E+01
       23  1    3    3    0    0 -.10212423E+03 -.38037896E+02 0.88522452E+03 0.89655671E+03 0.91188000E+02 0.0000E+00 0.9000E+01
#aMCatNLO 1  0  0  1  2 0.22215741D+03 0.00000000D+00  -5  7  0 0.00000000D+00 0.00000000D+00 0.00000000D+00 0.00000000D+00 0.00000000D+00
  <mgrwgt>
 0.4078266919D-03    4    2    0
 0.615670391367912D+03 0.000000000000000D+00 0.000000000000000D+00 0.615670391367912D+03
 0.615670391367912D+03 0.000000000000000D+00 0.000000000000000D+00 -.615670391367912D+03
 0.260795861016360D+03 0.881924861742218D+02 0.826366312483609D+02 0.212349952525534D+03
 0.154535266458485D+03 0.338088485804637D+02 0.988126353494493D+01 -.150467508014226D+03
 0.427464262144790D+03 -.198771025062917D+02 -.544799990187761D+02 -.423512131955932D+03
 0.388545393116189D+03 -.102124232248394D+03 -.380378957645298D+02 0.361629687444624D+03
 0.000000000000000D+00 -.000000000000000D+00 0.000000000000000D+00 -.000000000000000D+00
 0.675698322338914D+03 0.000000000000000D+00 0.000000000000000D+00 0.675698322338914D+03
 0.871947456540172D+03 0.000000000000000D+00 0.000000000000000D+00 -.871947456540172D+03
 0.266928668932077D+03 0.123394326740700D+03 0.511566295260292D+02 0.212349952525534D+03
 0.160388717141277D+03 0.548158384627083D+02 -.890468819463019D+01 -.150467508014226D+03
 0.438244734611951D+03 0.378699764172037D+02 -.106121564195978D+03 -.423512131955932D+03
 0.385658898455458D+03 -.504809704874681D+02 -.842209913930263D+02 0.361629687444624D+03
 0.296424759738323D+03 -.165599171133144D+03 0.148090614257605D+03 -.196249134201257D+03
0.397804775230D-04 0.000000000000D+00 0.000000000000D+00 0.889473282555D-07 0.000000000000D+00  7 2 -2 23 -13 13 23 21 0 0.22497106D+00 0.39878900D-01 0.37386722D+05 0.37386722D+05 0.37386722D+05 0.11585689D+01  1  2  2  1  7  1        2 0.431866511026D-03 0.100000000000D+01
0.139433491728D-05 0.000000000000D+00 -.152767508128D-06 0.889473282555D-07 0.000000000000D+00  7 2 -2 23 -13 13 23 21 2 0.22497106D+00 0.39878900D-01 0.37386722D+05 0.37386722D+05 0.37386722D+05 0.11585689D+01  1  2  3  1  7  1        2 0.203184408433D-04 0.100000000000D+01
0.242345170452D-05 0.000000000000D+00 0.000000000000D+00 0.889473282555D-07 0.000000000000D+00  7 2 -2 23 -13 13 23 21 2 0.22497106D+00 0.39878900D-01 0.37386722D+05 0.37386722D+05 0.37386722D+05 0.11585689D+01  1  2 15  1  7  1        2 0.353148726928D-04 0.100000000000D+01
-.546749781330D-05 0.000000000000D+00 0.000000000000D+00 0.889473282555D-07 0.000000000000D+00  7 2 -2 23 -13 13 23 21 2 0.22497106D+00 0.39878900D-01 0.37386722D+05 0.37386722D+05 0.37386722D+05 0.11585689D+01  1  2  4  1  7  1        2 -.796731326912D-04 0.100000000000D+01
  </mgrwgt>
  </event>
  <event>
  8     66 0.55102590E-06 0.16801701E+04 0.75467711E-02 0.81483348E-01
        2 -1    0    0  501    0 0.00000000E+00 0.00000000E+00 0.12000549E+04 0.12000549E+04 0.32000000E+00 0.0000E+00 0.9000E+01
       -2 -1    0    0    0  501 0.00000000E+00 0.00000000E+00 -.29172266E+04 0.29172267E+04 0.32000000E+00 0.0000E+00 0.9000E+01
       25  2    1    2    0    0 -.89239201E+03 0.14099655E+04 -.17624526E+04 0.24455567E+04 0.30023666E+03 0.0000E+00 0.0000E+00
       23  2    1    2    0    0 0.89239201E+03 -.14099655E+04 0.45280830E+02 0.16717249E+04 0.90816345E+02 0.0000E+00 0.0000E+00
       23  1    3    3    0    0 -.73207997E+03 0.10066718E+04 -.13715728E+04 0.18544153E+04 0.91188000E+02 0.0000E+00 0.9000E+01
      -11  1    4    4    0    0 0.84635640E+01 -.94376924E+01 0.83330482E+01 0.15170420E+02 0.51099893E-03 0.0000E+00 0.9000E+01
       11  1    4    4    0    0 0.88392844E+03 -.14005278E+04 0.36947781E+02 0.16565545E+04 0.51099893E-03 0.0000E+00 0.9000E+01
       23  1    3    3    0    0 -.16031204E+03 0.40329372E+03 -.39087985E+03 0.59114134E+03 0.91188000E+02 0.0000E+00 0.9000E+01
#aMCatNLO 1  0  0  1  1 0.46467368D+03 0.00000000D+00  -5  7  0 0.00000000D+00 0.00000000D+00 0.00000000D+00 0.00000000D+00 0.00000000D+00
  <mgrwgt>
 0.2003680401D-03    4    2    0
 0.187105108620513D+04 0.000000000000000D+00 0.000000000000000D+00 0.187105108620513D+04
 0.187105108620513D+04 0.000000000000000D+00 0.000000000000000D+00 -.187105108620513D+04
 0.141095133377425D+04 -.732079969997502D+03 0.100667177260811D+04 -.658133173983678D+03
 0.205152512826951D+02 0.846356398126312D+01 -.943769240261423D+01 0.161298971491083D+02
 0.183959353072110D+04 0.883928444303392D+03 -.140052780304612D+04 0.800810050209860D+03
 0.471042056632212D+03 -.160312038287152D+03 0.403293722840626D+03 -.158806773375290D+03
 0.000000000000000D+00 0.000000000000000D+00 0.000000000000000D+00 -.000000000000000D+00
 0.192640436594912D+04 0.000000000000000D+00 0.000000000000000D+00 0.192640436594912D+04
 0.320255265743593D+04 0.000000000000000D+00 0.000000000000000D+00 -.320255265743593D+04
 0.132764479702433D+04 -.780046284039200D+03 0.844223889605463D+03 -.658133173983678D+03
 0.214991442947706D+02 0.772768486791859D+01 -.119298998297841D+02 0.161298971491083D+02
 0.198943000646539D+04 0.816863372753692D+03 -.162765759432420D+04 0.800810050209860D+03
 0.432268172578477D+03 -.176133451910038D+03 0.349711220192775D+03 -.158806773375290D+03
 0.135811490302208D+04 0.131588678327628D+03 0.445652384355743D+03 -.127614829148681D+04
0.453598206504D-01 0.000000000000D+00 0.000000000000D+00 0.308927841295D-04 0.000000000000D+00  7 2 -2 23 -11 11 23 21 0 0.18462383D+00 0.44880410D+00 0.28229717D+07 0.28229717D+07 0.28229717D+07 0.10191177D+01  1  2  2  1  7  1        2 0.203707867586D-03 0.100000000000D+01
-.248451297789D-02 0.000000000000D+00 -.174193654813D-03 0.308927841295D-04 0.000000000000D+00  7 2 -2 23 -11 11 23 21 2 0.18462383D+00 0.44880410D+00 0.28229717D+07 0.28229717D+07 0.28229717D+07 0.10191177D+01  1  2  3  1  7  1        2 -.115884783500D-04 0.100000000000D+01
0.279768142851D-02 0.000000000000D+00 0.000000000000D+00 0.308927841295D-04 0.000000000000D+00  7 2 -2 23 -11 11 23 21 2 0.18462383D+00 0.44880410D+00 0.28229717D+07 0.28229717D+07 0.28229717D+07 0.10191177D+01  1  2 15  1  7  1        2 0.130491854754D-04 0.100000000000D+01
-.102921109645D-02 0.000000000000D+00 0.000000000000D+00 0.308927841295D-04 0.000000000000D+00  7 2 -2 23 -11 11 23 21 2 0.18462383D+00 0.44880410D+00 0.28229717D+07 0.28229717D+07 0.28229717D+07 0.10191177D+01  1  2  4  1  7  1        2 -.480053459769D-05 0.100000000000D+01
  </mgrwgt>
  </event>
  <event>
  8     66 0.55102590E-06 0.50005143E+03 0.75467711E-02 0.93270459E-01
        4 -1    0    0  501    0 0.00000000E+00 0.00000000E+00 0.12686838E+04 0.12686848E+04 0.15500000E+01 0.0000E+00 0.9000E+01
       -4 -1    0    0    0  501 0.00000000E+00 0.00000000E+00 -.32996278E+03 0.32996642E+03 0.15500000E+01 0.0000E+00 0.9000E+01
       25  2    1    2    0    0 -.43607356E+03 -.11526963E+03 -.12396698E+02 0.54191516E+03 0.30011851E+03 0.0000E+00 0.0000E+00
       23  2    1    2    0    0 0.43607356E+03 0.11526963E+03 0.95111773E+03 0.10567360E+04 0.92837763E+02 0.0000E+00 0.0000E+00
       23  1    3    3    0    0 -.24844599E+03 -.18133636E+03 -.30944904E+02 0.32230595E+03 0.91188000E+02 0.0000E+00 0.9000E+01
      -11  1    4    4    0    0 0.30132210E+03 0.12306580E+03 0.67899779E+03 0.75297955E+03 0.51099893E-03 0.0000E+00 0.9000E+01
       11  1    4    4    0    0 0.13475145E+03 -.77961646E+01 0.27211994E+03 0.30375647E+03 0.51099893E-03 0.0000E+00 0.9000E+01
       23  1    3    3    0    0 -.18762756E+03 0.66066728E+02 0.18548206E+02 0.21960920E+03 0.91188000E+02 0.0000E+00 0.9000E+01
#aMCatNLO 1  0  0  1  1 0.12590364D+03 0.00000000D+00  -5  7  0 0.00000000D+00 0.00000000D+00 0.00000000D+00 0.00000000D+00 0.00000000D+00
  <mgrwgt>
 0.2291227151D-05    4    2    0
 0.647010126569970D+03 0.000000000000000D+00 0.000000000000000D+00 0.647010126569970D+03
 0.647010126569970D+03 0.000000000000000D+00 0.000000000000000D+00 -.647010126569970D+03
 0.420629754616921D+03 -.248445993866561D+03 -.181336361348879D+03 -.272040164882866D+03
 0.437676408976165D+03 0.301322104699537D+03 0.123065797475697D+03 0.292609701967284D+03
 0.177861153210433D+03 0.134751452520743D+03 -.779616461950860D+01 0.115826834896412D+03
 0.257852936336420D+03 -.187627563353719D+03 0.660667284926899D+02 -.136396371980830D+03
 0.000000000000000D+00 0.000000000000000D+00 -.000000000000000D+00 -.000000000000000D+00
 0.663778618830567D+03 0.000000000000000D+00 0.000000000000000D+00 0.663778618830567D+03
 0.939051837133716D+03 0.000000000000000D+00 0.000000000000000D+00 -.939051837133716D+03
 0.437910511415724D+03 -.286761666687682D+03 -.164961389038121D+03 -.272040164882866D+03
 0.417489920798989D+03 0.263157006805273D+03 0.139376418567322D+03 0.292609701967284D+03
 0.166346940489445D+03 0.119389837903025D+03 -.123107009048855D+01 0.115826834896412D+03
 0.278383444588262D+03 -.211559181402617D+03 0.762943861076781D+02 -.136396371980830D+03
 0.302699638671863D+03 0.115774003382001D+03 -.494783455463906D+02 -.275273218303148D+03
0.329533370592D-04 0.000000000000D+00 0.000000000000D+00 0.654931400125D-06 0.000000000000D+00  7 4 -4 23 -11 11 23 21 0 0.19518248D+00 0.50763857D-01 0.25005143D+06 0.25005143D+06 0.25005143D+06 0.10904524D+01  1  2  2  1  7  1        4 0.242656789393D-05 0.100000000000D+01
-.168297578331D-05 0.000000000000D+00 -.126549491120D-06 0.654931400125D-06 0.000000000000D+00  7 4 -4 23 -11 11 23 21 2 0.19518248D+00 0.50763857D-01 0.25005143D+06 0.25005143D+06 0.25005143D+06 0.10904524D+01  1  2  3  1  7  1        4 -.147361600099D-06 0.100000000000D+01
0.209264914245D-05 0.000000000000D+00 0.000000000000D+00 0.654931400125D-06 0.000000000000D+00  7 4 -4 23 -11 11 23 21 2 0.19518248D+00 0.50763857D-01 0.25005143D+06 0.25005143D+06 0.25005143D+06 0.10904524D+01  1  2 15  1  7  1        4 0.183232657971D-06 0.100000000000D+01
-.195536227590D-05 0.000000000000D+00 0.000000000000D+00 0.654931400125D-06 0.000000000000D+00  7 4 -4 23 -11 11 23 21 2 0.19518248D+00 0.50763857D-01 0.25005143D+06 0.25005143D+06 0.25005143D+06 0.10904524D+01  1  2  4  1  7  1        4 -.171211800316D-06 0.100000000000D+01
  </mgrwgt>
  </event>
  <event>
  8     66 0.55102590E-06 0.16021924E+03 0.75467711E-02 0.99044038E-01
        2 -1    0    0  501    0 0.00000000E+00 0.00000000E+00 0.11887142E+04 0.11887142E+04 0.32000000E+00 0.0000E+00 0.9000E+01
       -2 -1    0    0    0  501 0.00000000E+00 0.00000000E+00 -.12183356E+03 0.12183398E+03 0.32000000E+00 0.0000E+00 0.9000E+01
       25  2    1    2    0    0 0.18753238E+03 -.19516085E+03 0.89806119E+03 0.98479666E+03 0.30009065E+03 0.0000E+00 0.0000E+00
       23  2    1    2    0    0 -.18753238E+03 0.19516085E+03 0.16881943E+03 0.32575155E+03 0.66014556E+02 0.0000E+00 0.0000E+00
       23  1    3    3    0    0 0.15583421E+03 -.19500116E+03 0.81569321E+03 0.85789301E+03 0.91188000E+02 0.0000E+00 0.9000E+01
      -13  1    4    4    0    0 -.14827267E+03 0.18501614E+03 0.13425985E+03 0.27247289E+03 0.10565837E+00 0.0000E+00 0.9000E+01
       13  1    4    4    0    0 -.39259707E+02 0.10144710E+02 0.34559585E+02 0.53278662E+02 0.10565837E+00 0.0000E+00 0.9000E+01
       23  1    3    3    0    0 0.31698170E+02 -.15969279E+00 0.82367984E+02 0.12690365E+03 0.91188000E+02 0.0000E+00 0.9000E+01
#aMCatNLO 1  0  0  2  1 0.49298975D+02 0.00000000D+00  -5  7  0 0.00000000D+00 0.00000000D+00 0.00000000D+00 0.00000000D+00 0.00000000D+00
  <mgrwgt>
 0.1189031730D-02    9    2    0
 0.380559563264521D+03 0.000000000000000D+00 0.000000000000000D+00 0.380559563264521D+03
 0.380559563264521D+03 0.000000000000000D+00 0.000000000000000D+00 -.380559563264521D+03
 0.333801701707489D+03 0.155834206705656D+03 -.195001156603658D+03 0.201986568024882D+03
 0.280967956251152D+03 -.148272949501366D+03 0.185016587160171D+03 -.150754725835437D+03
 0.432952454546426D+02 -.392594272179048D+02 0.101442622778568D+02 -.151746366130407D+02
 0.103054223115758D+03 0.316981700136147D+02 -.159692834368997D+00 -.360572055764038D+02
 0.000000000000000D+00 0.000000000000000D+00 -.000000000000000D+00 -.000000000000000D+00
 0.400314189379325D+03 0.000000000000000D+00 0.000000000000000D+00 0.400314189379325D+03
 0.413408078865877D+03 0.000000000000000D+00 0.000000000000000D+00 -.413408078865877D+03
 0.318334004865437D+03 0.142854804127981D+03 -.178368210690005D+03 0.201986568024882D+03
 0.296912746246931D+03 -.159774460926049D+03 0.199755633607583D+03 -.150754725835437D+03
 0.454683697974677D+02 -.410260820490924D+02 0.124082088716530D+02 -.151746366130407D+02
 0.101998923613845D+03 0.276170143363569D+02 0.507025833162580D+01 -.360572055764038D+02
 0.510082237215215D+02 0.303287245108034D+02 -.388658901208571D+02 -.130938894865521D+02
0.158974942833D-04 0.000000000000D+00 0.000000000000D+00 0.154236740020D-08 0.000000000000D+00  7 2 -2 23 -13 13 23 21 0 0.18287914D+00 0.18743660D-01 0.10238146D+06 0.10238146D+06 0.10238146D+06 0.11208842D+01  1  2  2  2  7  2       -2 0.873748573779D-03 0.100000000000D+01
-.850901953711D-06 0.000000000000D+00 -.610505639543D-07 0.154236740020D-08 0.000000000000D+00  7 2 -2 23 -13 13 23 21 2 0.18287914D+00 0.18743660D-01 0.10238146D+06 0.10238146D+06 0.10238146D+06 0.11208842D+01  1  2  3  2  7  2       -2 -.587568957304D-04 0.100000000000D+01
0.102192812951D-05 0.000000000000D+00 0.000000000000D+00 0.154236740020D-08 0.000000000000D+00  7 2 -2 23 -13 13 23 21 2 0.18287914D+00 0.18743660D-01 0.10238146D+06 0.10238146D+06 0.10238146D+06 0.11208842D+01  1  2 15  2  7  2       -2 0.705666784376D-04 0.100000000000D+01
0.260395495988D-04 0.000000000000D+00 0.000000000000D+00 0.154236740020D-08 0.000000000000D+00  7 2 -2 23 -13 13 23 21 2 0.18287914D+00 0.20814047D-01 0.11882202D+06 0.11882202D+06 0.11882202D+06 0.11156272D+01  1  2 12  2  7  2       -2 0.149443089338D-02 0.100000000000D+01
-.236825711382D-04 0.000000000000D+00 0.000000000000D+00 0.154236740020D-08 0.000000000000D+00  7 2 -2 23 -13 13 23 21 2 0.18287914D+00 0.18743660D-01 0.10238146D+06 0.10238146D+06 0.10238146D+06 0.11208842D+01  1  2  4  2  7  2       -2 -.163534042545D-02 0.100000000000D+01
-.713417541114D-04 0.000000000000D+00 -.166203315112D-04 0.154236740020D-08 0.000000000000D+00  7 2 -2 23 -13 13 23 21 2 0.18287914D+00 0.21425110D-01 0.10238146D+06 0.10238146D+06 0.10238146D+06 0.11208842D+01  1  2  5  2  7  2       -2 -.394872691051D-02 0.100000000000D+01
0.730574668983D-04 0.000000000000D+00 0.164728623828D-04 0.154236740020D-08 0.000000000000D+00  7 2 -2 23 -13 13 23 21 2 0.18287914D+00 0.18743660D-01 0.10238146D+06 0.10238146D+06 0.10238146D+06 0.11208842D+01  1  2  6  2  7  2       -2 0.504479975179D-02 0.100000000000D+01
0.440265978808D-06 0.000000000000D+00 0.000000000000D+00 0.154236740020D-08 0.000000000000D+00  7 2 21 23 -13 13 23 2 2 0.18287914D+00 0.20814047D-01 0.11882202D+06 0.11882202D+06 0.11882202D+06 0.11156272D+01  1  2 12  4  7  2       -2 0.320443263670D-03 0.100000000000D+01
-.138762955386D-05 0.000000000000D+00 -.345101504703D-06 0.154236740020D-08 0.000000000000D+00  7 2 21 23 -13 13 23 2 2 0.18287914D+00 0.21425110D-01 0.10238146D+06 0.10238146D+06 0.10238146D+06 0.11208842D+01  1  2  5  4  7  2       -2 -.972133199172D-03 0.100000000000D+01
  </mgrwgt>
  </event>
  <event>
  8     66 0.55102590E-06 0.23172301E+03 0.75467711E-02 0.88793621E-01
        2 -1    0    0  501    0 0.00000000E+00 0.00000000E+00 0.84637750E+03 0.84637756E+03 0.32000000E+00 0.0000E+00 0.9000E+01
       -2 -1    0    0    0  501 0.00000000E+00 0.00000000E+00 -.12818642E+03 0.12818682E+03 0.32000000E+00 0.0000E+00 0.9000E+01
       25  2    1    2    0    0 0.94308336E+02 -.11529873E+03 0.12801481E+03 0.35907807E+03 0.30060174E+03 0.0000E+00 0.0000E+00
       23  2    1    2    0    0 -.94308336E+02 0.11529873E+03 0.59017627E+03 0.61548632E+03 0.91255217E+02 0.0000E+00 0.0000E+00
       23  1    3    3    0    0 -.46923224E+01 -.13989658E+03 0.14499072E+03 0.22120270E+03 0.91188000E+02 0.0000E+00 0.9000E+01
      -11  1    4    4    0    0 -.91305047E+01 -.63035754E+01 0.16050128E+03 0.16088431E+03 0.51099893E-03 0.0000E+00 0.9000E+01
       11  1    4    4    0    0 -.85177832E+02 0.12160230E+03 0.42967499E+03 0.45460201E+03 0.51099893E-03 0.0000E+00 0.9000E+01
       23  1    3    3    0    0 0.99000659E+02 0.24597856E+02 -.16975911E+02 0.13787537E+03 0.91188000E+02 0.0000E+00 0.9000E+01
#aMCatNLO 1  0  0  2  1 0.79301487D+03 0.00000000D+00  -5  7  0 0.00000000D+00 0.00000000D+00 0.00000000D+00 0.00000000D+00 0.00000000D+00
  <mgrwgt>
 0.2736637691D-03    5    2    0
 0.329384768054858D+03 0.000000000000000D+00 0.000000000000000D+00 0.329384768054858D+03
 0.329384768054858D+03 0.000000000000000D+00 0.000000000000000D+00 -.329384768054858D+03
 0.169171793752084D+03 -.469232235827078D+01 -.139896582122319D+03 -.266603240542375D+02
 0.630289194350675D+02 -.913050470322075D+01 -.630357539352923D+01 0.620446895896400D+02
 0.204092881070606D+03 -.851778316215210D+02 0.121602301999274D+03 0.140041141285102D+03
 0.222475941851958D+03 0.990006586830125D+02 0.245978555165750D+02 -.175425506820505D+03
 0.000000000000000D+00 0.000000000000000D+00 -.000000000000000D+00 -.000000000000000D+00
 0.733279162426210D+03 0.000000000000000D+00 0.000000000000000D+00 0.733279162426210D+03
 0.123729922281691D+04 0.000000000000000D+00 0.000000000000000D+00 -.123729922281691D+04
 0.964228247176176D+02 -.620892354289980D+01 -.152573317551234D+02 -.266603240542375D+02
 0.911837206617091D+02 -.100110913431275D+02 0.660659175184707D+02 0.620446895896400D+02
 0.467015991083116D+03 -.890100045638334D+02 0.436542820078922D+03 0.140041141285102D+03
 0.376323576426149D+03 0.955813873739462D+02 0.305604765628103D+03 -.175425506820505D+03
 0.939632272354525D+03 0.964863207591447D+01 -.792956171470372D+03 -.504020060390696D+03
0.303644648311D-05 0.000000000000D+00 0.000000000000D+00 0.335582399238D-06 0.000000000000D+00  7 2 -2 23 -11 11 23 21 0 0.13021196D+00 0.19721023D-01 0.53695552D+05 0.53695552D+05 0.53695552D+05 0.11445814D+01  1  2  2  2  7  2       -2 0.248863166337D-03 0.100000000000D+01
-.143323865136D-06 0.000000000000D+00 -.116607540098D-07 0.335582399238D-06 0.000000000000D+00  7 2 -2 23 -11 11 23 21 2 0.13021196D+00 0.19721023D-01 0.53695552D+05 0.53695552D+05 0.53695552D+05 0.11445814D+01  1  2  3  2  7  2       -2 -.153888737163D-04 0.100000000000D+01
0.192358555917D-06 0.000000000000D+00 0.000000000000D+00 0.335582399238D-06 0.000000000000D+00  7 2 -2 23 -11 11 23 21 2 0.13021196D+00 0.19721023D-01 0.53695552D+05 0.53695552D+05 0.53695552D+05 0.11445814D+01  1  2 15  2  7  2       -2 0.206537935775D-04 0.100000000000D+01
0.431283171867D-05 0.000000000000D+00 -.177596295647D-05 0.335582399238D-06 0.000000000000D+00  7 2 -2 23 -11 11 23 21 2 0.13021196D+00 0.15248298D+00 0.53695552D+05 0.53695552D+05 0.53695552D+05 0.11445814D+01  1  2  5  2  7  2       -2 0.690848746868D-05 0.100000000000D+01
0.872047934750D-06 0.000000000000D+00 -.441871863569D-06 0.335582399238D-06 0.000000000000D+00  7 2 21 23 -11 11 23 2 2 0.13021196D+00 0.15248298D+00 0.53695552D+05 0.53695552D+05 0.53695552D+05 0.11445814D+01  1  2  5  4  7  2       -2 0.126271953960D-04 0.100000000000D+01
  </mgrwgt>
  </event>
  <event>
  8     66 0.55102590E-06 0.27209640E+03 0.75467711E-02 0.89317812E-01
        2 -1    0    0  501    0 0.00000000E+00 0.00000000E+00 0.24250123E+04 0.24250123E+04 0.32000000E+00 0.0000E+00 0.9000E+01
       -2 -1    0    0    0  501 0.00000000E+00 0.00000000E+00 -.35940532E+02 0.35941957E+02 0.32000000E+00 0.0000E+00 0.9000E+01
       25  2    1    2    0    0 -.12446999E+03 0.12962730E+03 0.19168995E+04 0.19475729E+04 0.29366789E+03 0.0000E+00 0.0000E+00
       23  2    1    2    0    0 0.12446999E+03 -.12962730E+03 0.47217228E+03 0.51338131E+03 0.91201343E+02 0.0000E+00 0.0000E+00
       23  1    3    3    0    0 -.39958287E+02 0.18295580E+03 0.12227377E+04 0.12403517E+04 0.91188000E+02 0.0000E+00 0.9000E+01
      -11  1    4    4    0    0 0.10090145E+03 -.14184565E+03 0.39154488E+03 0.42849584E+03 0.51099893E-03 0.0000E+00 0.9000E+01
       11  1    4    4    0    0 0.23568543E+02 0.12218353E+02 0.80627398E+02 0.84885462E+02 0.51099893E-03 0.0000E+00 0.9000E+01
       23  1    3    3    0    0 -.84511704E+02 -.53328506E+02 0.69416173E+03 0.70722127E+03 0.91188000E+02 0.0000E+00 0.9000E+01
#aMCatNLO 1  0  0  2  1 0.74792382D+03 0.00000000D+00  -5  7  0 0.00000000D+00 0.00000000D+00 0.00000000D+00 0.00000000D+00 0.00000000D+00
  <mgrwgt>
 0.2492268232D-03    5    2    0
 0.295225354882309D+03 0.000000000000000D+00 0.000000000000000D+00 0.295225354882309D+03
 0.295225354882309D+03 0.000000000000000D+00 0.000000000000000D+00 -.295225354882309D+03
 0.222271880848199D+03 -.399582870425065D+02 0.182955802910217D+03 0.775889628098139D+02
 0.201676185205365D+03 0.100901448077073D+03 -.141845650114507D+03 -.101842982077958D+03
 0.275630132805336D+02 0.235685430363490D+02 0.122183530727653D+02 -.741318611906384D+01
 0.138939630430521D+03 -.845117040709157D+02 -.533285058684754D+02 0.316672053872084D+02
 0.000000000000000D+00 0.000000000000000D+00 -.000000000000000D+00 -.000000000000000D+00
 0.756577238541130D+03 0.000000000000000D+00 0.000000000000000D+00 0.756577238541130D+03
 0.975681207275268D+03 0.000000000000000D+00 0.000000000000000D+00 -.975681207275268D+03
 0.595313397515406D+03 -.964431358485449D+02 0.575118652379778D+03 0.775889628098139D+02
 0.129414311390334D+03 0.780272634063860D+02 0.169651749007608D+02 -.101842982077958D+03
 0.555454979132303D+02 0.178267913029146D+02 0.520821708633110D+02 -.741318611906384D+01
 0.172628718012702D+03 -.106037154100773D+03 0.961183280747354D+02 0.316672053872084D+02
 0.779356520984725D+03 0.106626235240017D+03 -.740284326218586D+03 -.219103968734138D+03
0.311824488700D-05 0.000000000000D+00 0.000000000000D+00 0.459492945990D-08 0.000000000000D+00  7 2 -2 23 -11 11 23 21 0 0.37307892D+00 0.55294238D-02 0.74036451D+05 0.74036451D+05 0.74036451D+05 0.11325956D+01  1  2  2  2  7  2       -2 0.243799576473D-03 0.100000000000D+01
-.171833937168D-06 0.000000000000D+00 -.119748814188D-07 0.459492945990D-08 0.000000000000D+00  7 2 -2 23 -11 11 23 21 2 0.37307892D+00 0.55294238D-02 0.74036451D+05 0.74036451D+05 0.74036451D+05 0.11325956D+01  1  2  3  2  7  2       -2 -.172338152420D-04 0.100000000000D+01
0.196272595299D-06 0.000000000000D+00 0.000000000000D+00 0.459492945990D-08 0.000000000000D+00  7 2 -2 23 -11 11 23 21 2 0.37307892D+00 0.55294238D-02 0.74036451D+05 0.74036451D+05 0.74036451D+05 0.11325956D+01  1  2 15  2  7  2       -2 0.196848521323D-04 0.100000000000D+01
0.553037504427D-04 0.000000000000D+00 -.119182150762D-04 0.459492945990D-08 0.000000000000D+00  7 2 -2 23 -11 11 23 21 2 0.37307892D+00 0.31587228D+00 0.74036451D+05 0.74036451D+05 0.74036451D+05 0.11325956D+01  1  2  5  2  7  2       -2 0.941226694208D-06 0.100000000000D+01
0.157295583534D-04 0.000000000000D+00 -.423875174519D-05 0.459492945990D-08 0.000000000000D+00  7 2 21 23 -11 11 23 2 2 0.37307892D+00 0.31587228D+00 0.74036451D+05 0.74036451D+05 0.74036451D+05 0.11325956D+01  1  2  5  4  7  2       -2 0.203498316931D-05 0.100000000000D+01
  </mgrwgt>
  </event>
  <event>
  8     66 0.55102590E-06 0.24220559E+03 0.75467711E-02 0.97468647E-01
        2 -1    0    0  501    0 0.00000000E+00 0.00000000E+00 0.44872032E+03 0.44872043E+03 0.32000000E+00 0.0000E+00 0.9000E+01
       -2 -1    0    0    0  501 0.00000000E+00 0.00000000E+00 -.72954175E+03 0.72954182E+03 0.32000000E+00 0.0000E+00 0.9000E+01
       25  2    1    2    0    0 0.31702026E+03 -.17401991E+03 0.24873508E+03 0.53061463E+03 0.29815763E+03 0.0000E+00 0.0000E+00
       23  2    1    2    0    0 -.31702026E+03 0.17401991E+03 -.52955651E+03 0.64764762E+03 0.90733519E+02 0.0000E+00 0.0000E+00
       23  1    3    3    0    0 0.18869654E+03 -.12818383E+03 0.27027899E+03 0.36524439E+03 0.91188000E+02 0.0000E+00 0.9000E+01
      -13  1    4    4    0    0 -.20718810E+03 0.12097633E+03 -.42000981E+03 0.48370490E+03 0.10565837E+00 0.0000E+00 0.9000E+01
       13  1    4    4    0    0 -.10983216E+03 0.53043573E+02 -.10954670E+03 0.16394272E+03 0.10565837E+00 0.0000E+00 0.9000E+01
       23  1    3    3    0    0 0.12832373E+03 -.45836073E+02 -.21543918E+02 0.16537024E+03 0.91188000E+02 0.0000E+00 0.9000E+01
#aMCatNLO 1  0  0  1  2 0.12346706D+02 0.00000000D+00  -5  7  0 0.00000000D+00 0.00000000D+00 0.00000000D+00 0.00000000D+00 0.00000000D+00
  <mgrwgt>
 0.2519356979D-03    9    2    0
 0.572154100138961D+03 0.000000000000000D+00 0.000000000000000D+00 0.572154100138961D+03
 0.572154100138961D+03 0.000000000000000D+00 0.000000000000000D+00 -.572154100138961D+03
 0.442410367884989D+03 0.188696538290580D+03 -.128183833602286D+03 0.367932335502473D+03
 0.394984381150921D+03 -.207188234371884D+03 0.120976425942767D+03 -.313768069212200D+03
 0.141923358005950D+03 -.109832030200616D+03 0.530434806250356D+02 -.725641361340256D+02
 0.164990093236062D+03 0.128323726281921D+03 -.458360729655159D+02 0.183998698437526D+02
 0.000000000000000D+00 0.000000000000000D+00 0.000000000000000D+00 0.000000000000000D+00
 0.610205807561782D+03 0.000000000000000D+00 0.000000000000000D+00 0.610205807561782D+03
 0.573189820186273D+03 0.000000000000000D+00 0.000000000000000D+00 -.573189820186273D+03
 0.441767173740839D+03 0.185044802770590D+03 -.131252435826000D+03 0.367932335502473D+03
 0.395879095758292D+03 -.210454574121683D+03 0.118231676941978D+03 -.313768069212200D+03
 0.142470685118921D+03 -.111006604061702D+03 0.520564704918227D+02 -.725641361340256D+02
 0.164257852152724D+03 0.126963901630812D+03 -.469787518165479D+02 0.183998698437526D+02
 0.390208209772768D+02 0.945247378198364D+01 0.794304020874782D+01 0.370159873755086D+02
0.283559167709D-04 0.000000000000D+00 0.000000000000D+00 0.219762826429D-06 0.000000000000D+00  7 2 -2 23 -13 13 23 21 0 0.69033909D-01 0.11223721D+00 0.14881086D+06 0.14881086D+06 0.14881086D+06 0.11078248D+01  1  2  2  1  7  1        2 0.155072298520D-03 0.100000000000D+01
-.127770344085D-05 0.000000000000D+00 -.108894186685D-06 0.219762826429D-06 0.000000000000D+00  7 2 -2 23 -13 13 23 21 2 0.69033909D-01 0.11223721D+00 0.14881086D+06 0.14881086D+06 0.14881086D+06 0.11078248D+01  1  2  3  1  7  1        2 -.857556503997D-05 0.100000000000D+01
0.175910620905D-05 0.000000000000D+00 0.000000000000D+00 0.219762826429D-06 0.000000000000D+00  7 2 -2 23 -13 13 23 21 2 0.69033909D-01 0.11223721D+00 0.14881086D+06 0.14881086D+06 0.14881086D+06 0.11078248D+01  1  2 15  1  7  1        2 0.118065970753D-04 0.100000000000D+01
0.815842064938D-03 0.000000000000D+00 0.000000000000D+00 0.219762826429D-06 0.000000000000D+00  7 2 -2 23 -13 13 23 21 2 0.73685236D-01 0.11223721D+00 0.15369396D+06 0.15369396D+06 0.15369396D+06 0.11067191D+01  1  2 12  1  7  1        2 0.507705323096D-02 0.100000000000D+01
-.822402352772D-03 0.000000000000D+00 0.000000000000D+00 0.219762826429D-06 0.000000000000D+00  7 2 -2 23 -13 13 23 21 2 0.69033909D-01 0.11223721D+00 0.14881086D+06 0.14881086D+06 0.14881086D+06 0.11078248D+01  1  2  4  1  7  1        2 -.551971970938D-02 0.100000000000D+01
-.118525470189D-02 0.000000000000D+00 -.578327718634D-04 0.219762826429D-06 0.000000000000D+00  7 2 -2 23 -13 13 23 21 2 0.73691178D-01 0.11223721D+00 0.14881086D+06 0.14881086D+06 0.14881086D+06 0.11078248D+01  1  2  5  1  7  1        2 -.739771527725D-02 0.100000000000D+01
0.118662366586D-02 0.000000000000D+00 0.577097439077D-04 0.219762826429D-06 0.000000000000D+00  7 2 -2 23 -13 13 23 21 2 0.69033909D-01 0.11223721D+00 0.14881086D+06 0.14881086D+06 0.14881086D+06 0.11078248D+01  1  2  6  1  7  1        2 0.796426471056D-02 0.100000000000D+01
0.119244943390D-04 0.000000000000D+00 0.000000000000D+00 0.219762826429D-06 0.000000000000D+00  7 21 -2 23 -13 13 23 -2 2 0.73685236D-01 0.11223721D+00 0.15369396D+06 0.15369396D+06 0.15369396D+06 0.11067191D+01  1  2 12  3  7  1        2 0.150812473417D-03 0.100000000000D+01
-.142578208327D-04 0.000000000000D+00 -.643554495728D-06 0.219762826429D-06 0.000000000000D+00  7 21 -2 23 -13 13 23 -2 2 0.73691178D-01 0.11223721D+00 0.14881086D+06 0.14881086D+06 0.14881086D+06 0.11078248D+01  1  2  5  3  7  1        2 -.181063060944D-03 0.100000000000D+01
  </mgrwgt>
  </event>
  <event>
  8     66 0.55102590E-06 0.20851147E+03 0.75467711E-02 0.94939079E-01
        2 -1    0    0  501    0 0.00000000E+00 0.00000000E+00 0.17885378E+04 0.17885379E+04 0.32000000E+00 0.0000E+00 0.9000E+01
       -2 -1    0    0    0  501 0.00000000E+00 0.00000000E+00 -.41536746E+02 0.41537978E+02 0.32000000E+00 0.0000E+00 0.9000E+01
       25  2    1    2    0    0 -.23302116E+02 0.11543535E+03 0.67410347E+03 0.74688870E+03 0.29926399E+03 0.0000E+00 0.0000E+00
       23  2    1    2    0    0 0.23302116E+02 -.11543535E+03 0.10728976E+04 0.10831871E+04 0.91196327E+02 0.0000E+00 0.0000E+00
       23  1    3    3    0    0 0.83415614E+02 0.71279357E+02 0.49467003E+03 0.51483259E+03 0.91188000E+02 0.0000E+00 0.9000E+01
      -11  1    4    4    0    0 -.14899307E+02 -.39096596E+02 0.67203731E+03 0.67333846E+03 0.51099893E-03 0.0000E+00 0.9000E+01
       11  1    4    4    0    0 0.38201423E+02 -.76338758E+02 0.40086030E+03 0.40984867E+03 0.51099893E-03 0.0000E+00 0.9000E+01
       23  1    3    3    0    0 -.10671773E+03 0.44155997E+02 0.17943344E+03 0.23205611E+03 0.91188000E+02 0.0000E+00 0.9000E+01
#aMCatNLO 1  0  0  1  2 0.41172156D+03 0.00000000D+00  -5  7  0 0.00000000D+00 0.00000000D+00 0.00000000D+00 0.00000000D+00 0.00000000D+00
  <mgrwgt>
 0.2997299866D-03    3    2    0
 0.272564111657060D+03 0.000000000000000D+00 0.000000000000000D+00 0.272564111657060D+03
 0.272564111657060D+03 0.000000000000000D+00 0.000000000000000D+00 -.272564111657060D+03
 0.143073887536229D+03 0.834156139117541D+02 0.712793572229651D+02 0.107691476141667D+02
 0.106783194834982D+03 -.148993069322092D+02 -.390965958685385D+02 0.982451909438712D+02
 0.912643526998150D+02 0.382014225738450D+02 -.763387580518558D+02 0.322835469883804D+02
 0.204006788243094D+03 -.106717729553390D+03 0.441559966974292D+02 -.141297885546418D+03
 0.000000000000000D+00 -.000000000000000D+00 -.000000000000000D+00 -.000000000000000D+00
 0.376157815241200D+03 0.000000000000000D+00 0.000000000000000D+00 0.376157815241200D+03
 0.156680703399587D+04 0.000000000000000D+00 0.000000000000000D+00 -.156680703399587D+04
 0.245929246904844D+03 0.112761375971536D+03 0.198330130559767D+03 0.107691476141667D+02
 0.102514015207840D+03 0.889733262846937D+00 0.292611371131825D+02 0.982451909438712D+02
 0.646855763581363D+02 0.499660308923618D+02 -.254045692641472D+02 0.322835469883804D+02
 0.270010546203511D+03 -.709586348898751D+02 0.198972921252605D+03 -.141297885546418D+03
 0.125982546456274D+04 -.926585052368700D+02 -.401159619661407D+03 -.119064921875467D+04
0.210565505729D-05 0.000000000000D+00 0.000000000000D+00 0.111047193518D-06 0.000000000000D+00  7 2 -2 23 -11 11 23 21 0 0.27515976D+00 0.63903656D-02 0.43477032D+05 0.43477032D+05 0.43477032D+05 0.11526740D+01  1  2  2  1  7  1        2 0.294593301391D-03 0.100000000000D+01
-.106774351204D-06 0.000000000000D+00 -.808626985170D-08 0.111047193518D-06 0.000000000000D+00  7 2 -2 23 -11 11 23 21 2 0.27515976D+00 0.63903656D-02 0.43477032D+05 0.43477032D+05 0.43477032D+05 0.11526740D+01  1  2  3  1  7  1        2 -.198479467729D-04 0.100000000000D+01
0.134407750269D-06 0.000000000000D+00 0.000000000000D+00 0.111047193518D-06 0.000000000000D+00  7 2 -2 23 -11 11 23 21 2 0.27515976D+00 0.63903656D-02 0.43477032D+05 0.43477032D+05 0.43477032D+05 0.11526740D+01  1  2 15  1  7  1        2 0.249846320124D-04 0.100000000000D+01
  </mgrwgt>
  </event>
  <event>
  8     66 0.55102590E-06 0.52482969E+03 0.75467711E-02 0.88946283E-01
        2 -1    0    0  501    0 0.00000000E+00 0.00000000E+00 0.24790748E+04 0.24790748E+04 0.32000000E+00 0.0000E+00 0.9000E+01
       -2 -1    0    0    0  501 0.00000000E+00 0.00000000E+00 -.50005738E+03 0.50005748E+03 0.32000000E+00 0.0000E+00 0.9000E+01
       25  2    1    2    0    0 0.76207925E+03 0.18135322E+03 0.20221431E+04 0.21892260E+04 0.29998998E+03 0.0000E+00 0.0000E+00
       23  2    1    2    0    0 -.76207925E+03 -.18135322E+03 -.43125663E+02 0.78990632E+03 0.91860772E+02 0.0000E+00 0.0000E+00
       23  1    3    3    0    0 0.16830871E+03 0.13213281E+03 0.65633956E+03 0.69633596E+03 0.91188000E+02 0.0000E+00 0.9000E+01
      -13  1    4    4    0    0 -.25623724E+03 -.82186539E+02 -.53356918E+02 0.27433396E+03 0.10565837E+00 0.0000E+00 0.9000E+01
       13  1    4    4    0    0 -.50584201E+03 -.99166684E+02 0.10231255E+02 0.51557237E+03 0.10565837E+00 0.0000E+00 0.9000E+01
       23  1    3    3    0    0 0.59377054E+03 0.49220410E+02 0.13658035E+04 0.14928900E+04 0.91188000E+02 0.0000E+00 0.9000E+01
#aMCatNLO 1  0  0  2  1 0.82885442D+02 0.00000000D+00  -5  7  0 0.00000000D+00 0.00000000D+00 0.00000000D+00 0.00000000D+00 0.00000000D+00
  <mgrwgt>
 0.2762836148D-03    9    2    0
 0.111340910996486D+04 0.000000000000000D+00 0.000000000000000D+00 0.111340910996486D+04
 0.111340910996486D+04 0.000000000000000D+00 0.000000000000000D+00 -.111340910996486D+04
 0.348285965199841D+03 0.168308706215236D+03 0.132132813023679D+03 0.259231482165628D+03
 0.414434658388321D+03 -.256236906339913D+03 -.821865168330685D+02 -.315189007348992D+03
 0.680662318081051D+03 -.505842344599706D+03 -.991667060398794D+02 -.444511729967324D+03
 0.783435278260499D+03 0.593770544724383D+03 0.492204098492693D+02 0.500469255150688D+03
 0.000000000000000D+00 0.000000000000000D+00 0.000000000000000D+00 -.000000000000000D+00
 0.114344472160506D+04 0.000000000000000D+00 0.000000000000000D+00 0.114344472160506D+04
 0.117286874880840D+04 0.000000000000000D+00 0.000000000000000D+00 -.117286874880840D+04
 0.343484382323193D+03 0.168050731785841D+03 0.119265501115790D+03 0.259231482165628D+03
 0.417971311333597D+03 -.256547326489941D+03 -.976697292672987D+02 -.315189007348992D+03
 0.685201458448640D+03 -.506351701396571D+03 -.124572529373047D+03 -.444511729967324D+03
 0.781703092807846D+03 0.593186874609518D+03 0.201079686010263D+02 0.500469255150688D+03
 0.879532255001861D+02 0.166142149115276D+01 0.828687889235293D+02 -.294240272033397D+02
0.226270318462D-03 0.000000000000D+00 0.000000000000D+00 0.731273226489D-05 0.000000000000D+00  7 2 -2 23 -13 13 23 21 0 0.38139614D+00 0.76931914D-01 0.65602665D+06 0.65602665D+06 0.65602665D+06 0.10602727D+01  1  2  2  2  7  2       -2 0.153884948766D-03 0.100000000000D+01
-.110230167033D-04 0.000000000000D+00 -.868937601236D-06 0.731273226489D-05 0.000000000000D+00  7 2 -2 23 -13 13 23 21 2 0.38139614D+00 0.76931914D-01 0.65602665D+06 0.65602665D+06 0.65602665D+06 0.10602727D+01  1  2  3  2  7  2       -2 -.842760581304D-05 0.100000000000D+01
0.142610079731D-04 0.000000000000D+00 0.000000000000D+00 0.731273226489D-05 0.000000000000D+00  7 2 -2 23 -13 13 23 21 2 0.38139614D+00 0.76931914D-01 0.65602665D+06 0.65602665D+06 0.65602665D+06 0.10602727D+01  1  2 15  2  7  2       -2 0.109031998162D-04 0.100000000000D+01
0.576311149012D-03 0.000000000000D+00 0.000000000000D+00 0.731273226489D-05 0.000000000000D+00  7 2 -2 23 -13 13 23 21 2 0.38139614D+00 0.82035621D-01 0.72648611D+06 0.72648611D+06 0.72648611D+06 0.10572284D+01  1  2 12  2  7  2       -2 0.376070793059D-03 0.100000000000D+01
-.537144615904D-03 0.000000000000D+00 0.000000000000D+00 0.731273226489D-05 0.000000000000D+00  7 2 -2 23 -13 13 23 21 2 0.38139614D+00 0.76931914D-01 0.65602665D+06 0.65602665D+06 0.65602665D+06 0.10602727D+01  1  2  4  2  7  2       -2 -.410671888583D-03 0.100000000000D+01
-.189736644212D-02 0.000000000000D+00 -.363732099167D-03 0.731273226489D-05 0.000000000000D+00  7 2 -2 23 -13 13 23 21 2 0.38139614D+00 0.83271182D-01 0.65602665D+06 0.65602665D+06 0.65602665D+06 0.10602727D+01  1  2  5  2  7  2       -2 -.121215722609D-02 0.100000000000D+01
0.192127854936D-02 0.000000000000D+00 0.362594816414D-03 0.731273226489D-05 0.000000000000D+00  7 2 -2 23 -13 13 23 21 2 0.38139614D+00 0.76931914D-01 0.65602665D+06 0.65602665D+06 0.65602665D+06 0.10602727D+01  1  2  6  2  7  2       -2 0.146890626285D-02 0.100000000000D+01
0.697511261189D-05 0.000000000000D+00 0.000000000000D+00 0.731273226489D-05 0.000000000000D+00  7 2 21 23 -13 13 23 2 2 0.38139614D+00 0.82035621D-01 0.72648611D+06 0.72648611D+06 0.72648611D+06 0.10572284D+01  1  2 12  4  7  2       -2 0.422954865639D-04 0.100000000000D+01
-.243393804768D-04 0.000000000000D+00 -.481413064014D-05 0.731273226489D-05 0.000000000000D+00  7 2 21 23 -13 13 23 2 2 0.38139614D+00 0.83271182D-01 0.65602665D+06 0.65602665D+06 0.65602665D+06 0.10602727D+01  1  2  5  4  7  2       -2 -.144520355753D-03 0.100000000000D+01
  </mgrwgt>
  </event>
  <event>
  8     66 0.55102590E-06 0.51468844E+03 0.75467711E-02 0.84682554E-01
        2 -1    0    0  501    0 0.00000000E+00 0.00000000E+00 0.11634315E+04 0.11634315E+04 0.32000000E+00 0.0000E+00 0.9000E+01
       -2 -1    0    0    0  501 0.00000000E+00 0.00000000E+00 -.27794376E+03 0.27794394E+03 0.32000000E+00 0.0000E+00 0.9000E+01
       25  2    1    2    0    0 0.72029533E+02 -.47785392E+03 0.73179077E+03 0.92682286E+03 0.29991707E+03 0.0000E+00 0.0000E+00
       23  2    1    2    0    0 -.72029533E+02 0.47785392E+03 0.15369695E+03 0.51455261E+03 0.87229670E+02 0.0000E+00 0.0000E+00
       23  1    3    3    0    0 -.18894320E+02 -.34304337E+03 0.33511344E+03 0.48852023E+03 0.91188000E+02 0.0000E+00 0.9000E+01
      -11  1    4    4    0    0 -.84125191E+02 0.42779966E+03 0.15585536E+03 0.46301241E+03 0.51099893E-03 0.0000E+00 0.9000E+01
       11  1    4    4    0    0 0.12095658E+02 0.50054256E+02 -.21584099E+01 0.51540200E+02 0.51099893E-03 0.0000E+00 0.9000E+01
       23  1    3    3    0    0 0.90923853E+02 -.13481055E+03 0.39667733E+03 0.43830262E+03 0.91188000E+02 0.0000E+00 0.9000E+01
#aMCatNLO 1  0  0  2  1 0.11439801D+04 0.00000000D+00  -5  7  0 0.00000000D+00 0.00000000D+00 0.00000000D+00 0.00000000D+00 0.00000000D+00
  <mgrwgt>
 0.3841497982D-03    5    2    0
 0.568655153562585D+03 0.000000000000000D+00 0.000000000000000D+00 0.568655153562585D+03
 0.568655153562585D+03 0.000000000000000D+00 0.000000000000000D+00 -.568655153562585D+03
 0.358215556023503D+03 -.188943202005605D+02 -.343043371057679D+03 0.443551966602488D+02
 0.465454961334307D+03 -.841251905660915D+02 0.427799664836114D+03 -.162968463541412D+03
 0.670002066899259D+02 0.120956575764982D+02 0.500542561284379D+02 -.428636700215185D+02
 0.246639583077434D+03 0.909238531901537D+02 -.134810549906872D+03 0.161476936902682D+03
 0.000000000000000D+00 -.000000000000000D+00 0.000000000000000D+00 -.000000000000000D+00
 0.989725648969731D+03 0.000000000000000D+00 0.000000000000000D+00 0.989725648969731D+03
 0.259278643454101D+04 0.000000000000000D+00 0.000000000000000D+00 -.259278643454101D+04
 0.722497120979968D+03 0.317748961402522D+03 -.640901749519529D+03 0.443551966602488D+02
 0.311669560314214D+03 0.157950020309910D+03 0.213614104874902D+03 -.162968463541412D+03
 0.707799787412653D+02 0.550143488719908D+02 0.120802566649564D+02 -.428636700215185D+02
 0.508176116877938D+03 0.326049839630015D+03 -.342847510340835D+03 0.161476936902682D+03
 0.196938930659736D+04 -.856763170214438D+03 0.758054898320505D+03 -.160306078557128D+04
0.289568823083D-04 0.000000000000D+00 0.000000000000D+00 0.198818197096D-06 0.000000000000D+00  7 2 -2 23 -11 11 23 21 0 0.17898948D+00 0.42760596D-01 0.26490419D+06 0.26490419D+06 0.26490419D+06 0.10885722D+01  1  2  2  2  7  2       -2 0.377702910569D-03 0.100000000000D+01
-.158926837220D-05 0.000000000000D+00 -.111202052586D-06 0.198818197096D-06 0.000000000000D+00  7 2 -2 23 -11 11 23 21 2 0.17898948D+00 0.42760596D-01 0.26490419D+06 0.26490419D+06 0.26490419D+06 0.10885722D+01  1  2  3  2  7  2       -2 -.245646312991D-04 0.100000000000D+01
0.184168328627D-05 0.000000000000D+00 0.000000000000D+00 0.198818197096D-06 0.000000000000D+00  7 2 -2 23 -11 11 23 21 2 0.17898948D+00 0.42760596D-01 0.26490419D+06 0.26490419D+06 0.26490419D+06 0.10885722D+01  1  2 15  2  7  2       -2 0.284660990481D-04 0.100000000000D+01
0.106426085763D-04 0.000000000000D+00 -.142573350107D-04 0.198818197096D-06 0.000000000000D+00  7 2 -2 23 -11 11 23 21 2 0.17898948D+00 0.27428400D+00 0.26490419D+06 0.26490419D+06 0.26490419D+06 0.10885722D+01  1  2  5  2  7  2       -2 0.132974332585D-05 0.100000000000D+01
0.132470972850D-05 0.000000000000D+00 -.324631819326D-05 0.198818197096D-06 0.000000000000D+00  7 2 21 23 -11 11 23 2 2 0.17898948D+00 0.27428400D+00 0.26490419D+06 0.26490419D+06 0.26490419D+06 0.10885722D+01  1  2  5  4  7  2       -2 0.121567655953D-05 0.100000000000D+01
  </mgrwgt>
  </event>
  <event>
  8     66 0.55102590E-06 0.16276144E+03 0.75467711E-02 0.99248130E-01
        2 -1    0    0  501    0 0.00000000E+00 0.00000000E+00 0.11458815E+04 0.11458816E+04 0.32000000E+00 0.0000E+00 0.9000E+01
       -2 -1    0    0    0  501 0.00000000E+00 0.00000000E+00 -.11456020E+03 0.11456065E+03 0.32000000E+00 0.0000E+00 0.9000E+01
       25  2    1    2    0    0 0.19434495E+03 0.11852048E+03 0.92096383E+03 0.99322180E+03 0.29410561E+03 0.0000E+00 0.0000E+00
       23  2    1    2    0    0 -.19434495E+03 -.11852048E+03 0.11035751E+03 0.26722044E+03 0.86086695E+02 0.0000E+00 0.0000E+00
       23  1    3    3    0    0 0.17739765E+03 -.11904155E+02 0.38346786E+03 0.43240547E+03 0.91188000E+02 0.0000E+00 0.9000E+01
      -11  1    4    4    0    0 -.70858281E+02 -.48169459E+02 0.88936863E+02 0.12349477E+03 0.51099893E-03 0.0000E+00 0.9000E+01
       11  1    4    4    0    0 -.12348667E+03 -.70351019E+02 0.21420647E+02 0.14372567E+03 0.51099893E-03 0.0000E+00 0.9000E+01
       23  1    3    3    0    0 0.16947302E+02 0.13042463E+03 0.53749597E+03 0.56081634E+03 0.91188000E+02 0.0000E+00 0.9000E+01
#aMCatNLO 1  0  0  2  1 0.91770969D+02 0.00000000D+00  -5  7  0 0.00000000D+00 0.00000000D+00 0.00000000D+00 0.00000000D+00 0.00000000D+00
  <mgrwgt>
 0.3034572374D-03    9    2    0
 0.362315794255270D+03 0.000000000000000D+00 0.000000000000000D+00 0.362315794255270D+03
 0.362315794255270D+03 0.000000000000000D+00 0.000000000000000D+00 -.362315794255270D+03
 0.206371801879598D+03 0.177397649608944D+03 -.119041553575780D+02 0.515987816278360D+02
 0.882317886930123D+02 -.708582812374067D+02 -.481694594346532D+02 -.210631358971603D+02
 0.219513385556772D+03 -.123486670568549D+03 -.703510188096378D+02 -.167295854051847D+03
 0.210514612381157D+03 0.169473021970117D+02 0.130424633601869D+03 0.136760208321171D+03
 0.000000000000000D+00 -.000000000000000D+00 -.000000000000000D+00 -.000000000000000D+00
 0.400744339628268D+03 0.000000000000000D+00 0.000000000000000D+00 0.400744339628268D+03
 0.424461434565546D+03 0.000000000000000D+00 0.000000000000000D+00 -.424461434565546D+03
 0.227866118967224D+03 0.202348485171702D+03 -.610829293518780D+00 0.515987816278360D+02
 0.782456324493307D+02 -.612926708647932D+02 -.438398426301195D+02 -.210631358971603D+02
 0.203345388008867D+03 -.991896683515840D+02 -.593536328613722D+02 -.167295854051847D+03
 0.220962500097559D+03 0.417395047332509D+02 0.141646158684013D+03 0.136760208321171D+03
 0.947861346708336D+02 -.836056506885752D+02 -.378418538990029D+02 -.237170949372781D+02
0.345588621888D-05 0.000000000000D+00 0.000000000000D+00 0.349009441424D-09 0.000000000000D+00  7 2 -2 23 -11 11 23 21 0 0.17628951D+00 0.17624685D-01 0.86335809D+05 0.86335809D+05 0.86335809D+05 0.11269962D+01  1  2  2  2  7  2       -2 0.222728542270D-03 0.100000000000D+01
-.181746503380D-06 0.000000000000D+00 -.132715130362D-07 0.349009441424D-09 0.000000000000D+00  7 2 -2 23 -11 11 23 21 2 0.17628951D+00 0.17624685D-01 0.86335809D+05 0.86335809D+05 0.86335809D+05 0.11269962D+01  1  2  3  2  7  2       -2 -.148774132860D-04 0.100000000000D+01
0.222369233529D-06 0.000000000000D+00 0.000000000000D+00 0.349009441424D-09 0.000000000000D+00  7 2 -2 23 -11 11 23 21 2 0.17628951D+00 0.17624685D-01 0.86335809D+05 0.86335809D+05 0.86335809D+05 0.11269962D+01  1  2 15  2  7  2       -2 0.182027105214D-04 0.100000000000D+01
0.274623179543D-05 0.000000000000D+00 0.000000000000D+00 0.349009441424D-09 0.000000000000D+00  7 2 -2 23 -11 11 23 21 2 0.17628951D+00 0.21450998D-01 0.11499605D+06 0.11499605D+06 0.11499605D+06 0.11167761D+01  1  2 12  2  7  2       -2 0.159039997221D-03 0.100000000000D+01
-.273968716753D-05 0.000000000000D+00 0.000000000000D+00 0.349009441424D-09 0.000000000000D+00  7 2 -2 23 -11 11 23 21 2 0.17628951D+00 0.17624685D-01 0.86335809D+05 0.86335809D+05 0.86335809D+05 0.11269962D+01  1  2  4  2  7  2       -2 -.224265432939D-03 0.100000000000D+01
-.574053844125D-05 0.000000000000D+00 -.202724503869D-05 0.349009441424D-09 0.000000000000D+00  7 2 -2 23 -11 11 23 21 2 0.17628951D+00 0.22854846D-01 0.86335809D+05 0.86335809D+05 0.86335809D+05 0.11269962D+01  1  2  5  2  7  2       -2 -.305944014074D-03 0.100000000000D+01
0.612591404621D-05 0.000000000000D+00 0.196067095734D-05 0.349009441424D-09 0.000000000000D+00  7 2 -2 23 -11 11 23 21 2 0.17628951D+00 0.17624685D-01 0.86335809D+05 0.86335809D+05 0.86335809D+05 0.11269962D+01  1  2  6  2  7  2       -2 0.501455342056D-03 0.100000000000D+01
0.775207953403D-07 0.000000000000D+00 0.000000000000D+00 0.349009441424D-09 0.000000000000D+00  7 2 21 23 -11 11 23 2 2 0.17628951D+00 0.21450998D-01 0.11499605D+06 0.11499605D+06 0.11499605D+06 0.11167761D+01  1  2 12  4  7  2       -2 0.566499655921D-04 0.100000000000D+01
-.163701359402D-06 0.000000000000D+00 -.705893794785D-07 0.349009441424D-09 0.000000000000D+00  7 2 21 23 -11 11 23 2 2 0.17628951D+00 0.22854846D-01 0.86335809D+05 0.86335809D+05 0.86335809D+05 0.11269962D+01  1  2  5  4  7  2       -2 -.109532459921D-03 0.100000000000D+01
  </mgrwgt>
  </event>
  <event>
  7     66 0.55102590E-06 0.21250873E+03 0.75467711E-02 0.95096999E-01
        2 -1    0    0  501    0 0.00000000E+00 0.00000000E+00 0.11435315E+04 0.11435316E+04 0.32000000E+00 0.0000E+00 0.9000E+01
       -2 -1    0    0    0  501 0.00000000E+00 0.00000000E+00 -.55024751E+03 0.55024760E+03 0.32000000E+00 0.0000E+00 0.9000E+01
       23  2    1    2    0    0 -.77616689E+02 -.73285475E+02 -.52147389E+03 0.53992879E+03 0.90514978E+02 0.0000E+00 0.0000E+00
       23  1    1    2    0    0 -.13020107E+02 0.12276142E+03 0.70643059E+03 0.72291032E+03 0.91188000E+02 0.0000E+00 0.9000E+01
      -13  1    3    3    0    0 -.93550093E+02 -.51500237E+02 -.46800385E+03 0.48003282E+03 0.10565837E+00 0.0000E+00 0.9000E+01
       13  1    3    3    0    0 0.15933404E+02 -.21785237E+02 -.53470044E+02 0.59895965E+02 0.10565837E+00 0.0000E+00 0.9000E+01
       23  1    1    2    0    0 0.90636796E+02 -.49475946E+02 0.40832729E+03 0.43094005E+03 0.91188000E+02 0.0000E+00 0.9000E+01
#aMCatNLO 1  0  0  2  1 0.37090161D+03 0.00000000D+00  -5  7  0 0.00000000D+00 0.00000000D+00 0.00000000D+00 0.00000000D+00 0.00000000D+00
  <mgrwgt>
 0.1090480301D-02    7    2    0
 0.793237342189238D+03 0.000000000000000D+00 0.000000000000000D+00 0.793237342189238D+03
 0.793237342189238D+03 0.000000000000000D+00 0.000000000000000D+00 -.793237342189238D+03
 0.507626416111512D+03 -.130201071829421D+02 0.122761420495483D+03 0.483869235886199D+03
 0.687518113845452D+03 -.935502422697848D+02 -.515002777602237D+02 -.679173932382194D+03
 0.839421867306441D+02 0.159335532811808D+02 -.217851969290824D+02 -.794847015954591D+02
 0.307387967690867D+03 0.906367961715461D+02 -.494759458061765D+02 0.274789398091454D+03
 0.000000000000000D+00 0.000000000000000D+00 0.000000000000000D+00 -.000000000000000D+00
 0.884189511356303D+03 0.000000000000000D+00 0.000000000000000D+00 0.884189511356303D+03
 0.130903290489385D+04 0.000000000000000D+00 0.000000000000000D+00 -.130903290489385D+04
 0.508147983733767D+03 -.111058432336406D+03 0.586149230024137D+02 0.483869235886199D+03
 0.730951079277726D+03 -.230454995920559D+03 -.141077087881183D+03 -.679173932382194D+03
 0.858771441734341D+02 -.456703042520191D+00 -.325093452102090D+02 -.794847015954591D+02
 0.304278201609224D+03 0.316013186084673D+02 -.881028716290559D+02 0.274789398091454D+03
 0.563968007456003D+03 0.310368812691018D+03 0.203074381718034D+03 -.424843393537548D+03
0.787087221850D-03 0.000000000000D+00 0.000000000000D+00 0.311920998297D-08 0.000000000000D+00  7 2 -2 23 -13 13 23 21 0 0.17592793D+00 0.84653474D-01 0.45159959D+05 0.45159959D+05 0.45159959D+05 0.11512051D+01  1  2  2  2  7  2       -2 0.275844625349D-02 0.100000000000D+01
0.485078478137D-04 0.000000000000D+00 -.302262217673D-05 0.311920998297D-08 0.000000000000D+00  7 2 -2 23 -13 13 23 21 2 0.17592793D+00 0.84653474D-01 0.45159959D+05 0.45159959D+05 0.45159959D+05 0.11512051D+01  1  2  3  2  7  2       -2 0.225298894820D-03 0.100000000000D+01
0.475561578968D-04 0.000000000000D+00 0.000000000000D+00 0.311920998297D-08 0.000000000000D+00  7 2 -2 23 -13 13 23 21 2 0.17592793D+00 0.84653474D-01 0.45159959D+05 0.45159959D+05 0.45159959D+05 0.11512051D+01  1  2 15  2  7  2       -2 0.220878688686D-03 0.100000000000D+01
-.707409337137D-03 0.000000000000D+00 0.000000000000D+00 0.311920998297D-08 0.000000000000D+00  7 2 -2 23 -13 13 23 21 2 0.17592793D+00 0.84653474D-01 0.45159959D+05 0.45159959D+05 0.45159959D+05 0.11512051D+01  1  2  4  2  7  2       -2 -.328562385317D-02 0.100000000000D+01
-.142366789055D-03 0.000000000000D+00 -.257073276453D-03 0.311920998297D-08 0.000000000000D+00  7 2 -2 23 -13 13 23 21 2 0.17592793D+00 0.14871082D+00 0.45159959D+05 0.45159959D+05 0.45159959D+05 0.11512051D+01  1  2  5  2  7  2       -2 -.164902080290D-03 0.100000000000D+01
0.277939612736D-03 0.000000000000D+00 0.221048010717D-03 0.311920998297D-08 0.000000000000D+00  7 2 -2 23 -13 13 23 21 2 0.17592793D+00 0.84653474D-01 0.45159959D+05 0.45159959D+05 0.45159959D+05 0.11512051D+01  1  2  6  2  7  2       -2 0.129091457153D-02 0.100000000000D+01
0.428997878582D-05 0.000000000000D+00 -.159820935056D-04 0.311920998297D-08 0.000000000000D+00  7 2 21 23 -13 13 23 2 2 0.17592793D+00 0.14871082D+00 0.45159959D+05 0.45159959D+05 0.45159959D+05 0.11512051D+01  1  2  5  4  7  2       -2 0.454678261890D-04 0.100000000000D+01
  </mgrwgt>
  </event>
  <event>
  8     66 0.55102590E-06 0.10084655E+03 0.75467711E-02 0.97790704E-01
        2 -1    0    0  501    0 0.00000000E+00 0.00000000E+00 0.37826607E+03 0.37826620E+03 0.32000000E+00 0.0000E+00 0.9000E+01
       -2 -1    0    0    0  501 0.00000000E+00 0.00000000E+00 -.26166050E+03 0.26166069E+03 0.32000000E+00 0.0000E+00 0.9000E+01
       25  2    1    2    0    0 -.65437980E+01 -.22910807E+03 0.11035657E+03 0.39338682E+03 0.30006881E+03 0.0000E+00 0.0000E+00
       23  2    1    2    0    0 0.65437980E+01 0.22910807E+03 0.62490005E+01 0.24654007E+03 0.90607008E+02 0.0000E+00 0.0000E+00
       23  1    3    3    0    0 0.91206601E+02 -.17468627E+03 0.95747983E+01 0.21734964E+03 0.91188000E+02 0.0000E+00 0.9000E+01
      -13  1    4    4    0    0 0.19909582E+02 0.16356078E+03 -.34318796E+02 0.16830422E+03 0.10565837E+00 0.0000E+00 0.9000E+01
       13  1    4    4    0    0 -.13365784E+02 0.65547285E+02 0.40567797E+02 0.78235849E+02 0.10565837E+00 0.0000E+00 0.9000E+01
       23  1    3    3    0    0 -.97750399E+02 -.54421794E+02 0.10078177E+03 0.17603718E+03 0.91188000E+02 0.0000E+00 0.9000E+01
#aMCatNLO 1  0  0  2  1 0.15459290D+03 0.00000000D+00  -5  7  0 0.00000000D+00 0.00000000D+00 0.00000000D+00 0.00000000D+00 0.00000000D+00
  <mgrwgt>
 0.2603278745D-03    9    2    0
 0.314606726007861D+03 0.000000000000000D+00 0.000000000000000D+00 0.314606726007861D+03
 0.314606726007861D+03 0.000000000000000D+00 0.000000000000000D+00 -.314606726007861D+03
 0.219275992859765D+03 0.912066008421096D+02 -.174686271999074D+03 -.305413169088906D+02
 0.177529980248275D+03 0.199096270046297D+02 0.163560914995750D+03 -.660933258751775D+02
 0.720497981327686D+02 -.133658289489777D+02 0.655471516764549D+02 0.267600249361468D+02
 0.160357680774913D+03 -.977503988977616D+02 -.544217946731312D+02 0.698746178479214D+02
 0.000000000000000D+00 -.000000000000000D+00 0.000000000000000D+00 -.000000000000000D+00
 0.383740286597672D+03 0.000000000000000D+00 0.000000000000000D+00 0.383740286597672D+03
 0.423913474128278D+03 0.000000000000000D+00 0.000000000000000D+00 -.423913474128278D+03
 0.273626561496376D+03 0.110270380523321D+03 -.231222652335456D+03 -.305413169088906D+02
 0.146293596229623D+03 0.324340119220916D+02 0.126418050306082D+03 -.660933258751775D+02
 0.578830708511368D+02 -.834047136913628D+01 0.506437310425994D+02 0.267600249361468D+02
 0.170123105273657D+03 -.849685359546223D+02 -.923282474776107D+02 0.698746178479214D+02
 0.159727426875157D+03 -.493953851216538D+02 0.146489118464385D+03 -.401731875306069D+02
0.347086589719D-05 0.000000000000D+00 0.000000000000D+00 0.508106145180D-06 0.000000000000D+00  7 2 -2 23 -13 13 23 21 0 0.58194805D-01 0.40255486D-01 0.87952648D+05 0.87952648D+05 0.87952648D+05 0.11263260D+01  1  2  2  2  7  2       -2 0.207256382011D-03 0.100000000000D+01
-.192008483817D-06 0.000000000000D+00 -.133290389452D-07 0.508106145180D-06 0.000000000000D+00  7 2 -2 23 -13 13 23 21 2 0.58194805D-01 0.40255486D-01 0.87952648D+05 0.87952648D+05 0.87952648D+05 0.11263260D+01  1  2  3  2  7  2       -2 -.145451665332D-04 0.100000000000D+01
0.222569899667D-06 0.000000000000D+00 0.000000000000D+00 0.508106145180D-06 0.000000000000D+00  7 2 -2 23 -13 13 23 21 2 0.58194805D-01 0.40255486D-01 0.87952648D+05 0.87952648D+05 0.87952648D+05 0.11263260D+01  1  2 15  2  7  2       -2 0.168602771689D-04 0.100000000000D+01
0.978347105914D-06 0.000000000000D+00 0.000000000000D+00 0.508106145180D-06 0.000000000000D+00  7 2 -2 23 -13 13 23 21 2 0.58194805D-01 0.57403900D-01 0.14571739D+06 0.14571739D+06 0.14571739D+06 0.11085460D+01  1  2 12  2  7  2       -2 0.358286984916D-04 0.100000000000D+01
-.158693204615D-05 0.000000000000D+00 0.000000000000D+00 0.508106145180D-06 0.000000000000D+00  7 2 -2 23 -13 13 23 21 2 0.58194805D-01 0.40255486D-01 0.87952648D+05 0.87952648D+05 0.87952648D+05 0.11263260D+01  1  2  4  2  7  2       -2 -.120214432348D-03 0.100000000000D+01
-.237316390878D-05 0.000000000000D+00 -.130169619674D-05 0.508106145180D-06 0.000000000000D+00  7 2 -2 23 -13 13 23 21 2 0.58194805D-01 0.64585977D-01 0.87952648D+05 0.87952648D+05 0.87952648D+05 0.11263260D+01  1  2  5  2  7  2       -2 -.708570261445D-04 0.100000000000D+01
0.280253512042D-05 0.000000000000D+00 0.116865263412D-05 0.508106145180D-06 0.000000000000D+00  7 2 -2 23 -13 13 23 21 2 0.58194805D-01 0.40255486D-01 0.87952648D+05 0.87952648D+05 0.87952648D+05 0.11263260D+01  1  2  6  2  7  2       -2 0.212299681926D-03 0.100000000000D+01
0.426866554178D-07 0.000000000000D+00 0.000000000000D+00 0.508106145180D-06 0.000000000000D+00  7 2 21 23 -13 13 23 2 2 0.58194805D-01 0.57403900D-01 0.14571739D+06 0.14571739D+06 0.14571739D+06 0.11085460D+01  1  2 12  4  7  2       -2 0.162380684360D-04 0.100000000000D+01
-.730522309837D-07 0.000000000000D+00 -.702448987378D-07 0.508106145180D-06 0.000000000000D+00  7 2 21 23 -13 13 23 2 2 0.58194805D-01 0.64585977D-01 0.87952648D+05 0.87952648D+05 0.87952648D+05 0.11263260D+01  1  2  5  4  7  2       -2 -.225386085449D-04 0.100000000000D+01
  </mgrwgt>
  </event>
  <event>
  8     66 0.55102590E-06 0.31974960E+03 0.75467711E-02 0.93854008E-01
        2 -1    0    0  501    0 0.00000000E+00 0.00000000E+00 0.39727564E+04 0.39727564E+04 0.32000000E+00 0.0000E+00 0.9000E+01
       -2 -1    0    0    0  501 0.00000000E+00 0.00000000E+00 -.32896304E+02 0.32897860E+02 0.32000000E+00 0.0000E+00 0.9000E+01
       25  2    1    2    0    0 -.10333794E+03 -.23728397E+03 0.15522634E+04 0.16022979E+04 0.30142081E+03 0.0000E+00 0.0000E+00
       23  2    1    2    0    0 0.10333794E+03 0.23728397E+03 0.23875966E+04 0.24033563E+04 0.92311592E+02 0.0000E+00 0.0000E+00
       23  1    3    3    0    0 -.14844913E+03 -.19770821E+03 0.13147655E+04 0.13409135E+04 0.91188000E+02 0.0000E+00 0.9000E+01
      -11  1    4    4    0    0 -.35093221E+01 0.58041333E+02 0.79899664E+03 0.80110969E+03 0.51099893E-03 0.0000E+00 0.9000E+01
       11  1    4    4    0    0 0.10684726E+03 0.17924263E+03 0.15886000E+04 0.16022466E+04 0.51099893E-03 0.0000E+00 0.9000E+01
       23  1    3    3    0    0 0.45111192E+02 -.39575753E+02 0.23749797E+03 0.26138439E+03 0.91188000E+02 0.0000E+00 0.9000E+01
#aMCatNLO 1  0  0  2  1 0.34971647D+03 0.00000000D+00  -5  7  0 0.00000000D+00 0.00000000D+00 0.00000000D+00 0.00000000D+00 0.00000000D+00
  <mgrwgt>
 0.2299026251D-03    5    2    0
 0.361513682295491D+03 0.000000000000000D+00 0.000000000000000D+00 0.361513682295491D+03
 0.361513682295491D+03 0.000000000000000D+00 0.000000000000000D+00 -.361513682295491D+03
 0.264504677034188D+03 -.148449134508894D+03 -.197708213821446D+03 -.228427117491373D+02
 0.844138052818365D+02 -.350932205725549D+01 0.580413330127346D+02 0.611929639988382D+02
 0.220163527464158D+03 0.106847264565224D+03 0.179242633823963D+03 0.701977143519550D+02
 0.153945354810799D+03 0.451111920009255D+02 -.395757530152519D+02 -.108547966601656D+03
 0.000000000000000D+00 0.000000000000000D+00 -.000000000000000D+00 -.000000000000000D+00
 0.499278012920952D+03 0.000000000000000D+00 0.000000000000000D+00 0.499278012920952D+03
 0.714543780305497D+03 0.000000000000000D+00 0.000000000000000D+00 -.714543780305497D+03
 0.345062278416548D+03 -.285309409386342D+03 -.169792450001706D+03 -.228427117491373D+02
 0.101043521397386D+03 -.451482929371432D+02 0.665345475545059D+02 0.611929639988382D+02
 0.211254277090013D+03 0.998512531975011D+01 0.198999868746022D+03 0.701977143519550D+02
 0.145802535570026D+03 -.221883528720745D+02 -.258484811569063D+02 -.108547966601656D+03
 0.410659180752476D+03 0.342660929875809D+03 -.698934851419159D+02 -.215265767384545D+03
0.235398188892D-04 0.000000000000D+00 0.000000000000D+00 0.461647087181D-07 0.000000000000D+00  7 2 -2 23 -11 11 23 21 0 0.61119341D+00 0.50610905D-02 0.10223980D+06 0.10223980D+06 0.10223980D+06 0.11209335D+01  1  2  2  2  7  2       -2 0.197755556222D-03 0.100000000000D+01
-.128380489377D-05 0.000000000000D+00 -.903991027111D-07 0.461647087181D-07 0.000000000000D+00  7 2 -2 23 -11 11 23 21 2 0.61119341D+00 0.50610905D-02 0.10223980D+06 0.10223980D+06 0.10223980D+06 0.11209335D+01  1  2  3  2  7  2       -2 -.135514034239D-04 0.100000000000D+01
0.149855523355D-05 0.000000000000D+00 0.000000000000D+00 0.461647087181D-07 0.000000000000D+00  7 2 -2 23 -11 11 23 21 2 0.61119341D+00 0.50610905D-02 0.10223980D+06 0.10223980D+06 0.10223980D+06 0.11209335D+01  1  2 15  2  7  2       -2 0.158182342359D-04 0.100000000000D+01
0.135867130860D-04 0.000000000000D+00 -.107283073873D-04 0.461647087181D-07 0.000000000000D+00  7 2 -2 23 -11 11 23 21 2 0.61119341D+00 0.27765956D-01 0.10223980D+06 0.10223980D+06 0.10223980D+06 0.11209335D+01  1  2  5  2  7  2       -2 0.974165553348D-05 0.100000000000D+01
0.233312801765D-05 0.000000000000D+00 -.223484148038D-05 0.461647087181D-07 0.000000000000D+00  7 2 21 23 -11 11 23 2 2 0.61119341D+00 0.27765956D-01 0.10223980D+06 0.10223980D+06 0.10223980D+06 0.11209335D+01  1  2  5  4  7  2       -2 0.201385825537D-04 0.100000000000D+01
  </mgrwgt>
  </event>
  <event>
  8     66 0.55102590E-06 0.57124199E+03 0.75467711E-02 0.92166321E-01
        2 -1    0    0  501    0 0.00000000E+00 0.00000000E+00 0.12141518E+04 0.12141519E+04 0.32000000E+00 0.0000E+00 0.9000E+01
       -2 -1    0    0    0  501 0.00000000E+00 0.00000000E+00 -.33486208E+03 0.33486223E+03 0.32000000E+00 0.0000E+00 0.9000E+01
       25  2    1    2    0    0 0.20950349E+03 -.50454787E+03 0.16461053E+03 0.64466638E+03 0.30006308E+03 0.0000E+00 0.0000E+00
       23  2    1    2    0    0 -.20950349E+03 0.50454787E+03 0.71467924E+03 0.90434774E+03 0.92834028E+02 0.0000E+00 0.0000E+00
       23  1    3    3    0    0 0.19773502E+03 -.32913717E+03 0.12323809E+02 0.39483862E+03 0.91188000E+02 0.0000E+00 0.9000E+01
      -11  1    4    4    0    0 -.17023174E+03 0.33520624E+03 0.53933711E+03 0.65743942E+03 0.51099893E-03 0.0000E+00 0.9000E+01
       11  1    4    4    0    0 -.39271758E+02 0.16934164E+03 0.17534212E+03 0.24690832E+03 0.51099893E-03 0.0000E+00 0.9000E+01
       23  1    3    3    0    0 0.11768477E+02 -.17541070E+03 0.15228672E+03 0.24982776E+03 0.91188000E+02 0.0000E+00 0.9000E+01
#aMCatNLO 1  0  0  2  2 0.10289085D+03 0.00000000D+00  -5  7  0 0.00000000D+00 0.00000000D+00 0.00000000D+00 0.00000000D+00 0.00000000D+00
  <mgrwgt>
 0.3247033137D-03    4    2    0
 0.637631214051178D+03 0.000000000000000D+00 0.000000000000000D+00 0.637631214051178D+03
 0.637631214051178D+03 0.000000000000000D+00 0.000000000000000D+00 -.637631214051178D+03
 0.471098647490617D+03 0.197735016633214D+03 -.329137166126615D+03 -.257270817223198D+03
 0.426695968455120D+03 -.170231736143471D+03 0.335206235500919D+03 0.201810270270705D+03
 0.179012524795990D+03 -.392717576480191D+02 0.169341635440390D+03 0.427390172025999D+02
 0.198455287360629D+03 0.117684771582761D+02 -.175410704814694D+03 0.127215297498932D+02
 0.000000000000000D+00 0.000000000000000D+00 0.000000000000000D+00 0.000000000000000D+00
 0.935093856043130D+03 0.000000000000000D+00 0.000000000000000D+00 0.935093856043130D+03
 0.648662978002828D+03 0.000000000000000D+00 0.000000000000000D+00 -.648662978002828D+03
 0.470679811508465D+03 0.164055837201606D+03 -.346585692871232D+03 -.257270817223198D+03
 0.427836655773096D+03 -.200790895048138D+03 0.319374130608819D+03 0.201810270270705D+03
 0.176122557005018D+03 -.519718337945333D+02 0.162761973404647D+03 0.427390172025999D+02
 0.204767395595761D+03 -.265127194557984D+01 -.182881295907930D+03 0.127215297498932D+02
 0.304350414163618D+03 0.913581635866457D+02 0.473308847656952D+02 0.286430878040302D+03
0.400018353839D-04 0.000000000000D+00 0.000000000000D+00 0.801653668122D-06 0.000000000000D+00  7 2 -2 23 -11 11 23 21 0 0.18679261D+00 0.51517258D-01 0.32631741D+06 0.32631741D+06 0.32631741D+06 0.10818603D+01  1  2  2  2  7  2       -2 0.336413220166D-03 0.100000000000D+01
-.218966111765D-05 0.000000000000D+00 -.153617580599D-06 0.801653668122D-06 0.000000000000D+00  7 2 -2 23 -11 11 23 21 2 0.18679261D+00 0.51517258D-01 0.32631741D+06 0.32631741D+06 0.32631741D+06 0.10818603D+01  1  2  3  2  7  2       -2 -.215532334717D-04 0.100000000000D+01
0.250773859479D-05 0.000000000000D+00 0.000000000000D+00 0.801653668122D-06 0.000000000000D+00  7 2 -2 23 -11 11 23 21 2 0.18679261D+00 0.51517258D-01 0.32631741D+06 0.32631741D+06 0.32631741D+06 0.10818603D+01  1  2 15  2  7  2       -2 0.246841280524D-04 0.100000000000D+01
-.150772388931D-05 0.000000000000D+00 0.000000000000D+00 0.801653668122D-06 0.000000000000D+00  7 2 -2 23 -11 11 23 21 2 0.18679261D+00 0.51517258D-01 0.32631741D+06 0.32631741D+06 0.32631741D+06 0.10818603D+01  1  2  4  2  7  2       -2 -.148408010423D-04 0.100000000000D+01
  </mgrwgt>
  </event>
  <event>
  8     66 0.55102590E-06 0.26397513E+03 0.75467711E-02 0.92803861E-01
        2 -1    0    0  501    0 0.00000000E+00 0.00000000E+00 0.22565263E+04 0.22565263E+04 0.32000000E+00 0.0000E+00 0.9000E+01
       -2 -1    0    0    0  501 0.00000000E+00 0.00000000E+00 -.43194875E+02 0.43196061E+02 0.32000000E+00 0.0000E+00 0.9000E+01
       25  2    1    2    0    0 -.35968077E+02 -.21543905E+03 0.15948314E+04 0.16375202E+04 0.30046183E+03 0.0000E+00 0.0000E+00
       23  2    1    2    0    0 0.35968077E+02 0.21543905E+03 0.61849994E+03 0.66220216E+03 0.90894678E+02 0.0000E+00 0.0000E+00
       23  1    3    3    0    0 -.64262333E+02 -.15847559E+03 0.13987528E+04 0.14121150E+04 0.91188000E+02 0.0000E+00 0.9000E+01
      -13  1    4    4    0    0 0.43482329E+02 0.20762112E+03 0.49906420E+03 0.54227514E+03 0.10565837E+00 0.0000E+00 0.9000E+01
       13  1    4    4    0    0 -.75142518E+01 0.78179382E+01 0.11943573E+03 0.11992702E+03 0.10565837E+00 0.0000E+00 0.9000E+01
       23  1    3    3    0    0 0.28294256E+02 -.56963463E+02 0.19607861E+03 0.22540513E+03 0.91188000E+02 0.0000E+00 0.9000E+01
#aMCatNLO 1  0  0  1  1 0.46998949D+03 0.00000000D+00  -5  7  0 0.00000000D+00 0.00000000D+00 0.00000000D+00 0.00000000D+00 0.00000000D+00
  <mgrwgt>
 0.3678905211D-03    5    2    0
 0.312204675743731D+03 0.000000000000000D+00 0.000000000000000D+00 0.312204675743731D+03
 0.312204675743731D+03 0.000000000000000D+00 0.000000000000000D+00 -.312204675743731D+03
 0.242739758492540D+03 -.642623328569023D+02 -.158475591399973D+03 0.146161480955941D+03
 0.228196416265289D+03 0.434823976850895D+02 0.207621386568112D+03 -.841204215836524D+02
 0.183338210690792D+02 -.751432067225100D+01 0.781766833452834D+01 0.147833704424569D+02
 0.135139355660554D+03 0.282942558440638D+02 -.569634635026673D+02 -.768244298147451D+02
 0.000000000000000D+00 0.000000000000000D+00 -.000000000000000D+00 0.000000000000000D+00
 0.844740479914196D+03 0.000000000000000D+00 0.000000000000000D+00 0.844740479914196D+03
 0.512402235782162D+03 0.000000000000000D+00 0.000000000000000D+00 -.512402235782162D+03
 0.333387252383741D+03 -.254593131740689D+03 -.129038627794994D+03 0.146161480955941D+03
 0.277156370581412D+03 -.123467246790676D+03 0.233442171418062D+03 -.841204215836524D+02
 0.294358692736772D+02 -.232956382527947D+02 0.102584402641451D+02 0.147833704424569D+02
 0.141542839917473D+03 -.631111848437267D+02 -.428265048674729D+02 -.768244298147451D+02
 0.575620383540053D+03 0.464467201627886D+03 -.718354790197407D+02 0.332338244132034D+03
0.493125434987D-05 0.000000000000D+00 0.000000000000D+00 0.388121965110D-06 0.000000000000D+00  7 2 -2 23 -13 13 23 21 0 0.34715798D+00 0.66454584D-02 0.69682870D+05 0.69682870D+05 0.69682870D+05 0.11348273D+01  1  2  2  1  7  1        2 0.363603838647D-03 0.100000000000D+01
-.264579252773D-06 0.000000000000D+00 -.189373151326D-07 0.388121965110D-06 0.000000000000D+00  7 2 -2 23 -13 13 23 21 2 0.34715798D+00 0.66454584D-02 0.69682870D+05 0.69682870D+05 0.69682870D+05 0.11348273D+01  1  2  3  1  7  1        2 -.251238614891D-04 0.100000000000D+01
0.309724154942D-06 0.000000000000D+00 0.000000000000D+00 0.388121965110D-06 0.000000000000D+00  7 2 -2 23 -13 13 23 21 2 0.34715798D+00 0.66454584D-02 0.69682870D+05 0.69682870D+05 0.69682870D+05 0.11348273D+01  1  2 15  1  7  1        2 0.294107216912D-04 0.100000000000D+01
-.159757315531D-06 0.000000000000D+00 -.108742255774D-05 0.388121965110D-06 0.000000000000D+00  7 2 -2 23 -13 13 23 21 2 0.95141554D+00 0.66454584D-02 0.69682870D+05 0.69682870D+05 0.69682870D+05 0.11348273D+01  1  2  5  1  7  1        2 -.177849899584D-09 0.100000000000D+01
0.442677873374D-07 0.000000000000D+00 -.122624282702D-06 0.388121965110D-06 0.000000000000D+00  7 21 -2 23 -13 13 23 -2 2 0.95141554D+00 0.66454584D-02 0.69682870D+05 0.69682870D+05 0.69682870D+05 0.11348273D+01  1  2  5  3  7  1        2 0.122789445278D-12 0.100000000000D+01
  </mgrwgt>
  </event>
  <event>
  8     66 0.55102590E-06 0.63902166E+03 0.75467711E-02 0.79522081E-01
        2 -1    0    0  501    0 0.00000000E+00 0.00000000E+00 0.16109635E+04 0.16109635E+04 0.32000000E+00 0.0000E+00 0.9000E+01
       -2 -1    0    0    0  501 0.00000000E+00 0.00000000E+00 -.67923878E+03 0.67923886E+03 0.32000000E+00 0.0000E+00 0.9000E+01
       25  2    1    2    0    0 -.55097905E+03 -.26926744E+03 0.13701425E+04 0.15309297E+04 0.30061972E+03 0.0000E+00 0.0000E+00
       23  2    1    2    0    0 0.55097905E+03 0.26926744E+03 -.43841785E+03 0.75927269E+03 0.90564565E+02 0.0000E+00 0.0000E+00
       23  1    3    3    0    0 -.45771956E+03 -.25702917E+03 0.12223883E+04 0.13334615E+04 0.91188000E+02 0.0000E+00 0.9000E+01
      -11  1    4    4    0    0 0.50934415E+03 0.23826295E+03 -.42713946E+03 0.70615070E+03 0.51099893E-03 0.0000E+00 0.9000E+01
       11  1    4    4    0    0 0.41634902E+02 0.31004498E+02 -.11278388E+02 0.53121992E+02 0.51099893E-03 0.0000E+00 0.9000E+01
       23  1    3    3    0    0 -.93259493E+02 -.12238270E+02 0.14775422E+03 0.19746815E+03 0.91188000E+02 0.0000E+00 0.9000E+01
#aMCatNLO 1  0  0  1  1 0.23030416D+04 0.00000000D+00  -5  7  0 0.00000000D+00 0.00000000D+00 0.00000000D+00 0.00000000D+00 0.00000000D+00
  <mgrwgt>
 0.3470969536D-03    5    2    0
 0.104605400649732D+04 0.000000000000000D+00 0.000000000000000D+00 0.104605400649732D+04
 0.104605400649732D+04 0.000000000000000D+00 0.000000000000000D+00 -.104605400649732D+04
 0.915329100324125D+03 -.457719556809510D+03 -.257029172738023D+03 0.744272075407835D+03
 0.963241073055438D+03 0.509344147319398D+03 0.238262945009783D+03 -.782069481214893D+03
 0.631747798290391D+02 0.416349020082992D+02 0.310044979440244D+02 -.360042893062185D+02
 0.150363059786031D+03 -.932594925181876D+02 -.122382702157851D+02 0.738016951132765D+02
 0.000000000000000D+00 0.000000000000000D+00 -.000000000000000D+00 0.000000000000000D+00
 0.343441072243360D+04 0.000000000000000D+00 0.000000000000000D+00 0.343441072243360D+04
 0.226151507749217D+04 0.000000000000000D+00 0.000000000000000D+00 -.226151507749217D+04
 0.159342219526324D+04 -.134449129282168D+04 0.411194944409980D+03 0.744272075407835D+03
 0.114259933558753D+04 -.235010128938062D+03 0.799168822924069D+03 -.782069481214893D+03
 0.778909447950016D+02 -.822779172969754D+01 0.685783776117869D+02 -.360042893062185D+02
 0.297504676490914D+03 -.251567911013359D+03 0.107054552153308D+03 0.738016951132765D+02
 0.258450864778908D+04 0.183929712450280D+04 -.138599669709914D+04 0.117289564494143D+04
0.323809569019D-03 0.000000000000D+00 0.000000000000D+00 0.549716098883D-05 0.000000000000D+00  7 2 -2 23 -11 11 23 21 0 0.24784054D+00 0.10449828D+00 0.40834868D+06 0.40834868D+06 0.40834868D+06 0.10747815D+01  1  2  2  1  7  1        2 0.338622592907D-03 0.100000000000D+01
-.126767366099D-04 0.000000000000D+00 -.124351400605D-05 0.549716098883D-05 0.000000000000D+00  7 2 -2 23 -11 11 23 21 2 0.24784054D+00 0.10449828D+00 0.40834868D+06 0.40834868D+06 0.40834868D+06 0.10747815D+01  1  2  3  1  7  1        2 -.153134865612D-04 0.100000000000D+01
0.196655723960D-04 0.000000000000D+00 0.000000000000D+00 0.549716098883D-05 0.000000000000D+00  7 2 -2 23 -11 11 23 21 2 0.24784054D+00 0.10449828D+00 0.40834868D+06 0.40834868D+06 0.40834868D+06 0.10747815D+01  1  2 15  1  7  1        2 0.237559939811D-04 0.100000000000D+01
0.121992734656D-03 0.000000000000D+00 -.893709517938D-04 0.549716098883D-05 0.000000000000D+00  7 2 -2 23 -11 11 23 21 2 0.87171844D+00 0.10449828D+00 0.40834868D+06 0.40834868D+06 0.40834868D+06 0.10747815D+01  1  2  5  1  7  1        2 0.318365647806D-07 0.100000000000D+01
0.207587723302D-04 0.000000000000D+00 -.131606604338D-04 0.549716098883D-05 0.000000000000D+00  7 21 -2 23 -11 11 23 -2 2 0.87171844D+00 0.10449828D+00 0.40834868D+06 0.40834868D+06 0.40834868D+06 0.10747815D+01  1  2  5  3  7  1        2 0.167401481699D-10 0.100000000000D+01
  </mgrwgt>
  </event>
  <event>
  8     66 0.55102590E-06 0.30998600E+03 0.75467711E-02 0.93693658E-01
        2 -1    0    0  501    0 0.00000000E+00 0.00000000E+00 0.93356602E+03 0.93356608E+03 0.32000000E+00 0.0000E+00 0.9000E+01
       -2 -1    0    0    0  501 0.00000000E+00 0.00000000E+00 -.34806535E+03 0.34806549E+03 0.32000000E+00 0.0000E+00 0.9000E+01
       25  2    1    2    0    0 -.49369851E+03 0.24500619E+02 0.51377900E+03 0.77286324E+03 0.29834582E+03 0.0000E+00 0.0000E+00
       23  2    1    2    0    0 0.49369851E+03 -.24500619E+02 0.71721672E+02 0.50876833E+03 0.96761104E+02 0.0000E+00 0.0000E+00
       23  1    3    3    0    0 -.50119824E+02 -.37033348E+02 0.48344372E+02 0.12056490E+03 0.91188000E+02 0.0000E+00 0.9000E+01
      -11  1    4    4    0    0 0.42745346E+03 -.30864740E+02 0.93686970E+02 0.43868707E+03 0.51099893E-03 0.0000E+00 0.9000E+01
       11  1    4    4    0    0 0.66245048E+02 0.63641209E+01 -.21965298E+02 0.70081258E+02 0.51099893E-03 0.0000E+00 0.9000E+01
       23  1    3    3    0    0 -.44357869E+03 0.61533968E+02 0.46543463E+03 0.65229834E+03 0.91188000E+02 0.0000E+00 0.9000E+01
#aMCatNLO 1  0  0  2  1 0.23577292D+02 0.00000000D+00  -5  7  0 0.00000000D+00 0.00000000D+00 0.00000000D+00 0.00000000D+00 0.00000000D+00
  <mgrwgt>
 0.3417134494D-03    9    2    0
 0.570036938181728D+03 0.000000000000000D+00 0.000000000000000D+00 0.570036938181728D+03
 0.570036938181728D+03 0.000000000000000D+00 0.000000000000000D+00 -.570036938181728D+03
 0.110706966850425D+03 -.501198240665998D+02 -.370333484963476D+02 -.757070009327468D+01
 0.445042575189302D+03 0.427453464713950D+03 -.308647402227545D+02 -.119974151575026D+03
 0.900635047974665D+02 0.662450474932043D+02 0.636412092271796D+01 -.606838244008023D+02
 0.494260829526262D+03 -.443578688140554D+03 0.615339677963842D+02 0.188228676069103D+03
 0.000000000000000D+00 -.000000000000000D+00 -.000000000000000D+00 -.000000000000000D+00
 0.574785778928359D+03 0.000000000000000D+00 0.000000000000000D+00 0.574785778928359D+03
 0.600194156238814D+03 0.000000000000000D+00 0.000000000000000D+00 -.600194156238814D+03
 0.109631923738530D+03 -.492653830394624D+02 -.349215390938532D+02 -.757070009327468D+01
 0.447861586860792D+03 0.430916012552500D+03 -.223068165629614D+02 -.119974151575026D+03
 0.907185988246141D+02 0.669460932590880D+02 0.809680345194083D+01 -.606838244008023D+02
 0.492105535912296D+03 -.439753707955865D+03 0.709876677731318D+02 0.188228676069103D+03
 0.346622898309404D+02 -.884301481626025D+01 -.218561155682580D+02 -.254083773104554D+02
0.180292077107D-04 0.000000000000D+00 0.000000000000D+00 0.115361138343D-07 0.000000000000D+00  7 2 -2 23 -11 11 23 21 0 0.14362556D+00 0.53548531D-01 0.28226922D+06 0.28226922D+06 0.28226922D+06 0.10865148D+01  1  2  2  2  7  2       -2 0.208487366898D-03 0.100000000000D+01
-.995588126084D-06 0.000000000000D+00 -.692369048085D-07 0.115361138343D-07 0.000000000000D+00  7 2 -2 23 -11 11 23 21 2 0.14362556D+00 0.53548531D-01 0.28226922D+06 0.28226922D+06 0.28226922D+06 0.10865148D+01  1  2  3  2  7  2       -2 -.135910834248D-04 0.100000000000D+01
0.115238457300D-05 0.000000000000D+00 0.000000000000D+00 0.115361138343D-07 0.000000000000D+00  7 2 -2 23 -11 11 23 21 2 0.14362556D+00 0.53548531D-01 0.28226922D+06 0.28226922D+06 0.28226922D+06 0.10865148D+01  1  2 15  2  7  2       -2 0.157315605306D-04 0.100000000000D+01
0.102601369857D-03 0.000000000000D+00 0.000000000000D+00 0.115361138343D-07 0.000000000000D+00  7 2 -2 23 -11 11 23 21 2 0.14362556D+00 0.56597309D-01 0.29515248D+06 0.29515248D+06 0.29515248D+06 0.10850757D+01  1  2 12  2  7  2       -2 0.124669421606D-02 0.100000000000D+01
-.104429232609D-03 0.000000000000D+00 0.000000000000D+00 0.115361138343D-07 0.000000000000D+00  7 2 -2 23 -11 11 23 21 2 0.14362556D+00 0.53548531D-01 0.28226922D+06 0.28226922D+06 0.28226922D+06 0.10865148D+01  1  2  4  2  7  2       -2 -.142559596202D-02 0.100000000000D+01
-.342901289666D-03 0.000000000000D+00 -.404175789242D-04 0.115361138343D-07 0.000000000000D+00  7 2 -2 23 -11 11 23 21 2 0.14362556D+00 0.56718475D-01 0.28226922D+06 0.28226922D+06 0.28226922D+06 0.10865148D+01  1  2  5  2  7  2       -2 -.416524137301D-02 0.100000000000D+01
0.344722264475D-03 0.000000000000D+00 0.403508285468D-04 0.115361138343D-07 0.000000000000D+00  7 2 -2 23 -11 11 23 21 2 0.14362556D+00 0.53548531D-01 0.28226922D+06 0.28226922D+06 0.28226922D+06 0.10865148D+01  1  2  6  2  7  2       -2 0.470591094060D-02 0.100000000000D+01
0.149325966848D-05 0.000000000000D+00 0.000000000000D+00 0.115361138343D-07 0.000000000000D+00  7 2 21 23 -11 11 23 2 2 0.14362556D+00 0.56597309D-01 0.29515248D+06 0.29515248D+06 0.29515248D+06 0.10850757D+01  1  2 12  4  7  2       -2 0.185112284679D-03 0.100000000000D+01
-.335216825312D-05 0.000000000000D+00 -.400611247836D-06 0.115361138343D-07 0.000000000000D+00  7 2 21 23 -11 11 23 2 2 0.14362556D+00 0.56718475D-01 0.28226922D+06 0.28226922D+06 0.28226922D+06 0.10865148D+01  1  2  5  4  7  2       -2 -.415794500869D-03 0.100000000000D+01
  </mgrwgt>
  </event>
  <event>
  8     66 0.55102590E-06 0.13128813E+03 0.75467711E-02 0.10235635E+00
        2 -1    0    0  501    0 0.00000000E+00 0.00000000E+00 0.38236864E+04 0.38236865E+04 0.32000000E+00 0.0000E+00 0.9000E+01
       -2 -1    0    0    0  501 0.00000000E+00 0.00000000E+00 -.24562176E+02 0.24564261E+02 0.32000000E+00 0.0000E+00 0.9000E+01
       25  2    1    2    0    0 0.24637526E+02 0.78679473E+02 0.10197408E+04 0.10661660E+04 0.30006849E+03 0.0000E+00 0.0000E+00
       23  2    1    2    0    0 -.24637526E+02 -.78679473E+02 0.27793834E+04 0.27820847E+04 0.90695366E+02 0.0000E+00 0.0000E+00
       23  1    3    3    0    0 -.56297234E+02 -.62710338E+02 0.38372373E+03 0.40331268E+03 0.91188000E+02 0.0000E+00 0.9000E+01
      -13  1    4    4    0    0 -.24835966E+02 0.13755828E+02 0.47461871E+03 0.47546711E+03 0.10565837E+00 0.0000E+00 0.9000E+01
       13  1    4    4    0    0 0.19843984E+00 -.92435301E+02 0.23047647E+04 0.23066176E+04 0.10565837E+00 0.0000E+00 0.9000E+01
       23  1    3    3    0    0 0.80934760E+02 0.14138981E+03 0.63601709E+03 0.66285331E+03 0.91188000E+02 0.0000E+00 0.9000E+01
#aMCatNLO 1  0  0  1  2 0.10803596D+03 0.00000000D+00  -5  7  0 0.00000000D+00 0.00000000D+00 0.00000000D+00 0.00000000D+00 0.00000000D+00
  <mgrwgt>
 0.2921565332D-03    9    2    0
 0.306467123073122D+03 0.000000000000000D+00 0.000000000000000D+00 0.306467123073122D+03
 0.306467123073122D+03 0.000000000000000D+00 0.000000000000000D+00 -.306467123073122D+03
 0.153742712443027D+03 -.562972342122460D+02 -.627103380807446D+02 -.906620383798510D+02
 0.433669467068753D+02 -.248359995827693D+02 0.137559718153301D+02 0.327816782794519D+02
 0.196359371063362D+03 0.198473616148924D+00 -.924354451322717D+02 0.173241599207066D+03
 0.219465215932980D+03 0.809347601788664D+02 0.141389811397686D+03 -.115361239106667D+03
 0.000000000000000D+00 -.000000000000000D+00 -.000000000000000D+00 0.000000000000000D+00
 0.399523856584946D+03 0.000000000000000D+00 0.000000000000000D+00 0.399523856584946D+03
 0.344224930817931D+03 0.000000000000000D+00 0.000000000000000D+00 -.344224930817931D+03
 0.143029869010347D+03 -.501724820895060D+02 -.374887839614134D+02 -.906620383798510D+02
 0.453585793430592D+02 -.230048942584355D+02 0.212964111850168D+02 0.327816782794519D+02
 0.183561953775415D+03 0.803923818201595D+01 -.601474008372676D+02 0.173241599207066D+03
 0.250432244640888D+03 0.906324399814465D+02 0.181324579543584D+03 -.115361239106667D+03
 0.121366140633167D+03 -.254943018155209D+02 -.104984805929920D+03 0.552989257670153D+02
0.116070967704D-04 0.000000000000D+00 0.000000000000D+00 0.651980256278D-06 0.000000000000D+00  7 2 -2 23 -13 13 23 21 0 0.58825961D+00 0.37789578D-02 0.46589602D+05 0.46589602D+05 0.46589602D+05 0.11500039D+01  1  2  2  1  7  1        2 0.204581433425D-03 0.100000000000D+01
-.548496177792D-06 0.000000000000D+00 -.445743078172D-07 0.651980256278D-06 0.000000000000D+00  7 2 -2 23 -13 13 23 21 2 0.58825961D+00 0.37789578D-02 0.46589602D+05 0.46589602D+05 0.46589602D+05 0.11500039D+01  1  2  3  1  7  1        2 -.127854152285D-04 0.100000000000D+01
0.720218058178D-06 0.000000000000D+00 0.000000000000D+00 0.651980256278D-06 0.000000000000D+00  7 2 -2 23 -13 13 23 21 2 0.58825961D+00 0.37789578D-02 0.46589602D+05 0.46589602D+05 0.46589602D+05 0.11500039D+01  1  2 15  1  7  1        2 0.167882426564D-04 0.100000000000D+01
0.315713160646D-05 0.000000000000D+00 0.000000000000D+00 0.651980256278D-06 0.000000000000D+00  7 2 -2 23 -13 13 23 21 2 0.79452554D+00 0.37789578D-02 0.71014738D+05 0.71014738D+05 0.71014738D+05 0.11341287D+01  1  2 12  1  7  1        2 0.306742459802D-05 0.100000000000D+01
-.500153824265D-05 0.000000000000D+00 0.000000000000D+00 0.651980256278D-06 0.000000000000D+00  7 2 -2 23 -13 13 23 21 2 0.58825961D+00 0.37789578D-02 0.46589602D+05 0.46589602D+05 0.46589602D+05 0.11500039D+01  1  2  4  1  7  1        2 -.116585576714D-03 0.100000000000D+01
-.781215489416D-05 0.000000000000D+00 -.282109582275D-05 0.651980256278D-06 0.000000000000D+00  7 2 -2 23 -13 13 23 21 2 0.77729902D+00 0.37789578D-02 0.46589602D+05 0.46589602D+05 0.46589602D+05 0.11500039D+01  1  2  5  1  7  1        2 -.115213505639D-04 0.100000000000D+01
0.894954231597D-05 0.000000000000D+00 0.302645658757D-05 0.651980256278D-06 0.000000000000D+00  7 2 -2 23 -13 13 23 21 2 0.58825961D+00 0.37789578D-02 0.46589602D+05 0.46589602D+05 0.46589602D+05 0.11500039D+01  1  2  6  1  7  1        2 0.208613330863D-03 0.100000000000D+01
0.122209203871D-06 0.000000000000D+00 0.000000000000D+00 0.651980256278D-06 0.000000000000D+00  7 21 -2 23 -13 13 23 -2 2 0.79452554D+00 0.37789578D-02 0.71014738D+05 0.71014738D+05 0.71014738D+05 0.11341287D+01  1  2 12  3  7  1        2 0.682934392062D-09 0.100000000000D+01
-.229922447192D-06 0.000000000000D+00 -.103370772824D-06 0.651980256278D-06 0.000000000000D+00  7 21 -2 23 -13 13 23 -2 2 0.77729902D+00 0.37789578D-02 0.46589602D+05 0.46589602D+05 0.46589602D+05 0.11500039D+01  1  2  5  3  7  1        2 -.223879196035D-08 0.100000000000D+01
  </mgrwgt>
  </event>
  <event>
  8     66 0.55102590E-06 0.19093093E+03 0.75467711E-02 0.98273492E-01
        2 -1    0    0  501    0 0.00000000E+00 0.00000000E+00 0.17193791E+04 0.17193792E+04 0.32000000E+00 0.0000E+00 0.9000E+01
       -2 -1    0    0    0  501 0.00000000E+00 0.00000000E+00 -.88938968E+02 0.88939544E+02 0.32000000E+00 0.0000E+00 0.9000E+01
       25  2    1    2    0    0 -.27833702E+03 0.11426624E+03 0.12176985E+04 0.12897225E+04 0.30011015E+03 0.0000E+00 0.0000E+00
       23  2    1    2    0    0 0.27833702E+03 -.11426624E+03 0.41274162E+03 0.51859621E+03 0.89767006E+02 0.0000E+00 0.0000E+00
       23  1    3    3    0    0 -.22592412E+03 -.27708867E+02 0.78266913E+03 0.82018029E+03 0.91188000E+02 0.0000E+00 0.9000E+01
      -13  1    4    4    0    0 0.24226968E+02 -.32025532E+02 0.23486661E+02 0.46521125E+02 0.10565837E+00 0.0000E+00 0.9000E+01
       13  1    4    4    0    0 0.25411005E+03 -.82240704E+02 0.38925496E+03 0.47207509E+03 0.10565837E+00 0.0000E+00 0.9000E+01
       23  1    3    3    0    0 -.52412902E+02 0.14197510E+03 0.43502941E+03 0.46954221E+03 0.91188000E+02 0.0000E+00 0.9000E+01
#aMCatNLO 1  0  0  2  1 0.45593582D+01 0.00000000D+00  -5  7  0 0.00000000D+00 0.00000000D+00 0.00000000D+00 0.00000000D+00 0.00000000D+00
  <mgrwgt>
 0.2266315975D-03    8    2    0
 0.391050321085837D+03 0.000000000000000D+00 0.000000000000000D+00 0.391050321085837D+03
 0.391050321085837D+03 0.000000000000000D+00 0.000000000000000D+00 -.391050321085837D+03
 0.264738529762296D+03 -.225924117157779D+03 -.277088668426921D+02 0.998085656718589D+02
 0.586001119566624D+02 0.242266494655214D+02 -.320254622476625D+02 -.426780077420639D+02
 0.280022180733307D+03 0.254110369825236D+03 -.822407737157590D+02 -.841236993275508D+02
 0.178739819719409D+03 -.524129021329778D+02 0.141975102806114D+03 0.269931413977558D+02
 0.000000000000000D+00 0.000000000000000D+00 0.000000000000000D+00 0.000000000000000D+00
 0.394224177685032D+03 0.000000000000000D+00 0.000000000000000D+00 0.394224177685032D+03
 0.392697821357763D+03 0.000000000000000D+00 0.000000000000000D+00 -.392697821357763D+03
 0.265328991805087D+03 -.226432572170256D+03 -.291678423472156D+02 0.998085656718589D+02
 0.587309269935705D+02 0.241141023796389D+02 -.323484081079229D+02 -.426780077420639D+02
 0.279992164116583D+03 0.253573189015033D+03 -.837821758543051D+02 -.841236993275508D+02
 0.178061848831809D+03 -.527551558826482D+02 0.140993030007444D+03 0.269931413977558D+02
 0.480806729574701D+01 0.150043665823261D+01 0.430539630199932D+01 0.152635632726907D+01
0.412787609792D-05 0.000000000000D+00 0.000000000000D+00 0.336962494887D-06 0.000000000000D+00  7 2 -2 23 -13 13 23 21 0 0.26451991D+00 0.13682965D-01 0.13291030D+06 0.13291030D+06 0.13291030D+06 0.11117215D+01  1  2  2  2  7  2       -2 0.192333309832D-03 0.100000000000D+01
-.227955452278D-06 0.000000000000D+00 -.158521311108D-07 0.336962494887D-06 0.000000000000D+00  7 2 -2 23 -13 13 23 21 2 0.26451991D+00 0.13682965D-01 0.13291030D+06 0.13291030D+06 0.13291030D+06 0.11117215D+01  1  2  3  2  7  2       -2 -.131271313142D-04 0.100000000000D+01
0.263822986477D-06 0.000000000000D+00 0.000000000000D+00 0.336962494887D-06 0.000000000000D+00  7 2 -2 23 -13 13 23 21 2 0.26451991D+00 0.13682965D-01 0.13291030D+06 0.13291030D+06 0.13291030D+06 0.11117215D+01  1  2 15  2  7  2       -2 0.151926130855D-04 0.100000000000D+01
0.199563931485D-06 0.000000000000D+00 0.000000000000D+00 0.336962494887D-06 0.000000000000D+00  7 2 -2 23 -13 13 23 21 2 0.26451991D+00 0.13795799D-01 0.13461831D+06 0.13461831D+06 0.13461831D+06 0.11112790D+01  1  2 12  2  7  2       -2 0.113306908391D-04 0.100000000000D+01
-.183624719012D-04 0.000000000000D+00 0.000000000000D+00 0.336962494887D-06 0.000000000000D+00  7 2 -2 23 -13 13 23 21 2 0.26451991D+00 0.13682965D-01 0.13291030D+06 0.13291030D+06 0.13291030D+06 0.11117215D+01  1  2  4  2  7  2       -2 -.105742844706D-02 0.100000000000D+01
0.182559473132D-04 0.000000000000D+00 0.000000000000D+00 0.336962494887D-06 0.106767746529D-06  7 2 -2 23 -13 13 23 21 2 0.26666682D+00 0.13740611D-01 0.13461831D+06 0.13461831D+06 0.13461831D+06 0.11112790D+01  1  2 11  2  7  2       -2 0.102532528686D-02 0.100000000000D+01
0.159885165128D-07 0.000000000000D+00 0.000000000000D+00 0.336962494887D-06 0.000000000000D+00  7 2 21 23 -13 13 23 2 2 0.26451991D+00 0.13795799D-01 0.13461831D+06 0.13461831D+06 0.13461831D+06 0.11112790D+01  1  2 12  4  7  2       -2 0.124117764721D-04 0.100000000000D+01
0.528231732413D-07 0.000000000000D+00 0.000000000000D+00 0.336962494887D-06 0.842657510627D-10  7 2 21 23 -13 13 23 2 2 0.26666682D+00 0.13740611D-01 0.13461831D+06 0.13461831D+06 0.13461831D+06 0.11112790D+01  1  2 11  4  7  2       -2 0.405934987438D-04 0.100000000000D+01
  </mgrwgt>
  </event>
  <event>
  8     66 0.55102590E-06 0.32165762E+03 0.75467711E-02 0.91605343E-01
        2 -1    0    0  501    0 0.00000000E+00 0.00000000E+00 0.41110417E+04 0.41110417E+04 0.32000000E+00 0.0000E+00 0.9000E+01
       -2 -1    0    0    0  501 0.00000000E+00 0.00000000E+00 -.32901184E+03 0.32901199E+03 0.32000000E+00 0.0000E+00 0.9000E+01
       25  2    1    2    0    0 0.76013825E+02 0.60594245E+03 0.78158453E+02 0.68511483E+03 0.30054823E+03 0.0000E+00 0.0000E+00
       23  2    1    2    0    0 -.76013825E+02 -.60594245E+03 0.37038714E+04 0.37549389E+04 0.89208674E+02 0.0000E+00 0.0000E+00
       23  1    3    3    0    0 0.11048711E+03 0.16464463E+03 0.82057057E+02 0.23316061E+03 0.91188000E+02 0.0000E+00 0.9000E+01
      -11  1    4    4    0    0 -.30539685E+02 -.24309170E+03 0.17597352E+04 0.17767088E+04 0.51099893E-03 0.0000E+00 0.9000E+01
       11  1    4    4    0    0 -.45474140E+02 -.36285075E+03 0.19441363E+04 0.19782301E+04 0.51099893E-03 0.0000E+00 0.9000E+01
       23  1    3    3    0    0 -.34473289E+02 0.44129781E+03 -.38986034E+01 0.45195422E+03 0.91188000E+02 0.0000E+00 0.9000E+01
#aMCatNLO 1  0  0  1  2 0.34838347D+02 0.00000000D+00  -5  7  0 0.00000000D+00 0.00000000D+00 0.00000000D+00 0.00000000D+00 0.00000000D+00
  <mgrwgt>
 0.5338049000D-03    9    2    0
 0.116300548537948D+04 0.000000000000000D+00 0.000000000000000D+00 0.116300548537948D+04
 0.116300548537948D+04 0.000000000000000D+00 0.000000000000000D+00 -.116300548537948D+04
 0.311650891510031D+03 0.110487114062439D+03 0.164644634400330D+03 -.222476445549484D+03
 0.530225987725234D+03 -.305396850257626D+02 -.243091696441318D+03 0.470226916306383D+03
 0.615072992948840D+03 -.454741401942455D+02 -.362850749544261D+03 0.494556592094176D+03
 0.869061098574855D+03 -.344732888424309D+02 0.441297811585249D+03 -.742307062851075D+03
 0.000000000000000D+00 0.000000000000000D+00 0.000000000000000D+00 0.000000000000000D+00
 0.124724706245507D+04 0.000000000000000D+00 0.000000000000000D+00 0.124724706245507D+04
 0.116674338838686D+04 0.000000000000000D+00 0.000000000000000D+00 -.116674338838686D+04
 0.308815755628708D+03 0.108976288718887D+03 0.160250801100197D+03 -.222476445549484D+03
 0.533877293078683D+03 -.331307577485412D+02 -.250627141660714D+03 0.470226916306383D+03
 0.620502791175437D+03 -.484827454386081D+02 -.371600476947269D+03 0.494556592094176D+03
 0.863076015789067D+03 -.386910121688264D+02 0.429031686131795D+03 -.742307062851075D+03
 0.877185951700292D+02 0.113282266370883D+02 0.329451313759913D+02 0.805036740682119D+02
0.146385012047D-02 0.000000000000D+00 0.000000000000D+00 0.155103896542D-05 0.000000000000D+00  7 2 -2 23 -11 11 23 21 0 0.63246797D+00 0.50617219D-01 0.41015908D+06 0.41015908D+06 0.41015908D+06 0.10746433D+01  1  2  2  1  7  1        2 0.185226898637D-03 0.100000000000D+01
-.461292275610D-04 0.000000000000D+00 -.562156990321D-05 0.155103896542D-05 0.000000000000D+00  7 2 -2 23 -11 11 23 21 2 0.63246797D+00 0.50617219D-01 0.41015908D+06 0.41015908D+06 0.41015908D+06 0.10746433D+01  1  2  3  1  7  1        2 -.674081305416D-05 0.100000000000D+01
0.885635025427D-04 0.000000000000D+00 0.000000000000D+00 0.155103896542D-05 0.000000000000D+00  7 2 -2 23 -11 11 23 21 2 0.63246797D+00 0.50617219D-01 0.41015908D+06 0.41015908D+06 0.41015908D+06 0.10746433D+01  1  2 15  1  7  1        2 0.129416867706D-04 0.100000000000D+01
0.108607832741D-01 0.000000000000D+00 0.000000000000D+00 0.155103896542D-05 0.000000000000D+00  7 2 -2 23 -11 11 23 21 2 0.67925466D+00 0.50617219D-01 0.43355006D+06 0.43355006D+06 0.43355006D+06 0.10729150D+01  1  2 12  1  7  1        2 0.832256670992D-03 0.100000000000D+01
-.116397058070D-01 0.000000000000D+00 0.000000000000D+00 0.155103896542D-05 0.000000000000D+00  7 2 -2 23 -11 11 23 21 2 0.63246797D+00 0.50617219D-01 0.41015908D+06 0.41015908D+06 0.41015908D+06 0.10746433D+01  1  2  4  1  7  1        2 -.170089734858D-02 0.100000000000D+01
-.162041024775D-01 0.000000000000D+00 -.109564884650D-02 0.155103896542D-05 0.000000000000D+00  7 2 -2 23 -11 11 23 21 2 0.67862229D+00 0.50617219D-01 0.41015908D+06 0.41015908D+06 0.41015908D+06 0.10746433D+01  1  2  5  1  7  1        2 -.126461648872D-02 0.100000000000D+01
0.169417144639D-01 0.000000000000D+00 0.115518806104D-02 0.155103896542D-05 0.000000000000D+00  7 2 -2 23 -11 11 23 21 2 0.63246797D+00 0.50617219D-01 0.41015908D+06 0.41015908D+06 0.41015908D+06 0.10746433D+01  1  2  6  1  7  1        2 0.247567401529D-02 0.100000000000D+01
0.153855311654D-03 0.000000000000D+00 0.000000000000D+00 0.155103896542D-05 0.000000000000D+00  7 21 -2 23 -11 11 23 -2 2 0.67925466D+00 0.50617219D-01 0.43355006D+06 0.43355006D+06 0.43355006D+06 0.10729150D+01  1  2 12  3  7  1        2 0.143583890604D-06 0.100000000000D+01
-.191695992197D-03 0.000000000000D+00 -.130586273883D-04 0.155103896542D-05 0.000000000000D+00  7 21 -2 23 -11 11 23 -2 2 0.67862229D+00 0.50617219D-01 0.41015908D+06 0.41015908D+06 0.41015908D+06 0.10746433D+01  1  2  5  3  7  1        2 -.183305260069D-06 0.100000000000D+01
  </mgrwgt>
  </event>
  <event>
  9     66 0.55102590E-06 0.21834772E+03 0.75467711E-02 0.10397689E+00
        2 -1    0    0  501    0 0.00000000E+00 0.00000000E+00 0.91728743E+03 0.91728748E+03 0.32000000E+00 0.0000E+00 0.9000E+01
       -2 -1    0    0    0  502 0.00000000E+00 0.00000000E+00 -.73855719E+02 0.73856412E+02 0.32000000E+00 0.0000E+00 0.9000E+01
       25  2    1    2    0    0 -.11311948E+03 -.34027047E+02 0.52535892E+03 0.61483772E+03 0.29676517E+03 0.0000E+00 0.0000E+00
       23  2    1    2    0    0 0.12797612E+03 0.35391448E+01 0.21713977E+03 0.26982487E+03 0.96256775E+02 0.0000E+00 0.0000E+00
       23  1    3    3    0    0 -.13563443E+03 0.45206283E+02 0.17556522E+03 0.24408749E+03 0.91188000E+02 0.0000E+00 0.9000E+01
      -13  1    4    4    0    0 0.77852298E+02 -.32822010E+02 0.68384554E+02 0.10869555E+03 0.10565837E+00 0.0000E+00 0.9000E+01
       13  1    4    4    0    0 0.50123827E+02 0.36361154E+02 0.14875522E+03 0.16112932E+03 0.10565837E+00 0.0000E+00 0.9000E+01
       23  1    3    3    0    0 0.22514956E+02 -.79233329E+02 0.34979370E+03 0.37075022E+03 0.91188000E+02 0.0000E+00 0.9000E+01
       21  1    1    2  501  502 -.14856648E+02 0.30487902E+02 0.10093301E+03 0.10648130E+03 0.75000000E+00 0.0000E+00 0.9000E+01
#aMCatNLO 2  0  0  2  1 0.33915073D+02 0.00000000D+00  -5  7  0 0.00000000D+00 0.00000000D+00 0.00000000D+00 0.00000000D+00 0.00000000D+00
  <mgrwgt>
 0.9370282913D-04    1    2    0
 0.239881927617732D+03 0.000000000000000D+00 0.000000000000000D+00 0.239881927617732D+03
 0.239881927617732D+03 0.000000000000000D+00 0.000000000000000D+00 -.239881927617732D+03
 0.185448527893549D+03 -.141253901823637D+03 0.567378591743905D+02 -.538892912348064D+02
 0.900987975448887D+02 0.749999961821711D+02 -.269682092295951D+02 -.420179673789433D+02
 0.676549036052499D+02 0.480458148578326D+02 0.406256566254723D+02 0.248664770370019D+02
 0.136561626191775D+03 0.182080907836338D+02 -.703953065702677D+02 0.710407815767478D+02
 0.000000000000000D+00 -.000000000000000D+00 0.000000000000000D+00 0.000000000000000D+00
 0.271130884093903D+03 0.000000000000000D+00 0.000000000000000D+00 0.271130884093903D+03
 0.249862445457726D+03 0.000000000000000D+00 0.000000000000000D+00 -.249862445457726D+03
 0.177931603246589D+03 -.135634592477427D+03 0.452062573499969D+02 -.538892912348064D+02
 0.943599018978776D+02 0.778524650018513D+02 -.328218707062023D+02 -.420179673789433D+02
 0.667298836652331D+02 0.501239408377209D+02 0.363610540089319D+02 0.248664770370019D+02
 0.141939720785469D+03 0.225148348455371D+02 -.792333424607339D+02 0.710407815767478D+02
 0.400322199564598D+02 -.148566482076823D+02 0.304879018080074D+02 0.212684386361775D+02
0.404465504898D-06 0.000000000000D+00 0.000000000000D+00 0.308476469367D-09 0.189702707556D-11  7 2 -2 23 -13 13 23 21 2 0.14111926D+00 0.11362319D-01 0.55881235D+05 0.55881235D+05 0.55881235D+05 0.11430714D+01  1  2  1  2  7  2       -2 0.937028291348D-04 0.100000000000D+01
  </mgrwgt>
  </event>
  <event>
  8     66 0.55102590E-06 0.18728042E+03 0.75467711E-02 0.10151825E+00
        2 -1    0    0  501    0 0.00000000E+00 0.00000000E+00 0.60414049E+03 0.60414057E+03 0.32000000E+00 0.0000E+00 0.9000E+01
       -2 -1    0    0    0  501 0.00000000E+00 0.00000000E+00 -.12142209E+03 0.12142251E+03 0.32000000E+00 0.0000E+00 0.9000E+01
       25  2    1    2    0    0 0.10750973E+03 0.11213684E+03 0.39955016E+03 0.52380697E+03 0.30099899E+03 0.0000E+00 0.0000E+00
       23  2    1    2    0    0 -.10750973E+03 -.11213684E+03 0.83168237E+02 0.20175611E+03 0.98262715E+02 0.0000E+00 0.0000E+00
       23  1    3    3    0    0 0.83212123E+02 0.17557407E+03 0.31890124E+03 0.38440052E+03 0.91188000E+02 0.0000E+00 0.9000E+01
      -13  1    4    4    0    0 -.97731495E+02 -.93856144E+02 0.22133537E+02 0.13729649E+03 0.10565837E+00 0.0000E+00 0.9000E+01
       13  1    4    4    0    0 -.97782362E+01 -.18280695E+02 0.61034700E+02 0.64459626E+02 0.10565837E+00 0.0000E+00 0.9000E+01
       23  1    3    3    0    0 0.24297609E+02 -.63437231E+02 0.80648923E+02 0.13940644E+03 0.91188000E+02 0.0000E+00 0.9000E+01
#aMCatNLO 1  0  0  1  2 0.75694691D+02 0.00000000D+00  -5  7  0 0.00000000D+00 0.00000000D+00 0.00000000D+00 0.00000000D+00 0.00000000D+00
  <mgrwgt>
 0.2529084222D-03    9    2    0
 0.270843465362933D+03 0.000000000000000D+00 0.000000000000000D+00 0.270843465362933D+03
 0.270843465362933D+03 0.000000000000000D+00 0.000000000000000D+00 -.270843465362933D+03
 0.230700309492296D+03 0.832121392467562D+02 0.175574081605484D+03 0.845982458814044D+02
 0.164178015647730D+03 -.977316115862188D+02 -.938562540165868D+02 -.927035948642807D+02
 0.319499274650656D+02 -.977814598984392D+01 -.182806115289955D+02 0.243105937432677D+02
 0.114858678120774D+03 0.242976183293065D+02 -.634372160599014D+02 -.162052447603914D+02
 0.000000000000000D+00 0.000000000000000D+00 0.000000000000000D+00 0.000000000000000D+00
 0.325874424836354D+03 0.000000000000000D+00 0.000000000000000D+00 0.325874424836354D+03
 0.300811669125230D+03 0.000000000000000D+00 0.000000000000000D+00 -.300811669125230D+03
 0.208029201777070D+03 0.821835026536302D+02 0.145085857799356D+03 0.845982458814044D+02
 0.179341622094991D+03 -.985370209803058D+02 -.117728146215035D+03 -.927035948642807D+02
 0.348594938581405D+02 -.993478604658364D+01 -.229233368012628D+02 0.243105937432677D+02
 0.124719787087526D+03 0.237359073663827D+02 -.800860205710586D+02 -.162052447603914D+02
 0.797359891438566D+02 0.255239700687657D+01 0.756516457880000D+02 0.250627557111243D+02
0.130408480404D-05 0.000000000000D+00 0.000000000000D+00 0.368627835110D-08 0.000000000000D+00  7 2 -2 23 -13 13 23 21 0 0.92944729D-01 0.18680360D-01 0.58702351D+05 0.58702351D+05 0.58702351D+05 0.11412159D+01  1  2  2  1  7  1        2 0.175026507231D-03 0.100000000000D+01
-.713555305946D-07 0.000000000000D+00 -.500802902094D-08 0.368627835110D-08 0.000000000000D+00  7 2 -2 23 -13 13 23 21 2 0.92944729D-01 0.18680360D-01 0.58702351D+05 0.58702351D+05 0.58702351D+05 0.11412159D+01  1  2  3  1  7  1        2 -.124727217815D-04 0.100000000000D+01
0.837948335323D-07 0.000000000000D+00 0.000000000000D+00 0.368627835110D-08 0.000000000000D+00  7 2 -2 23 -13 13 23 21 2 0.92944729D-01 0.18680360D-01 0.58702351D+05 0.58702351D+05 0.58702351D+05 0.11412159D+01  1  2 15  1  7  1        2 0.146470727169D-04 0.100000000000D+01
0.104940592663D-05 0.000000000000D+00 0.000000000000D+00 0.368627835110D-08 0.000000000000D+00  7 2 -2 23 -13 13 23 21 2 0.11613549D+00 0.18680360D-01 0.80631865D+05 0.80631865D+05 0.80631865D+05 0.11294760D+01  1  2 12  1  7  1        2 0.138127228291D-03 0.100000000000D+01
-.107256896703D-05 0.000000000000D+00 0.000000000000D+00 0.368627835110D-08 0.000000000000D+00  7 2 -2 23 -13 13 23 21 2 0.92944729D-01 0.18680360D-01 0.58702351D+05 0.58702351D+05 0.58702351D+05 0.11412159D+01  1  2  4  1  7  1        2 -.187481673889D-03 0.100000000000D+01
-.225903254235D-05 0.000000000000D+00 -.729809928268D-06 0.368627835110D-08 0.000000000000D+00  7 2 -2 23 -13 13 23 21 2 0.12098412D+00 0.18680360D-01 0.58702351D+05 0.58702351D+05 0.58702351D+05 0.11412159D+01  1  2  5  1  7  1        2 -.288835630629D-03 0.100000000000D+01
0.239246421929D-05 0.000000000000D+00 0.705158573386D-06 0.368627835110D-08 0.000000000000D+00  7 2 -2 23 -13 13 23 21 2 0.92944729D-01 0.18680360D-01 0.58702351D+05 0.58702351D+05 0.58702351D+05 0.11412159D+01  1  2  6  1  7  1        2 0.418195202679D-03 0.100000000000D+01
0.325909597469D-07 0.000000000000D+00 0.000000000000D+00 0.368627835110D-08 0.000000000000D+00  7 21 -2 23 -13 13 23 -2 2 0.11613549D+00 0.18680360D-01 0.80631865D+05 0.80631865D+05 0.80631865D+05 0.11294760D+01  1  2 12  3  7  1        2 0.485414070771D-05 0.100000000000D+01
-.661637193546D-07 0.000000000000D+00 -.256834442677D-07 0.368627835110D-08 0.000000000000D+00  7 21 -2 23 -13 13 23 -2 2 0.12098412D+00 0.18680360D-01 0.58702351D+05 0.58702351D+05 0.58702351D+05 0.11412159D+01  1  2  5  3  7  1        2 -.915170308023D-05 0.100000000000D+01
  </mgrwgt>
  </event>
  <event>
  8     66 0.55102590E-06 0.20358988E+03 0.75467711E-02 0.98900598E-01
        2 -1    0    0  501    0 0.00000000E+00 0.00000000E+00 0.13332752E+04 0.13332753E+04 0.32000000E+00 0.0000E+00 0.9000E+01
       -2 -1    0    0    0  501 0.00000000E+00 0.00000000E+00 -.45006049E+02 0.45007186E+02 0.32000000E+00 0.0000E+00 0.9000E+01
       25  2    1    2    0    0 0.62341370E+02 0.67805161E+02 0.59340221E+03 0.67145451E+03 0.30040139E+03 0.0000E+00 0.0000E+00
       23  2    1    2    0    0 -.62341370E+02 -.67805161E+02 0.69486699E+03 0.70682796E+03 0.91003550E+02 0.0000E+00 0.0000E+00
       23  1    3    3    0    0 0.70967367E+02 0.14655994E+03 0.28971846E+03 0.34462765E+03 0.91188000E+02 0.0000E+00 0.9000E+01
      -11  1    4    4    0    0 -.29059413E+01 -.28152545E+02 0.47069675E+03 0.47154686E+03 0.51099893E-03 0.0000E+00 0.9000E+01
       11  1    4    4    0    0 -.59435429E+02 -.39652616E+02 0.22417024E+03 0.23528110E+03 0.51099893E-03 0.0000E+00 0.9000E+01
       23  1    3    3    0    0 -.86259966E+01 -.78754779E+02 0.30368375E+03 0.32682686E+03 0.91188000E+02 0.0000E+00 0.9000E+01
#aMCatNLO 1  0  0  2  2 0.22410890D+03 0.00000000D+00  -5  7  0 0.00000000D+00 0.00000000D+00 0.00000000D+00 0.00000000D+00 0.00000000D+00
  <mgrwgt>
 0.2115197127D-03    3    2    0
 0.244961753799035D+03 0.000000000000000D+00 0.000000000000000D+00 0.244961753799035D+03
 0.244961753799035D+03 0.000000000000000D+00 0.000000000000000D+00 -.244961753799035D+03
 0.207703623998689D+03 0.709673667517442D+02 0.146559939712148D+03 -.911556965092356D+02
 0.888723346868272D+02 -.290594130341250D+01 -.281525449825054D+02 0.842453653849074D+02
 0.724443752987487D+02 -.594354288719034D+02 -.396526155814193D+02 0.119702708737542D+02
 0.120903173613805D+03 -.862599657642834D+01 -.787547791482235D+02 -.505993974942609D+01
 0.000000000000000D+00 -.000000000000000D+00 0.000000000000000D+00 0.000000000000000D+00
 0.384532889490305D+03 0.000000000000000D+00 0.000000000000000D+00 0.384532889490305D+03
 0.378408087271917D+03 0.000000000000000D+00 0.000000000000000D+00 -.378408087271917D+03
 0.242371206265554D+03 0.165667770754062D+03 0.121133723668990D+03 -.911556965092356D+02
 0.997847364299456D+02 0.367894596639401D+02 -.388104070217316D+02 0.842453653849074D+02
 0.581095435801450D+02 -.319655326889547D+02 -.470280383411118D+02 0.119702708737542D+02
 0.138482915734804D+03 0.459515220985724D+02 -.934083574043003D+02 -.505993974942609D+01
 0.224192574751774D+03 -.216443219827619D+03 0.581130790981533D+02 0.612480221838854D+01
0.965490131223D-06 0.000000000000D+00 0.000000000000D+00 0.149349959026D-06 0.000000000000D+00  7 2 -2 23 -11 11 23 21 0 0.20511936D+00 0.69240979D-02 0.41448841D+05 0.41448841D+05 0.41448841D+05 0.11545300D+01  1  2  2  2  7  2       -2 0.208832991339D-03 0.100000000000D+01
-.514064421941D-07 0.000000000000D+00 -.370773632329D-08 0.149349959026D-06 0.000000000000D+00  7 2 -2 23 -11 11 23 21 2 0.20511936D+00 0.69240979D-02 0.41448841D+05 0.41448841D+05 0.41448841D+05 0.11545300D+01  1  2  3  2  7  2       -2 -.148210608646D-04 0.100000000000D+01
0.607252612737D-07 0.000000000000D+00 0.000000000000D+00 0.149349959026D-06 0.000000000000D+00  7 2 -2 23 -11 11 23 21 2 0.20511936D+00 0.69240979D-02 0.41448841D+05 0.41448841D+05 0.41448841D+05 0.11545300D+01  1  2 15  2  7  2       -2 0.175077821950D-04 0.100000000000D+01
  </mgrwgt>
  </event>
  <event>
  8     66 0.55102590E-06 0.24630606E+03 0.75467711E-02 0.10290423E+00
        2 -1    0    0  501    0 0.00000000E+00 0.00000000E+00 0.58595850E+03 0.58595859E+03 0.32000000E+00 0.0000E+00 0.9000E+01
       -2 -1    0    0    0  501 0.00000000E+00 0.00000000E+00 -.21649974E+03 0.21649998E+03 0.32000000E+00 0.0000E+00 0.9000E+01
       25  2    1    2    0    0 -.14366952E+03 0.10532389E+03 -.35439690E+02 0.34999602E+03 0.29917751E+03 0.0000E+00 0.0000E+00
       23  2    1    2    0    0 0.14366952E+03 -.10532389E+03 0.40489845E+03 0.45246255E+03 0.95108098E+02 0.0000E+00 0.0000E+00
       23  1    3    3    0    0 -.16573424E+03 0.25934057E+02 0.53501422E+02 0.19828784E+03 0.91188000E+02 0.0000E+00 0.9000E+01
      -11  1    4    4    0    0 0.27424470E+02 -.27812178E+02 0.21909671E+02 0.44784512E+02 0.51099893E-03 0.0000E+00 0.9000E+01
       11  1    4    4    0    0 0.11624505E+03 -.77511711E+02 0.38298878E+03 0.40767804E+03 0.51099893E-03 0.0000E+00 0.9000E+01
       23  1    3    3    0    0 0.22064718E+02 0.79389832E+02 -.88941113E+02 0.15170817E+03 0.91188000E+02 0.0000E+00 0.9000E+01
#aMCatNLO 1  0  0  1  2 0.17029713D+02 0.00000000D+00  -5  7  0 0.00000000D+00 0.00000000D+00 0.00000000D+00 0.00000000D+00 0.00000000D+00
  <mgrwgt>
 0.3039690386D-03    4    2    0
 0.356174106094297D+03 0.000000000000000D+00 0.000000000000000D+00 0.356174106094297D+03
 0.356174106094297D+03 0.000000000000000D+00 0.000000000000000D+00 -.356174106094297D+03
 0.195622317307937D+03 -.165734242895994D+03 0.259340573075297D+02 -.425725861111163D+02
 0.390862146086651D+02 0.274244695864139D+02 -.278121783348445D+02 0.145374571685874D+01
 0.260611554677399D+03 0.116245054842430D+03 -.775117109630990D+02 0.219994100647323D+03
 0.217028125594594D+03 0.220647184671507D+02 0.793898319904138D+02 -.178875260253066D+03
 0.000000000000000D+00 -.000000000000000D+00 -.000000000000000D+00 -.000000000000000D+00
 0.356990295013486D+03 0.000000000000000D+00 0.000000000000000D+00 0.356990295013486D+03
 0.457760196192559D+03 0.000000000000000D+00 0.000000000000000D+00 -.457760196192559D+03
 0.193568361457907D+03 -.162704997655125D+03 0.294638399289091D+02 -.425725861111163D+02
 0.390197973718312D+02 0.280324036351570D+02 -.271037922949007D+02 0.145374571685874D+01
 0.261089656386046D+03 0.120305688863216D+03 -.727801180220659D+02 0.219994100647323D+03
 0.218873927849998D+03 0.254575392435097D+02 0.833432655560672D+02 -.178875260253066D+03
 0.102198748140263D+03 -.110906340867572D+02 -.129231951680097D+02 -.100769901179073D+03
0.593951921190D-05 0.000000000000D+00 0.000000000000D+00 0.378654590184D-07 0.000000000000D+00  7 2 -2 23 -11 11 23 21 0 0.90147487D-01 0.33307677D-01 0.60666675D+05 0.60666675D+05 0.60666675D+05 0.11399810D+01  1  2  2  1  7  1        2 0.309286952588D-03 0.100000000000D+01
-.275391528352D-06 0.000000000000D+00 -.228093176850D-07 0.378654590184D-07 0.000000000000D+00  7 2 -2 23 -11 11 23 21 2 0.90147487D-01 0.33307677D-01 0.60666675D+05 0.60666675D+05 0.60666675D+05 0.11399810D+01  1  2  3  1  7  1        2 -.186361457641D-04 0.100000000000D+01
0.368922951693D-06 0.000000000000D+00 0.000000000000D+00 0.378654590184D-07 0.000000000000D+00  7 2 -2 23 -11 11 23 21 2 0.90147487D-01 0.33307677D-01 0.60666675D+05 0.60666675D+05 0.60666675D+05 0.11399810D+01  1  2 15  1  7  1        2 0.249655533871D-04 0.100000000000D+01
-.172115722960D-06 0.000000000000D+00 0.000000000000D+00 0.378654590184D-07 0.000000000000D+00  7 2 -2 23 -11 11 23 21 2 0.90147487D-01 0.33307677D-01 0.60666675D+05 0.60666675D+05 0.60666675D+05 0.11399810D+01  1  2  4  1  7  1        2 -.116473216172D-04 0.100000000000D+01
  </mgrwgt>
  </event>
  <event>
  8     66 0.55102590E-06 0.26397526E+03 0.75467711E-02 0.95491799E-01
        2 -1    0    0  501    0 0.00000000E+00 0.00000000E+00 0.51216346E+03 0.51216356E+03 0.32000000E+00 0.0000E+00 0.9000E+01
       -2 -1    0    0    0  501 0.00000000E+00 0.00000000E+00 -.50273756E+03 0.50273766E+03 0.32000000E+00 0.0000E+00 0.9000E+01
       25  2    1    2    0    0 -.39930179E+03 0.30141786E+02 -.21511158E+03 0.54674589E+03 0.30382172E+03 0.0000E+00 0.0000E+00
       23  2    1    2    0    0 0.39930179E+03 -.30141786E+02 0.22453748E+03 0.46815532E+03 0.91661802E+02 0.0000E+00 0.0000E+00
       23  1    3    3    0    0 -.27326052E+03 -.13083111E+02 -.24989150E+03 0.38158026E+03 0.91188000E+02 0.0000E+00 0.9000E+01
      -13  1    4    4    0    0 0.13498106E+02 -.12417185E+02 -.48337413E+01 0.18967382E+02 0.10565837E+00 0.0000E+00 0.9000E+01
       13  1    4    4    0    0 0.38580368E+03 -.17724600E+02 0.22937122E+03 0.44918794E+03 0.10565837E+00 0.0000E+00 0.9000E+01
       23  1    3    3    0    0 -.12604127E+03 0.43224897E+02 0.34779925E+02 0.16516564E+03 0.91188000E+02 0.0000E+00 0.9000E+01
#aMCatNLO 1  0  0  1  2 0.71805911D+02 0.00000000D+00  -5  7  0 0.00000000D+00 0.00000000D+00 0.00000000D+00 0.00000000D+00 0.00000000D+00
  <mgrwgt>
 0.3354303695D-03    9    2    0
 0.507428722982765D+03 0.000000000000000D+00 0.000000000000000D+00 0.507428722982765D+03
 0.507428722982765D+03 0.000000000000000D+00 0.000000000000000D+00 -.507428722982765D+03
 0.383917682878080D+03 -.273260516562420D+03 -.130831112917577D+02 -.253446361523383D+03
 0.190125263435188D+02 0.134976110309483D+02 -.124171783237390D+02 -.501042282613811D+01
 0.447077507736760D+03 0.385804175111596D+03 -.177246074819467D+02 0.225209401846781D+03
 0.164849729007171D+03 -.126041269580125D+03 0.432248970974434D+02 0.332473825027399D+02
 0.000000000000000D+00 -.000000000000000D+00 -.000000000000000D+00 0.000000000000000D+00
 0.561068752173943D+03 0.000000000000000D+00 0.000000000000000D+00 0.561068752173943D+03
 0.533310352517970D+03 0.000000000000000D+00 0.000000000000000D+00 -.533310352517970D+03
 0.372020361191872D+03 -.256494469153336D+03 0.770888588825576D+01 -.253446361523383D+03
 0.189756161160686D+02 0.143401549437158D+02 -.113723184214100D+02 -.501042282613811D+01
 0.464353943077258D+03 0.406018930850313D+03 0.734421965773759D+01 0.225209401846781D+03
 0.162044656192259D+03 -.118791036835509D+03 0.522160931201161D+02 0.332473825027399D+02
 0.769845281144554D+02 -.450735798051846D+02 -.558968802446994D+02 0.277583996559738D+02
0.182569815943D-04 0.000000000000D+00 0.000000000000D+00 0.471915062735D-07 0.000000000000D+00  7 2 -2 23 -13 13 23 21 0 0.78794394D-01 0.77344255D-01 0.18249325D+06 0.18249325D+06 0.18249325D+06 0.11008940D+01  1  2  2  1  7  1        2 0.205388918755D-03 0.100000000000D+01
-.977741612971D-06 0.000000000000D+00 -.701116164958D-07 0.471915062735D-07 0.000000000000D+00  7 2 -2 23 -13 13 23 21 2 0.78794394D-01 0.77344255D-01 0.18249325D+06 0.18249325D+06 0.18249325D+06 0.11008940D+01  1  2  3  1  7  1        2 -.133310118530D-04 0.100000000000D+01
0.115220268094D-05 0.000000000000D+00 0.000000000000D+00 0.471915062735D-07 0.000000000000D+00  7 2 -2 23 -13 13 23 21 2 0.78794394D-01 0.77344255D-01 0.18249325D+06 0.18249325D+06 0.18249325D+06 0.11008940D+01  1  2 15  1  7  1        2 0.157097001835D-04 0.100000000000D+01
0.314470308014D-04 0.000000000000D+00 0.000000000000D+00 0.471915062735D-07 0.000000000000D+00  7 2 -2 23 -13 13 23 21 2 0.88970413D-01 0.77344255D-01 0.21488858D+06 0.21488858D+06 0.21488858D+06 0.10954384D+01  1  2 12  1  7  1        2 0.367867536093D-03 0.100000000000D+01
-.299301388307D-04 0.000000000000D+00 0.000000000000D+00 0.471915062735D-07 0.000000000000D+00  7 2 -2 23 -13 13 23 21 2 0.78794394D-01 0.77344255D-01 0.18249325D+06 0.18249325D+06 0.18249325D+06 0.11008940D+01  1  2  4  1  7  1        2 -.408082289042D-03 0.100000000000D+01
-.794133760886D-04 0.000000000000D+00 -.180335037994D-04 0.471915062735D-07 0.000000000000D+00  7 2 -2 23 -13 13 23 21 2 0.90579325D-01 0.77344255D-01 0.18249325D+06 0.18249325D+06 0.18249325D+06 0.11008940D+01  1  2  5  1  7  1        2 -.923130729603D-03 0.100000000000D+01
0.813096117958D-04 0.000000000000D+00 0.178597338439D-04 0.471915062735D-07 0.000000000000D+00  7 2 -2 23 -13 13 23 21 2 0.78794394D-01 0.77344255D-01 0.18249325D+06 0.18249325D+06 0.18249325D+06 0.11008940D+01  1  2  6  1  7  1        2 0.110861538901D-02 0.100000000000D+01
0.602769129456D-06 0.000000000000D+00 0.000000000000D+00 0.471915062735D-07 0.000000000000D+00  7 21 -2 23 -13 13 23 -2 2 0.88970413D-01 0.77344255D-01 0.21488858D+06 0.21488858D+06 0.21488858D+06 0.10954384D+01  1  2 12  3  7  1        2 0.110932102739D-04 0.100000000000D+01
-.159668883989D-05 0.000000000000D+00 -.387479299911D-06 0.471915062735D-07 0.000000000000D+00  7 21 -2 23 -13 13 23 -2 2 0.90579325D-01 0.77344255D-01 0.18249325D+06 0.18249325D+06 0.18249325D+06 0.11008940D+01  1  2  5  3  7  1        2 -.287003542730D-04 0.100000000000D+01
  </mgrwgt>
  </event>
  <event>
  8     66 0.55102590E-06 0.10934047E+03 0.75467711E-02 0.10433181E+00
        2 -1    0    0  501    0 0.00000000E+00 0.00000000E+00 0.12464281E+04 0.12464282E+04 0.32000000E+00 0.0000E+00 0.9000E+01
       -2 -1    0    0    0  501 0.00000000E+00 0.00000000E+00 -.45251863E+02 0.45252995E+02 0.32000000E+00 0.0000E+00 0.9000E+01
       25  2    1    2    0    0 0.27540549E+02 -.98828007E+02 0.65095628E+03 0.72429672E+03 0.30055982E+03 0.0000E+00 0.0000E+00
       23  2    1    2    0    0 -.27540549E+02 0.98828007E+02 0.55021999E+03 0.56738444E+03 0.93046304E+02 0.0000E+00 0.0000E+00
       23  1    3    3    0    0 0.39038266E+02 -.40767259E+01 0.54791680E+03 0.55683810E+03 0.91188000E+02 0.0000E+00 0.9000E+01
      -13  1    4    4    0    0 0.20864885E+02 0.55926540E+02 0.14145776E+03 0.15353642E+03 0.10565837E+00 0.0000E+00 0.9000E+01
       13  1    4    4    0    0 -.48405434E+02 0.42901468E+02 0.40876223E+03 0.41384803E+03 0.10565837E+00 0.0000E+00 0.9000E+01
       23  1    3    3    0    0 -.11497717E+02 -.94751281E+02 0.10303948E+03 0.16745862E+03 0.91188000E+02 0.0000E+00 0.9000E+01
#aMCatNLO 1  0  0  1  2 0.99427263D+02 0.00000000D+00  -5  7  0 0.00000000D+00 0.00000000D+00 0.00000000D+00 0.00000000D+00 0.00000000D+00
  <mgrwgt>
 0.1497392086D-03    7    2    0
 0.237495162941521D+03 0.000000000000000D+00 0.000000000000000D+00 0.237495162941521D+03
 0.237495162941521D+03 0.000000000000000D+00 0.000000000000000D+00 -.237495162941521D+03
 0.128660798222386D+03 0.390382659412171D+02 -.407673507431880D+01 0.818397438819193D+02
 0.597998918626140D+02 0.208649674979107D+02 0.559265598506611D+02 -.359167110992588D+01
 0.917160595323241D+02 -.484055206459550D+02 0.429014633105902D+02 0.650246537318033D+02
 0.194813576265718D+03 -.114977127931727D+02 -.947512880869325D+02 -.143272726503797D+03
 0.000000000000000D+00 -.000000000000000D+00 -.000000000000000D+00 0.000000000000000D+00
 0.558494197569362D+03 0.000000000000000D+00 0.000000000000000D+00 0.558494197569362D+03
 0.250467232455207D+03 0.000000000000000D+00 0.000000000000000D+00 -.250467232455207D+03
 0.132135223960176D+03 0.440751482836903D+02 0.224522536089005D+02 0.818397438819193D+02
 0.734120049676592D+02 0.234377546337592D+02 0.694772914680577D+02 -.359167110992588D+01
 0.100636579738091D+03 -.446905191510662D+02 0.624681765897524D+02 0.650246537318033D+02
 0.179101252260027D+03 -.427611109223938D+01 -.567154999202575D+02 -.143272726503797D+03
 0.323676369098616D+03 -.185462726741439D+02 -.976822217464531D+02 0.308026965114155D+03
0.726400311674D-06 0.000000000000D+00 0.000000000000D+00 0.326329374133D-07 0.000000000000D+00  7 2 -2 23 -13 13 23 21 0 0.19175826D+00 0.69619153D-02 0.31622503D+05 0.31622503D+05 0.31622503D+05 0.11652195D+01  1  2  2  1  7  1        2 0.173577347517D-03 0.100000000000D+01
-.362479807349D-07 0.000000000000D+00 -.278956846242D-08 0.326329374133D-07 0.000000000000D+00  7 2 -2 23 -13 13 23 21 2 0.19175826D+00 0.69619153D-02 0.31622503D+05 0.31622503D+05 0.31622503D+05 0.11652195D+01  1  2  3  1  7  1        2 -.117602434155D-04 0.100000000000D+01
0.454300015826D-07 0.000000000000D+00 0.000000000000D+00 0.326329374133D-07 0.000000000000D+00  7 2 -2 23 -13 13 23 21 2 0.19175826D+00 0.69619153D-02 0.31622503D+05 0.31622503D+05 0.31622503D+05 0.11652195D+01  1  2 15  1  7  1        2 0.147392452255D-04 0.100000000000D+01
0.895948035424D-06 0.000000000000D+00 0.000000000000D+00 0.326329374133D-07 0.000000000000D+00  7 2 -2 23 -13 13 23 21 2 0.44868058D+00 0.69619153D-02 0.53077565D+05 0.53077565D+05 0.53077565D+05 0.11450206D+01  1  2 12  1  7  1        2 0.340572747247D-04 0.100000000000D+01
-.161055400805D-05 0.000000000000D+00 -.195874687521D-06 0.326329374133D-07 0.000000000000D+00  7 2 -2 23 -13 13 23 21 2 0.45552398D+00 0.69619153D-02 0.31622503D+05 0.31622503D+05 0.31622503D+05 0.11652195D+01  1  2  5  1  7  1        2 -.607074777561D-04 0.100000000000D+01
0.830530571492D-07 0.000000000000D+00 0.000000000000D+00 0.326329374133D-07 0.000000000000D+00  7 21 -2 23 -13 13 23 -2 2 0.44868058D+00 0.69619153D-02 0.53077565D+05 0.53077565D+05 0.53077565D+05 0.11450206D+01  1  2 12  3  7  1        2 0.259235260808D-06 0.100000000000D+01
-.139907330223D-06 0.000000000000D+00 -.185162031493D-07 0.326329374133D-07 0.000000000000D+00  7 21 -2 23 -13 13 23 -2 2 0.45552398D+00 0.69619153D-02 0.31622503D+05 0.31622503D+05 0.31622503D+05 0.11652195D+01  1  2  5  3  7  1        2 -.426172995177D-06 0.100000000000D+01
  </mgrwgt>
  </event>
  <event>
  8     66 0.55102590E-06 0.22495471E+03 0.75467711E-02 0.10192678E+00
        2 -1    0    0  501    0 0.00000000E+00 0.00000000E+00 0.11679132E+04 0.11679133E+04 0.32000000E+00 0.0000E+00 0.9000E+01
       21 -1    0    0  502  501 0.00000000E+00 0.00000000E+00 -.10249572E+03 0.10249846E+03 0.75000000E+00 0.0000E+00 0.9000E+01
       23  2    1    2    0    0 0.82005422E+02 0.11106876E+03 0.31728246E+03 0.35770353E+03 0.90678014E+02 0.0000E+00 0.0000E+00
       23  1    1    2    0    0 -.15276189E+03 -.65908959E+02 0.54688818E+03 0.57886278E+03 0.91188000E+02 0.0000E+00 0.9000E+01
      -11  1    3    3    0    0 0.58302789E+02 0.51630773E+02 0.26137715E+03 0.27273241E+03 0.51099893E-03 0.0000E+00 0.9000E+01
       11  1    3    3    0    0 0.23702633E+02 0.59437984E+02 0.55905307E+02 0.84971126E+02 0.51099893E-03 0.0000E+00 0.9000E+01
       23  1    1    2    0    0 -.54601073E+01 -.91862295E+02 0.19106999E+02 0.13095351E+03 0.91188000E+02 0.0000E+00 0.9000E+01
        2  1    1    2  502    0 0.76216578E+02 0.46702497E+02 0.18213985E+03 0.20289189E+03 0.32000000E+00 0.0000E+00 0.9000E+01
#aMCatNLO 2  0  0  2  2 0.89387303D+02 0.00000000D+00  -5  7  0 0.00000000D+00 0.00000000D+00 0.00000000D+00 0.00000000D+00 0.00000000D+00
  <mgrwgt>
 0.1555982901D-03    1    2    0
 0.296407283767377D+03 0.000000000000000D+00 0.000000000000000D+00 0.296407283767377D+03
 0.296407283767377D+03 0.000000000000000D+00 0.000000000000000D+00 -.296407283767377D+03
 0.202714785949179D+03 -.125421095709421D+03 -.491556375420371D+02 0.120959931991158D+03
 0.113245547630762D+03 0.719688471572048D+02 0.600048066495499D+02 0.635960869551279D+02
 0.774456398993655D+02 0.330597351271362D+02 0.651716557811756D+02 -.256424713217301D+02
 0.199408594055449D+03 0.203925134250800D+02 -.760208248886884D+02 -.158913547624556D+03
 0.000000000000000D+00 0.000000000000000D+00 0.000000000000000D+00 0.000000000000000D+00
 0.358921269420537D+03 0.000000000000000D+00 0.000000000000000D+00 0.358921269420537D+03
 0.333520729400608D+03 0.000000000000000D+00 0.000000000000000D+00 -.333520729400608D+03
 0.225003876825095D+03 -.152761884330554D+03 -.659089886949845D+02 0.120959931991158D+03
 0.100545609854705D+03 0.583028106836872D+02 0.516308013828231D+02 0.635960869551279D+02
 0.689364069932845D+02 0.237026484476316D+02 0.594380040901947D+02 -.256424713217301D+02
 0.205029912122217D+03 -.546015252110018D+01 -.918623134733092D+02 -.158913547624556D+03
 0.929261930258423D+02 0.762165777203349D+02 0.467024966952759D+02 0.254005400199284D+02
0.119858535192D-06 0.000000000000D+00 0.000000000000D+00 0.242411885206D-09 0.459232557128D-14  7 2 21 23 -11 11 23 2 2 0.17967903D+00 0.15768774D-01 0.75771280D+05 0.75771280D+05 0.75771280D+05 0.11317463D+01  1  2  1  4  7  2       -2 0.155598290098D-03 0.100000000000D+01
  </mgrwgt>
  </event>
  <event>
  8     66 0.55102590E-06 0.78619961E+03 0.75467711E-02 0.89502443E-01
        2 -1    0    0  501    0 0.00000000E+00 0.00000000E+00 0.34457057E+04 0.34457057E+04 0.32000000E+00 0.0000E+00 0.9000E+01
       -2 -1    0    0    0  501 0.00000000E+00 0.00000000E+00 -.23200690E+03 0.23200712E+03 0.32000000E+00 0.0000E+00 0.9000E+01
       25  2    1    2    0    0 0.67437905E+03 -.38122263E+03 0.84856464E+03 0.11871616E+04 0.29861823E+03 0.0000E+00 0.0000E+00
       23  2    1    2    0    0 -.67437905E+03 0.38122263E+03 0.23651342E+04 0.24905513E+04 0.94171053E+02 0.0000E+00 0.0000E+00
       23  1    3    3    0    0 0.37381134E+03 -.23020524E+03 0.30795298E+03 0.54394822E+03 0.91188000E+02 0.0000E+00 0.9000E+01
      -13  1    4    4    0    0 -.21500413E+03 0.10251461E+03 0.60381110E+03 0.64909466E+03 0.10565837E+00 0.0000E+00 0.9000E+01
       13  1    4    4    0    0 -.45937492E+03 0.27870802E+03 0.17613231E+04 0.18414566E+04 0.10565837E+00 0.0000E+00 0.9000E+01
       23  1    3    3    0    0 0.30056771E+03 -.15101738E+03 0.54061166E+03 0.64321335E+03 0.91188000E+02 0.0000E+00 0.9000E+01
#aMCatNLO 1  0  0  2  2 0.40216500D+02 0.00000000D+00  -5  7  0 0.00000000D+00 0.00000000D+00 0.00000000D+00 0.00000000D+00 0.00000000D+00
  <mgrwgt>
 0.1880865602D-03    4    2    0
 0.894107330634433D+03 0.000000000000000D+00 0.000000000000000D+00 0.894107330634433D+03
 0.894107330634433D+03 0.000000000000000D+00 0.000000000000000D+00 -.894107330634433D+03
 0.565266150071336D+03 0.373811342829661D+03 -.230205244223886D+03 -.344210973933396D+03
 0.249811124289152D+03 -.215003826547160D+03 0.102514387964495D+03 0.752977599198953D+02
 0.621842341585860D+03 -.459375224696765D+03 0.278708237862627D+03 0.313023990887746D+03
 0.351295045322516D+03 0.300567708414264D+03 -.151017381603236D+03 -.441107768742444D+02
 0.000000000000000D+00 -.000000000000000D+00 -.000000000000000D+00 0.000000000000000D+00
 0.969087164085994D+03 0.000000000000000D+00 0.000000000000000D+00 0.969087164085994D+03
 0.899742399310123D+03 0.000000000000000D+00 0.000000000000000D+00 -.899742399310123D+03
 0.563689152766459D+03 0.378482823883072D+03 -.218402763379693D+03 -.344210973933396D+03
 0.250238458523666D+03 -.212934681607582D+03 0.107742075550938D+03 0.752977599198953D+02
 0.624025580089037D+03 -.454219973309462D+03 0.291732962794606D+03 0.313023990887746D+03
 0.350713642221591D+03 0.303472535801982D+03 -.143678345180475D+03 -.441107768742444D+02
 0.801627297953632D+02 -.148007047680106D+02 -.373939297853764D+02 0.693447647758715D+02
0.274738872120D-03 0.000000000000D+00 0.000000000000D+00 0.133837990294D-06 0.000000000000D+00  7 2 -2 23 -13 13 23 21 0 0.53010859D+00 0.35693387D-01 0.61810983D+06 0.61810983D+06 0.61810983D+06 0.10620618D+01  1  2  2  2  7  2       -2 0.215337018704D-03 0.100000000000D+01
-.149562885605D-04 0.000000000000D+00 -.105506960935D-05 0.133837990294D-06 0.000000000000D+00  7 2 -2 23 -13 13 23 21 2 0.53010859D+00 0.35693387D-01 0.61810983D+06 0.61810983D+06 0.61810983D+06 0.10620618D+01  1  2  3  2  7  2       -2 -.132227566627D-04 0.100000000000D+01
0.172682901888D-04 0.000000000000D+00 0.000000000000D+00 0.133837990294D-06 0.000000000000D+00  7 2 -2 23 -13 13 23 21 2 0.53010859D+00 0.35693387D-01 0.61810983D+06 0.61810983D+06 0.61810983D+06 0.10620618D+01  1  2 15  2  7  2       -2 0.152667821447D-04 0.100000000000D+01
-.331350539407D-04 0.000000000000D+00 0.000000000000D+00 0.133837990294D-06 0.000000000000D+00  7 2 -2 23 -13 13 23 21 2 0.53010859D+00 0.35693387D-01 0.61810983D+06 0.61810983D+06 0.61810983D+06 0.10620618D+01  1  2  4  2  7  2       -2 -.292944839550D-04 0.100000000000D+01
  </mgrwgt>
  </event>
  <event>
  9     66 -.55102590E-06 0.21270951E+03 0.75467711E-02 0.10521190E+00
        2 -1    0    0  501    0 0.00000000E+00 0.00000000E+00 0.86564425E+03 0.86564431E+03 0.32000000E+00 0.0000E+00 0.9000E+01
       -2 -1    0    0    0  502 0.00000000E+00 0.00000000E+00 -.11827946E+03 0.11827990E+03 0.32000000E+00 0.0000E+00 0.9000E+01
       25  2    1    2    0    0 0.26781332E+02 0.14725173E+03 0.72251543E+03 0.79636112E+03 0.29960336E+03 0.0000E+00 0.0000E+00
       23  2    1    2    0    0 -.20487733E+02 -.14973794E+03 0.18565076E+02 0.17829781E+03 0.92759090E+02 0.0000E+00 0.0000E+00
       23  1    3    3    0    0 0.68806403E+02 0.85025196E+02 0.63117711E+03 0.64704204E+03 0.91188000E+02 0.0000E+00 0.9000E+01
      -13  1    4    4    0    0 0.33854513E+01 0.64666573E+01 -.15064904E+02 0.16740414E+02 0.10565837E+00 0.0000E+00 0.9000E+01
       13  1    4    4    0    0 -.23873184E+02 -.15620460E+03 0.33629980E+02 0.16155740E+03 0.10565837E+00 0.0000E+00 0.9000E+01
       23  1    3    3    0    0 -.42025071E+02 0.62226534E+02 0.91338323E+02 0.14931908E+03 0.91188000E+02 0.0000E+00 0.9000E+01
       21  1    1    2  501  502 -.62935993E+01 0.24862122E+01 0.62842846E+01 0.92652780E+01 0.75000000E+00 0.0000E+00 0.9000E+01
#aMCatNLO 2  0  0  2  1 0.67668784D+01 0.00000000D+00  -5  7  0 0.00000000D+00 0.00000000D+00 0.00000000D+00 0.00000000D+00 0.00000000D+00
  <mgrwgt>
 -.5893762478D-04    3    2    0
 0.316509843273835D+03 0.000000000000000D+00 0.000000000000000D+00 0.316509843273835D+03
 0.316509843273835D+03 0.000000000000000D+00 0.000000000000000D+00 -.316509843273835D+03
 0.256975578410532D+03 0.662499096383689D+02 0.860351089619964D+02 0.214313102852422D+03
 0.434032869931076D+02 0.295394646096066D+01 0.663734200375954D+01 -.427909477954972D+02
 0.209002762956486D+03 -.259529146343932D+02 -.155383250839648D+03 -.137348631241552D+03
 0.123638058187545D+03 -.432509414649363D+02 0.627107998738926D+02 -.341735238153735D+02
 0.000000000000000D+00 -.000000000000000D+00 0.000000000000000D+00 -.000000000000000D+00
 0.319376200287933D+03 0.000000000000000D+00 0.000000000000000D+00 0.319376200287933D+03
 0.320547085091280D+03 0.000000000000000D+00 0.000000000000000D+00 -.320547085091280D+03
 0.257311022925080D+03 0.688064030658058D+02 0.850251963694522D+02 0.214313102852422D+03
 0.434090670630714D+02 0.338548640773078D+01 0.646686723478432D+01 -.427909477954972D+02
 0.209366950010460D+03 -.238732193464720D+02 -.156204809947677D+03 -.137348631241552D+03
 0.122968813935573D+03 -.420250708198403D+02 0.622265341261203D+02 -.341735238153735D+02
 0.686743144502771D+01 -.629359930722437D+01 0.248621221732039D+01 -.117088480334625D+01
-.890695879120D-06 0.000000000000D+00 0.000000000000D+00 0.149077233574D-06 0.000000000000D+00  7 2 -2 23 -13 13 23 21 2 0.13197242D+00 0.18276184D-01 0.46788651D+05 0.46788651D+05 0.46788651D+05 0.11498399D+01  1  2 13  2  7  2       -2 -.107451421002D-03 0.100000000000D+01
-.101689810170D-04 0.000000000000D+00 0.000000000000D+00 0.149077233574D-06 0.000000000000D+00  7 2 -2 23 -13 13 23 21 2 0.13197242D+00 0.17966545D-01 0.45245336D+05 0.45245336D+05 0.45245336D+05 0.11511322D+01  1  2  8  2  7  2       -2 -.126408572500D-02 0.100000000000D+01
0.109285655424D-04 0.000000000000D+00 0.000000000000D+00 0.149077233574D-06 0.229580667254D-07  7 2 -2 23 -13 13 23 21 2 0.13316758D+00 0.18195717D-01 0.46788651D+05 0.46788651D+05 0.46788651D+05 0.11498399D+01  1  2  1  2  7  2       -2 0.131259952123D-02 0.100000000000D+01
  </mgrwgt>
  </event>
  <event>
  7     66 0.55102590E-06 0.23674128E+03 0.75467711E-02 0.97738437E-01
        2 -1    0    0  501    0 0.00000000E+00 0.00000000E+00 0.19430572E+04 0.19430572E+04 0.32000000E+00 0.0000E+00 0.9000E+01
       -2 -1    0    0    0  501 0.00000000E+00 0.00000000E+00 -.84938264E+02 0.84938866E+02 0.32000000E+00 0.0000E+00 0.9000E+01
       25  2    1    2    0    0 -.19627611E+03 -.15020114E+03 0.63361269E+03 0.74335572E+03 0.30004666E+03 0.0000E+00 0.0000E+00
       23  1    3    3    0    0 -.28171070E+01 0.37233944E+02 0.22385273E+03 0.24458045E+03 0.91188000E+02 0.0000E+00 0.9000E+01
      -13  1    1    2    0    0 0.58768476E+02 0.19086996E+03 0.98860490E+03 0.10085756E+04 0.10565837E+00 0.0000E+00 0.9000E+01
       13  1    1    2    0    0 0.13750763E+03 -.40668823E+02 0.23590135E+03 0.27606477E+03 0.10565837E+00 0.0000E+00 0.9000E+01
       23  1    3    3    0    0 -.19345900E+03 -.18743508E+03 0.40975996E+03 0.49877527E+03 0.91188000E+02 0.0000E+00 0.9000E+01
#aMCatNLO 1  0  0  1  2 0.40054651D+02 0.00000000D+00  -5  7  0 0.00000000D+00 0.00000000D+00 0.00000000D+00 0.00000000D+00 0.00000000D+00
  <mgrwgt>
 0.2087919855D-02    9    2    0
 0.406251820935620D+03 0.000000000000000D+00 0.000000000000000D+00 0.406251820935620D+03
 0.406251820935620D+03 0.000000000000000D+00 0.000000000000000D+00 -.406251820935620D+03
 0.985379894351163D+02 -.282062461251519D+01 0.372312519055627D+02 -.601644625097506D+00
 0.256539841914131D+03 0.587856949783991D+02 0.190865134711252D+03 0.161019976732358D+03
 0.149558398385367D+03 0.137504918455106D+03 -.406528956887812D+02 -.425141623505397D+02
 0.307867412136626D+03 -.193469988820989D+03 -.187443490928034D+03 -.117904169756721D+03
 0.000000000000000D+00 0.000000000000000D+00 0.000000000000000D+00 0.000000000000000D+00
 0.451044040803578D+03 0.000000000000000D+00 0.000000000000000D+00 0.451044040803578D+03
 0.415799439799942D+03 0.000000000000000D+00 0.000000000000000D+00 -.415799439799942D+03
 0.987394948805573D+02 -.767799209892096D+01 0.370799536992914D+02 -.601644625097506D+00
 0.253661844036173D+03 0.462235057886847D+02 0.190473845253215D+03 0.161019976732358D+03
 0.143027010349205D+03 0.130300878641267D+03 -.408772884910121D+02 -.425141623505397D+02
 0.318061996786523D+03 -.208881626749337D+03 -.187923535557308D+03 -.117904169756721D+03
 0.533531345510628D+02 0.400352344183068D+02 0.124702509581365D+01 0.352446010036353D+02
0.284677004916D-04 0.000000000000D+00 0.000000000000D+00 0.104712378358D-09 0.000000000000D+00  7 2 -2 23 -13 13 23 21 0 0.29893192D+00 0.13067474D-01 0.13178111D+06 0.13178111D+06 0.13178111D+06 0.11120174D+01  1  2  2  1  7  1        2 0.108226904153D-02 0.100000000000D+01
-.155719137211D-05 0.000000000000D+00 -.109323465605D-06 0.104712378358D-09 0.000000000000D+00  7 2 -2 23 -13 13 23 21 2 0.29893192D+00 0.13067474D-01 0.13178111D+06 0.13178111D+06 0.13178111D+06 0.11120174D+01  1  2  3  1  7  1        2 -.732062250815D-04 0.100000000000D+01
0.182064756811D-05 0.000000000000D+00 0.000000000000D+00 0.104712378358D-09 0.000000000000D+00  7 2 -2 23 -13 13 23 21 2 0.29893192D+00 0.13067474D-01 0.13178111D+06 0.13178111D+06 0.13178111D+06 0.11120174D+01  1  2 15  1  7  1        2 0.855917506687D-04 0.100000000000D+01
0.775593797778D-04 0.000000000000D+00 0.000000000000D+00 0.104712378358D-09 0.000000000000D+00  7 2 -2 23 -13 13 23 21 2 0.33514690D+00 0.13067474D-01 0.14697962D+06 0.14697962D+06 0.14697962D+06 0.11082497D+01  1  2 12  1  7  1        2 0.268803156848D-02 0.100000000000D+01
-.784682849626D-04 0.000000000000D+00 0.000000000000D+00 0.104712378358D-09 0.000000000000D+00  7 2 -2 23 -13 13 23 21 2 0.29893192D+00 0.13067474D-01 0.13178111D+06 0.13178111D+06 0.13178111D+06 0.11120174D+01  1  2  4  1  7  1        2 -.368892804931D-02 0.100000000000D+01
-.160266658002D-03 0.000000000000D+00 -.259111231543D-04 0.104712378358D-09 0.000000000000D+00  7 2 -2 23 -13 13 23 21 2 0.33478814D+00 0.13067474D-01 0.13178111D+06 0.13178111D+06 0.13178111D+06 0.11120174D+01  1  2  5  1  7  1        2 -.562849392171D-02 0.100000000000D+01
0.162324639270D-03 0.000000000000D+00 0.257457510803D-04 0.104712378358D-09 0.000000000000D+00  7 2 -2 23 -13 13 23 21 2 0.29893192D+00 0.13067474D-01 0.13178111D+06 0.13178111D+06 0.13178111D+06 0.11120174D+01  1  2  6  1  7  1        2 0.763115843785D-02 0.100000000000D+01
0.141292803821D-05 0.000000000000D+00 0.000000000000D+00 0.104712378358D-09 0.000000000000D+00  7 21 -2 23 -13 13 23 -2 2 0.33514690D+00 0.13067474D-01 0.14697962D+06 0.14697962D+06 0.14697962D+06 0.11082497D+01  1  2 12  3  7  1        2 0.835366866284D-05 0.100000000000D+01
-.278868174847D-05 0.000000000000D+00 -.468281886662D-06 0.104712378358D-09 0.000000000000D+00  7 21 -2 23 -13 13 23 -2 2 0.33478814D+00 0.13067474D-01 0.13178111D+06 0.13178111D+06 0.13178111D+06 0.11120174D+01  1  2  5  3  7  1        2 -.168564159804D-04 0.100000000000D+01
  </mgrwgt>
  </event>
  <event>
  8     66 0.55102590E-06 0.30420692E+03 0.75467711E-02 0.84478662E-01
        2 -1    0    0  501    0 0.00000000E+00 0.00000000E+00 0.11420303E+04 0.11420304E+04 0.32000000E+00 0.0000E+00 0.9000E+01
       -2 -1    0    0    0  501 0.00000000E+00 0.00000000E+00 -.29731439E+03 0.29731456E+03 0.32000000E+00 0.0000E+00 0.9000E+01
       25  2    1    2    0    0 0.21798017E+03 -.68213786E+02 -.15670119E+03 0.40877299E+03 0.30061873E+03 0.0000E+00 0.0000E+00
       23  2    1    2    0    0 -.21798017E+03 0.68213786E+02 0.10014171E+04 0.10305720E+04 0.84105933E+02 0.0000E+00 0.0000E+00
       23  1    3    3    0    0 0.23758928E+03 0.92239763E+01 -.12383625E+03 0.28316853E+03 0.91188000E+02 0.0000E+00 0.9000E+01
      -13  1    4    4    0    0 -.18910276E+03 0.42401117E+02 0.92281367E+03 0.94294368E+03 0.10565837E+00 0.0000E+00 0.9000E+01
       13  1    4    4    0    0 -.28877413E+02 0.25812669E+02 0.78603465E+02 0.87628276E+02 0.10565837E+00 0.0000E+00 0.9000E+01
       23  1    3    3    0    0 -.19609110E+02 -.77437763E+02 -.32864932E+02 0.12560446E+03 0.91188000E+02 0.0000E+00 0.9000E+01
#aMCatNLO 1  0  0  1  2 0.13251540D+04 0.00000000D+00  -5  7  0 0.00000000D+00 0.00000000D+00 0.00000000D+00 0.00000000D+00 0.00000000D+00
  <mgrwgt>
 0.5116771206D-03    3    2    0
 0.582702505689054D+03 0.000000000000000D+00 0.000000000000000D+00 0.582702505689054D+03
 0.582702505689054D+03 0.000000000000000D+00 0.000000000000000D+00 -.582702505689054D+03
 0.439489833326181D+03 0.237589282816431D+03 0.922397630134029D+01 -.358193122777421D+03
 0.495713173705709D+03 -.189103012817229D+03 0.424011433206330D+02 0.456260609930265D+03
 0.512516229003002D+02 -.288771603484222D+02 0.258126429664928D+02 0.335640570135743D+02
 0.178950381445918D+03 -.196091096507798D+02 -.774377625884661D+02 -.131631544166418D+03
 0.000000000000000D+00 -.000000000000000D+00 0.000000000000000D+00 -.000000000000000D+00
 0.127872336533363D+04 0.000000000000000D+00 0.000000000000000D+00 0.127872336533363D+04
 0.198993187323741D+04 0.000000000000000D+00 0.000000000000000D+00 -.198993187323741D+04
 0.826029637389783D+03 0.595038096221094D+03 -.437763704917199D+03 -.358193122777421D+03
 0.578685380229034D+03 0.114363268906899D+03 -.337081693127665D+03 0.456260609930265D+03
 0.341775677002407D+02 -.474749382262139D+01 -.436136596701565D+01 0.335640570135743D+02
 0.325817597531519D+03 0.122963738341893D+03 -.255724287369350D+03 -.131631544166418D+03
 0.150394505572047D+04 -.827617609647265D+03 0.103493105138123D+04 -.711208507903784D+03
0.401260961910D-04 0.000000000000D+00 0.000000000000D+00 0.407442915185D-07 0.000000000000D+00  7 2 -2 23 -13 13 23 21 0 0.17569699D+00 0.45740692D-01 0.92541850D+05 0.92541850D+05 0.92541850D+05 0.11244949D+01  1  2  2  1  7  1        2 0.489686754991D-03 0.100000000000D+01
-.108418739109D-05 0.000000000000D+00 -.154094774817D-06 0.407442915185D-07 0.000000000000D+00  7 2 -2 23 -13 13 23 21 2 0.17569699D+00 0.45740692D-01 0.92541850D+05 0.92541850D+05 0.92541850D+05 0.11244949D+01  1  2  3  1  7  1        2 -.167305715236D-04 0.100000000000D+01
0.250922401246D-05 0.000000000000D+00 0.000000000000D+00 0.407442915185D-07 0.000000000000D+00  7 2 -2 23 -13 13 23 21 2 0.17569699D+00 0.45740692D-01 0.92541850D+05 0.92541850D+05 0.92541850D+05 0.11244949D+01  1  2 15  1  7  1        2 0.387209371314D-04 0.100000000000D+01
  </mgrwgt>
  </event>
  <event>
  8     66 0.55102590E-06 0.31398644E+03 0.75467711E-02 0.96092491E-01
        2 -1    0    0  501    0 0.00000000E+00 0.00000000E+00 0.20850249E+03 0.20850274E+03 0.32000000E+00 0.0000E+00 0.9000E+01
       -2 -1    0    0    0  501 0.00000000E+00 0.00000000E+00 -.88079646E+03 0.88079652E+03 0.32000000E+00 0.0000E+00 0.9000E+01
       25  2    1    2    0    0 0.26751040E+03 -.23949122E+03 -.48506930E+03 0.67440439E+03 0.30101695E+03 0.0000E+00 0.0000E+00
       23  2    1    2    0    0 -.26751040E+03 0.23949122E+03 -.18722468E+03 0.41489486E+03 0.90370391E+02 0.0000E+00 0.0000E+00
       23  1    3    3    0    0 0.20572836E+03 -.67157474E+02 -.37413013E+03 0.44172717E+03 0.91188000E+02 0.0000E+00 0.9000E+01
      -13  1    4    4    0    0 -.17461073E+03 0.16325600E+03 -.75170921E+02 0.25058353E+03 0.10565837E+00 0.0000E+00 0.9000E+01
       13  1    4    4    0    0 -.92899675E+02 0.76235225E+02 -.11205376E+03 0.16431133E+03 0.10565837E+00 0.0000E+00 0.9000E+01
       23  1    3    3    0    0 0.61782040E+02 -.17233375E+03 -.11093916E+03 0.23267722E+03 0.91188000E+02 0.0000E+00 0.9000E+01
#aMCatNLO 1  0  0  1  2 0.79499855D+02 0.00000000D+00  -5  7  0 0.00000000D+00 0.00000000D+00 0.00000000D+00 0.00000000D+00 0.00000000D+00
  <mgrwgt>
 0.2784190343D-03    9    2    0
 0.428542205081514D+03 0.000000000000000D+00 0.000000000000000D+00 0.428542205081514D+03
 0.428542205081514D+03 0.000000000000000D+00 0.000000000000000D+00 -.428542205081514D+03
 0.267940521213308D+03 0.205728359098674D+03 -.671574746115734D+02 -.129006152684366D+03
 0.259511962694847D+03 -.174610836970907D+03 0.163256117861560D+03 0.101019574216206D+03
 0.120934398017637D+03 -.928995629747659D+02 0.762351063971479D+02 -.135280588260550D+02
 0.208697528237236D+03 0.617820408469988D+02 -.172333749647135D+03 0.415146372942156D+02
 0.000000000000000D+00 0.000000000000000D+00 -.000000000000000D+00 0.000000000000000D+00
 0.653563529230684D+03 0.000000000000000D+00 0.000000000000000D+00 0.653563529230684D+03
 0.437461468139818D+03 0.000000000000000D+00 0.000000000000000D+00 -.437461468139818D+03
 0.249210533645115D+03 0.184224523520223D+03 -.566513569035012D+02 -.129006152684366D+03
 0.281825682658789D+03 -.197120383473325D+03 0.174253595230050D+03 0.101019574216206D+03
 0.132300022724638D+03 -.103429390372946D+03 0.813796586649223D+02 -.135280588260550D+02
 0.197427324936922D+03 0.448948238821793D+02 -.164083170881924D+03 0.415146372942156D+02
 0.230261433405037D+03 0.714304264438682D+02 -.348987261095469D+02 0.216102061090866D+03
0.317995244701D-04 0.000000000000D+00 0.000000000000D+00 0.189813236046D-06 0.000000000000D+00  7 2 -2 23 -13 13 23 21 0 0.32077330D-01 0.13550717D+00 0.15943426D+06 0.15943426D+06 0.15943426D+06 0.11054675D+01  1  2  2  1  7  1        2 0.249852365381D-03 0.100000000000D+01
-.175590489886D-05 0.000000000000D+00 -.122118546972D-06 0.189813236046D-06 0.000000000000D+00  7 2 -2 23 -13 13 23 21 2 0.32077330D-01 0.13550717D+00 0.15943426D+06 0.15943426D+06 0.15943426D+06 0.11054675D+01  1  2  3  1  7  1        2 -.168599301959D-04 0.100000000000D+01
0.200580690515D-05 0.000000000000D+00 0.000000000000D+00 0.189813236046D-06 0.000000000000D+00  7 2 -2 23 -13 13 23 21 2 0.32077330D-01 0.13550717D+00 0.15943426D+06 0.15943426D+06 0.15943426D+06 0.11054675D+01  1  2 15  1  7  1        2 0.192594510267D-04 0.100000000000D+01
0.145719009537D-03 0.000000000000D+00 0.000000000000D+00 0.189813236046D-06 0.000000000000D+00  7 2 -2 23 -13 13 23 21 2 0.49112368D-01 0.13550717D+00 0.19379331D+06 0.19379331D+06 0.19379331D+06 0.10988785D+01  1  2 12  1  7  1        2 0.855870813528D-03 0.100000000000D+01
-.138440959125D-03 0.000000000000D+00 0.000000000000D+00 0.189813236046D-06 0.000000000000D+00  7 2 -2 23 -13 13 23 21 2 0.32077330D-01 0.13550717D+00 0.15943426D+06 0.15943426D+06 0.15943426D+06 0.11054675D+01  1  2  4  1  7  1        2 -.132928890887D-02 0.100000000000D+01
-.156007660055D-03 0.000000000000D+00 -.132392116824D-04 0.189813236046D-06 0.000000000000D+00  7 2 -2 23 -13 13 23 21 2 0.49493929D-01 0.13550717D+00 0.15943426D+06 0.15943426D+06 0.15943426D+06 0.11054675D+01  1  2  5  1  7  1        2 -.924907373783D-03 0.100000000000D+01
0.148698586648D-03 0.000000000000D+00 0.120847384838D-04 0.189813236046D-06 0.000000000000D+00  7 2 -2 23 -13 13 23 21 2 0.32077330D-01 0.13550717D+00 0.15943426D+06 0.15943426D+06 0.15943426D+06 0.11054675D+01  1  2  6  1  7  1        2 0.142778107899D-02 0.100000000000D+01
0.726626096387D-05 0.000000000000D+00 0.000000000000D+00 0.189813236046D-06 0.000000000000D+00  7 21 -2 23 -13 13 23 -2 2 0.49112368D-01 0.13550717D+00 0.19379331D+06 0.19379331D+06 0.19379331D+06 0.10988785D+01  1  2 12  3  7  1        2 0.136826250317D-03 0.100000000000D+01
-.738184859588D-05 0.000000000000D+00 -.669113164760D-06 0.189813236046D-06 0.000000000000D+00  7 21 -2 23 -13 13 23 -2 2 0.49493929D-01 0.13550717D+00 0.15943426D+06 0.15943426D+06 0.15943426D+06 0.11054675D+01  1  2  5  3  7  1        2 -.140114712090D-03 0.100000000000D+01
  </mgrwgt>
  </event>
  <event>
  8     66 0.55102590E-06 0.29516041E+03 0.75467711E-02 0.98428130E-01
        2 -1    0    0  501    0 0.00000000E+00 0.00000000E+00 0.98806113E+03 0.98806118E+03 0.32000000E+00 0.0000E+00 0.9000E+01
       -2 -1    0    0    0  501 0.00000000E+00 0.00000000E+00 -.16643597E+03 0.16643628E+03 0.32000000E+00 0.0000E+00 0.9000E+01
       25  2    1    2    0    0 -.26091833E+03 0.25967427E+02 0.77742284E+03 0.87373986E+03 0.30047029E+03 0.0000E+00 0.0000E+00
       23  2    1    2    0    0 0.26091833E+03 -.25967427E+02 0.44202321E+02 0.28075760E+03 0.90101628E+02 0.0000E+00 0.0000E+00
       23  1    3    3    0    0 -.11252175E+03 0.40517327E+02 0.11689704E+03 0.19048088E+03 0.91188000E+02 0.0000E+00 0.9000E+01
      -11  1    4    4    0    0 0.23531366E+03 -.35192511E+02 0.11495363E+02 0.23820826E+03 0.51099893E-03 0.0000E+00 0.9000E+01
       11  1    4    4    0    0 0.25604666E+02 0.92250846E+01 0.32706958E+02 0.42549338E+02 0.51099893E-03 0.0000E+00 0.9000E+01
       23  1    3    3    0    0 -.14839658E+03 -.14549900E+02 0.66052580E+03 0.68325898E+03 0.91188000E+02 0.0000E+00 0.9000E+01
#aMCatNLO 1  0  0  1  2 0.12387754D+03 0.00000000D+00  -5  7  0 0.00000000D+00 0.00000000D+00 0.00000000D+00 0.00000000D+00 0.00000000D+00
  <mgrwgt>
 0.2978861415D-03    4    2    0
 0.405523269578670D+03 0.000000000000000D+00 0.000000000000000D+00 0.405523269578670D+03
 0.405523269578670D+03 0.000000000000000D+00 0.000000000000000D+00 -.405523269578670D+03
 0.152721384001470D+03 -.112521751376451D+03 0.405173269061774D+02 -.265663598349220D+02
 0.327436149527605D+03 0.235313663950651D+03 -.351925114230778D+02 -.224951992023456D+03
 0.274339915979796D+02 0.256046662538616D+02 0.922508462572073D+01 0.345293710841475D+01
 0.303455014030286D+03 -.148396578828062D+03 -.145499001088204D+02 0.248065414749963D+03
 0.000000000000000D+00 0.000000000000000D+00 -.000000000000000D+00 -.000000000000000D+00
 0.444656148604820D+03 0.000000000000000D+00 0.000000000000000D+00 0.444656148604820D+03
 0.521652762103042D+03 0.000000000000000D+00 0.000000000000000D+00 -.521652762103042D+03
 0.172738894870832D+03 -.136140102904659D+03 0.477867697530025D+02 -.265663598349220D+02
 0.295301229926616D+03 0.190122188085555D+03 -.212831219141347D+02 -.224951992023456D+03
 0.244288763700290D+02 0.218410258760750D+02 0.103834875984958D+02 0.345293710841475D+01
 0.327983394299304D+03 -.194219480313967D+03 -.446165433280489D+00 0.248065414749963D+03
 0.145856515241083D+03 0.118396369256997D+03 -.364409700040831D+02 -.769966134982221D+02
0.933219955556D-05 0.000000000000D+00 0.000000000000D+00 0.552872168708D-06 0.000000000000D+00  7 2 -2 23 -11 11 23 21 0 0.15200943D+00 0.25605562D-01 0.87119668D+05 0.87119668D+05 0.87119668D+05 0.11266696D+01  1  2  2  1  7  1        2 0.400381213301D-03 0.100000000000D+01
-.454846889242D-06 0.000000000000D+00 -.358381035179D-07 0.552872168708D-06 0.000000000000D+00  7 2 -2 23 -11 11 23 21 2 0.15200943D+00 0.25605562D-01 0.87119668D+05 0.87119668D+05 0.87119668D+05 0.11266696D+01  1  2  3  1  7  1        2 -.247712565965D-04 0.100000000000D+01
0.587762523972D-06 0.000000000000D+00 0.000000000000D+00 0.552872168708D-06 0.000000000000D+00  7 2 -2 23 -11 11 23 21 2 0.15200943D+00 0.25605562D-01 0.87119668D+05 0.87119668D+05 0.87119668D+05 0.11266696D+01  1  2 15  1  7  1        2 0.320099282714D-04 0.100000000000D+01
-.201491804259D-05 0.000000000000D+00 0.000000000000D+00 0.552872168708D-06 0.000000000000D+00  7 2 -2 23 -11 11 23 21 2 0.15200943D+00 0.25605562D-01 0.87119668D+05 0.87119668D+05 0.87119668D+05 0.11266696D+01  1  2  4  1  7  1        2 -.109733743452D-03 0.100000000000D+01
  </mgrwgt>
  </event>
  <event>
  8     66 0.55102590E-06 0.14482023E+03 0.75467711E-02 0.98301043E-01
        2 -1    0    0  501    0 0.00000000E+00 0.00000000E+00 0.15865895E+04 0.15865896E+04 0.32000000E+00 0.0000E+00 0.9000E+01
       -2 -1    0    0    0  501 0.00000000E+00 0.00000000E+00 -.17501671E+03 0.17501701E+03 0.32000000E+00 0.0000E+00 0.9000E+01
       25  2    1    2    0    0 0.77608486E+01 -.14431067E+02 0.15578494E+04 0.15865084E+04 0.29974269E+03 0.0000E+00 0.0000E+00
       23  2    1    2    0    0 -.77608486E+01 0.14431067E+02 -.14627659E+03 0.17509816E+03 0.94836900E+02 0.0000E+00 0.0000E+00
       23  1    3    3    0    0 0.69152674E+02 -.73646133E+02 0.11960771E+04 0.12037946E+04 0.91188000E+02 0.0000E+00 0.9000E+01
      -11  1    4    4    0    0 0.82957192E+01 0.24440454E+01 -.15354107E+03 0.15378444E+03 0.51099893E-03 0.0000E+00 0.9000E+01
       11  1    4    4    0    0 -.16056568E+02 0.11987021E+02 0.72644807E+01 0.21313722E+02 0.51099893E-03 0.0000E+00 0.9000E+01
       23  1    3    3    0    0 -.61391825E+02 0.59215067E+02 0.36177231E+03 0.38271378E+03 0.91188000E+02 0.0000E+00 0.9000E+01
#aMCatNLO 1  0  0  1  2 0.27256380D+03 0.00000000D+00  -5  7  0 0.00000000D+00 0.00000000D+00 0.00000000D+00 0.00000000D+00 0.00000000D+00
  <mgrwgt>
 0.2300451774D-03    7    2    0
 0.526953481064884D+03 0.000000000000000D+00 0.000000000000000D+00 0.526953481064884D+03
 0.526953481064884D+03 0.000000000000000D+00 0.000000000000000D+00 -.526953481064884D+03
 0.410152537952074D+03 0.691526740489026D+02 -.736461332902932D+02 0.386916021596162D+03
 0.462699357494107D+03 0.829571919807992D+01 0.244404536286819D+01 -.462618528715301D+03
 0.258960698507947D+02 -.160565677785352D+02 0.119870212706013D+02 -.164044014200060D+02
 0.155158996832793D+03 -.613918254684473D+02 0.592150666568237D+02 0.921069085391449D+02
 0.000000000000000D+00 0.000000000000000D+00 0.000000000000000D+00 0.000000000000000D+00
 0.752008223309751D+03 0.000000000000000D+00 0.000000000000000D+00 0.752008223309751D+03
 0.633704697767341D+03 0.000000000000000D+00 0.000000000000000D+00 -.633704697767341D+03
 0.440919825695762D+03 0.589289230611681D+02 -.181434328633337D+03 0.386916021596162D+03
 0.477091003516042D+03 -.299378219103658D+01 -.116580271887771D+03 -.462618528715301D+03
 0.240539446951831D+02 -.166566066616720D+02 0.566085894264967D+01 -.164044014200060D+02
 0.146517288950894D+03 -.650157984189228D+02 0.210078074256085D+02 0.921069085391449D+02
 0.297130858219212D+03 0.257372642104633D+02 0.271345934152849D+03 0.118303525542410D+03
0.187544306014D-04 0.000000000000D+00 0.000000000000D+00 0.386038330780D-06 0.000000000000D+00  7 2 -2 23 -11 11 23 21 0 0.24409072D+00 0.26925673D-01 0.20972899D+05 0.20972899D+05 0.20972899D+05 0.11820408D+01  1  2  2  1  7  1        2 0.356673311148D-03 0.100000000000D+01
0.107148764289D-05 0.000000000000D+00 -.720219516644D-07 0.386038330780D-06 0.000000000000D+00  7 2 -2 23 -11 11 23 21 2 0.24409072D+00 0.26925673D-01 0.20972899D+05 0.20972899D+05 0.20972899D+05 0.11820408D+01  1  2  3  1  7  1        2 0.284720567409D-04 0.100000000000D+01
0.114476934359D-05 0.000000000000D+00 0.000000000000D+00 0.386038330780D-06 0.000000000000D+00  7 2 -2 23 -11 11 23 21 2 0.24409072D+00 0.26925673D-01 0.20972899D+05 0.20972899D+05 0.20972899D+05 0.11820408D+01  1  2 15  1  7  1        2 0.304193314056D-04 0.100000000000D+01
-.912318598558D-05 0.000000000000D+00 0.000000000000D+00 0.386038330780D-06 0.000000000000D+00  7 2 -2 23 -11 11 23 21 2 0.24409072D+00 0.26925673D-01 0.20972899D+05 0.20972899D+05 0.20972899D+05 0.11820408D+01  1  2  4  1  7  1        2 -.242425445374D-03 0.100000000000D+01
0.137740047260D-05 0.000000000000D+00 -.610471635255D-05 0.386038330780D-06 0.000000000000D+00  7 2 -2 23 -11 11 23 21 2 0.37632490D+00 0.26925673D-01 0.20972899D+05 0.20972899D+05 0.20972899D+05 0.11820408D+01  1  2  5  1  7  1        2 0.129186449240D-04 0.100000000000D+01
0.163987407397D-05 0.000000000000D+00 0.557416990693D-05 0.386038330780D-06 0.000000000000D+00  7 2 -2 23 -11 11 23 21 2 0.24409072D+00 0.26925673D-01 0.20972899D+05 0.20972899D+05 0.20972899D+05 0.11820408D+01  1  2  6  1  7  1        2 0.435754793739D-04 0.100000000000D+01
0.300833072918D-06 0.000000000000D+00 -.308114203260D-06 0.386038330780D-06 0.000000000000D+00  7 21 -2 23 -11 11 23 -2 2 0.37632490D+00 0.26925673D-01 0.20972899D+05 0.20972899D+05 0.20972899D+05 0.11820408D+01  1  2  5  3  7  1        2 0.411799156237D-06 0.100000000000D+01
  </mgrwgt>
  </event>
  <event>
  8     66 0.55102590E-06 0.76390059E+03 0.75467711E-02 0.82915677E-01
        2 -1    0    0  501    0 0.00000000E+00 0.00000000E+00 0.11796006E+04 0.11796006E+04 0.32000000E+00 0.0000E+00 0.9000E+01
       -2 -1    0    0    0  501 0.00000000E+00 0.00000000E+00 -.10426293E+04 0.10426293E+04 0.32000000E+00 0.0000E+00 0.9000E+01
       25  2    1    2    0    0 0.10488191E+04 0.27645678E+03 0.13674677E+03 0.11337952E+04 0.30056979E+03 0.0000E+00 0.0000E+00
       23  2    1    2    0    0 -.10488191E+04 -.27645678E+03 0.22455199E+00 0.10884347E+04 0.90776264E+02 0.0000E+00 0.0000E+00
       23  1    3    3    0    0 0.80784461E+03 0.27430370E+03 0.41207368E+02 0.85899286E+03 0.91188000E+02 0.0000E+00 0.9000E+01
      -11  1    4    4    0    0 -.10231183E+04 -.27776875E+03 -.11356121E+02 0.10602148E+04 0.51099893E-03 0.0000E+00 0.9000E+01
       11  1    4    4    0    0 -.25700794E+02 0.13119717E+01 0.11580673E+02 0.28219923E+02 0.51099893E-03 0.0000E+00 0.9000E+01
       23  1    3    3    0    0 0.24097445E+03 0.21530831E+01 0.95539401E+02 0.27480239E+03 0.91188000E+02 0.0000E+00 0.9000E+01
#aMCatNLO 1  0  0  1  2 0.88506736D+03 0.00000000D+00  -5  7  0 0.00000000D+00 0.00000000D+00 0.00000000D+00 0.00000000D+00 0.00000000D+00
  <mgrwgt>
 0.4638586721D-03    7    2    0
 0.110900235448294D+04 0.000000000000000D+00 0.000000000000000D+00 0.110900235448294D+04
 0.110900235448294D+04 0.000000000000000D+00 0.000000000000000D+00 -.110900235448294D+04
 0.858084489651680D+03 0.807844607706436D+03 0.274303695510311D+03 -.117606320325657D+02
 0.106293578267856D+04 -.102311826718782D+04 -.277768750339011D+03 -.768505743646831D+02
 0.275585254491462D+02 -.257007938912559D+02 0.131197172153838D+01 0.986003288495047D+01
 0.269425911186496D+03 0.240974453372641D+03 0.215308310716199D+01 0.787511735122983D+02
 0.000000000000000D+00 -.000000000000000D+00 -.000000000000000D+00 0.000000000000000D+00
 0.218498756113694D+04 0.000000000000000D+00 0.000000000000000D+00 0.218498756113694D+04
 0.139166040339388D+04 0.000000000000000D+00 0.000000000000000D+00 -.139166040339388D+04
 0.121921771276338D+04 0.107190577794068D+04 0.573634265471950D+03 -.117606320325657D+02
 0.791233394982393D+03 -.787421177810939D+03 -.105907171624671D+02 -.768505743646831D+02
 0.232796599385951D+02 -.192383780181753D+02 0.863754187220611D+01 0.986003288495047D+01
 0.354341491784631D+03 0.320266118394243D+03 0.920353602441948D+02 0.787511735122983D+02
 0.118857570506182D+04 -.585512340505807D+03 -.663716450425883D+03 0.793327157743059D+03
0.899225744385D-03 0.000000000000D+00 0.000000000000D+00 0.446067927672D-05 0.000000000000D+00  7 2 -2 23 -11 11 23 21 0 0.18147702D+00 0.16040451D+00 0.12117077D+07 0.12117077D+07 0.12117077D+07 0.10423571D+01  1  2  2  1  7  1        2 0.498227710723D-03 0.100000000000D+01
-.499536186491D-04 0.000000000000D+00 -.345326363001D-05 0.446067927672D-05 0.000000000000D+00  7 2 -2 23 -11 11 23 21 2 0.18147702D+00 0.16040451D+00 0.12117077D+07 0.12117077D+07 0.12117077D+07 0.10423571D+01  1  2  3  1  7  1        2 -.300717843823D-04 0.100000000000D+01
0.565829121551D-04 0.000000000000D+00 0.000000000000D+00 0.446067927672D-05 0.000000000000D+00  7 2 -2 23 -11 11 23 21 2 0.18147702D+00 0.16040451D+00 0.12117077D+07 0.12117077D+07 0.12117077D+07 0.10423571D+01  1  2 15  1  7  1        2 0.340625800506D-04 0.100000000000D+01
0.364922871841D-04 0.000000000000D+00 0.000000000000D+00 0.446067927672D-05 0.000000000000D+00  7 2 -2 23 -11 11 23 21 2 0.36136475D+00 0.16040451D+00 0.26541114D+07 0.26541114D+07 0.26541114D+07 0.10207591D+01  1  2 12  1  7  1        2 0.429430145823D-05 0.100000000000D+01
-.411787227758D-03 0.000000000000D+00 -.248860789301D-03 0.446067927672D-05 0.000000000000D+00  7 2 -2 23 -11 11 23 21 2 0.38835610D+00 0.16040451D+00 0.12117077D+07 0.12117077D+07 0.12117077D+07 0.10423571D+01  1  2  5  1  7  1        2 -.424930167066D-04 0.100000000000D+01
0.272014136523D-05 0.000000000000D+00 0.000000000000D+00 0.446067927672D-05 0.000000000000D+00  7 21 -2 23 -11 11 23 -2 2 0.36136475D+00 0.16040451D+00 0.26541114D+07 0.26541114D+07 0.26541114D+07 0.10207591D+01  1  2 12  3  7  1        2 0.393512793230D-07 0.100000000000D+01
-.183606750178D-04 0.000000000000D+00 -.204890057569D-04 0.446067927672D-05 0.000000000000D+00  7 21 -2 23 -11 11 23 -2 2 0.38835610D+00 0.16040451D+00 0.12117077D+07 0.12117077D+07 0.12117077D+07 0.10423571D+01  1  2  5  3  7  1        2 -.200470342702D-06 0.100000000000D+01
  </mgrwgt>
  </event>
  <event>
  8     66 0.55102590E-06 0.78798294E+03 0.75467711E-02 0.85162945E-01
        2 -1    0    0  501    0 0.00000000E+00 0.00000000E+00 0.21315014E+04 0.21315015E+04 0.32000000E+00 0.0000E+00 0.9000E+01
       -2 -1    0    0    0  501 0.00000000E+00 0.00000000E+00 -.37916107E+03 0.37916120E+03 0.32000000E+00 0.0000E+00 0.9000E+01
       25  2    1    2    0    0 -.53625840E+03 0.54513348E+03 0.14833204E+04 0.16954091E+04 0.29904717E+03 0.0000E+00 0.0000E+00
       23  2    1    2    0    0 0.53625840E+03 -.54513348E+03 0.26902001E+03 0.81525354E+03 0.86735152E+02 0.0000E+00 0.0000E+00
       23  1    3    3    0    0 -.80459048E+02 0.19282336E+03 0.30654935E+03 0.38202391E+03 0.91188000E+02 0.0000E+00 0.9000E+01
      -13  1    4    4    0    0 0.10960946E+03 -.11665147E+03 0.94587009E+02 0.18592609E+03 0.10565837E+00 0.0000E+00 0.9000E+01
       13  1    4    4    0    0 0.42664895E+03 -.42848201E+03 0.17443300E+03 0.62932745E+03 0.10565837E+00 0.0000E+00 0.9000E+01
       23  1    3    3    0    0 -.45579935E+03 0.35231012E+03 0.11767710E+04 0.13133852E+04 0.91188000E+02 0.0000E+00 0.9000E+01
#aMCatNLO 1  0  0  2  2 0.78053085D+03 0.00000000D+00  -5  7  0 0.00000000D+00 0.00000000D+00 0.00000000D+00 0.00000000D+00 0.00000000D+00
  <mgrwgt>
 0.2809423934D-03    5    2    0
 0.898989743000314D+03 0.000000000000000D+00 0.000000000000000D+00 0.898989743000314D+03
 0.898989743000314D+03 0.000000000000000D+00 0.000000000000000D+00 -.898989743000314D+03
 0.234682516548258D+03 -.804590483601005D+02 0.192823362223363D+03 0.557326183422987D+02
 0.167436629022730D+03 0.109608984786815D+03 -.116651011440930D+03 -.491267414175527D+02
 0.708775816955288D+03 0.426649417230297D+03 -.428482470803906D+03 -.369778590093401D+03
 0.687084523474351D+03 -.455799353657011D+03 0.352310120021473D+03 0.363172713168655D+03
 0.000000000000000D+00 -.000000000000000D+00 -.000000000000000D+00 -.000000000000000D+00
 0.121764621260824D+04 0.000000000000000D+00 0.000000000000000D+00 0.121764621260824D+04
 0.162106762980953D+04 0.000000000000000D+00 0.000000000000000D+00 -.162106762980953D+04
 0.262606894231910D+03 0.116281662945437D+02 0.239595055365230D+03 0.557326183422987D+02
 0.202025732914555D+03 0.178025402054084D+03 -.819018697029430D+02 -.491267414175527D+02
 0.853583434764571D+03 0.715964469314517D+03 -.281537480794653D+03 -.369778590093401D+03
 0.641875424781145D+03 -.209704791075368D+03 0.477303143299654D+03 0.363172713168655D+03
 0.878622355725587D+03 -.695913246587778D+03 -.353458848167288D+03 -.403421417201286D+03
0.143501734343D-03 0.000000000000D+00 0.000000000000D+00 0.108041143520D-06 0.000000000000D+00  7 2 -2 23 -13 13 23 21 0 0.32792331D+00 0.58332484D-01 0.62091711D+06 0.62091711D+06 0.62091711D+06 0.10619253D+01  1  2  2  2  7  2       -2 0.280983040684D-03 0.100000000000D+01
-.780394835829D-05 0.000000000000D+00 -.551084444751D-06 0.108041143520D-06 0.000000000000D+00  7 2 -2 23 -13 13 23 21 2 0.32792331D+00 0.58332484D-01 0.62091711D+06 0.62091711D+06 0.62091711D+06 0.10619253D+01  1  2  3  2  7  2       -2 -.172315875168D-04 0.100000000000D+01
0.904486197610D-05 0.000000000000D+00 0.000000000000D+00 0.108041143520D-06 0.000000000000D+00  7 2 -2 23 -13 13 23 21 2 0.32792331D+00 0.58332484D-01 0.62091711D+06 0.62091711D+06 0.62091711D+06 0.10619253D+01  1  2 15  2  7  2       -2 0.199715994472D-04 0.100000000000D+01
-.181682275378D-04 0.000000000000D+00 -.431196949245D-04 0.108041143520D-06 0.000000000000D+00  7 2 -2 23 -13 13 23 21 2 0.32792331D+00 0.14231513D+00 0.62091711D+06 0.62091711D+06 0.62091711D+06 0.10619253D+01  1  2  5  2  7  2       -2 -.483263685941D-05 0.100000000000D+01
0.917652336634D-06 0.000000000000D+00 -.421749720984D-05 0.108041143520D-06 0.000000000000D+00  7 2 21 23 -13 13 23 2 2 0.32792331D+00 0.14231513D+00 0.62091711D+06 0.62091711D+06 0.62091711D+06 0.10619253D+01  1  2  5  4  7  2       -2 0.205197763898D-05 0.100000000000D+01
  </mgrwgt>
  </event>
  <event>
  8     66 0.55102590E-06 0.42488523E+03 0.75467711E-02 0.92071255E-01
        2 -1    0    0  501    0 0.00000000E+00 0.00000000E+00 0.91445556E+03 0.91445562E+03 0.32000000E+00 0.0000E+00 0.9000E+01
       -2 -1    0    0    0  501 0.00000000E+00 0.00000000E+00 -.36158750E+03 0.36158764E+03 0.32000000E+00 0.0000E+00 0.9000E+01
       25  2    1    2    0    0 0.31326192E+03 -.21151177E+03 -.12133425E+03 0.49789691E+03 0.30051467E+03 0.0000E+00 0.0000E+00
       23  2    1    2    0    0 -.31326192E+03 0.21151177E+03 0.67420232E+03 0.77814635E+03 0.89959549E+02 0.0000E+00 0.0000E+00
       23  1    3    3    0    0 0.21319855E+02 -.11201210E+03 0.18529243E+02 0.14717279E+03 0.91188000E+02 0.0000E+00 0.9000E+01
      -11  1    4    4    0    0 0.13535114E+01 -.16332074E+01 -.17133439E+01 0.27267026E+01 0.51099893E-03 0.0000E+00 0.9000E+01
       11  1    4    4    0    0 -.31461544E+03 0.21314497E+03 0.67591566E+03 0.77541965E+03 0.51099893E-03 0.0000E+00 0.9000E+01
       23  1    3    3    0    0 0.29194207E+03 -.99499666E+02 -.13986349E+03 0.35072411E+03 0.91188000E+02 0.0000E+00 0.9000E+01
#aMCatNLO 1  0  0  1  2 0.35709378D+03 0.00000000D+00  -5  7  0 0.00000000D+00 0.00000000D+00 0.00000000D+00 0.00000000D+00 0.00000000D+00
  <mgrwgt>
 0.3831442915D-03    4    2    0
 0.575026804367989D+03 0.000000000000000D+00 0.000000000000000D+00 0.575026804367989D+03
 0.575026804367989D+03 0.000000000000000D+00 0.000000000000000D+00 -.575026804367989D+03
 0.154388128257157D+03 0.213198547813746D+02 -.112012100604547D+03 -.501915920549093D+02
 0.384907583975066D+01 0.135351137818913D+01 -.163320743493738D+01 -.321185697747114D+01
 0.535433156371383D+03 -.314615436197440D+03 0.213144974347126D+03 0.377193600368139D+03
 0.456383248267688D+03 0.291942070037876D+03 -.994996663076415D+02 -.323790151335758D+03
 0.000000000000000D+00 0.000000000000000D+00 0.000000000000000D+00 -.000000000000000D+00
 0.756890751381376D+03 0.000000000000000D+00 0.000000000000000D+00 0.756890751381376D+03
 0.808069090979321D+03 0.000000000000000D+00 0.000000000000000D+00 -.808069090979321D+03
 0.161999924015418D+03 -.257347575810909D+02 -.121438257465419D+03 -.501915920549093D+02
 0.371788164504489D+01 0.228120426625771D+00 -.185864998151553D+01 -.321185697747114D+01
 0.643436386279636D+03 -.489942061071286D+03 0.178022885672426D+03 0.377193600368139D+03
 0.395063094248752D+03 0.165311252891742D+03 -.124866827695459D+03 -.323790151335758D+03
 0.360742556171846D+03 0.350137445334009D+03 0.701408494699668D+02 -.511783395979456D+02
0.482401589121D-04 0.000000000000D+00 0.000000000000D+00 0.113862506378D-05 0.000000000000D+00  7 2 -2 23 -11 11 23 21 0 0.14068549D+00 0.55628861D-01 0.18052745D+06 0.18052745D+06 0.18052745D+06 0.11012585D+01  1  2  2  1  7  1        2 0.538579145905D-03 0.100000000000D+01
-.238164331151D-05 0.000000000000D+00 -.185254912148D-06 0.113862506378D-05 0.000000000000D+00  7 2 -2 23 -11 11 23 21 2 0.14068549D+00 0.55628861D-01 0.18052745D+06 0.18052745D+06 0.18052745D+06 0.11012585D+01  1  2  3  1  7  1        2 -.322475020826D-04 0.100000000000D+01
0.298701411689D-05 0.000000000000D+00 0.000000000000D+00 0.113862506378D-05 0.000000000000D+00  7 2 -2 23 -11 11 23 21 2 0.14068549D+00 0.55628861D-01 0.18052745D+06 0.18052745D+06 0.18052745D+06 0.11012585D+01  1  2 15  1  7  1        2 0.404442359145D-04 0.100000000000D+01
-.120850314725D-04 0.000000000000D+00 0.000000000000D+00 0.113862506378D-05 0.000000000000D+00  7 2 -2 23 -11 11 23 21 2 0.14068549D+00 0.55628861D-01 0.18052745D+06 0.18052745D+06 0.18052745D+06 0.11012585D+01  1  2  4  1  7  1        2 -.163631588196D-03 0.100000000000D+01
  </mgrwgt>
  </event>
  <event>
  8     66 0.55102590E-06 0.18778185E+03 0.75467711E-02 0.98166128E-01
        2 -1    0    0  501    0 0.00000000E+00 0.00000000E+00 0.13184819E+04 0.13184819E+04 0.32000000E+00 0.0000E+00 0.9000E+01
       -2 -1    0    0    0  501 0.00000000E+00 0.00000000E+00 -.13877510E+03 0.13877547E+03 0.32000000E+00 0.0000E+00 0.9000E+01
       25  2    1    2    0    0 -.13586529E+03 -.12662871E+03 0.11997615E+04 0.12497444E+04 0.29654540E+03 0.0000E+00 0.0000E+00
       23  2    1    2    0    0 0.13586529E+03 0.12662871E+03 -.20054723E+02 0.20751300E+03 0.90361766E+02 0.0000E+00 0.0000E+00
       23  1    3    3    0    0 -.74846934E+02 0.59904604E+02 0.50607108E+03 0.52308108E+03 0.91188000E+02 0.0000E+00 0.9000E+01
      -13  1    4    4    0    0 0.82365688E+02 0.66406680E+02 0.33269099E+02 0.11090896E+03 0.10565837E+00 0.0000E+00 0.9000E+01
       13  1    4    4    0    0 0.53499599E+02 0.60222029E+02 -.53323822E+02 0.96604042E+02 0.10565837E+00 0.0000E+00 0.9000E+01
       23  1    3    3    0    0 -.61018353E+02 -.18653331E+03 0.69369043E+03 0.72666332E+03 0.91188000E+02 0.0000E+00 0.9000E+01
#aMCatNLO 1  0  0  2  1 0.16526120D+03 0.00000000D+00  -5  7  0 0.00000000D+00 0.00000000D+00 0.00000000D+00 0.00000000D+00 0.00000000D+00
  <mgrwgt>
 0.2145559954D-03    9    2    0
 0.427753151330385D+03 0.000000000000000D+00 0.000000000000000D+00 0.427753151330385D+03
 0.427753151330385D+03 0.000000000000000D+00 0.000000000000000D+00 -.427753151330385D+03
 0.193158466975333D+03 -.748469341969376D+02 0.599046041481435D+02 0.140727811264989D+03
 0.143043964582018D+03 0.823657277354722D+02 0.664066883040308D+02 -.962684499015068D+02
 0.238085377911033D+03 0.534995594619503D+02 0.602220202558585D+02 -.224044086261431D+03
 0.281218493192387D+03 -.610183530004849D+02 -.186533312708033D+03 0.179584724897949D+03
 0.000000000000000D+00 -.000000000000000D+00 -.000000000000000D+00 -.000000000000000D+00
 0.496449811894621D+03 0.000000000000000D+00 0.000000000000000D+00 0.496449811894621D+03
 0.547981490188760D+03 0.000000000000000D+00 0.000000000000000D+00 -.547981490188760D+03
 0.191604544778037D+03 -.447805536036794D+02 0.811630173854610D+02 0.140727811264989D+03
 0.166085825191750D+03 0.106521932017420D+03 0.834863155401025D+02 -.962684499015068D+02
 0.257641494102679D+03 0.922369441610373D+02 0.876112608434264D+02 -.224044086261431D+03
 0.255990290465360D+03 -.190394640374045D+02 -.156852168812025D+03 0.179584724897949D+03
 0.173109147545555D+03 -.134938858537374D+03 -.954084249569650D+02 -.515316782941386D+02
0.579983928594D-05 0.000000000000D+00 0.000000000000D+00 0.197319036772D-07 0.000000000000D+00  7 2 -2 23 -13 13 23 21 0 0.20284340D+00 0.21350047D-01 0.71576231D+05 0.71576231D+05 0.71576231D+05 0.11338384D+01  1  2  2  2  7  2       -2 0.218951175735D-03 0.100000000000D+01
-.235934866999D-06 0.000000000000D+00 -.222729099908D-07 0.197319036772D-07 0.000000000000D+00  7 2 -2 23 -13 13 23 21 2 0.20284340D+00 0.21350047D-01 0.71576231D+05 0.71576231D+05 0.71576231D+05 0.11338384D+01  1  2  3  2  7  2       -2 -.114505352849D-04 0.100000000000D+01
0.357222308944D-06 0.000000000000D+00 0.000000000000D+00 0.197319036772D-07 0.000000000000D+00  7 2 -2 23 -13 13 23 21 2 0.20284340D+00 0.21350047D-01 0.71576231D+05 0.71576231D+05 0.71576231D+05 0.11338384D+01  1  2 15  2  7  2       -2 0.173369316080D-04 0.100000000000D+01
0.126847597343D-05 0.000000000000D+00 0.000000000000D+00 0.197319036772D-07 0.000000000000D+00  7 2 -2 23 -13 13 23 21 2 0.20284340D+00 0.28674515D-01 0.13700169D+06 0.13700169D+06 0.13700169D+06 0.11106718D+01  1  2 12  2  7  2       -2 0.351946888372D-04 0.100000000000D+01
-.333415696135D-05 0.000000000000D+00 0.000000000000D+00 0.197319036772D-07 0.000000000000D+00  7 2 -2 23 -13 13 23 21 2 0.20284340D+00 0.21350047D-01 0.71576231D+05 0.71576231D+05 0.71576231D+05 0.11338384D+01  1  2  4  2  7  2       -2 -.161815345129D-03 0.100000000000D+01
-.359315045434D-05 0.000000000000D+00 -.246567958970D-05 0.197319036772D-07 0.000000000000D+00  7 2 -2 23 -13 13 23 21 2 0.20284340D+00 0.31805165D-01 0.71576231D+05 0.71576231D+05 0.71576231D+05 0.11338384D+01  1  2  5  2  7  2       -2 -.881758494960D-04 0.100000000000D+01
0.440502995945D-05 0.000000000000D+00 0.228200544950D-05 0.197319036772D-07 0.000000000000D+00  7 2 -2 23 -13 13 23 21 2 0.20284340D+00 0.21350047D-01 0.71576231D+05 0.71576231D+05 0.71576231D+05 0.11338384D+01  1  2  6  2  7  2       -2 0.213787608518D-03 0.100000000000D+01
0.484356900520D-07 0.000000000000D+00 0.000000000000D+00 0.197319036772D-07 0.000000000000D+00  7 2 21 23 -13 13 23 2 2 0.20284340D+00 0.28674515D-01 0.13700169D+06 0.13700169D+06 0.13700169D+06 0.11106718D+01  1  2 12  4  7  2       -2 0.159552160778D-04 0.100000000000D+01
-.868337511567D-07 0.000000000000D+00 -.117058824463D-06 0.197319036772D-07 0.000000000000D+00  7 2 21 23 -13 13 23 2 2 0.20284340D+00 0.31805165D-01 0.71576231D+05 0.71576231D+05 0.71576231D+05 0.11338384D+01  1  2  5  4  7  2       -2 -.252278954385D-04 0.100000000000D+01
  </mgrwgt>
  </event>
  <event>
  8     66 0.55102590E-06 0.70822494E+02 0.75467711E-02 0.10200435E+00
        2 -1    0    0  501    0 0.00000000E+00 0.00000000E+00 0.11098263E+04 0.11098264E+04 0.32000000E+00 0.0000E+00 0.9000E+01
       -2 -1    0    0    0  501 0.00000000E+00 0.00000000E+00 -.53883979E+02 0.53884929E+02 0.32000000E+00 0.0000E+00 0.9000E+01
       25  2    1    2    0    0 0.79390252E+02 0.15246132E+02 0.95892552E+03 0.10080828E+04 0.30026258E+03 0.0000E+00 0.0000E+00
       23  2    1    2    0    0 -.79390252E+02 -.15246132E+02 0.97016850E+02 0.15562848E+03 0.90954368E+02 0.0000E+00 0.0000E+00
       23  1    3    3    0    0 0.67419928E+02 -.10832168E+03 0.49599725E+03 0.52019953E+03 0.91188000E+02 0.0000E+00 0.9000E+01
      -13  1    4    4    0    0 -.65229829E+02 0.42402577E+01 0.10980246E+02 0.66283386E+02 0.10565837E+00 0.0000E+00 0.9000E+01
       13  1    4    4    0    0 -.14160424E+02 -.19486389E+02 0.86036603E+02 0.89345091E+02 0.10565837E+00 0.0000E+00 0.9000E+01
       23  1    3    3    0    0 0.11970324E+02 0.12356781E+03 0.46292827E+03 0.48788331E+03 0.91188000E+02 0.0000E+00 0.9000E+01
#aMCatNLO 1  0  0  2  1 0.13629211D+03 0.00000000D+00  -5  7  0 0.00000000D+00 0.00000000D+00 0.00000000D+00 0.00000000D+00 0.00000000D+00
  <mgrwgt>
 0.2029043215D-03    9    2    0
 0.244545373123255D+03 0.000000000000000D+00 0.000000000000000D+00 0.244545373123255D+03
 0.244545373123255D+03 0.000000000000000D+00 0.000000000000000D+00 -.244545373123255D+03
 0.166876142593647D+03 0.674199289755622D+02 -.108321673983779D+03 0.570382656224499D+02
 0.134004359648695D+03 -.652298999527833D+02 0.424028892199221D+01 -.116979692711448D+03
 0.268296388778873D+02 -.141603552161518D+02 -.194864211082940D+02 0.118149589445109D+02
 0.161380605126281D+03 0.119703261933729D+02 0.123567806170081D+03 0.481264681444869D+02
 0.000000000000000D+00 -.000000000000000D+00 -.000000000000000D+00 -.000000000000000D+00
 0.288270414078534D+03 0.000000000000000D+00 0.000000000000000D+00 0.288270414078534D+03
 0.388829608946709D+03 0.000000000000000D+00 0.000000000000000D+00 -.388829608946709D+03
 0.164271331209240D+03 0.985867575905105D+02 -.754791785582522D+02 0.570382656224499D+02
 0.127454688161221D+03 -.406219836086298D+02 0.301712358896598D+02 -.116979692711448D+03
 0.211967402843248D+02 -.964022431750521D+01 -.147232679432530D+02 0.118149589445109D+02
 0.194802852655956D+03 0.454934832831549D+02 0.158893316730444D+03 0.481264681444869D+02
 0.169374410714501D+03 -.938180329475304D+02 -.988621061185984D+02 -.100559194868175D+03
0.108160803925D-05 0.000000000000D+00 0.000000000000D+00 0.524722689446D-06 0.000000000000D+00  7 2 -2 23 -13 13 23 21 0 0.17074259D+00 0.82899196D-02 0.40063783D+05 0.40063783D+05 0.40063783D+05 0.11558561D+01  1  2  2  2  7  2       -2 0.237732902127D-03 0.100000000000D+01
-.571585517656D-07 0.000000000000D+00 -.415365966464D-08 0.524722689446D-06 0.000000000000D+00  7 2 -2 23 -13 13 23 21 2 0.17074259D+00 0.82899196D-02 0.40063783D+05 0.40063783D+05 0.40063783D+05 0.11558561D+01  1  2  3  2  7  2       -2 -.167844894223D-04 0.100000000000D+01
0.668585077159D-07 0.000000000000D+00 0.000000000000D+00 0.524722689446D-06 0.000000000000D+00  7 2 -2 23 -13 13 23 21 2 0.17074259D+00 0.82899196D-02 0.40063783D+05 0.40063783D+05 0.40063783D+05 0.11558561D+01  1  2 15  2  7  2       -2 0.196328612409D-04 0.100000000000D+01
0.162883460062D-06 0.000000000000D+00 0.000000000000D+00 0.524722689446D-06 0.000000000000D+00  7 2 -2 23 -13 13 23 21 2 0.17074259D+00 0.13565234D-01 0.74886212D+05 0.74886212D+05 0.74886212D+05 0.11321769D+01  1  2 12  2  7  2       -2 0.214919024754D-04 0.100000000000D+01
-.662794998393D-06 0.000000000000D+00 0.000000000000D+00 0.524722689446D-06 0.000000000000D+00  7 2 -2 23 -13 13 23 21 2 0.17074259D+00 0.82899196D-02 0.40063783D+05 0.40063783D+05 0.40063783D+05 0.11558561D+01  1  2  4  2  7  2       -2 -.194628367865D-03 0.100000000000D+01
-.577937502500D-06 0.000000000000D+00 -.365498066781D-06 0.524722689446D-06 0.000000000000D+00  7 2 -2 23 -13 13 23 21 2 0.17074259D+00 0.15565323D-01 0.40063783D+05 0.40063783D+05 0.40063783D+05 0.11558561D+01  1  2  5  2  7  2       -2 -.641926995128D-04 0.100000000000D+01
0.722268959775D-06 0.000000000000D+00 0.303291529654D-06 0.524722689446D-06 0.000000000000D+00  7 2 -2 23 -13 13 23 21 2 0.17074259D+00 0.82899196D-02 0.40063783D+05 0.40063783D+05 0.40063783D+05 0.11558561D+01  1  2  6  2  7  2       -2 0.212092772488D-03 0.100000000000D+01
0.907440470677D-08 0.000000000000D+00 0.000000000000D+00 0.524722689446D-06 0.000000000000D+00  7 2 21 23 -13 13 23 2 2 0.17074259D+00 0.13565234D-01 0.74886212D+05 0.74886212D+05 0.74886212D+05 0.11321769D+01  1  2 12  4  7  2       -2 0.166334319076D-04 0.100000000000D+01
-.190427631682D-07 0.000000000000D+00 -.250599032402D-07 0.524722689446D-06 0.000000000000D+00  7 2 21 23 -13 13 23 2 2 0.17074259D+00 0.15565323D-01 0.40063783D+05 0.40063783D+05 0.40063783D+05 0.11558561D+01  1  2  5  4  7  2       -2 -.290739919312D-04 0.100000000000D+01
  </mgrwgt>
  </event>
  <event>
  9     66 0.55102590E-06 0.20664886E+03 0.75467711E-02 0.10470698E+00
        2 -1    0    0  502    0 0.00000000E+00 0.00000000E+00 0.14248560E+03 0.14248596E+03 0.32000000E+00 0.0000E+00 0.9000E+01
       -2 -1    0    0    0  501 0.00000000E+00 0.00000000E+00 -.62019720E+03 0.62019729E+03 0.32000000E+00 0.0000E+00 0.9000E+01
       25  2    1    2    0    0 0.37274351E+02 0.78631142E+02 -.67709874E+02 0.31879449E+03 0.29912049E+03 0.0000E+00 0.0000E+00
       23  2    1    2    0    0 -.68166182E+02 -.59002502E+02 -.35833454E+03 0.38056696E+03 0.91102378E+02 0.0000E+00 0.0000E+00
       23  1    3    3    0    0 -.47363814E+02 0.13892803E+03 -.28940028E+02 0.17520589E+03 0.91188000E+02 0.0000E+00 0.9000E+01
      -11  1    4    4    0    0 -.66917526E+02 -.32656669E+02 -.12317023E+03 0.14392817E+03 0.51099893E-03 0.0000E+00 0.9000E+01
       11  1    4    4    0    0 -.12486560E+01 -.26345833E+02 -.23516431E+03 0.23663878E+03 0.51099893E-03 0.0000E+00 0.9000E+01
       23  1    3    3    0    0 0.84638164E+02 -.60296888E+02 -.38769845E+02 0.14358860E+03 0.91188000E+02 0.0000E+00 0.9000E+01
       21  1    1    2  502  501 0.30891832E+02 -.19628640E+02 -.51667191E+02 0.63321796E+02 0.75000000E+00 0.0000E+00 0.9000E+01
#aMCatNLO 2  0  0  1  1 0.36600393D+02 0.00000000D+00  -5  7  0 0.00000000D+00 0.00000000D+00 0.00000000D+00 0.00000000D+00 0.00000000D+00
  <mgrwgt>
 0.6694128184D-04    1    2    0
 0.276700653639265D+03 0.000000000000000D+00 0.000000000000000D+00 0.276700653639265D+03
 0.276700653639265D+03 0.000000000000000D+00 0.000000000000000D+00 -.276700653639265D+03
 0.191565118540394D+03 -.364829851329450D+02 0.132014362507661D+03 0.980976206891904D+02
 0.844877446227570D+02 -.621398575923952D+02 -.356923949219110D+02 -.447534360085948D+02
 0.118872438306339D+03 0.534848946706451D+01 -.305376530866623D+02 -.114758450639915D+03
 0.158476005809039D+03 0.932743532582756D+02 -.657843144990880D+02 0.614142659593194D+02
 0.000000000000000D+00 0.000000000000000D+00 -.000000000000000D+00 -.000000000000000D+00
 0.289126374916746D+03 0.000000000000000D+00 0.000000000000000D+00 0.289126374916746D+03
 0.305635326825587D+03 0.000000000000000D+00 0.000000000000000D+00 -.305635326825587D+03
 0.198702599683529D+03 -.473638138500618D+02 0.138928030755817D+03 0.980976206891904D+02
 0.868751020462914D+02 -.669175260902381D+02 -.326566688892248D+02 -.447534360085948D+02
 0.117750431239314D+03 -.124865601500603D+01 -.263458331036765D+02 -.114758450639915D+03
 0.151282176782873D+03 0.846381643778668D+02 -.602968882744998D+02 0.614142659593194D+02
 0.401513919903257D+02 0.308918315774391D+02 -.196286404884161D+02 -.165089519088413D+02
0.171455537848D-05 0.000000000000D+00 0.000000000000D+00 0.934679886925D-07 0.492337988667D-09  7 2 -2 23 -11 11 23 21 2 0.21920634D-01 0.95413852D-01 0.50286127D+05 0.50286127D+05 0.50286127D+05 0.11470775D+01  1  2  1  1  7  1        2 0.669412818400D-04 0.100000000000D+01
  </mgrwgt>
  </event>
  <event>
  8     66 0.55102590E-06 0.20728217E+03 0.75467711E-02 0.94216549E-01
        2 -1    0    0  501    0 0.00000000E+00 0.00000000E+00 0.54570306E+03 0.54570315E+03 0.32000000E+00 0.0000E+00 0.9000E+01
       -2 -1    0    0    0  501 0.00000000E+00 0.00000000E+00 -.36918603E+03 0.36918617E+03 0.32000000E+00 0.0000E+00 0.9000E+01
       25  2    1    2    0    0 0.36663741E+03 -.93338422E+02 -.82189896E+01 0.48331692E+03 0.30065368E+03 0.0000E+00 0.0000E+00
       23  2    1    2    0    0 -.36663741E+03 0.93338422E+02 0.18473602E+03 0.43157240E+03 0.94827671E+02 0.0000E+00 0.0000E+00
       23  1    3    3    0    0 0.11123227E+03 -.14701153E+03 -.19781450E+02 0.20661937E+03 0.91188000E+02 0.0000E+00 0.9000E+01
      -13  1    4    4    0    0 -.21311242E+03 0.52122481E+02 0.54472025E+02 0.22605501E+03 0.10565837E+00 0.0000E+00 0.9000E+01
       13  1    4    4    0    0 -.15352499E+03 0.41215941E+02 0.13026400E+03 0.20551739E+03 0.10565837E+00 0.0000E+00 0.9000E+01
       23  1    3    3    0    0 0.25540515E+03 0.53673103E+02 0.11562461E+02 0.27669755E+03 0.91188000E+02 0.0000E+00 0.9000E+01
#aMCatNLO 1  0  0  2  1 0.16388344D+03 0.00000000D+00  -5  7  0 0.00000000D+00 0.00000000D+00 0.00000000D+00 0.00000000D+00 0.00000000D+00
  <mgrwgt>
 0.2386237942D-03    9    2    0
 0.448849697079002D+03 0.000000000000000D+00 0.000000000000000D+00 0.448849697079002D+03
 0.448849697079002D+03 0.000000000000000D+00 0.000000000000000D+00 -.448849697079002D+03
 0.214465573291267D+03 0.111232267748605D+03 -.147011525250564D+03 -.607883610418723D+02
 0.219672774679600D+03 -.213112493291825D+03 0.521224944443269D+02 0.110652027219388D+02
 0.183838611870005D+03 -.153524921644425D+03 0.412159274229675D+02 0.923470680369881D+02
 0.279722434317130D+03 0.255405147187645D+03 0.536731033832701D+02 -.426239097170546D+02
 0.000000000000000D+00 -.000000000000000D+00 -.000000000000000D+00 -.000000000000000D+00
 0.495038082849179D+03 0.000000000000000D+00 0.000000000000000D+00 0.495038082849179D+03
 0.629454305544389D+03 0.000000000000000D+00 0.000000000000000D+00 -.629454305544389D+03
 0.221894149498126D+03 0.145275647346522D+03 -.126970562286652D+03 -.607883610418723D+02
 0.194603189452259D+03 -.180792017389330D+03 0.711492029611733D+02 0.110652027219388D+02
 0.166541171244344D+03 -.126189419908042D+03 0.573080365017137D+02 0.923470680369881D+02
 0.329497507872465D+03 0.302934524138393D+03 0.816531245920362D+02 -.426239097170546D+02
 0.211956370326375D+03 -.141228734187543D+03 -.831398017682711D+02 -.134416222695210D+03
0.935650442192D-05 0.000000000000D+00 0.000000000000D+00 0.675649308865D-07 0.000000000000D+00  7 2 -2 23 -13 13 23 21 0 0.83954335D-01 0.56797868D-01 0.18510698D+06 0.18510698D+06 0.18510698D+06 0.11004159D+01  1  2  2  2  7  2       -2 0.188643748514D-03 0.100000000000D+01
-.518672629326D-06 0.000000000000D+00 -.359314406044D-07 0.675649308865D-07 0.000000000000D+00  7 2 -2 23 -13 13 23 21 2 0.83954335D-01 0.56797868D-01 0.18510698D+06 0.18510698D+06 0.18510698D+06 0.11004159D+01  1  2  3  2  7  2       -2 -.126629767719D-04 0.100000000000D+01
0.601949124975D-06 0.000000000000D+00 0.000000000000D+00 0.675649308865D-07 0.000000000000D+00  7 2 -2 23 -13 13 23 21 2 0.83954335D-01 0.56797868D-01 0.18510698D+06 0.18510698D+06 0.18510698D+06 0.11004159D+01  1  2 15  2  7  2       -2 0.146961057061D-04 0.100000000000D+01
0.739529770278D-05 0.000000000000D+00 0.000000000000D+00 0.675649308865D-07 0.000000000000D+00  7 2 -2 23 -13 13 23 21 2 0.83954335D-01 0.81657675D-01 0.26878979D+06 0.26878979D+06 0.26878979D+06 0.10880993D+01  1  2 12  2  7  2       -2 0.803092825588D-04 0.100000000000D+01
-.870826268518D-05 0.000000000000D+00 0.000000000000D+00 0.675649308865D-07 0.000000000000D+00  7 2 -2 23 -13 13 23 21 2 0.83954335D-01 0.56797868D-01 0.18510698D+06 0.18510698D+06 0.18510698D+06 0.11004159D+01  1  2  4  2  7  2       -2 -.212605257866D-03 0.100000000000D+01
-.118849582290D-04 0.000000000000D+00 -.375673508630D-05 0.675649308865D-07 0.000000000000D+00  7 2 -2 23 -13 13 23 21 2 0.83954335D-01 0.85676915D-01 0.18510698D+06 0.18510698D+06 0.18510698D+06 0.11004159D+01  1  2  5  2  7  2       -2 -.119582846954D-03 0.100000000000D+01
0.126424514287D-04 0.000000000000D+00 0.346022202409D-05 0.675649308865D-07 0.000000000000D+00  7 2 -2 23 -13 13 23 21 2 0.83954335D-01 0.56797868D-01 0.18510698D+06 0.18510698D+06 0.18510698D+06 0.11004159D+01  1  2  6  2  7  2       -2 0.308655324629D-03 0.100000000000D+01
0.328020648593D-06 0.000000000000D+00 0.000000000000D+00 0.675649308865D-07 0.000000000000D+00  7 2 21 23 -13 13 23 2 2 0.83954335D-01 0.81657675D-01 0.26878979D+06 0.26878979D+06 0.26878979D+06 0.10880993D+01  1  2 12  4  7  2       -2 0.341216519862D-04 0.100000000000D+01
-.444194915198D-06 0.000000000000D+00 -.182454320050D-06 0.675649308865D-07 0.000000000000D+00  7 2 21 23 -13 13 23 2 2 0.83954335D-01 0.85676915D-01 0.18510698D+06 0.18510698D+06 0.18510698D+06 0.11004159D+01  1  2  5  4  7  2       -2 -.429512376304D-04 0.100000000000D+01
  </mgrwgt>
  </event>
  <event>
  8     66 0.55102590E-06 0.30907441E+03 0.75467711E-02 0.98253328E-01
        2 -1    0    0  501    0 0.00000000E+00 0.00000000E+00 0.53634749E+03 0.53634758E+03 0.32000000E+00 0.0000E+00 0.9000E+01
       -2 -1    0    0    0  501 0.00000000E+00 0.00000000E+00 -.36497271E+03 0.36497285E+03 0.32000000E+00 0.0000E+00 0.9000E+01
       25  2    1    2    0    0 0.26652238E+03 -.50144791E+02 -.18507488E+03 0.44444581E+03 0.29955080E+03 0.0000E+00 0.0000E+00
       23  2    1    2    0    0 -.26652238E+03 0.50144791E+02 0.35644966E+03 0.45687463E+03 0.90163119E+02 0.0000E+00 0.0000E+00
       23  1    3    3    0    0 0.20988738E+03 -.65451051E+02 -.96456241E+01 0.23821176E+03 0.91188000E+02 0.0000E+00 0.9000E+01
      -13  1    4    4    0    0 -.25899126E+03 0.51468637E+02 0.36153009E+03 0.44769355E+03 0.10565837E+00 0.0000E+00 0.9000E+01
       13  1    4    4    0    0 -.75311222E+01 -.13238466E+01 -.50804312E+01 0.91810847E+01 0.10565837E+00 0.0000E+00 0.9000E+01
       23  1    3    3    0    0 0.56634999E+02 0.15306260E+02 -.17542926E+03 0.20623405E+03 0.91188000E+02 0.0000E+00 0.9000E+01
#aMCatNLO 1  0  0  1  2 0.11085625D+03 0.00000000D+00  -5  7  0 0.00000000D+00 0.00000000D+00 0.00000000D+00 0.00000000D+00 0.00000000D+00
  <mgrwgt>
 0.2781009937D-03    4    2    0
 0.442439040114558D+03 0.000000000000000D+00 0.000000000000000D+00 0.442439040114558D+03
 0.442439040114558D+03 0.000000000000000D+00 0.000000000000000D+00 -.442439040114558D+03
 0.244506164735500D+03 0.209887383667352D+03 -.654510511659981D+02 -.559594436016215D+02
 0.385995165480180D+03 -.258991605743885D+03 0.514687099348730D+02 0.281543225501726D+03
 0.103350966459948D+02 -.753077685905691D+01 -.132391908453528D+01 -.695333451221413D+01
 0.244041653367441D+03 0.566349989355904D+02 0.153062603156603D+02 -.218630447387890D+03
 0.000000000000000D+00 0.000000000000000D+00 0.000000000000000D+00 -.000000000000000D+00
 0.471822033416393D+03 0.000000000000000D+00 0.000000000000000D+00 0.471822033416393D+03
 0.564405982030540D+03 0.000000000000000D+00 0.000000000000000D+00 -.564405982030540D+03
 0.253036585989118D+03 0.208038612832095D+03 -.964403377623840D+02 -.559594436016215D+02
 0.384508179650048D+03 -.261854644368947D+03 0.347816248756359D+01 0.281543225501726D+03
 0.106376329091605D+02 -.760870739001293D+01 -.263019864733997D+01 -.695333451221413D+01
 0.243612603022309D+03 0.548229717970402D+02 -.150671246632189D+02 -.218630447387890D+03
 0.144433013876298D+03 0.660176712982416D+01 0.110659498585379D+03 -.925839486141465D+02
0.165734032028D-04 0.000000000000D+00 0.000000000000D+00 0.615748905362D-06 0.000000000000D+00  7 2 -2 23 -13 13 23 21 0 0.82515016D-01 0.56149666D-01 0.95526993D+05 0.95526993D+05 0.95526993D+05 0.11233566D+01  1  2  2  1  7  1        2 0.353260896645D-03 0.100000000000D+01
-.776687947722D-06 0.000000000000D+00 -.636462321761D-07 0.615748905362D-06 0.000000000000D+00  7 2 -2 23 -13 13 23 21 2 0.82515016D-01 0.56149666D-01 0.95526993D+05 0.95526993D+05 0.95526993D+05 0.11233566D+01  1  2  3  1  7  1        2 -.208913115920D-04 0.100000000000D+01
0.105026653483D-05 0.000000000000D+00 0.000000000000D+00 0.615748905362D-06 0.000000000000D+00  7 2 -2 23 -13 13 23 21 2 0.82515016D-01 0.56149666D-01 0.95526993D+05 0.95526993D+05 0.95526993D+05 0.11233566D+01  1  2 15  1  7  1        2 0.282500140475D-04 0.100000000000D+01
-.306784023675D-05 0.000000000000D+00 0.000000000000D+00 0.615748905362D-06 0.000000000000D+00  7 2 -2 23 -13 13 23 21 2 0.82515016D-01 0.56149666D-01 0.95526993D+05 0.95526993D+05 0.95526993D+05 0.11233566D+01  1  2  4  1  7  1        2 -.825186054301D-04 0.100000000000D+01
  </mgrwgt>
  </event>
  <event>
  8     66 0.55102590E-06 0.37057133E+03 0.75467711E-02 0.88067510E-01
        2 -1    0    0  501    0 0.00000000E+00 0.00000000E+00 0.39823613E+03 0.39823626E+03 0.32000000E+00 0.0000E+00 0.9000E+01
       -2 -1    0    0    0  501 0.00000000E+00 0.00000000E+00 -.35096682E+03 0.35096697E+03 0.32000000E+00 0.0000E+00 0.9000E+01
       25  2    1    2    0    0 0.11192332E+03 0.28239609E+03 -.13245240E+02 0.42706950E+03 0.29989755E+03 0.0000E+00 0.0000E+00
       23  2    1    2    0    0 -.11192332E+03 -.28239609E+03 0.60514552E+02 0.32213373E+03 0.88508468E+02 0.0000E+00 0.0000E+00
       23  1    3    3    0    0 0.93758871E+02 0.30360605E+03 0.14086447E+01 0.33058221E+03 0.91188000E+02 0.0000E+00 0.9000E+01
      -13  1    4    4    0    0 -.67020001E+02 -.25251716E+03 0.60609272E+02 0.26819786E+03 0.10565837E+00 0.0000E+00 0.9000E+01
       13  1    4    4    0    0 -.44903315E+02 -.29878932E+02 -.94719942E-01 0.53935873E+02 0.10565837E+00 0.0000E+00 0.9000E+01
       23  1    3    3    0    0 0.18164446E+02 -.21209960E+02 -.14653885E+02 0.96487290E+02 0.91188000E+02 0.0000E+00 0.9000E+01
#aMCatNLO 1  0  0  2  2 0.78559116D+03 0.00000000D+00  -5  7  0 0.00000000D+00 0.00000000D+00 0.00000000D+00 0.00000000D+00 0.00000000D+00
  <mgrwgt>
 0.2061433335D-03    5    2    0
 0.373855283097425D+03 0.000000000000000D+00 0.000000000000000D+00 0.373855283097425D+03
 0.373855283097425D+03 0.000000000000000D+00 0.000000000000000D+00 -.373855283097425D+03
 0.331153099900636D+03 0.937588708113944D+02 0.303606051547737D+03 -.194875303095623D+02
 0.264901924103721D+03 -.670200333410489D+02 -.252517476302697D+03 0.437752062991721D+02
 0.540492332753018D+02 -.449032830908768D+02 -.298786148850547D+02 -.350473363597755D+01
 0.976063089151914D+02 0.181644456205313D+02 -.212099603599852D+02 -.207829423536323D+02
 0.000000000000000D+00 0.000000000000000D+00 -.000000000000000D+00 -.000000000000000D+00
 0.917096550999625D+03 0.000000000000000D+00 0.000000000000000D+00 0.917096550999625D+03
 0.953894848695339D+03 0.000000000000000D+00 0.000000000000000D+00 -.953894848695339D+03
 0.696008892887285D+03 -.143488443867547D+03 0.674643928508282D+03 -.194875303095623D+02
 0.198645098311733D+03 -.174087163032044D+03 -.850721227206509D+02 0.437752062991721D+02
 0.773645110348433D+02 -.752563901649273D+02 0.175914794473196D+02 -.350473363597755D+01
 0.112520366966791D+03 -.303692715004695D+02 0.546933112363625D+02 -.207829423536323D+02
 0.786452530494312D+03 0.423201268564987D+03 -.661856596471313D+03 -.367982976957137D+02
0.624887254332D-05 0.000000000000D+00 0.000000000000D+00 0.789088618186D-07 0.000000000000D+00  7 2 -2 23 -13 13 23 21 0 0.61267119D-01 0.53994917D-01 0.13732311D+06 0.13732311D+06 0.13732311D+06 0.11105908D+01  1  2  2  2  7  2       -2 0.199340323623D-03 0.100000000000D+01
-.347126728931D-06 0.000000000000D+00 -.239973159323D-07 0.789088618186D-07 0.000000000000D+00  7 2 -2 23 -13 13 23 21 2 0.61267119D-01 0.53994917D-01 0.13732311D+06 0.13732311D+06 0.13732311D+06 0.11105908D+01  1  2  3  2  7  2       -2 -.136580822182D-04 0.100000000000D+01
0.395678889803D-06 0.000000000000D+00 0.000000000000D+00 0.789088618186D-07 0.000000000000D+00  7 2 -2 23 -13 13 23 21 2 0.61267119D-01 0.53994917D-01 0.13732311D+06 0.13732311D+06 0.13732311D+06 0.11105908D+01  1  2 15  2  7  2       -2 0.155684202872D-04 0.100000000000D+01
0.362880558913D-05 0.000000000000D+00 -.251973119125D-05 0.789088618186D-07 0.000000000000D+00  7 2 -2 23 -13 13 23 21 2 0.61267119D-01 0.26690553D+00 0.13732311D+06 0.13732311D+06 0.13732311D+06 0.11105908D+01  1  2  5  2  7  2       -2 0.209388477570D-05 0.100000000000D+01
0.640178058613D-06 0.000000000000D+00 -.490405455327D-06 0.789088618186D-07 0.000000000000D+00  7 2 21 23 -13 13 23 2 2 0.61267119D-01 0.26690553D+00 0.13732311D+06 0.13732311D+06 0.13732311D+06 0.11105908D+01  1  2  5  4  7  2       -2 0.279878707757D-05 0.100000000000D+01
  </mgrwgt>
  </event>
  <event>
  8     66 0.55102590E-06 0.28456960E+03 0.75467711E-02 0.10110570E+00
        4 -1    0    0  501    0 0.00000000E+00 0.00000000E+00 0.17686559E+03 0.17687238E+03 0.15500000E+01 0.0000E+00 0.9000E+01
       -4 -1    0    0    0  501 0.00000000E+00 0.00000000E+00 -.46656696E+03 0.46656953E+03 0.15500000E+01 0.0000E+00 0.9000E+01
       25  2    1    2    0    0 0.15138039E+03 -.11873691E+03 -.22174943E+03 0.42001690E+03 0.30037795E+03 0.0000E+00 0.0000E+00
       23  2    1    2    0    0 -.15138039E+03 0.11873691E+03 -.67951940E+02 0.22342501E+03 0.91031829E+02 0.0000E+00 0.0000E+00
       23  1    3    3    0    0 0.67638707E+02 0.68081733E+02 -.89292813E+02 0.15968273E+03 0.91188000E+02 0.0000E+00 0.9000E+01
      -11  1    4    4    0    0 -.47238298E+02 -.87282513E+01 -.19475581E+02 0.51835677E+02 0.51099893E-03 0.0000E+00 0.9000E+01
       11  1    4    4    0    0 -.10414209E+03 0.12746516E+03 -.48476359E+02 0.17158933E+03 0.51099893E-03 0.0000E+00 0.9000E+01
       23  1    3    3    0    0 0.83741679E+02 -.18681864E+03 -.13245662E+03 0.26033417E+03 0.91188000E+02 0.0000E+00 0.9000E+01
#aMCatNLO 1  0  0  2  2 0.16829384D+02 0.00000000D+00  -5  7  0 0.00000000D+00 0.00000000D+00 0.00000000D+00 0.00000000D+00 0.00000000D+00
  <mgrwgt>
 0.1690704842D-04    4    2    0
 0.287267563694113D+03 0.000000000000000D+00 0.000000000000000D+00 0.287267563694113D+03
 0.287267563694113D+03 0.000000000000000D+00 0.000000000000000D+00 -.287267563694113D+03
 0.133809594384977D+03 0.676387071302347D+02 0.680817330452729D+02 -.194843303393908D+02
 0.482322893636836D+02 -.472382975141274D+02 -.872825126965893D+01 0.432603918181371D+01
 0.167725343339181D+03 -.104142088856909D+03 0.127465161224943D+03 0.322311774632153D+02
 0.224767900300385D+03 0.837416792408017D+02 -.186818643000557D+03 -.170728863056382D+02
 0.000000000000000D+00 -.000000000000000D+00 0.000000000000000D+00 0.000000000000000D+00
 0.351623908214615D+03 0.000000000000000D+00 0.000000000000000D+00 0.351623908214615D+03
 0.288493124201084D+03 0.000000000000000D+00 0.000000000000000D+00 -.288493124201084D+03
 0.135806605604394D+03 0.715858386590898D+02 0.680000835035343D+02 -.194843303393908D+02
 0.468748483515335D+02 -.458459465281344D+02 -.875705315252362D+01 0.432603918181371D+01
 0.164670170087520D+03 -.992758797376195D+02 0.127364499835351D+03 0.322311774632153D+02
 0.227429935138415D+03 0.903617722975648D+02 -.186955584868442D+03 -.170728863056382D+02
 0.653354732338368D+02 -.168257846909007D+02 0.348054682080184D+00 0.631307840135313D+02
0.333928819307D-05 0.000000000000D+00 0.000000000000D+00 0.149161085584D-06 0.000000000000D+00  7 4 -4 23 -11 11 23 21 0 0.27210811D-01 0.71780253D-01 0.80979856D+05 0.80979856D+05 0.80979856D+05 0.11293192D+01  1  2  2  2  7  2       -4 0.179135564973D-04 0.100000000000D+01
-.185495926402D-06 0.000000000000D+00 -.128237459162D-07 0.149161085584D-06 0.000000000000D+00  7 4 -4 23 -11 11 23 21 2 0.27210811D-01 0.71780253D-01 0.80979856D+05 0.80979856D+05 0.80979856D+05 0.11293192D+01  1  2  3  2  7  2       -4 -.126909967440D-05 0.100000000000D+01
0.212875003161D-06 0.000000000000D+00 0.000000000000D+00 0.149161085584D-06 0.000000000000D+00  7 4 -4 23 -11 11 23 21 2 0.27210811D-01 0.71780253D-01 0.80979856D+05 0.80979856D+05 0.80979856D+05 0.11293192D+01  1  2 15  2  7  2       -4 0.145641795181D-05 0.100000000000D+01
-.174493721859D-06 0.000000000000D+00 0.000000000000D+00 0.149161085584D-06 0.000000000000D+00  7 4 -4 23 -11 11 23 21 2 0.27210811D-01 0.71780253D-01 0.80979856D+05 0.80979856D+05 0.80979856D+05 0.11293192D+01  1  2  4  2  7  2       -4 -.119382635452D-05 0.100000000000D+01
  </mgrwgt>
  </event>
  <event>
  8     66 0.55102590E-06 0.75570441E+03 0.75467711E-02 0.85835303E-01
        2 -1    0    0  501    0 0.00000000E+00 0.00000000E+00 0.62391893E+03 0.62391901E+03 0.32000000E+00 0.0000E+00 0.9000E+01
       -2 -1    0    0    0  501 0.00000000E+00 0.00000000E+00 -.21413391E+04 0.21413391E+04 0.32000000E+00 0.0000E+00 0.9000E+01
       25  2    1    2    0    0 -.55753379E+03 -.97905844E+03 -.61555820E+03 0.13191305E+04 0.30297508E+03 0.0000E+00 0.0000E+00
       23  2    1    2    0    0 0.55753379E+03 0.97905844E+03 -.90186200E+03 0.14461277E+04 0.92362856E+02 0.0000E+00 0.0000E+00
       23  1    3    3    0    0 -.42561223E+03 -.81109504E+03 -.40502452E+03 0.10056744E+04 0.91188000E+02 0.0000E+00 0.9000E+01
      -13  1    4    4    0    0 0.35897786E+03 0.55338623E+03 -.55847728E+03 0.86429063E+03 0.10565837E+00 0.0000E+00 0.9000E+01
       13  1    4    4    0    0 0.19855594E+03 0.42567222E+03 -.34338472E+03 0.58183707E+03 0.10565837E+00 0.0000E+00 0.9000E+01
       23  1    3    3    0    0 -.13192157E+03 -.16796340E+03 -.21053368E+03 0.31345603E+03 0.91188000E+02 0.0000E+00 0.9000E+01
#aMCatNLO 1  0  0  2  1 0.70268560D+02 0.00000000D+00  -5  7  0 0.00000000D+00 0.00000000D+00 0.00000000D+00 0.00000000D+00 0.00000000D+00
  <mgrwgt>
 0.2907345251D-03    9    2    0
 0.115586424504285D+04 0.000000000000000D+00 0.000000000000000D+00 0.115586424504285D+04
 0.115586424504285D+04 0.000000000000000D+00 0.000000000000000D+00 -.115586424504285D+04
 0.937115676360406D+03 -.425612225308330D+03 -.811095039052318D+03 0.175640572844748D+03
 0.667268073325845D+03 0.358978065527158D+03 0.553386394248869D+03 -.100722037363230D+03
 0.470587352175407D+03 0.198555725353676D+03 0.425672048938296D+03 -.288337772310269D+02
 0.236757388224049D+03 -.131921565572505D+03 -.167963404134847D+03 -.460847582504912D+02
 0.000000000000000D+00 0.000000000000000D+00 0.000000000000000D+00 -.000000000000000D+00
 0.117785133364963D+04 0.000000000000000D+00 0.000000000000000D+00 0.117785133364963D+04
 0.121393804048718D+04 0.000000000000000D+00 0.000000000000000D+00 -.121393804048718D+04
 0.965389081844002D+03 -.438731139673054D+03 -.836854948155030D+03 0.175640572844748D+03
 0.647635219584853D+03 0.349911016615349D+03 0.535582607342073D+03 -.100722037363230D+03
 0.456535888214160D+03 0.192162653092614D+03 0.413118802857594D+03 -.288337772310269D+02
 0.243236014598439D+03 -.135231408725383D+03 -.174462513466000D+03 -.460847582504912D+02
 0.789931698953621D+02 0.318888786904743D+02 0.626160514213620D+02 -.360867068375476D+02
0.993545656914D-03 0.000000000000D+00 0.000000000000D+00 0.698638391159D-07 0.000000000000D+00  7 2 -2 23 -13 13 23 21 0 0.95987535D-01 0.32943680D+00 0.13019530D+07 0.13019530D+07 0.13019530D+07 0.10403199D+01  1  2  2  2  7  2       -2 0.943116536495D-04 0.100000000000D+01
-.551857859123D-04 0.000000000000D+00 -.381547692913D-05 0.698638391159D-07 0.000000000000D+00  7 2 -2 23 -13 13 23 21 2 0.95987535D-01 0.32943680D+00 0.13019530D+07 0.13019530D+07 0.13019530D+07 0.10403199D+01  1  2  3  2  7  2       -2 -.566941879554D-05 0.100000000000D+01
0.624290388787D-04 0.000000000000D+00 0.000000000000D+00 0.698638391159D-07 0.000000000000D+00  7 2 -2 23 -13 13 23 21 2 0.95987535D-01 0.32943680D+00 0.13019530D+07 0.13019530D+07 0.13019530D+07 0.10403199D+01  1  2 15  2  7  2       -2 0.641354219307D-05 0.100000000000D+01
0.260319223165D-02 0.000000000000D+00 0.000000000000D+00 0.698638391159D-07 0.000000000000D+00  7 2 -2 23 -13 13 23 21 2 0.95987535D-01 0.34901044D+00 0.13850409D+07 0.13850409D+07 0.13850409D+07 0.10385751D+01  1  2 12  2  7  2       -2 0.195725076514D-03 0.100000000000D+01
-.252912723830D-02 0.000000000000D+00 0.000000000000D+00 0.698638391159D-07 0.000000000000D+00  7 2 -2 23 -13 13 23 21 2 0.95987535D-01 0.32943680D+00 0.13019530D+07 0.13019530D+07 0.13019530D+07 0.10403199D+01  1  2  4  2  7  2       -2 -.259825628359D-03 0.100000000000D+01
-.109438806029D-01 0.000000000000D+00 -.160351529392D-02 0.698638391159D-07 0.000000000000D+00  7 2 -2 23 -13 13 23 21 2 0.95987535D-01 0.34860994D+00 0.13019530D+07 0.13019530D+07 0.13019530D+07 0.10403199D+01  1  2  5  2  7  2       -2 -.834648728315D-03 0.100000000000D+01
0.110195160327D-01 0.000000000000D+00 0.160095303288D-02 0.698638391159D-07 0.000000000000D+00  7 2 -2 23 -13 13 23 21 2 0.95987535D-01 0.32943680D+00 0.13019530D+07 0.13019530D+07 0.13019530D+07 0.10403199D+01  1  2  6  2  7  2       -2 0.113207142529D-02 0.100000000000D+01
0.329971879845D-04 0.000000000000D+00 0.000000000000D+00 0.698638391159D-07 0.000000000000D+00  7 2 21 23 -13 13 23 2 2 0.95987535D-01 0.34901044D+00 0.13850409D+07 0.13850409D+07 0.13850409D+07 0.10385751D+01  1  2 12  4  7  2       -2 0.168402382804D-04 0.100000000000D+01
-.105048685587D-03 0.000000000000D+00 -.156543241887D-04 0.698638391159D-07 0.000000000000D+00  7 2 21 23 -13 13 23 2 2 0.95987535D-01 0.34860994D+00 0.13019530D+07 0.13019530D+07 0.13019530D+07 0.10403199D+01  1  2  5  4  7  2       -2 -.544836353942D-04 0.100000000000D+01
  </mgrwgt>
  </event>
  <event>
  8     66 0.55102590E-06 0.13636339E+03 0.75467711E-02 0.10257996E+00
        2 -1    0    0  501    0 0.00000000E+00 0.00000000E+00 0.23594944E+03 0.23594965E+03 0.32000000E+00 0.0000E+00 0.9000E+01
       -2 -1    0    0    0  501 0.00000000E+00 0.00000000E+00 -.33983679E+03 0.33983694E+03 0.32000000E+00 0.0000E+00 0.9000E+01
       25  2    1    2    0    0 -.61780069E+02 0.14655418E+03 -.17029626E+03 0.38025847E+03 0.30050089E+03 0.0000E+00 0.0000E+00
       23  2    1    2    0    0 0.61780069E+02 -.14655418E+03 0.66408900E+02 0.19552813E+03 0.92337433E+02 0.0000E+00 0.0000E+00
       23  1    3    3    0    0 -.73749605E+02 0.90478811E+02 0.31570019E+02 0.15145077E+03 0.91188000E+02 0.0000E+00 0.9000E+01
      -13  1    4    4    0    0 0.50566112E+02 -.44187855E+02 0.63631295E+02 0.92511897E+02 0.10565837E+00 0.0000E+00 0.9000E+01
       13  1    4    4    0    0 0.11213958E+02 -.10236632E+03 0.27776050E+01 0.10301623E+03 0.10565837E+00 0.0000E+00 0.9000E+01
       23  1    3    3    0    0 0.11969536E+02 0.56075369E+02 -.20186628E+03 0.22880770E+03 0.91188000E+02 0.0000E+00 0.9000E+01
#aMCatNLO 1  0  0  2  1 0.92576835D+02 0.00000000D+00  -5  7  0 0.00000000D+00 0.00000000D+00 0.00000000D+00 0.00000000D+00 0.00000000D+00
  <mgrwgt>
 0.1370649499D-03    9    2    0
 0.283168511026910D+03 0.000000000000000D+00 0.000000000000000D+00 0.283168511026910D+03
 0.283168511026910D+03 0.000000000000000D+00 0.000000000000000D+00 -.283168511026910D+03
 0.159768914781813D+03 -.737496051902981D+02 0.904788114727621D+02 0.598785036161552D+02
 0.105727854281188D+03 0.505661627809524D+02 -.441877811865805D+02 0.816632251770720D+02
 0.105244615789865D+03 0.112139075243818D+02 -.102366401055149D+03 0.217208969844065D+02
 0.195595637200954D+03 0.119695348849639D+02 0.560753707689676D+02 -.163262625777634D+03
 0.000000000000000D+00 -.000000000000000D+00 0.000000000000000D+00 -.000000000000000D+00
 0.302438833806787D+03 0.000000000000000D+00 0.000000000000000D+00 0.302438833806787D+03
 0.425053555258195D+03 0.000000000000000D+00 0.000000000000000D+00 -.425053555258195D+03
 0.146089390437593D+03 -.715495728016351D+02 0.657425439956592D+02 0.598785036161552D+02
 0.115058194310505D+03 0.521542722080226D+02 -.620438362943828D+02 0.816632251770720D+02
 0.123471497845966D+03 0.128590577433598D+02 -.120863799578171D+03 0.217208969844065D+02
 0.189234638303816D+03 0.147376110032215D+02 0.249522511226184D+02 -.163262625777634D+03
 0.153638668167100D+03 -.820136815296872D+01 0.922128407542760D+02 -.122614721451408D+03
0.230736156106D-05 0.000000000000D+00 0.000000000000D+00 0.894192487169D-07 0.000000000000D+00  7 2 -2 23 -13 13 23 21 0 0.36299942D-01 0.52282612D-01 0.45363141D+05 0.45363141D+05 0.45363141D+05 0.11510318D+01  1  2  2  2  7  2       -2 0.140099835069D-03 0.100000000000D+01
-.115543784499D-06 0.000000000000D+00 -.886087593671D-08 0.894192487169D-07 0.000000000000D+00  7 2 -2 23 -13 13 23 21 2 0.36299942D-01 0.52282612D-01 0.45363141D+05 0.45363141D+05 0.45363141D+05 0.11510318D+01  1  2  3  2  7  2       -2 -.929486787813D-05 0.100000000000D+01
0.144909956941D-06 0.000000000000D+00 0.000000000000D+00 0.894192487169D-07 0.000000000000D+00  7 2 -2 23 -13 13 23 21 2 0.36299942D-01 0.52282612D-01 0.45363141D+05 0.45363141D+05 0.45363141D+05 0.11510318D+01  1  2 15  2  7  2       -2 0.116572164382D-04 0.100000000000D+01
0.245824297899D-05 0.000000000000D+00 0.000000000000D+00 0.894192487169D-07 0.000000000000D+00  7 2 -2 23 -13 13 23 21 2 0.36299942D-01 0.79544473D-01 0.68673222D+05 0.68673222D+05 0.68673222D+05 0.11353668D+01  1  2 12  2  7  2       -2 0.800462521891D-04 0.100000000000D+01
-.318775382808D-05 0.000000000000D+00 0.000000000000D+00 0.894192487169D-07 0.000000000000D+00  7 2 -2 23 -13 13 23 21 2 0.36299942D-01 0.52282612D-01 0.45363141D+05 0.45363141D+05 0.45363141D+05 0.11510318D+01  1  2  4  2  7  2       -2 -.256437425765D-03 0.100000000000D+01
-.342455647612D-05 0.000000000000D+00 -.879780391367D-06 0.894192487169D-07 0.000000000000D+00  7 2 -2 23 -13 13 23 21 2 0.36299942D-01 0.81986165D-01 0.45363141D+05 0.45363141D+05 0.45363141D+05 0.11510318D+01  1  2  5  2  7  2       -2 -.107710136311D-03 0.100000000000D+01
0.353830076628D-05 0.000000000000D+00 0.797684724917D-06 0.894192487169D-07 0.000000000000D+00  7 2 -2 23 -13 13 23 21 2 0.36299942D-01 0.52282612D-01 0.45363141D+05 0.45363141D+05 0.45363141D+05 0.11510318D+01  1  2  6  2  7  2       -2 0.284637016854D-03 0.100000000000D+01
0.121227199145D-06 0.000000000000D+00 0.000000000000D+00 0.894192487169D-07 0.000000000000D+00  7 2 21 23 -13 13 23 2 2 0.36299942D-01 0.79544473D-01 0.68673222D+05 0.68673222D+05 0.68673222D+05 0.11353668D+01  1  2 12  4  7  2       -2 0.396914694711D-04 0.100000000000D+01
-.142924623184D-06 0.000000000000D+00 -.457092014709D-07 0.894192487169D-07 0.000000000000D+00  7 2 21 23 -13 13 23 2 2 0.36299942D-01 0.81986165D-01 0.45363141D+05 0.45363141D+05 0.45363141D+05 0.11510318D+01  1  2  5  4  7  2       -2 -.456244101349D-04 0.100000000000D+01
  </mgrwgt>
  </event>
  <event>
  8     66 0.55102590E-06 0.31473036E+03 0.75467711E-02 0.89200192E-01
        2 -1    0    0  501    0 0.00000000E+00 0.00000000E+00 0.24398233E+04 0.24398233E+04 0.32000000E+00 0.0000E+00 0.9000E+01
       -2 -1    0    0    0  501 0.00000000E+00 0.00000000E+00 -.96786435E+02 0.96786964E+02 0.32000000E+00 0.0000E+00 0.9000E+01
       25  2    1    2    0    0 -.16611838E+03 0.19673478E+03 0.36042877E+03 0.53525343E+03 0.30047870E+03 0.0000E+00 0.0000E+00
       23  2    1    2    0    0 0.16611838E+03 -.19673478E+03 0.19826081E+04 0.20013568E+04 0.91621540E+02 0.0000E+00 0.0000E+00
       23  1    3    3    0    0 -.15324572E+03 0.36375425E+02 0.27919558E+03 0.33327593E+03 0.91188000E+02 0.0000E+00 0.9000E+01
      -11  1    4    4    0    0 0.90651247E+02 -.68011055E+02 0.59064532E+03 0.60141919E+03 0.51099893E-03 0.0000E+00 0.9000E+01
       11  1    4    4    0    0 0.75467135E+02 -.12872373E+03 0.13919627E+04 0.13999376E+04 0.51099893E-03 0.0000E+00 0.9000E+01
       23  1    3    3    0    0 -.12872658E+02 0.16035936E+03 0.81233192E+02 0.20197750E+03 0.91188000E+02 0.0000E+00 0.9000E+01
#aMCatNLO 1  0  0  1  2 0.70133789D+03 0.00000000D+00  -5  7  0 0.00000000D+00 0.00000000D+00 0.00000000D+00 0.00000000D+00 0.00000000D+00
  <mgrwgt>
 0.2698513477D-03    3    2    0
 0.485944949554951D+03 0.000000000000000D+00 0.000000000000000D+00 0.485944949554951D+03
 0.485944949554951D+03 0.000000000000000D+00 0.000000000000000D+00 -.485944949554951D+03
 0.196756462585539D+03 -.153245724603843D+03 0.363754245495863D+02 -.747691821852768D+02
 0.145759672366915D+03 0.906512473544566D+02 -.680110553267707D+02 0.916664049416713D+02
 0.298054506430214D+03 0.754671349572328D+02 -.128723725416455D+03 0.258014346228294D+03
 0.331319257727234D+03 -.128726577078468D+02 0.160359356193640D+03 -.274911568984689D+03
 0.000000000000000D+00 -.000000000000000D+00 -.000000000000000D+00 -.000000000000000D+00
 0.856460904789840D+03 0.000000000000000D+00 0.000000000000000D+00 0.856460904789840D+03
 0.107736051436553D+04 0.000000000000000D+00 0.000000000000000D+00 -.107736051436553D+04
 0.165873577818298D+03 -.562867082416335D+02 0.102177141988358D+03 -.747691821852768D+02
 0.206316484276271D+03 0.184788395492251D+03 -.412441275693910D+01 0.916664049416713D+02
 0.360454989175629D+03 0.251537580990918D+03 -.923264378309534D+01 0.258014346228294D+03
 0.465872705785637D+03 0.200278322690765D+03 0.305015326419151D+03 -.274911568984689D+03
 0.735303662099532D+03 -.580317590932301D+03 -.393835411867474D+03 -.220899609575685D+03
0.158728893329D-04 0.000000000000D+00 0.000000000000D+00 0.101506996259D-05 0.000000000000D+00  7 2 -2 23 -11 11 23 21 0 0.37535747D+00 0.14890263D-01 0.99055197D+05 0.99055197D+05 0.99055197D+05 0.11220605D+01  1  2  2  1  7  1        2 0.264017285332D-03 0.100000000000D+01
-.679523963689D-06 0.000000000000D+00 -.609560744662D-07 0.101506996259D-05 0.000000000000D+00  7 2 -2 23 -11 11 23 21 2 0.37535747D+00 0.14890263D-01 0.99055197D+05 0.99055197D+05 0.99055197D+05 0.11220605D+01  1  2  3  1  7  1        2 -.142302887616D-04 0.100000000000D+01
0.958111787518D-06 0.000000000000D+00 0.000000000000D+00 0.101506996259D-05 0.000000000000D+00  7 2 -2 23 -11 11 23 21 2 0.37535747D+00 0.14890263D-01 0.99055197D+05 0.99055197D+05 0.99055197D+05 0.11220605D+01  1  2 15  1  7  1        2 0.200643511205D-04 0.100000000000D+01
  </mgrwgt>
  </event>
  <event>
  7     66 0.55102590E-06 0.26751078E+03 0.75467711E-02 0.10194698E+00
        2 -1    0    0  501    0 0.00000000E+00 0.00000000E+00 0.14767557E+04 0.14767557E+04 0.32000000E+00 0.0000E+00 0.9000E+01
       -2 -1    0    0    0  501 0.00000000E+00 0.00000000E+00 -.86821383E+02 0.86821973E+02 0.32000000E+00 0.0000E+00 0.9000E+01
       25  2    1    2    0    0 -.36468148E+02 0.39026612E+02 0.92879623E+03 0.97769688E+03 0.30062561E+03 0.0000E+00 0.0000E+00
       23  1    3    3    0    0 -.40518942E+01 0.99011393E+02 0.77348359E+03 0.78511897E+03 0.91188000E+02 0.0000E+00 0.9000E+01
      -13  1    1    2    0    0 0.11376946E+03 -.12629067E+03 0.81044317E+02 0.18831096E+03 0.10565837E+00 0.0000E+00 0.9000E+01
       13  1    1    2    0    0 -.77301316E+02 0.87264061E+02 0.38009376E+03 0.39756985E+03 0.10565837E+00 0.0000E+00 0.9000E+01
       23  1    3    3    0    0 -.32416254E+02 -.59984782E+02 0.15531264E+03 0.19257792E+03 0.91188000E+02 0.0000E+00 0.9000E+01
#aMCatNLO 1  0  0  2  1 0.15391435D+02 0.00000000D+00  -5  7  0 0.00000000D+00 0.00000000D+00 0.00000000D+00 0.00000000D+00 0.00000000D+00
  <mgrwgt>
 0.8041329719D-03    4    2    0
 0.358070466081351D+03 0.000000000000000D+00 0.000000000000000D+00 0.358070466081351D+03
 0.358070466081351D+03 0.000000000000000D+00 0.000000000000000D+00 -.358070466081351D+03
 0.213034411930293D+03 -.407720481268249D+01 0.990384797049337D+02 0.165055037066842D+03
 0.253884734693591D+03 0.113763051769311D+03 -.126282165341501D+03 -.188595443421177D+03
 0.130218760769587D+03 -.772554504671678D+02 0.872133326274071D+02 0.581580230192118D+02
 0.119003024769230D+03 -.324303964894602D+02 -.599696469908401D+02 -.346176166648776D+02
 0.000000000000000D+00 0.000000000000000D+00 -.000000000000000D+00 0.000000000000000D+00
 0.378858238970734D+03 0.000000000000000D+00 0.000000000000000D+00 0.378858238970734D+03
 0.361013519005759D+03 0.000000000000000D+00 0.000000000000000D+00 -.361013519005759D+03
 0.213324200836776D+03 -.864648549723541D+01 0.993681857842756D+02 0.165055037066842D+03
 0.251309355726063D+03 0.108348892115484D+03 -.125891495239218D+03 -.188595443421177D+03
 0.132039816033449D+03 -.800660728246412D+02 0.874161390080976D+02 0.581580230192118D+02
 0.119632938269235D+03 -.349878555483371D+02 -.597851081416006D+02 -.346176166648776D+02
 0.235654471109700D+02 0.153515217547295D+02 -.110772141155471D+01 0.178447199649749D+02
0.196365711578D-04 0.000000000000D+00 0.000000000000D+00 0.489704737262D-10 0.000000000000D+00  7 2 -2 23 -13 13 23 21 0 0.22719323D+00 0.13357184D-01 0.71562018D+05 0.71562018D+05 0.71562018D+05 0.11338457D+01  1  2  2  2  7  2       -2 0.129714065316D-02 0.100000000000D+01
-.978159308836D-06 0.000000000000D+00 -.754096036738D-07 0.489704737262D-10 0.000000000000D+00  7 2 -2 23 -13 13 23 21 2 0.22719323D+00 0.13357184D-01 0.71562018D+05 0.71562018D+05 0.71562018D+05 0.11338457D+01  1  2  3  2  7  2       -2 -.830689941531D-04 0.100000000000D+01
0.117961324997D-05 0.000000000000D+00 0.000000000000D+00 0.489704737262D-10 0.000000000000D+00  7 2 -2 23 -13 13 23 21 2 0.22719323D+00 0.13357184D-01 0.71562018D+05 0.71562018D+05 0.71562018D+05 0.11338457D+01  1  2 15  2  7  2       -2 0.100177226020D-03 0.100000000000D+01
-.600674937812D-05 0.000000000000D+00 0.000000000000D+00 0.489704737262D-10 0.000000000000D+00  7 2 -2 23 -13 13 23 21 2 0.22719323D+00 0.13357184D-01 0.71562018D+05 0.71562018D+05 0.71562018D+05 0.11338457D+01  1  2  4  2  7  2       -2 -.510115913086D-03 0.100000000000D+01
  </mgrwgt>
  </event>
  <event>
  8     66 0.55102590E-06 0.23122486E+03 0.75467711E-02 0.98582736E-01
        2 -1    0    0  501    0 0.00000000E+00 0.00000000E+00 0.11011445E+04 0.11011445E+04 0.32000000E+00 0.0000E+00 0.9000E+01
       -2 -1    0    0    0  501 0.00000000E+00 0.00000000E+00 -.16332915E+03 0.16332947E+03 0.32000000E+00 0.0000E+00 0.9000E+01
       25  2    1    2    0    0 -.24175054E+03 -.22359412E+03 0.28853212E+03 0.53055159E+03 0.29966073E+03 0.0000E+00 0.0000E+00
       23  2    1    2    0    0 0.24175054E+03 0.22359412E+03 0.64928318E+03 0.73392238E+03 0.92928748E+02 0.0000E+00 0.0000E+00
       23  1    3    3    0    0 -.11482857E+03 -.73656148E+02 0.26635239E+03 0.31284130E+03 0.91188000E+02 0.0000E+00 0.9000E+01
      -13  1    4    4    0    0 0.86708062E+02 0.42686022E+02 0.26157350E+03 0.27885676E+03 0.10565837E+00 0.0000E+00 0.9000E+01
       13  1    4    4    0    0 0.15504248E+03 0.18090809E+03 0.38770968E+03 0.45506562E+03 0.10565837E+00 0.0000E+00 0.9000E+01
       23  1    3    3    0    0 -.12692197E+03 -.14993797E+03 0.22179727E+02 0.21771029E+03 0.91188000E+02 0.0000E+00 0.9000E+01
#aMCatNLO 1  0  0  2  1 0.15391435D+02 0.00000000D+00  -5  7  0 0.00000000D+00 0.00000000D+00 0.00000000D+00 0.00000000D+00 0.00000000D+00
  <mgrwgt>
 0.1110921164D-05    1    2    0
 0.424086334836282D+03 0.000000000000000D+00 0.000000000000000D+00 0.424086334836282D+03
 0.424086334836282D+03 0.000000000000000D+00 0.000000000000000D+00 -.424086334836282D+03
 0.171887557822618D+03 -.114828574033264D+03 -.736561476709309D+02 0.511786252842848D+02
 0.126506488077432D+03 0.867079733915117D+02 0.426858443885416D+02 0.816304940868269D+02
 0.249735341699452D+03 0.155042567027177D+03 0.180908272443302D+03 0.748447744665275D+02
 0.300043282073062D+03 -.126921966385425D+03 -.149937969160912D+03 -.207653893837639D+03
 0.000000000000000D+00 0.000000000000000D+00 0.000000000000000D+00 -.000000000000000D+00
 0.433010475053067D+03 0.000000000000000D+00 0.000000000000000D+00 0.433010475053067D+03
 0.502470788355239D+03 0.000000000000000D+00 0.000000000000000D+00 -.502470788355239D+03
 0.180179770081149D+03 -.124447863551941D+03 -.777365793810336D+02 0.511786252842848D+02
 0.120996923948707D+03 0.799456106601689D+02 0.398172999632374D+02 0.816304940868269D+02
 0.237498850589874D+03 0.141730207749377D+03 0.175261267762972D+03 0.748447744665275D+02
 0.310992641598982D+03 -.143616873837105D+03 -.157019825843861D+03 -.207653893837639D+03
 0.858130771895936D+02 0.463889189795003D+02 0.196778374986854D+02 -.694603133021717D+02
0.238095719186D-07 0.000000000000D+00 0.000000000000D+00 0.222059543800D-06 0.000000000000D+00  7 2 -2 23 -13 13 23 21 2 0.16940687D+00 0.25127590D-01 0.12801043D+06 0.12801043D+06 0.12801043D+06 0.11130261D+01  1  2 14  2  7  2       -2 0.111092116351D-05 0.100000000000D+01
  </mgrwgt>
  </event>
  <event>
  8     66 0.55102590E-06 0.21207155E+03 0.75467711E-02 0.99549025E-01
        2 -1    0    0  501    0 0.00000000E+00 0.00000000E+00 0.65303544E+03 0.65303552E+03 0.32000000E+00 0.0000E+00 0.9000E+01
       -2 -1    0    0    0  501 0.00000000E+00 0.00000000E+00 -.80098360E+02 0.80099000E+02 0.32000000E+00 0.0000E+00 0.9000E+01
       25  2    1    2    0    0 -.49121854E+02 0.85166300E+02 0.41484323E+03 0.52588202E+03 0.30788104E+03 0.0000E+00 0.0000E+00
       23  2    1    2    0    0 0.49121854E+02 -.85166300E+02 0.15809385E+03 0.20725250E+03 0.91069641E+02 0.0000E+00 0.0000E+00
       23  1    3    3    0    0 0.32114513E+02 0.15225968E+03 0.27172278E+03 0.32613321E+03 0.91188000E+02 0.0000E+00 0.9000E+01
      -11  1    4    4    0    0 -.48318961E+01 -.18346372E+01 0.82020572E+02 0.82183255E+02 0.51099893E-03 0.0000E+00 0.9000E+01
       11  1    4    4    0    0 0.53953750E+02 -.83331663E+02 0.76073275E+02 0.12506925E+03 0.51099893E-03 0.0000E+00 0.9000E+01
       23  1    3    3    0    0 -.81236367E+02 -.67093383E+02 0.14312046E+03 0.19974881E+03 0.91188000E+02 0.0000E+00 0.9000E+01
#aMCatNLO 1  0  0  1  1 0.19583886D+03 0.00000000D+00  -5  7  0 0.00000000D+00 0.00000000D+00 0.00000000D+00 0.00000000D+00 0.00000000D+00
  <mgrwgt>
 0.2165774197D-03    3    2    0
 0.228707960586412D+03 0.000000000000000D+00 0.000000000000000D+00 0.228707960586412D+03
 0.228707960586412D+03 0.000000000000000D+00 0.000000000000000D+00 -.228707960586412D+03
 0.182371132790806D+03 0.321145050263420D+02 0.152259681737765D+03 0.270116014969366D+02
 0.289862094571319D+02 -.483189466404365D+01 -.183463956795547D+01 0.285216975354553D+02
 0.105172084759400D+03 0.539537549507229D+02 -.833316716515525D+02 -.347273989684454D+02
 0.140886494165487D+03 -.812363653130213D+02 -.670933705182568D+02 -.208059000639465D+02
 0.000000000000000D+00 -.000000000000000D+00 -.000000000000000D+00 -.000000000000000D+00
 0.300799543596890D+03 0.000000000000000D+00 0.000000000000000D+00 0.300799543596890D+03
 0.433136535606651D+03 0.000000000000000D+00 0.000000000000000D+00 -.433136535606651D+03
 0.252704625528159D+03 0.976705467073942D+02 0.212779731435530D+03 0.270116014969366D+02
 0.294783049347910D+02 0.397738066112749D+01 0.629791033605664D+01 0.285216975354553D+02
 0.107178020238245D+03 0.859500959741539D+02 -.537932782521174D+02 -.347273989684454D+02
 0.108215360465751D+03 -.437023697897386D+02 -.324427232830787D+02 -.208059000639465D+02
 0.236359768036595D+03 -.143895653552937D+03 -.132841640236391D+03 -.132336992009761D+03
0.903190026199D-06 0.000000000000D+00 0.000000000000D+00 0.983730836241D-08 0.000000000000D+00  7 2 -2 23 -11 11 23 21 0 0.10046705D+00 0.12322880D-01 0.44974341D+05 0.44974341D+05 0.44974341D+05 0.11513641D+01  1  2  2  1  7  1        2 0.214220007006D-03 0.100000000000D+01
-.498292571120D-07 0.000000000000D+00 -.346848751600D-08 0.983730836241D-08 0.000000000000D+00  7 2 -2 23 -11 11 23 21 2 0.10046705D+00 0.12322880D-01 0.44974341D+05 0.44974341D+05 0.44974341D+05 0.11513641D+01  1  2  3  1  7  1        2 -.156671743855D-04 0.100000000000D+01
0.573269795830D-07 0.000000000000D+00 0.000000000000D+00 0.983730836241D-08 0.000000000000D+00  7 2 -2 23 -11 11 23 21 2 0.10046705D+00 0.12322880D-01 0.44974341D+05 0.44974341D+05 0.44974341D+05 0.11513641D+01  1  2 15  1  7  1        2 0.180245871236D-04 0.100000000000D+01
  </mgrwgt>
  </event>
  <event>
  8     66 0.55102590E-06 0.25928157E+03 0.75467711E-02 0.95703159E-01
        2 -1    0    0  501    0 0.00000000E+00 0.00000000E+00 0.49282020E+03 0.49282031E+03 0.32000000E+00 0.0000E+00 0.9000E+01
       -2 -1    0    0    0  501 0.00000000E+00 0.00000000E+00 -.15019565E+03 0.15019599E+03 0.32000000E+00 0.0000E+00 0.9000E+01
       25  2    1    2    0    0 0.88127779E+02 -.15264207E+03 0.19324554E+03 0.39451910E+03 0.29535635E+03 0.0000E+00 0.0000E+00
       23  2    1    2    0    0 -.88127779E+02 0.15264207E+03 0.14937901E+03 0.24849720E+03 0.91491326E+02 0.0000E+00 0.0000E+00
       23  1    3    3    0    0 -.58874789E+02 -.12505887E+03 0.12071840E+03 0.20492473E+03 0.91188000E+02 0.0000E+00 0.9000E+01
      -11  1    4    4    0    0 -.14634127E+02 0.46079280E+02 -.31407264E+01 0.48449168E+02 0.51099893E-03 0.0000E+00 0.9000E+01
       11  1    4    4    0    0 -.73493652E+02 0.10656279E+03 0.15251973E+03 0.20004803E+03 0.51099893E-03 0.0000E+00 0.9000E+01
       23  1    3    3    0    0 0.14700257E+03 -.27583202E+02 0.72527139E+02 0.18959437E+03 0.91188000E+02 0.0000E+00 0.9000E+01
#aMCatNLO 1  0  0  2  2 0.31513579D+03 0.00000000D+00  -5  7  0 0.00000000D+00 0.00000000D+00 0.00000000D+00 0.00000000D+00 0.00000000D+00
  <mgrwgt>
 0.2249585387D-03    5    2    0
 0.272065423623657D+03 0.000000000000000D+00 0.000000000000000D+00 0.272065423623657D+03
 0.272065423623657D+03 0.000000000000000D+00 0.000000000000000D+00 -.272065423623657D+03
 0.166152780914820D+03 -.588747893692145D+02 -.125058867029846D+03 0.136210945107303D+02
 0.592315157401000D+02 -.146341265519530D+02 0.460792803103562D+02 -.342186312264351D+02
 0.140365389694819D+03 -.734936523606634D+02 0.106562788827515D+03 0.542724398214307D+02
 0.178381160897575D+03 0.147002568281831D+03 -.275832021080255D+02 -.336749031057259D+02
 0.000000000000000D+00 0.000000000000000D+00 0.000000000000000D+00 -.000000000000000D+00
 0.441593502840152D+03 0.000000000000000D+00 0.000000000000000D+00 0.441593502840152D+03
 0.509595336031008D+03 0.000000000000000D+00 0.000000000000000D+00 -.509595336031008D+03
 0.270006833955768D+03 -.836498558432522D+02 -.239594671143894D+03 0.136210945107303D+02
 0.441562479872891D+02 -.205068360638325D+02 0.189295849916293D+02 -.342186312264351D+02
 0.110884386230727D+03 -.877653310945815D+02 0.405844310475421D+02 0.542724398214307D+02
 0.203752139179398D+03 0.125296345173212D+03 -.127931660128508D+03 -.336749031057259D+02
 0.322389231517978D+03 0.666256778284544D+02 0.308012315233230D+03 -.680018331908553D+02
0.176541036605D-05 0.000000000000D+00 0.000000000000D+00 0.524673086314D-08 0.000000000000D+00  7 2 -2 23 -11 11 23 21 0 0.75818527D-01 0.23107058D-01 0.67226932D+05 0.67226932D+05 0.67226932D+05 0.11361550D+01  1  2  2  2  7  2       -2 0.209686017813D-03 0.100000000000D+01
-.978021372296D-07 0.000000000000D+00 -.677964064885D-08 0.524673086314D-08 0.000000000000D+00  7 2 -2 23 -11 11 23 21 2 0.75818527D-01 0.23107058D-01 0.67226932D+05 0.67226932D+05 0.67226932D+05 0.11361550D+01  1  2  3  2  7  2       -2 -.149950285031D-04 0.100000000000D+01
0.112709296029D-06 0.000000000000D+00 0.000000000000D+00 0.524673086314D-08 0.000000000000D+00  7 2 -2 23 -11 11 23 21 2 0.75818527D-01 0.23107058D-01 0.67226932D+05 0.67226932D+05 0.67226932D+05 0.11361550D+01  1  2 15  2  7  2       -2 0.172805948254D-04 0.100000000000D+01
0.142057251827D-06 0.000000000000D+00 -.565847587855D-06 0.524673086314D-08 0.000000000000D+00  7 2 -2 23 -11 11 23 21 2 0.75818527D-01 0.67647650D-01 0.67226932D+05 0.67226932D+05 0.67226932D+05 0.11361550D+01  1  2  5  2  7  2       -2 0.294544455254D-05 0.100000000000D+01
0.468348002544D-07 0.000000000000D+00 -.688370842272D-07 0.524673086314D-08 0.000000000000D+00  7 2 21 23 -11 11 23 2 2 0.75818527D-01 0.67647650D-01 0.67226932D+05 0.67226932D+05 0.67226932D+05 0.11361550D+01  1  2  5  4  7  2       -2 0.100415099690D-04 0.100000000000D+01
  </mgrwgt>
  </event>
  <event>
  8     66 0.55102590E-06 0.24162704E+03 0.75467711E-02 0.10217541E+00
        2 -1    0    0  501    0 0.00000000E+00 0.00000000E+00 0.39295450E+03 0.39295463E+03 0.32000000E+00 0.0000E+00 0.9000E+01
       -2 -1    0    0    0  501 0.00000000E+00 0.00000000E+00 -.21129356E+03 0.21129380E+03 0.32000000E+00 0.0000E+00 0.9000E+01
       25  2    1    2    0    0 -.15519969E+03 -.42052820E+02 -.67929914E+01 0.34071517E+03 0.30030867E+03 0.0000E+00 0.0000E+00
       23  2    1    2    0    0 0.15519969E+03 0.42052820E+02 0.18845393E+03 0.26353326E+03 0.89886107E+02 0.0000E+00 0.0000E+00
       23  1    3    3    0    0 -.18136219E+03 0.19960781E+02 -.63970888E+02 0.21377138E+03 0.91188000E+02 0.0000E+00 0.9000E+01
      -11  1    4    4    0    0 0.22050751E+02 0.22253522E+02 -.74037451E+00 0.31336927E+02 0.51099893E-03 0.0000E+00 0.9000E+01
       11  1    4    4    0    0 0.13314894E+03 0.19799298E+02 0.18919431E+03 0.23219634E+03 0.51099893E-03 0.0000E+00 0.9000E+01
       23  1    3    3    0    0 0.26162499E+02 -.62013601E+02 0.57177896E+02 0.12694379E+03 0.91188000E+02 0.0000E+00 0.9000E+01
#aMCatNLO 1  0  0  2  1 0.52819784D+02 0.00000000D+00  -5  7  0 0.00000000D+00 0.00000000D+00 0.00000000D+00 0.00000000D+00 0.00000000D+00
  <mgrwgt>
 0.7727209765D-04    4    2    0
 0.288147301652318D+03 0.000000000000000D+00 0.000000000000000D+00 0.288147301652318D+03
 0.288147301652318D+03 0.000000000000000D+00 0.000000000000000D+00 -.288147301652318D+03
 0.244305656968955D+03 -.181362188542026D+03 0.199607811431179D+02 -.134459385936556D+03
 0.330903431118746D+02 0.220507507057322D+02 0.222535218470928D+02 -.106543871703725D+02
 0.183821008994969D+03 0.133148938581130D+03 0.197992978384201D+02 0.125177918610882D+03
 0.115077594228837D+03 0.261624992551638D+02 -.620136008286308D+02 0.199358544960469D+02
 0.000000000000000D+00 -.000000000000000D+00 -.000000000000000D+00 0.000000000000000D+00
 0.327126303064408D+03 0.000000000000000D+00 0.000000000000000D+00 0.327126303064408D+03
 0.307821021049493D+03 0.000000000000000D+00 0.000000000000000D+00 -.307821021049493D+03
 0.236832000210024D+03 -.168175435910127D+03 0.375744763035235D+02 -.134459385936556D+03
 0.360730300380734D+02 0.239463418724341D+02 0.247854844834644D+02 -.106543871703725D+02
 0.193358006740361D+03 0.143486450734320D+03 0.336072301524618D+02 0.125177918610882D+03
 0.112447079877821D+03 0.323983686582979D+02 -.536842792895883D+02 0.199358544960469D+02
 0.562372072476212D+02 -.316557253549256D+02 -.422829116498615D+02 0.193052820149156D+02
0.216483856512D-05 0.000000000000D+00 0.000000000000D+00 0.219833873025D-06 0.000000000000D+00  7 2 -2 23 -11 11 23 21 0 0.60454567D-01 0.32506730D-01 0.58383625D+05 0.58383625D+05 0.58383625D+05 0.11414205D+01  1  2  2  2  7  2       -2 0.182929869804D-03 0.100000000000D+01
-.115735273571D-06 0.000000000000D+00 -.831355010514D-08 0.219833873025D-06 0.000000000000D+00  7 2 -2 23 -11 11 23 21 2 0.60454567D-01 0.32506730D-01 0.58383625D+05 0.58383625D+05 0.58383625D+05 0.11414205D+01  1  2  3  2  7  2       -2 -.127413722937D-04 0.100000000000D+01
0.136405490377D-06 0.000000000000D+00 0.000000000000D+00 0.219833873025D-06 0.000000000000D+00  7 2 -2 23 -11 11 23 21 2 0.60454567D-01 0.32506730D-01 0.58383625D+05 0.58383625D+05 0.58383625D+05 0.11414205D+01  1  2 15  2  7  2       -2 0.150169700402D-04 0.100000000000D+01
-.980404449731D-06 0.000000000000D+00 0.000000000000D+00 0.219833873025D-06 0.000000000000D+00  7 2 -2 23 -11 11 23 21 2 0.60454567D-01 0.32506730D-01 0.58383625D+05 0.58383625D+05 0.58383625D+05 0.11414205D+01  1  2  4  2  7  2       -2 -.107933369897D-03 0.100000000000D+01
  </mgrwgt>
  </event>
  <event>
  8     66 0.55102590E-06 0.22850810E+03 0.75467711E-02 0.10257855E+00
        2 -1    0    0  501    0 0.00000000E+00 0.00000000E+00 0.11544910E+03 0.11544954E+03 0.32000000E+00 0.0000E+00 0.9000E+01
       -2 -1    0    0    0  501 0.00000000E+00 0.00000000E+00 -.77951691E+03 0.77951697E+03 0.32000000E+00 0.0000E+00 0.9000E+01
       25  2    1    2    0    0 -.12520970E+03 0.19393465E+02 -.65549424E+03 0.73814807E+03 0.31485918E+03 0.0000E+00 0.0000E+00
       23  2    1    2    0    0 0.12520970E+03 -.19393465E+02 -.85735726E+01 0.15681844E+03 0.92005117E+02 0.0000E+00 0.0000E+00
       23  1    3    3    0    0 0.42775377E+02 -.58292903E+02 -.13490701E+03 0.17816551E+03 0.91188000E+02 0.0000E+00 0.9000E+01
      -13  1    4    4    0    0 0.10013019E+03 0.37383239E+01 -.42374407E+02 0.10879168E+03 0.10565837E+00 0.0000E+00 0.9000E+01
       13  1    4    4    0    0 0.25079517E+02 -.23131789E+02 0.33800835E+02 0.48026757E+02 0.10565837E+00 0.0000E+00 0.9000E+01
       23  1    3    3    0    0 -.16798508E+03 0.77686369E+02 -.52058723E+03 0.55998256E+03 0.91188000E+02 0.0000E+00 0.9000E+01
#aMCatNLO 1  0  0  1  1 0.60262861D+02 0.00000000D+00  -5  7  0 0.00000000D+00 0.00000000D+00 0.00000000D+00 0.00000000D+00 0.00000000D+00
  <mgrwgt>
 0.2024550565D-03    4    2    0
 0.299991251304802D+03 0.000000000000000D+00 0.000000000000000D+00 0.299991251304802D+03
 0.299991251304802D+03 0.000000000000000D+00 0.000000000000000D+00 -.299991251304802D+03
 0.116444315852668D+03 0.427748410203667D+02 -.582925741809302D+02 -.403932190335993D+01
 0.115379368574645D+03 0.100130464508569D+03 0.373833108336356D+01 0.572041401534287D+02
 0.109050734060774D+03 0.250795889085587D+02 -.231318507248323D+02 0.103576031500610D+03
 0.259108084121518D+03 -.167984894437495D+03 0.776860938223990D+02 -.156740849750679D+03
 0.000000000000000D+00 -.000000000000000D+00 0.000000000000000D+00 -.000000000000000D+00
 0.306158255079930D+03 0.000000000000000D+00 0.000000000000000D+00 0.306158255079930D+03
 0.496430673000179D+03 0.000000000000000D+00 0.000000000000000D+00 -.496430673000179D+03
 0.123693012392867D+03 0.454460005983608D+02 -.700218171643435D+02 -.403932190335993D+01
 0.117826996568648D+03 0.102724527749186D+03 -.765237665053554D+01 0.572041401534287D+02
 0.112424159385956D+03 0.275431575142299D+02 -.339495476607545D+02 0.103576031500610D+03
 0.249057171459595D+03 -.162332335130841D+03 0.528653222997608D+02 -.156740849750679D+03
 0.199587588273043D+03 -.133813507309362D+02 0.587584191758728D+02 -.190272417920249D+03
0.953843418297D-05 0.000000000000D+00 0.000000000000D+00 0.508522611923D-09 0.000000000000D+00  7 2 -2 23 -13 13 23 21 0 0.17761439D-01 0.11992572D+00 0.52215954D+05 0.52215954D+05 0.52215954D+05 0.11456425D+01  1  2  2  1  7  1        2 0.208088306514D-03 0.100000000000D+01
-.482181659288D-06 0.000000000000D+00 -.366300987900D-07 0.508522611923D-09 0.000000000000D+00  7 2 -2 23 -13 13 23 21 2 0.17761439D-01 0.11992572D+00 0.52215954D+05 0.52215954D+05 0.52215954D+05 0.11456425D+01  1  2  3  1  7  1        2 -.138063701073D-04 0.100000000000D+01
0.591097415095D-06 0.000000000000D+00 0.000000000000D+00 0.508522611923D-09 0.000000000000D+00  7 2 -2 23 -13 13 23 21 2 0.17761439D-01 0.11992572D+00 0.52215954D+05 0.52215954D+05 0.52215954D+05 0.11456425D+01  1  2 15  1  7  1        2 0.169249690964D-04 0.100000000000D+01
-.305654640679D-06 0.000000000000D+00 0.000000000000D+00 0.508522611923D-09 0.000000000000D+00  7 2 -2 23 -13 13 23 21 2 0.17761439D-01 0.11992572D+00 0.52215954D+05 0.52215954D+05 0.52215954D+05 0.11456425D+01  1  2  4  1  7  1        2 -.875184904475D-05 0.100000000000D+01
  </mgrwgt>
  </event>
  <event>
  8     66 0.55102590E-06 0.25994502E+03 0.75467711E-02 0.98002989E-01
        2 -1    0    0  501    0 0.00000000E+00 0.00000000E+00 0.10407344E+03 0.10407393E+03 0.32000000E+00 0.0000E+00 0.9000E+01
       -2 -1    0    0    0  501 0.00000000E+00 0.00000000E+00 -.74098738E+03 0.74098745E+03 0.32000000E+00 0.0000E+00 0.9000E+01
       25  2    1    2    0    0 -.13472854E+03 0.12373143E+03 -.43060970E+03 0.55558825E+03 0.29965369E+03 0.0000E+00 0.0000E+00
       23  2    1    2    0    0 0.13472854E+03 -.12373143E+03 -.20630423E+03 0.28947313E+03 0.88159026E+02 0.0000E+00 0.0000E+00
       23  1    3    3    0    0 0.26415010E+02 0.11461314E+03 -.10935148E+03 0.18468059E+03 0.91188000E+02 0.0000E+00 0.9000E+01
      -13  1    4    4    0    0 0.58236784E+02 -.75130554E+02 -.16377770E+03 0.18936544E+03 0.10565837E+00 0.0000E+00 0.9000E+01
       13  1    4    4    0    0 0.76491755E+02 -.48600874E+02 -.42526530E+02 0.10010769E+03 0.10565837E+00 0.0000E+00 0.9000E+01
       23  1    3    3    0    0 -.16114355E+03 0.91182878E+01 -.32125823E+03 0.37090765E+03 0.91188000E+02 0.0000E+00 0.9000E+01
#aMCatNLO 1  0  0  2  1 0.19876275D+03 0.00000000D+00  -5  7  0 0.00000000D+00 0.00000000D+00 0.00000000D+00 0.00000000D+00 0.00000000D+00
  <mgrwgt>
 0.2863419860D-03    3    2    0
 0.277700096450662D+03 0.000000000000000D+00 0.000000000000000D+00 0.277700096450662D+03
 0.277700096450662D+03 0.000000000000000D+00 0.000000000000000D+00 -.277700096450662D+03
 0.155597637184777D+03 0.264150095264263D+02 0.114613141468529D+03 0.454031764078183D+02
 0.100311662430742D+03 0.582367593623135D+02 -.751305919281224D+02 -.320359740779794D+02
 0.103549494064035D+03 0.764917812885876D+02 -.486008381912326D+02 0.500945470418298D+02
 0.195941399221770D+03 -.161143550177328D+03 0.911828865082642D+01 -.634617493716688D+02
 0.000000000000000D+00 0.000000000000000D+00 -.000000000000000D+00 0.000000000000000D+00
 0.828374100716667D+03 0.000000000000000D+00 0.000000000000000D+00 0.828374100716667D+03
 0.313462949883519D+03 0.000000000000000D+00 0.000000000000000D+00 -.313462949883519D+03
 0.197341972995441D+03 -.174229992168928D+01 0.169009227336251D+03 0.454031764078183D+02
 0.730831972175118D+02 0.444034219329006D+02 -.484064685869312D+02 -.320359740779794D+02
 0.819505579588599D+02 0.616926989051081D+02 -.200110271661907D+02 0.500945470418298D+02
 0.237519183031914D+03 -.195724774262222D+03 0.759245024405023D+02 -.634617493716688D+02
 0.551942139396460D+03 0.913709533459024D+02 -.176516234023632D+03 0.514911150833148D+03
0.101145859027D-04 0.000000000000D+00 0.000000000000D+00 0.399265780015D-07 0.000000000000D+00  7 2 -2 23 -13 13 23 21 0 0.16011342D-01 0.11399810D+00 0.67571413D+05 0.67571413D+05 0.67571413D+05 0.11359656D+01  1  2  2  2  7  2       -2 0.282951219378D-03 0.100000000000D+01
-.558938895989D-06 0.000000000000D+00 -.388426730980D-07 0.399265780015D-07 0.000000000000D+00  7 2 -2 23 -13 13 23 21 2 0.16011342D-01 0.11399810D+00 0.67571413D+05 0.67571413D+05 0.67571413D+05 0.11359656D+01  1  2  3  2  7  2       -2 -.201770711781D-04 0.100000000000D+01
0.652868849696D-06 0.000000000000D+00 0.000000000000D+00 0.399265780015D-07 0.000000000000D+00  7 2 -2 23 -13 13 23 21 2 0.16011342D-01 0.11399810D+00 0.67571413D+05 0.67571413D+05 0.67571413D+05 0.11359656D+01  1  2 15  2  7  2       -2 0.235678378170D-04 0.100000000000D+01
  </mgrwgt>
  </event>
  <event>
  8     66 0.55102590E-06 0.20708933E+03 0.75467711E-02 0.95392499E-01
        2 -1    0    0  501    0 0.00000000E+00 0.00000000E+00 0.70816990E+03 0.70816997E+03 0.32000000E+00 0.0000E+00 0.9000E+01
       -2 -1    0    0    0  501 0.00000000E+00 0.00000000E+00 -.23496849E+03 0.23496871E+03 0.32000000E+00 0.0000E+00 0.9000E+01
       25  2    1    2    0    0 -.31673847E+03 0.83769892E+02 0.39434977E+03 0.59423352E+03 0.30043483E+03 0.0000E+00 0.0000E+00
       23  2    1    2    0    0 0.31673847E+03 -.83769892E+02 0.78851646E+02 0.34890516E+03 0.90424412E+02 0.0000E+00 0.0000E+00
       23  1    3    3    0    0 -.31130896E+03 0.15185403E+02 0.33060544E+03 0.46342105E+03 0.91188000E+02 0.0000E+00 0.9000E+01
      -11  1    4    4    0    0 0.70729560E+02 -.31114501E+02 0.57699471E+02 0.96436569E+02 0.51099893E-03 0.0000E+00 0.9000E+01
       11  1    4    4    0    0 0.24600891E+03 -.52655391E+02 0.21152174E+02 0.25246859E+03 0.51099893E-03 0.0000E+00 0.9000E+01
       23  1    3    3    0    0 -.54295121E+01 0.68584489E+02 0.63744329E+02 0.13081247E+03 0.91188000E+02 0.0000E+00 0.9000E+01
#aMCatNLO 1  0  0  2  1 0.15179006D+03 0.00000000D+00  -5  7  0 0.00000000D+00 0.00000000D+00 0.00000000D+00 0.00000000D+00 0.00000000D+00
  <mgrwgt>
 0.7904529610D-03    8    2    0
 0.407918801993088D+03 0.000000000000000D+00 0.000000000000000D+00 0.407918801993088D+03
 0.407918801993088D+03 0.000000000000000D+00 0.000000000000000D+00 -.407918801993088D+03
 0.343974533765598D+03 -.311308958755356D+03 0.151854029530280D+02 0.113399136994383D+03
 0.780174714248234D+02 0.707295595561420D+02 -.311145013598888D+02 0.107676858072094D+02
 0.279594435821529D+03 0.246008911267357D+03 -.526553909521811D+02 -.121983908459608D+03
 0.114251162974226D+03 -.542951206814250D+01 0.685844893590419D+02 -.218291434198482D+01
 0.000000000000000D+00 0.000000000000000D+00 0.000000000000000D+00 -.000000000000000D+00
 0.430736128460389D+03 0.000000000000000D+00 0.000000000000000D+00 0.430736128460389D+03
 0.779085488392428D+03 0.000000000000000D+00 0.000000000000000D+00 -.779085488392428D+03
 0.356507175619735D+03 -.321814017356113D+03 -.485642758250256D+02 0.113399136994383D+03
 0.829286174614768D+02 0.683158661325168D+02 -.457619380161421D+02 0.107676858072094D+02
 0.286616850552732D+03 0.237517493627072D+03 -.104185341189628D+03 -.121983908459608D+03
 0.103785423460820D+03 -.869938633740633D+01 0.487413411927687D+02 -.218291434198482D+01
 0.379983549758052D+03 0.246800439339300D+02 0.149770213838027D+03 -.348349359932039D+03
0.681143030446D-05 0.000000000000D+00 0.000000000000D+00 0.475542253815D-06 0.000000000000D+00  7 2 -2 23 -11 11 23 21 0 0.10894924D+00 0.36149021D-01 0.14738950D+06 0.14738950D+06 0.14738950D+06 0.11081541D+01  1  2  2  2  7  2       -2 0.242489039861D-03 0.100000000000D+01
-.376720307777D-06 0.000000000000D+00 -.261576858599D-07 0.475542253815D-06 0.000000000000D+00  7 2 -2 23 -11 11 23 21 2 0.10894924D+00 0.36149021D-01 0.14738950D+06 0.14738950D+06 0.14738950D+06 0.11081541D+01  1  2  3  2  7  2       -2 -.164692242686D-04 0.100000000000D+01
0.430615753673D-06 0.000000000000D+00 0.000000000000D+00 0.475542253815D-06 0.000000000000D+00  7 2 -2 23 -11 11 23 21 2 0.10894924D+00 0.36149021D-01 0.14738950D+06 0.14738950D+06 0.14738950D+06 0.11081541D+01  1  2 15  2  7  2       -2 0.188253918741D-04 0.100000000000D+01
0.120800596547D-04 0.000000000000D+00 0.000000000000D+00 0.475542253815D-06 0.000000000000D+00  7 2 -2 23 -11 11 23 21 2 0.10894924D+00 0.69189456D-01 0.21861853D+06 0.21861853D+06 0.21861853D+06 0.10948687D+01  1  2 12  2  7  2       -2 0.141506763160D-03 0.100000000000D+01
-.143859069112D-04 0.000000000000D+00 -.218204810850D-05 0.475542253815D-06 0.000000000000D+00  7 2 -2 23 -11 11 23 21 2 0.10894924D+00 0.71283275D-01 0.14738950D+06 0.14738950D+06 0.14738950D+06 0.11081541D+01  1  2  5  2  7  2       -2 -.163777044983D-03 0.100000000000D+01
0.131415049541D-04 0.000000000000D+00 0.176039333426D-05 0.475542253815D-06 0.000000000000D+00  7 2 -2 23 -11 11 23 21 2 0.10894924D+00 0.36149021D-01 0.14738950D+06 0.14738950D+06 0.14738950D+06 0.11081541D+01  1  2  6  2  7  2       -2 0.574512145611D-03 0.100000000000D+01
0.851401003292D-06 0.000000000000D+00 0.000000000000D+00 0.475542253815D-06 0.000000000000D+00  7 2 21 23 -11 11 23 2 2 0.10894924D+00 0.69189456D-01 0.21861853D+06 0.21861853D+06 0.21861853D+06 0.10948687D+01  1  2 12  4  7  2       -2 0.989811857498D-04 0.100000000000D+01
-.928364119085D-06 0.000000000000D+00 -.160436507841D-06 0.475542253815D-06 0.000000000000D+00  7 2 21 23 -11 11 23 2 2 0.10894924D+00 0.71283275D-01 0.14738950D+06 0.14738950D+06 0.14738950D+06 0.11081541D+01  1  2  5  4  7  2       -2 -.105615295956D-03 0.100000000000D+01
  </mgrwgt>
  </event>
  <event>
  8     66 0.55102590E-06 0.83060260E+02 0.75467711E-02 0.10540496E+00
        2 -1    0    0  501    0 0.00000000E+00 0.00000000E+00 0.36869896E+03 0.36869910E+03 0.32000000E+00 0.0000E+00 0.9000E+01
       -2 -1    0    0    0  501 0.00000000E+00 0.00000000E+00 -.24739937E+03 0.24739958E+03 0.32000000E+00 0.0000E+00 0.9000E+01
       25  2    1    2    0    0 -.16377072E+02 0.15360954E+03 0.22911869E+03 0.40541783E+03 0.29665492E+03 0.0000E+00 0.0000E+00
       23  2    1    2    0    0 0.16377072E+02 -.15360954E+03 -.10781910E+03 0.21068085E+03 0.94325837E+02 0.0000E+00 0.0000E+00
       23  1    3    3    0    0 -.17972133E+02 0.11297556E+03 0.26218722E+03 0.30023968E+03 0.91188000E+02 0.0000E+00 0.9000E+01
      -13  1    4    4    0    0 0.46224635E+02 -.67574582E+02 -.20241771E+02 0.84337307E+02 0.10565837E+00 0.0000E+00 0.9000E+01
       13  1    4    4    0    0 -.29847564E+02 -.86034957E+02 -.87577333E+02 0.12634354E+03 0.10565837E+00 0.0000E+00 0.9000E+01
       23  1    3    3    0    0 0.15950616E+01 0.40633979E+02 -.33068529E+02 0.10517815E+03 0.91188000E+02 0.0000E+00 0.9000E+01
#aMCatNLO 1  0  0  2  1 0.79879720D+01 0.00000000D+00  -5  7  0 0.00000000D+00 0.00000000D+00 0.00000000D+00 0.00000000D+00 0.00000000D+00
  <mgrwgt>
 0.1088060609D-03   11    2    0
 0.302019863903885D+03 0.000000000000000D+00 0.000000000000000D+00 0.302019863903885D+03
 0.302019863903885D+03 0.000000000000000D+00 0.000000000000000D+00 -.302019863903885D+03
 0.253582770637640D+03 -.179721332039853D+02 0.112975561558056D+03 0.207129175006811D+03
 0.900857615016479D+02 0.462247261155135D+02 -.675745584728169D+02 -.375818861698215D+02
 0.146452665189839D+03 -.298476542908236D+02 -.860349832462765D+02 -.114697351025887D+03
 0.113918530478642D+03 0.159506137929546D+01 0.406339801610377D+02 -.548499378111028D+02
 0.000000000000000D+00 0.000000000000000D+00 0.000000000000000D+00 -.000000000000000D+00
 0.302703040453958D+03 0.000000000000000D+00 0.000000000000000D+00 0.302703040453958D+03
 0.326334757625988D+03 0.000000000000000D+00 0.000000000000000D+00 -.326334757625988D+03
 0.252116435046432D+03 -.180446868887887D+02 0.109632748814416D+03 0.207129175006811D+03
 0.909737862024731D+02 0.461987491370901D+02 -.687714125643795D+02 -.375818861698215D+02
 0.147611515668091D+03 -.298898442718442D+02 -.879788294698238D+02 -.114697351025887D+03
 0.113390806048334D+03 0.156244885040504D+01 0.391314020704458D+02 -.548499378111028D+02
 0.249452551146167D+02 0.173333173137671D+00 0.798609114934140D+01 -.236317171720299D+02
0.150643009398D-05 0.000000000000D+00 0.000000000000D+00 0.119100781023D-08 0.000000000000D+00  7 2 -2 23 -13 13 23 21 0 0.56722943D-01 0.38061469D-01 0.43906016D+05 0.43906016D+05 0.43906016D+05 0.11522937D+01  1  2  2  2  7  2       -2 0.102753187127D-03 0.100000000000D+01
-.700903587842D-07 0.000000000000D+00 -.578508821302D-08 0.119100781023D-08 0.000000000000D+00  7 2 -2 23 -13 13 23 21 2 0.56722943D-01 0.38061469D-01 0.43906016D+05 0.43906016D+05 0.43906016D+05 0.11522937D+01  1  2  3  2  7  2       -2 -.634791307519D-05 0.100000000000D+01
0.945224807081D-07 0.000000000000D+00 0.000000000000D+00 0.119100781023D-08 0.000000000000D+00  7 2 -2 23 -13 13 23 21 2 0.56722943D-01 0.38061469D-01 0.43906016D+05 0.43906016D+05 0.43906016D+05 0.11522937D+01  1  2 15  2  7  2       -2 0.856067084824D-05 0.100000000000D+01
0.413176659157D-04 0.000000000000D+00 0.000000000000D+00 0.119100781023D-08 0.000000000000D+00  7 2 -2 23 -13 13 23 21 2 0.56722943D-01 0.41166778D-01 0.45525112D+05 0.45525112D+05 0.45525112D+05 0.11508943D+01  1  2 12  2  7  2       -2 0.323174644399D-02 0.100000000000D+01
-.418674720054D-04 0.000000000000D+00 0.000000000000D+00 0.119100781023D-08 0.000000000000D+00  7 2 -2 23 -13 13 23 21 2 0.56722943D-01 0.38061469D-01 0.43906016D+05 0.43906016D+05 0.43906016D+05 0.11522937D+01  1  2  4  2  7  2       -2 -.379183496245D-02 0.100000000000D+01
-.526957476208D-04 0.000000000000D+00 -.253893852894D-05 0.119100781023D-08 0.000000000000D+00  7 2 -2 23 -13 13 23 21 2 0.56722943D-01 0.41177110D-01 0.43906016D+05 0.43906016D+05 0.43906016D+05 0.11522937D+01  1  2  5  2  7  2       -2 -.413027799158D-02 0.100000000000D+01
0.527400207885D-04 0.000000000000D+00 0.253110003137D-05 0.119100781023D-08 0.000000000000D+00  7 2 -2 23 -13 13 23 21 2 0.56722943D-01 0.38061469D-01 0.43906016D+05 0.43906016D+05 0.43906016D+05 0.11522937D+01  1  2  6  2  7  2       -2 0.477653522335D-02 0.100000000000D+01
0.237755183645D-06 0.000000000000D+00 0.000000000000D+00 0.119100781023D-08 0.132128678887D-09  7 2 -2 23 -13 13 23 21 2 0.56851252D-01 0.41125706D-01 0.45525112D+05 0.45525112D+05 0.45525112D+05 0.11508943D+01  1  2 11  2  7  2       -2 0.185856533873D-04 0.100000000000D+01
0.592839172543D-06 0.000000000000D+00 0.000000000000D+00 0.119100781023D-08 0.000000000000D+00  7 2 21 23 -13 13 23 2 2 0.56722943D-01 0.41166778D-01 0.45525112D+05 0.45525112D+05 0.45525112D+05 0.11508943D+01  1  2 12  4  7  2       -2 0.529787316947D-03 0.100000000000D+01
-.706682996012D-06 0.000000000000D+00 -.334142911644D-07 0.119100781023D-08 0.000000000000D+00  7 2 21 23 -13 13 23 2 2 0.56722943D-01 0.41177110D-01 0.43906016D+05 0.43906016D+05 0.43906016D+05 0.11522937D+01  1  2  5  4  7  2       -2 -.633506660427D-03 0.100000000000D+01
0.314019893991D-08 0.000000000000D+00 0.000000000000D+00 0.119100781023D-08 0.173647300829D-11  7 2 21 23 -13 13 23 2 2 0.56851252D-01 0.41125706D-01 0.45525112D+05 0.45525112D+05 0.45525112D+05 0.11508943D+01  1  2 11  4  7  2       -2 0.280509276332D-05 0.100000000000D+01
  </mgrwgt>
  </event>
  <event>
  8     66 0.55102590E-06 0.39627220E+03 0.75467711E-02 0.96825332E-01
        2 -1    0    0  501    0 0.00000000E+00 0.00000000E+00 0.68913752E+03 0.68913759E+03 0.32000000E+00 0.0000E+00 0.9000E+01
       -2 -1    0    0    0  501 0.00000000E+00 0.00000000E+00 -.26324983E+03 0.26325002E+03 0.32000000E+00 0.0000E+00 0.9000E+01
       25  2    1    2    0    0 0.41421342E+02 -.34158422E+03 0.94557326E+02 0.46608854E+03 0.29983651E+03 0.0000E+00 0.0000E+00
       23  2    1    2    0    0 -.41421342E+02 0.34158422E+03 0.33133037E+03 0.48629907E+03 0.91167226E+02 0.0000E+00 0.0000E+00
       23  1    3    3    0    0 -.89688506E+02 -.18092172E+03 0.91001318E+02 0.23952701E+03 0.91188000E+02 0.0000E+00 0.9000E+01
      -11  1    4    4    0    0 -.61819184E+01 0.19977153E+02 0.61681468E+02 0.65129919E+02 0.51099893E-03 0.0000E+00 0.9000E+01
       11  1    4    4    0    0 -.35239423E+02 0.32160707E+03 0.26964890E+03 0.42116915E+03 0.51099893E-03 0.0000E+00 0.9000E+01
       23  1    3    3    0    0 0.13110985E+03 -.16066250E+03 0.35560078E+01 0.22656153E+03 0.91188000E+02 0.0000E+00 0.9000E+01
#aMCatNLO 1  0  0  1  1 0.33643511D+02 0.00000000D+00  -5  7  0 0.00000000D+00 0.00000000D+00 0.00000000D+00 0.00000000D+00 0.00000000D+00
  <mgrwgt>
 0.4241603897D-03    4    2    0
 0.425928938058045D+03 0.000000000000000D+00 0.000000000000000D+00 0.425928938058045D+03
 0.425928938058045D+03 0.000000000000000D+00 0.000000000000000D+00 -.425928938058045D+03
 0.222297902323208D+03 -.896885064118260D+02 -.180921724715846D+03 -.180113124662839D+02
 0.419783049045038D+02 -.618191842705372D+01 0.199771532557137D+02 0.363988367261162D+02
 0.336060913169317D+03 -.352394231463748D+02 0.321607071525752D+03 0.909066112069724D+02
 0.251520755719062D+03 0.131109847985255D+03 -.160662500065619D+03 -.109294135466805D+03
 0.000000000000000D+00 -.000000000000000D+00 -.000000000000000D+00 -.000000000000000D+00
 0.428499251167461D+03 0.000000000000000D+00 0.000000000000000D+00 0.428499251167461D+03
 0.552685686071193D+03 0.000000000000000D+00 0.000000000000000D+00 -.552685686071193D+03
 0.216168459812155D+03 -.818990747552708D+02 -.177148767568481D+03 -.180113124662839D+02
 0.421352362809803D+02 -.468762664771559D+01 0.207009414725804D+02 0.363988367261162D+02
 0.340607295334966D+03 -.232182940028796D+02 0.327429730626070D+03 0.909066112069724D+02
 0.253610988912911D+03 0.140083601828548D+03 -.156315894280426D+03 -.109294135466805D+03
 0.128662956897641D+03 -.302786064226824D+02 -.146660102497433D+02 -.124186434903732D+03
0.149045206799D-04 0.000000000000D+00 0.000000000000D+00 0.126072420113D-05 0.000000000000D+00  7 2 -2 23 -11 11 23 21 0 0.10602118D+00 0.40499994D-01 0.15703165D+06 0.15703165D+06 0.15703165D+06 0.11059852D+01  1  2  2  1  7  1        2 0.443938966203D-03 0.100000000000D+01
-.822785024458D-06 0.000000000000D+00 -.572372838614D-07 0.126072420113D-05 0.000000000000D+00  7 2 -2 23 -11 11 23 21 2 0.10602118D+00 0.40499994D-01 0.15703165D+06 0.15703165D+06 0.15703165D+06 0.11059852D+01  1  2  3  1  7  1        2 -.299771467358D-04 0.100000000000D+01
0.951975345046D-06 0.000000000000D+00 0.000000000000D+00 0.126072420113D-05 0.000000000000D+00  7 2 -2 23 -11 11 23 21 2 0.10602118D+00 0.40499994D-01 0.15703165D+06 0.15703165D+06 0.15703165D+06 0.11059852D+01  1  2 15  1  7  1        2 0.346840350261D-04 0.100000000000D+01
-.672054413999D-06 0.000000000000D+00 0.000000000000D+00 0.126072420113D-05 0.000000000000D+00  7 2 -2 23 -11 11 23 21 2 0.10602118D+00 0.40499994D-01 0.15703165D+06 0.15703165D+06 0.15703165D+06 0.11059852D+01  1  2  4  1  7  1        2 -.244854648346D-04 0.100000000000D+01
  </mgrwgt>
  </event>
  <event>
  9     66 0.55102590E-06 0.36098568E+03 0.75467711E-02 0.97370389E-01
        2 -1    0    0  501    0 0.00000000E+00 0.00000000E+00 0.51346367E+03 0.51346377E+03 0.32000000E+00 0.0000E+00 0.9000E+01
       -2 -1    0    0    0  502 0.00000000E+00 0.00000000E+00 -.37746454E+03 0.37746468E+03 0.32000000E+00 0.0000E+00 0.9000E+01
       25  2    1    2    0    0 0.21606937E+03 -.19020827E+03 0.17909420E+03 0.45306592E+03 0.30054757E+03 0.0000E+00 0.0000E+00
       23  2    1    2    0    0 -.21867476E+03 0.25462719E+03 -.89427986E+02 0.35846550E+03 0.88580443E+02 0.0000E+00 0.0000E+00
       23  1    3    3    0    0 0.17016124E+03 -.19816214E+03 0.38782284E+02 0.27936070E+03 0.91188000E+02 0.0000E+00 0.9000E+01
      -13  1    4    4    0    0 -.16150502E+03 0.12153566E+03 -.46808759E+02 0.20747496E+03 0.10565837E+00 0.0000E+00 0.9000E+01
       13  1    4    4    0    0 -.57169744E+02 0.13309153E+03 -.42619227E+02 0.15099054E+03 0.10565837E+00 0.0000E+00 0.9000E+01
       23  1    3    3    0    0 0.45908137E+02 0.79538764E+01 0.14031191E+03 0.17370523E+03 0.91188000E+02 0.0000E+00 0.9000E+01
       21  1    1    2  501  502 0.26053878E+01 -.64418922E+02 0.46332919E+02 0.79397024E+02 0.75000000E+00 0.0000E+00 0.9000E+01
#aMCatNLO 2  0  0  2  2 0.64471587D+02 0.00000000D+00  -5  7  0 0.00000000D+00 0.00000000D+00 0.00000000D+00 0.00000000D+00 0.00000000D+00
  <mgrwgt>
 0.3199924465D-04    1    2    0
 0.401990869544185D+03 0.000000000000000D+00 0.000000000000000D+00 0.401990869544185D+03
 0.401990869544185D+03 0.000000000000000D+00 0.000000000000000D+00 -.401990869544185D+03
 0.294087836146518D+03 0.171084716864083D+03 -.220995455212615D+03 0.796444952567745D+01
 0.204382377876259D+03 -.160828415185411D+03 0.104802811683306D+03 -.701622969876015D+02
 0.146312336520938D+03 -.566794778384947D+02 0.120973241195046D+03 -.596675081173752D+02
 0.159199188544655D+03 0.464231761598224D+02 -.478059766573794D+01 0.121865355579299D+03
 0.000000000000000D+00 0.000000000000000D+00 -.000000000000000D+00 0.000000000000000D+00
 0.459542794129234D+03 0.000000000000000D+00 0.000000000000000D+00 0.459542794129234D+03
 0.421751237286076D+03 0.000000000000000D+00 0.000000000000000D+00 -.421751237286076D+03
 0.276770238564796D+03 0.170161236137593D+03 -.198162142880757D+03 0.796444952567745D+01
 0.213956956483905D+03 -.161505165378723D+03 0.121535644422823D+03 -.701622969876015D+02
 0.156658652511486D+03 -.571695959281769D+02 0.133091544371484D+03 -.596675081173752D+02
 0.159176749116035D+03 0.459081373870827D+02 0.795387618265398D+01 0.121865355579299D+03
 0.747314347390855D+02 0.260538778222363D+01 -.644189220962041D+02 0.377915568431577D+02
0.126228690145D-05 0.000000000000D+00 0.000000000000D+00 0.230778737277D-07 0.378519669778D-10  7 2 -2 23 -13 13 23 21 2 0.78994084D-01 0.58071232D-01 0.15622462D+06 0.15622462D+06 0.15622462D+06 0.11061611D+01  1  2  1  2  7  2       -2 0.319992446509D-04 0.100000000000D+01
  </mgrwgt>
  </event>
  <event>
  9     66 -.55102590E-06 0.18417387E+03 0.75467711E-02 0.10566629E+00
        2 -1    0    0  502    0 0.00000000E+00 0.00000000E+00 0.13249382E+04 0.13249383E+04 0.32000000E+00 0.0000E+00 0.9000E+01
       -2 -1    0    0    0  501 0.00000000E+00 0.00000000E+00 -.99134623E+02 0.99135139E+02 0.32000000E+00 0.0000E+00 0.9000E+01
       25  2    1    2    0    0 0.39183163E+02 0.39639443E+02 0.16170717E+03 0.34480803E+03 0.29939399E+03 0.0000E+00 0.0000E+00
       23  2    1    2    0    0 -.65410775E+02 -.60030727E+01 0.96147640E+03 0.96813155E+03 0.92342971E+02 0.0000E+00 0.0000E+00
       23  1    3    3    0    0 0.62871866E+02 -.62849132E+02 0.16140311E+03 0.20559450E+03 0.91188000E+02 0.0000E+00 0.9000E+01
      -13  1    4    4    0    0 0.20340559E+02 0.97040888E+01 0.31475214E+03 0.31555796E+03 0.10565837E+00 0.0000E+00 0.9000E+01
       13  1    4    4    0    0 -.85751334E+02 -.15707161E+02 0.64672426E+03 0.65257359E+03 0.10565837E+00 0.0000E+00 0.9000E+01
       23  1    3    3    0    0 -.23688703E+02 0.10248857E+03 0.30406041E+00 0.13921353E+03 0.91188000E+02 0.0000E+00 0.9000E+01
       21  1    1    2  502  501 0.26227612E+02 -.33636370E+02 0.10262005E+03 0.11113384E+03 0.75000000E+00 0.0000E+00 0.9000E+01
#aMCatNLO 2  0  0  1  2 0.42653172D+02 0.00000000D+00  -5  7  0 0.00000000D+00 0.00000000D+00 0.00000000D+00 0.00000000D+00 0.00000000D+00
  <mgrwgt>
 -.2519516810D-04    2    2    0
 0.339282228422091D+03 0.000000000000000D+00 0.000000000000000D+00 0.339282228422091D+03
 0.339282228422091D+03 0.000000000000000D+00 0.000000000000000D+00 -.339282228422091D+03
 0.136185790494901D+03 0.680184433861131D+02 -.694495107083544D+02 -.279566630773677D+02
 0.898825356792672D+02 0.238020778647647D+02 0.526497085512989D+01 0.865136485841919D+02
 0.189634154186954D+03 -.783873800781176D+02 -.251514888039005D+02 0.170833057953188D+03
 0.262861976483059D+03 -.134331411727601D+02 0.893360286571250D+02 -.229390043460013D+03
 0.000000000000000D+00 0.000000000000000D+00 -.000000000000000D+00 0.000000000000000D+00
 0.369777190617521D+03 0.000000000000000D+00 0.000000000000000D+00 0.369777190617521D+03
 0.355201393435420D+03 0.000000000000000D+00 0.000000000000000D+00 -.355201393435420D+03
 0.130382940815850D+03 0.628718660263529D+02 -.628491317659383D+02 -.279566630773677D+02
 0.894009243626050D+02 0.203406959093720D+02 0.970412157083930D+01 0.865136485841919D+02
 0.191791460865146D+03 -.857514712271704D+02 -.157071943237907D+02 0.170833057953188D+03
 0.268328354733377D+03 -.236887031020212D+02 0.102488574566528D+03 -.229390043460013D+03
 0.450749032759622D+02 0.262276123934667D+02 -.336363700476384D+02 0.145757971821013D+02
-.366427142704D-05 0.000000000000D+00 0.000000000000D+00 0.194928617912D-06 0.000000000000D+00  7 2 -2 23 -13 13 23 21 2 0.20791552D+00 0.14567865D-01 0.43875987D+05 0.43875987D+05 0.43875987D+05 0.11523202D+01  1  2 13  1  7  1        2 -.329644387855D-03 0.100000000000D+01
0.352033524356D-05 0.000000000000D+00 0.000000000000D+00 0.194928617912D-06 0.760221998823D-09  7 2 -2 23 -13 13 23 21 2 0.20383493D+00 0.15251391D-01 0.43875987D+05 0.43875987D+05 0.43875987D+05 0.11523202D+01  1  2  1  1  7  1        2 0.304449219758D-03 0.100000000000D+01
  </mgrwgt>
  </event>
  <event>
  8     66 0.55102590E-06 0.26326126E+03 0.75467711E-02 0.92312868E-01
        2 -1    0    0  501    0 0.00000000E+00 0.00000000E+00 0.12383824E+04 0.12383824E+04 0.32000000E+00 0.0000E+00 0.9000E+01
       -2 -1    0    0    0  501 0.00000000E+00 0.00000000E+00 -.83970254E+02 0.83970863E+02 0.32000000E+00 0.0000E+00 0.9000E+01
       25  2    1    2    0    0 -.75292028E+02 0.19162359E+03 0.42496286E+03 0.55875880E+03 0.29871303E+03 0.0000E+00 0.0000E+00
       23  2    1    2    0    0 0.75292028E+02 -.19162359E+03 0.72944929E+03 0.76359451E+03 0.92692046E+02 0.0000E+00 0.0000E+00
       23  1    3    3    0    0 0.36669682E+02 0.13120786E+03 0.34724820E+03 0.38400096E+03 0.91188000E+02 0.0000E+00 0.9000E+01
      -11  1    4    4    0    0 0.89063769E+01 -.31068391E+02 0.27792379E+03 0.27979672E+03 0.51099893E-03 0.0000E+00 0.9000E+01
       11  1    4    4    0    0 0.66385651E+02 -.16055520E+03 0.45152549E+03 0.48379779E+03 0.51099893E-03 0.0000E+00 0.9000E+01
       23  1    3    3    0    0 -.11196171E+03 0.60415731E+02 0.77714660E+02 0.17475785E+03 0.91188000E+02 0.0000E+00 0.9000E+01
#aMCatNLO 1  0  0  1  1 0.51536331D+03 0.00000000D+00  -5  7  0 0.00000000D+00 0.00000000D+00 0.00000000D+00 0.00000000D+00 0.00000000D+00
  <mgrwgt>
 0.4080412762D-03    3    2    0
 0.322471262291573D+03 0.000000000000000D+00 0.000000000000000D+00 0.322471262291573D+03
 0.322471262291573D+03 0.000000000000000D+00 0.000000000000000D+00 -.322471262291573D+03
 0.165778168779124D+03 0.366696820266590D+02 0.131207862555651D+03 0.246369868977701D+02
 0.762106855712401D+02 0.890637688677532D+01 -.310683912937988D+02 0.690181143498179D+02
 0.183745193236503D+03 0.663856512747813D+02 -.160555202484590D+03 0.598102691640443D+02
 0.219208476996278D+03 -.111961710188216D+03 0.604157312227374D+02 -.153465370411632D+03
 0.000000000000000D+00 0.000000000000000D+00 -.000000000000000D+00 -.000000000000000D+00
 0.430130106893808D+03 0.000000000000000D+00 0.000000000000000D+00 0.430130106893808D+03
 0.423989566456295D+04 0.000000000000000D+00 0.000000000000000D+00 -.423989566456295D+04
 0.313723130333052D+03 0.204068027709545D+02 0.298468645655177D+03 0.246369868977701D+02
 0.721552389012137D+02 0.387436316788856D+01 0.206849631986615D+02 0.690181143498179D+02
 0.102374981868517D+03 0.566815318720404D+02 -.607500827961793D+02 0.598102691640443D+02
 0.337307185287857D+03 -.130836626765904D+03 0.254540847574131D+03 -.153465370411632D+03
 0.384446523506612D+04 0.498739289550202D+02 -.512944373631791D+03 -.380976555766914D+04
0.427971176875D-05 0.000000000000D+00 0.000000000000D+00 0.351926732683D-07 0.000000000000D+00  7 2 -2 23 -11 11 23 21 0 0.19052042D+00 0.12918551D-01 0.69306493D+05 0.69306493D+05 0.69306493D+05 0.11350274D+01  1  2  2  1  7  1        2 0.402257015026D-03 0.100000000000D+01
-.225864512255D-06 0.000000000000D+00 -.164352200660D-07 0.351926732683D-07 0.000000000000D+00  7 2 -2 23 -11 11 23 21 2 0.19052042D+00 0.12918551D-01 0.69306493D+05 0.69306493D+05 0.69306493D+05 0.11350274D+01  1  2  3  1  7  1        2 -.273495254004D-04 0.100000000000D+01
0.273633506569D-06 0.000000000000D+00 0.000000000000D+00 0.351926732683D-07 0.000000000000D+00  7 2 -2 23 -11 11 23 21 2 0.19052042D+00 0.12918551D-01 0.69306493D+05 0.69306493D+05 0.69306493D+05 0.11350274D+01  1  2 15  1  7  1        2 0.331337865501D-04 0.100000000000D+01
  </mgrwgt>
  </event>
  <event>
  8     66 0.55102590E-06 0.18014815E+03 0.75467711E-02 0.10174287E+00
        2 -1    0    0  501    0 0.00000000E+00 0.00000000E+00 0.22443624E+03 0.22443647E+03 0.32000000E+00 0.0000E+00 0.9000E+01
       -2 -1    0    0    0  501 0.00000000E+00 0.00000000E+00 -.55096354E+03 0.55096363E+03 0.32000000E+00 0.0000E+00 0.9000E+01
       25  2    1    2    0    0 -.51104320E+02 0.13305898E+03 0.74468788E+02 0.34015666E+03 0.29974090E+03 0.0000E+00 0.0000E+00
       23  2    1    2    0    0 0.51104320E+02 -.13305898E+03 -.40099609E+03 0.43524344E+03 0.91228562E+02 0.0000E+00 0.0000E+00
       23  1    3    3    0    0 -.14105772E+03 0.70788398E+02 0.76605993E+02 0.19771699E+03 0.91188000E+02 0.0000E+00 0.9000E+01
      -11  1    4    4    0    0 0.95993222E+01 -.57881388E+02 -.28467358E+03 0.29065693E+03 0.51099893E-03 0.0000E+00 0.9000E+01
       11  1    4    4    0    0 0.41504998E+02 -.75177595E+02 -.11632251E+03 0.14458652E+03 0.51099893E-03 0.0000E+00 0.9000E+01
       23  1    3    3    0    0 0.89953404E+02 0.62270585E+02 -.21372050E+01 0.14243967E+03 0.91188000E+02 0.0000E+00 0.9000E+01
#aMCatNLO 1  0  0  2  1 0.84650651D+02 0.00000000D+00  -5  7  0 0.00000000D+00 0.00000000D+00 0.00000000D+00 0.00000000D+00 0.00000000D+00
  <mgrwgt>
 0.1635336581D-03    9    2    0
 0.351647993889308D+03 0.000000000000000D+00 0.000000000000000D+00 0.351647993889308D+03
 0.351647993889308D+03 0.000000000000000D+00 0.000000000000000D+00 -.351647993889308D+03
 0.253554301612088D+03 -.141057724308946D+03 0.707883981724783D+02 0.176256215830676D+03
 0.188287319907002D+03 0.959932221266564D+01 -.578813880447309D+02 -.178912584154482D+03
 0.105403597785087D+03 0.415049982488874D+02 -.751775951804615D+02 -.611194136856937D+02
 0.156050768474438D+03 0.899534038473928D+02 0.622705850527141D+02 0.637757820094996D+02
 0.000000000000000D+00 -.000000000000000D+00 -.000000000000000D+00 -.000000000000000D+00
 0.381336245306833D+03 0.000000000000000D+00 0.000000000000000D+00 0.381336245306833D+03
 0.420168316843001D+03 0.000000000000000D+00 0.000000000000000D+00 -.420168316843001D+03
 0.239813547966190D+03 -.111782616441584D+03 0.750578409405442D+02 0.176256215830676D+03
 0.189784211710750D+03 0.320330597963955D+02 -.546096816134002D+02 -.178912584154482D+03
 0.109801896947422D+03 0.542747076600871D+02 -.733152777556047D+02 -.611194136856937D+02
 0.168972406004290D+03 0.109239396034339D+03 0.650832284848270D+02 0.637757820094996D+02
 0.931324995211827D+02 -.837645470492367D+02 -.122161100563663D+02 -.388320715361678D+02
0.517901495178D-05 0.000000000000D+00 0.000000000000D+00 0.791556296811D-06 0.000000000000D+00  7 2 -2 23 -11 11 23 21 0 0.34528677D-01 0.84763646D-01 0.55047202D+05 0.55047202D+05 0.55047202D+05 0.11436398D+01  1  2  2  2  7  2       -2 0.120309360683D-03 0.100000000000D+01
-.230439315952D-06 0.000000000000D+00 -.198887810808D-07 0.791556296811D-06 0.000000000000D+00  7 2 -2 23 -11 11 23 21 2 0.34528677D-01 0.84763646D-01 0.55047202D+05 0.55047202D+05 0.55047202D+05 0.11436398D+01  1  2  3  2  7  2       -2 -.700143919321D-05 0.100000000000D+01
0.312810554034D-06 0.000000000000D+00 0.000000000000D+00 0.791556296811D-06 0.000000000000D+00  7 2 -2 23 -11 11 23 21 2 0.34528677D-01 0.84763646D-01 0.55047202D+05 0.55047202D+05 0.55047202D+05 0.11436398D+01  1  2 15  2  7  2       -2 0.950412504054D-05 0.100000000000D+01
0.469396332945D-05 0.000000000000D+00 0.000000000000D+00 0.791556296811D-06 0.000000000000D+00  7 2 -2 23 -11 11 23 21 2 0.34528677D-01 0.10432311D+00 0.77917058D+05 0.77917058D+05 0.77917058D+05 0.11307248D+01  1  2 12  2  7  2       -2 0.854142017676D-04 0.100000000000D+01
-.526961112164D-05 0.000000000000D+00 0.000000000000D+00 0.791556296811D-06 0.000000000000D+00  7 2 -2 23 -11 11 23 21 2 0.34528677D-01 0.84763646D-01 0.55047202D+05 0.55047202D+05 0.55047202D+05 0.11436398D+01  1  2  4  2  7  2       -2 -.160106628019D-03 0.100000000000D+01
-.891341495746D-05 0.000000000000D+00 -.303701618952D-05 0.791556296811D-06 0.000000000000D+00  7 2 -2 23 -11 11 23 21 2 0.34528677D-01 0.10759041D+00 0.55047202D+05 0.55047202D+05 0.55047202D+05 0.11436398D+01  1  2  5  2  7  2       -2 -.154930771820D-03 0.100000000000D+01
0.945196616815D-05 0.000000000000D+00 0.295266527684D-05 0.791556296811D-06 0.000000000000D+00  7 2 -2 23 -11 11 23 21 2 0.34528677D-01 0.84763646D-01 0.55047202D+05 0.55047202D+05 0.55047202D+05 0.11436398D+01  1  2  6  2  7  2       -2 0.287179147834D-03 0.100000000000D+01
0.138223599124D-06 0.000000000000D+00 0.000000000000D+00 0.791556296811D-06 0.000000000000D+00  7 2 21 23 -11 11 23 2 2 0.34528677D-01 0.10432311D+00 0.77917058D+05 0.77917058D+05 0.77917058D+05 0.11307248D+01  1  2 12  4  7  2       -2 0.240530366792D-04 0.100000000000D+01
-.244205538913D-06 0.000000000000D+00 -.992495512870D-07 0.791556296811D-06 0.000000000000D+00  7 2 21 23 -11 11 23 2 2 0.34528677D-01 0.10759041D+00 0.55047202D+05 0.55047202D+05 0.55047202D+05 0.11436398D+01  1  2  5  4  7  2       -2 -.408873748756D-04 0.100000000000D+01
  </mgrwgt>
  </event>
  <event>
  8     66 0.55102590E-06 0.23224209E+03 0.75467711E-02 0.95382143E-01
        2 -1    0    0  501    0 0.00000000E+00 0.00000000E+00 0.52525579E+03 0.52525589E+03 0.32000000E+00 0.0000E+00 0.9000E+01
       -2 -1    0    0    0  501 0.00000000E+00 0.00000000E+00 -.20126903E+03 0.20126929E+03 0.32000000E+00 0.0000E+00 0.9000E+01
       25  2    1    2    0    0 -.11357787E+03 0.75626524E+02 -.35671088E+02 0.33101226E+03 0.29946183E+03 0.0000E+00 0.0000E+00
       23  2    1    2    0    0 0.11357787E+03 -.75626524E+02 0.35965785E+03 0.39551291E+03 0.91964071E+02 0.0000E+00 0.0000E+00
       23  1    3    3    0    0 -.97859380E+02 -.73354830E+02 -.30405680E+02 0.15555432E+03 0.91188000E+02 0.0000E+00 0.9000E+01
      -11  1    4    4    0    0 0.91357208E+02 -.63260623E+02 0.35174545E+03 0.36888061E+03 0.51099893E-03 0.0000E+00 0.9000E+01
       11  1    4    4    0    0 0.22220660E+02 -.12365901E+02 0.79124031E+01 0.26632300E+02 0.51099893E-03 0.0000E+00 0.9000E+01
       23  1    3    3    0    0 -.15718488E+02 0.14898135E+03 -.52654082E+01 0.17545795E+03 0.91188000E+02 0.0000E+00 0.9000E+01
#aMCatNLO 1  0  0  1  2 0.37214527D+03 0.00000000D+00  -5  7  0 0.00000000D+00 0.00000000D+00 0.00000000D+00 0.00000000D+00 0.00000000D+00
  <mgrwgt>
 0.2095680117D-03    5    2    0
 0.325142818802460D+03 0.000000000000000D+00 0.000000000000000D+00 0.325142818802460D+03
 0.325142818802460D+03 0.000000000000000D+00 0.000000000000000D+00 -.325142818802460D+03
 0.188940305607141D+03 -.978593803219601D+02 -.733548304466836D+02 -.111471064730091D+03
 0.236880801695842D+03 0.913572079644146D+02 -.632606227162844D+02 0.209199589814511D+03
 0.258125374763843D+02 0.222206603196160D+02 -.123659014589157D+02 -.442875005372539D+01
 0.198651992825552D+03 -.157184879620706D+02 0.148981354621884D+03 -.932997750306941D+02
 0.000000000000000D+00 0.000000000000000D+00 -.000000000000000D+00 0.000000000000000D+00
 0.621581906598898D+03 0.000000000000000D+00 0.000000000000000D+00 0.621581906598898D+03
 0.514817347510558D+03 0.000000000000000D+00 0.000000000000000D+00 -.514817347510558D+03
 0.182032083568992D+03 -.108554781605757D+03 0.247080801142969D+02 -.111471064730091D+03
 0.231269867258339D+03 0.778600868528870D+02 0.604904124501641D+02 0.209199589814511D+03
 0.213267260836301D+02 0.208616013850233D+02 0.949002645285510D-01 -.442875005372539D+01
 0.314613280957493D+03 -.305162956381057D+02 0.284657992845077D+03 -.932997750306941D+02
 0.387157296241003D+03 0.403493890059525D+02 -.369951385674067D+03 0.106764559088340D+03
0.289289930247D-05 0.000000000000D+00 0.000000000000D+00 0.310622891822D-06 0.000000000000D+00  7 2 -2 23 -11 11 23 21 0 0.80808611D-01 0.30964493D-01 0.53936390D+05 0.53936390D+05 0.53936390D+05 0.11444117D+01  1  2  2  1  7  1        2 0.193896934823D-03 0.100000000000D+01
-.138592219877D-06 0.000000000000D+00 -.111094950394D-07 0.310622891822D-06 0.000000000000D+00  7 2 -2 23 -11 11 23 21 2 0.80808611D-01 0.30964493D-01 0.53936390D+05 0.53936390D+05 0.53936390D+05 0.11444117D+01  1  2  3  1  7  1        2 -.121658103276D-04 0.100000000000D+01
0.183127906470D-06 0.000000000000D+00 0.000000000000D+00 0.310622891822D-06 0.000000000000D+00  7 2 -2 23 -11 11 23 21 2 0.80808611D-01 0.30964493D-01 0.53936390D+05 0.53936390D+05 0.53936390D+05 0.11444117D+01  1  2 15  1  7  1        2 0.160752124310D-04 0.100000000000D+01
0.441061988044D-06 0.000000000000D+00 -.892727980695D-06 0.310622891822D-06 0.000000000000D+00  7 2 -2 23 -11 11 23 21 2 0.21343959D+00 0.30964493D-01 0.53936390D+05 0.53936390D+05 0.53936390D+05 0.11444117D+01  1  2  5  1  7  1        2 0.106910214976D-04 0.100000000000D+01
0.100671403535D-06 0.000000000000D+00 -.963364776815D-07 0.310622891822D-06 0.000000000000D+00  7 21 -2 23 -11 11 23 -2 2 0.21343959D+00 0.30964493D-01 0.53936390D+05 0.53936390D+05 0.53936390D+05 0.11444117D+01  1  2  5  3  7  1        2 0.107065330674D-05 0.100000000000D+01
  </mgrwgt>
  </event>
  <event>
  8     66 0.55102590E-06 0.29693690E+03 0.75467711E-02 0.92534291E-01
        2 -1    0    0  501    0 0.00000000E+00 0.00000000E+00 0.38133824E+03 0.38133838E+03 0.32000000E+00 0.0000E+00 0.9000E+01
       -2 -1    0    0    0  501 0.00000000E+00 0.00000000E+00 -.40185324E+03 0.40185337E+03 0.32000000E+00 0.0000E+00 0.9000E+01
       25  2    1    2    0    0 0.92347288E+02 -.21884810E+03 0.21230071E+03 0.43816859E+03 0.30082821E+03 0.0000E+00 0.0000E+00
       23  2    1    2    0    0 -.92347288E+02 0.21884810E+03 -.23281570E+03 0.34502315E+03 0.91735016E+02 0.0000E+00 0.0000E+00
       23  1    3    3    0    0 -.46803080E+02 -.11507745E+03 0.18407942E+03 0.24007047E+03 0.91188000E+02 0.0000E+00 0.9000E+01
      -11  1    4    4    0    0 -.65817520E+02 0.20153759E+03 -.23062661E+03 0.31326981E+03 0.51099893E-03 0.0000E+00 0.9000E+01
       11  1    4    4    0    0 -.26529769E+02 0.17310510E+02 -.21890968E+01 0.31753339E+02 0.51099893E-03 0.0000E+00 0.9000E+01
       23  1    3    3    0    0 0.13915037E+03 -.10377065E+03 0.28221293E+02 0.19809812E+03 0.91188000E+02 0.0000E+00 0.9000E+01
#aMCatNLO 1  0  0  1  1 0.46146725D+03 0.00000000D+00  -5  7  0 0.00000000D+00 0.00000000D+00 0.00000000D+00 0.00000000D+00 0.00000000D+00
  <mgrwgt>
 0.2448532549D-03    5    2    0
 0.391461506256849D+03 0.000000000000000D+00 0.000000000000000D+00 0.391461506256849D+03
 0.391461506256849D+03 0.000000000000000D+00 0.000000000000000D+00 -.391461506256849D+03
 0.244976320452243D+03 -.468030800803661D+02 -.115077449570814D+03 0.190433186534248D+03
 0.307334215053485D+03 -.658175198540951D+02 0.201537587946570D+03 -.222497133616314D+03
 0.317068766255993D+02 -.265297685538703D+02 0.173105098069239D+02 -.135781296703227D+01
 0.198905600382371D+03 0.139150368488331D+03 -.103770648182680D+03 0.334217600490979D+02
 0.000000000000000D+00 0.000000000000000D+00 0.000000000000000D+00 0.000000000000000D+00
 0.733138365543938D+03 0.000000000000000D+00 0.000000000000000D+00 0.733138365543938D+03
 0.645397732234503D+03 0.000000000000000D+00 0.000000000000000D+00 -.645397732234503D+03
 0.354429404419700D+03 -.149746121359204D+03 -.242107934561405D+03 0.190433186534248D+03
 0.288882357877659D+03 -.168212850314929D+03 0.751829715720739D+02 -.222497133616314D+03
 0.387228451968011D+02 -.386254984743167D+02 0.238452336800007D+01 -.135781296703227D+01
 0.226767055990064D+03 0.660445638255850D+02 -.193982339100006D+03 0.334217600490979D+02
 0.469734434294218D+03 0.290539906322864D+03 0.358522778721337D+03 0.877406333094348D+02
0.874063752559D-05 0.000000000000D+00 0.000000000000D+00 0.399471668407D-06 0.000000000000D+00  7 2 -2 23 -11 11 23 21 0 0.58667442D-01 0.61823595D-01 0.88171522D+05 0.88171522D+05 0.88171522D+05 0.11262363D+01  1  2  2  1  7  1        2 0.223302422861D-03 0.100000000000D+01
-.440496206428D-06 0.000000000000D+00 -.335663495610D-07 0.399471668407D-06 0.000000000000D+00  7 2 -2 23 -11 11 23 21 2 0.58667442D-01 0.61823595D-01 0.88171522D+05 0.88171522D+05 0.88171522D+05 0.11262363D+01  1  2  3  1  7  1        2 -.142741918286D-04 0.100000000000D+01
0.552820987467D-06 0.000000000000D+00 0.000000000000D+00 0.399471668407D-06 0.000000000000D+00  7 2 -2 23 -11 11 23 21 2 0.58667442D-01 0.61823595D-01 0.88171522D+05 0.88171522D+05 0.88171522D+05 0.11262363D+01  1  2 15  1  7  1        2 0.179140539847D-04 0.100000000000D+01
0.164354611952D-05 0.000000000000D+00 -.278553338157D-05 0.399471668407D-06 0.000000000000D+00  7 2 -2 23 -11 11 23 21 2 0.16264342D+00 0.61823595D-01 0.88171522D+05 0.88171522D+05 0.88171522D+05 0.11262363D+01  1  2  5  1  7  1        2 0.156894490168D-04 0.100000000000D+01
0.345237505208D-06 0.000000000000D+00 -.318378411904D-06 0.399471668407D-06 0.000000000000D+00  7 21 -2 23 -11 11 23 -2 2 0.16264342D+00 0.61823595D-01 0.88171522D+05 0.88171522D+05 0.88171522D+05 0.11262363D+01  1  2  5  3  7  1        2 0.222152082887D-05 0.100000000000D+01
  </mgrwgt>
  </event>
  <event>
  9     66 0.55102590E-06 0.22923649E+03 0.75467711E-02 0.10052031E+00
        2 -1    0    0  501    0 0.00000000E+00 0.00000000E+00 0.39872550E+03 0.39872563E+03 0.32000000E+00 0.0000E+00 0.9000E+01
       21 -1    0    0  502  501 0.00000000E+00 0.00000000E+00 -.52457075E+03 0.52457129E+03 0.75000000E+00 0.0000E+00 0.9000E+01
       25  2    1    2    0    0 -.17800444E+03 0.10394183E+03 -.15246251E+03 0.39476483E+03 0.30017490E+03 0.0000E+00 0.0000E+00
       23  2    1    2    0    0 0.69250467E+02 -.34562387E+01 0.24202760E+03 0.26713870E+03 0.89320513E+02 0.0000E+00 0.0000E+00
       23  1    3    3    0    0 -.53829632E+02 0.16016193E+03 -.12332975E+03 0.22819937E+03 0.91188000E+02 0.0000E+00 0.9000E+01
      -11  1    4    4    0    0 0.14561049E+02 0.37997261E+02 0.59023373E+02 0.71690826E+02 0.51099893E-03 0.0000E+00 0.9000E+01
       11  1    4    4    0    0 0.54689418E+02 -.41453500E+02 0.18300423E+03 0.19544788E+03 0.51099893E-03 0.0000E+00 0.9000E+01
       23  1    3    3    0    0 -.12417481E+03 -.56220104E+02 -.29132756E+02 0.16656546E+03 0.91188000E+02 0.0000E+00 0.9000E+01
        2  1    1    2  502    0 0.10875397E+03 -.10048559E+03 -.21541035E+03 0.26139338E+03 0.32000000E+00 0.0000E+00 0.9000E+01
#aMCatNLO 2  0  0  2  1 0.14807019D+03 0.00000000D+00  -5  7  0 0.00000000D+00 0.00000000D+00 0.00000000D+00 0.00000000D+00 0.00000000D+00
  <mgrwgt>
 0.5329717603D-04    2    2    0
 0.319440762013589D+03 0.000000000000000D+00 0.000000000000000D+00 0.319440762013589D+03
 0.319440762013589D+03 0.000000000000000D+00 0.000000000000000D+00 -.319440762013589D+03
 0.219358133784100D+03 -.146422520777737D+02 0.123953904836956D+03 -.155639883844099D+03
 0.625019986752041D+02 0.252119764046185D+02 0.281561059011623D+02 0.497804156737437D+02
 0.192664861776617D+03 0.853437067892810D+02 -.697771942994675D+02 0.158010581387964D+03
 0.164356529791257D+03 -.959134311161259D+02 -.823328164386508D+02 -.521511132176086D+02
 0.000000000000000D+00 0.000000000000000D+00 -.000000000000000D+00 -.000000000000000D+00
 0.347972801545264D+03 0.000000000000000D+00 0.000000000000000D+00 0.347972801545264D+03
 0.601081293596123D+03 0.000000000000000D+00 0.000000000000000D+00 -.601081293596123D+03
 0.247160876621089D+03 -.538296316350569D+02 0.160161933377238D+03 -.155639883844099D+03
 0.642954568701938D+02 0.145610492043751D+02 0.379972608955436D+02 0.497804156737437D+02
 0.172269175591306D+03 0.546894176461916D+02 -.414534995611510D+02 0.158010581387964D+03
 0.172090305248951D+03 -.124174808533771D+03 -.562201043439330D+02 -.521511132176086D+02
 0.293238280809846D+03 0.108753973318261D+03 -.100485590367697D+03 -.253108492050860D+03
-.115066230516D-06 0.000000000000D+00 0.000000000000D+00 0.184252127682D-06 0.000000000000D+00  7 2 21 23 -11 11 23 2 2 0.56312647D-01 0.81077084D-01 0.94060685D+05 0.94060685D+05 0.94060685D+05 0.11239108D+01  1  2 13  4  7  2       -2 -.214846803602D-04 0.100000000000D+01
0.434788571266D-06 0.000000000000D+00 0.000000000000D+00 0.184252127682D-06 0.481775577465D-11  7 2 21 23 -11 11 23 2 2 0.61342421D-01 0.80703225D-01 0.94060685D+05 0.94060685D+05 0.94060685D+05 0.11239108D+01  1  2  1  4  7  2       -2 0.747818563860D-04 0.100000000000D+01
  </mgrwgt>
  </event>
  <event>
  8     66 0.55102590E-06 0.20701245E+03 0.75467711E-02 0.10111563E+00
        2 -1    0    0  501    0 0.00000000E+00 0.00000000E+00 0.57671792E+03 0.57671800E+03 0.32000000E+00 0.0000E+00 0.9000E+01
       -2 -1    0    0    0  501 0.00000000E+00 0.00000000E+00 -.97498810E+02 0.97499335E+02 0.32000000E+00 0.0000E+00 0.9000E+01
       25  2    1    2    0    0 -.55295015E+02 0.80411240E+02 0.41947850E+03 0.52590922E+03 0.30181914E+03 0.0000E+00 0.0000E+00
       23  2    1    2    0    0 0.55295015E+02 -.80411240E+02 0.59740605E+02 0.14830812E+03 0.94354922E+02 0.0000E+00 0.0000E+00
       23  1    3    3    0    0 -.11373576E+03 -.37114223E+02 0.25840210E+03 0.29899864E+03 0.91188000E+02 0.0000E+00 0.9000E+01
      -11  1    4    4    0    0 0.10805093E+02 -.46761535E+02 0.76282898E+02 0.90124757E+02 0.51099893E-03 0.0000E+00 0.9000E+01
       11  1    4    4    0    0 0.44489922E+02 -.33649705E+02 -.16542294E+02 0.58183359E+02 0.51099893E-03 0.0000E+00 0.9000E+01
       23  1    3    3    0    0 0.58440747E+02 0.11752546E+03 0.16107640E+03 0.22691058E+03 0.91188000E+02 0.0000E+00 0.9000E+01
#aMCatNLO 1  0  0  1  1 0.15458178D+03 0.00000000D+00  -5  7  0 0.00000000D+00 0.00000000D+00 0.00000000D+00 0.00000000D+00 0.00000000D+00
  <mgrwgt>
 0.1890469543D-03    7    2    0
 0.237127640031408D+03 0.000000000000000D+00 0.000000000000000D+00 0.237127640031408D+03
 0.237127640031408D+03 0.000000000000000D+00 0.000000000000000D+00 -.237127640031408D+03
 0.163959890351635D+03 -.113735762639319D+03 -.371142227098266D+02 0.652250340714215D+02
 0.510430822860126D+02 0.108050934285728D+02 -.467615348107482D+02 0.173782929944126D+02
 0.994308658173202D+02 0.444899220927733D+02 -.336497058931845D+02 -.823094235349944D+02
 0.159821441607849D+03 0.584407471179724D+02 0.117525463413759D+03 -.293903530839778D+00
 0.000000000000000D+00 0.000000000000000D+00 -.000000000000000D+00 0.000000000000000D+00
 0.328436439800448D+03 0.000000000000000D+00 0.000000000000000D+00 0.328436439800448D+03
 0.324995817301733D+03 0.000000000000000D+00 0.000000000000000D+00 -.324995817301733D+03
 0.209040348356108D+03 -.172948779099029D+03 -.348859661666434D+02 0.652250340714215D+02
 0.495935402399508D+02 -.517076226182694D+01 -.461603442769185D+02 0.173782929944126D+02
 0.896758711117776D+02 0.144696187138297D+02 -.325200060158274D+02 -.823094235349944D+02
 0.150502428029013D+03 0.917747462166135D+01 0.119379299205983D+03 -.293903530839778D+00
 0.154620069365332D+03 0.154472448025365D+03 -.581298274659351D+01 0.344062249871546D+01
0.893842498973D-06 0.000000000000D+00 0.000000000000D+00 0.243049014835D-08 0.000000000000D+00  7 2 -2 23 -11 11 23 21 0 0.88725880D-01 0.14999864D-01 0.42854156D+05 0.42854156D+05 0.42854156D+05 0.11532337D+01  1  2  2  1  7  1        2 0.179419661994D-03 0.100000000000D+01
-.485441480272D-07 0.000000000000D+00 -.343259055019D-08 0.243049014835D-08 0.000000000000D+00  7 2 -2 23 -11 11 23 21 2 0.88725880D-01 0.14999864D-01 0.42854156D+05 0.42854156D+05 0.42854156D+05 0.11532337D+01  1  2  3  1  7  1        2 -.129592702405D-04 0.100000000000D+01
0.568332011778D-07 0.000000000000D+00 0.000000000000D+00 0.243049014835D-08 0.000000000000D+00  7 2 -2 23 -11 11 23 21 2 0.88725880D-01 0.14999864D-01 0.42854156D+05 0.42854156D+05 0.42854156D+05 0.11532337D+01  1  2 15  1  7  1        2 0.151721029748D-04 0.100000000000D+01
-.265518560437D-06 0.000000000000D+00 0.000000000000D+00 0.243049014835D-08 0.000000000000D+00  7 2 -2 23 -11 11 23 21 2 0.88725880D-01 0.14999864D-01 0.42854156D+05 0.42854156D+05 0.42854156D+05 0.11532337D+01  1  2  4  1  7  1        2 -.708824218447D-04 0.100000000000D+01
-.303524588756D-06 0.000000000000D+00 -.302127202804D-06 0.243049014835D-08 0.000000000000D+00  7 2 -2 23 -11 11 23 21 2 0.15697180D+00 0.14999864D-01 0.42854156D+05 0.42854156D+05 0.42854156D+05 0.11532337D+01  1  2  5  1  7  1        2 -.401100265565D-04 0.100000000000D+01
0.444800047871D-06 0.000000000000D+00 0.258846546274D-06 0.243049014835D-08 0.000000000000D+00  7 2 -2 23 -11 11 23 21 2 0.88725880D-01 0.14999864D-01 0.42854156D+05 0.42854156D+05 0.42854156D+05 0.11532337D+01  1  2  6  1  7  1        2 0.118743128834D-03 0.100000000000D+01
-.344266420352D-08 0.000000000000D+00 -.189832455346D-07 0.243049014835D-08 0.000000000000D+00  7 21 -2 23 -11 11 23 -2 2 0.15697180D+00 0.14999864D-01 0.42854156D+05 0.42854156D+05 0.42854156D+05 0.11532337D+01  1  2  5  3  7  1        2 -.336220859439D-06 0.100000000000D+01
  </mgrwgt>
  </event>
  <event>
  8     66 0.55102590E-06 0.37679827E+03 0.75467711E-02 0.91275043E-01
        2 -1    0    0  501    0 0.00000000E+00 0.00000000E+00 0.20267514E+04 0.20267515E+04 0.32000000E+00 0.0000E+00 0.9000E+01
       -2 -1    0    0    0  501 0.00000000E+00 0.00000000E+00 -.30659139E+03 0.30659156E+03 0.32000000E+00 0.0000E+00 0.9000E+01
       25  2    1    2    0    0 0.54984098E+03 0.28461050E+03 0.15329765E+04 0.16800957E+04 0.29895914E+03 0.0000E+00 0.0000E+00
       23  2    1    2    0    0 -.54984098E+03 -.28461050E+03 0.18718360E+03 0.65324731E+03 0.91466395E+02 0.0000E+00 0.0000E+00
       23  1    3    3    0    0 0.17278341E+03 0.60594973E+02 0.75649344E+03 0.78366028E+03 0.91188000E+02 0.0000E+00 0.9000E+01
      -11  1    4    4    0    0 -.11867210E+03 -.84575144E+02 0.10297918E+02 0.14608925E+03 0.51099893E-03 0.0000E+00 0.9000E+01
       11  1    4    4    0    0 -.43116889E+03 -.20003536E+03 0.17688568E+03 0.50715806E+03 0.51099893E-03 0.0000E+00 0.9000E+01
       23  1    3    3    0    0 0.37705758E+03 0.22401553E+03 0.77648301E+03 0.89643543E+03 0.91188000E+02 0.0000E+00 0.9000E+01
#aMCatNLO 1  0  0  2  1 0.82041580D+02 0.00000000D+00  -5  7  0 0.00000000D+00 0.00000000D+00 0.00000000D+00 0.00000000D+00 0.00000000D+00
  <mgrwgt>
 0.2555301251D-03    9    2    0
 0.788279625292621D+03 0.000000000000000D+00 0.000000000000000D+00 0.788279625292621D+03
 0.788279625292621D+03 0.000000000000000D+00 0.000000000000000D+00 -.788279625292621D+03
 0.334436180984105D+03 0.172783409257423D+03 0.605949728496836D+02 0.264587321234335D+03
 0.204979456732139D+03 -.118672095079433D+03 -.845751436687183D+02 -.144154627414719D+03
 0.557607995738166D+03 -.431168889248926D+03 -.200035357698274D+03 -.291557749897864D+03
 0.479535617130832D+03 0.377057575070937D+03 0.224015528517309D+03 0.171125056078248D+03
 0.000000000000000D+00 0.000000000000000D+00 0.000000000000000D+00 -.000000000000000D+00
 0.813054826290208D+03 0.000000000000000D+00 0.000000000000000D+00 0.813054826290208D+03
 0.860320710943198D+03 0.000000000000000D+00 0.000000000000000D+00 -.860320710943198D+03
 0.330345134624224D+03 0.170033428610774D+03 0.435297510077934D+02 0.264587321234335D+03
 0.210584387379212D+03 -.120391145392554D+03 -.952428459983774D+02 -.144154627414719D+03
 0.572209039327960D+03 -.435842569010583D+03 -.229038246154167D+03 -.291557749897864D+03
 0.465553901240473D+03 0.373148052008464D+03 0.199754674740616D+03 0.171125056078248D+03
 0.946830746615367D+02 0.130522337838992D+02 0.809966664041354D+02 -.472658846529902D+02
0.505500673169D-04 0.000000000000D+00 0.000000000000D+00 0.858194449490D-06 0.000000000000D+00  7 2 -2 23 -11 11 23 21 0 0.31180793D+00 0.47167921D-01 0.40548291D+06 0.40548291D+06 0.40548291D+06 0.10750017D+01  1  2  2  2  7  2       -2 0.177923838039D-03 0.100000000000D+01
-.265278866238D-05 0.000000000000D+00 -.194125568635D-06 0.858194449490D-06 0.000000000000D+00  7 2 -2 23 -11 11 23 21 2 0.31180793D+00 0.47167921D-01 0.40548291D+06 0.40548291D+06 0.40548291D+06 0.10750017D+01  1  2  3  2  7  2       -2 -.107902949262D-04 0.100000000000D+01
0.317038728253D-05 0.000000000000D+00 0.000000000000D+00 0.858194449490D-06 0.000000000000D+00  7 2 -2 23 -11 11 23 21 2 0.31180793D+00 0.47167921D-01 0.40548291D+06 0.40548291D+06 0.40548291D+06 0.10750017D+01  1  2 15  2  7  2       -2 0.128956423457D-04 0.100000000000D+01
0.125153508567D-03 0.000000000000D+00 0.000000000000D+00 0.858194449490D-06 0.000000000000D+00  7 2 -2 23 -11 11 23 21 2 0.31180793D+00 0.52171875D-01 0.46149213D+06 0.46149213D+06 0.46149213D+06 0.10709790D+01  1  2 12  2  7  2       -2 0.410695173390D-03 0.100000000000D+01
-.123314404735D-03 0.000000000000D+00 0.000000000000D+00 0.858194449490D-06 0.000000000000D+00  7 2 -2 23 -11 11 23 21 2 0.31180793D+00 0.47167921D-01 0.40548291D+06 0.40548291D+06 0.40548291D+06 0.10750017D+01  1  2  4  2  7  2       -2 -.501584922540D-03 0.100000000000D+01
-.294289203897D-03 0.000000000000D+00 -.579835451446D-04 0.858194449490D-06 0.000000000000D+00  7 2 -2 23 -11 11 23 21 2 0.31180793D+00 0.53029707D-01 0.40548291D+06 0.40548291D+06 0.40548291D+06 0.10750017D+01  1  2  5  2  7  2       -2 -.948254800839D-03 0.100000000000D+01
0.299420261655D-03 0.000000000000D+00 0.575880001265D-04 0.858194449490D-06 0.000000000000D+00  7 2 -2 23 -11 11 23 21 2 0.31180793D+00 0.47167921D-01 0.40548291D+06 0.40548291D+06 0.40548291D+06 0.10750017D+01  1  2  6  2  7  2       -2 0.121790061001D-02 0.100000000000D+01
0.204733117595D-05 0.000000000000D+00 0.000000000000D+00 0.858194449490D-06 0.000000000000D+00  7 2 21 23 -11 11 23 2 2 0.31180793D+00 0.52171875D-01 0.46149213D+06 0.46149213D+06 0.46149213D+06 0.10709790D+01  1  2 12  4  7  2       -2 0.687327542620D-04 0.100000000000D+01
-.521487038755D-05 0.000000000000D+00 -.107802186625D-05 0.858194449490D-06 0.000000000000D+00  7 2 21 23 -11 11 23 2 2 0.31180793D+00 0.53029707D-01 0.40548291D+06 0.40548291D+06 0.40548291D+06 0.10750017D+01  1  2  5  4  7  2       -2 -.171987874686D-03 0.100000000000D+01
  </mgrwgt>
  </event>
  <event>
  8     66 0.55102590E-06 0.64998406E+03 0.75467711E-02 0.83278888E-01
        2 -1    0    0  501    0 0.00000000E+00 0.00000000E+00 0.45303111E+03 0.45303122E+03 0.32000000E+00 0.0000E+00 0.9000E+01
       -2 -1    0    0    0  501 0.00000000E+00 0.00000000E+00 -.11140151E+04 0.11140152E+04 0.32000000E+00 0.0000E+00 0.9000E+01
       25  2    1    2    0    0 -.53794616E+03 -.29595005E+03 -.65164345E+03 0.94487646E+03 0.30195997E+03 0.0000E+00 0.0000E+00
       23  2    1    2    0    0 0.53794616E+03 0.29595005E+03 -.93405459E+01 0.62216992E+03 0.10017815E+03 0.0000E+00 0.0000E+00
       23  1    3    3    0    0 -.45791457E+02 -.10808784E+03 -.12175070E+03 0.19214141E+03 0.91188000E+02 0.0000E+00 0.9000E+01
      -13  1    4    4    0    0 0.26800233E+03 0.18040963E+03 0.35966752E+02 0.32506384E+03 0.10565837E+00 0.0000E+00 0.9000E+01
       13  1    4    4    0    0 0.26994383E+03 0.11554042E+03 -.45307298E+02 0.29710608E+03 0.10565837E+00 0.0000E+00 0.9000E+01
       23  1    3    3    0    0 -.49215470E+03 -.18786221E+03 -.52989276E+03 0.75273504E+03 0.91188000E+02 0.0000E+00 0.9000E+01
#aMCatNLO 1  0  0  1  1 0.13057694D+04 0.00000000D+00  -5  7  0 0.00000000D+00 0.00000000D+00 0.00000000D+00 0.00000000D+00 0.00000000D+00
  <mgrwgt>
 0.2265658024D-03    3    2    0
 0.710410887316008D+03 0.000000000000000D+00 0.000000000000000D+00 0.710410887316008D+03
 0.710410887316008D+03 0.000000000000000D+00 0.000000000000000D+00 -.710410887316008D+03
 0.155275805051114D+03 -.457914565949272D+02 -.108087843185077D+03 -.448941527237656D+02
 0.375250216238858D+03 0.268002332581349D+03 0.180409700221800D+03 0.190892154328421D+03
 0.306605307733313D+03 0.269943828634686D+03 0.115540351963925D+03 0.882472162752948D+02
 0.583690445608731D+03 -.492154704621108D+03 -.187862209000648D+03 -.234245217879951D+03
 0.000000000000000D+00 -.000000000000000D+00 -.000000000000000D+00 -.000000000000000D+00
 0.148755789429479D+04 0.000000000000000D+00 0.000000000000000D+00 0.148755789429479D+04
 0.178033988420178D+04 0.000000000000000D+00 0.000000000000000D+00 -.178033988420178D+04
 0.103431517518103D+03 0.160427939689981D+01 -.190989217216432D+02 -.448941527237656D+02
 0.771772487621050D+03 0.478139350385438D+03 0.574957145948835D+03 0.190892154328421D+03
 0.626761571640416D+03 0.440938641456333D+03 0.436595477502308D+03 0.882472162752948D+02
 0.427741220560917D+03 -.306858255539251D+03 0.160045272753447D+03 -.234245217879951D+03
 0.133819098115609D+04 -.613824015699420D+03 -.115249897448295D+04 -.292781989906989D+03
0.134368954448D-03 0.000000000000D+00 0.000000000000D+00 0.411924009448D-08 0.000000000000D+00  7 2 -2 23 -13 13 23 21 0 0.69697106D-01 0.17138695D+00 0.42247927D+06 0.42247927D+06 0.42247927D+06 0.10737200D+01  1  2  2  1  7  1        2 0.224277190009D-03 0.100000000000D+01
-.739321712188D-05 0.000000000000D+00 -.516012165238D-06 0.411924009448D-08 0.000000000000D+00  7 2 -2 23 -13 13 23 21 2 0.69697106D-01 0.17138695D+00 0.42247927D+06 0.42247927D+06 0.42247927D+06 0.10737200D+01  1  2  3  1  7  1        2 -.142266197663D-04 0.100000000000D+01
0.858255150795D-05 0.000000000000D+00 0.000000000000D+00 0.411924009448D-08 0.000000000000D+00  7 2 -2 23 -13 13 23 21 2 0.69697106D-01 0.17138695D+00 0.42247927D+06 0.42247927D+06 0.42247927D+06 0.10737200D+01  1  2 15  1  7  1        2 0.165152321263D-04 0.100000000000D+01
  </mgrwgt>
  </event>
  <event>
  8     66 0.55102590E-06 0.10629744E+03 0.75467711E-02 0.10489460E+00
        2 -1    0    0  501    0 0.00000000E+00 0.00000000E+00 0.59815604E+03 0.59815612E+03 0.32000000E+00 0.0000E+00 0.9000E+01
       -2 -1    0    0    0  501 0.00000000E+00 0.00000000E+00 -.10752294E+03 0.10752342E+03 0.32000000E+00 0.0000E+00 0.9000E+01
       25  2    1    2    0    0 0.33010468E+02 -.97508863E+02 0.47026779E+03 0.56582731E+03 0.29734001E+03 0.0000E+00 0.0000E+00
       23  2    1    2    0    0 -.33010468E+02 0.97508863E+02 0.20365308E+02 0.13985224E+03 0.92445840E+02 0.0000E+00 0.0000E+00
       23  1    3    3    0    0 0.11769041E+03 -.66520924E+02 0.36551088E+03 0.40023683E+03 0.91188000E+02 0.0000E+00 0.9000E+01
      -11  1    4    4    0    0 0.11855537E+02 0.52043548E+02 -.27489004E+02 0.60039404E+02 0.51099893E-03 0.0000E+00 0.9000E+01
       11  1    4    4    0    0 -.44866005E+02 0.45465315E+02 0.47854313E+02 0.79812834E+02 0.51099893E-03 0.0000E+00 0.9000E+01
       23  1    3    3    0    0 -.84679942E+02 -.30987939E+02 0.10475691E+03 0.16559048E+03 0.91188000E+02 0.0000E+00 0.9000E+01
#aMCatNLO 1  0  0  2  1 0.30985351D+02 0.00000000D+00  -5  7  0 0.00000000D+00 0.00000000D+00 0.00000000D+00 0.00000000D+00 0.00000000D+00
  <mgrwgt>
 0.1731027368D-03    9    2    0
 0.253605394492492D+03 0.000000000000000D+00 0.000000000000000D+00 0.253605394492492D+03
 0.253605394492492D+03 0.000000000000000D+00 0.000000000000000D+00 -.253605394492492D+03
 0.203282760060552D+03 0.117690409947473D+03 -.665209243219972D+02 0.121377770730802D+03
 0.110123040950233D+03 0.118555367880915D+02 0.520435483703800D+02 -.963223726276137D+02
 0.647529104560356D+02 -.448660047895595D+02 0.454653148806430D+02 -.106247903299111D+02
 0.129052077518163D+03 -.846799419460046D+02 -.309879389290258D+02 -.144306077732769D+02
 0.000000000000000D+00 0.000000000000000D+00 -.000000000000000D+00 -.000000000000000D+00
 0.264241636201187D+03 0.000000000000000D+00 0.000000000000000D+00 0.264241636201187D+03
 0.277694440814772D+03 0.000000000000000D+00 0.000000000000000D+00 -.277694440814772D+03
 0.198608451869910D+03 0.115930721901527D+03 -.543835480818786D+02 0.121377770730802D+03
 0.113370848515083D+03 0.108769646920639D+02 0.587932093315592D+02 -.963223726276137D+02
 0.680156087054915D+02 -.454473341869457D+02 0.494750105944813D+02 -.106247903299111D+02
 0.128161441299551D+03 -.858061560578904D+02 -.232199232092006D+02 -.144306077732769D+02
 0.337797266259230D+02 0.444580365124475D+01 -.306647486349613D+02 -.134528046135855D+02
0.862945627722D-06 0.000000000000D+00 0.000000000000D+00 0.626716267066D-08 0.000000000000D+00  7 2 -2 23 -11 11 23 21 0 0.92024049D-01 0.16542035D-01 0.41730988D+05 0.41730988D+05 0.41730988D+05 0.11542659D+01  1  2  2  2  7  2       -2 0.142232536704D-03 0.100000000000D+01
-.452148038348D-07 0.000000000000D+00 -.331393842926D-08 0.626716267066D-08 0.000000000000D+00  7 2 -2 23 -11 11 23 21 2 0.92024049D-01 0.16542035D-01 0.41730988D+05 0.41730988D+05 0.41730988D+05 0.11542659D+01  1  2  3  2  7  2       -2 -.992905489974D-05 0.100000000000D+01
0.557782462667D-07 0.000000000000D+00 0.000000000000D+00 0.626716267066D-08 0.000000000000D+00  7 2 -2 23 -11 11 23 21 2 0.92024049D-01 0.16542035D-01 0.41730988D+05 0.41730988D+05 0.41730988D+05 0.11542659D+01  1  2 15  2  7  2       -2 0.122487597517D-04 0.100000000000D+01
0.171231556460D-05 0.000000000000D+00 0.000000000000D+00 0.626716267066D-08 0.000000000000D+00  7 2 -2 23 -11 11 23 21 2 0.92024049D-01 0.18435543D-01 0.48952934D+05 0.48952934D+05 0.48952934D+05 0.11481047D+01  1  2 12  2  7  2       -2 0.312794515008D-03 0.100000000000D+01
-.164458993758D-05 0.000000000000D+00 0.000000000000D+00 0.626716267066D-08 0.000000000000D+00  7 2 -2 23 -11 11 23 21 2 0.92024049D-01 0.16542035D-01 0.41730988D+05 0.41730988D+05 0.41730988D+05 0.11542659D+01  1  2  4  2  7  2       -2 -.361147730231D-03 0.100000000000D+01
-.422073057344D-05 0.000000000000D+00 -.927642438769D-06 0.626716267066D-08 0.000000000000D+00  7 2 -2 23 -11 11 23 21 2 0.92024049D-01 0.18839169D-01 0.41730988D+05 0.41730988D+05 0.41730988D+05 0.11542659D+01  1  2  5  2  7  2       -2 -.751796990883D-03 0.100000000000D+01
0.431263096455D-05 0.000000000000D+00 0.919854702167D-06 0.626716267066D-08 0.000000000000D+00  7 2 -2 23 -11 11 23 21 2 0.92024049D-01 0.16542035D-01 0.41730988D+05 0.41730988D+05 0.41730988D+05 0.11542659D+01  1  2  6  2  7  2       -2 0.947042693491D-03 0.100000000000D+01
0.298014398776D-07 0.000000000000D+00 0.000000000000D+00 0.626716267066D-08 0.000000000000D+00  7 2 21 23 -11 11 23 2 2 0.92024049D-01 0.18435543D-01 0.48952934D+05 0.48952934D+05 0.48952934D+05 0.11481047D+01  1  2 12  4  7  2       -2 0.721888126776D-04 0.100000000000D+01
-.806689758710D-07 0.000000000000D+00 -.188220734390D-07 0.626716267066D-08 0.000000000000D+00  7 2 21 23 -11 11 23 2 2 0.92024049D-01 0.18839169D-01 0.41730988D+05 0.41730988D+05 0.41730988D+05 0.11542659D+01  1  2  5  4  7  2       -2 -.190530804782D-03 0.100000000000D+01
  </mgrwgt>
  </event>
  <event>
  8     66 0.55102590E-06 0.34270630E+03 0.75467711E-02 0.93776584E-01
        2 -1    0    0  501    0 0.00000000E+00 0.00000000E+00 0.10082020E+04 0.10082020E+04 0.32000000E+00 0.0000E+00 0.9000E+01
       -2 -1    0    0    0  501 0.00000000E+00 0.00000000E+00 -.14635312E+03 0.14635347E+03 0.32000000E+00 0.0000E+00 0.9000E+01
       25  2    1    2    0    0 -.80070124E+02 0.26915279E+03 0.26299804E+03 0.48758426E+03 0.29952629E+03 0.0000E+00 0.0000E+00
       23  2    1    2    0    0 0.80070124E+02 -.26915279E+03 0.59885083E+03 0.66697125E+03 0.85871267E+02 0.0000E+00 0.0000E+00
       23  1    3    3    0    0 -.13140448E+03 0.78253159E+02 0.54672419E+02 0.18626599E+03 0.91188000E+02 0.0000E+00 0.9000E+01
      -11  1    4    4    0    0 0.60230237E+02 -.83579369E+02 0.26788411E+03 0.28701060E+03 0.51099893E-03 0.0000E+00 0.9000E+01
       11  1    4    4    0    0 0.19839887E+02 -.18557342E+03 0.33096673E+03 0.37996064E+03 0.51099893E-03 0.0000E+00 0.9000E+01
       23  1    3    3    0    0 0.51334358E+02 0.19089963E+03 0.20832562E+03 0.30131827E+03 0.91188000E+02 0.0000E+00 0.9000E+01
#aMCatNLO 1  0  0  1  1 0.33013069D+03 0.00000000D+00  -5  7  0 0.00000000D+00 0.00000000D+00 0.00000000D+00 0.00000000D+00 0.00000000D+00
  <mgrwgt>
 0.2669789008D-03    3    2    0
 0.384127240674523D+03 0.000000000000000D+00 0.000000000000000D+00 0.384127240674523D+03
 0.384127240674523D+03 0.000000000000000D+00 0.000000000000000D+00 -.384127240674523D+03
 0.218593015291925D+03 -.131404481997902D+03 0.782531589028399D+02 -.126794953460323D+03
 0.130808295797511D+03 0.602302369054386D+02 -.835793686435006D+02 0.806078032755999D+02
 0.199728550726699D+03 0.198398868554721D+02 -.185573422278684D+03 0.711363325504400D+02
 0.219124619532910D+03 0.513343582369911D+02 0.190899632019345D+03 -.249491823657166D+02
 0.000000000000000D+00 0.000000000000000D+00 -.000000000000000D+00 -.000000000000000D+00
 0.505743431404659D+03 0.000000000000000D+00 0.000000000000000D+00 0.505743431404659D+03
 0.728940039761142D+03 0.000000000000000D+00 0.000000000000000D+00 -.728940039761142D+03
 0.301958018026437D+03 -.208749698357241D+03 0.152348273765111D+03 -.126794953460323D+03
 0.988392706041927D+02 0.261084321776543D+02 -.508913866373853D+02 0.806078032755999D+02
 0.156067394512327D+03 -.330254665928951D+02 -.134929508920255D+03 0.711363325504400D+02
 0.279317846356462D+03 -.227258931107727D+02 0.261847818457233D+03 -.249491823657166D+02
 0.398500941666382D+03 0.238392625883254D+03 -.228375196664705D+03 -.223196608356483D+03
0.510973616298D-05 0.000000000000D+00 0.000000000000D+00 0.138188121915D-07 0.000000000000D+00  7 2 -2 23 -11 11 23 21 0 0.15510803D+00 0.22515895D-01 0.11744761D+06 0.11744761D+06 0.11744761D+06 0.11160352D+01  1  2  2  1  7  1        2 0.263853854189D-03 0.100000000000D+01
-.279380789501D-06 0.000000000000D+00 -.196227322903D-07 0.138188121915D-07 0.000000000000D+00  7 2 -2 23 -11 11 23 21 2 0.15510803D+00 0.22515895D-01 0.11744761D+06 0.11744761D+06 0.11744761D+06 0.11160352D+01  1  2  3  1  7  1        2 -.179687258799D-04 0.100000000000D+01
0.327969542193D-06 0.000000000000D+00 0.000000000000D+00 0.138188121915D-07 0.000000000000D+00  7 2 -2 23 -11 11 23 21 2 0.15510803D+00 0.22515895D-01 0.11744761D+06 0.11744761D+06 0.11744761D+06 0.11160352D+01  1  2 15  1  7  1        2 0.210937724499D-04 0.100000000000D+01
  </mgrwgt>
  </event>
  <event>
  8     66 0.55102590E-06 0.35690073E+03 0.75467711E-02 0.90692727E-01
        2 -1    0    0  501    0 0.00000000E+00 0.00000000E+00 0.14836169E+04 0.14836169E+04 0.32000000E+00 0.0000E+00 0.9000E+01
       -2 -1    0    0    0  501 0.00000000E+00 0.00000000E+00 -.20320649E+03 0.20320674E+03 0.32000000E+00 0.0000E+00 0.9000E+01
       25  2    1    2    0    0 -.19294307E+03 -.21127707E+03 0.47050709E+02 0.41741831E+03 0.30026530E+03 0.0000E+00 0.0000E+00
       23  2    1    2    0    0 0.19294307E+03 0.21127707E+03 0.12333597E+04 0.12694054E+04 0.91371866E+02 0.0000E+00 0.0000E+00
       23  1    3    3    0    0 -.32666384E+02 0.38465030E+02 0.79668126E+01 0.10452451E+03 0.91188000E+02 0.0000E+00 0.9000E+01
      -13  1    4    4    0    0 0.15231485E+03 0.20877636E+03 0.10225547E+04 0.10547064E+04 0.10565837E+00 0.0000E+00 0.9000E+01
       13  1    4    4    0    0 0.40628215E+02 0.25007065E+01 0.21080497E+03 0.21469898E+03 0.10565837E+00 0.0000E+00 0.9000E+01
       23  1    3    3    0    0 -.16027668E+03 -.24974210E+03 0.39083897E+02 0.31289380E+03 0.91188000E+02 0.0000E+00 0.9000E+01
#aMCatNLO 1  0  0  1  1 0.62140077D+03 0.00000000D+00  -5  7  0 0.00000000D+00 0.00000000D+00 0.00000000D+00 0.00000000D+00 0.00000000D+00
  <mgrwgt>
 0.4433724470D-03    3    2    0
 0.549072697157073D+03 0.000000000000000D+00 0.000000000000000D+00 0.549072697157073D+03
 0.549072697157073D+03 0.000000000000000D+00 0.000000000000000D+00 -.549072697157073D+03
 0.151267422262868D+03 -.326663838509544D+02 0.384650295074390D+02 -.109635443927349D+03
 0.427825403957584D+03 0.152315003415875D+03 0.208776635313694D+03 0.340950190721437D+03
 0.839979303625142D+02 0.406280652607591D+02 0.250043068701996D+01 0.734762578302182D+02
 0.435054637731179D+03 -.160276684825679D+03 -.249742095508153D+03 -.304791004624306D+03
 0.000000000000000D+00 0.000000000000000D+00 0.000000000000000D+00 -.000000000000000D+00
 0.777288762807875D+03 0.000000000000000D+00 0.000000000000000D+00 0.777288762807875D+03
 0.129025684237856D+04 0.000000000000000D+00 0.000000000000000D+00 -.129025684237856D+04
 0.170925235987938D+03 -.914611461668560D+02 -.226961038557375D+02 -.109635443927349D+03
 0.346671867125805D+03 0.109822268874439D+02 0.617554985090385D+02 0.340950190721437D+03
 0.795610657568655D+02 0.107812886343947D+02 -.285476187276182D+02 0.734762578302182D+02
 0.664611311046184D+03 -.360947297360016D+03 -.458489296990817D+03 -.304791004624306D+03
 0.805776125269644D+03 0.430644928005033D+03 0.447977521065134D+03 -.512968079570686D+03
0.276115771845D-04 0.000000000000D+00 0.000000000000D+00 0.186078254830D-05 0.000000000000D+00  7 2 -2 23 -13 13 23 21 0 0.22824877D+00 0.31262559D-01 0.12737813D+06 0.12737813D+06 0.12737813D+06 0.11131985D+01  1  2  2  1  7  1        2 0.433794484540D-03 0.100000000000D+01
-.118787974633D-05 0.000000000000D+00 -.106035726684D-06 0.186078254830D-05 0.000000000000D+00  7 2 -2 23 -13 13 23 21 2 0.22824877D+00 0.31262559D-01 0.12737813D+06 0.12737813D+06 0.12737813D+06 0.11131985D+01  1  2  3  1  7  1        2 -.231265312942D-04 0.100000000000D+01
0.167984576948D-05 0.000000000000D+00 0.000000000000D+00 0.186078254830D-05 0.000000000000D+00  7 2 -2 23 -13 13 23 21 2 0.22824877D+00 0.31262559D-01 0.12737813D+06 0.12737813D+06 0.12737813D+06 0.11131985D+01  1  2 15  1  7  1        2 0.327044937647D-04 0.100000000000D+01
  </mgrwgt>
  </event>
  <event>
  8     66 0.55102590E-06 0.80961827E+02 0.75467711E-02 0.10259098E+00
        2 -1    0    0  501    0 0.00000000E+00 0.00000000E+00 0.63180350E+03 0.63180358E+03 0.32000000E+00 0.0000E+00 0.9000E+01
       -2 -1    0    0    0  501 0.00000000E+00 0.00000000E+00 -.96518056E+02 0.96518586E+02 0.32000000E+00 0.0000E+00 0.9000E+01
       25  2    1    2    0    0 0.73707290E+02 -.93490294E+02 0.46506106E+03 0.56207541E+03 0.29235898E+03 0.0000E+00 0.0000E+00
       23  2    1    2    0    0 -.73707290E+02 0.93490294E+02 0.70224380E+02 0.16624676E+03 0.92375978E+02 0.0000E+00 0.0000E+00
       23  1    3    3    0    0 0.14728914E+03 -.82193255E+02 0.33991276E+03 0.39026370E+03 0.91188000E+02 0.0000E+00 0.9000E+01
      -13  1    4    4    0    0 -.41800985E+02 0.10193550E+03 0.29941769E+02 0.11416957E+03 0.10565837E+00 0.0000E+00 0.9000E+01
       13  1    4    4    0    0 -.31906305E+02 -.84452103E+01 0.40282610E+02 0.52077190E+02 0.10565837E+00 0.0000E+00 0.9000E+01
       23  1    3    3    0    0 -.73581854E+02 -.11297040E+02 0.12514830E+03 0.17181170E+03 0.91188000E+02 0.0000E+00 0.9000E+01
#aMCatNLO 1  0  0  1  2 0.66950856D+02 0.00000000D+00  -5  7  0 0.00000000D+00 0.00000000D+00 0.00000000D+00 0.00000000D+00 0.00000000D+00
  <mgrwgt>
 0.2467157969D-02    9    2    0
 0.246942641284770D+03 0.000000000000000D+00 0.000000000000000D+00 0.246942641284770D+03
 0.246942641284770D+03 0.000000000000000D+00 0.000000000000000D+00 -.246942641284770D+03
 0.207107514139164D+03 0.147289137654169D+03 -.821932590701206D+02 0.782844119951543D+02
 0.135911938776872D+03 -.418010069221695D+02 0.101935657053142D+03 -.795855058633499D+02
 0.331376759881908D+02 -.319062932058327D+02 -.844535038718471D+01 0.296143218720811D+01
 0.117728153665313D+03 -.735818375261673D+02 -.112970475958366D+02 -.166033831901250D+01
 0.000000000000000D+00 0.000000000000000D+00 0.000000000000000D+00 0.000000000000000D+00
 0.315165543051589D+03 0.000000000000000D+00 0.000000000000000D+00 0.315165543051589D+03
 0.266189316997272D+03 0.000000000000000D+00 0.000000000000000D+00 -.266189316997272D+03
 0.191647979038921D+03 0.120921296521194D+03 -.875402045457358D+02 0.782844119951543D+02
 0.139962302570051D+03 -.600432839389455D+02 0.982364364735023D+02 -.795855058633499D+02
 0.379072157198786D+02 -.366041605704615D+02 -.939799723163680D+01 0.296143218720811D+01
 0.128885040214222D+03 -.898892179353623D+02 -.146039043634556D+02 -.166033831901250D+01
 0.829523225057880D+02 0.656153659235751D+02 0.133056696673260D+02 0.489762260543175D+02
0.100628555869D-04 0.000000000000D+00 0.000000000000D+00 0.677410352261D-09 0.000000000000D+00  7 2 -2 23 -13 13 23 21 0 0.97200585D-01 0.14848979D-01 0.51220119D+05 0.51220119D+05 0.51220119D+05 0.11463755D+01  1  2  2  1  7  1        2 0.185305583139D-02 0.100000000000D+01
-.553877595824D-06 0.000000000000D+00 -.386440150642D-07 0.677410352261D-09 0.000000000000D+00  7 2 -2 23 -13 13 23 21 2 0.97200585D-01 0.14848979D-01 0.51220119D+05 0.51220119D+05 0.51220119D+05 0.11463755D+01  1  2  3  1  7  1        2 -.134040143531D-03 0.100000000000D+01
0.646267448561D-06 0.000000000000D+00 0.000000000000D+00 0.677410352261D-09 0.000000000000D+00  7 2 -2 23 -13 13 23 21 2 0.97200585D-01 0.14848979D-01 0.51220119D+05 0.51220119D+05 0.51220119D+05 0.11463755D+01  1  2 15  1  7  1        2 0.156398782363D-03 0.100000000000D+01
0.110827917076D-04 0.000000000000D+00 0.000000000000D+00 0.677410352261D-09 0.000000000000D+00  7 2 -2 23 -13 13 23 21 2 0.12705827D+00 0.14848979D-01 0.68560050D+05 0.68560050D+05 0.68560050D+05 0.11354278D+01  1  2 12  1  7  1        2 0.190804638580D-02 0.100000000000D+01
-.118177708461D-04 0.000000000000D+00 0.000000000000D+00 0.677410352261D-09 0.000000000000D+00  7 2 -2 23 -13 13 23 21 2 0.97200585D-01 0.14848979D-01 0.51220119D+05 0.51220119D+05 0.51220119D+05 0.11463755D+01  1  2  4  1  7  1        2 -.285993821085D-02 0.100000000000D+01
-.189843828342D-04 0.000000000000D+00 -.515845594579D-05 0.677410352261D-09 0.000000000000D+00  7 2 -2 23 -13 13 23 21 2 0.13026531D+00 0.14848979D-01 0.51220119D+05 0.51220119D+05 0.51220119D+05 0.11463755D+01  1  2  5  1  7  1        2 -.322715994743D-02 0.100000000000D+01
0.198512276944D-04 0.000000000000D+00 0.494497166173D-05 0.677410352261D-09 0.000000000000D+00  7 2 -2 23 -13 13 23 21 2 0.97200585D-01 0.14848979D-01 0.51220119D+05 0.51220119D+05 0.51220119D+05 0.11463755D+01  1  2  6  1  7  1        2 0.480406037270D-02 0.100000000000D+01
0.394575670554D-06 0.000000000000D+00 0.000000000000D+00 0.677410352261D-09 0.000000000000D+00  7 21 -2 23 -13 13 23 -2 2 0.12705827D+00 0.14848979D-01 0.68560050D+05 0.68560050D+05 0.68560050D+05 0.11354278D+01  1  2 12  3  7  1        2 0.678448811125D-04 0.100000000000D+01
-.609696462647D-06 0.000000000000D+00 -.195927235151D-06 0.677410352261D-09 0.000000000000D+00  7 21 -2 23 -13 13 23 -2 2 0.13026531D+00 0.14848979D-01 0.51220119D+05 0.51220119D+05 0.51220119D+05 0.11463755D+01  1  2  5  3  7  1        2 -.101109982988D-03 0.100000000000D+01
  </mgrwgt>
  </event>
  <event>
  8     66 0.55102590E-06 0.11025640E+03 0.75467711E-02 0.10090580E+00
        2 -1    0    0  501    0 0.00000000E+00 0.00000000E+00 0.23539623E+04 0.23539623E+04 0.32000000E+00 0.0000E+00 0.9000E+01
       -2 -1    0    0    0  501 0.00000000E+00 0.00000000E+00 -.35438121E+02 0.35439565E+02 0.32000000E+00 0.0000E+00 0.9000E+01
       25  2    1    2    0    0 0.19006898E+03 0.18445118E+02 0.16679351E+04 0.17054425E+04 0.30010030E+03 0.0000E+00 0.0000E+00
       23  2    1    2    0    0 -.19006898E+03 -.18445118E+02 0.65058902E+03 0.68395933E+03 0.89821190E+02 0.0000E+00 0.0000E+00
       23  1    3    3    0    0 0.10582063E+03 0.10915519E+03 0.11966313E+04 0.12096920E+04 0.91188000E+02 0.0000E+00 0.9000E+01
      -11  1    4    4    0    0 -.18380024E+03 0.57874813E+01 0.53596990E+03 0.56663900E+03 0.51099893E-03 0.0000E+00 0.9000E+01
       11  1    4    4    0    0 -.62687410E+01 -.24232599E+02 0.11461912E+03 0.11732033E+03 0.51099893E-03 0.0000E+00 0.9000E+01
       23  1    3    3    0    0 0.84248347E+02 -.90710071E+02 0.47130382E+03 0.49575058E+03 0.91188000E+02 0.0000E+00 0.9000E+01
#aMCatNLO 1  0  0  2  1 0.52618309D+02 0.00000000D+00  -5  7  0 0.00000000D+00 0.00000000D+00 0.00000000D+00 0.00000000D+00 0.00000000D+00
  <mgrwgt>
 0.2728775485D-03    9    2    0
 0.288828238186391D+03 0.000000000000000D+00 0.000000000000000D+00 0.288828238186391D+03
 0.288828238186391D+03 0.000000000000000D+00 0.000000000000000D+00 -.288828238186391D+03
 0.200848771932474D+03 0.105820634517279D+03 0.109155189048953D+03 0.944040033940861D+02
 0.192621616598371D+03 -.183800240473594D+03 0.578748131000036D+01 -.573329211091263D+02
 0.252368065393661D+02 -.626874094922006D+01 -.242325992619011D+02 0.322186657530559D+01
 0.158949281302570D+03 0.842483469055351D+02 -.907100710970527D+02 -.402929488602654D+02
 0.000000000000000D+00 0.000000000000000D+00 -.000000000000000D+00 -.000000000000000D+00
 0.299081403122300D+03 0.000000000000000D+00 0.000000000000000D+00 0.299081403122300D+03
 0.366444573745573D+03 0.000000000000000D+00 0.000000000000000D+00 -.366444573745573D+03
 0.201968803259875D+03 0.929438428374438D+02 0.122169850486951D+03 0.944040033940861D+02
 0.205569170234383D+03 -.196529128502937D+03 0.186526555166705D+02 -.573329211091263D+02
 0.241737943737122D+02 -.784824009205007D+01 -.226361886732503D+02 0.322186657530559D+01
 0.148336239768413D+03 0.744254099615073D+02 -.807819615312579D+02 -.402929488602654D+02
 0.854779692314905D+02 0.370081157960363D+02 -.374043557991128D+02 -.673631706232730D+02
0.275165969124D-05 0.000000000000D+00 0.000000000000D+00 0.171402771213D-06 0.000000000000D+00  7 2 -2 23 -11 11 23 21 0 0.36214816D+00 0.54521313D-02 0.72888888D+05 0.72888888D+05 0.72888888D+05 0.11331696D+01  1  2  2  2  7  2       -2 0.240735113179D-03 0.100000000000D+01
-.152023463760D-06 0.000000000000D+00 -.105670977430D-07 0.171402771213D-06 0.000000000000D+00  7 2 -2 23 -11 11 23 21 2 0.36214816D+00 0.54521313D-02 0.72888888D+05 0.72888888D+05 0.72888888D+05 0.11331696D+01  1  2  3  2  7  2       -2 -.170783205125D-04 0.100000000000D+01
0.174778766506D-06 0.000000000000D+00 0.000000000000D+00 0.171402771213D-06 0.000000000000D+00  7 2 -2 23 -11 11 23 21 2 0.36214816D+00 0.54521313D-02 0.72888888D+05 0.72888888D+05 0.72888888D+05 0.11331696D+01  1  2 15  2  7  2       -2 0.196346519106D-04 0.100000000000D+01
0.627178413945D-05 0.000000000000D+00 0.000000000000D+00 0.171402771213D-06 0.000000000000D+00  7 2 -2 23 -11 11 23 21 2 0.36214816D+00 0.69955577D-02 0.88594153D+05 0.88594153D+05 0.88594153D+05 0.11260638D+01  1  2 12  2  7  2       -2 0.477141985343D-03 0.100000000000D+01
-.637324787875D-05 0.000000000000D+00 0.000000000000D+00 0.171402771213D-06 0.000000000000D+00  7 2 -2 23 -11 11 23 21 2 0.36214816D+00 0.54521313D-02 0.72888888D+05 0.72888888D+05 0.72888888D+05 0.11331696D+01  1  2  4  2  7  2       -2 -.715970859280D-03 0.100000000000D+01
-.871227862591D-05 0.000000000000D+00 -.154742697366D-05 0.171402771213D-06 0.000000000000D+00  7 2 -2 23 -11 11 23 21 2 0.36214816D+00 0.72006842D-02 0.72888888D+05 0.72888888D+05 0.72888888D+05 0.11331696D+01  1  2  5  2  7  2       -2 -.645608574839D-03 0.100000000000D+01
0.885588150073D-05 0.000000000000D+00 0.148942971373D-05 0.171402771213D-06 0.000000000000D+00  7 2 -2 23 -11 11 23 21 2 0.36214816D+00 0.54521313D-02 0.72888888D+05 0.72888888D+05 0.72888888D+05 0.11331696D+01  1  2  6  2  7  2       -2 0.994869995391D-03 0.100000000000D+01
0.211799159432D-06 0.000000000000D+00 0.000000000000D+00 0.171402771213D-06 0.000000000000D+00  7 2 21 23 -11 11 23 2 2 0.36214816D+00 0.69955577D-02 0.88594153D+05 0.88594153D+05 0.88594153D+05 0.11260638D+01  1  2 12  4  7  2       -2 0.250248089869D-03 0.100000000000D+01
-.288016879511D-06 0.000000000000D+00 -.566287795776D-07 0.171402771213D-06 0.000000000000D+00  7 2 21 23 -11 11 23 2 2 0.36214816D+00 0.72006842D-02 0.72888888D+05 0.72888888D+05 0.72888888D+05 0.11331696D+01  1  2  5  4  7  2       -2 -.331094532545D-03 0.100000000000D+01
  </mgrwgt>
  </event>
  <event>
  8     66 0.55102590E-06 0.62725714E+02 0.75467711E-02 0.10099148E+00
        2 -1    0    0  501    0 0.00000000E+00 0.00000000E+00 0.26157190E+03 0.26157210E+03 0.32000000E+00 0.0000E+00 0.9000E+01
       -2 -1    0    0    0  501 0.00000000E+00 0.00000000E+00 -.20763951E+03 0.20763976E+03 0.32000000E+00 0.0000E+00 0.9000E+01
       25  2    1    2    0    0 0.52435587E+02 0.84456397E+02 0.91668825E+02 0.32894010E+03 0.29986004E+03 0.0000E+00 0.0000E+00
       23  2    1    2    0    0 -.52435587E+02 -.84456397E+02 -.37736438E+02 0.14027176E+03 0.91486357E+02 0.0000E+00 0.0000E+00
       23  1    3    3    0    0 -.46782303E+02 -.47487062E+02 -.12235112E+02 0.11361582E+03 0.91188000E+02 0.0000E+00 0.9000E+01
      -13  1    4    4    0    0 0.15966570E+02 -.57964607E+02 -.62535581E+01 0.60447871E+02 0.10565837E+00 0.0000E+00 0.9000E+01
       13  1    4    4    0    0 -.68402157E+02 -.26491790E+02 -.31482880E+02 0.79823886E+02 0.10565837E+00 0.0000E+00 0.9000E+01
       23  1    3    3    0    0 0.99217890E+02 0.13194346E+03 0.10390394E+03 0.21532428E+03 0.91188000E+02 0.0000E+00 0.9000E+01
#aMCatNLO 1  0  0  2  1 0.13478752D+03 0.00000000D+00  -5  7  0 0.00000000D+00 0.00000000D+00 0.00000000D+00 0.00000000D+00 0.00000000D+00
  <mgrwgt>
 0.7146383245D-04    7    2    0
 0.233050994331941D+03 0.000000000000000D+00 0.000000000000000D+00 0.233050994331941D+03
 0.233050994331941D+03 0.000000000000000D+00 0.000000000000000D+00 -.233050994331941D+03
 0.115789586559948D+03 -.467823007184475D+02 -.474870582735210D+02 -.254631625635851D+02
 0.615747503067253D+02 0.159666794024258D+02 -.579646498523398D+02 -.132896347463491D+02
 0.839993746710447D+02 -.684022691006886D+02 -.264917513787023D+02 -.409293493216365D+02
 0.204738277126164D+03 0.992178904167103D+02 0.131943459504563D+03 0.796821466315708D+02
 0.000000000000000D+00 0.000000000000000D+00 -.000000000000000D+00 -.000000000000000D+00
 0.258754129317188D+03 0.000000000000000D+00 0.000000000000000D+00 0.258754129317188D+03
 0.523758615909393D+03 0.000000000000000D+00 0.000000000000000D+00 -.523758615909393D+03
 0.117609853963920D+03 -.665473719179502D+02 -.209738181666818D+02 -.254631625635851D+02
 0.478991450170331D+02 0.669605162926402D+01 -.455288545238031D+02 -.132896347463491D+02
 0.931215035583060D+02 -.834014771590454D+02 -.637153017384993D+01 -.409293493216365D+02
 0.226569187176077D+03 0.626932838380626D+02 0.180938257158107D+03 0.796821466315708D+02
 0.297313055511245D+03 0.805595136096689D+02 -.108064054293773D+03 -.265004486592206D+03
0.707856519762D-06 0.000000000000D+00 0.000000000000D+00 0.884660156041D-07 0.000000000000D+00  7 2 -2 23 -13 13 23 21 0 0.40241865D-01 0.31944575D-01 0.47312324D+05 0.47312324D+05 0.47312324D+05 0.11494120D+01  1  2  2  2  7  2       -2 0.957437982423D-04 0.100000000000D+01
-.390977581499D-07 0.000000000000D+00 -.271835541879D-08 0.884660156041D-07 0.000000000000D+00  7 2 -2 23 -13 13 23 21 2 0.40241865D-01 0.31944575D-01 0.47312324D+05 0.47312324D+05 0.47312324D+05 0.11494120D+01  1  2  3  2  7  2       -2 -.698664626588D-05 0.100000000000D+01
0.461017659840D-07 0.000000000000D+00 0.000000000000D+00 0.884660156041D-07 0.000000000000D+00  7 2 -2 23 -13 13 23 21 2 0.40241865D-01 0.31944575D-01 0.47312324D+05 0.47312324D+05 0.47312324D+05 0.11494120D+01  1  2 15  2  7  2       -2 0.823824041081D-05 0.100000000000D+01
0.352429877190D-06 0.000000000000D+00 0.000000000000D+00 0.884660156041D-07 0.000000000000D+00  7 2 -2 23 -13 13 23 21 2 0.40241865D-01 0.71370804D-01 0.87428469D+05 0.87428469D+05 0.87428469D+05 0.11265418D+01  1  2 12  2  7  2       -2 0.127382500243D-04 0.100000000000D+01
-.846062333583D-06 0.000000000000D+00 -.218638911195D-06 0.884660156041D-07 0.000000000000D+00  7 2 -2 23 -13 13 23 21 2 0.40241865D-01 0.76955748D-01 0.47312324D+05 0.47312324D+05 0.47312324D+05 0.11494120D+01  1  2  5  2  7  2       -2 -.272381978712D-04 0.100000000000D+01
0.307456156898D-07 0.000000000000D+00 0.000000000000D+00 0.884660156041D-07 0.000000000000D+00  7 2 21 23 -13 13 23 2 2 0.40241865D-01 0.71370804D-01 0.87428469D+05 0.87428469D+05 0.87428469D+05 0.11265418D+01  1  2 12  4  7  2       -2 0.112897025920D-04 0.100000000000D+01
-.677069520273D-07 0.000000000000D+00 -.210430588612D-07 0.884660156041D-07 0.000000000000D+00  7 2 21 23 -13 13 23 2 2 0.40241865D-01 0.76955748D-01 0.47312324D+05 0.47312324D+05 0.47312324D+05 0.11494120D+01  1  2  5  4  7  2       -2 -.223213146820D-04 0.100000000000D+01
  </mgrwgt>
  </event>
  <event>
  9     66 0.55102590E-06 0.26496282E+03 0.75467711E-02 0.10208511E+00
        2 -1    0    0  501    0 0.00000000E+00 0.00000000E+00 0.13231521E+04 0.13231522E+04 0.32000000E+00 0.0000E+00 0.9000E+01
       21 -1    0    0  502  501 0.00000000E+00 0.00000000E+00 -.19920116E+03 0.19920257E+03 0.75000000E+00 0.0000E+00 0.9000E+01
       25  2    1    2    0    0 -.10512016E+03 0.14236956E+03 -.28894223E+02 0.34966798E+03 0.30018907E+03 0.0000E+00 0.0000E+00
       23  2    1    2    0    0 0.11656598E+03 -.13434240E+03 0.10997431E+04 0.11177743E+04 0.91373078E+02 0.0000E+00 0.0000E+00
       23  1    3    3    0    0 -.66105580E+01 -.47990448E+02 0.33448399E+02 0.10853953E+03 0.91188000E+02 0.0000E+00 0.9000E+01
      -11  1    4    4    0    0 0.46006375E+02 -.10989031E+03 0.80248952E+03 0.81128411E+03 0.51099893E-03 0.0000E+00 0.9000E+01
       11  1    4    4    0    0 0.70559604E+02 -.24452090E+02 0.29725353E+03 0.30649017E+03 0.51099893E-03 0.0000E+00 0.9000E+01
       23  1    3    3    0    0 -.98509606E+02 0.19036000E+03 -.62342622E+02 0.24112845E+03 0.91188000E+02 0.0000E+00 0.9000E+01
        2  1    1    2  502    0 -.11445814E+02 -.80271596E+01 0.53102156E+02 0.54912506E+02 0.32000000E+00 0.0000E+00 0.9000E+01
#aMCatNLO 2  0  0  2  2 0.13980056D+02 0.00000000D+00  -5  7  0 0.00000000D+00 0.00000000D+00 0.00000000D+00 0.00000000D+00 0.00000000D+00
  <mgrwgt>
 0.3161387705D-04    1    2    0
 0.501615913802028D+03 0.000000000000000D+00 0.000000000000000D+00 0.501615913802028D+03
 0.501615913802028D+03 0.000000000000000D+00 0.000000000000000D+00 -.501615913802028D+03
 0.123519009748714D+03 -.801702219285124D+01 -.489768274598550D+02 -.669230315543904D+02
 0.330455159589412D+03 0.422386179902800D+02 -.112532702962117D+03 0.307819593940306D+03
 0.130410233812464D+03 0.690684295939207D+02 -.254978777971677D+02 0.107639394945772D+03
 0.418847424453466D+03 -.103290025391349D+03 0.187007408219140D+03 -.348535957331688D+03
 0.000000000000000D+00 -.000000000000000D+00 -.000000000000000D+00 0.000000000000000D+00
 0.523011374629733D+03 0.000000000000000D+00 0.000000000000000D+00 0.523011374629733D+03
 0.503953509412602D+03 0.000000000000000D+00 0.000000000000000D+00 -.503953509412602D+03
 0.123047657846637D+03 -.661055797677005D+01 -.479904483032709D+02 -.669230315543904D+02
 0.330068732679037D+03 0.460063747085841D+02 -.109890306055376D+03 0.307819593940306D+03
 0.131006876604925D+03 0.705596036234810D+02 -.244520900943736D+02 0.107639394945772D+03
 0.419205961925238D+03 -.985096059185856D+02 0.190360004093069D+03 -.348535957331688D+03
 0.236356549864975D+02 -.114458144367094D+02 -.802715964004835D+01 0.190578652171312D+02
0.102204418411D-06 0.000000000000D+00 0.000000000000D+00 0.160045166851D-05 0.498564694737D-10  7 2 21 23 -11 11 23 2 2 0.20356154D+00 0.30646378D-01 0.73977356D+05 0.73977356D+05 0.73977356D+05 0.11326249D+01  1  2  1  4  7  2       -2 0.316138770512D-04 0.100000000000D+01
  </mgrwgt>
  </event>
  <event>
  8     66 0.55102590E-06 0.12283329E+03 0.75467711E-02 0.10815056E+00
        2 -1    0    0  501    0 0.00000000E+00 0.00000000E+00 0.14154560E+03 0.14154596E+03 0.32000000E+00 0.0000E+00 0.9000E+01
       -2 -1    0    0    0  501 0.00000000E+00 0.00000000E+00 -.77792209E+03 0.77792215E+03 0.32000000E+00 0.0000E+00 0.9000E+01
       25  2    1    2    0    0 0.34752043E+02 -.95938692E+02 -.52865322E+02 0.32085326E+03 0.29956658E+03 0.0000E+00 0.0000E+00
       23  2    1    2    0    0 -.34752043E+02 0.95938692E+02 -.58351116E+03 0.59861486E+03 0.86270116E+02 0.0000E+00 0.0000E+00
       23  1    3    3    0    0 -.28631712E+02 -.14960215E+02 -.13092695E+03 0.16279035E+03 0.91188000E+02 0.0000E+00 0.9000E+01
      -11  1    4    4    0    0 -.45953473E+02 0.64828454E+02 -.52842868E+03 0.53437002E+03 0.51099893E-03 0.0000E+00 0.9000E+01
       11  1    4    4    0    0 0.11201429E+02 0.31110238E+02 -.55082479E+02 0.64244832E+02 0.51099893E-03 0.0000E+00 0.9000E+01
       23  1    3    3    0    0 0.63383755E+02 -.80978477E+02 0.78061624E+02 0.15806291E+03 0.91188000E+02 0.0000E+00 0.9000E+01
#aMCatNLO 1  0  0  2  1 0.65402058D+01 0.00000000D+00  -5  7  0 0.00000000D+00 0.00000000D+00 0.00000000D+00 0.00000000D+00 0.00000000D+00
  <mgrwgt>
 0.3218934657D-03   11    2    0
 0.331830751132121D+03 0.000000000000000D+00 0.000000000000000D+00 0.331830751132121D+03
 0.331830751132121D+03 0.000000000000000D+00 0.000000000000000D+00 -.331830751132121D+03
 0.999933111097732D+02 -.286317116095875D+02 -.149602148254046D+02 -.252948213154203D+02
 0.233638100801289D+03 -.459534727160293D+02 0.648284541731983D+02 -.219709608394544D+03
 0.361899556867882D+02 0.112014292567335D+02 0.311102380061999D+02 -.147103353604087D+02
 0.293840134666391D+03 0.633837550688833D+02 -.809784773539935D+02 0.259714765070373D+03
 0.000000000000000D+00 0.000000000000000D+00 0.000000000000000D+00 -.000000000000000D+00
 0.332447369709821D+03 0.000000000000000D+00 0.000000000000000D+00 0.332447369709821D+03
 0.349654468205355D+03 0.000000000000000D+00 0.000000000000000D+00 -.349654468205355D+03
 0.100289158154437D+03 -.292458267466354D+02 -.157326899115300D+02 -.252948213154203D+02
 0.233431172038876D+03 -.473856215783579D+02 0.630270015643442D+02 -.219709608394544D+03
 0.358830328991191D+02 0.109804358097010D+02 0.308322576703784D+02 -.147103353604087D+02
 0.294090364374734D+03 0.615810160657159D+02 -.832460830238808D+02 0.259714765070373D+03
 0.184081104480100D+02 0.406999644957639D+01 0.511951370068817D+01 -.172070984955348D+02
0.564412573420D-05 0.000000000000D+00 0.000000000000D+00 0.383325398171D-07 0.000000000000D+00  7 2 -2 23 -11 11 23 21 0 0.21776280D-01 0.11968035D+00 0.30052271D+05 0.30052271D+05 0.30052271D+05 0.11672658D+01  1  2  2  2  7  2       -2 0.980894378714D-04 0.100000000000D+01
-.152843459059D-06 0.000000000000D+00 -.216749289518D-07 0.383325398171D-07 0.000000000000D+00  7 2 -2 23 -11 11 23 21 2 0.21776280D-01 0.11968035D+00 0.30052271D+05 0.30052271D+05 0.30052271D+05 0.11672658D+01  1  2  3  2  7  2       -2 -.361919454826D-05 0.100000000000D+01
0.341529357007D-06 0.000000000000D+00 0.000000000000D+00 0.383325398171D-07 0.000000000000D+00  7 2 -2 23 -11 11 23 21 2 0.21776280D-01 0.11968035D+00 0.30052271D+05 0.30052271D+05 0.30052271D+05 0.11672658D+01  1  2 15  2  7  2       -2 0.808710555601D-05 0.100000000000D+01
0.943397646613D-04 0.000000000000D+00 0.000000000000D+00 0.383325398171D-07 0.000000000000D+00  7 2 -2 23 -11 11 23 21 2 0.21776280D-01 0.12621666D+00 0.31177892D+05 0.31177892D+05 0.31177892D+05 0.11657873D+01  1  2 12  2  7  2       -2 0.194693831149D-02 0.100000000000D+01
-.113833318164D-03 0.000000000000D+00 0.000000000000D+00 0.383325398171D-07 0.000000000000D+00  7 2 -2 23 -11 11 23 21 2 0.21776280D-01 0.11968035D+00 0.30052271D+05 0.30052271D+05 0.30052271D+05 0.11672658D+01  1  2  4  2  7  2       -2 -.269546977704D-02 0.100000000000D+01
-.221579503034D-03 0.000000000000D+00 -.126992099094D-04 0.383325398171D-07 0.000000000000D+00  7 2 -2 23 -11 11 23 21 2 0.21776280D-01 0.12621607D+00 0.30052271D+05 0.30052271D+05 0.30052271D+05 0.11672658D+01  1  2  5  2  7  2       -2 -.458702602564D-02 0.100000000000D+01
0.221958832668D-03 0.000000000000D+00 0.126812798362D-04 0.383325398171D-07 0.000000000000D+00  7 2 -2 23 -11 11 23 21 2 0.21776280D-01 0.11968035D+00 0.30052271D+05 0.30052271D+05 0.30052271D+05 0.11672658D+01  1  2  6  2  7  2       -2 0.525578393789D-02 0.100000000000D+01
0.185289809314D-04 0.000000000000D+00 0.000000000000D+00 0.383325398171D-07 0.650419419202D-08  7 2 -2 23 -11 11 23 21 2 0.21816745D-01 0.12610878D+00 0.31177892D+05 0.31177892D+05 0.31177892D+05 0.11657873D+01  1  2 11  2  7  2       -2 0.382405112792D-03 0.100000000000D+01
0.156877268516D-05 0.000000000000D+00 0.000000000000D+00 0.383325398171D-07 0.000000000000D+00  7 2 21 23 -11 11 23 2 2 0.21776280D-01 0.12621666D+00 0.31177892D+05 0.31177892D+05 0.31177892D+05 0.11657873D+01  1  2 12  4  7  2       -2 0.310000840416D-03 0.100000000000D+01
-.215049755490D-05 0.000000000000D+00 -.117096629241D-06 0.383325398171D-07 0.000000000000D+00  7 2 21 23 -11 11 23 2 2 0.21776280D-01 0.12621607D+00 0.30052271D+05 0.30052271D+05 0.30052271D+05 0.11672658D+01  1  2  5  4  7  2       -2 -.426834632955D-03 0.100000000000D+01
0.169690938437D-06 0.000000000000D+00 0.000000000000D+00 0.383325398171D-07 0.591710675000D-10  7 2 21 23 -11 11 23 2 2 0.21816745D-01 0.12610878D+00 0.31177892D+05 0.31177892D+05 0.31177892D+05 0.11657873D+01  1  2 11  4  7  2       -2 0.335383499110D-04 0.100000000000D+01
  </mgrwgt>
  </event>
  <event>
  8     66 0.55102590E-06 0.14214559E+03 0.75467711E-02 0.98433525E-01
        2 -1    0    0  501    0 0.00000000E+00 0.00000000E+00 0.16674968E+03 0.16674999E+03 0.32000000E+00 0.0000E+00 0.9000E+01
       -2 -1    0    0    0  501 0.00000000E+00 0.00000000E+00 -.10873942E+04 0.10873943E+04 0.32000000E+00 0.0000E+00 0.9000E+01
       25  2    1    2    0    0 0.12962383E+02 0.28782462E+03 -.17778741E+03 0.45229705E+03 0.29992203E+03 0.0000E+00 0.0000E+00
       23  2    1    2    0    0 -.12962383E+02 -.28782462E+03 -.74285711E+03 0.80184719E+03 0.90062194E+02 0.0000E+00 0.0000E+00
       23  1    3    3    0    0 -.23198834E+02 0.32349990E+02 0.35178140E+02 0.10553417E+03 0.91188000E+02 0.0000E+00 0.9000E+01
      -11  1    4    4    0    0 0.11841550E+02 -.81496691E+02 -.12250481E+03 0.14761220E+03 0.51099893E-03 0.0000E+00 0.9000E+01
       11  1    4    4    0    0 -.24803933E+02 -.20632793E+03 -.62035230E+03 0.65423500E+03 0.51099893E-03 0.0000E+00 0.9000E+01
       23  1    3    3    0    0 0.36161217E+02 0.25547463E+03 -.21296555E+03 0.34676289E+03 0.91188000E+02 0.0000E+00 0.9000E+01
#aMCatNLO 1  0  0  1  2 0.62699730D+02 0.00000000D+00  -5  7  0 0.00000000D+00 0.00000000D+00 0.00000000D+00 0.00000000D+00 0.00000000D+00
  <mgrwgt>
 0.1937043813D-03    9    2    0
 0.425820223817766D+03 0.000000000000000D+00 0.000000000000000D+00 0.425820223817766D+03
 0.425820223817766D+03 0.000000000000000D+00 0.000000000000000D+00 -.425820223817766D+03
 0.193440356490214D+03 -.231988339972831D+02 0.323499904589980D+02 0.165889156949845D+03
 0.849461862773042D+02 0.118415498906049D+02 -.814966913554174D+02 -.208307838874732D+02
 0.292824402181192D+03 -.248039327476613D+02 -.206327929684803D+03 -.206299977859923D+03
 0.280429502686821D+03 0.361612168543395D+02 0.255474630581222D+03 0.612416047975509D+02
 0.000000000000000D+00 -.000000000000000D+00 -.000000000000000D+00 0.000000000000000D+00
 0.541717928111524D+03 0.000000000000000D+00 0.000000000000000D+00 0.541717928111524D+03
 0.435537872491514D+03 0.000000000000000D+00 0.000000000000000D+00 -.435537872491514D+03
 0.195582058125464D+03 -.181106643554832D+02 0.457152224063827D+02 0.165889156949845D+03
 0.798788997728210D+02 0.139973588299840D+02 -.758339700749897D+02 -.208307838874732D+02
 0.278770835416111D+03 -.173278248781102D+02 -.186690236216534D+03 -.206299977859923D+03
 0.299713584456573D+03 0.437491252447065D+02 0.275405993482261D+03 0.612416047975509D+02
 0.123310422832069D+03 -.223079948410971D+02 -.585970095971194D+02 0.106180055620010D+03
0.292629252737D-04 0.000000000000D+00 0.000000000000D+00 0.677307889827D-06 0.000000000000D+00  7 2 -2 23 -11 11 23 21 0 0.25653825D-01 0.16729144D+00 0.11000009D+06 0.11000009D+06 0.11000009D+06 0.11183410D+01  1  2  2  1  7  1        2 0.167942326107D-03 0.100000000000D+01
-.150227807467D-05 0.000000000000D+00 -.112377338156D-06 0.677307889827D-06 0.000000000000D+00  7 2 -2 23 -11 11 23 21 2 0.25653825D-01 0.16729144D+00 0.11000009D+06 0.11000009D+06 0.11000009D+06 0.11183410D+01  1  2  3  1  7  1        2 -.107830410726D-04 0.100000000000D+01
0.184798401936D-05 0.000000000000D+00 0.000000000000D+00 0.677307889827D-06 0.000000000000D+00  7 2 -2 23 -11 11 23 21 2 0.25653825D-01 0.16729144D+00 0.11000009D+06 0.11000009D+06 0.11000009D+06 0.11183410D+01  1  2 15  1  7  1        2 0.132644467879D-04 0.100000000000D+01
0.107491023427D-03 0.000000000000D+00 0.000000000000D+00 0.677307889827D-06 0.000000000000D+00  7 2 -2 23 -11 11 23 21 2 0.32873056D-01 0.16729144D+00 0.13115196D+06 0.13115196D+06 0.13115196D+06 0.11121835D+01  1  2 12  1  7  1        2 0.572419357899D-03 0.100000000000D+01
-.108523028621D-03 0.000000000000D+00 0.000000000000D+00 0.677307889827D-06 0.000000000000D+00  7 2 -2 23 -11 11 23 21 2 0.25653825D-01 0.16729144D+00 0.11000009D+06 0.11000009D+06 0.11000009D+06 0.11183410D+01  1  2  4  1  7  1        2 -.778955836919D-03 0.100000000000D+01
-.132095769655D-03 0.000000000000D+00 -.179286264608D-04 0.677307889827D-06 0.000000000000D+00  7 2 -2 23 -11 11 23 21 2 0.33189410D-01 0.16729144D+00 0.11000009D+06 0.11000009D+06 0.11000009D+06 0.11183410D+01  1  2  5  1  7  1        2 -.707365606442D-03 0.100000000000D+01
0.132861166058D-03 0.000000000000D+00 0.173500599620D-04 0.677307889827D-06 0.000000000000D+00  7 2 -2 23 -11 11 23 21 2 0.25653825D-01 0.16729144D+00 0.11000009D+06 0.11000009D+06 0.11000009D+06 0.11183410D+01  1  2  6  1  7  1        2 0.953649949836D-03 0.100000000000D+01
0.361591525457D-05 0.000000000000D+00 0.000000000000D+00 0.677307889827D-06 0.000000000000D+00  7 21 -2 23 -11 11 23 -2 2 0.32873056D-01 0.16729144D+00 0.13115196D+06 0.13115196D+06 0.13115196D+06 0.11121835D+01  1  2 12  3  7  1        2 0.917100389000D-04 0.100000000000D+01
-.425399286805D-05 0.000000000000D+00 -.620176963521D-06 0.677307889827D-06 0.000000000000D+00  7 21 -2 23 -11 11 23 -2 2 0.33189410D-01 0.16729144D+00 0.11000009D+06 0.11000009D+06 0.11000009D+06 0.11183410D+01  1  2  5  3  7  1        2 -.108177253785D-03 0.100000000000D+01
  </mgrwgt>
  </event>
  <event>
  9     66 0.55102590E-06 0.23447915E+03 0.75467711E-02 0.99034243E-01
        2 -1    0    0  501    0 0.00000000E+00 0.00000000E+00 0.51741371E+03 0.51741381E+03 0.32000000E+00 0.0000E+00 0.9000E+01
       -2 -1    0    0    0  502 0.00000000E+00 0.00000000E+00 -.10045306E+04 0.10045307E+04 0.32000000E+00 0.0000E+00 0.9000E+01
       25  2    1    2    0    0 -.82203242E+02 -.10049799E+02 -.48979302E+03 0.57916679E+03 0.29778952E+03 0.0000E+00 0.0000E+00
       23  2    1    2    0    0 0.26984659E+03 0.37250717E+02 0.40587500E+03 0.49722206E+03 0.91052017E+02 0.0000E+00 0.0000E+00
       23  1    3    3    0    0 -.53647189E+02 -.58098587E+02 -.44859840E+03 0.46455273E+03 0.91188000E+02 0.0000E+00 0.9000E+01
      -11  1    4    4    0    0 0.16825920E+03 0.17088354E+02 0.17091173E+03 0.24044540E+03 0.51099893E-03 0.0000E+00 0.9000E+01
       11  1    4    4    0    0 0.10158739E+03 0.20162363E+02 0.23496327E+03 0.25677667E+03 0.51099893E-03 0.0000E+00 0.9000E+01
       23  1    3    3    0    0 -.28556053E+02 0.48048788E+02 -.41194626E+02 0.11461406E+03 0.91188000E+02 0.0000E+00 0.9000E+01
       21  1    1    2  501  502 -.18764335E+03 -.27200918E+02 -.40319889E+03 0.44555563E+03 0.75000000E+00 0.0000E+00 0.9000E+01
#aMCatNLO 2  0  0  2  1 0.18960463D+03 0.00000000D+00  -5  7  0 0.00000000D+00 0.00000000D+00 0.00000000D+00 0.00000000D+00 0.00000000D+00
  <mgrwgt>
 0.1184211780D-03    2    2    0
 0.528114763423637D+03 0.000000000000000D+00 0.000000000000000D+00 0.528114763423637D+03
 0.528114763423637D+03 0.000000000000000D+00 0.000000000000000D+00 -.528114763423637D+03
 0.448804687120744D+03 -.131168277290356D+03 -.693361011856586D+02 -.413639678878370D+03
 0.228281612686029D+03 0.125711233681333D+03 0.109205693711603D+02 0.190236488564789D+03
 0.261778862598425D+03 0.542026115253934D+02 0.132934305963643D+02 0.255760697743286D+03
 0.117364364442076D+03 -.487455679163706D+02 0.451221012181340D+02 -.323575074297040D+02
 0.000000000000000D+00 -.000000000000000D+00 -.000000000000000D+00 -.000000000000000D+00
 0.559455181590938D+03 0.000000000000000D+00 0.000000000000000D+00 0.559455181590938D+03
 0.929042115559686D+03 0.000000000000000D+00 0.000000000000000D+00 -.929042115559686D+03
 0.430890359539157D+03 -.536471888539378D+02 -.580985867750014D+02 -.413639678878370D+03
 0.254544871411894D+03 0.168259199269310D+03 0.170883539841332D+02 0.190236488564789D+03
 0.275934870871477D+03 0.101587388834379D+03 0.201623630197299D+02 0.255760697743286D+03
 0.111742533774363D+03 -.285560531686579D+02 0.480487882332123D+02 -.323575074297040D+02
 0.415384661553733D+03 -.187643346081093D+03 -.272009184620740D+02 -.369586933968748D+03
-.329613706278D-05 0.000000000000D+00 0.000000000000D+00 0.116919775031D-06 0.000000000000D+00  7 2 -2 23 -11 11 23 21 2 0.75142803D-01 0.15539144D+00 0.11900922D+06 0.11900922D+06 0.11900922D+06 0.11155720D+01  1  2 13  2  7  2       -2 -.876241544339D-05 0.100000000000D+01
0.502665978284D-04 0.000000000000D+00 0.000000000000D+00 0.116919775031D-06 0.250705542184D-10  7 2 -2 23 -11 11 23 21 2 0.79602074D-01 0.15454309D+00 0.11900922D+06 0.11900922D+06 0.11900922D+06 0.11155720D+01  1  2  1  2  7  2       -2 0.127183593486D-03 0.100000000000D+01
  </mgrwgt>
  </event>
  <event>
  8     66 0.55102590E-06 0.81141526E+03 0.75467711E-02 0.84025602E-01
        2 -1    0    0  501    0 0.00000000E+00 0.00000000E+00 0.21893316E+04 0.21893316E+04 0.32000000E+00 0.0000E+00 0.9000E+01
       -2 -1    0    0    0  501 0.00000000E+00 0.00000000E+00 -.84183280E+03 0.84183286E+03 0.32000000E+00 0.0000E+00 0.9000E+01
       25  2    1    2    0    0 0.43421034E+03 -.12538532E+04 0.88521007E+03 0.16230129E+04 0.29981271E+03 0.0000E+00 0.0000E+00
       23  2    1    2    0    0 -.43421034E+03 0.12538532E+04 0.46228875E+03 0.14081516E+04 0.92161162E+02 0.0000E+00 0.0000E+00
       23  1    3    3    0    0 0.41488460E+03 -.11060241E+04 0.75236818E+03 0.14034927E+04 0.91188000E+02 0.0000E+00 0.9000E+01
      -11  1    4    4    0    0 -.11688859E+01 0.98512185E+00 0.60493068E+01 0.62394609E+01 0.51099893E-03 0.0000E+00 0.9000E+01
       11  1    4    4    0    0 -.43304145E+03 0.12528680E+04 0.45623944E+03 0.14019121E+04 0.51099893E-03 0.0000E+00 0.9000E+01
       23  1    3    3    0    0 0.19325735E+02 -.14782905E+03 0.13284189E+03 0.21952022E+03 0.91188000E+02 0.0000E+00 0.9000E+01
#aMCatNLO 1  0  0  2  1 0.17883655D+03 0.00000000D+00  -5  7  0 0.00000000D+00 0.00000000D+00 0.00000000D+00 0.00000000D+00 0.00000000D+00
  <mgrwgt>
 0.5211927760D-03    9    2    0
 0.135759025172487D+04 0.000000000000000D+00 0.000000000000000D+00 0.135759025172487D+04
 0.135759025172487D+04 0.000000000000000D+00 0.000000000000000D+00 -.135759025172487D+04
 0.119343886754740D+04 0.414884603610406D+03 -.110602410851324D+04 0.143396360844163D+03
 0.396341918758873D+01 -.116888589712215D+01 0.985121810594016D+00 0.365676529659035D+01
 0.133863814522808D+04 -.433041452765950D+03 0.125286803417273D+04 -.186410495933551D+03
 0.179140071486660D+03 0.193257350526664D+02 -.147829047470086D+03 0.393573697927975D+02
 0.000000000000000D+00 0.000000000000000D+00 -.000000000000000D+00 -.000000000000000D+00
 0.137678914359372D+04 0.000000000000000D+00 0.000000000000000D+00 0.137678914359372D+04
 0.185234981219981D+04 0.000000000000000D+00 0.000000000000000D+00 -.185234981219981D+04
 0.113323082260656D+04 0.350873507204624D+03 -.106405926131965D+04 0.143396360844163D+03
 0.407196795112061D+01 -.138995463883927D+01 0.113005161942947D+01 0.365676529659035D+01
 0.141063560953036D+04 -.508679188584858D+03 0.130245515584282D+04 -.186410495933551D+03
 0.173125303454763D+03 0.963424641067447D+01 -.141475432819254D+03 0.393573697927975D+02
 0.508075252250723D+03 0.149561389608399D+03 -.980505133233457D+02 -.475560668606087D+03
0.151183667363D-02 0.000000000000D+00 0.000000000000D+00 0.871883596116D-05 0.000000000000D+00  7 2 -2 23 -11 11 23 21 0 0.33682026D+00 0.12951274D+00 0.18045623D+07 0.18045623D+07 0.18045623D+07 0.10312128D+01  1  2  2  2  7  2       -2 0.393603875931D-03 0.100000000000D+01
-.839795552355D-04 0.000000000000D+00 -.580585090248D-05 0.871883596116D-05 0.000000000000D+00  7 2 -2 23 -11 11 23 21 2 0.33682026D+00 0.12951274D+00 0.18045623D+07 0.18045623D+07 0.18045623D+07 0.10312128D+01  1  2  3  2  7  2       -2 -.232500922678D-04 0.100000000000D+01
0.964478597633D-04 0.000000000000D+00 0.000000000000D+00 0.871883596116D-05 0.000000000000D+00  7 2 -2 23 -11 11 23 21 2 0.33682026D+00 0.12951274D+00 0.18045623D+07 0.18045623D+07 0.18045623D+07 0.10312128D+01  1  2 15  2  7  2       -2 0.267019946967D-04 0.100000000000D+01
0.802094094574D-02 0.000000000000D+00 0.000000000000D+00 0.871883596116D-05 0.000000000000D+00  7 2 -2 23 -11 11 23 21 2 0.33682026D+00 0.17738204D+00 0.20615310D+07 0.20615310D+07 0.20615310D+07 0.10275684D+01  1  2 12  2  7  2       -2 0.897911085699D-03 0.100000000000D+01
-.779623233763D-02 0.000000000000D+00 0.000000000000D+00 0.871883596116D-05 0.000000000000D+00  7 2 -2 23 -11 11 23 21 2 0.33682026D+00 0.12951274D+00 0.18045623D+07 0.18045623D+07 0.18045623D+07 0.10312128D+01  1  2  4  2  7  2       -2 -.215841963777D-02 0.100000000000D+01
-.894672117707D-02 0.000000000000D+00 -.673955284591D-03 0.871883596116D-05 0.000000000000D+00  7 2 -2 23 -11 11 23 21 2 0.33682026D+00 0.17767770D+00 0.18045623D+07 0.18045623D+07 0.18045623D+07 0.10312128D+01  1  2  5  2  7  2       -2 -.101438257955D-02 0.100000000000D+01
0.875105170740D-02 0.000000000000D+00 0.641613756130D-03 0.871883596116D-05 0.000000000000D+00  7 2 -2 23 -11 11 23 21 2 0.33682026D+00 0.12951274D+00 0.18045623D+07 0.18045623D+07 0.18045623D+07 0.10312128D+01  1  2  6  2  7  2       -2 0.242276538697D-02 0.100000000000D+01
0.320813408471D-03 0.000000000000D+00 0.000000000000D+00 0.871883596116D-05 0.000000000000D+00  7 2 21 23 -11 11 23 2 2 0.33682026D+00 0.17738204D+00 0.20615310D+07 0.20615310D+07 0.20615310D+07 0.10275684D+01  1  2 12  4  7  2       -2 0.275275303099D-03 0.100000000000D+01
-.342824182907D-03 0.000000000000D+00 -.270589739756D-04 0.871883596116D-05 0.000000000000D+00  7 2 21 23 -11 11 23 2 2 0.33682026D+00 0.17767770D+00 0.18045623D+07 0.18045623D+07 0.18045623D+07 0.10312128D+01  1  2  5  4  7  2       -2 -.299012560776D-03 0.100000000000D+01
  </mgrwgt>
  </event>
  <event>
  8     66 0.55102590E-06 0.13431896E+03 0.75467711E-02 0.10359881E+00
        2 -1    0    0  501    0 0.00000000E+00 0.00000000E+00 0.28456583E+04 0.28456583E+04 0.32000000E+00 0.0000E+00 0.9000E+01
       -2 -1    0    0    0  501 0.00000000E+00 0.00000000E+00 -.29843356E+02 0.29845072E+02 0.32000000E+00 0.0000E+00 0.9000E+01
       25  2    1    2    0    0 -.10297038E+03 0.13964352E+03 0.22508605E+04 0.22774705E+04 0.30065852E+03 0.0000E+00 0.0000E+00
       23  2    1    2    0    0 0.10297038E+03 -.13964352E+03 0.56495438E+03 0.59803285E+03 0.91469303E+02 0.0000E+00 0.0000E+00
       23  1    3    3    0    0 0.84367537E+01 0.10093108E+03 0.17392516E+04 0.17445829E+04 0.91188000E+02 0.0000E+00 0.9000E+01
      -11  1    4    4    0    0 0.11475170E+03 -.10625294E+03 0.50209564E+03 0.52588751E+03 0.51099893E-03 0.0000E+00 0.9000E+01
       11  1    4    4    0    0 -.11781313E+02 -.33390577E+02 0.62858734E+02 0.72145342E+02 0.51099893E-03 0.0000E+00 0.9000E+01
       23  1    3    3    0    0 -.11140714E+03 0.38712440E+02 0.51160896E+03 0.53288759E+03 0.91188000E+02 0.0000E+00 0.9000E+01
#aMCatNLO 1  0  0  1  2 0.88848424D+01 0.00000000D+00  -5  7  0 0.00000000D+00 0.00000000D+00 0.00000000D+00 0.00000000D+00 0.00000000D+00
  <mgrwgt>
 0.3425090611D-03   11    2    0
 0.291421490841375D+03 0.000000000000000D+00 0.000000000000000D+00 0.291421490841375D+03
 0.291421490841375D+03 0.000000000000000D+00 0.000000000000000D+00 -.291421490841375D+03
 0.204417858003411D+03 0.843675371306113D+01 0.100931075545902D+03 0.152358618077991D+03
 0.168798295654228D+03 0.114751695480595D+03 -.106252938138081D+03 -.635234298281035D+02
 0.522535479643935D+02 -.117813131481172D+02 -.333905771633856D+02 -.384278973152209D+02
 0.157373280060719D+03 -.111407136045539D+03 0.387124397555644D+02 -.504072909346664D+02
 0.000000000000000D+00 0.000000000000000D+00 0.000000000000000D+00 0.000000000000000D+00
 0.355993585685469D+03 0.000000000000000D+00 0.000000000000000D+00 0.355993585685469D+03
 0.291761138311068D+03 0.000000000000000D+00 0.000000000000000D+00 -.291761138311068D+03
 0.204011596597387D+03 0.538523144071284D+01 0.100316155139189D+03 0.152358618077991D+03
 0.167423067419366D+03 0.112239665639698D+03 -.106759143983419D+03 -.635234298281035D+02
 0.525362236888917D+02 -.125642349440656D+02 -.335483458264401D+02 -.384278973152209D+02
 0.158939810190710D+03 -.113770424072552D+03 0.382362072705779D+02 -.504072909346664D+02
 0.648440261001824D+02 0.870976193620651D+01 0.175512740009242D+01 0.642324473744010D+02
0.377907315007D-05 0.000000000000D+00 0.000000000000D+00 0.137283059763D-06 0.000000000000D+00  7 2 -2 23 -11 11 23 21 0 0.43779371D+00 0.45914189D-02 0.56921405D+05 0.56921405D+05 0.56921405D+05 0.11423755D+01  1  2  2  1  7  1        2 0.223861835097D-03 0.100000000000D+01
-.199731988234D-06 0.000000000000D+00 -.145126359491D-07 0.137283059763D-06 0.000000000000D+00  7 2 -2 23 -11 11 23 21 2 0.43779371D+00 0.45914189D-02 0.56921405D+05 0.56921405D+05 0.56921405D+05 0.11423755D+01  1  2  3  1  7  1        2 -.154404558959D-04 0.100000000000D+01
0.240384714293D-06 0.000000000000D+00 0.000000000000D+00 0.137283059763D-06 0.000000000000D+00  7 2 -2 23 -11 11 23 21 2 0.43779371D+00 0.45914189D-02 0.56921405D+05 0.56921405D+05 0.56921405D+05 0.11423755D+01  1  2 15  1  7  1        2 0.185831504103D-04 0.100000000000D+01
0.143747831929D-03 0.000000000000D+00 0.000000000000D+00 0.137283059763D-06 0.000000000000D+00  7 2 -2 23 -11 11 23 21 2 0.53501673D+00 0.45914189D-02 0.59054364D+05 0.59054364D+05 0.59054364D+05 0.11409913D+01  1  2 12  1  7  1        2 0.435672590479D-02 0.100000000000D+01
-.141368475401D-03 0.000000000000D+00 0.000000000000D+00 0.137283059763D-06 0.000000000000D+00  7 2 -2 23 -11 11 23 21 2 0.43779371D+00 0.45914189D-02 0.56921405D+05 0.56921405D+05 0.56921405D+05 0.11423755D+01  1  2  4  1  7  1        2 -.109286135326D-01 0.100000000000D+01
-.146911282141D-03 0.000000000000D+00 -.164910446471D-05 0.137283059763D-06 0.000000000000D+00  7 2 -2 23 -11 11 23 21 2 0.53492931D+00 0.45914189D-02 0.56921405D+05 0.56921405D+05 0.56921405D+05 0.11423755D+01  1  2  5  1  7  1        2 -.447420217912D-02 0.100000000000D+01
0.144366093309D-03 0.000000000000D+00 0.161653974926D-05 0.137283059763D-06 0.000000000000D+00  7 2 -2 23 -11 11 23 21 2 0.43779371D+00 0.45914189D-02 0.56921405D+05 0.56921405D+05 0.56921405D+05 0.11423755D+01  1  2  6  1  7  1        2 0.111603470046D-01 0.100000000000D+01
0.451184111516D-07 0.000000000000D+00 0.000000000000D+00 0.137283059763D-06 0.123211890588D-07  7 2 -2 23 -11 11 23 21 2 0.53479842D+00 0.45967701D-02 0.59054364D+05 0.59054364D+05 0.59054364D+05 0.11409913D+01  1  2 11  1  7  1        2 0.136818243555D-05 0.100000000000D+01
0.412227989215D-05 0.000000000000D+00 0.000000000000D+00 0.137283059763D-06 0.000000000000D+00  7 21 -2 23 -11 11 23 -2 2 0.53501673D+00 0.45914189D-02 0.59054364D+05 0.59054364D+05 0.59054364D+05 0.11409913D+01  1  2 12  3  7  1        2 0.494965945729D-05 0.100000000000D+01
-.419131133433D-05 0.000000000000D+00 -.472620910603D-07 0.137283059763D-06 0.000000000000D+00  7 21 -2 23 -11 11 23 -2 2 0.53492931D+00 0.45914189D-02 0.56921405D+05 0.56921405D+05 0.56921405D+05 0.11423755D+01  1  2  5  3  7  1        2 -.507206559587D-05 0.100000000000D+01
0.129390682944D-08 0.000000000000D+00 0.000000000000D+00 0.137283059763D-06 0.353192088968D-09  7 21 -2 23 -11 11 23 -2 2 0.53479842D+00 0.45967701D-02 0.59054364D+05 0.59054364D+05 0.59054364D+05 0.11409913D+01  1  2 11  3  7  1        2 0.155753556899D-08 0.100000000000D+01
  </mgrwgt>
  </event>
  <event>
  8     66 0.55102590E-06 0.36711852E+03 0.75467711E-02 0.92730766E-01
        2 -1    0    0  501    0 0.00000000E+00 0.00000000E+00 0.45870581E+03 0.45870592E+03 0.32000000E+00 0.0000E+00 0.9000E+01
       -2 -1    0    0    0  501 0.00000000E+00 0.00000000E+00 -.30993458E+03 0.30993475E+03 0.32000000E+00 0.0000E+00 0.9000E+01
       25  2    1    2    0    0 0.17833606E+03 0.24827515E+03 0.32282918E+02 0.42977383E+03 0.30036488E+03 0.0000E+00 0.0000E+00
       23  2    1    2    0    0 -.17833606E+03 -.24827515E+03 0.11648830E+03 0.33886684E+03 0.88413280E+02 0.0000E+00 0.0000E+00
       23  1    3    3    0    0 0.97683513E+02 -.18417764E+02 0.19840432E+02 0.13634580E+03 0.91188000E+02 0.0000E+00 0.9000E+01
      -13  1    4    4    0    0 -.10559230E+03 -.16135869E+03 0.27547616E+02 0.19479539E+03 0.10565837E+00 0.0000E+00 0.9000E+01
       13  1    4    4    0    0 -.72743752E+02 -.86916463E+02 0.88940688E+02 0.14407145E+03 0.10565837E+00 0.0000E+00 0.9000E+01
       23  1    3    3    0    0 0.80652543E+02 0.26669291E+03 0.12442486E+02 0.29342803E+03 0.91188000E+02 0.0000E+00 0.9000E+01
#aMCatNLO 1  0  0  2  1 0.36423146D+03 0.00000000D+00  -5  7  0 0.00000000D+00 0.00000000D+00 0.00000000D+00 0.00000000D+00 0.00000000D+00
  <mgrwgt>
 0.2966728782D-03    3    2    0
 0.377052913917295D+03 0.000000000000000D+00 0.000000000000000D+00 0.377052913917295D+03
 0.377052913917295D+03 0.000000000000000D+00 0.000000000000000D+00 -.377052913917295D+03
 0.135059611900274D+03 0.976835131025487D+02 -.184177632452322D+02 -.667567881486925D+01
 0.193115380515709D+03 -.105592351203002D+03 -.161358795088367D+03 -.103510775660991D+02
 0.129301865325584D+03 -.727437048602692D+02 -.869163565019014D+02 0.622324091797186D+02
 0.296628970093024D+03 0.806525429607228D+02 0.266692914835501D+03 -.452056527987503D+02
 0.000000000000000D+00 0.000000000000000D+00 -.000000000000000D+00 0.000000000000000D+00
 0.931764819566657D+03 0.000000000000000D+00 0.000000000000000D+00 0.931764819566657D+03
 0.483377258202392D+03 0.000000000000000D+00 0.000000000000000D+00 -.483377258202392D+03
 0.102210605176183D+03 0.455778110224928D+02 -.313925488613576D+01 -.667567881486925D+01
 0.241472426098575D+03 -.201029962623790D+03 -.133374442404194D+03 -.103510775660991D+02
 0.165497480491199D+03 -.137483085452545D+03 -.679333828914102D+02 0.622324091797186D+02
 0.328280027318949D+03 -.565805343614190D+02 0.306932593705760D+03 -.452056527987503D+02
 0.577681538684144D+03 0.349515771415262D+03 -.102485513524020D+03 0.448387561364265D+03
0.841538605248D-05 0.000000000000D+00 0.000000000000D+00 0.107495393442D-06 0.000000000000D+00  7 2 -2 23 -13 13 23 21 0 0.70570145D-01 0.47682265D-01 0.13477601D+06 0.13477601D+06 0.13477601D+06 0.11112385D+01  1  2  2  2  7  2       -2 0.293653201817D-03 0.100000000000D+01
-.467116189693D-06 0.000000000000D+00 -.323172982636D-07 0.107495393442D-06 0.000000000000D+00  7 2 -2 23 -13 13 23 21 2 0.70570145D-01 0.47682265D-01 0.13477601D+06 0.13477601D+06 0.13477601D+06 0.11112385D+01  1  2  3  2  7  2       -2 -.201279794177D-04 0.100000000000D+01
0.537194746215D-06 0.000000000000D+00 0.000000000000D+00 0.107495393442D-06 0.000000000000D+00  7 2 -2 23 -13 13 23 21 2 0.70570145D-01 0.47682265D-01 0.13477601D+06 0.13477601D+06 0.13477601D+06 0.11112385D+01  1  2 15  2  7  2       -2 0.231476558375D-04 0.100000000000D+01
  </mgrwgt>
  </event>
  <event>
  8     66 0.55102590E-06 0.59948700E+03 0.75467711E-02 0.89219396E-01
        2 -1    0    0  502    0 0.00000000E+00 0.00000000E+00 0.13544796E+04 0.13544796E+04 0.32000000E+00 0.0000E+00 0.9000E+01
       -2 -1    0    0    0  501 0.00000000E+00 0.00000000E+00 -.57897481E+03 0.57897490E+03 0.32000000E+00 0.0000E+00 0.9000E+01
       23  2    1    2    0    0 0.48403456E+03 0.39943130E+03 0.95402601E+02 0.64105119E+03 0.89499447E+02 0.0000E+00 0.0000E+00
       23  1    1    2    0    0 -.14615846E+03 -.52350471E+02 0.19059105E+03 0.26218899E+03 0.91188000E+02 0.0000E+00 0.9000E+01
      -13  1    3    3    0    0 0.25420771E+03 0.26031907E+03 0.33711769E+02 0.36540946E+03 0.10565837E+00 0.0000E+00 0.9000E+01
       13  1    3    3    0    0 0.22982685E+03 0.13911223E+03 0.61690832E+02 0.27564173E+03 0.10565837E+00 0.0000E+00 0.9000E+01
       23  1    1    2    0    0 -.43545398E+03 0.40427505E+02 0.72374068E+02 0.45255697E+03 0.91188000E+02 0.0000E+00 0.9000E+01
       21  1    1    2  502  501 0.97577884E+02 -.38750834E+03 0.41713708E+03 0.57765739E+03 0.75000000E+00 0.0000E+00 0.9000E+01
#aMCatNLO 2  0  0  1  2 0.39960500D+03 0.00000000D+00  -5  7  0 0.00000000D+00 0.00000000D+00 0.00000000D+00 0.00000000D+00 0.00000000D+00
  <mgrwgt>
 0.2245734306D-04    2    2    0
 0.622509904610810D+03 0.000000000000000D+00 0.000000000000000D+00 0.622509904610810D+03
 0.622509904610810D+03 0.000000000000000D+00 0.000000000000000D+00 -.622509904610810D+03
 0.235496508039649D+03 -.128760672937191D+03 -.121441832754491D+03 0.125761378478692D+03
 0.327118693335320D+03 0.280842881408062D+03 0.154543858120648D+03 -.651928785145241D+02
 0.257124434418526D+03 0.249935056288497D+03 0.592567608919659D+02 -.115792357996864D+02
 0.425280173428124D+03 -.402017264759369D+03 -.923587862581226D+02 -.489892641644810D+02
 0.000000000000000D+00 0.000000000000000D+00 -.000000000000000D+00 0.000000000000000D+00
 0.103320650108828D+04 0.000000000000000D+00 0.000000000000000D+00 0.103320650108828D+04
 0.759005225113439D+03 0.000000000000000D+00 0.000000000000000D+00 -.759005225113439D+03
 0.219622503178022D+03 -.146158463302217D+03 -.523504713107175D+02 0.125761378478692D+03
 0.369645498584263D+03 0.254207744122891D+03 0.260319238709991D+03 -.651928785145241D+02
 0.268898883960847D+03 0.229826813840452D+03 0.139112065377632D+03 -.115792357996864D+02
 0.449410446971829D+03 -.435453978394464D+03 0.404275054940976D+02 -.489892641644810D+02
 0.484634393506755D+03 0.975778837333383D+02 -.387508338271003D+03 0.274201275974839D+03
-.238787775876D-05 0.000000000000D+00 0.000000000000D+00 0.331891145635D-09 0.000000000000D+00  7 2 -2 23 -13 13 23 21 2 0.21468724D+00 0.73054623D-01 0.68797762D+06 0.68797762D+06 0.68797762D+06 0.10588503D+01  1  2 13  1  7  1        2 -.825638125068D-05 0.100000000000D+01
0.132177440161D-04 0.000000000000D+00 0.000000000000D+00 0.331891145635D-09 0.190051959117D-13  7 2 -2 23 -13 13 23 21 2 0.20838141D+00 0.89073026D-01 0.68797762D+06 0.68797762D+06 0.68797762D+06 0.10588503D+01  1  2  1  1  7  1        2 0.307137243152D-04 0.100000000000D+01
  </mgrwgt>
  </event>
  <event>
  8     66 0.55102590E-06 0.62407076E+03 0.75467711E-02 0.85625147E-01
        2 -1    0    0  501    0 0.00000000E+00 0.00000000E+00 0.32737666E+04 0.32737667E+04 0.32000000E+00 0.0000E+00 0.9000E+01
       -2 -1    0    0    0  501 0.00000000E+00 0.00000000E+00 -.12070724E+03 0.12070767E+03 0.32000000E+00 0.0000E+00 0.9000E+01
       25  2    1    2    0    0 0.14498843E+03 0.56974688E+03 0.15568233E+04 0.16909553E+04 0.29999642E+03 0.0000E+00 0.0000E+00
       23  2    1    2    0    0 -.14498843E+03 -.56974688E+03 0.15962361E+04 0.17035190E+04 0.91510944E+02 0.0000E+00 0.0000E+00
       23  1    3    3    0    0 0.14997367E+02 0.30892412E+02 0.20151944E+03 0.22384057E+03 0.91188000E+02 0.0000E+00 0.9000E+01
      -11  1    4    4    0    0 -.24807743E+02 -.16067497E+03 0.33931108E+03 0.37624976E+03 0.51099893E-03 0.0000E+00 0.9000E+01
       11  1    4    4    0    0 -.12018069E+03 -.40907191E+03 0.12569250E+04 0.13272693E+04 0.51099893E-03 0.0000E+00 0.9000E+01
       23  1    3    3    0    0 0.12999106E+03 0.53885447E+03 0.13553038E+04 0.14671147E+04 0.91188000E+02 0.0000E+00 0.9000E+01
#aMCatNLO 1  0  0  1  2 0.88363555D+03 0.00000000D+00  -5  7  0 0.00000000D+00 0.00000000D+00 0.00000000D+00 0.00000000D+00 0.00000000D+00
  <mgrwgt>
 0.2240542890D-03    3    2    0
 0.628623962275068D+03 0.000000000000000D+00 0.000000000000000D+00 0.628623962275068D+03
 0.628623962275068D+03 0.000000000000000D+00 0.000000000000000D+00 -.628623962275068D+03
 0.989608174908100D+02 0.149973666257355D+02 0.308924122049143D+02 -.172838050470469D+02
 0.164885650624800D+03 -.248077427470250D+02 -.160674967521151D+03 -.274846956293528D+02
 0.431277093005168D+03 -.120180686214032D+03 -.409071913263381D+03 0.649361485703440D+02
 0.562124363429358D+03 0.129991062335321D+03 0.538854468579618D+03 -.201676478939442D+02
 0.000000000000000D+00 0.000000000000000D+00 -.000000000000000D+00 -.000000000000000D+00
 0.100317088264784D+04 0.000000000000000D+00 0.000000000000000D+00 0.100317088264784D+04
 0.159966193257607D+04 0.000000000000000D+00 0.000000000000000D+00 -.159966193257607D+04
 0.138015080180498D+03 -.957175027293125D+01 0.101698390808496D+03 -.172838050470469D+02
 0.100565148928556D+03 -.523290720854079D+02 -.813609789755797D+02 -.274846956293528D+02
 0.283210369392900D+03 -.194257105625420D+03 -.195590354707352D+03 0.649361485703440D+02
 0.101492151538374D+04 -.335134329820142D+02 0.101005967488709D+04 -.201676478939442D+02
 0.106612070133821D+04 0.289671360965773D+03 -.834806732012652D+03 -.596491049928229D+03
0.665791803440D-04 0.000000000000D+00 0.000000000000D+00 0.286588999897D-05 0.000000000000D+00  7 2 -2 23 -11 11 23 21 0 0.50365644D+00 0.18570379D-01 0.38946431D+06 0.38946431D+06 0.38946431D+06 0.10762643D+01  1  2  2  1  7  1        2 0.221810749710D-03 0.100000000000D+01
-.369860569275D-05 0.000000000000D+00 -.255681583222D-06 0.286588999897D-05 0.000000000000D+00  7 2 -2 23 -11 11 23 21 2 0.50365644D+00 0.18570379D-01 0.38946431D+06 0.38946431D+06 0.38946431D+06 0.10762643D+01  1  2  3  1  7  1        2 -.142731572015D-04 0.100000000000D+01
0.427997442877D-05 0.000000000000D+00 0.000000000000D+00 0.286588999897D-05 0.000000000000D+00  7 2 -2 23 -11 11 23 21 2 0.50365644D+00 0.18570379D-01 0.38946431D+06 0.38946431D+06 0.38946431D+06 0.10762643D+01  1  2 15  1  7  1        2 0.165166965378D-04 0.100000000000D+01
  </mgrwgt>
  </event>
  <event>
  8     66 0.55102590E-06 0.35768166E+03 0.75467711E-02 0.92483391E-01
        2 -1    0    0  501    0 0.00000000E+00 0.00000000E+00 0.94694330E+03 0.94694335E+03 0.32000000E+00 0.0000E+00 0.9000E+01
       -2 -1    0    0    0  501 0.00000000E+00 0.00000000E+00 -.32172619E+03 0.32172635E+03 0.32000000E+00 0.0000E+00 0.9000E+01
       25  2    1    2    0    0 -.17215210E+03 0.25343617E+03 -.13301947E+03 0.44571214E+03 0.29512522E+03 0.0000E+00 0.0000E+00
       23  2    1    2    0    0 0.17215210E+03 -.25343617E+03 0.75823657E+03 0.82295756E+03 0.92033734E+02 0.0000E+00 0.0000E+00
       23  1    3    3    0    0 -.20374083E+03 0.16323881E+03 -.14647789E+03 0.31293491E+03 0.91188000E+02 0.0000E+00 0.9000E+01
      -11  1    4    4    0    0 0.10728238E+03 -.14497165E+03 0.32527889E+03 0.37193096E+03 0.51099893E-03 0.0000E+00 0.9000E+01
       11  1    4    4    0    0 0.64869717E+02 -.10846453E+03 0.43295769E+03 0.45102660E+03 0.51099893E-03 0.0000E+00 0.9000E+01
       23  1    3    3    0    0 0.31588732E+02 0.90197361E+02 0.13458421E+02 0.13277723E+03 0.91188000E+02 0.0000E+00 0.9000E+01
#aMCatNLO 1  0  0  2  1 0.38541497D+03 0.00000000D+00  -5  7  0 0.00000000D+00 0.00000000D+00 0.00000000D+00 0.00000000D+00 0.00000000D+00
  <mgrwgt>
 0.3599676828D-03    3    2    0
 0.551957056893648D+03 0.000000000000000D+00 0.000000000000000D+00 0.551957056893648D+03
 0.551957056893648D+03 0.000000000000000D+00 0.000000000000000D+00 -.551957056893648D+03
 0.442599211313161D+03 -.203740827684402D+03 0.163238810846036D+03 -.345574270279312D+03
 0.243214226166838D+03 0.107282379202496D+03 -.144971645265083D+03 0.163177427947988D+03
 0.273129242783332D+03 0.648697169433399D+02 -.108464527006356D+03 0.242130025953773D+03
 0.144971433523965D+03 0.315887315385662D+02 0.901973614254025D+02 -.597331836224489D+02
 0.000000000000000D+00 0.000000000000000D+00 0.000000000000000D+00 0.000000000000000D+00
 0.866068314247697D+03 0.000000000000000D+00 0.000000000000000D+00 0.866068314247697D+03
 0.716582050232925D+03 0.000000000000000D+00 0.000000000000000D+00 -.716582050232925D+03
 0.468100132542833D+03 -.299360777051349D+03 0.420003765072549D+02 -.345574270279312D+03
 0.274157807288283D+03 0.529602936793120D+02 -.213847697202470D+03 0.163177427947988D+03
 0.305005760011678D+03 0.416775194526245D+01 -.185429754936066D+03 0.242130025953773D+03
 0.121997207917752D+03 0.355804484768363D+01 0.546566966337702D+02 -.597331836224489D+02
 0.413389456720076D+03 0.238674686579091D+03 0.302620378997512D+03 0.149486264014773D+03
0.259681133910D-04 0.000000000000D+00 0.000000000000D+00 0.191878207784D-07 0.000000000000D+00  7 2 -2 23 -11 11 23 21 0 0.14568360D+00 0.49496353D-01 0.12793617D+06 0.12793617D+06 0.12793617D+06 0.11130463D+01  1  2  2  2  7  2       -2 0.352511993589D-03 0.100000000000D+01
-.111254501269D-05 0.000000000000D+00 -.997243929828D-07 0.191878207784D-07 0.000000000000D+00  7 2 -2 23 -11 11 23 21 2 0.14568360D+00 0.49496353D-01 0.12793617D+06 0.12793617D+06 0.12793617D+06 0.11130463D+01  1  2  3  2  7  2       -2 -.187101632455D-04 0.100000000000D+01
0.155587571576D-05 0.000000000000D+00 0.000000000000D+00 0.191878207784D-07 0.000000000000D+00  7 2 -2 23 -11 11 23 21 2 0.14568360D+00 0.49496353D-01 0.12793617D+06 0.12793617D+06 0.12793617D+06 0.11130463D+01  1  2 15  2  7  2       -2 0.261658524371D-04 0.100000000000D+01
  </mgrwgt>
  </event>
  <event>
  8     66 0.55102590E-06 0.20088005E+03 0.75467711E-02 0.10612766E+00
        2 -1    0    0  501    0 0.00000000E+00 0.00000000E+00 0.63980125E+03 0.63980133E+03 0.32000000E+00 0.0000E+00 0.9000E+01
       -2 -1    0    0    0  501 0.00000000E+00 0.00000000E+00 -.83861667E+02 0.83862278E+02 0.32000000E+00 0.0000E+00 0.9000E+01
       25  2    1    2    0    0 0.32835361E+02 0.53667285E+02 0.23433861E+03 0.38337392E+03 0.29682089E+03 0.0000E+00 0.0000E+00
       23  2    1    2    0    0 -.32835361E+02 -.53667285E+02 0.32160097E+03 0.34028969E+03 0.91714483E+02 0.0000E+00 0.0000E+00
       23  1    3    3    0    0 0.12619503E+03 0.63825453E+02 0.16312134E+03 0.23435592E+03 0.91188000E+02 0.0000E+00 0.9000E+01
      -13  1    4    4    0    0 -.68325325E+01 -.71009739E+02 0.15296990E+03 0.16878646E+03 0.10565837E+00 0.0000E+00 0.9000E+01
       13  1    4    4    0    0 -.26002829E+02 0.17342455E+02 0.16863107E+03 0.17150323E+03 0.10565837E+00 0.0000E+00 0.9000E+01
       23  1    3    3    0    0 -.93359664E+02 -.10158168E+02 0.71217274E+02 0.14901801E+03 0.91188000E+02 0.0000E+00 0.9000E+01
#aMCatNLO 1  0  0  2  1 0.41860719D+01 0.00000000D+00  -5  7  0 0.00000000D+00 0.00000000D+00 0.00000000D+00 0.00000000D+00 0.00000000D+00
  <mgrwgt>
 0.1564537695D-03    6    2    0
 0.231635595945385D+03 0.000000000000000D+00 0.000000000000000D+00 0.231635595945385D+03
 0.231635595945385D+03 0.000000000000000D+00 0.000000000000000D+00 -.231635595945385D+03
 0.170330548823090D+03 0.126195015880439D+03 0.638254535856176D+02 -.264267659750683D+02
 0.800883093800500D+02 -.683251081306630D+01 -.710098596383943D+02 0.364012902172366D+02
 0.655381791509553D+02 -.260028562202360D+02 0.173425654212027D+02 0.576050329348378D+02
 0.147314154536675D+03 -.933596488471368D+02 -.101581593684261D+02 -.675795571770062D+02
 0.000000000000000D+00 -.000000000000000D+00 0.000000000000000D+00 0.000000000000000D+00
 0.236929596646126D+03 0.000000000000000D+00 0.000000000000000D+00 0.236929596646126D+03
 0.232474035341637D+03 0.000000000000000D+00 0.000000000000000D+00 -.232474035341637D+03
 0.171193220838873D+03 0.127634230582403D+03 0.632692400849273D+02 -.264267659750683D+02
 0.802652932159010D+02 -.615676498548497D+01 -.712710152198534D+02 0.364012902172366D+02
 0.652652027992326D+02 -.254516379241988D+02 0.171295360117164D+02 0.576050329348378D+02
 0.146566387113488D+03 -.921212073864368D+02 -.106367800073872D+02 -.675795571770062D+02
 0.611352802026914D+01 -.390462028628215D+01 0.150901913059700D+01 0.445556130448926D+01
0.595971910287D-06 0.000000000000D+00 0.000000000000D+00 0.536881997413D-08 0.000000000000D+00  7 2 -2 23 -13 13 23 21 0 0.98431015D-01 0.12901848D-01 0.40352795D+05 0.40352795D+05 0.40352795D+05 0.11555753D+01  1  2  2  2  7  2       -2 0.134585077132D-03 0.100000000000D+01
-.322925823601D-07 0.000000000000D+00 -.228868905851D-08 0.536881997413D-08 0.000000000000D+00  7 2 -2 23 -13 13 23 21 2 0.98431015D-01 0.12901848D-01 0.40352795D+05 0.40352795D+05 0.40352795D+05 0.11555753D+01  1  2  3  2  7  2       -2 -.973801321555D-05 0.100000000000D+01
0.371091429236D-07 0.000000000000D+00 0.000000000000D+00 0.536881997413D-08 0.000000000000D+00  7 2 -2 23 -13 13 23 21 2 0.98431015D-01 0.12901848D-01 0.40352795D+05 0.40352795D+05 0.40352795D+05 0.11555753D+01  1  2 15  2  7  2       -2 0.111904746476D-04 0.100000000000D+01
-.642439873958D-06 0.000000000000D+00 0.000000000000D+00 0.536881997413D-08 0.000000000000D+00  7 2 -2 23 -13 13 23 21 2 0.98431015D-01 0.12901848D-01 0.40352795D+05 0.40352795D+05 0.40352795D+05 0.11555753D+01  1  2  4  2  7  2       -2 -.193731424543D-03 0.100000000000D+01
0.631585395623D-06 0.000000000000D+00 0.000000000000D+00 0.536881997413D-08 0.217999027098D-08  7 2 -2 23 -13 13 23 21 2 0.10068064D+00 0.12948548D-01 0.41127713D+05 0.41127713D+05 0.41127713D+05 0.11548331D+01  1  2 11  2  7  2       -2 0.184311108265D-03 0.100000000000D+01
0.720112195142D-08 0.000000000000D+00 0.000000000000D+00 0.536881997413D-08 0.149343403013D-11  7 2 21 23 -13 13 23 2 2 0.10068064D+00 0.12948548D-01 0.41127713D+05 0.41127713D+05 0.41127713D+05 0.11548331D+01  1  2 11  4  7  2       -2 0.298365472493D-04 0.100000000000D+01
  </mgrwgt>
  </event>
  <event>
  8     66 0.55102590E-06 0.28871121E+03 0.75467711E-02 0.99529322E-01
        2 -1    0    0  501    0 0.00000000E+00 0.00000000E+00 0.13157389E+04 0.13157390E+04 0.32000000E+00 0.0000E+00 0.9000E+01
       -2 -1    0    0    0  501 0.00000000E+00 0.00000000E+00 -.85109628E+02 0.85110230E+02 0.32000000E+00 0.0000E+00 0.9000E+01
       25  2    1    2    0    0 -.21070810E+03 0.16590007E+02 0.41868882E+03 0.55687110E+03 0.30021986E+03 0.0000E+00 0.0000E+00
       23  2    1    2    0    0 0.21070810E+03 -.16590007E+02 0.81194047E+03 0.84397808E+03 0.91534358E+02 0.0000E+00 0.0000E+00
       23  1    3    3    0    0 -.11133917E+03 -.10976815E+03 0.23099650E+03 0.29346225E+03 0.91188000E+02 0.0000E+00 0.9000E+01
      -11  1    4    4    0    0 0.62341610E+02 -.96265514E+01 0.11285334E+03 0.12928660E+03 0.51099893E-03 0.0000E+00 0.9000E+01
       11  1    4    4    0    0 0.14836649E+03 -.69634555E+01 0.69908713E+03 0.71469148E+03 0.51099893E-03 0.0000E+00 0.9000E+01
       23  1    3    3    0    0 -.99368933E+02 0.12635815E+03 0.18769231E+03 0.26340885E+03 0.91188000E+02 0.0000E+00 0.9000E+01
#aMCatNLO 1  0  0  2  1 0.77427295D+02 0.00000000D+00  -5  7  0 0.00000000D+00 0.00000000D+00 0.00000000D+00 0.00000000D+00 0.00000000D+00
  <mgrwgt>
 0.3772868994D-03    3    2    0
 0.334637861312270D+03 0.000000000000000D+00 0.000000000000000D+00 0.334637861312270D+03
 0.334637861312270D+03 0.000000000000000D+00 0.000000000000000D+00 -.334637861312270D+03
 0.189496329387109D+03 -.111339171880343D+03 -.109768145516053D+03 -.561083821024421D+02
 0.630986475315829D+02 0.623416096957830D+02 -.962655138711744D+01 -.151411005041898D+01
 0.210463168970295D+03 0.148366494963039D+03 -.696345551115360D+01 0.149109486461277D+03
 0.206217576735553D+03 -.993689327784788D+02 0.126358152414324D+03 -.914869943084161D+02
 0.000000000000000D+00 -.000000000000000D+00 -.000000000000000D+00 0.000000000000000D+00
 0.788698115172715D+03 0.000000000000000D+00 0.000000000000000D+00 0.788698115172715D+03
 0.340186844703150D+03 0.000000000000000D+00 0.000000000000000D+00 -.340186844703150D+03
 0.173091024596261D+03 -.999373684444501D+02 -.922476194707914D+02 -.561083821024421D+02
 0.665198867139104D+02 0.664175517629284D+02 -.336327474426742D+01 -.151411005041898D+01
 0.220553763203541D+03 0.161920112551184D+03 0.138636453326528D+02 0.149109486461277D+03
 0.213574873738211D+03 -.861682765735924D+02 0.146642876857492D+03 -.914869943084161D+02
 0.455145411623943D+03 -.422320192960699D+02 -.648956279750856D+02 0.448511270469566D+03
0.447719364178D-05 0.000000000000D+00 0.000000000000D+00 0.782662224427D-06 0.000000000000D+00  7 2 -2 23 -11 11 23 21 0 0.20242142D+00 0.13093838D-01 0.83354163D+05 0.83354163D+05 0.83354163D+05 0.11282692D+01  1  2  2  2  7  2       -2 0.372574530844D-03 0.100000000000D+01
-.242142498144D-06 0.000000000000D+00 -.171936024566D-07 0.782662224427D-06 0.000000000000D+00  7 2 -2 23 -11 11 23 21 2 0.20242142D+00 0.13093838D-01 0.83354163D+05 0.83354163D+05 0.83354163D+05 0.11282692D+01  1  2  3  2  7  2       -2 -.256509690725D-04 0.100000000000D+01
0.286626770914D-06 0.000000000000D+00 0.000000000000D+00 0.782662224427D-06 0.000000000000D+00  7 2 -2 23 -11 11 23 21 2 0.20242142D+00 0.13093838D-01 0.83354163D+05 0.83354163D+05 0.83354163D+05 0.11282692D+01  1  2 15  2  7  2       -2 0.303633376728D-04 0.100000000000D+01
  </mgrwgt>
  </event>
  <event>
  8     66 0.55102590E-06 0.19363772E+03 0.75467711E-02 0.97273448E-01
        2 -1    0    0  501    0 0.00000000E+00 0.00000000E+00 0.21843041E+04 0.21843041E+04 0.32000000E+00 0.0000E+00 0.9000E+01
       -2 -1    0    0    0  501 0.00000000E+00 0.00000000E+00 -.61672421E+02 0.61673251E+02 0.32000000E+00 0.0000E+00 0.9000E+01
       25  2    1    2    0    0 0.67020589E+02 0.19913203E+03 0.58009587E+03 0.68660983E+03 0.30129140E+03 0.0000E+00 0.0000E+00
       23  2    1    2    0    0 -.67020589E+02 -.19913203E+03 0.15425358E+04 0.15593675E+04 0.89805935E+02 0.0000E+00 0.0000E+00
       23  1    3    3    0    0 0.10396820E+02 0.22357258E+03 0.48184061E+03 0.53905326E+03 0.91188000E+02 0.0000E+00 0.9000E+01
      -13  1    4    4    0    0 0.83253791E+01 0.54713215E+01 0.49215864E+02 0.50214139E+02 0.10565837E+00 0.0000E+00 0.9000E+01
       13  1    4    4    0    0 -.75345968E+02 -.20460335E+03 0.14933199E+04 0.15091534E+04 0.10565837E+00 0.0000E+00 0.9000E+01
       23  1    3    3    0    0 0.56623769E+02 -.24440555E+02 0.98255259E+02 0.14755656E+03 0.91188000E+02 0.0000E+00 0.9000E+01
#aMCatNLO 1  0  0  1  2 0.19947060D+03 0.00000000D+00  -5  7  0 0.00000000D+00 0.00000000D+00 0.00000000D+00 0.00000000D+00 0.00000000D+00
  <mgrwgt>
 0.5616262717D-03    8    2    0
 0.367031714873653D+03 0.000000000000000D+00 0.000000000000000D+00 0.367031714873653D+03
 0.367031714873653D+03 0.000000000000000D+00 0.000000000000000D+00 -.367031714873653D+03
 0.256015049049978D+03 0.103968205197682D+02 0.223572582578047D+03 -.844728384661281D+02
 0.113237826585382D+02 0.832549486669863D+01 0.547161222800567D+01 0.538290335680690D+01
 0.299369883626015D+03 -.753460843377683D+02 -.204603641256043D+03 0.205140548848803D+03
 0.167354714412774D+03 0.566237689513015D+02 -.244405535500093D+02 -.126050613739481D+03
 0.000000000000000D+00 -.000000000000000D+00 -.000000000000000D+00 0.000000000000000D+00
 0.666270496364669D+03 0.000000000000000D+00 0.000000000000000D+00 0.666270496364669D+03
 0.415129947326584D+03 0.000000000000000D+00 0.000000000000000D+00 -.415129947326584D+03
 0.302941042203953D+03 0.710656529677450D+02 0.266968230764188D+03 -.844728384661281D+02
 0.144394723572678D+02 0.111218265040586D+02 0.747179286524974D+01 0.538290335680690D+01
 0.261227520980852D+03 -.144991045069078D+02 -.161080566501087D+03 0.205140548848803D+03
 0.182074315170270D+03 0.945506322236475D+02 0.268805184687076D+01 -.126050613739481D+03
 0.320718092978911D+03 -.162239007188543D+03 -.116047508975221D+03 0.251140549038086D+03
0.647063413640D-05 0.000000000000D+00 0.000000000000D+00 0.895902372446D-07 0.000000000000D+00  7 2 -2 23 -13 13 23 21 0 0.33604685D+00 0.94881304D-02 0.84030907D+05 0.84030907D+05 0.84030907D+05 0.11279759D+01  1  2  2  1  7  1        2 0.303406466252D-03 0.100000000000D+01
-.335140830980D-06 0.000000000000D+00 -.248489388409D-07 0.895902372446D-07 0.000000000000D+00  7 2 -2 23 -13 13 23 21 2 0.33604685D+00 0.94881304D-02 0.84030907D+05 0.84030907D+05 0.84030907D+05 0.11279759D+01  1  2  3  1  7  1        2 -.199942446477D-04 0.100000000000D+01
0.407291475771D-06 0.000000000000D+00 0.000000000000D+00 0.895902372446D-07 0.000000000000D+00  7 2 -2 23 -13 13 23 21 2 0.33604685D+00 0.94881304D-02 0.84030907D+05 0.84030907D+05 0.84030907D+05 0.11279759D+01  1  2 15  1  7  1        2 0.242986967171D-04 0.100000000000D+01
0.106234214880D-05 0.000000000000D+00 0.000000000000D+00 0.895902372446D-07 0.000000000000D+00  7 2 -2 23 -13 13 23 21 2 0.61629187D+00 0.94881304D-02 0.15876739D+06 0.15876739D+06 0.15876739D+06 0.11056103D+01  1  2 12  1  7  1        2 0.385651399215D-05 0.100000000000D+01
-.411011655080D-05 0.000000000000D+00 -.154229937611D-05 0.895902372446D-07 0.000000000000D+00  7 2 -2 23 -13 13 23 21 2 0.62288211D+00 0.94881304D-02 0.84030907D+05 0.84030907D+05 0.84030907D+05 0.11279759D+01  1  2  5  1  7  1        2 -.149498678243D-04 0.100000000000D+01
0.444217996239D-05 0.000000000000D+00 0.128897650507D-05 0.895902372446D-07 0.000000000000D+00  7 2 -2 23 -13 13 23 21 2 0.33604685D+00 0.94881304D-02 0.84030907D+05 0.84030907D+05 0.84030907D+05 0.11279759D+01  1  2  6  1  7  1        2 0.265017045752D-03 0.100000000000D+01
0.703907165009D-07 0.000000000000D+00 0.000000000000D+00 0.895902372446D-07 0.000000000000D+00  7 21 -2 23 -13 13 23 -2 2 0.61629187D+00 0.94881304D-02 0.15876739D+06 0.15876739D+06 0.15876739D+06 0.11056103D+01  1  2 12  3  7  1        2 0.498105487050D-08 0.100000000000D+01
-.191136258449D-06 0.000000000000D+00 -.103789023785D-06 0.895902372446D-07 0.000000000000D+00  7 21 -2 23 -13 13 23 -2 2 0.62288211D+00 0.94881304D-02 0.84030907D+05 0.84030907D+05 0.84030907D+05 0.11279759D+01  1  2  5  3  7  1        2 -.133196064365D-07 0.100000000000D+01
  </mgrwgt>
  </event>
  <event>
  8     66 0.55102590E-06 0.19390854E+03 0.75467711E-02 0.10285776E+00
        2 -1    0    0  501    0 0.00000000E+00 0.00000000E+00 0.15420638E+04 0.15420639E+04 0.32000000E+00 0.0000E+00 0.9000E+01
       -2 -1    0    0    0  501 0.00000000E+00 0.00000000E+00 -.36166507E+02 0.36167922E+02 0.32000000E+00 0.0000E+00 0.9000E+01
       25  2    1    2    0    0 -.11755006E+03 -.12225400E+02 0.97027448E+03 0.10224621E+04 0.30004774E+03 0.0000E+00 0.0000E+00
       23  2    1    2    0    0 0.11755006E+03 0.12225400E+02 0.53562285E+03 0.55576972E+03 0.89558179E+02 0.0000E+00 0.0000E+00
       23  1    3    3    0    0 -.68149380E+02 0.45024166E+02 0.14970840E+03 0.19338917E+03 0.91188000E+02 0.0000E+00 0.9000E+01
      -11  1    4    4    0    0 0.86937749E+02 -.32434011E+02 0.37308259E+03 0.38444864E+03 0.51099893E-03 0.0000E+00 0.9000E+01
       11  1    4    4    0    0 0.30612309E+02 0.44659412E+02 0.16254026E+03 0.17132108E+03 0.51099893E-03 0.0000E+00 0.9000E+01
       23  1    3    3    0    0 -.49400678E+02 -.57249566E+02 0.82056608E+03 0.82907291E+03 0.91188000E+02 0.0000E+00 0.9000E+01
#aMCatNLO 1  0  0  2  2 0.10477819D+03 0.00000000D+00  -5  7  0 0.00000000D+00 0.00000000D+00 0.00000000D+00 0.00000000D+00 0.00000000D+00
  <mgrwgt>
 0.1718154853D-03    4    2    0
 0.236161396572899D+03 0.000000000000000D+00 0.000000000000000D+00 0.236161396572899D+03
 0.236161396572899D+03 0.000000000000000D+00 0.000000000000000D+00 -.236161396572899D+03
 0.168883340968568D+03 -.681493802729803D+02 0.450241661956607D+02 -.116339236457439D+03
 0.951150131683437D+02 0.869377489142938D+02 -.324340114272214D+02 0.208980488674968D+02
 0.542328947723127D+02 0.306123090046412D+02 0.446594115697480D+02 -.310328391111223D+01
 0.154091544236574D+03 -.494006776459547D+02 -.572495663381872D+02 0.985444715010542D+02
 0.000000000000000D+00 0.000000000000000D+00 0.000000000000000D+00 0.000000000000000D+00
 0.417185505571350D+03 0.000000000000000D+00 0.000000000000000D+00 0.417185505571350D+03
 0.257560710425329D+03 0.000000000000000D+00 0.000000000000000D+00 -.257560710425329D+03
 0.184037963387345D+03 -.104723200042273D+03 0.324492535687347D+02 -.116339236457439D+03
 0.815286431716590D+02 0.686318740049888D+02 -.387279883483090D+02 0.208980488674968D+02
 0.459081762719485D+02 0.202345238194682D+02 0.410912925494283D+02 -.310328391111223D+01
 0.172330228759279D+03 -.832283070550412D+02 -.688802761431402D+02 0.985444715010542D+02
 0.190941204406447D+03 0.990851092728570D+02 0.340677183732862D+02 0.159624795146021D+03
0.786361073702D-06 0.000000000000D+00 0.000000000000D+00 0.299903092378D-07 0.000000000000D+00  7 2 -2 23 -11 11 23 21 0 0.23724070D+00 0.55641894D-02 0.37600521D+05 0.37600521D+05 0.37600521D+05 0.11583445D+01  1  2  2  2  7  2       -2 0.182030730610D-03 0.100000000000D+01
-.416226229288D-07 0.000000000000D+00 -.301983357664D-08 0.299903092378D-07 0.000000000000D+00  7 2 -2 23 -11 11 23 21 2 0.23724070D+00 0.55641894D-02 0.37600521D+05 0.37600521D+05 0.37600521D+05 0.11583445D+01  1  2  3  2  7  2       -2 -.129278891365D-04 0.100000000000D+01
0.506602815936D-07 0.000000000000D+00 0.000000000000D+00 0.299903092378D-07 0.000000000000D+00  7 2 -2 23 -11 11 23 21 2 0.23724070D+00 0.55641894D-02 0.37600521D+05 0.37600521D+05 0.37600521D+05 0.11583445D+01  1  2 15  2  7  2       -2 0.157349647374D-04 0.100000000000D+01
-.419266554078D-07 0.000000000000D+00 0.000000000000D+00 0.299903092378D-07 0.000000000000D+00  7 2 -2 23 -11 11 23 21 2 0.23724070D+00 0.55641894D-02 0.37600521D+05 0.37600521D+05 0.37600521D+05 0.11583445D+01  1  2  4  2  7  2       -2 -.130223209119D-04 0.100000000000D+01
  </mgrwgt>
  </event>
  <event>
  8     66 0.55102590E-06 0.30361704E+03 0.75467711E-02 0.96293325E-01
        2 -1    0    0  501    0 0.00000000E+00 0.00000000E+00 0.23402696E+04 0.23402696E+04 0.32000000E+00 0.0000E+00 0.9000E+01
       -2 -1    0    0    0  501 0.00000000E+00 0.00000000E+00 -.47706458E+02 0.47707531E+02 0.32000000E+00 0.0000E+00 0.9000E+01
       25  2    1    2    0    0 0.13398435E+03 -.17978256E+03 0.90871100E+03 0.98298681E+03 0.30038944E+03 0.0000E+00 0.0000E+00
       23  2    1    2    0    0 -.13398435E+03 0.17978256E+03 0.13838521E+04 0.14049903E+04 0.93153281E+02 0.0000E+00 0.0000E+00
       23  1    3    3    0    0 -.33789887E+02 0.18924942E+02 0.22688973E+03 0.24757648E+03 0.91188000E+02 0.0000E+00 0.9000E+01
      -13  1    4    4    0    0 -.25987827E+02 0.85003662E+02 0.73882272E+03 0.74415053E+03 0.10565837E+00 0.0000E+00 0.9000E+01
       13  1    4    4    0    0 -.10799653E+03 0.94778898E+02 0.64502941E+03 0.66083980E+03 0.10565837E+00 0.0000E+00 0.9000E+01
       23  1    3    3    0    0 0.16777424E+03 -.19870750E+03 0.68182127E+03 0.73541033E+03 0.91188000E+02 0.0000E+00 0.9000E+01
#aMCatNLO 1  0  0  1  2 0.21823410D+03 0.00000000D+00  -5  7  0 0.00000000D+00 0.00000000D+00 0.00000000D+00 0.00000000D+00 0.00000000D+00
  <mgrwgt>
 0.1937052957D-03    4    2    0
 0.334136619483886D+03 0.000000000000000D+00 0.000000000000000D+00 0.334136619483886D+03
 0.334136619483886D+03 0.000000000000000D+00 0.000000000000000D+00 -.334136619483886D+03
 0.106315692670191D+03 -.337898864636667D+02 0.189249414883485D+02 -.385728573789592D+02
 0.124524975171726D+03 -.259877249346464D+02 0.850036501996629D+02 0.872094435653237D+02
 0.148591483728072D+03 -.107996630651484D+03 0.947789111498733D+02 0.378565028189522D+02
 0.288841087397783D+03 0.167774242049797D+03 -.198707502837885D+03 -.864930890053166D+02
 0.000000000000000D+00 0.000000000000000D+00 -.000000000000000D+00 -.000000000000000D+00
 0.431637829242805D+03 0.000000000000000D+00 0.000000000000000D+00 0.431637829242805D+03
 0.500081988688457D+03 0.000000000000000D+00 0.000000000000000D+00 -.500081988688457D+03
 0.123375929268933D+03 -.702031765697411D+02 0.221363333032617D+02 -.385728573789592D+02
 0.141889271310695D+03 -.682226970405367D+02 0.887284727391488D+02 0.872094435653237D+02
 0.194164621247620D+03 -.162334169742988D+03 0.995710935583471D+02 0.378565028189522D+02
 0.243574618387827D+03 0.833697374878505D+02 -.191263629068103D+03 -.864930890053166D+02
 0.228715377716187D+03 0.217390305865415D+03 -.191722705326544D+02 -.684441594456522D+02
0.437110042731D-05 0.000000000000D+00 0.000000000000D+00 0.874204701028D-07 0.000000000000D+00  7 2 -2 23 -13 13 23 21 0 0.36004156D+00 0.73395393D-02 0.92183308D+05 0.92183308D+05 0.92183308D+05 0.11246343D+01  1  2  2  1  7  1        2 0.248016200876D-03 0.100000000000D+01
-.240130127182D-06 0.000000000000D+00 -.167861765780D-07 0.874204701028D-07 0.000000000000D+00  7 2 -2 23 -13 13 23 21 2 0.36004156D+00 0.73395393D-02 0.92183308D+05 0.92183308D+05 0.92183308D+05 0.11246343D+01  1  2  3  1  7  1        2 -.172329086317D-04 0.100000000000D+01
0.280618207555D-06 0.000000000000D+00 0.000000000000D+00 0.874204701028D-07 0.000000000000D+00  7 2 -2 23 -13 13 23 21 2 0.36004156D+00 0.73395393D-02 0.92183308D+05 0.92183308D+05 0.92183308D+05 0.11246343D+01  1  2 15  1  7  1        2 0.201385306706D-04 0.100000000000D+01
-.797277594954D-06 0.000000000000D+00 0.000000000000D+00 0.874204701028D-07 0.000000000000D+00  7 2 -2 23 -13 13 23 21 2 0.36004156D+00 0.73395393D-02 0.92183308D+05 0.92183308D+05 0.92183308D+05 0.11246343D+01  1  2  4  1  7  1        2 -.572165271771D-04 0.100000000000D+01
  </mgrwgt>
  </event>
  <event>
  8     66 0.55102590E-06 0.20032041E+03 0.75467711E-02 0.89075285E-01
        2 -1    0    0  501    0 0.00000000E+00 0.00000000E+00 0.41328093E+03 0.41328105E+03 0.32000000E+00 0.0000E+00 0.9000E+01
       -2 -1    0    0    0  501 0.00000000E+00 0.00000000E+00 -.18893031E+03 0.18893058E+03 0.32000000E+00 0.0000E+00 0.9000E+01
       25  2    1    2    0    0 0.20081023E+02 0.85271140E+02 0.31745438E+03 0.44527988E+03 0.29970397E+03 0.0000E+00 0.0000E+00
       23  2    1    2    0    0 -.20081023E+02 -.85271140E+02 -.93103755E+02 0.15693175E+03 0.91021158E+02 0.0000E+00 0.0000E+00
       23  1    3    3    0    0 0.12040022E+02 -.64899392E+02 0.21248931E+03 0.24046590E+03 0.91188000E+02 0.0000E+00 0.9000E+01
      -11  1    4    4    0    0 -.77339703E+01 -.95714488E+02 -.44742757E+02 0.10593862E+03 0.51099893E-03 0.0000E+00 0.9000E+01
       11  1    4    4    0    0 -.12347053E+02 0.10443348E+02 -.48360998E+02 0.50993131E+02 0.51099893E-03 0.0000E+00 0.9000E+01
       23  1    3    3    0    0 0.80410015E+01 0.15017053E+03 0.10496507E+03 0.20481398E+03 0.91188000E+02 0.0000E+00 0.9000E+01
#aMCatNLO 1  0  0  1  1 0.78468243D+03 0.00000000D+00  -5  7  0 0.00000000D+00 0.00000000D+00 0.00000000D+00 0.00000000D+00 0.00000000D+00
  <mgrwgt>
 0.1653787136D-03    5    2    0
 0.279430512559584D+03 0.000000000000000D+00 0.000000000000000D+00 0.279430512559584D+03
 0.279430512559584D+03 0.000000000000000D+00 0.000000000000000D+00 -.279430512559584D+03
 0.173816476627929D+03 0.120400219053399D+02 -.648993920727504D+02 0.132438751823074D+03
 0.132117884686482D+03 -.773397026464396D+01 -.957144882155382D+02 -.907417098340877D+02
 0.743628103473669D+02 -.123470531331509D+02 0.104433480137348D+02 -.725831545466965D+02
 0.178563853457389D+03 0.804100149245499D+01 0.150170532274554D+03 0.308861125577102D+02
 0.000000000000000D+00 0.000000000000000D+00 0.000000000000000D+00 0.000000000000000D+00
 0.149128363984776D+04 0.000000000000000D+00 0.000000000000000D+00 0.149128363984776D+04
 0.634144300712769D+03 0.000000000000000D+00 0.000000000000000D+00 -.634144300712769D+03
 0.385855933228075D+03 -.429218367914047D+02 -.348119581186274D+03 0.132438751823074D+03
 0.361740195178565D+03 -.562326232691254D+02 -.345629574811654D+03 -.907417098340877D+02
 0.117093243574175D+03 -.311487313952247D+02 -.864422923067146D+02 -.725831545466965D+02
 0.986652661773419D+02 -.191839026329909D+02 0.987974375609596D+01 0.308861125577102D+02
 0.116207330240237D+04 0.149487094088746D+03 0.770311704548547D+03 0.857139339134989D+03
0.161550652068D-05 0.000000000000D+00 0.000000000000D+00 0.292643477777D-06 0.000000000000D+00  7 2 -2 23 -11 11 23 21 0 0.63581712D-01 0.29066231D-01 0.40128267D+05 0.40128267D+05 0.40128267D+05 0.11557932D+01  1  2  2  1  7  1        2 0.157113913446D-03 0.100000000000D+01
-.776617345167D-07 0.000000000000D+00 -.620397041204D-08 0.292643477777D-06 0.000000000000D+00  7 2 -2 23 -11 11 23 21 2 0.63581712D-01 0.29066231D-01 0.40128267D+05 0.40128267D+05 0.40128267D+05 0.11557932D+01  1  2  3  1  7  1        2 -.100895852837D-04 0.100000000000D+01
0.100079935470D-06 0.000000000000D+00 0.000000000000D+00 0.292643477777D-06 0.000000000000D+00  7 2 -2 23 -11 11 23 21 2 0.63581712D-01 0.29066231D-01 0.40128267D+05 0.40128267D+05 0.40128267D+05 0.11557932D+01  1  2 15  1  7  1        2 0.130020923482D-04 0.100000000000D+01
0.181019424501D-05 0.000000000000D+00 -.932191582627D-06 0.292643477777D-06 0.000000000000D+00  7 2 -2 23 -11 11 23 21 2 0.48435765D+00 0.29066231D-01 0.40128267D+05 0.40128267D+05 0.40128267D+05 0.11557932D+01  1  2  5  1  7  1        2 0.528873563892D-05 0.100000000000D+01
0.344620268037D-06 0.000000000000D+00 -.230449312393D-06 0.292643477777D-06 0.000000000000D+00  7 21 -2 23 -11 11 23 -2 2 0.48435765D+00 0.29066231D-01 0.40128267D+05 0.40128267D+05 0.40128267D+05 0.11557932D+01  1  2  5  3  7  1        2 0.635574054111D-07 0.100000000000D+01
  </mgrwgt>
  </event>
  <event>
  8     66 0.55102590E-06 0.97003673E+02 0.75467711E-02 0.10469880E+00
        2 -1    0    0  501    0 0.00000000E+00 0.00000000E+00 0.10889446E+04 0.10889447E+04 0.32000000E+00 0.0000E+00 0.9000E+01
       -2 -1    0    0    0  501 0.00000000E+00 0.00000000E+00 -.39476902E+02 0.39478198E+02 0.32000000E+00 0.0000E+00 0.9000E+01
       25  2    1    2    0    0 0.12823286E+02 -.43405403E+02 0.87750443E+03 0.92925396E+03 0.30240773E+03 0.0000E+00 0.0000E+00
       23  2    1    2    0    0 -.12823286E+02 0.43405403E+02 0.17196328E+03 0.19916890E+03 0.89712953E+02 0.0000E+00 0.0000E+00
       23  1    3    3    0    0 0.31580026E+02 0.61159469E+02 0.66521976E+03 0.67495953E+03 0.91188000E+02 0.0000E+00 0.9000E+01
      -11  1    4    4    0    0 0.18878170E+02 0.19237779E+02 0.48741010E+01 0.27390405E+02 0.51099893E-03 0.0000E+00 0.9000E+01
       11  1    4    4    0    0 -.31701456E+02 0.24167625E+02 0.16708918E+03 0.17177849E+03 0.51099893E-03 0.0000E+00 0.9000E+01
       23  1    3    3    0    0 -.18756740E+02 -.10456487E+03 0.21228467E+03 0.25429443E+03 0.91188000E+02 0.0000E+00 0.9000E+01
#aMCatNLO 1  0  0  1  2 0.12183657D+03 0.00000000D+00  -5  7  0 0.00000000D+00 0.00000000D+00 0.00000000D+00 0.00000000D+00 0.00000000D+00
  <mgrwgt>
 0.5379980979D-03    7    2    0
 0.207337689523468D+03 0.000000000000000D+00 0.000000000000000D+00 0.207337689523468D+03
 0.207337689523468D+03 0.000000000000000D+00 0.000000000000000D+00 -.207337689523468D+03
 0.153163409775364D+03 0.315800264914428D+02 0.611594602593440D+02 0.102009808830336D+03
 0.621998573232166D+02 0.188781678951779D+02 0.192377842122583D+02 -.560566203632770D+02
 0.445748161162051D+02 -.317014570209301D+02 0.241676286817947D+02 0.199463675500706D+02
 0.154737295832150D+03 -.187567373656905D+02 -.104564873153397D+03 -.658995560171294D+02
 0.000000000000000D+00 0.000000000000000D+00 0.000000000000000D+00 0.000000000000000D+00
 0.682378504930359D+03 0.000000000000000D+00 0.000000000000000D+00 0.682378504930359D+03
 0.224060594881623D+03 0.000000000000000D+00 0.000000000000000D+00 -.224060594881623D+03
 0.139551819277870D+03 0.167515531113278D+02 0.217449601176883D+02 0.102009808830336D+03
 0.575856268314705D+02 0.128100317450463D+02 0.310850731247461D+01 -.560566203632770D+02
 0.430927746637172D+02 -.361425533738038D+02 0.123630694164978D+02 0.199463675500706D+02
 0.191973225187492D+03 -.363205236714948D+02 -.151249912138359D+03 -.658995560171294D+02
 0.474235653851432D+03 0.429014921889245D+02 0.114033375291698D+03 0.458317910048737D+03
0.163901742790D-05 0.000000000000D+00 0.000000000000D+00 0.310299419161D-08 0.000000000000D+00  7 2 -2 23 -11 11 23 21 0 0.16753004D+00 0.60734728D-02 0.25771360D+05 0.25771360D+05 0.25771360D+05 0.11735080D+01  1  2  2  1  7  1        2 0.585876298664D-03 0.100000000000D+01
-.838100455457D-07 0.000000000000D+00 -.629425848634D-08 0.310299419161D-08 0.000000000000D+00  7 2 -2 23 -11 11 23 21 2 0.16753004D+00 0.60734728D-02 0.25771360D+05 0.25771360D+05 0.25771360D+05 0.11735080D+01  1  2  3  1  7  1        2 -.412563226220D-04 0.100000000000D+01
0.103199636100D-06 0.000000000000D+00 0.000000000000D+00 0.310299419161D-08 0.000000000000D+00  7 2 -2 23 -11 11 23 21 2 0.16753004D+00 0.60734728D-02 0.25771360D+05 0.25771360D+05 0.25771360D+05 0.11735080D+01  1  2 15  1  7  1        2 0.508010400624D-04 0.100000000000D+01
0.570236030442D-06 0.000000000000D+00 0.000000000000D+00 0.310299419161D-08 0.000000000000D+00  7 2 -2 23 -11 11 23 21 2 0.53938379D+00 0.60734728D-02 0.50345188D+05 0.50345188D+05 0.50345188D+05 0.11470327D+01  1  2 12  1  7  1        2 0.111031698650D-04 0.100000000000D+01
-.389967865465D-05 0.000000000000D+00 -.488709713257D-06 0.310299419161D-08 0.000000000000D+00  7 2 -2 23 -11 11 23 21 2 0.55695690D+00 0.60734728D-02 0.25771360D+05 0.25771360D+05 0.25771360D+05 0.11735080D+01  1  2  5  1  7  1        2 -.682724231194D-04 0.100000000000D+01
0.768720685531D-07 0.000000000000D+00 0.000000000000D+00 0.310299419161D-08 0.000000000000D+00  7 21 -2 23 -11 11 23 -2 2 0.53938379D+00 0.60734728D-02 0.50345188D+05 0.50345188D+05 0.50345188D+05 0.11470327D+01  1  2 12  3  7  1        2 0.574980533103D-07 0.100000000000D+01
-.524343901281D-06 0.000000000000D+00 -.680803772312D-07 0.310299419161D-08 0.000000000000D+00  7 21 -2 23 -11 11 23 -2 2 0.55695690D+00 0.60734728D-02 0.25771360D+05 0.25771360D+05 0.25771360D+05 0.11735080D+01  1  2  5  3  7  1        2 -.311163008534D-06 0.100000000000D+01
  </mgrwgt>
  </event>
  <event>
  8     66 0.55102590E-06 0.11964056E+03 0.75467711E-02 0.10153818E+00
        2 -1    0    0  501    0 0.00000000E+00 0.00000000E+00 0.95352193E+03 0.95352198E+03 0.32000000E+00 0.0000E+00 0.9000E+01
       -2 -1    0    0    0  501 0.00000000E+00 0.00000000E+00 -.77801265E+02 0.77801924E+02 0.32000000E+00 0.0000E+00 0.9000E+01
       25  2    1    2    0    0 -.22410538E+01 -.13466534E+03 0.76842288E+03 0.83647684E+03 0.30179462E+03 0.0000E+00 0.0000E+00
       23  2    1    2    0    0 0.22410538E+01 0.13466534E+03 0.10729778E+03 0.19484707E+03 0.91174514E+02 0.0000E+00 0.0000E+00
       23  1    3    3    0    0 0.63344064E+02 0.43748172E+02 0.29560103E+03 0.31878142E+03 0.91188000E+02 0.0000E+00 0.9000E+01
      -13  1    4    4    0    0 0.51149654E+01 -.66605437E+01 -.86241434E+01 0.12037970E+02 0.10565837E+00 0.0000E+00 0.9000E+01
       13  1    4    4    0    0 -.28739116E+01 0.14132588E+03 0.11592192E+03 0.18280910E+03 0.10565837E+00 0.0000E+00 0.9000E+01
       23  1    3    3    0    0 -.65585118E+02 -.17841351E+03 0.47282186E+03 0.51769542E+03 0.91188000E+02 0.0000E+00 0.9000E+01
#aMCatNLO 1  0  0  2  1 0.82566038D+02 0.00000000D+00  -5  7  0 0.00000000D+00 0.00000000D+00 0.00000000D+00 0.00000000D+00 0.00000000D+00
  <mgrwgt>
 0.3154581249D-03    9    2    0
 0.272370298516956D+03 0.000000000000000D+00 0.000000000000000D+00 0.272370298516956D+03
 0.272370298516956D+03 0.000000000000000D+00 0.000000000000000D+00 -.272370298516956D+03
 0.128323395192833D+03 0.633440551071730D+02 0.437481528546328D+02 0.471727910368167D+02
 0.366546896585321D+02 0.511497611834844D+01 -.666073939833865D+01 -.356796558831422D+02
 0.159746252476357D+03 -.287392204968302D+01 0.141326088220464D+03 -.744146661659772D+02
 0.220016259706189D+03 -.655851091758384D+02 -.178413501676758D+03 0.629215310123027D+02
 0.000000000000000D+00 0.000000000000000D+00 -.000000000000000D+00 -.000000000000000D+00
 0.305127849583417D+03 0.000000000000000D+00 0.000000000000000D+00 0.305127849583417D+03
 0.332967756885757D+03 0.000000000000000D+00 0.000000000000000D+00 -.332967756885757D+03
 0.121514889891015D+03 0.448155517610574D+02 0.470840867743491D+02 0.471727910368167D+02
 0.361314432140596D+02 -.282988032854475D+00 -.568887181826314D+01 -.356796558831422D+02
 0.165795118244446D+03 -.270167165564381D+02 0.145672837960977D+03 -.744146661659772D+02
 0.227520860163817D+03 -.987753506964259D+02 -.172437819214779D+03 0.629215310123027D+02
 0.871332949558363D+02 0.812595035246611D+02 -.146302337022840D+02 -.278399073023405D+02
0.154644552291D-05 0.000000000000D+00 0.000000000000D+00 0.280618057556D-07 0.000000000000D+00  7 2 -2 23 -13 13 23 21 0 0.14669574D+00 0.11969480D-01 0.57580494D+05 0.57580494D+05 0.57580494D+05 0.11419417D+01  1  2  2  2  7  2       -2 0.240156330336D-03 0.100000000000D+01
-.842369663988D-07 0.000000000000D+00 -.593875799644D-08 0.280618057556D-07 0.000000000000D+00  7 2 -2 23 -13 13 23 21 2 0.14669574D+00 0.11969480D-01 0.57580494D+05 0.57580494D+05 0.57580494D+05 0.11419417D+01  1  2  3  2  7  2       -2 -.170588603181D-04 0.100000000000D+01
0.997378175031D-07 0.000000000000D+00 0.000000000000D+00 0.280618057556D-07 0.000000000000D+00  7 2 -2 23 -13 13 23 21 2 0.14669574D+00 0.11969480D-01 0.57580494D+05 0.57580494D+05 0.57580494D+05 0.11419417D+01  1  2 15  2  7  2       -2 0.201979436102D-04 0.100000000000D+01
0.107287862611D-05 0.000000000000D+00 0.000000000000D+00 0.280618057556D-07 0.000000000000D+00  7 2 -2 23 -13 13 23 21 2 0.14669574D+00 0.15224001D-01 0.80386693D+05 0.80386693D+05 0.80386693D+05 0.11295868D+01  1  2 12  2  7  2       -2 0.145466553290D-03 0.100000000000D+01
-.114152437892D-05 0.000000000000D+00 0.000000000000D+00 0.280618057556D-07 0.000000000000D+00  7 2 -2 23 -13 13 23 21 2 0.14669574D+00 0.11969480D-01 0.57580494D+05 0.57580494D+05 0.57580494D+05 0.11419417D+01  1  2  4  2  7  2       -2 -.231170539043D-03 0.100000000000D+01
-.212030014931D-05 0.000000000000D+00 -.785510542736D-06 0.280618057556D-07 0.000000000000D+00  7 2 -2 23 -13 13 23 21 2 0.14669574D+00 0.16394264D-01 0.57580494D+05 0.57580494D+05 0.57580494D+05 0.11419417D+01  1  2  5  2  7  2       -2 -.261344004247D-03 0.100000000000D+01
0.229045996904D-05 0.000000000000D+00 0.748185843636D-06 0.280618057556D-07 0.000000000000D+00  7 2 -2 23 -13 13 23 21 2 0.14669574D+00 0.11969480D-01 0.57580494D+05 0.57580494D+05 0.57580494D+05 0.11419417D+01  1  2  6  2  7  2       -2 0.463841925303D-03 0.100000000000D+01
0.352850582456D-07 0.000000000000D+00 0.000000000000D+00 0.280618057556D-07 0.000000000000D+00  7 2 21 23 -13 13 23 2 2 0.14669574D+00 0.15224001D-01 0.80386693D+05 0.80386693D+05 0.80386693D+05 0.11295868D+01  1  2 12  4  7  2       -2 0.649656675557D-04 0.100000000000D+01
-.658692276008D-07 0.000000000000D+00 -.314212787863D-07 0.280618057556D-07 0.000000000000D+00  7 2 21 23 -13 13 23 2 2 0.14669574D+00 0.16394264D-01 0.57580494D+05 0.57580494D+05 0.57580494D+05 0.11419417D+01  1  2  5  4  7  2       -2 -.109596891635D-03 0.100000000000D+01
  </mgrwgt>
  </event>
  <event>
  8     66 0.55102590E-06 0.17595341E+03 0.75467711E-02 0.98168227E-01
        2 -1    0    0  501    0 0.00000000E+00 0.00000000E+00 0.18076609E+04 0.18076609E+04 0.32000000E+00 0.0000E+00 0.9000E+01
       -2 -1    0    0    0  501 0.00000000E+00 0.00000000E+00 -.48396665E+02 0.48397723E+02 0.32000000E+00 0.0000E+00 0.9000E+01
       25  2    1    2    0    0 0.12329994E+03 -.89704006E+02 0.64107688E+03 0.72350420E+03 0.29871237E+03 0.0000E+00 0.0000E+00
       23  2    1    2    0    0 -.12329994E+03 0.89704006E+02 0.11181874E+04 0.11325545E+04 0.95325412E+02 0.0000E+00 0.0000E+00
       23  1    3    3    0    0 -.64355981E+02 -.10462192E+02 0.22268519E+03 0.24930923E+03 0.91188000E+02 0.0000E+00 0.9000E+01
      -13  1    4    4    0    0 -.71084850E+02 0.52590838E+02 0.92070995E+03 0.92494631E+03 0.10565837E+00 0.0000E+00 0.9000E+01
       13  1    4    4    0    0 -.52215090E+02 0.37113167E+02 0.19747741E+03 0.20760814E+03 0.10565837E+00 0.0000E+00 0.9000E+01
       23  1    3    3    0    0 0.18765592E+03 -.79241813E+02 0.41839169E+03 0.47419497E+03 0.91188000E+02 0.0000E+00 0.9000E+01
#aMCatNLO 1  0  0  1  2 0.23070659D+03 0.00000000D+00  -5  7  0 0.00000000D+00 0.00000000D+00 0.00000000D+00 0.00000000D+00 0.00000000D+00
  <mgrwgt>
 0.4041493517D-03    8    2    0
 0.295779930356656D+03 0.000000000000000D+00 0.000000000000000D+00 0.295779930356656D+03
 0.295779930356656D+03 0.000000000000000D+00 0.000000000000000D+00 -.295779930356656D+03
 0.119971752472032D+03 -.643559784945738D+02 -.104621935509536D+02 -.427413217544674D+02
 0.163943825627368D+03 -.710848797065991D+02 0.525908620754877D+02 0.138053319643506D+03
 0.640981159327138D+02 -.522150636765624D+02 0.371131465080385D+02 0.218402098181778D+01
 0.243546166681197D+03 0.187655921877735D+03 -.792418150325726D+02 -.974960188708567D+02
 0.000000000000000D+00 -.000000000000000D+00 0.000000000000000D+00 0.000000000000000D+00
 0.517160032422758D+03 0.000000000000000D+00 0.000000000000000D+00 0.517160032422758D+03
 0.384115586263125D+03 0.000000000000000D+00 0.000000000000000D+00 -.384115586263125D+03
 0.119460619428016D+03 -.413520088476627D+02 -.491810840574832D+02 -.427413217544674D+02
 0.144177234382527D+03 -.414814996131145D+02 0.276424301555876D+01 0.138053319643506D+03
 0.459553879357632D+02 -.416414413946785D+02 0.193162649404854D+02 0.218402098181778D+01
 0.325362348564493D+03 0.242315006247682D+03 -.171240680245442D+03 -.974960188708567D+02
 0.266320028375085D+03 -.117840056392226D+03 0.198341256346881D+03 0.133044446159634D+03
0.243287093781D-05 0.000000000000D+00 0.000000000000D+00 0.665834686214D-08 0.000000000000D+00  7 2 -2 23 -13 13 23 21 0 0.27810176D+00 0.74457243D-02 0.59478687D+05 0.59478687D+05 0.59478687D+05 0.11407225D+01  1  2  2  1  7  1        2 0.263853930284D-03 0.100000000000D+01
-.129042710935D-06 0.000000000000D+00 -.934286499083D-08 0.665834686214D-08 0.000000000000D+00  7 2 -2 23 -13 13 23 21 2 0.27810176D+00 0.74457243D-02 0.59478687D+05 0.59478687D+05 0.59478687D+05 0.11407225D+01  1  2  3  1  7  1        2 -.182111746072D-04 0.100000000000D+01
0.155589374515D-06 0.000000000000D+00 0.000000000000D+00 0.665834686214D-08 0.000000000000D+00  7 2 -2 23 -13 13 23 21 2 0.27810176D+00 0.74457243D-02 0.59478687D+05 0.59478687D+05 0.59478687D+05 0.11407225D+01  1  2 15  1  7  1        2 0.219575770363D-04 0.100000000000D+01
0.411128684284D-08 0.000000000000D+00 0.000000000000D+00 0.665834686214D-08 0.000000000000D+00  7 2 -2 23 -13 13 23 21 2 0.50240806D+00 0.74457243D-02 0.13695463D+06 0.13695463D+06 0.13695463D+06 0.11106837D+01  1  2 12  1  7  1        2 0.768254837657D-07 0.100000000000D+01
-.774031905774D-06 0.000000000000D+00 -.624203364643D-06 0.665834686214D-08 0.000000000000D+00  7 2 -2 23 -13 13 23 21 2 0.52422648D+00 0.74457243D-02 0.59478687D+05 0.59478687D+05 0.59478687D+05 0.11407225D+01  1  2  5  1  7  1        2 -.127442447734D-04 0.100000000000D+01
0.105742418126D-05 0.000000000000D+00 0.516828173848D-06 0.665834686214D-08 0.000000000000D+00  7 2 -2 23 -13 13 23 21 2 0.27810176D+00 0.74457243D-02 0.59478687D+05 0.59478687D+05 0.59478687D+05 0.11407225D+01  1  2  6  1  7  1        2 0.149229168073D-03 0.100000000000D+01
0.266463271348D-09 0.000000000000D+00 0.000000000000D+00 0.665834686214D-08 0.000000000000D+00  7 21 -2 23 -13 13 23 -2 2 0.50240806D+00 0.74457243D-02 0.13695463D+06 0.13695463D+06 0.13695463D+06 0.11106837D+01  1  2 12  3  7  1        2 0.250116217848D-09 0.100000000000D+01
-.180541833843D-07 0.000000000000D+00 -.430409529349D-07 0.665834686214D-08 0.000000000000D+00  7 21 -2 23 -13 13 23 -2 2 0.52422648D+00 0.74457243D-02 0.59478687D+05 0.59478687D+05 0.59478687D+05 0.11407225D+01  1  2  5  3  7  1        2 -.129799580426D-07 0.100000000000D+01
  </mgrwgt>
  </event>
  <event>
  8     66 0.55102590E-06 0.29932047E+03 0.75467711E-02 0.97453443E-01
        2 -1    0    0  501    0 0.00000000E+00 0.00000000E+00 0.45465755E+03 0.45465766E+03 0.32000000E+00 0.0000E+00 0.9000E+01
       -2 -1    0    0    0  501 0.00000000E+00 0.00000000E+00 -.20209804E+03 0.20209829E+03 0.32000000E+00 0.0000E+00 0.9000E+01
       25  2    1    2    0    0 0.23474370E+02 0.21036739E+03 0.10516175E+03 0.38252127E+03 0.30076244E+03 0.0000E+00 0.0000E+00
       23  2    1    2    0    0 -.23474370E+02 -.21036739E+03 0.14739775E+03 0.27423469E+03 0.93129382E+02 0.0000E+00 0.0000E+00
       23  1    3    3    0    0 -.90294581E+02 0.17623329E+03 0.64756629E+02 0.22742022E+03 0.91188000E+02 0.0000E+00 0.9000E+01
      -13  1    4    4    0    0 -.30297331E+02 -.21831902E+03 0.14372638E+03 0.26313192E+03 0.10565837E+00 0.0000E+00 0.9000E+01
       13  1    4    4    0    0 0.68229616E+01 0.79516349E+01 0.36713790E+01 0.11102770E+02 0.10565837E+00 0.0000E+00 0.9000E+01
       23  1    3    3    0    0 0.11376895E+03 0.34134098E+02 0.40405126E+02 0.15510105E+03 0.91188000E+02 0.0000E+00 0.9000E+01
#aMCatNLO 1  0  0  1  1 0.16449804D+03 0.00000000D+00  -5  7  0 0.00000000D+00 0.00000000D+00 0.00000000D+00 0.00000000D+00 0.00000000D+00
  <mgrwgt>
 0.3238014769D-03    4    2    0
 0.303126245324384D+03 0.000000000000000D+00 0.000000000000000D+00 0.303126245324384D+03
 0.303126245324384D+03 0.000000000000000D+00 0.000000000000000D+00 -.303126245324384D+03
 0.219388263776091D+03 -.902945793044431D+02 0.176233290303664D+03 -.245901459057402D+02
 0.225177070918651D+03 -.302973789903529D+02 -.218319315142862D+03 0.460810018268923D+02
 0.104979365655806D+02 0.682300899044909D+01 0.795192517051151D+01 -.648156257232872D+00
 0.151189219388444D+03 0.113768949304347D+03 0.341340996686860D+02 -.208426996639193D+02
 0.000000000000000D+00 -.000000000000000D+00 -.000000000000000D+00 -.000000000000000D+00
 0.359341045473961D+03 0.000000000000000D+00 0.000000000000000D+00 0.359341045473961D+03
 0.463572687260690D+03 0.000000000000000D+00 0.000000000000000D+00 -.463572687260690D+03
 0.211562501315651D+03 -.337519393614250D+02 0.186278211105357D+03 -.245901459057402D+02
 0.214863467085745D+03 0.274378792250904D+02 -.208062523156781D+03 0.460810018268923D+02
 0.130777068207620D+02 0.991623732045377D+01 0.850144379270107D+01 -.648156257232872D+00
 0.188669617837301D+03 0.158359926792500D+03 0.420557820979098D+02 -.208426996639193D+02
 0.194740439675193D+03 -.161962103976619D+03 -.287729138391860D+02 -.104231641786729D+03
0.506272447240D-05 0.000000000000D+00 0.000000000000D+00 0.466408676838D-07 0.000000000000D+00  7 2 -2 23 -13 13 23 21 0 0.69947344D-01 0.31092035D-01 0.89592743D+05 0.89592743D+05 0.89592743D+05 0.11256598D+01  1  2  2  1  7  1        2 0.394546818680D-03 0.100000000000D+01
-.281207880555D-06 0.000000000000D+00 -.194421950200D-07 0.466408676838D-07 0.000000000000D+00  7 2 -2 23 -13 13 23 21 2 0.69947344D-01 0.31092035D-01 0.89592743D+05 0.89592743D+05 0.89592743D+05 0.11256598D+01  1  2  3  1  7  1        2 -.277687311739D-04 0.100000000000D+01
0.320513438398D-06 0.000000000000D+00 0.000000000000D+00 0.466408676838D-07 0.000000000000D+00  7 2 -2 23 -13 13 23 21 2 0.69947344D-01 0.31092035D-01 0.89592743D+05 0.89592743D+05 0.89592743D+05 0.11256598D+01  1  2 15  1  7  1        2 0.316500785501D-04 0.100000000000D+01
-.755728195100D-06 0.000000000000D+00 0.000000000000D+00 0.466408676838D-07 0.000000000000D+00  7 2 -2 23 -13 13 23 21 2 0.69947344D-01 0.31092035D-01 0.89592743D+05 0.89592743D+05 0.89592743D+05 0.11256598D+01  1  2  4  1  7  1        2 -.746266891555D-04 0.100000000000D+01
  </mgrwgt>
  </event>
  <event>
  8     66 0.55102590E-06 0.13330162E+03 0.75467711E-02 0.10402837E+00
        2 -1    0    0  501    0 0.00000000E+00 0.00000000E+00 0.42554908E+03 0.42554920E+03 0.32000000E+00 0.0000E+00 0.9000E+01
       -2 -1    0    0    0  501 0.00000000E+00 0.00000000E+00 -.25689195E+03 0.25689215E+03 0.32000000E+00 0.0000E+00 0.9000E+01
       25  2    1    2    0    0 -.89800047E+02 0.93103052E+02 -.12430880E+03 0.34943737E+03 0.29986926E+03 0.0000E+00 0.0000E+00
       23  2    1    2    0    0 0.89800047E+02 -.93103052E+02 0.29296593E+03 0.33300398E+03 0.91270955E+02 0.0000E+00 0.0000E+00
       23  1    3    3    0    0 0.19617200E+02 0.26626845E+02 0.54581626E+02 0.11130242E+03 0.91188000E+02 0.0000E+00 0.9000E+01
      -11  1    4    4    0    0 0.86248526E+01 -.73810309E+02 0.12406568E+03 0.14461896E+03 0.51099893E-03 0.0000E+00 0.9000E+01
       11  1    4    4    0    0 0.81175195E+02 -.19292743E+02 0.16890025E+03 0.18838502E+03 0.51099893E-03 0.0000E+00 0.9000E+01
       23  1    3    3    0    0 -.10941725E+03 0.66476207E+02 -.17889043E+03 0.23813495E+03 0.91188000E+02 0.0000E+00 0.9000E+01
#aMCatNLO 1  0  0  2  1 0.55396457D+02 0.00000000D+00  -5  7  0 0.00000000D+00 0.00000000D+00 0.00000000D+00 0.00000000D+00 0.00000000D+00
  <mgrwgt>
 0.2707324190D-03    9    2    0
 0.330636120530449D+03 0.000000000000000D+00 0.000000000000000D+00 0.330636120530449D+03
 0.330636120530449D+03 0.000000000000000D+00 0.000000000000000D+00 -.330636120530449D+03
 0.100944497152577D+03 0.196171996745822D+02 0.266268452219019D+02 0.279413090574328D+02
 0.117605717945097D+03 0.862485255625312D+01 -.738103091203580D+02 0.911523728672035D+02
 0.151337818876368D+03 0.811751945331596D+02 -.192927431030858D+02 0.126259705679676D+03
 0.291384207086858D+03 -.109417246763995D+03 0.664762070015420D+02 -.245353387604312D+03
 0.000000000000000D+00 0.000000000000000D+00 0.000000000000000D+00 -.000000000000000D+00
 0.359291831804732D+03 0.000000000000000D+00 0.000000000000000D+00 0.359291831804732D+03
 0.359694624850740D+03 0.000000000000000D+00 0.000000000000000D+00 -.359694624850740D+03
 0.988770525777110D+02 0.185574184368196D+02 0.183391835034506D+02 0.279413090574328D+02
 0.124059353764536D+03 0.734314840989792D+01 -.838334440935281D+02 0.911523728672035D+02
 0.152608514914030D+03 0.795631730956691D+02 -.318990130395283D+02 0.126259705679676D+03
 0.288043614088490D+03 -.112490322387461D+03 0.424442555996924D+02 -.245353387604312D+03
 0.553979213107051D+02 0.702658244507425D+01 0.549490180299133D+02 -.402793046007308D+00
0.305076949299D-05 0.000000000000D+00 0.000000000000D+00 0.511496361891D-06 0.000000000000D+00  7 2 -2 23 -11 11 23 21 0 0.65469115D-01 0.39521863D-01 0.42422026D+05 0.42422026D+05 0.42422026D+05 0.11536272D+01  1  2  2  2  7  2       -2 0.166468937035D-03 0.100000000000D+01
-.123323118420D-06 0.000000000000D+00 -.117157581391D-07 0.511496361891D-06 0.000000000000D+00  7 2 -2 23 -11 11 23 21 2 0.65469115D-01 0.39521863D-01 0.42422026D+05 0.42422026D+05 0.42422026D+05 0.11536272D+01  1  2  3  2  7  2       -2 -.895569545047D-05 0.100000000000D+01
0.188169952741D-06 0.000000000000D+00 0.000000000000D+00 0.511496361891D-06 0.000000000000D+00  7 2 -2 23 -11 11 23 21 2 0.65469115D-01 0.39521863D-01 0.42422026D+05 0.42422026D+05 0.42422026D+05 0.11536272D+01  1  2 15  2  7  2       -2 0.136648570947D-04 0.100000000000D+01
0.316198836715D-05 0.000000000000D+00 0.000000000000D+00 0.511496361891D-06 0.000000000000D+00  7 2 -2 23 -11 11 23 21 2 0.65469115D-01 0.44564136D-01 0.55464387D+05 0.55464387D+05 0.55464387D+05 0.11433543D+01  1  2 12  2  7  2       -2 0.179986534155D-03 0.100000000000D+01
-.263173023849D-05 0.000000000000D+00 0.000000000000D+00 0.511496361891D-06 0.000000000000D+00  7 2 -2 23 -11 11 23 21 2 0.65469115D-01 0.39521863D-01 0.42422026D+05 0.42422026D+05 0.42422026D+05 0.11536272D+01  1  2  4  2  7  2       -2 -.191115622324D-03 0.100000000000D+01
-.793275947444D-05 0.000000000000D+00 -.263919166285D-05 0.511496361891D-06 0.000000000000D+00  7 2 -2 23 -11 11 23 21 2 0.65469115D-01 0.46421917D-01 0.42422026D+05 0.42422026D+05 0.42422026D+05 0.11536272D+01  1  2  5  2  7  2       -2 -.426335310100D-03 0.100000000000D+01
0.828377376046D-05 0.000000000000D+00 0.260538622970D-05 0.511496361891D-06 0.000000000000D+00  7 2 -2 23 -11 11 23 21 2 0.65469115D-01 0.39521863D-01 0.42422026D+05 0.42422026D+05 0.42422026D+05 0.11536272D+01  1  2  6  2  7  2       -2 0.601565675032D-03 0.100000000000D+01
0.600265074463D-07 0.000000000000D+00 0.000000000000D+00 0.511496361891D-06 0.000000000000D+00  7 2 21 23 -11 11 23 2 2 0.65469115D-01 0.44564136D-01 0.55464387D+05 0.55464387D+05 0.55464387D+05 0.11433543D+01  1  2 12  4  7  2       -2 0.382494285016D-04 0.100000000000D+01
-.170704757221D-06 0.000000000000D+00 -.637025932583D-07 0.511496361891D-06 0.000000000000D+00  7 2 21 23 -11 11 23 2 2 0.65469115D-01 0.46421917D-01 0.42422026D+05 0.42422026D+05 0.42422026D+05 0.11536272D+01  1  2  5  4  7  2       -2 -.102796384931D-03 0.100000000000D+01
  </mgrwgt>
  </event>
  <event>
  9     66 0.55102590E-06 0.32878012E+03 0.75467711E-02 0.92479020E-01
        2 -1    0    0  501    0 0.00000000E+00 0.00000000E+00 0.24339870E+04 0.24339870E+04 0.32000000E+00 0.0000E+00 0.9000E+01
       21 -1    0    0  502  501 0.00000000E+00 0.00000000E+00 -.32829751E+03 0.32829836E+03 0.75000000E+00 0.0000E+00 0.9000E+01
       25  2    1    2    0    0 0.38571622E+03 -.16851520E+02 0.66068430E+02 0.49318735E+03 0.29967941E+03 0.0000E+00 0.0000E+00
       23  2    1    2    0    0 -.73594369E+02 -.28305061E+03 0.16761441E+04 0.17038751E+04 0.90540945E+02 0.0000E+00 0.0000E+00
       23  1    3    3    0    0 0.30005241E+03 0.87378604E+02 0.52844990E+02 0.32980951E+03 0.91188000E+02 0.0000E+00 0.9000E+01
      -13  1    4    4    0    0 -.16330393E+01 -.12644321E+02 0.16730797E+02 0.21035123E+02 0.10565837E+00 0.0000E+00 0.9000E+01
       13  1    4    4    0    0 -.71961330E+02 -.27040629E+03 0.16594133E+04 0.16828400E+04 0.10565837E+00 0.0000E+00 0.9000E+01
       23  1    3    3    0    0 0.85663809E+02 -.10423012E+03 0.13223440E+02 0.16337784E+03 0.91188000E+02 0.0000E+00 0.9000E+01
        2  1    1    2  502    0 -.31212185E+03 0.29990213E+03 0.36347701E+03 0.56522294E+03 0.32000000E+00 0.0000E+00 0.9000E+01
#aMCatNLO 2  0  0  2  2 0.43285256D+03 0.00000000D+00  -5  7  0 0.00000000D+00 0.00000000D+00 0.00000000D+00 0.00000000D+00 0.00000000D+00
  <mgrwgt>
 0.2948781451D-04    1    2    0
 0.633328055574667D+03 0.000000000000000D+00 0.000000000000000D+00 0.633328055574667D+03
 0.633328055574667D+03 0.000000000000000D+00 0.000000000000000D+00 -.633328055574667D+03
 0.446132933306379D+03 0.189988606724617D+03 0.193133356586674D+03 -.342524712575542D+03
 0.108818206352222D+02 -.446408421531605D+01 -.992366978313218D+01 0.821613720962944D-01
 0.590231459330850D+03 -.214836603188511D+03 -.133125094487205D+03 0.533381775777931D+03
 0.219409897876882D+03 0.293120806792108D+02 -.500845923163365D+02 -.190939224574485D+03
 0.000000000000000D+00 -.000000000000000D+00 0.000000000000000D+00 -.000000000000000D+00
 0.827073751784456D+03 0.000000000000000D+00 0.000000000000000D+00 0.827073751784456D+03
 0.966144767882083D+03 0.000000000000000D+00 0.000000000000000D+00 -.966144767882083D+03
 0.472551476919535D+03 0.300052408436645D+03 0.873786041387929D+02 -.342524712575542D+03
 0.127492444168076D+02 -.163294347843224D+01 -.126439700373214D+02 0.821613720962944D-01
 0.602324096818161D+03 -.719614255959305D+02 -.270406642118856D+03 0.533381775777931D+03
 0.250948691715701D+03 0.856638092621928D+02 -.104230124395047D+03 -.190939224574485D+03
 0.454645009796335D+03 -.312121848624475D+03 0.299902132412431D+03 -.139071016097627D+03
0.134286338786D-05 0.000000000000D+00 0.000000000000D+00 0.375803287939D-05 0.848563259863D-11  7 2 21 23 -13 13 23 2 2 0.37445958D+00 0.50507373D-01 0.36833359D+06 0.36833359D+06 0.36833359D+06 0.10780193D+01  1  2  1  4  7  2       -2 0.294878145051D-04 0.100000000000D+01
  </mgrwgt>
  </event>
  <event>
  8     66 0.55102590E-06 0.60592947E+02 0.75467711E-02 0.10451475E+00
        2 -1    0    0  501    0 0.00000000E+00 0.00000000E+00 0.31129783E+03 0.31129799E+03 0.32000000E+00 0.0000E+00 0.9000E+01
       -2 -1    0    0    0  501 0.00000000E+00 0.00000000E+00 -.10687299E+04 0.10687300E+04 0.32000000E+00 0.0000E+00 0.9000E+01
       25  2    1    2    0    0 0.32839102E+02 -.13816542E+03 0.21363046E+03 0.39448929E+03 0.29969274E+03 0.0000E+00 0.0000E+00
       23  2    1    2    0    0 -.32839102E+02 0.13816542E+03 -.97106256E+03 0.98553869E+03 0.90310111E+02 0.0000E+00 0.0000E+00
       23  1    3    3    0    0 -.74902132E+02 -.80055463E+02 0.19373070E+03 0.24055361E+03 0.91188000E+02 0.0000E+00 0.9000E+01
      -11  1    4    4    0    0 0.17284258E+02 0.33496505E+02 -.45641275E+03 0.45796654E+03 0.51099893E-03 0.0000E+00 0.9000E+01
       11  1    4    4    0    0 -.50123360E+02 0.10466892E+03 -.51464982E+03 0.52757214E+03 0.51099893E-03 0.0000E+00 0.9000E+01
       23  1    3    3    0    0 0.10774123E+03 -.58109958E+02 0.19899757E+02 0.15393568E+03 0.91188000E+02 0.0000E+00 0.9000E+01
#aMCatNLO 1  0  0  2  1 0.56750240D+01 0.00000000D+00  -5  7  0 0.00000000D+00 0.00000000D+00 0.00000000D+00 0.00000000D+00 0.00000000D+00
  <mgrwgt>
 0.3247254085D-03   11    2    0
 0.576795853045125D+03 0.000000000000000D+00 0.000000000000000D+00 0.576795853045125D+03
 0.576795853045125D+03 0.000000000000000D+00 0.000000000000000D+00 -.576795853045125D+03
 0.414972269458037D+03 -.749021315818310D+02 -.800554634704864D+02 0.389701843116218D+03
 0.248185709932836D+03 0.172842584959393D+02 0.334965054332538D+02 -.245306716473217D+03
 0.293216415179286D+03 -.501233604095556D+02 0.104668916302902D+03 -.269272970852667D+03
 0.197217311520089D+03 0.107741233495447D+03 -.581099582656697D+02 0.124877844209666D+03
 0.000000000000000D+00 0.000000000000000D+00 0.000000000000000D+00 -.000000000000000D+00
 0.579063733153972D+03 0.000000000000000D+00 0.000000000000000D+00 0.579063733153972D+03
 0.580364012552361D+03 0.000000000000000D+00 0.000000000000000D+00 -.580364012552361D+03
 0.415477669000653D+03 -.767534706556475D+02 -.809186029807208D+02 0.389701843116218D+03
 0.248042017776960D+03 0.161780078488197D+02 0.329807443523931D+02 -.245306716473217D+03
 0.293225867169557D+03 -.514307282129245D+02 0.104059389489875D+03 -.269272970852667D+03
 0.196860111025815D+03 0.106862708617930D+03 -.585195480286866D+02 0.124877844209666D+03
 0.582208073334770D+01 0.514348240182186D+01 0.239801716713901D+01 -.130027939838862D+01
0.374616351345D-04 0.000000000000D+00 0.000000000000D+00 0.123805212877D-05 0.000000000000D+00  7 2 -2 23 -11 11 23 21 0 0.47891990D-01 0.16442001D+00 0.50397412D+05 0.50397412D+05 0.50397412D+05 0.11469931D+01  1  2  2  2  7  2       -2 0.115430906161D-03 0.100000000000D+01
0.172047031699D-06 0.000000000000D+00 -.143862542791D-06 0.123805212877D-05 0.000000000000D+00  7 2 -2 23 -11 11 23 21 2 0.47891990D-01 0.16442001D+00 0.50397412D+05 0.50397412D+05 0.50397412D+05 0.11469931D+01  1  2  3  2  7  2       -2 0.697435676300D-06 0.100000000000D+01
0.225710361497D-05 0.000000000000D+00 0.000000000000D+00 0.123805212877D-05 0.000000000000D+00  7 2 -2 23 -11 11 23 21 2 0.47891990D-01 0.16442001D+00 0.50397412D+05 0.50397412D+05 0.50397412D+05 0.11469931D+01  1  2 15  2  7  2       -2 0.914973406189D-05 0.100000000000D+01
0.622708623408D-05 0.000000000000D+00 0.000000000000D+00 0.123805212877D-05 0.000000000000D+00  7 2 -2 23 -11 11 23 21 2 0.47891990D-01 0.16575874D+00 0.51694974D+05 0.51694974D+05 0.51694974D+05 0.11460241D+01  1  2 12  2  7  2       -2 0.246105747117D-04 0.100000000000D+01
-.221857755403D-03 0.000000000000D+00 0.000000000000D+00 0.123805212877D-05 0.000000000000D+00  7 2 -2 23 -11 11 23 21 2 0.47891990D-01 0.16442001D+00 0.50397412D+05 0.50397412D+05 0.50397412D+05 0.11469931D+01  1  2  4  2  7  2       -2 -.899355903754D-03 0.100000000000D+01
-.386586183863D-02 0.000000000000D+00 -.472922356377D-03 0.123805212877D-05 0.000000000000D+00  7 2 -2 23 -11 11 23 21 2 0.47891990D-01 0.16587104D+00 0.50397412D+05 0.50397412D+05 0.50397412D+05 0.11469931D+01  1  2  5  2  7  2       -2 -.152889341064D-01 0.100000000000D+01
0.386988601460D-02 0.000000000000D+00 0.472904101809D-03 0.123805212877D-05 0.000000000000D+00  7 2 -2 23 -11 11 23 21 2 0.47891990D-01 0.16442001D+00 0.50397412D+05 0.50397412D+05 0.50397412D+05 0.11469931D+01  1  2  6  2  7  2       -2 0.156875509164D-01 0.100000000000D+01
0.216402085603D-03 0.000000000000D+00 0.000000000000D+00 0.123805212877D-05 0.269273679064D-06  7 2 -2 23 -11 11 23 21 2 0.48080295D-01 0.16543714D+00 0.51694974D+05 0.51694974D+05 0.51694974D+05 0.11460241D+01  1  2 11  2  7  2       -2 0.856307215277D-03 0.100000000000D+01
0.760246257817D-06 0.000000000000D+00 0.000000000000D+00 0.123805212877D-05 0.000000000000D+00  7 2 21 23 -11 11 23 2 2 0.47891990D-01 0.16575874D+00 0.51694974D+05 0.51694974D+05 0.51694974D+05 0.11460241D+01  1  2 12  4  7  2       -2 0.266960995702D-04 0.100000000000D+01
-.627217868055D-05 0.000000000000D+00 -.768950809056D-06 0.123805212877D-05 0.000000000000D+00  7 2 21 23 -11 11 23 2 2 0.47891990D-01 0.16587104D+00 0.50397412D+05 0.50397412D+05 0.50397412D+05 0.11469931D+01  1  2  5  4  7  2       -2 -.220582481514D-03 0.100000000000D+01
0.373998078699D-06 0.000000000000D+00 0.000000000000D+00 0.123805212877D-05 0.308692097237D-09  7 2 21 23 -11 11 23 2 2 0.48080295D-01 0.16543714D+00 0.51694974D+05 0.51694974D+05 0.51694974D+05 0.11460241D+01  1  2 11  4  7  2       -2 0.131550182614D-04 0.100000000000D+01
  </mgrwgt>
  </event>
  <event>
  9     66 0.55102590E-06 0.22296121E+03 0.75467711E-02 0.10279972E+00
        2 -1    0    0  501    0 0.00000000E+00 0.00000000E+00 0.14499632E+04 0.14499632E+04 0.32000000E+00 0.0000E+00 0.9000E+01
       -2 -1    0    0    0  502 0.00000000E+00 0.00000000E+00 -.20512281E+03 0.20512306E+03 0.32000000E+00 0.0000E+00 0.9000E+01
       25  2    1    2    0    0 0.62599390E+02 -.11944006E+03 0.10983741E+03 0.34576243E+03 0.29883572E+03 0.0000E+00 0.0000E+00
       23  2    1    2    0    0 -.12688040E+03 0.14550408E+03 0.11972364E+04 0.12161308E+04 0.91263974E+02 0.0000E+00 0.0000E+00
       23  1    3    3    0    0 0.66269008E+02 -.10384197E+03 -.49857257E+02 0.16116989E+03 0.91188000E+02 0.0000E+00 0.9000E+01
      -13  1    4    4    0    0 0.14563073E+01 0.22691677E+02 0.33589756E+03 0.33666633E+03 0.10565837E+00 0.0000E+00 0.9000E+01
       13  1    4    4    0    0 -.12833670E+03 0.12281240E+03 0.86133881E+03 0.87946447E+03 0.10565837E+00 0.0000E+00 0.9000E+01
       23  1    3    3    0    0 -.36696184E+01 -.15598095E+02 0.15969467E+03 0.18459254E+03 0.91188000E+02 0.0000E+00 0.9000E+01
       21  1    1    2  501  502 0.64281006E+02 -.26064019E+02 -.62233425E+02 0.93193039E+02 0.75000000E+00 0.0000E+00 0.9000E+01
#aMCatNLO 2  0  0  2  1 0.69364118D+02 0.00000000D+00  -5  7  0 0.00000000D+00 0.00000000D+00 0.00000000D+00 0.00000000D+00 0.00000000D+00
  <mgrwgt>
 0.1495011556D-03    2    2    0
 0.426103621463887D+03 0.000000000000000D+00 0.000000000000000D+00 0.426103621463887D+03
 0.426103621463887D+03 0.000000000000000D+00 0.000000000000000D+00 -.426103621463887D+03
 0.380029211917426D+03 0.945329154483297D+02 -.115302132918811D+03 -.337455029015411D+03
 0.101261676321137D+03 0.909127828041487D+01 0.195958620617004D+02 0.989306723956405D+02
 0.277333739725004D+03 -.106982621887809D+03 0.114154028322556D+03 0.228992531803113D+03
 0.935826149642065D+02 0.335842815906467D+01 -.184477574654450D+02 0.953182481665789D+01
 0.000000000000000D+00 0.000000000000000D+00 -.000000000000000D+00 -.000000000000000D+00
 0.432125591873909D+03 0.000000000000000D+00 0.000000000000000D+00 0.432125591873909D+03
 0.688272201396751D+03 0.000000000000000D+00 0.000000000000000D+00 -.688272201396751D+03
 0.370629037455653D+03 0.662690079721925D+02 -.103841966641110D+03 -.337455029015411D+03
 0.101510124663455D+03 0.145648118521926D+01 0.226915431624585D+02 0.989306723956405D+02
 0.289811754592574D+03 -.128336877023602D+03 0.122812537935894D+03 0.228992531803113D+03
 0.930745599546372D+02 -.366961839350354D+01 -.155980955010525D+02 0.953182481665789D+01
 0.265372316604341D+03 0.642810062596936D+02 -.260640189561900D+02 -.256146609522842D+03
-.717702556658D-04 0.000000000000D+00 0.000000000000D+00 0.326696114361D-06 0.000000000000D+00  7 2 -2 23 -13 13 23 21 2 0.21996236D+00 0.31623220D-01 0.66456817D+05 0.66456817D+05 0.66456817D+05 0.11365823D+01  1  2 13  2  7  2       -2 -.155871395789D-02 0.100000000000D+01
0.803533974443D-04 0.000000000000D+00 0.000000000000D+00 0.326696114361D-06 0.527542117465D-09  7 2 -2 23 -13 13 23 21 2 0.22307101D+00 0.31557339D-01 0.66456817D+05 0.66456817D+05 0.66456817D+05 0.11365823D+01  1  2  1  2  7  2       -2 0.170821511348D-02 0.100000000000D+01
  </mgrwgt>
  </event>
  <event>
  8     66 0.55102590E-06 0.64428563E+03 0.75467711E-02 0.89088173E-01
        2 -1    0    0  501    0 0.00000000E+00 0.00000000E+00 0.95954309E+03 0.95954315E+03 0.32000000E+00 0.0000E+00 0.9000E+01
       -2 -1    0    0    0  501 0.00000000E+00 0.00000000E+00 -.44032571E+03 0.44032583E+03 0.32000000E+00 0.0000E+00 0.9000E+01
       25  2    1    2    0    0 -.84992252E+02 -.60345435E+03 0.33134587E+03 0.75575909E+03 0.30000148E+03 0.0000E+00 0.0000E+00
       23  2    1    2    0    0 0.84992252E+02 0.60345435E+03 0.18787151E+03 0.64410988E+03 0.90559401E+02 0.0000E+00 0.0000E+00
       23  1    3    3    0    0 -.16033223E+03 -.28849733E+03 0.17998947E+03 0.38684440E+03 0.91188000E+02 0.0000E+00 0.9000E+01
      -11  1    4    4    0    0 0.60162956E+02 0.48256579E+03 0.18607325E+03 0.52068471E+03 0.51099893E-03 0.0000E+00 0.9000E+01
       11  1    4    4    0    0 0.24829296E+02 0.12088856E+03 0.17982601E+01 0.12342517E+03 0.51099893E-03 0.0000E+00 0.9000E+01
       23  1    3    3    0    0 0.75339981E+02 -.31495702E+03 0.15135641E+03 0.36891469E+03 0.91188000E+02 0.0000E+00 0.9000E+01
#aMCatNLO 1  0  0  1  1 0.34627317D+03 0.00000000D+00  -5  7  0 0.00000000D+00 0.00000000D+00 0.00000000D+00 0.00000000D+00 0.00000000D+00
  <mgrwgt>
 0.3547643761D-03    4    2    0
 0.650008933942434D+03 0.000000000000000D+00 0.000000000000000D+00 0.650008933942434D+03
 0.650008933942434D+03 0.000000000000000D+00 0.000000000000000D+00 -.650008933942434D+03
 0.344670508977670D+03 -.160332232570085D+03 -.288497329130740D+03 0.393112540940642D+02
 0.486360940811068D+03 0.601629561559689D+02 0.482565785544712D+03 -.759250122270440D+01
 0.132186931308103D+03 0.248292957052122D+02 0.120888559946801D+03 -.473587051916018D+02
 0.336799486788026D+03 0.753399807089035D+02 -.314957016360774D+03 0.156399523202420D+02
 0.000000000000000D+00 -.000000000000000D+00 0.000000000000000D+00 -.000000000000000D+00
 0.736974702239374D+03 0.000000000000000D+00 0.000000000000000D+00 0.736974702239374D+03
 0.113884813408791D+04 0.000000000000000D+00 0.000000000000000D+00 -.113884813408791D+04
 0.314846673922783D+03 -.740080525339108D+02 -.289466077801751D+03 0.393112540940642D+02
 0.517900086967478D+03 0.191610645485321D+03 0.481090651065684D+03 -.759250122270440D+01
 0.143047563482290D+03 0.608547286984227D+02 0.120484274724281D+03 -.473587051916018D+02
 0.369550080529585D+03 0.167794049834806D+03 -.315994555976646D+03 0.156399523202420D+02
 0.530478431425144D+03 -.346251371484639D+03 0.388570798843167D+01 -.401873431848532D+03
0.578662221115D-04 0.000000000000D+00 0.000000000000D+00 0.258402364077D-05 0.000000000000D+00  7 2 -2 23 -11 11 23 21 0 0.14762203D+00 0.67742430D-01 0.41510397D+06 0.41510397D+06 0.41510397D+06 0.10742691D+01  1  2  2  1  7  1        2 0.389782224379D-03 0.100000000000D+01
-.321448439448D-05 0.000000000000D+00 -.222221529434D-06 0.258402364077D-05 0.000000000000D+00  7 2 -2 23 -11 11 23 21 2 0.14762203D+00 0.67742430D-01 0.41510397D+06 0.41510397D+06 0.41510397D+06 0.10742691D+01  1  2  3  1  7  1        2 -.249881679584D-04 0.100000000000D+01
0.359087419430D-05 0.000000000000D+00 0.000000000000D+00 0.258402364077D-05 0.000000000000D+00  7 2 -2 23 -11 11 23 21 2 0.14762203D+00 0.67742430D-01 0.41510397D+06 0.41510397D+06 0.41510397D+06 0.10742691D+01  1  2 15  1  7  1        2 0.279140778032D-04 0.100000000000D+01
-.488109487017D-05 0.000000000000D+00 0.000000000000D+00 0.258402364077D-05 0.000000000000D+00  7 2 -2 23 -11 11 23 21 2 0.14762203D+00 0.67742430D-01 0.41510397D+06 0.41510397D+06 0.41510397D+06 0.10742691D+01  1  2  4  1  7  1        2 -.379437581487D-04 0.100000000000D+01
  </mgrwgt>
  </event>
  <event>
  8     66 0.55102590E-06 0.25645662E+03 0.75467711E-02 0.98035622E-01
        2 -1    0    0  501    0 0.00000000E+00 0.00000000E+00 0.47885208E+03 0.47885219E+03 0.32000000E+00 0.0000E+00 0.9000E+01
       -2 -1    0    0    0  501 0.00000000E+00 0.00000000E+00 -.25136065E+03 0.25136085E+03 0.32000000E+00 0.0000E+00 0.9000E+01
       25  2    1    2    0    0 -.14535833E+03 0.67578108E+02 -.96544428E+02 0.35454832E+03 0.30114422E+03 0.0000E+00 0.0000E+00
       23  2    1    2    0    0 0.14535833E+03 -.67578108E+02 0.32403586E+03 0.37566472E+03 0.10212198E+03 0.0000E+00 0.0000E+00
       23  1    3    3    0    0 0.51922498E+02 0.41432263E+01 -.70871298E+02 0.12669295E+03 0.91188000E+02 0.0000E+00 0.9000E+01
      -11  1    4    4    0    0 0.15639895E+03 -.67769824E+02 0.32214799E+03 0.36446221E+03 0.51099893E-03 0.0000E+00 0.9000E+01
       11  1    4    4    0    0 -.11040621E+02 0.19171692E+00 0.18878749E+01 0.11202506E+02 0.51099893E-03 0.0000E+00 0.9000E+01
       23  1    3    3    0    0 -.19728082E+03 0.63434881E+02 -.25673130E+02 0.22785537E+03 0.91188000E+02 0.0000E+00 0.9000E+01
#aMCatNLO 1  0  0  1  2 0.20979847D+03 0.00000000D+00  -5  7  0 0.00000000D+00 0.00000000D+00 0.00000000D+00 0.00000000D+00 0.00000000D+00
  <mgrwgt>
 0.3832337739D-03    3    2    0
 0.346936136067515D+03 0.000000000000000D+00 0.000000000000000D+00 0.346936136067515D+03
 0.346936136067515D+03 0.000000000000000D+00 0.000000000000000D+00 -.346936136067515D+03
 0.156564058801891D+03 0.519224975517185D+02 0.414322628304321D+01 -.116120373270504D+03
 0.277931776065843D+03 0.156398946987141D+03 -.677698244769100D+02 0.219528340810011D+03
 0.111702700990839D+02 -.110406212389677D+02 0.191716898911263D+00 -.168607869769281D+01
 0.248206167168212D+03 -.197280823299891D+03 0.634348812949555D+02 -.101721888841814D+03
 0.000000000000000D+00 0.000000000000000D+00 0.000000000000000D+00 -.000000000000000D+00
 0.374477086066179D+03 0.000000000000000D+00 0.000000000000000D+00 0.374477086066179D+03
 0.127721591721303D+04 0.000000000000000D+00 0.000000000000000D+00 -.127721591721303D+04
 0.151070970599152D+03 0.181536375488065D+02 -.263380175608421D+02 -.116120373270504D+03
 0.268985021289498D+03 0.963643117926648D+02 -.121959701016530D+03 0.219528340810011D+03
 0.141088893343777D+02 -.138154950807467D+02 -.231300509051893D+01 -.168607869769281D+01
 0.290731060427379D+03 -.256439547273772D+03 0.100356403734240D+02 -.101721888841814D+03
 0.926797061628803D+03 0.155737093013047D+03 0.140575083294467D+03 -.902738831146851D+03
0.756491044592D-05 0.000000000000D+00 0.000000000000D+00 0.257209373171D-08 0.000000000000D+00  7 2 -2 23 -11 11 23 21 0 0.73669575D-01 0.38670893D-01 0.65769997D+05 0.65769997D+05 0.65769997D+05 0.11369681D+01  1  2  2  1  7  1        2 0.376686053208D-03 0.100000000000D+01
-.373612487254D-06 0.000000000000D+00 -.290512479990D-07 0.257209373171D-08 0.000000000000D+00  7 2 -2 23 -11 11 23 21 2 0.73669575D-01 0.38670893D-01 0.65769997D+05 0.65769997D+05 0.65769997D+05 0.11369681D+01  1  2  3  1  7  1        2 -.240488142821D-04 0.100000000000D+01
0.475335182577D-06 0.000000000000D+00 0.000000000000D+00 0.257209373171D-08 0.000000000000D+00  7 2 -2 23 -11 11 23 21 2 0.73669575D-01 0.38670893D-01 0.65769997D+05 0.65769997D+05 0.65769997D+05 0.11369681D+01  1  2 15  1  7  1        2 0.305965349595D-04 0.100000000000D+01
  </mgrwgt>
  </event>
  <event>
  8     66 0.55102590E-06 0.68714050E+03 0.75467711E-02 0.84738177E-01
        2 -1    0    0  501    0 0.00000000E+00 0.00000000E+00 0.97074333E+03 0.97074338E+03 0.32000000E+00 0.0000E+00 0.9000E+01
       -2 -1    0    0    0  501 0.00000000E+00 0.00000000E+00 -.51823378E+03 0.51823388E+03 0.32000000E+00 0.0000E+00 0.9000E+01
       25  2    1    2    0    0 -.19554164E+02 -.67131681E+03 0.28955091E+03 0.79075677E+03 0.30067909E+03 0.0000E+00 0.0000E+00
       23  2    1    2    0    0 0.19554164E+02 0.67131681E+03 0.16295864E+03 0.69822049E+03 0.99537512E+02 0.0000E+00 0.0000E+00
       23  1    3    3    0    0 -.37915620E+02 -.21244911E+03 0.21242423E+03 0.31624598E+03 0.91188000E+02 0.0000E+00 0.9000E+01
      -13  1    4    4    0    0 0.19675165E+02 0.40078285E+03 0.47457732E+02 0.40406218E+03 0.10565837E+00 0.0000E+00 0.9000E+01
       13  1    4    4    0    0 -.12100044E+00 0.27053396E+03 0.11550091E+03 0.29415831E+03 0.10565837E+00 0.0000E+00 0.9000E+01
       23  1    3    3    0    0 0.18361456E+02 -.45886770E+03 0.77126683E+02 0.47451079E+03 0.91188000E+02 0.0000E+00 0.9000E+01
#aMCatNLO 1  0  0  1  2 0.97699707D+03 0.00000000D+00  -5  7  0 0.00000000D+00 0.00000000D+00 0.00000000D+00 0.00000000D+00 0.00000000D+00
  <mgrwgt>
 0.2451534008D-03    3    2    0
 0.709275756704227D+03 0.000000000000000D+00 0.000000000000000D+00 0.709275756704227D+03
 0.709275756704227D+03 0.000000000000000D+00 0.000000000000000D+00 -.709275756704227D+03
 0.264184331420060D+03 -.379156200509082D+02 -.212449105488555D+03 0.122089692264056D+03
 0.408983770953436D+03 0.196751867955261D+02 0.400782992431262D+03 -.790797376430691D+02
 0.271917901485688D+03 -.121022520426392D+00 0.270533816369531D+03 0.274004507712254D+02
 0.473465509549271D+03 0.183614557758085D+02 -.458867703312239D+03 -.704104053922122D+02
 0.000000000000000D+00 -.000000000000000D+00 -.000000000000000D+00 -.000000000000000D+00
 0.132746325447843D+04 0.000000000000000D+00 0.000000000000000D+00 0.132746325447843D+04
 0.137303982824832D+04 0.000000000000000D+00 0.000000000000000D+00 -.137303982824832D+04
 0.228679879400363D+03 0.972274539523730D+02 -.140071999840696D+03 0.122089692264056D+03
 0.638862999896894D+03 0.306994149276901D+03 0.554659282840659D+03 -.790797376430691D+02
 0.418063138212316D+03 0.189071368936747D+03 0.371857526853832D+03 0.274004507712254D+02
 0.436837502632636D+03 0.267966001287295D+03 -.325189712827636D+03 -.704104053922122D+02
 0.978059562584546D+03 -.861258973453316D+03 -.461255097026159D+03 -.455765737698894D+02
0.528065404695D-04 0.000000000000D+00 0.000000000000D+00 0.380919585542D-07 0.000000000000D+00  7 2 -2 23 -13 13 23 21 0 0.14934514D+00 0.79728286D-01 0.47216207D+06 0.47216207D+06 0.47216207D+06 0.10702732D+01  1  2  2  1  7  1        2 0.243156754642D-03 0.100000000000D+01
-.293011103696D-05 0.000000000000D+00 -.202791019684D-06 0.380919585542D-07 0.000000000000D+00  7 2 -2 23 -13 13 23 21 2 0.14934514D+00 0.79728286D-01 0.47216207D+06 0.47216207D+06 0.47216207D+06 0.10702732D+01  1  2  3  1  7  1        2 -.154551052256D-04 0.100000000000D+01
0.330865229484D-05 0.000000000000D+00 0.000000000000D+00 0.380919585542D-07 0.000000000000D+00  7 2 -2 23 -13 13 23 21 2 0.14934514D+00 0.79728286D-01 0.47216207D+06 0.47216207D+06 0.47216207D+06 0.10702732D+01  1  2 15  1  7  1        2 0.174517513933D-04 0.100000000000D+01
  </mgrwgt>
  </event>
  <event>
  9     66 0.55102590E-06 0.17922871E+03 0.75467711E-02 0.10709137E+00
        2 -1    0    0  502    0 0.00000000E+00 0.00000000E+00 0.37230558E+03 0.37230572E+03 0.32000000E+00 0.0000E+00 0.9000E+01
       -2 -1    0    0    0  501 0.00000000E+00 0.00000000E+00 -.15027510E+03 0.15027544E+03 0.32000000E+00 0.0000E+00 0.9000E+01
       25  2    1    2    0    0 0.54540216E+02 -.91575831E+02 0.14202985E+03 0.34855677E+03 0.29993095E+03 0.0000E+00 0.0000E+00
       23  2    1    2    0    0 -.33826951E+02 0.88557555E+02 0.77913232E+02 0.15297518E+03 0.91346763E+02 0.0000E+00 0.0000E+00
       23  1    3    3    0    0 0.55830348E+02 -.11956226E+03 -.18869678E+02 0.16150380E+03 0.91188000E+02 0.0000E+00 0.9000E+01
      -13  1    4    4    0    0 -.24187684E+02 0.14831933E+02 -.16482253E+02 0.32813200E+02 0.10565837E+00 0.0000E+00 0.9000E+01
       13  1    4    4    0    0 -.96392666E+01 0.73725623E+02 0.94395485E+02 0.12016198E+03 0.10565837E+00 0.0000E+00 0.9000E+01
       23  1    3    3    0    0 -.12901320E+01 0.27986427E+02 0.16089953E+03 0.18705297E+03 0.91188000E+02 0.0000E+00 0.9000E+01
       21  1    1    2  502  501 -.20713266E+02 0.30182755E+01 0.20874022E+01 0.21049207E+02 0.75000000E+00 0.0000E+00 0.9000E+01
#aMCatNLO 2  0  0  1  2 0.20932018D+02 0.00000000D+00  -5  7  0 0.00000000D+00 0.00000000D+00 0.00000000D+00 0.00000000D+00 0.00000000D+00
  <mgrwgt>
 0.2017541980D-03    2    2    0
 0.225122849811190D+03 0.000000000000000D+00 0.000000000000000D+00 0.225122849811190D+03
 0.225122849811190D+03 0.000000000000000D+00 0.000000000000000D+00 -.225122849811190D+03
 0.185748084853797D+03 0.472169632787343D+02 -.118307156174223D+03 -.998051845324479D+02
 0.458144691828483D+02 -.262652558074614D+02 0.151346059605695D+02 -.343517921845872D+02
 0.886752510096418D+02 -.136927745501446D+02 0.743163774368931D+02 0.463991822276982D+02
 0.130007894576093D+03 -.725893292112833D+01 0.288561727767605D+02 0.877577944893370D+02
 0.000000000000000D+00 -.000000000000000D+00 0.000000000000000D+00 -.000000000000000D+00
 0.232586937221096D+03 0.000000000000000D+00 0.000000000000000D+00 0.232586937221096D+03
 0.240535414051887D+03 0.000000000000000D+00 0.000000000000000D+00 -.240535414051887D+03
 0.188913981182407D+03 0.558303561970023D+02 -.119562274190258D+03 -.998051845324479D+02
 0.445541798300626D+02 -.241877017874448D+02 0.148318709635072D+02 -.343517921845872D+02
 0.876429119468122D+02 -.963926138763406D+01 0.737257115463690D+02 0.463991822276982D+02
 0.129620931004433D+03 -.129012718829111D+01 0.279864161453628D+02 0.877577944893370D+02
 0.223903473092678D+02 -.207132658336323D+02 0.301827553501937D+01 -.794847683079099D+01
-.365678930860D-08 0.000000000000D+00 0.000000000000D+00 0.230308916368D-06 0.000000000000D+00  7 2 -2 23 -13 13 23 21 2 0.55438202D-01 0.21637312D-01 0.32122930D+05 0.32122930D+05 0.32122930D+05 0.11645909D+01  1  2  8  1  7  1        2 -.917270526522D-06 0.100000000000D+01
0.939735736955D-06 0.000000000000D+00 0.000000000000D+00 0.230308916368D-06 0.378098480056D-08  7 2 -2 23 -13 13 23 21 2 0.57276289D-01 0.23118665D-01 0.35995701D+05 0.35995701D+05 0.35995701D+05 0.11600646D+01  1  2  1  1  7  1        2 0.202671468576D-03 0.100000000000D+01
  </mgrwgt>
  </event>
  <event>
  8     66 0.55102590E-06 0.27747282E+03 0.75467711E-02 0.96908848E-01
        2 -1    0    0  501    0 0.00000000E+00 0.00000000E+00 0.18135600E+04 0.18135600E+04 0.32000000E+00 0.0000E+00 0.9000E+01
       -2 -1    0    0    0  501 0.00000000E+00 0.00000000E+00 -.14971085E+03 0.14971119E+03 0.32000000E+00 0.0000E+00 0.9000E+01
       25  2    1    2    0    0 -.28689501E+02 0.19718178E+03 0.83829246E+02 0.36816426E+03 0.29801650E+03 0.0000E+00 0.0000E+00
       23  2    1    2    0    0 0.28689501E+02 -.19718178E+03 0.15800199E+04 0.15951069E+04 0.90551621E+02 0.0000E+00 0.0000E+00
       23  1    3    3    0    0 -.45661686E+02 0.22484088E+03 0.10630016E+03 0.26879990E+03 0.91188000E+02 0.0000E+00 0.9000E+01
      -11  1    4    4    0    0 0.52200942E+02 -.12991169E+03 0.83172291E+03 0.84342456E+03 0.51099893E-03 0.0000E+00 0.9000E+01
       11  1    4    4    0    0 -.23511442E+02 -.67270090E+02 0.74829697E+03 0.75168239E+03 0.51099893E-03 0.0000E+00 0.9000E+01
       23  1    3    3    0    0 0.16972185E+02 -.27659103E+02 -.22470919E+02 0.99364353E+02 0.91188000E+02 0.0000E+00 0.9000E+01
#aMCatNLO 1  0  0  1  2 0.23393356D+03 0.00000000D+00  -5  7  0 0.00000000D+00 0.00000000D+00 0.00000000D+00 0.00000000D+00 0.00000000D+00
  <mgrwgt>
 0.3974160276D-03    4    2    0
 0.521066186711674D+03 0.000000000000000D+00 0.000000000000000D+00 0.521066186711674D+03
 0.521066186711674D+03 0.000000000000000D+00 0.000000000000000D+00 -.521066186711674D+03
 0.336674763368804D+03 -.456616855093131D+02 0.224840880442501D+03 -.228902236563406D+03
 0.261012623416699D+03 0.522009424896671D+02 -.129911686483403D+03 0.220285280718199D+03
 0.221376020169320D+03 -.235114419685269D+02 -.672700904670662D+02 0.209593151918474D+03
 0.223068966468525D+03 0.169721849881729D+02 -.276591034920312D+02 -.200976196073267D+03
 0.000000000000000D+00 0.000000000000000D+00 -.000000000000000D+00 -.000000000000000D+00
 0.574905376771766D+03 0.000000000000000D+00 0.000000000000000D+00 0.574905376771766D+03
 0.868763029569789D+03 0.000000000000000D+00 0.000000000000000D+00 -.868763029569789D+03
 0.370993345425433D+03 -.119943169647153D+03 0.250076414636045D+03 -.228902236563406D+03
 0.247032262653051D+03 -.112677947056299D+01 -.111794741640272D+03 0.220285280718199D+03
 0.227024807383296D+03 -.705785325231596D+02 -.512800602883743D+02 0.209593151918474D+03
 0.223015498272767D+03 -.298517649398177D+02 -.117516751039292D+02 -.200976196073267D+03
 0.375602492607008D+03 0.221500246580693D+03 -.752499376034702D+02 -.293857652798023D+03
0.236014382954D-04 0.000000000000D+00 0.000000000000D+00 0.947882771214D-07 0.000000000000D+00  7 2 -2 23 -11 11 23 21 0 0.27900926D+00 0.23032467D-01 0.76991168D+05 0.76991168D+05 0.76991168D+05 0.11311617D+01  1  2  2  1  7  1        2 0.425373730501D-03 0.100000000000D+01
-.678136716299D-06 0.000000000000D+00 -.906357374556D-07 0.947882771214D-07 0.000000000000D+00  7 2 -2 23 -11 11 23 21 2 0.27900926D+00 0.23032467D-01 0.76991168D+05 0.76991168D+05 0.76991168D+05 0.11311617D+01  1  2  3  1  7  1        2 -.156386358072D-04 0.100000000000D+01
0.142980871399D-05 0.000000000000D+00 0.000000000000D+00 0.947882771214D-07 0.000000000000D+00  7 2 -2 23 -11 11 23 21 2 0.27900926D+00 0.23032467D-01 0.76991168D+05 0.76991168D+05 0.76991168D+05 0.11311617D+01  1  2 15  1  7  1        2 0.329730822925D-04 0.100000000000D+01
-.196399927878D-05 0.000000000000D+00 0.000000000000D+00 0.947882771214D-07 0.000000000000D+00  7 2 -2 23 -11 11 23 21 2 0.27900926D+00 0.23032467D-01 0.76991168D+05 0.76991168D+05 0.76991168D+05 0.11311617D+01  1  2  4  1  7  1        2 -.452921493681D-04 0.100000000000D+01
  </mgrwgt>
  </event>
  <event>
  8     66 0.55102590E-06 0.21912089E+03 0.75467711E-02 0.10479830E+00
        2 -1    0    0  501    0 0.00000000E+00 0.00000000E+00 0.11031048E+04 0.11031048E+04 0.32000000E+00 0.0000E+00 0.9000E+01
       -2 -1    0    0    0  501 0.00000000E+00 0.00000000E+00 -.81700886E+02 0.81701513E+02 0.32000000E+00 0.0000E+00 0.9000E+01
       25  2    1    2    0    0 -.11924814E+02 0.94614236E+02 0.24740328E+03 0.40013832E+03 0.29968022E+03 0.0000E+00 0.0000E+00
       23  2    1    2    0    0 0.11924814E+02 -.94614236E+02 0.77400063E+03 0.78466804E+03 0.86792260E+02 0.0000E+00 0.0000E+00
       23  1    3    3    0    0 0.10153805E+03 0.96277571E+02 0.15397240E+03 0.22716095E+03 0.91188000E+02 0.0000E+00 0.9000E+01
      -13  1    4    4    0    0 0.46427174E+02 -.41255063E+02 0.47092309E+03 0.47500108E+03 0.10565837E+00 0.0000E+00 0.9000E+01
       13  1    4    4    0    0 -.34502359E+02 -.53359173E+02 0.30307754E+03 0.30966695E+03 0.10565837E+00 0.0000E+00 0.9000E+01
       23  1    3    3    0    0 -.11346287E+03 -.16633350E+01 0.93430880E+02 0.17297737E+03 0.91188000E+02 0.0000E+00 0.9000E+01
#aMCatNLO 1  0  0  1  2 0.76215264D+01 0.00000000D+00  -5  7  0 0.00000000D+00 0.00000000D+00 0.00000000D+00 0.00000000D+00 0.00000000D+00
  <mgrwgt>
 0.1239114215D-03    6    2    0
 0.300208324184465D+03 0.000000000000000D+00 0.000000000000000D+00 0.300208324184465D+03
 0.300208324184465D+03 0.000000000000000D+00 0.000000000000000D+00 -.300208324184465D+03
 0.186326826224515D+03 0.101538051516002D+03 0.962775713485370D+02 -.826019865164377D+02
 0.136208173084036D+03 0.464272930813356D+02 -.412550457685696D+02 0.121223735591111D+03
 0.954849460412885D+02 -.345024785537109D+02 -.533591909081203D+02 0.712723693992930D+02
 0.182396703019091D+03 -.113462866043626D+03 -.166333467184716D+01 -.109894118473966D+03
 0.000000000000000D+00 -.000000000000000D+00 -.000000000000000D+00 -.000000000000000D+00
 0.301388768619844D+03 0.000000000000000D+00 0.000000000000000D+00 0.301388768619844D+03
 0.312791906888376D+03 0.000000000000000D+00 0.000000000000000D+00 -.312791906888376D+03
 0.188117529694479D+03 0.103300576824367D+03 0.978716316694700D+02 -.826019865164377D+02
 0.136304963567698D+03 0.477100238599369D+02 -.400949204490054D+02 0.121223735591111D+03
 0.947134832971620D+02 -.336072065592975D+02 -.525494904425649D+02 0.712723693992930D+02
 0.181329042658016D+03 -.111750793683805D+03 -.114904925957028D+00 -.109894118473966D+03
 0.137156562908658D+02 -.565260044120203D+01 -.511231585194266D+01 -.114031382685323D+02
0.143407439737D-05 0.000000000000D+00 0.000000000000D+00 0.198963426878D-07 0.000000000000D+00  7 2 -2 23 -13 13 23 21 0 0.16970848D+00 0.12569419D-01 0.48013966D+05 0.48013966D+05 0.48013966D+05 0.11488469D+01  1  2  2  1  7  1        2 0.168198885158D-03 0.100000000000D+01
-.700680313340D-07 0.000000000000D+00 -.550722328637D-08 0.198963426878D-07 0.000000000000D+00  7 2 -2 23 -13 13 23 21 2 0.16970848D+00 0.12569419D-01 0.48013966D+05 0.48013966D+05 0.48013966D+05 0.11488469D+01  1  2  3  1  7  1        2 -.108466510798D-04 0.100000000000D+01
0.894350666106D-07 0.000000000000D+00 0.000000000000D+00 0.198963426878D-07 0.000000000000D+00  7 2 -2 23 -13 13 23 21 2 0.16970848D+00 0.12569419D-01 0.48013966D+05 0.48013966D+05 0.48013966D+05 0.11488469D+01  1  2 15  1  7  1        2 0.138447012619D-04 0.100000000000D+01
-.314873247957D-06 0.000000000000D+00 0.000000000000D+00 0.198963426878D-07 0.000000000000D+00  7 2 -2 23 -13 13 23 21 2 0.16970848D+00 0.12569419D-01 0.48013966D+05 0.48013966D+05 0.48013966D+05 0.11488469D+01  1  2  4  1  7  1        2 -.487429172754D-04 0.100000000000D+01
0.995301087141D-08 0.000000000000D+00 0.000000000000D+00 0.198963426878D-07 0.240765696812D-08  7 2 -2 23 -13 13 23 21 2 0.17037579D+00 0.13096281D-01 0.49632146D+05 0.49632146D+05 0.49632146D+05 0.11475776D+01  1  2 11  1  7  1        2 0.143341918388D-05 0.100000000000D+01
0.258829758993D-09 0.000000000000D+00 0.000000000000D+00 0.198963426878D-07 0.179612192053D-11  7 21 -2 23 -13 13 23 -2 2 0.17037579D+00 0.13096281D-01 0.49632146D+05 0.49632146D+05 0.49632146D+05 0.11475776D+01  1  2 11  3  7  1        2 0.239842085438D-07 0.100000000000D+01
  </mgrwgt>
  </event>
  <event>
  8     66 0.55102590E-06 0.21442816E+03 0.75467711E-02 0.97269690E-01
        2 -1    0    0  501    0 0.00000000E+00 0.00000000E+00 0.40028601E+03 0.40028614E+03 0.32000000E+00 0.0000E+00 0.9000E+01
       -2 -1    0    0    0  501 0.00000000E+00 0.00000000E+00 -.36793802E+03 0.36793816E+03 0.32000000E+00 0.0000E+00 0.9000E+01
       25  2    1    2    0    0 0.29594111E+03 -.10522160E+03 -.27668452E+02 0.43550982E+03 0.30041726E+03 0.0000E+00 0.0000E+00
       23  2    1    2    0    0 -.29594111E+03 0.10522160E+03 0.60016441E+02 0.33271449E+03 0.91892493E+02 0.0000E+00 0.0000E+00
       23  1    3    3    0    0 0.27599104E+03 -.14080417E+03 -.63920659E+02 0.32923847E+03 0.91188000E+02 0.0000E+00 0.9000E+01
      -13  1    4    4    0    0 -.53770605E+02 -.16316245E+02 0.13537194E+02 0.57799348E+02 0.10565837E+00 0.0000E+00 0.9000E+01
       13  1    4    4    0    0 -.24217051E+03 0.12153785E+03 0.46479247E+02 0.27491514E+03 0.10565837E+00 0.0000E+00 0.9000E+01
       23  1    3    3    0    0 0.19950068E+02 0.35582566E+02 0.36252207E+02 0.10627134E+03 0.91188000E+02 0.0000E+00 0.9000E+01
#aMCatNLO 1  0  0  1  2 0.45486768D+02 0.00000000D+00  -5  7  0 0.00000000D+00 0.00000000D+00 0.00000000D+00 0.00000000D+00 0.00000000D+00
  <mgrwgt>
 0.1412195352D-03    9    2    0
 0.383771478006556D+03 0.000000000000000D+00 0.000000000000000D+00 0.383771478006556D+03
 0.383771478006556D+03 0.000000000000000D+00 0.000000000000000D+00 -.383771478006556D+03
 0.332224665736021D+03 0.275991043294843D+03 -.140804170734975D+03 -.778531097906242D+02
 0.572798474780714D+02 -.537703558368368D+02 -.163164272123997D+02 0.111132337019220D+02
 0.273200608106017D+03 -.242170756184148D+03 0.121538032227608D+03 0.349342788810095D+02
 0.104837834693003D+03 0.199500687261424D+02 0.355825657197670D+02 0.318055972076928D+02
 0.000000000000000D+00 -.000000000000000D+00 -.000000000000000D+00 0.000000000000000D+00
 0.683338715116393D+03 0.000000000000000D+00 0.000000000000000D+00 0.683338715116393D+03
 0.386175391607963D+03 0.000000000000000D+00 0.000000000000000D+00 -.386175391607963D+03
 0.345950323102456D+03 0.295164193549476D+03 -.134845714996475D+03 -.778531097906242D+02
 0.540503564561280D+02 -.506228632824959D+02 -.153382783519761D+02 0.111132337019220D+02
 0.262112319297789D+03 -.227036557254254D+03 0.126241299727410D+03 0.349342788810095D+02
 0.106776613084504D+03 0.259327659209156D+02 0.374418134677105D+02 0.318055972076928D+02
 0.300624494783479D+03 -.434375389336416D+02 -.134991198466697D+02 0.297163323508430D+03
0.463000166123D-05 0.000000000000D+00 0.000000000000D+00 0.247937940529D-06 0.000000000000D+00  7 2 -2 23 -13 13 23 21 0 0.61582484D-01 0.56605870D-01 0.14063250D+06 0.14063250D+06 0.14063250D+06 0.11097687D+01  1  2  2  1  7  1        2 0.133483412490D-03 0.100000000000D+01
-.257055509132D-06 0.000000000000D+00 -.177804254865D-07 0.247937940529D-06 0.000000000000D+00  7 2 -2 23 -13 13 23 21 2 0.61582484D-01 0.56605870D-01 0.14063250D+06 0.14063250D+06 0.14063250D+06 0.11097687D+01  1  2  3  1  7  1        2 -.912720997371D-05 0.100000000000D+01
0.298269738742D-06 0.000000000000D+00 0.000000000000D+00 0.247937940529D-06 0.000000000000D+00  7 2 -2 23 -13 13 23 21 2 0.61582484D-01 0.56605870D-01 0.14063250D+06 0.14063250D+06 0.14063250D+06 0.11097687D+01  1  2 15  1  7  1        2 0.105905940063D-04 0.100000000000D+01
0.790415704402D-04 0.000000000000D+00 0.000000000000D+00 0.247937940529D-06 0.000000000000D+00  7 2 -2 23 -13 13 23 21 2 0.10970763D+00 0.56605870D-01 0.15886690D+06 0.15886690D+06 0.15886690D+06 0.11055890D+01  1  2 12  1  7  1        2 0.143659662080D-02 0.100000000000D+01
-.679455583111D-04 0.000000000000D+00 0.000000000000D+00 0.247937940529D-06 0.000000000000D+00  7 2 -2 23 -13 13 23 21 2 0.61582484D-01 0.56605870D-01 0.14063250D+06 0.14063250D+06 0.14063250D+06 0.11097687D+01  1  2  4  1  7  1        2 -.241252708250D-02 0.100000000000D+01
-.792195388376D-04 0.000000000000D+00 -.160101291763D-05 0.247937940529D-06 0.000000000000D+00  7 2 -2 23 -13 13 23 21 2 0.10988865D+00 0.56605870D-01 0.14063250D+06 0.14063250D+06 0.14063250D+06 0.11097687D+01  1  2  5  1  7  1        2 -.145225575755D-02 0.100000000000D+01
0.685613721015D-04 0.000000000000D+00 0.136557305112D-05 0.247937940529D-06 0.000000000000D+00  7 2 -2 23 -13 13 23 21 2 0.61582484D-01 0.56605870D-01 0.14063250D+06 0.14063250D+06 0.14063250D+06 0.11097687D+01  1  2  6  1  7  1        2 0.243439263904D-02 0.100000000000D+01
0.501789093378D-05 0.000000000000D+00 0.000000000000D+00 0.247937940529D-06 0.000000000000D+00  7 21 -2 23 -13 13 23 -2 2 0.10970763D+00 0.56605870D-01 0.15886690D+06 0.15886690D+06 0.15886690D+06 0.11055890D+01  1  2 12  3  7  1        2 0.108676804633D-03 0.100000000000D+01
-.495755717507D-05 0.000000000000D+00 -.101888444548D-06 0.247937940529D-06 0.000000000000D+00  7 21 -2 23 -13 13 23 -2 2 0.10988865D+00 0.56605870D-01 0.14063250D+06 0.14063250D+06 0.14063250D+06 0.11097687D+01  1  2  5  3  7  1        2 -.108610485775D-03 0.100000000000D+01
  </mgrwgt>
  </event>
  <event>
  9     66 0.55102590E-06 0.41722822E+03 0.75467711E-02 0.94482527E-01
        2 -1    0    0  501    0 0.00000000E+00 0.00000000E+00 0.16248161E+04 0.16248161E+04 0.32000000E+00 0.0000E+00 0.9000E+01
       -2 -1    0    0    0  502 0.00000000E+00 0.00000000E+00 -.20554328E+03 0.20554352E+03 0.32000000E+00 0.0000E+00 0.9000E+01
       25  2    1    2    0    0 0.16826762E+03 0.37898383E+03 0.54276703E+03 0.74579368E+03 0.29944856E+03 0.0000E+00 0.0000E+00
       23  2    1    2    0    0 -.12178277E+02 -.33316536E+03 0.85260169E+03 0.92014215E+03 0.92652331E+02 0.0000E+00 0.0000E+00
       23  1    3    3    0    0 0.97065041E+02 0.22344633E+02 0.11923917E+03 0.18015031E+03 0.91188000E+02 0.0000E+00 0.9000E+01
      -11  1    4    4    0    0 -.36938946E+02 -.26467334E+03 0.59139053E+03 0.64896781E+03 0.51099893E-03 0.0000E+00 0.9000E+01
       11  1    4    4    0    0 0.24760669E+02 -.68492023E+02 0.26121117E+03 0.27117434E+03 0.51099893E-03 0.0000E+00 0.9000E+01
       23  1    3    3    0    0 0.71202575E+02 0.35663920E+03 0.42352786E+03 0.56564337E+03 0.91188000E+02 0.0000E+00 0.9000E+01
       21  1    1    2  501  502 -.15608934E+03 -.45818468E+02 0.23904063E+02 0.16442378E+03 0.75000000E+00 0.0000E+00 0.9000E+01
#aMCatNLO 2  0  0  2  1 0.16267518D+03 0.00000000D+00  -5  7  0 0.00000000D+00 0.00000000D+00 0.00000000D+00 0.00000000D+00 0.00000000D+00
  <mgrwgt>
 0.2267993730D-04    2    2    0
 0.447723440471258D+03 0.000000000000000D+00 0.000000000000000D+00 0.447723440471258D+03
 0.447723440471258D+03 0.000000000000000D+00 0.000000000000000D+00 -.447723440471258D+03
 0.131288236647771D+03 0.730117480158710D+02 0.152840290598562D+02 -.579399071922417D+02
 0.305795456352627D+03 -.876854741825776D+02 -.279569476907596D+03 0.875387132924677D+02
 0.966517170441430D+02 0.811517310704807D+01 -.733781425669934D+02 0.623806585925614D+02
 0.361711470897975D+03 0.655855305965856D+01 0.337663590414733D+03 -.919794646927874D+02
 0.000000000000000D+00 -.000000000000000D+00 -.000000000000000D+00 -.000000000000000D+00
 0.483045473601566D+03 0.000000000000000D+00 0.000000000000000D+00 0.483045473601566D+03
 0.691383288870721D+03 0.000000000000000D+00 0.000000000000000D+00 -.691383288870721D+03
 0.146946211021602D+03 0.970650406336344D+02 0.223446331576617D+02 -.579399071922417D+02
 0.281210755317476D+03 -.369389462238113D+02 -.264673339861042D+03 0.875387132924677D+02
 0.958936627290649D+02 0.247606690212952D+02 -.684920232930216D+02 0.623806585925614D+02
 0.386052843253444D+03 0.712025754230516D+02 0.356639198305544D+03 -.919794646927874D+02
 0.264325290150700D+03 -.156089338854170D+03 -.458184683091416D+02 -.208337815269154D+03
-.723125532787D-05 0.000000000000D+00 0.000000000000D+00 0.223786681996D-06 0.000000000000D+00  7 2 -2 23 -11 11 23 21 2 0.23169264D+00 0.32071797D-01 0.25640084D+06 0.25640084D+06 0.25640084D+06 0.10896341D+01  1  2 13  2  7  2       -2 -.122389585604D-03 0.100000000000D+01
0.970372370801D-05 0.000000000000D+00 0.000000000000D+00 0.223786681996D-06 0.615737153785D-10  7 2 -2 23 -11 11 23 21 2 0.24997146D+00 0.31622031D-01 0.25640084D+06 0.25640084D+06 0.25640084D+06 0.10896341D+01  1  2  1  2  7  2       -2 0.145069522900D-03 0.100000000000D+01
  </mgrwgt>
  </event>
  <event>
  8     66 0.55102590E-06 0.29617565E+03 0.75467711E-02 0.84420758E-01
        2 -1    0    0  501    0 0.00000000E+00 0.00000000E+00 0.46639751E+03 0.46639762E+03 0.32000000E+00 0.0000E+00 0.9000E+01
       -2 -1    0    0    0  501 0.00000000E+00 0.00000000E+00 -.20166838E+03 0.20166863E+03 0.32000000E+00 0.0000E+00 0.9000E+01
       25  2    1    2    0    0 0.19573273E+02 -.22056955E+03 0.14756731E+03 0.40101139E+03 0.29999998E+03 0.0000E+00 0.0000E+00
       23  2    1    2    0    0 -.19573273E+02 0.22056955E+03 0.11716182E+03 0.26705485E+03 0.92506019E+02 0.0000E+00 0.0000E+00
       23  1    3    3    0    0 0.11191174E+03 -.14261473E+03 0.14534369E+03 0.24960617E+03 0.91188000E+02 0.0000E+00 0.9000E+01
      -13  1    4    4    0    0 0.34169367E+02 0.64789390E+02 0.20735344E+02 0.76126056E+02 0.10565837E+00 0.0000E+00 0.9000E+01
       13  1    4    4    0    0 -.53742640E+02 0.15578016E+03 0.96426474E+02 0.19092880E+03 0.10565837E+00 0.0000E+00 0.9000E+01
       23  1    3    3    0    0 -.92338469E+02 -.77954824E+02 0.22236246E+01 0.15140523E+03 0.91188000E+02 0.0000E+00 0.9000E+01
#aMCatNLO 1  0  0  2  1 0.13127960D+04 0.00000000D+00  -5  7  0 0.00000000D+00 0.00000000D+00 0.00000000D+00 0.00000000D+00 0.00000000D+00
  <mgrwgt>
 0.8328769079D-04    5    2    0
 0.306688359051779D+03 0.000000000000000D+00 0.000000000000000D+00 0.306688359051779D+03
 0.306688359051779D+03 0.000000000000000D+00 0.000000000000000D+00 -.306688359051779D+03
 0.209132074570153D+03 0.111911742288176D+03 -.142614726729428D+03 0.505744493586610D+02
 0.739642105522742D+02 0.341694804486155D+02 0.647892718036801D+02 -.102713829468915D+02
 0.166335401688524D+03 -.537427535913146D+02 0.155780279841465D+03 0.226204930056960D+02
 0.163945031292607D+03 -.923384691454772D+02 -.779548249157179D+02 -.629235594174654D+02
 0.000000000000000D+00 -.000000000000000D+00 -.000000000000000D+00 -.000000000000000D+00
 0.807373055277681D+03 0.000000000000000D+00 0.000000000000000D+00 0.807373055277681D+03
 0.592421247971461D+04 0.000000000000000D+00 0.000000000000000D+00 -.592421247971461D+04
 0.713125657874415D+03 0.697711243696551D+03 -.104279423024374D+03 0.505744493586610D+02
 0.256761914627846D+03 0.244240041439963D+03 0.785364988595804D+02 -.102713829468915D+02
 0.299938959203193D+03 0.242425311495951D+03 0.175161813447352D+03 0.226204930056960D+02
 0.179195323275645D+03 0.125617359846454D+03 -.636915780563329D+02 -.629235594174654D+02
 0.528256368001119D+04 -.130999395647892D+04 -.857273112262255D+02 -.511683942443693D+04
0.108307315496D-05 0.000000000000D+00 0.000000000000D+00 0.101784368932D-06 0.000000000000D+00  7 2 -2 23 -13 13 23 21 0 0.71753491D-01 0.31025932D-01 0.87720013D+05 0.87720013D+05 0.87720013D+05 0.11264216D+01  1  2  2  2  7  2       -2 0.823799860611D-04 0.100000000000D+01
-.600817276062D-07 0.000000000000D+00 -.415928609476D-08 0.101784368932D-06 0.000000000000D+00  7 2 -2 23 -13 13 23 21 2 0.71753491D-01 0.31025932D-01 0.87720013D+05 0.87720013D+05 0.87720013D+05 0.11264216D+01  1  2  3  2  7  2       -2 -.579840113108D-05 0.100000000000D+01
0.694928655033D-07 0.000000000000D+00 0.000000000000D+00 0.101784368932D-06 0.000000000000D+00  7 2 -2 23 -13 13 23 21 2 0.71753491D-01 0.31025932D-01 0.87720013D+05 0.87720013D+05 0.87720013D+05 0.11264216D+01  1  2 15  2  7  2       -2 0.670665651589D-05 0.100000000000D+01
-.536271153269D-07 0.000000000000D+00 -.170034419074D-05 0.101784368932D-06 0.000000000000D+00  7 2 -2 23 -13 13 23 21 2 0.71753491D-01 0.72691400D+00 0.87720013D+05 0.87720013D+05 0.87720013D+05 0.11264216D+01  1  2  5  2  7  2       -2 -.492305036804D-10 0.100000000000D+01
-.479690836867D-06 0.000000000000D+00 -.559511688467D-06 0.101784368932D-06 0.000000000000D+00  7 2 21 23 -13 13 23 2 2 0.71753491D-01 0.72691400D+00 0.87720013D+05 0.87720013D+05 0.87720013D+05 0.11264216D+01  1  2  5  4  7  2       -2 -.501427309635D-09 0.100000000000D+01
  </mgrwgt>
  </event>
  <event>
  9     66 0.55102590E-06 0.21279235E+03 0.75467711E-02 0.98534472E-01
        2 -1    0    0  501    0 0.00000000E+00 0.00000000E+00 0.18798758E+04 0.18798758E+04 0.32000000E+00 0.0000E+00 0.9000E+01
       -2 -1    0    0    0  502 0.00000000E+00 0.00000000E+00 -.99777399E+02 0.99777912E+02 0.32000000E+00 0.0000E+00 0.9000E+01
       25  2    1    2    0    0 0.28460646E+02 -.79779411E+02 0.12241575E+04 0.12607758E+04 0.28951575E+03 0.0000E+00 0.0000E+00
       23  2    1    2    0    0 -.11863137E+03 -.12564187E+03 0.12456821E+03 0.23265612E+03 0.93553982E+02 0.0000E+00 0.0000E+00
       23  1    3    3    0    0 -.95114081E+02 -.19155228E+02 0.64170776E+03 0.65537601E+03 0.91188000E+02 0.0000E+00 0.9000E+01
      -11  1    4    4    0    0 -.12340324E+02 0.15042076E+02 0.67554014E+01 0.20595706E+02 0.51099893E-03 0.0000E+00 0.9000E+01
       11  1    4    4    0    0 -.10629105E+03 -.14068395E+03 0.11781281E+03 0.21206041E+03 0.51099893E-03 0.0000E+00 0.9000E+01
       23  1    3    3    0    0 0.12357473E+03 -.60624183E+02 0.58244970E+03 0.60539979E+03 0.91188000E+02 0.0000E+00 0.9000E+01
       21  1    1    2  501  502 0.90170725E+02 0.20542128E+03 0.43137269E+03 0.48622179E+03 0.75000000E+00 0.0000E+00 0.9000E+01
#aMCatNLO 2  0  0  2  2 0.22434051D+03 0.00000000D+00  -5  7  0 0.00000000D+00 0.00000000D+00 0.00000000D+00 0.00000000D+00 0.00000000D+00
  <mgrwgt>
 0.2147230148D-03    1    2    0
 0.300395278082896D+03 0.000000000000000D+00 0.000000000000000D+00 0.300395278082896D+03
 0.300395278082896D+03 0.000000000000000D+00 0.000000000000000D+00 -.300395278082896D+03
 0.167712892453986D+03 -.701166953463864D+02 0.377922463666007D+02 0.116050670396817D+03
 0.393220696296348D+02 -.703530126738524D+01 0.271276464950258D+02 -.275829746705445D+02
 0.198599670763890D+03 -.740108114737261D+02 -.671451429446105D+02 -.171626800912544D+03
 0.195155923318281D+03 0.151162808087498D+03 0.222525008298407D+01 0.831591051862717D+02
 0.000000000000000D+00 0.000000000000000D+00 0.000000000000000D+00 -.000000000000000D+00
 0.424178005061186D+03 0.000000000000000D+00 0.000000000000000D+00 0.424178005061186D+03
 0.442194328231426D+03 0.000000000000000D+00 0.000000000000000D+00 -.442194328231426D+03
 0.176625651264154D+03 -.951140813243978D+02 -.191552283920548D+02 0.116050670396817D+03
 0.337545278609686D+02 -.123403243232058D+02 0.150420761545442D+02 -.275829746705445D+02
 0.246059989405722D+03 -.106291046599567D+03 -.140683947227958D+03 -.171626800912544D+03
 0.184869394154026D+03 0.123574727358297D+03 -.606241827476286D+02 0.831591051862717D+02
 0.225062770607741D+03 0.901707248888741D+02 0.205421282213098D+03 -.180163231702405D+02
0.545009043702D-05 0.000000000000D+00 0.000000000000D+00 0.290462701530D-09 0.432591460321D-13  7 2 -2 23 -11 11 23 21 2 0.28921128D+00 0.15350389D-01 0.12901720D+06 0.12901720D+06 0.12901720D+06 0.11127537D+01  1  2  1  2  7  2       -2 0.214723014846D-03 0.100000000000D+01
  </mgrwgt>
  </event>
  <event>
  8     66 0.55102590E-06 0.21510302E+03 0.75467711E-02 0.98899158E-01
        2 -1    0    0  501    0 0.00000000E+00 0.00000000E+00 0.42252706E+03 0.42252718E+03 0.32000000E+00 0.0000E+00 0.9000E+01
       -2 -1    0    0    0  501 0.00000000E+00 0.00000000E+00 -.29058356E+03 0.29058374E+03 0.32000000E+00 0.0000E+00 0.9000E+01
       25  2    1    2    0    0 0.25796032E+02 -.13308451E+03 -.17026688E+03 0.37041993E+03 0.29973854E+03 0.0000E+00 0.0000E+00
       23  2    1    2    0    0 -.25796032E+02 0.13308451E+03 0.30221037E+03 0.34269098E+03 0.87915172E+02 0.0000E+00 0.0000E+00
       23  1    3    3    0    0 0.20488973E+02 -.15332159E+03 -.20326121E+03 0.27121519E+03 0.91188000E+02 0.0000E+00 0.9000E+01
      -11  1    4    4    0    0 -.47861051E+02 0.12454880E+03 0.28033652E+03 0.31047004E+03 0.51099893E-03 0.0000E+00 0.9000E+01
       11  1    4    4    0    0 0.22065019E+02 0.85357084E+01 0.21873855E+02 0.32220939E+02 0.51099893E-03 0.0000E+00 0.9000E+01
       23  1    3    3    0    0 0.53070585E+01 0.20237080E+02 0.32994328E+02 0.99204744E+02 0.91188000E+02 0.0000E+00 0.9000E+01
#aMCatNLO 1  0  0  1  2 0.23377014D+03 0.00000000D+00  -5  7  0 0.00000000D+00 0.00000000D+00 0.00000000D+00 0.00000000D+00 0.00000000D+00
  <mgrwgt>
 0.3360339756D-03    3    2    0
 0.350399092316290D+03 0.000000000000000D+00 0.000000000000000D+00 0.350399092316290D+03
 0.350399092316290D+03 0.000000000000000D+00 0.000000000000000D+00 -.350399092316290D+03
 0.314249539314335D+03 0.204889730961637D+02 -.153321592328371D+03 -.257895740411953D+03
 0.263144230148199D+03 -.478610506620245D+02 0.124548804271136D+03 0.226807850491216D+03
 0.286687254961411D+02 0.220650191131459D+02 0.853570836896997D+01 0.161917397381966D+02
 0.947356896739055D+02 0.530705845271495D+01 0.202370796882648D+02 0.148961501825406D+02
 0.000000000000000D+00 -.000000000000000D+00 0.000000000000000D+00 -.000000000000000D+00
 0.428602066730955D+03 0.000000000000000D+00 0.000000000000000D+00 0.428602066730955D+03
 0.600073438544541D+03 0.000000000000000D+00 0.000000000000000D+00 -.600073438544541D+03
 0.369408826403575D+03 0.105481843836257D+03 -.224746518057880D+03 -.257895740411953D+03
 0.238446867028260D+03 0.144970940261235D+02 0.721452813144757D+02 0.226807850491216D+03
 0.340247347852459D+02 0.298591125275513D+02 0.198583496893959D+01 0.161917397381966D+02
 0.968797306434302D+02 0.291288171958235D+02 0.218137697519843D+00 0.148961501825406D+02
 0.289915346414985D+03 -.178966867585755D+03 0.150397264076945D+03 -.171471371813586D+03
0.747310952094D-05 0.000000000000D+00 0.000000000000D+00 0.904834336318D-07 0.000000000000D+00  7 2 -2 23 -11 11 23 21 0 0.65004186D-01 0.44705186D-01 0.46269309D+05 0.46269309D+05 0.46269309D+05 0.11502694D+01  1  2  2  1  7  1        2 0.326442592842D-03 0.100000000000D+01
-.294981981268D-06 0.000000000000D+00 -.286987082753D-07 0.904834336318D-07 0.000000000000D+00  7 2 -2 23 -11 11 23 21 2 0.65004186D-01 0.44705186D-01 0.46269309D+05 0.46269309D+05 0.46269309D+05 0.11502694D+01  1  2  3  1  7  1        2 -.170490473655D-04 0.100000000000D+01
0.460931728670D-06 0.000000000000D+00 0.000000000000D+00 0.904834336318D-07 0.000000000000D+00  7 2 -2 23 -11 11 23 21 2 0.65004186D-01 0.44705186D-01 0.46269309D+05 0.46269309D+05 0.46269309D+05 0.11502694D+01  1  2 15  1  7  1        2 0.266404301733D-04 0.100000000000D+01
  </mgrwgt>
  </event>
  <event>
  7     66 0.55102590E-06 0.18573161E+03 0.75467711E-02 0.95943047E-01
        2 -1    0    0  501    0 0.00000000E+00 0.00000000E+00 0.16656856E+04 0.16656856E+04 0.32000000E+00 0.0000E+00 0.9000E+01
       -2 -1    0    0    0  501 0.00000000E+00 0.00000000E+00 -.11242110E+03 0.11242156E+03 0.32000000E+00 0.0000E+00 0.9000E+01
       25  2    1    2    0    0 -.48442826E+02 0.18611709E+03 0.12805804E+04 0.13292661E+04 0.30012675E+03 0.0000E+00 0.0000E+00
       23  1    3    3    0    0 -.57787245E+02 0.20684662E+03 0.11124217E+04 0.11366275E+04 0.91188000E+02 0.0000E+00 0.9000E+01
      -11  1    1    2    0    0 -.60312085E+02 -.15588806E+03 0.15365894E+02 0.16785334E+03 0.51099893E-03 0.0000E+00 0.9000E+01
       11  1    1    2    0    0 0.10875491E+03 -.30229027E+02 0.25731824E+03 0.28098773E+03 0.51099893E-03 0.0000E+00 0.9000E+01
       23  1    3    3    0    0 0.93444188E+01 -.20729536E+02 0.16815868E+03 0.19263859E+03 0.91188000E+02 0.0000E+00 0.9000E+01
#aMCatNLO 1  0  0  1  2 0.24712293D+03 0.00000000D+00  -5  7  0 0.00000000D+00 0.00000000D+00 0.00000000D+00 0.00000000D+00 0.00000000D+00
  <mgrwgt>
 0.1575118937D-02    9    2    0
 0.432733916922789D+03 0.000000000000000D+00 0.000000000000000D+00 0.432733916922789D+03
 0.432733916922789D+03 0.000000000000000D+00 0.000000000000000D+00 -.432733916922789D+03
 0.338730690137307D+03 -.577872528345531D+02 0.206846652270257D+03 0.245557172469710D+03
 0.317278043980285D+03 -.603120351917865D+02 -.155888079013535D+03 -.269678924694627D+03
 0.115478547388511D+03 0.108754871368228D+03 -.302290455208015D+02 0.243696054039078D+02
 0.939805523394763D+02 0.934441665811214D+01 -.207295277359205D+02 -.247853178991463D+00
 0.000000000000000D+00 -.000000000000000D+00 0.000000000000000D+00 0.000000000000000D+00
 0.670294186810260D+03 0.000000000000000D+00 0.000000000000000D+00 0.670294186810260D+03
 0.519342853903500D+03 0.000000000000000D+00 0.000000000000000D+00 -.519342853903500D+03
 0.291085263738856D+03 -.283783505949003D+02 0.123740549894178D+03 0.245557172469710D+03
 0.366175567520085D+03 -.283985526541497D+02 -.246071831039954D+03 -.269678924694627D+03
 0.138590378150921D+03 0.120618477152326D+03 -.637542015707735D+02 0.243696054039078D+02
 0.104206741823891D+03 0.185986610501775D+02 -.468809350748609D+02 -.247853178991463D+00
 0.289579089480007D+03 -.824402349534535D+02 0.232966417791410D+03 0.150951332906760D+03
0.473067163632D-04 0.000000000000D+00 0.000000000000D+00 0.205163103918D-09 0.000000000000D+00  7 2 -2 23 -11 11 23 21 0 0.25625936D+00 0.17295591D-01 0.92212674D+05 0.92212674D+05 0.92212674D+05 0.11246229D+01  1  2  2  1  7  1        2 0.163057807391D-02 0.100000000000D+01
-.222726520220D-05 0.000000000000D+00 -.181670246979D-06 0.205163103918D-09 0.000000000000D+00  7 2 -2 23 -11 11 23 21 2 0.25625936D+00 0.17295591D-01 0.92212674D+05 0.92212674D+05 0.92212674D+05 0.11246229D+01  1  2  3  1  7  1        2 -.970967195664D-04 0.100000000000D+01
0.290477790554D-05 0.000000000000D+00 0.000000000000D+00 0.205163103918D-09 0.000000000000D+00  7 2 -2 23 -11 11 23 21 2 0.25625936D+00 0.17295591D-01 0.92212674D+05 0.92212674D+05 0.92212674D+05 0.11246229D+01  1  2 15  1  7  1        2 0.126632609991D-03 0.100000000000D+01
0.160733727947D-05 0.000000000000D+00 0.000000000000D+00 0.205163103918D-09 0.000000000000D+00  7 2 -2 23 -11 11 23 21 2 0.41119350D+00 0.17295591D-01 0.19881515D+06 0.19881515D+06 0.19881515D+06 0.10980236D+01  1  2 12  1  7  1        2 0.180054596404D-04 0.100000000000D+01
-.238196284583D-04 0.000000000000D+00 0.000000000000D+00 0.205163103918D-09 0.000000000000D+00  7 2 -2 23 -11 11 23 21 2 0.25625936D+00 0.17295591D-01 0.92212674D+05 0.92212674D+05 0.92212674D+05 0.11246229D+01  1  2  4  1  7  1        2 -.103840700349D-02 0.100000000000D+01
-.218743260003D-04 0.000000000000D+00 -.139028212130D-04 0.205163103918D-09 0.000000000000D+00  7 2 -2 23 -11 11 23 21 2 0.42330011D+00 0.17295591D-01 0.92212674D+05 0.92212674D+05 0.92212674D+05 0.11246229D+01  1  2  5  1  7  1        2 -.239710199572D-03 0.100000000000D+01
0.269679174094D-04 0.000000000000D+00 0.123184957508D-04 0.205163103918D-09 0.000000000000D+00  7 2 -2 23 -11 11 23 21 2 0.25625936D+00 0.17295591D-01 0.92212674D+05 0.92212674D+05 0.92212674D+05 0.11246229D+01  1  2  6  1  7  1        2 0.117565537835D-02 0.100000000000D+01
0.867559688883D-07 0.000000000000D+00 0.000000000000D+00 0.205163103918D-09 0.000000000000D+00  7 21 -2 23 -11 11 23 -2 2 0.41119350D+00 0.17295591D-01 0.19881515D+06 0.19881515D+06 0.19881515D+06 0.10980236D+01  1  2 12  3  7  1        2 0.964849847570D-07 0.100000000000D+01
-.607281120568D-06 0.000000000000D+00 -.786227680100D-06 0.205163103918D-09 0.000000000000D+00  7 21 -2 23 -11 11 23 -2 2 0.42330011D+00 0.17295591D-01 0.92212674D+05 0.92212674D+05 0.92212674D+05 0.11246229D+01  1  2  5  3  7  1        2 -.635147073278D-06 0.100000000000D+01
  </mgrwgt>
  </event>
  <event>
  8     66 0.55102590E-06 0.40087510E+03 0.75467711E-02 0.91366367E-01
        2 -1    0    0  501    0 0.00000000E+00 0.00000000E+00 0.10128912E+04 0.10128913E+04 0.32000000E+00 0.0000E+00 0.9000E+01
       -2 -1    0    0    0  501 0.00000000E+00 0.00000000E+00 -.17562764E+03 0.17562793E+03 0.32000000E+00 0.0000E+00 0.9000E+01
       25  2    1    2    0    0 0.63398542E+02 -.34760692E+03 0.57942504E+03 0.74191362E+03 0.29975407E+03 0.0000E+00 0.0000E+00
       23  2    1    2    0    0 -.63398542E+02 0.34760692E+03 0.25783857E+03 0.44660561E+03 0.90143779E+02 0.0000E+00 0.0000E+00
       23  1    3    3    0    0 -.20441616E+02 -.28166064E+03 0.49786978E+03 0.57960344E+03 0.91188000E+02 0.0000E+00 0.9000E+01
      -13  1    4    4    0    0 -.40842865E+02 0.43325117E+02 0.42244151E+02 0.73005375E+02 0.10565837E+00 0.0000E+00 0.9000E+01
       13  1    4    4    0    0 -.22555677E+02 0.30428180E+03 0.21559442E+03 0.37360024E+03 0.10565837E+00 0.0000E+00 0.9000E+01
       23  1    3    3    0    0 0.83840158E+02 -.65946274E+02 0.81555258E+02 0.16231018E+03 0.91188000E+02 0.0000E+00 0.9000E+01
#aMCatNLO 1  0  0  2  1 0.43925688D+03 0.00000000D+00  -5  7  0 0.00000000D+00 0.00000000D+00 0.00000000D+00 0.00000000D+00 0.00000000D+00
  <mgrwgt>
 0.1942500034D-03    3    2    0
 0.421772335349791D+03 0.000000000000000D+00 0.000000000000000D+00 0.421772335349791D+03
 0.421772335349791D+03 0.000000000000000D+00 0.000000000000000D+00 -.421772335349791D+03
 0.322474426833516D+03 -.204416156227985D+02 -.281660642552477D+03 0.126190044794587D+03
 0.609315818785807D+02 -.408428902569282D+02 0.433247586587202D+02 -.129414555924111D+02
 0.312398387859684D+03 -.225556520939299D+02 0.304282157881311D+03 -.670549304006796D+02
 0.147740274127803D+03 0.838401579736567D+02 -.659462739875538D+02 -.461936588014961D+02
 0.000000000000000D+00 0.000000000000000D+00 -.000000000000000D+00 0.000000000000000D+00
 0.741583772467790D+03 0.000000000000000D+00 0.000000000000000D+00 0.741583772467790D+03
 0.656833749016393D+03 0.000000000000000D+00 0.000000000000000D+00 -.656833749016393D+03
 0.304816349767191D+03 -.156380752968077D+03 -.210282877185167D+03 0.126190044794587D+03
 0.980157356241674D+02 -.752880981743138D+02 0.614109552961947D+02 -.129414555924111D+02
 0.436274346587772D+03 -.184799270956352D+03 0.389471656547108D+03 -.670549304006796D+02
 0.111953093705848D+03 0.275624416187297D+02 -.363964496188212D+02 -.461936588014961D+02
 0.447357995799205D+03 0.388905680480012D+03 -.204203285039314D+03 0.847500234513974D+02
0.513728931784D-05 0.000000000000D+00 0.000000000000D+00 0.298169689493D-06 0.000000000000D+00  7 2 -2 23 -13 13 23 21 0 0.15582945D+00 0.27019663D-01 0.16070085D+06 0.16070085D+06 0.16070085D+06 0.11051980D+01  1  2  2  2  7  2       -2 0.192018862925D-03 0.100000000000D+01
-.284508896276D-06 0.000000000000D+00 -.197285436598D-07 0.298169689493D-06 0.000000000000D+00  7 2 -2 23 -13 13 23 21 2 0.15582945D+00 0.27019663D-01 0.16070085D+06 0.16070085D+06 0.16070085D+06 0.11051980D+01  1  2  3  2  7  2       -2 -.129893035764D-04 0.100000000000D+01
0.333378283379D-06 0.000000000000D+00 0.000000000000D+00 0.298169689493D-06 0.000000000000D+00  7 2 -2 23 -13 13 23 21 2 0.15582945D+00 0.27019663D-01 0.16070085D+06 0.16070085D+06 0.16070085D+06 0.11051980D+01  1  2 15  2  7  2       -2 0.152204440187D-04 0.100000000000D+01
  </mgrwgt>
  </event>
  <event>
  8     66 0.55102590E-06 0.17718285E+03 0.75467711E-02 0.99006350E-01
        2 -1    0    0  501    0 0.00000000E+00 0.00000000E+00 0.14378600E+04 0.14378601E+04 0.32000000E+00 0.0000E+00 0.9000E+01
       -2 -1    0    0    0  501 0.00000000E+00 0.00000000E+00 -.13551558E+03 0.13551596E+03 0.32000000E+00 0.0000E+00 0.9000E+01
       25  2    1    2    0    0 -.20108609E+03 0.22123552E+02 0.13000787E+04 0.13516003E+04 0.30934413E+03 0.0000E+00 0.0000E+00
       23  2    1    2    0    0 0.20108609E+03 -.22123552E+02 0.22657740E+01 0.22177570E+03 0.90852970E+02 0.0000E+00 0.0000E+00
       23  1    3    3    0    0 -.16328497E+03 -.71712864E+02 0.47728840E+03 0.51761393E+03 0.91188000E+02 0.0000E+00 0.9000E+01
      -11  1    4    4    0    0 0.91705137E+02 -.12718656E+02 0.46269118E+02 0.10350086E+03 0.51099893E-03 0.0000E+00 0.9000E+01
       11  1    4    4    0    0 0.10938095E+03 -.94048955E+01 -.44003344E+02 0.11827484E+03 0.51099893E-03 0.0000E+00 0.9000E+01
       23  1    3    3    0    0 -.37801114E+02 0.93836416E+02 0.82279027E+03 0.83398637E+03 0.91188000E+02 0.0000E+00 0.9000E+01
#aMCatNLO 1  0  0  2  1 0.12768985D+03 0.00000000D+00  -5  7  0 0.00000000D+00 0.00000000D+00 0.00000000D+00 0.00000000D+00 0.00000000D+00
  <mgrwgt>
 0.1661995103D-03    9    2    0
 0.441421293242947D+03 0.000000000000000D+00 0.000000000000000D+00 0.441421293242947D+03
 0.441421293242947D+03 0.000000000000000D+00 0.000000000000000D+00 -.441421293242947D+03
 0.218393921175536D+03 -.163284974692682D+03 -.717128641411887D+02 0.870398507506990D+02
 0.116201280694298D+03 0.917051374551237D+02 -.127186561492567D+02 -.702220847389835D+02
 0.275698428197066D+03 0.109380951171688D+03 -.940489552730755D+01 -.252897170350381D+03
 0.272548956418994D+03 -.378011139341297D+02 0.938364158177530D+02 0.236079404338666D+03
 0.000000000000000D+00 -.000000000000000D+00 0.000000000000000D+00 -.000000000000000D+00
 0.478114282023690D+03 0.000000000000000D+00 0.000000000000000D+00 0.478114282023690D+03
 0.572998985200131D+03 0.000000000000000D+00 0.000000000000000D+00 -.572998985200131D+03
 0.201946715814814D+03 -.134824856972631D+03 -.819362374532476D+02 0.870398507506990D+02
 0.130515126061075D+03 0.108409632242972D+03 -.187192035779552D+02 -.702220847389835D+02
 0.293915904127461D+03 0.147947983541096D+03 -.232588497986536D+02 -.252897170350381D+03
 0.265651250597094D+03 -.136104628255646D+01 0.807465045677989D+02 0.236079404338666D+03
 0.159084270623377D+03 -.120171712528880D+03 0.431677862620576D+02 -.948847031764410D+02
0.530752834517D-05 0.000000000000D+00 0.000000000000D+00 0.507352377537D-08 0.000000000000D+00  7 2 -2 23 -11 11 23 21 0 0.22120927D+00 0.20848582D-01 0.72593471D+05 0.72593471D+05 0.72593471D+05 0.11333189D+01  1  2  2  2  7  2       -2 0.179411314272D-03 0.100000000000D+01
-.207485012490D-06 0.000000000000D+00 -.203823063498D-07 0.507352377537D-08 0.000000000000D+00  7 2 -2 23 -11 11 23 21 2 0.22120927D+00 0.20848582D-01 0.72593471D+05 0.72593471D+05 0.72593471D+05 0.11333189D+01  1  2  3  2  7  2       -2 -.900841811402D-05 0.100000000000D+01
0.320952299367D-06 0.000000000000D+00 0.000000000000D+00 0.507352377537D-08 0.000000000000D+00  7 2 -2 23 -11 11 23 21 2 0.22120927D+00 0.20848582D-01 0.72593471D+05 0.72593471D+05 0.72593471D+05 0.11333189D+01  1  2 15  2  7  2       -2 0.139348499087D-04 0.100000000000D+01
0.386250047614D-05 0.000000000000D+00 0.000000000000D+00 0.507352377537D-08 0.000000000000D+00  7 2 -2 23 -11 11 23 21 2 0.22120927D+00 0.27734655D-01 0.11954413D+06 0.11954413D+06 0.11954413D+06 0.11154149D+01  1  2 12  2  7  2       -2 0.988500927442D-04 0.100000000000D+01
-.574326574411D-05 0.000000000000D+00 0.000000000000D+00 0.507352377537D-08 0.000000000000D+00  7 2 -2 23 -11 11 23 21 2 0.22120927D+00 0.20848582D-01 0.72593471D+05 0.72593471D+05 0.72593471D+05 0.11333189D+01  1  2  4  2  7  2       -2 -.249356512752D-03 0.100000000000D+01
-.650680401491D-05 0.000000000000D+00 -.252992649166D-05 0.507352377537D-08 0.000000000000D+00  7 2 -2 23 -11 11 23 21 2 0.22120927D+00 0.29248298D-01 0.72593471D+05 0.72593471D+05 0.72593471D+05 0.11333189D+01  1  2  5  2  7  2       -2 -.159067814325D-03 0.100000000000D+01
0.709137808361D-05 0.000000000000D+00 0.239156830903D-05 0.507352377537D-08 0.000000000000D+00  7 2 -2 23 -11 11 23 21 2 0.22120927D+00 0.20848582D-01 0.72593471D+05 0.72593471D+05 0.72593471D+05 0.11333189D+01  1  2  6  2  7  2       -2 0.307887774713D-03 0.100000000000D+01
0.144008387691D-06 0.000000000000D+00 0.000000000000D+00 0.507352377537D-08 0.000000000000D+00  7 2 21 23 -11 11 23 2 2 0.22120927D+00 0.27734655D-01 0.11954413D+06 0.11954413D+06 0.11954413D+06 0.11154149D+01  1  2 12  4  7  2       -2 0.441987356264D-04 0.100000000000D+01
-.206283813338D-06 0.000000000000D+00 -.106696522191D-06 0.507352377537D-08 0.000000000000D+00  7 2 21 23 -11 11 23 2 2 0.22120927D+00 0.29248298D-01 0.72593471D+05 0.72593471D+05 0.72593471D+05 0.11333189D+01  1  2  5  4  7  2       -2 -.606505117372D-04 0.100000000000D+01
  </mgrwgt>
  </event>
  <event>
  8     66 0.55102590E-06 0.53674268E+03 0.75467711E-02 0.86880480E-01
        2 -1    0    0  501    0 0.00000000E+00 0.00000000E+00 0.12469642E+04 0.12469642E+04 0.32000000E+00 0.0000E+00 0.9000E+01
       -2 -1    0    0    0  501 0.00000000E+00 0.00000000E+00 -.40970362E+03 0.40970374E+03 0.32000000E+00 0.0000E+00 0.9000E+01
       25  2    1    2    0    0 -.43236790E+03 0.26041651E+03 -.93913495E+02 0.59356869E+03 0.29790146E+03 0.0000E+00 0.0000E+00
       23  2    1    2    0    0 0.43236790E+03 -.26041651E+03 0.93117407E+03 0.10630993E+04 0.91302751E+02 0.0000E+00 0.0000E+00
       23  1    3    3    0    0 -.27605111E+03 0.24291743E+03 -.14349326E+03 0.40511561E+03 0.91188000E+02 0.0000E+00 0.9000E+01
      -13  1    4    4    0    0 0.78605019E+02 -.96544291E+01 0.13605310E+03 0.15742431E+03 0.10565837E+00 0.0000E+00 0.9000E+01
       13  1    4    4    0    0 0.35376288E+03 -.25076208E+03 0.79512097E+03 0.90567498E+03 0.10565837E+00 0.0000E+00 0.9000E+01
       23  1    3    3    0    0 -.15631680E+03 0.17499081E+02 0.49579766E+02 0.18845308E+03 0.91188000E+02 0.0000E+00 0.9000E+01
#aMCatNLO 1  0  0  1  2 0.77864825D+03 0.00000000D+00  -5  7  0 0.00000000D+00 0.00000000D+00 0.00000000D+00 0.00000000D+00 0.00000000D+00
  <mgrwgt>
 0.3576298277D-03    5    2    0
 0.714762813752907D+03 0.000000000000000D+00 0.000000000000000D+00 0.714762813752907D+03
 0.714762813752907D+03 0.000000000000000D+00 0.000000000000000D+00 -.714762813752907D+03
 0.553528590409873D+03 -.276051105520968D+03 0.242917425274660D+03 -.403566054934904D+03
 0.102752267871530D+03 0.786046501137199D+02 -.965410621464620D+01 0.654685861038607D+02
 0.583886149736194D+03 0.353763251835911D+03 -.250762399883212D+03 0.391015110077669D+03
 0.189358619488217D+03 -.156316796428662D+03 0.174990808231973D+02 -.529176412466258D+02
 0.000000000000000D+00 -.000000000000000D+00 -.000000000000000D+00 0.000000000000000D+00
 0.310119179324535D+04 0.000000000000000D+00 0.000000000000000D+00 0.310119179324535D+04
 0.880183972133120D+03 0.000000000000000D+00 0.000000000000000D+00 -.880183972133120D+03
 0.717644351993693D+03 -.189551015296471D+03 0.554890094080623D+03 -.403566054934904D+03
 0.123378614467470D+03 0.939922823330491D+02 0.458431849166090D+02 0.654685861038607D+02
 0.584746589051547D+03 0.433285741634429D+03 0.360447387931928D+02 0.391015110077669D+03
 0.202062320608259D+03 -.129681595580158D+03 0.113562040657398D+03 -.529176412466258D+02
 0.235354388925750D+04 -.208045413090849D+03 -.750340058447822D+03 0.222100782111223D+04
0.659307192921D-04 0.000000000000D+00 0.000000000000D+00 0.268795921645D-06 0.000000000000D+00  7 2 -2 23 -13 13 23 21 0 0.19184066D+00 0.63031339D-01 0.28809270D+06 0.28809270D+06 0.28809270D+06 0.10858556D+01  1  2  2  1  7  1        2 0.352831492362D-03 0.100000000000D+01
-.329744195168D-05 0.000000000000D+00 -.253191322039D-06 0.268795921645D-06 0.000000000000D+00  7 2 -2 23 -13 13 23 21 2 0.19184066D+00 0.63031339D-01 0.28809270D+06 0.28809270D+06 0.28809270D+06 0.10858556D+01  1  2  3  1  7  1        2 -.208065857972D-04 0.100000000000D+01
0.407843130195D-05 0.000000000000D+00 0.000000000000D+00 0.268795921645D-06 0.000000000000D+00  7 2 -2 23 -13 13 23 21 2 0.19184066D+00 0.63031339D-01 0.28809270D+06 0.28809270D+06 0.28809270D+06 0.10858556D+01  1  2 15  1  7  1        2 0.257345639576D-04 0.100000000000D+01
-.573079801672D-04 0.000000000000D+00 -.219874936985D-04 0.268795921645D-06 0.000000000000D+00  7 2 -2 23 -13 13 23 21 2 0.84069175D+00 0.63031339D-01 0.28809270D+06 0.28809270D+06 0.28809270D+06 0.10858556D+01  1  2  5  1  7  1        2 -.129550101841D-06 0.100000000000D+01
-.103000629793D-04 0.000000000000D+00 -.391815728045D-05 0.268795921645D-06 0.000000000000D+00  7 21 -2 23 -13 13 23 -2 2 0.84069175D+00 0.63031339D-01 0.28809270D+06 0.28809270D+06 0.28809270D+06 0.10858556D+01  1  2  5  3  7  1        2 -.926947563199D-10 0.100000000000D+01
  </mgrwgt>
  </event>
  <event>
  8     66 -.55102590E-06 0.18912226E+03 0.75467711E-02 0.10713786E+00
        2 -1    0    0  501    0 0.00000000E+00 0.00000000E+00 0.12246781E+04 0.12246781E+04 0.32000000E+00 0.0000E+00 0.9000E+01
       -2 -1    0    0    0  501 0.00000000E+00 0.00000000E+00 -.68882832E+03 0.68882839E+03 0.32000000E+00 0.0000E+00 0.9000E+01
       25  2    1    2    0    0 -.21394795E+02 -.26234999E+02 0.12022979E+04 0.12400043E+04 0.30156971E+03 0.0000E+00 0.0000E+00
       23  2    1    2    0    0 0.21394795E+02 0.26234999E+02 -.66644817E+03 0.67350222E+03 0.91137609E+02 0.0000E+00 0.0000E+00
       23  1    3    3    0    0 0.82712618E+02 0.37606907E+02 0.79037220E+03 0.80078657E+03 0.91188000E+02 0.0000E+00 0.9000E+01
      -13  1    4    4    0    0 -.35541946E+02 0.32045636E+01 -.22919193E+03 0.23195356E+03 0.10565837E+00 0.0000E+00 0.9000E+01
       13  1    4    4    0    0 0.56936742E+02 0.23030435E+02 -.43725624E+03 0.44154867E+03 0.10565837E+00 0.0000E+00 0.9000E+01
       23  1    3    3    0    0 -.10410741E+03 -.63841905E+02 0.41192571E+03 0.43921769E+03 0.91188000E+02 0.0000E+00 0.9000E+01
#aMCatNLO 1  0  0  1  2 0.77864825D+03 0.00000000D+00  -5  7  0 0.00000000D+00 0.00000000D+00 0.00000000D+00 0.00000000D+00 0.00000000D+00
  <mgrwgt>
 -.9709745449D-04    1    2    0
 0.918473206657090D+03 0.000000000000000D+00 0.000000000000000D+00 0.918473206657090D+03
 0.918473206657090D+03 0.000000000000000D+00 0.000000000000000D+00 -.918473206657090D+03
 0.603604735586899D+03 0.827126184516815D+02 0.376069067300339D+02 0.589718380919228D+03
 0.308477362948459D+03 -.355420706124240D+02 0.320453696411943D+01 -.306406226456093D+03
 0.587502474798305D+03 0.569368659562868D+02 0.230304616904922D+02 -.584283278062561D+03
 0.337361839980517D+03 -.104107413795544D+03 -.638419053846456D+02 0.300971123599426D+03
 0.000000000000000D+00 -.000000000000000D+00 0.000000000000000D+00 -.000000000000000D+00
 0.160110620319441D+04 0.000000000000000D+00 0.000000000000000D+00 0.160110620319441D+04
 0.405283702494280D+04 0.000000000000000D+00 0.000000000000000D+00 -.405283702494280D+04
 0.929024930783896D+03 0.710500769376198D+03 -.468290358202999D+02 0.589718380919228D+03
 0.400034947857974D+03 0.254675222754789D+03 -.358289660954402D+02 -.306406226456093D+03
 0.882758739923342D+03 0.659177961518395D+03 -.579694655484124D+02 -.584283278062561D+03
 0.381987239274898D+03 0.190548782834381D+03 -.103472429876236D+03 0.300971123599426D+03
 0.306013737029711D+04 -.181490273648376D+04 0.244099897340389D+03 -.245173082174839D+04
-.380897580107D-04 0.000000000000D+00 0.000000000000D+00 0.760334463307D-06 0.000000000000D+00  7 2 -2 23 -13 13 23 21 2 0.18841202D+00 0.10597360D+00 0.35767228D+05 0.35767228D+05 0.35767228D+05 0.11603164D+01  1  2 14  1  7  1        2 -.970974544909D-04 0.100000000000D+01
  </mgrwgt>
  </event>
  <event>
  9     66 0.55102590E-06 0.21965822E+03 0.75467711E-02 0.97167673E-01
        2 -1    0    0  501    0 0.00000000E+00 0.00000000E+00 0.98476067E+03 0.98476073E+03 0.32000000E+00 0.0000E+00 0.9000E+01
       21 -1    0    0  502  501 0.00000000E+00 0.00000000E+00 -.45597706E+03 0.45597768E+03 0.75000000E+00 0.0000E+00 0.9000E+01
       25  2    1    2    0    0 0.23364224E+02 -.13994145E+03 -.24891084E+03 0.41486567E+03 0.30004570E+03 0.0000E+00 0.0000E+00
       23  2    1    2    0    0 0.24895288E+03 0.27587272E+02 0.65389713E+03 0.70633251E+03 0.92658367E+02 0.0000E+00 0.0000E+00
       23  1    3    3    0    0 0.42751511E+02 -.48597551E+02 0.22170069E+02 0.11400078E+03 0.91188000E+02 0.0000E+00 0.9000E+01
      -13  1    4    4    0    0 0.21362133E+03 0.56982609E+02 0.53859360E+03 0.58220629E+03 0.10565837E+00 0.0000E+00 0.9000E+01
       13  1    4    4    0    0 0.35331554E+02 -.29395337E+02 0.11530353E+03 0.12412622E+03 0.10565837E+00 0.0000E+00 0.9000E+01
       23  1    3    3    0    0 -.19387287E+02 -.91343902E+02 -.27108091E+03 0.30086490E+03 0.91188000E+02 0.0000E+00 0.9000E+01
        2  1    1    2  502    0 -.27231710E+03 0.11235418E+03 0.12379733E+03 0.31954022E+03 0.32000000E+00 0.0000E+00 0.9000E+01
#aMCatNLO 2  0  0  2  2 0.29458457D+03 0.00000000D+00  -5  7  0 0.00000000D+00 0.00000000D+00 0.00000000D+00 0.00000000D+00 0.00000000D+00
  <mgrwgt>
 0.4004179644D-04    1    2    0
 0.501570387679624D+03 0.000000000000000D+00 0.000000000000000D+00 0.501570387679624D+03
 0.501570387679624D+03 0.000000000000000D+00 0.000000000000000D+00 -.501570387679624D+03
 0.101418251956931D+03 0.141611546599438D+02 -.368015753280933D+02 -.203842154145650D+02
 0.381676741691046D+03 0.107625689547115D+03 0.100715115898235D+03 0.352065777273234D+03
 0.793002156483697D+02 0.130331614930544D+02 -.201955434478980D+02 0.755698413933625D+02
 0.440745566062902D+03 -.134820005700113D+03 -.437179971222435D+02 -.407251403252032D+03
 0.000000000000000D+00 -.000000000000000D+00 0.000000000000000D+00 0.000000000000000D+00
 0.674602645616106D+03 0.000000000000000D+00 0.000000000000000D+00 0.674602645616106D+03
 0.665619448374369D+03 0.000000000000000D+00 0.000000000000000D+00 -.665619448374369D+03
 0.113666975271447D+03 0.427515108184902D+02 -.485975514612501D+02 -.203842154145650D+02
 0.415730095308573D+03 0.213621558100523D+03 0.569827213545779D+02 0.352065777273234D+03
 0.884488308477780D+02 0.353313223029970D+02 -.293954488729568D+02 0.755698413933625D+02
 0.427654688042339D+03 -.193872868984691D+02 -.913439024596473D+02 -.407251403252032D+03
 0.294721504520338D+03 -.272317104323541D+03 0.112354181439276D+03 0.898319724173687D+01
0.526264902654D-06 0.000000000000D+00 0.000000000000D+00 0.919751078271D-06 0.308041115186D-11  7 2 21 23 -13 13 23 2 2 0.15150167D+00 0.70150359D-01 0.16159519D+06 0.16159519D+06 0.16159519D+06 0.11050090D+01  1  2  1  4  7  2       -2 0.400417964428D-04 0.100000000000D+01
  </mgrwgt>
  </event>
  <event>
  8     66 0.55102590E-06 0.35447239E+03 0.75467711E-02 0.96527100E-01
        2 -1    0    0  501    0 0.00000000E+00 0.00000000E+00 0.85150534E+03 0.85150540E+03 0.32000000E+00 0.0000E+00 0.9000E+01
       -2 -1    0    0    0  501 0.00000000E+00 0.00000000E+00 -.18328243E+03 0.18328271E+03 0.32000000E+00 0.0000E+00 0.9000E+01
       25  2    1    2    0    0 0.80517804E+01 0.31866327E+03 0.49510310E+03 0.66070310E+03 0.29965047E+03 0.0000E+00 0.0000E+00
       23  2    1    2    0    0 -.80517804E+01 -.31866327E+03 0.17311981E+03 0.37408501E+03 0.91422188E+02 0.0000E+00 0.0000E+00
       23  1    3    3    0    0 0.40468742E+02 0.79430085E+02 0.33141136E+03 0.35509942E+03 0.91188000E+02 0.0000E+00 0.9000E+01
      -13  1    4    4    0    0 -.31394282E+02 -.17104142E+03 0.13415764E+03 0.21963390E+03 0.10565837E+00 0.0000E+00 0.9000E+01
       13  1    4    4    0    0 0.23342501E+02 -.14762185E+03 0.38962172E+02 0.15445111E+03 0.10565837E+00 0.0000E+00 0.9000E+01
       23  1    3    3    0    0 -.32416962E+02 0.23923319E+03 0.16369174E+03 0.30560369E+03 0.91188000E+02 0.0000E+00 0.9000E+01
#aMCatNLO 1  0  0  2  1 0.13028661D+03 0.00000000D+00  -5  7  0 0.00000000D+00 0.00000000D+00 0.00000000D+00 0.00000000D+00 0.00000000D+00
  <mgrwgt>
 0.1109766092D-03    4    2    0
 0.395052082511062D+03 0.000000000000000D+00 0.000000000000000D+00 0.395052082511062D+03
 0.395052082511062D+03 0.000000000000000D+00 0.000000000000000D+00 -.395052082511062D+03
 0.184780694876506D+03 0.404687423346183D+02 0.794300849823309D+02 0.133722834058355D+03
 0.174188870243643D+03 -.313943546300889D+02 -.171041452696535D+03 -.100488045844298D+02
 0.169330521052565D+03 0.233425742029497D+02 -.147621817733876D+03 -.795974152749901D+02
 0.261804078849410D+03 -.324169619074791D+02 0.239233185448080D+03 -.440766141989353D+02
 0.000000000000000D+00 0.000000000000000D+00 -.000000000000000D+00 0.000000000000000D+00
 0.470807627436015D+03 0.000000000000000D+00 0.000000000000000D+00 0.470807627436015D+03
 0.460648582307210D+03 0.000000000000000D+00 0.000000000000000D+00 -.460648582307210D+03
 0.182907647764878D+03 0.107879473708728D+02 0.845090534191784D+02 0.133722834058355D+03
 0.176886719742760D+03 -.597341233818155D+02 -.166191960249537D+03 -.100488045844298D+02
 0.163717437043205D+03 -.354195546780977D+01 -.143021345347471D+03 -.795974152749901D+02
 0.277262316901326D+03 -.759318556601159D+02 0.246679440582836D+03 -.440766141989353D+02
 0.130682088291057D+03 0.128419987138868D+03 -.219751884050066D+02 0.101590451288045D+02
0.510671481359D-05 0.000000000000D+00 0.000000000000D+00 0.483197613086D-06 0.000000000000D+00  7 2 -2 23 -13 13 23 21 0 0.13100085D+00 0.28197324D-01 0.12565068D+06 0.12565068D+06 0.12565068D+06 0.11136741D+01  1  2  2  2  7  2       -2 0.225251495502D-03 0.100000000000D+01
-.279654035896D-06 0.000000000000D+00 -.196111295131D-07 0.483197613086D-06 0.000000000000D+00  7 2 -2 23 -13 13 23 21 2 0.13100085D+00 0.28197324D-01 0.12565068D+06 0.12565068D+06 0.12565068D+06 0.11136741D+01  1  2  3  2  7  2       -2 -.152990137168D-04 0.100000000000D+01
0.324024962781D-06 0.000000000000D+00 0.000000000000D+00 0.483197613086D-06 0.000000000000D+00  7 2 -2 23 -13 13 23 21 2 0.13100085D+00 0.28197324D-01 0.12565068D+06 0.12565068D+06 0.12565068D+06 0.11136741D+01  1  2 15  2  7  2       -2 0.177264109001D-04 0.100000000000D+01
-.213322670229D-05 0.000000000000D+00 0.000000000000D+00 0.483197613086D-06 0.000000000000D+00  7 2 -2 23 -13 13 23 21 2 0.13100085D+00 0.28197324D-01 0.12565068D+06 0.12565068D+06 0.12565068D+06 0.11136741D+01  1  2  4  2  7  2       -2 -.116702283501D-03 0.100000000000D+01
  </mgrwgt>
  </event>
  <event>
  8     66 0.55102590E-06 0.21636778E+03 0.75467711E-02 0.98548116E-01
        2 -1    0    0  501    0 0.00000000E+00 0.00000000E+00 0.20092535E+04 0.20092535E+04 0.32000000E+00 0.0000E+00 0.9000E+01
       -2 -1    0    0    0  501 0.00000000E+00 0.00000000E+00 -.66345450E+02 0.66346221E+02 0.32000000E+00 0.0000E+00 0.9000E+01
       25  2    1    2    0    0 0.96664269E+02 -.33925759E+02 0.19074862E+04 0.19336675E+04 0.30011879E+03 0.0000E+00 0.0000E+00
       23  2    1    2    0    0 -.96664269E+02 0.33925759E+02 0.35421838E+02 0.14193228E+03 0.91624925E+02 0.0000E+00 0.0000E+00
       23  1    3    3    0    0 -.76143026E+02 -.20729675E+02 0.66590800E+03 0.67673939E+03 0.91188000E+02 0.0000E+00 0.9000E+01
      -11  1    4    4    0    0 -.33581474E+02 0.40808298E+02 0.54253812E+02 0.75739743E+02 0.51099893E-03 0.0000E+00 0.9000E+01
       11  1    4    4    0    0 -.63082796E+02 -.68825388E+01 -.18831974E+02 0.66192535E+02 0.51099893E-03 0.0000E+00 0.9000E+01
       23  1    3    3    0    0 0.17280730E+03 -.13196085E+02 0.12415782E+04 0.12569281E+04 0.91188000E+02 0.0000E+00 0.9000E+01
#aMCatNLO 1  0  0  2  1 0.21672426D+03 0.00000000D+00  -5  7  0 0.00000000D+00 0.00000000D+00 0.00000000D+00 0.00000000D+00 0.00000000D+00
  <mgrwgt>
 0.3531860651D-03    7    2    0
 0.365110469280883D+03 0.000000000000000D+00 0.000000000000000D+00 0.365110469280883D+03
 0.365110469280883D+03 0.000000000000000D+00 0.000000000000000D+00 -.365110469280883D+03
 0.151792528968047D+03 -.761430260775362D+02 -.207296747301046D+02 0.921859027826660D+02
 0.709308940237756D+02 -.335814738638644D+02 0.408082983111039D+02 -.473091865190539D+02
 0.238253923267499D+03 -.630827955857001D+02 -.688253883550485D+01 -.229647824968202D+03
 0.269243592302443D+03 0.172807295527101D+03 -.131960847454944D+02 0.184771108704590D+03
 0.000000000000000D+00 0.000000000000000D+00 0.000000000000000D+00 -.000000000000000D+00
 0.482454944321216D+03 0.000000000000000D+00 0.000000000000000D+00 0.482454944321216D+03
 0.496422304665375D+03 0.000000000000000D+00 0.000000000000000D+00 -.496422304665375D+03
 0.176885459332522D+03 -.104969578376304D+03 -.587908268603452D+02 0.921859027826660D+02
 0.703514532820108D+02 -.459725773708584D+02 0.244476988626080D+02 -.473091865190539D+02
 0.261458096007059D+03 -.106909809169487D+03 -.647495572058547D+02 -.229647824968202D+03
 0.253008362299754D+03 0.127003427247651D+03 -.736732441598090D+02 0.184771108704590D+03
 0.217173878065246D+03 0.130848537668998D+03 0.172765929363401D+03 -.139673603441590D+02
0.630589650914D-05 0.000000000000D+00 0.000000000000D+00 0.833958105964D-06 0.000000000000D+00  7 2 -2 23 -11 11 23 21 0 0.30911599D+00 0.10207054D-01 0.46815017D+05 0.46815017D+05 0.46815017D+05 0.11498182D+01  1  2  2  2  7  2       -2 0.332897794118D-03 0.100000000000D+01
-.233720474438D-06 0.000000000000D+00 -.242163029758D-07 0.833958105964D-06 0.000000000000D+00  7 2 -2 23 -11 11 23 21 2 0.30911599D+00 0.10207054D-01 0.46815017D+05 0.46815017D+05 0.46815017D+05 0.11498182D+01  1  2  3  2  7  2       -2 -.163124504494D-04 0.100000000000D+01
0.385194889678D-06 0.000000000000D+00 0.000000000000D+00 0.833958105964D-06 0.000000000000D+00  7 2 -2 23 -11 11 23 21 2 0.30911599D+00 0.10207054D-01 0.46815017D+05 0.46815017D+05 0.46815017D+05 0.11498182D+01  1  2 15  2  7  2       -2 0.268845618526D-04 0.100000000000D+01
-.184774511044D-05 0.000000000000D+00 0.000000000000D+00 0.833958105964D-06 0.000000000000D+00  7 2 -2 23 -11 11 23 21 2 0.30911599D+00 0.10207054D-01 0.46815017D+05 0.46815017D+05 0.46815017D+05 0.11498182D+01  1  2  4  2  7  2       -2 -.128962816072D-03 0.100000000000D+01
0.130463355881D-06 0.000000000000D+00 -.209689664046D-05 0.833958105964D-06 0.000000000000D+00  7 2 -2 23 -11 11 23 21 2 0.30911599D+00 0.19672307D-01 0.46815017D+05 0.46815017D+05 0.46815017D+05 0.11498182D+01  1  2  5  2  7  2       -2 0.323362334416D-05 0.100000000000D+01
0.133093282739D-05 0.000000000000D+00 0.171442640505D-05 0.833958105964D-06 0.000000000000D+00  7 2 -2 23 -11 11 23 21 2 0.30911599D+00 0.10207054D-01 0.46815017D+05 0.46815017D+05 0.46815017D+05 0.11498182D+01  1  2  6  2  7  2       -2 0.928920577047D-04 0.100000000000D+01
0.130896620358D-06 0.000000000000D+00 -.149258489915D-06 0.833958105964D-06 0.000000000000D+00  7 2 21 23 -11 11 23 2 2 0.30911599D+00 0.19672307D-01 0.46815017D+05 0.46815017D+05 0.46815017D+05 0.11498182D+01  1  2  5  4  7  2       -2 0.425532945888D-04 0.100000000000D+01
  </mgrwgt>
  </event>
  <event>
  9     66 0.55102590E-06 0.30505637E+03 0.75467711E-02 0.98972636E-01
        2 -1    0    0  501    0 0.00000000E+00 0.00000000E+00 0.13501753E+04 0.13501754E+04 0.32000000E+00 0.0000E+00 0.9000E+01
       21 -1    0    0  502  501 0.00000000E+00 0.00000000E+00 -.12115026E+03 0.12115258E+03 0.75000000E+00 0.0000E+00 0.9000E+01
       25  2    1    2    0    0 0.18222428E+03 0.14422045E+03 0.34122002E+03 0.50932141E+03 0.29828169E+03 0.0000E+00 0.0000E+00
       23  2    1    2    0    0 -.11797286E+03 -.19122669E+03 0.82710331E+03 0.86189343E+03 0.90967900E+02 0.0000E+00 0.0000E+00
       23  1    3    3    0    0 0.13919107E+01 -.42622460E+02 0.11476618E+03 0.15266020E+03 0.91188000E+02 0.0000E+00 0.9000E+01
      -13  1    4    4    0    0 -.97971524E+02 -.85742087E+02 0.53709916E+03 0.55265328E+03 0.10565837E+00 0.0000E+00 0.9000E+01
       13  1    4    4    0    0 -.20001333E+02 -.10548461E+03 0.29000415E+03 0.30924015E+03 0.10565837E+00 0.0000E+00 0.9000E+01
       23  1    3    3    0    0 0.18083237E+03 0.18684291E+03 0.22645385E+03 0.35666120E+03 0.91188000E+02 0.0000E+00 0.9000E+01
        2  1    1    2  502    0 -.64251424E+02 0.47006246E+02 0.60701760E+02 0.10011313E+03 0.32000000E+00 0.0000E+00 0.9000E+01
#aMCatNLO 2  0  0  2  1 0.79610506D+02 0.00000000D+00  -5  7  0 0.00000000D+00 0.00000000D+00 0.00000000D+00 0.00000000D+00 0.00000000D+00
  <mgrwgt>
 0.1667668625D-04    2    2    0
 0.356690655534804D+03 0.000000000000000D+00 0.000000000000000D+00 0.356690655534804D+03
 0.356690655534804D+03 0.000000000000000D+00 0.000000000000000D+00 -.356690655534804D+03
 0.102544013277523D+03 -.791774270621474D+01 -.358115318989675D+02 -.292381061039916D+02
 0.185826789392238D+03 -.114463435403329D+03 -.736766800547209D+02 0.126496894932680D+03
 0.114304486787711D+03 -.304624063162836D+02 -.978312496051683D+02 0.506616630393719D+02
 0.310706021612135D+03 0.152843584425827D+03 0.207319461558857D+03 -.147920451868060D+03
 0.000000000000000D+00 -.000000000000000D+00 0.000000000000000D+00 -.000000000000000D+00
 0.381632024037552D+03 0.000000000000000D+00 0.000000000000000D+00 0.381632024037552D+03
 0.428621258153480D+03 0.000000000000000D+00 0.000000000000000D+00 -.428621258153480D+03
 0.104827142191603D+03 0.139191071606360D+01 -.426224604178223D+02 -.292381061039916D+02
 0.181525770921835D+03 -.979716286591659D+02 -.857420612011839D+02 0.126496894932680D+03
 0.118716725291377D+03 -.200012275685069D+02 -.105484632329767D+03 0.506616630393719D+02
 0.312740035266881D+03 0.180832369577260D+03 0.186842908206204D+03 -.147920451868060D+03
 0.924436085193367D+02 -.642514240656505D+02 0.470062457425697D+02 -.469892341159279D+02
-.676782713515D-07 0.000000000000D+00 0.000000000000D+00 0.382060586615D-07 0.000000000000D+00  7 2 21 23 -13 13 23 2 2 0.19414393D+00 0.19099577D-01 0.12019428D+06 0.12019428D+06 0.12019428D+06 0.11152250D+01  1  2 13  4  7  2       -2 -.524198210121D-04 0.100000000000D+01
0.955064259248D-07 0.000000000000D+00 0.000000000000D+00 0.382060586615D-07 0.132340115742D-11  7 2 21 23 -13 13 23 2 2 0.20771932D+00 0.18638670D-01 0.12019428D+06 0.12019428D+06 0.12019428D+06 0.11152250D+01  1  2  1  4  7  2       -2 0.690965072657D-04 0.100000000000D+01
  </mgrwgt>
  </event>
  <event>
  9     66 -.55102590E-06 0.34156166E+03 0.75467711E-02 0.98774321E-01
        2 -1    0    0  502    0 0.00000000E+00 0.00000000E+00 0.56350210E+03 0.56350219E+03 0.32000000E+00 0.0000E+00 0.9000E+01
       -2 -1    0    0    0  501 0.00000000E+00 0.00000000E+00 -.95473793E+03 0.95473798E+03 0.32000000E+00 0.0000E+00 0.9000E+01
       25  2    1    2    0    0 -.27940069E+03 0.13773016E+02 -.85381298E+03 0.94727429E+03 0.30012919E+03 0.0000E+00 0.0000E+00
       23  2    1    2    0    0 0.28532403E+03 -.33712219E+02 0.46037989E+03 0.55003629E+03 0.89688137E+02 0.0000E+00 0.0000E+00
       23  1    3    3    0    0 -.28156464E+03 0.45529297E+02 -.73823044E+03 0.79664986E+03 0.91188000E+02 0.0000E+00 0.9000E+01
      -13  1    4    4    0    0 0.83584414E+02 -.27657741E+01 0.68150326E+02 0.10788180E+03 0.10565837E+00 0.0000E+00 0.9000E+01
       13  1    4    4    0    0 0.20173961E+03 -.30946445E+02 0.39222956E+03 0.44215449E+03 0.10565837E+00 0.0000E+00 0.9000E+01
       23  1    3    3    0    0 0.21639435E+01 -.31756281E+02 -.11558254E+03 0.15062443E+03 0.91188000E+02 0.0000E+00 0.9000E+01
       21  1    1    2  502  501 -.59233341E+01 0.19939204E+02 0.21972633E+01 0.20929601E+02 0.75000000E+00 0.0000E+00 0.9000E+01
#aMCatNLO 2  0  0  1  2 0.20800426D+02 0.00000000D+00  -5  7  0 0.00000000D+00 0.00000000D+00 0.00000000D+00 0.00000000D+00 0.00000000D+00
  <mgrwgt>
 -.7097321091D-04    3    2    0
 0.722273613991744D+03 0.000000000000000D+00 0.000000000000000D+00 0.722273613991744D+03
 0.722273613991744D+03 0.000000000000000D+00 0.000000000000000D+00 -.722273613991744D+03
 0.626468675369165D+03 -.284129538152536D+03 0.541632952437935D+02 -.548164658540075D+03
 0.130002001821767D+03 0.830504544556620D+02 -.968864259853372D+00 0.100011018365081D+03
 0.563877398193327D+03 0.199425280066803D+03 -.231553893467901D+02 0.526926091409176D+03
 0.124199152599230D+03 0.165380363007057D+01 -.300390416371501D+02 -.787724512341823D+02
 0.000000000000000D+00 -.000000000000000D+00 0.000000000000000D+00 0.000000000000000D+00
 0.737475744239281D+03 0.000000000000000D+00 0.000000000000000D+00 0.737475744239281D+03
 0.729498788557667D+03 0.000000000000000D+00 0.000000000000000D+00 -.729498788557667D+03
 0.624620930380311D+03 -.281564638404283D+03 0.455292966459432D+02 -.548164658540075D+03
 0.130369398237768D+03 0.835842503847433D+02 -.276573499773121D+01 0.100011018365081D+03
 0.565073206753028D+03 0.201739778651964D+03 -.309464843214061D+02 0.526926091409176D+03
 0.124633440331046D+03 0.216394347299709D+01 -.317562809528523D+02 -.787724512341823D+02
 0.222775570947949D+02 -.592333410542219D+01 0.199392036260465D+02 0.797695568161472D+01
-.718413532054D-04 0.000000000000D+00 0.000000000000D+00 0.248974154678D-05 0.000000000000D+00  7 2 -2 23 -13 13 23 21 2 0.87109918D-01 0.14542674D+00 0.12410041D+06 0.12410041D+06 0.12410041D+06 0.11141071D+01  1  2 13  1  7  1        2 -.192954184090D-03 0.100000000000D+01
-.355538021923D-03 0.000000000000D+00 0.000000000000D+00 0.248974154678D-05 0.000000000000D+00  7 2 -2 23 -13 13 23 21 2 0.84904851D-01 0.14542674D+00 0.11666437D+06 0.11666437D+06 0.11666437D+06 0.11162700D+01  1  2  8  1  7  1        2 -.989592257954D-03 0.100000000000D+01
0.422862850973D-03 0.000000000000D+00 0.000000000000D+00 0.248974154678D-05 0.380986907320D-07  7 2 -2 23 -13 13 23 21 2 0.86691895D-01 0.14688150D+00 0.12410041D+06 0.12410041D+06 0.12410041D+06 0.11141071D+01  1  2  1  1  7  1        2 0.111157323113D-02 0.100000000000D+01
  </mgrwgt>
  </event>
  <event>
  8     66 0.55102590E-06 0.21877522E+03 0.75467711E-02 0.95593263E-01
        2 -1    0    0  501    0 0.00000000E+00 0.00000000E+00 0.10607964E+04 0.10607964E+04 0.32000000E+00 0.0000E+00 0.9000E+01
       -2 -1    0    0    0  501 0.00000000E+00 0.00000000E+00 -.91314933E+02 0.91315494E+02 0.32000000E+00 0.0000E+00 0.9000E+01
       25  2    1    2    0    0 0.10579635E+03 0.37708505E+02 0.95390839E+03 0.10059425E+04 0.29893871E+03 0.0000E+00 0.0000E+00
       23  2    1    2    0    0 -.10579635E+03 -.37708505E+02 0.15573047E+02 0.14616938E+03 0.92239748E+02 0.0000E+00 0.0000E+00
       23  1    3    3    0    0 0.14408054E+03 0.89863231E+02 0.44587676E+03 0.48575296E+03 0.91188000E+02 0.0000E+00 0.9000E+01
      -13  1    4    4    0    0 -.11081879E+03 -.17519801E+02 -.10645985E+02 0.11269914E+03 0.10565837E+00 0.0000E+00 0.9000E+01
       13  1    4    4    0    0 0.50224428E+01 -.20188704E+02 0.26219031E+02 0.33470248E+02 0.10565837E+00 0.0000E+00 0.9000E+01
       23  1    3    3    0    0 -.38284199E+02 -.52154726E+02 0.50803162E+03 0.52018956E+03 0.91188000E+02 0.0000E+00 0.9000E+01
#aMCatNLO 1  0  0  1  2 0.34323921D+03 0.00000000D+00  -5  7  0 0.00000000D+00 0.00000000D+00 0.00000000D+00 0.00000000D+00 0.00000000D+00
  <mgrwgt>
 0.3803188468D-03    3    2    0
 0.311234477562581D+03 0.000000000000000D+00 0.000000000000000D+00 0.311234477562581D+03
 0.311234477562581D+03 0.000000000000000D+00 0.000000000000000D+00 -.311234477562581D+03
 0.204624714635889D+03 0.144080545076977D+03 0.898632313012026D+02 0.687125802618911D+02
 0.225173107823867D+03 -.110818940153236D+03 -.175197988136477D+02 -.195231010958561D+03
 0.211134054288048D+02 0.502259397336188D+01 -.201887065953129D+02 -.360077277653072D+01
 0.171557727236601D+03 -.382841988971030D+02 -.521547258922420D+02 0.130119203473201D+03
 0.000000000000000D+00 0.000000000000000D+00 -.000000000000000D+00 -.000000000000000D+00
 0.385797262008476D+03 0.000000000000000D+00 0.000000000000000D+00 0.385797262008476D+03
 0.132485577745549D+04 0.000000000000000D+00 0.000000000000000D+00 -.132485577745549D+04
 0.202778723990679D+03 0.623242568132577D+02 0.155557795965731D+03 0.687125802618911D+02
 0.298720532539366D+03 -.215952072130371D+03 0.669590282433938D+02 -.195231010958561D+03
 0.149785704953335D+02 -.222021673439397D+01 -.143688081324718D+02 -.360077277653072D+01
 0.194353203576370D+03 -.111713916719912D+03 0.684909446526015D+01 0.130119203473201D+03
 0.999822008862220D+03 0.267561948771419D+03 -.214997110541914D+03 -.939058515447017D+03
0.357951088292D-05 0.000000000000D+00 0.000000000000D+00 0.113728937972D-06 0.000000000000D+00  7 2 -2 23 -13 13 23 21 0 0.16319949D+00 0.14048498D-01 0.47862595D+05 0.47862595D+05 0.47862595D+05 0.11489681D+01  1  2  2  1  7  1        2 0.373205297423D-03 0.100000000000D+01
-.168817883427D-06 0.000000000000D+00 -.137462642973D-07 0.113728937972D-06 0.000000000000D+00  7 2 -2 23 -13 13 23 21 2 0.16319949D+00 0.14048498D-01 0.47862595D+05 0.47862595D+05 0.47862595D+05 0.11489681D+01  1  2  3  1  7  1        2 -.232358452242D-04 0.100000000000D+01
0.220500718250D-06 0.000000000000D+00 0.000000000000D+00 0.113728937972D-06 0.000000000000D+00  7 2 -2 23 -13 13 23 21 2 0.16319949D+00 0.14048498D-01 0.47862595D+05 0.47862595D+05 0.47862595D+05 0.11489681D+01  1  2 15  1  7  1        2 0.303493946083D-04 0.100000000000D+01
  </mgrwgt>
  </event>
  <event>
  9     66 0.55102590E-06 0.33483264E+03 0.75467711E-02 0.97105884E-01
        2 -1    0    0  501    0 0.00000000E+00 0.00000000E+00 0.24565920E+03 0.24565941E+03 0.32000000E+00 0.0000E+00 0.9000E+01
       21 -1    0    0  502  501 0.00000000E+00 0.00000000E+00 -.15501397E+04 0.15501399E+04 0.75000000E+00 0.0000E+00 0.9000E+01
       25  2    1    2    0    0 0.26018655E+03 0.11224774E+03 -.66561860E+03 0.78322063E+03 0.30014969E+03 0.0000E+00 0.0000E+00
       23  2    1    2    0    0 -.27389524E+03 0.98405465E+01 0.66726271E+02 0.29637462E+03 0.90939965E+02 0.0000E+00 0.0000E+00
       23  1    3    3    0    0 0.23837920E+03 0.56729627E+01 -.31838981E+03 0.40809821E+03 0.91188000E+02 0.0000E+00 0.9000E+01
      -11  1    4    4    0    0 -.25036688E+03 -.18697755E+02 0.65028357E+02 0.25934893E+03 0.51099893E-03 0.0000E+00 0.9000E+01
       11  1    4    4    0    0 -.23528365E+02 0.28538302E+02 0.16979148E+01 0.37025688E+02 0.51099893E-03 0.0000E+00 0.9000E+01
       23  1    3    3    0    0 0.21807347E+02 0.10657477E+03 -.34722879E+03 0.37512242E+03 0.91188000E+02 0.0000E+00 0.9000E+01
        2  1    1    2  502    0 0.13708693E+02 -.12208828E+03 -.70558816E+03 0.71620405E+03 0.32000000E+00 0.0000E+00 0.9000E+01
#aMCatNLO 2  0  0  2  1 0.12285551D+03 0.00000000D+00  -5  7  0 0.00000000D+00 0.00000000D+00 0.00000000D+00 0.00000000D+00 0.00000000D+00
  <mgrwgt>
 0.1321150724D-04    2    2    0
 0.444904592984775D+03 0.000000000000000D+00 0.000000000000000D+00 0.444904592984775D+03
 0.444904592984775D+03 0.000000000000000D+00 0.000000000000000D+00 -.444904592984775D+03
 0.283740537138566D+03 0.242687542269686D+03 -.326966890448918D+02 -.110576328498838D+03
 0.357141094395592D+03 -.244906540421769D+03 -.673269833522185D+02 0.251072947721199D+03
 0.417874862417468D+02 -.228581322113663D+02 0.225692699096313D+02 0.267269125406974D+02
 0.207140068193646D+03 0.250771303634490D+02 0.774544024874789D+02 -.167223531763058D+03
 0.000000000000000D+00 0.000000000000000D+00 -.000000000000000D+00 -.000000000000000D+00
 0.459043677686842D+03 0.000000000000000D+00 0.000000000000000D+00 0.459043677686842D+03
 0.829564471751531D+03 0.000000000000000D+00 0.000000000000000D+00 -.829564471751531D+03
 0.278207121715944D+03 0.238379202741663D+03 0.567296266836055D+01 -.110576328498838D+03
 0.355064507373100D+03 -.250366877337194D+03 -.186977552426179D+02 0.251072947721199D+03
 0.456327349404021D+02 -.235283654413354D+02 0.285383016986275D+02 0.267269125406974D+02
 0.219346082551005D+03 0.218073469370827D+02 0.106574774833108D+03 -.167223531763058D+03
 0.390357702857922D+03 0.137086930997836D+02 -.122088283957478D+03 -.370520794064689D+03
-.467245711873D-05 0.000000000000D+00 0.000000000000D+00 0.126987868928D-05 0.000000000000D+00  7 2 21 23 -11 11 23 2 2 0.36629656D-01 0.23887094D+00 0.16327326D+06 0.16327326D+06 0.16327326D+06 0.11046577D+01  1  2 13  4  7  2       -2 -.542624715005D-04 0.100000000000D+01
0.597995960790D-05 0.000000000000D+00 0.000000000000D+00 0.126987868928D-05 0.469716679006D-10  7 2 21 23 -11 11 23 2 2 0.37793748D-01 0.23848303D+00 0.16327326D+06 0.16327326D+06 0.16327326D+06 0.11046577D+01  1  2  1  4  7  2       -2 0.674739787421D-04 0.100000000000D+01
  </mgrwgt>
  </event>
  <event>
  8     66 0.55102590E-06 0.19419491E+03 0.75467711E-02 0.98092147E-01
        2 -1    0    0  501    0 0.00000000E+00 0.00000000E+00 0.13448164E+04 0.13448165E+04 0.32000000E+00 0.0000E+00 0.9000E+01
       -2 -1    0    0    0  501 0.00000000E+00 0.00000000E+00 -.10603294E+03 0.10603343E+03 0.32000000E+00 0.0000E+00 0.9000E+01
       25  2    1    2    0    0 0.13139159E+03 -.26717744E+03 0.87751337E+03 0.97395902E+03 0.29986483E+03 0.0000E+00 0.0000E+00
       23  2    1    2    0    0 -.13139159E+03 0.26717744E+03 0.36127013E+03 0.47689089E+03 0.90891601E+02 0.0000E+00 0.0000E+00
       23  1    3    3    0    0 0.19274915E+03 -.20696309E+03 0.62648412E+03 0.69338558E+03 0.91188000E+02 0.0000E+00 0.9000E+01
      -13  1    4    4    0    0 -.10962060E+03 0.15972812E+03 0.27971629E+03 0.34025132E+03 0.10565837E+00 0.0000E+00 0.9000E+01
       13  1    4    4    0    0 -.21770982E+02 0.10744931E+03 0.81553836E+02 0.13663956E+03 0.10565837E+00 0.0000E+00 0.9000E+01
       23  1    3    3    0    0 -.61357562E+02 -.60214344E+02 0.25102925E+03 0.28057343E+03 0.91188000E+02 0.0000E+00 0.9000E+01
#aMCatNLO 1  0  0  1  2 0.18406556D+02 0.00000000D+00  -5  7  0 0.00000000D+00 0.00000000D+00 0.00000000D+00 0.00000000D+00 0.00000000D+00
  <mgrwgt>
 0.2190510654D-03    9    2    0
 0.377617826856211D+03 0.000000000000000D+00 0.000000000000000D+00 0.377617826856211D+03
 0.377617826856211D+03 0.000000000000000D+00 0.000000000000000D+00 -.377617826856211D+03
 0.304435060231168D+03 0.192749148451871D+03 -.206963094216524D+03 0.661777754034972D+02
 0.194834215597673D+03 -.109620723127270D+03 0.159728193711355D+03 -.207502472834059D+02
 0.128722582316894D+03 -.217708637242815D+02 0.107449244334264D+03 -.674551153214036D+02
 0.127243795566687D+03 -.613575616003192D+02 -.602143438290959D+02 0.220275872013123D+02
 0.000000000000000D+00 -.000000000000000D+00 -.000000000000000D+00 0.000000000000000D+00
 0.416376015421914D+03 0.000000000000000D+00 0.000000000000000D+00 0.416376015421914D+03
 0.379921655086318D+03 0.000000000000000D+00 0.000000000000000D+00 -.379921655086318D+03
 0.301427020541540D+03 0.195313085475392D+03 -.200040740983622D+03 0.661777754034972D+02
 0.197614661147592D+03 -.107959925667157D+03 0.164212167600630D+03 -.207502472834059D+02
 0.131032230075193D+03 -.206716119280965D+02 0.110417105539624D+03 -.674551153214036D+02
 0.125386010364978D+03 -.602884619929515D+02 -.573278902791592D+02 0.220275872013123D+02
 0.408377483789301D+02 -.639308588718684D+01 -.172606418774726D+02 0.364543603355963D+02
0.233553847989D-05 0.000000000000D+00 0.000000000000D+00 0.547695608227D-06 0.000000000000D+00  7 2 -2 23 -13 13 23 21 0 0.20689488D+00 0.16312801D-01 0.13170968D+06 0.13170968D+06 0.13170968D+06 0.11120362D+01  1  2  2  1  7  1        2 0.131037769205D-03 0.100000000000D+01
-.129503432186D-06 0.000000000000D+00 -.896908272420D-08 0.547695608227D-06 0.000000000000D+00  7 2 -2 23 -13 13 23 21 2 0.20689488D+00 0.16312801D-01 0.13170968D+06 0.13170968D+06 0.13170968D+06 0.11120362D+01  1  2  3  1  7  1        2 -.898521789872D-05 0.100000000000D+01
0.147129628805D-06 0.000000000000D+00 0.000000000000D+00 0.547695608227D-06 0.000000000000D+00  7 2 -2 23 -13 13 23 21 2 0.20689488D+00 0.16312801D-01 0.13170968D+06 0.13170968D+06 0.13170968D+06 0.11120362D+01  1  2 15  1  7  1        2 0.102081601380D-04 0.100000000000D+01
0.236889604587D-04 0.000000000000D+00 0.000000000000D+00 0.547695608227D-06 0.000000000000D+00  7 2 -2 23 -13 13 23 21 2 0.22872269D+00 0.16312801D-01 0.13867166D+06 0.13867166D+06 0.13867166D+06 0.11102532D+01  1  2 12  1  7  1        2 0.136846882386D-02 0.100000000000D+01
-.240035588714D-04 0.000000000000D+00 0.000000000000D+00 0.547695608227D-06 0.000000000000D+00  7 2 -2 23 -13 13 23 21 2 0.20689488D+00 0.16312801D-01 0.13170968D+06 0.13170968D+06 0.13170968D+06 0.11120362D+01  1  2  4  1  7  1        2 -.166541691725D-02 0.100000000000D+01
-.333944991345D-04 0.000000000000D+00 -.269983805276D-05 0.547695608227D-06 0.000000000000D+00  7 2 -2 23 -13 13 23 21 2 0.22868047D+00 0.16312801D-01 0.13170968D+06 0.13170968D+06 0.13170968D+06 0.11120362D+01  1  2  5  1  7  1        2 -.193801949679D-02 0.100000000000D+01
0.335101905911D-04 0.000000000000D+00 0.268636410563D-05 0.547695608227D-06 0.000000000000D+00  7 2 -2 23 -13 13 23 21 2 0.20689488D+00 0.16312801D-01 0.13170968D+06 0.13170968D+06 0.13170968D+06 0.11120362D+01  1  2  6  1  7  1        2 0.232500682959D-02 0.100000000000D+01
0.385837783532D-06 0.000000000000D+00 0.000000000000D+00 0.547695608227D-06 0.000000000000D+00  7 21 -2 23 -13 13 23 -2 2 0.22872269D+00 0.16312801D-01 0.13867166D+06 0.13867166D+06 0.13867166D+06 0.11102532D+01  1  2 12  3  7  1        2 0.823373000353D-05 0.100000000000D+01
-.534017946144D-06 0.000000000000D+00 -.438950877983D-07 0.547695608227D-06 0.000000000000D+00  7 21 -2 23 -13 13 23 -2 2 0.22868047D+00 0.16312801D-01 0.13170968D+06 0.13170968D+06 0.13170968D+06 0.11120362D+01  1  2  5  3  7  1        2 -.114826154134D-04 0.100000000000D+01
  </mgrwgt>
  </event>
  <event>
  8     66 0.55102590E-06 0.45791033E+03 0.75467711E-02 0.89411290E-01
        4 -1    0    0  501    0 0.00000000E+00 0.00000000E+00 0.70480068E+03 0.70480238E+03 0.15500000E+01 0.0000E+00 0.9000E+01
       -4 -1    0    0    0  501 0.00000000E+00 0.00000000E+00 -.50259383E+03 0.50259622E+03 0.15500000E+01 0.0000E+00 0.9000E+01
       25  2    1    2    0    0 -.50270189E+02 0.40666315E+03 0.48403689E+03 0.70153945E+03 0.29993978E+03 0.0000E+00 0.0000E+00
       23  2    1    2    0    0 0.50270189E+02 -.40666315E+03 -.28183004E+03 0.50585916E+03 0.92538096E+02 0.0000E+00 0.0000E+00
       23  1    3    3    0    0 -.14313671E+03 0.24660391E+03 0.31786306E+03 0.43663920E+03 0.91188000E+02 0.0000E+00 0.9000E+01
      -11  1    4    4    0    0 -.13001090E+01 -.38831431E+01 0.66087766E+01 0.77746390E+01 0.51099893E-03 0.0000E+00 0.9000E+01
       11  1    4    4    0    0 0.51570298E+02 -.40278001E+03 -.28843882E+03 0.49808452E+03 0.51099893E-03 0.0000E+00 0.9000E+01
       23  1    3    3    0    0 0.92866525E+02 0.16005924E+03 0.16617383E+03 0.26490026E+03 0.91188000E+02 0.0000E+00 0.9000E+01
#aMCatNLO 1  0  0  2  2 0.61065140D+03 0.00000000D+00  -5  7  0 0.00000000D+00 0.00000000D+00 0.00000000D+00 0.00000000D+00 0.00000000D+00
  <mgrwgt>
 0.9230218084D-05    3    2    0
 0.595173038462557D+03 0.000000000000000D+00 0.000000000000000D+00 0.595173038462557D+03
 0.595173038462557D+03 0.000000000000000D+00 0.000000000000000D+00 -.595173038462557D+03
 0.388898217030886D+03 -.143136714626117D+03 0.246603913115950D+03 0.248243756875665D+03
 0.676336784545560D+01 -.130010898702500D+01 -.388314304417752D+01 0.538275592361904D+01
 0.554217692092613D+03 0.515702984697698D+02 -.402780009172334D+03 -.377181678711117D+03
 0.240466799956160D+03 0.928665251433722D+02 0.160059239100561D+03 0.123555165911832D+03
 0.000000000000000D+00 -.000000000000000D+00 -.000000000000000D+00 0.000000000000000D+00
 0.127154861697148D+04 0.000000000000000D+00 0.000000000000000D+00 0.127154861697148D+04
 0.823615961970250D+03 0.000000000000000D+00 0.000000000000000D+00 -.823615961970250D+03
 0.556903819172928D+03 -.123741036457082D+03 0.474225479634082D+03 0.248243756875665D+03
 0.555991391275630D+01 -.104739393903465D+01 -.917358883141892D+00 0.538275592361904D+01
 0.419255255742498D+03 0.715334274119060D+02 -.168499019211024D+03 -.377181678711117D+03
 0.356122149913823D+03 0.105100847790133D+03 0.303637394083038D+03 0.123555165911832D+03
 0.757323440199724D+03 -.518458448059223D+02 -.608446495622955D+03 0.447932655001230D+03
0.502774531377D-04 0.000000000000D+00 0.000000000000D+00 0.161424726701D-05 0.000000000000D+00  7 4 -4 23 -11 11 23 21 0 0.10843119D+00 0.77322443D-01 0.20968187D+06 0.20968187D+06 0.20968187D+06 0.10962520D+01  1  2  2  2  7  2       -4 0.909978545732D-05 0.100000000000D+01
-.255975067260D-05 0.000000000000D+00 -.193078658406D-06 0.161424726701D-05 0.000000000000D+00  7 4 -4 23 -11 11 23 21 2 0.10843119D+00 0.77322443D-01 0.20968187D+06 0.20968187D+06 0.20968187D+06 0.10962520D+01  1  2  3  2  7  2       -4 -.556770698475D-06 0.100000000000D+01
0.315941405927D-05 0.000000000000D+00 0.000000000000D+00 0.161424726701D-05 0.000000000000D+00  7 4 -4 23 -11 11 23 21 2 0.10843119D+00 0.77322443D-01 0.20968187D+06 0.20968187D+06 0.20968187D+06 0.10962520D+01  1  2 15  2  7  2       -4 0.687203324675D-06 0.100000000000D+01
  </mgrwgt>
  </event>
  <event>
  8     66 0.55102590E-06 0.22783135E+03 0.75467711E-02 0.97381031E-01
        2 -1    0    0  501    0 0.00000000E+00 0.00000000E+00 0.12649744E+04 0.12649744E+04 0.32000000E+00 0.0000E+00 0.9000E+01
       -2 -1    0    0    0  501 0.00000000E+00 0.00000000E+00 -.20480120E+03 0.20480145E+03 0.32000000E+00 0.0000E+00 0.9000E+01
       25  2    1    2    0    0 -.61929959E+02 -.26498705E+03 0.36712012E+02 0.40667585E+03 0.29997336E+03 0.0000E+00 0.0000E+00
       23  2    1    2    0    0 0.61929959E+02 0.26498705E+03 0.10234612E+04 0.10631000E+04 0.93034621E+02 0.0000E+00 0.0000E+00
       23  1    3    3    0    0 0.94268686E+01 0.23085363E+02 0.96223275E+01 0.95024420E+02 0.91188000E+02 0.0000E+00 0.9000E+01
      -11  1    4    4    0    0 -.20394301E+02 0.60134269E+02 0.30250196E+03 0.30909463E+03 0.51099893E-03 0.0000E+00 0.9000E+01
       11  1    4    4    0    0 0.82324260E+02 0.20485278E+03 0.72095921E+03 0.75400539E+03 0.51099893E-03 0.0000E+00 0.9000E+01
       23  1    3    3    0    0 -.71356828E+02 -.28807241E+03 0.27089684E+02 0.31165143E+03 0.91188000E+02 0.0000E+00 0.9000E+01
#aMCatNLO 1  0  0  2  1 0.90212760D+02 0.00000000D+00  -5  7  0 0.00000000D+00 0.00000000D+00 0.00000000D+00 0.00000000D+00 0.00000000D+00
  <mgrwgt>
 0.2426913276D-03    9    2    0
 0.508987706040919D+03 0.000000000000000D+00 0.000000000000000D+00 0.508987706040919D+03
 0.508987706040919D+03 0.000000000000000D+00 0.000000000000000D+00 -.508987706040919D+03
 0.127177203027838D+03 0.942686859645669D+01 0.230853628162480D+02 -.850704989881414D+02
 0.131236343768960D+03 -.203943010812388D+02 0.601342693708636D+02 0.114851730750933D+03
 0.337805123455845D+03 0.823242601084553D+02 0.204852778855844D+03 0.255676273098723D+03
 0.421756741829194D+03 -.713568276236731D+02 -.288072411042955D+03 -.285457504861514D+03
 0.000000000000000D+00 0.000000000000000D+00 -.000000000000000D+00 -.000000000000000D+00
 0.534834861818254D+03 0.000000000000000D+00 0.000000000000000D+00 0.534834861818254D+03
 0.596281419930439D+03 0.000000000000000D+00 0.000000000000000D+00 -.596281419930439D+03
 0.129214044762141D+03 0.487553375495546D+01 0.334702463735406D+02 -.850704989881414D+02
 0.137357052891919D+03 -.251622426352391D+02 0.710133893588664D+02 0.114851730750933D+03
 0.352827762386901D+03 0.700644753337525D+02 0.232826206818521D+03 0.255676273098723D+03
 0.402566052073175D+03 -.859898117246153D+02 -.254684000548887D+03 -.285457504861514D+03
 0.109151369634558D+03 0.362120452711464D+02 -.826258420020407D+02 -.614465581121854D+02
0.945497604412D-05 0.000000000000D+00 0.000000000000D+00 0.627801364806D-06 0.000000000000D+00  7 2 -2 23 -11 11 23 21 0 0.19461147D+00 0.31507899D-01 0.11877745D+06 0.11877745D+06 0.11877745D+06 0.11156404D+01  1  2  2  2  7  2       -2 0.193706513034D-03 0.100000000000D+01
-.428175950820D-06 0.000000000000D+00 -.363095975618D-07 0.627801364806D-06 0.000000000000D+00  7 2 -2 23 -11 11 23 21 2 0.19461147D+00 0.31507899D-01 0.11877745D+06 0.11877745D+06 0.11877745D+06 0.11156404D+01  1  2  3  2  7  2       -2 -.109182868392D-04 0.100000000000D+01
0.578309455280D-06 0.000000000000D+00 0.000000000000D+00 0.627801364806D-06 0.000000000000D+00  7 2 -2 23 -11 11 23 21 2 0.19461147D+00 0.31507899D-01 0.11877745D+06 0.11877745D+06 0.11877745D+06 0.11156404D+01  1  2 15  2  7  2       -2 0.147466211087D-04 0.100000000000D+01
0.148237024397D-04 0.000000000000D+00 0.000000000000D+00 0.627801364806D-06 0.000000000000D+00  7 2 -2 23 -11 11 23 21 2 0.19461147D+00 0.37612998D-01 0.15594827D+06 0.15594827D+06 0.15594827D+06 0.11062216D+01  1  2 12  2  7  2       -2 0.267625066664D-03 0.100000000000D+01
-.154611037562D-04 0.000000000000D+00 0.000000000000D+00 0.627801364806D-06 0.000000000000D+00  7 2 -2 23 -11 11 23 21 2 0.19461147D+00 0.31507899D-01 0.11877745D+06 0.11877745D+06 0.11877745D+06 0.11156404D+01  1  2  4  2  7  2       -2 -.394250927306D-03 0.100000000000D+01
-.254665994525D-04 0.000000000000D+00 -.671417396702D-05 0.627801364806D-06 0.000000000000D+00  7 2 -2 23 -11 11 23 21 2 0.19461147D+00 0.38611950D-01 0.11877745D+06 0.11877745D+06 0.11877745D+06 0.11156404D+01  1  2  5  2  7  2       -2 -.449422682031D-03 0.100000000000D+01
0.264201861995D-04 0.000000000000D+00 0.657774150280D-05 0.627801364806D-06 0.000000000000D+00  7 2 -2 23 -11 11 23 21 2 0.19461147D+00 0.31507899D-01 0.11877745D+06 0.11877745D+06 0.11877745D+06 0.11156404D+01  1  2  6  2  7  2       -2 0.673702413037D-03 0.100000000000D+01
0.386033234472D-06 0.000000000000D+00 0.000000000000D+00 0.627801364806D-06 0.000000000000D+00  7 2 21 23 -11 11 23 2 2 0.19461147D+00 0.37612998D-01 0.15594827D+06 0.15594827D+06 0.15594827D+06 0.11062216D+01  1  2 12  4  7  2       -2 0.781845653900D-04 0.100000000000D+01
-.658484858390D-06 0.000000000000D+00 -.194578627181D-06 0.627801364806D-06 0.000000000000D+00  7 2 21 23 -11 11 23 2 2 0.19461147D+00 0.38611950D-01 0.11877745D+06 0.11877745D+06 0.11877745D+06 0.11156404D+01  1  2  5  4  7  2       -2 -.130681955450D-03 0.100000000000D+01
  </mgrwgt>
  </event>
  <event>
  8     66 0.55102590E-06 0.12064481E+03 0.75467711E-02 0.94530614E-01
        2 -1    0    0  501    0 0.00000000E+00 0.00000000E+00 0.20350987E+04 0.20350987E+04 0.32000000E+00 0.0000E+00 0.9000E+01
       -2 -1    0    0    0  501 0.00000000E+00 0.00000000E+00 -.78304688E+02 0.78305342E+02 0.32000000E+00 0.0000E+00 0.9000E+01
       25  2    1    2    0    0 0.30650539E+03 0.13611118E+03 0.11333202E+04 0.12195181E+04 0.30056269E+03 0.0000E+00 0.0000E+00
       23  2    1    2    0    0 -.30650539E+03 -.13611118E+03 0.82347381E+03 0.89388596E+03 0.91930284E+02 0.0000E+00 0.0000E+00
       23  1    3    3    0    0 -.34242130E+01 -.19644456E+00 0.15030366E+03 0.17583573E+03 0.91188000E+02 0.0000E+00 0.9000E+01
      -13  1    4    4    0    0 -.16588940E+03 -.69692594E+02 0.55712396E+03 0.58546005E+03 0.10565837E+00 0.0000E+00 0.9000E+01
       13  1    4    4    0    0 -.14061600E+03 -.66418588E+02 0.26634985E+03 0.30842591E+03 0.10565837E+00 0.0000E+00 0.9000E+01
       23  1    3    3    0    0 0.30992960E+03 0.13630763E+03 0.98301653E+03 0.10436824E+04 0.91188000E+02 0.0000E+00 0.9000E+01
#aMCatNLO 1  0  0  2  1 0.20667779D+03 0.00000000D+00  -5  7  0 0.00000000D+00 0.00000000D+00 0.00000000D+00 0.00000000D+00 0.00000000D+00
  <mgrwgt>
 0.3079549846D-03    9    2    0
 0.399197301147402D+03 0.000000000000000D+00 0.000000000000000D+00 0.399197301147402D+03
 0.399197301147402D+03 0.000000000000000D+00 0.000000000000000D+00 -.399197301147402D+03
 0.970681085539738D+02 -.342421301731839D+01 -.196444546899393D+00 -.330938442765125D+02
 0.184290872984659D+03 -.165889429582515D+03 -.696925982777725D+02 0.398342159898796D+02
 0.163624295861881D+03 -.140615962186246D+03 -.664185838992358D+02 -.508786112974103D+02
 0.353411324894291D+03 0.309929604786079D+03 0.136307626723908D+03 0.441382395840431D+02
 0.000000000000000D+00 -.000000000000000D+00 0.000000000000000D+00 -.000000000000000D+00
 0.469438691865168D+03 0.000000000000000D+00 0.000000000000000D+00 0.469438691865168D+03
 0.599433889038982D+03 0.000000000000000D+00 0.000000000000000D+00 -.599433889038982D+03
 0.994160295924701D+02 0.209413713358890D+02 -.587809777949030D+01 -.330938442765125D+02
 0.152641282070449D+03 -.124107182309280D+03 -.794355306385816D+02 0.398342159898796D+02
 0.137472538732500D+03 -.103277577566490D+03 -.751252806317782D+02 -.508786112974103D+02
 0.435182007402726D+03 0.407721403858119D+03 0.113504188757299D+03 0.441382395840431D+02
 0.244160723106005D+03 -.201278015318237D+03 0.469347202925510D+02 -.129995197173813D+03
0.724125496735D-05 0.000000000000D+00 0.000000000000D+00 0.366376334131D-06 0.000000000000D+00  7 2 -2 23 -13 13 23 21 0 0.31309216D+00 0.12046927D-01 0.15106592D+06 0.15106592D+06 0.15106592D+06 0.11073093D+01  1  2  2  2  7  2       -2 0.278064131570D-03 0.100000000000D+01
-.401942725409D-06 0.000000000000D+00 -.278083257409D-07 0.366376334131D-06 0.000000000000D+00  7 2 -2 23 -13 13 23 21 2 0.31309216D+00 0.12046927D-01 0.15106592D+06 0.15106592D+06 0.15106592D+06 0.11073093D+01  1  2  3  2  7  2       -2 -.189248828367D-04 0.100000000000D+01
0.454648953345D-06 0.000000000000D+00 0.000000000000D+00 0.366376334131D-06 0.000000000000D+00  7 2 -2 23 -13 13 23 21 2 0.31309216D+00 0.12046927D-01 0.15106592D+06 0.15106592D+06 0.15106592D+06 0.11073093D+01  1  2 15  2  7  2       -2 0.214064781621D-04 0.100000000000D+01
0.239367343981D-05 0.000000000000D+00 0.000000000000D+00 0.366376334131D-06 0.000000000000D+00  7 2 -2 23 -13 13 23 21 2 0.31309216D+00 0.18722167D-01 0.25423006D+06 0.25423006D+06 0.25423006D+06 0.10899113D+01  1  2 12  2  7  2       -2 0.527426324371D-04 0.100000000000D+01
-.421566301191D-05 0.000000000000D+00 0.000000000000D+00 0.366376334131D-06 0.000000000000D+00  7 2 -2 23 -13 13 23 21 2 0.31309216D+00 0.12046927D-01 0.15106592D+06 0.15106592D+06 0.15106592D+06 0.11073093D+01  1  2  4  2  7  2       -2 -.198488300785D-03 0.100000000000D+01
-.474764529280D-05 0.000000000000D+00 -.249711268651D-05 0.366376334131D-06 0.000000000000D+00  7 2 -2 23 -13 13 23 21 2 0.31309216D+00 0.21787070D-01 0.15106592D+06 0.15106592D+06 0.15106592D+06 0.11073093D+01  1  2  5  2  7  2       -2 -.854702939559D-04 0.100000000000D+01
0.559775180348D-05 0.000000000000D+00 0.211489234642D-05 0.366376334131D-06 0.000000000000D+00  7 2 -2 23 -13 13 23 21 2 0.31309216D+00 0.12046927D-01 0.15106592D+06 0.15106592D+06 0.15106592D+06 0.11073093D+01  1  2  6  2  7  2       -2 0.263561921470D-03 0.100000000000D+01
0.122481864826D-06 0.000000000000D+00 0.000000000000D+00 0.366376334131D-06 0.000000000000D+00  7 2 21 23 -13 13 23 2 2 0.31309216D+00 0.18722167D-01 0.25423006D+06 0.25423006D+06 0.25423006D+06 0.10899113D+01  1  2 12  4  7  2       -2 0.343246369708D-04 0.100000000000D+01
-.174501992033D-06 0.000000000000D+00 -.162102625839D-06 0.366376334131D-06 0.000000000000D+00  7 2 21 23 -13 13 23 2 2 0.31309216D+00 0.21787070D-01 0.15106592D+06 0.15106592D+06 0.15106592D+06 0.11073093D+01  1  2  5  4  7  2       -2 -.392613384399D-04 0.100000000000D+01
  </mgrwgt>
  </event>
  <event>
  8     66 0.55102590E-06 0.10139215E+04 0.75467711E-02 0.82142273E-01
        2 -1    0    0  501    0 0.00000000E+00 0.00000000E+00 0.28742978E+04 0.28742978E+04 0.32000000E+00 0.0000E+00 0.9000E+01
       -2 -1    0    0    0  501 0.00000000E+00 0.00000000E+00 -.43918199E+03 0.43918211E+03 0.32000000E+00 0.0000E+00 0.9000E+01
       25  2    1    2    0    0 -.88143283E+03 -.47756334E+03 0.19101891E+04 0.21782203E+04 0.30138122E+03 0.0000E+00 0.0000E+00
       23  2    1    2    0    0 0.88143283E+03 0.47756334E+03 0.52492667E+03 0.11352596E+04 0.90971505E+02 0.0000E+00 0.0000E+00
       23  1    3    3    0    0 -.52203211E+03 -.23016430E+03 0.12995733E+04 0.14222163E+04 0.91188000E+02 0.0000E+00 0.9000E+01
      -13  1    4    4    0    0 0.63624198E+03 0.31322678E+03 0.40494445E+03 0.81663633E+03 0.10565837E+00 0.0000E+00 0.9000E+01
       13  1    4    4    0    0 0.24519084E+03 0.16433655E+03 0.11998222E+03 0.31862328E+03 0.10565837E+00 0.0000E+00 0.9000E+01
       23  1    3    3    0    0 -.35940071E+03 -.24739903E+03 0.61061585E+03 0.75600405E+03 0.91188000E+02 0.0000E+00 0.9000E+01
#aMCatNLO 1  0  0  1  1 0.12131555D+04 0.00000000D+00  -5  7  0 0.00000000D+00 0.00000000D+00 0.00000000D+00 0.00000000D+00 0.00000000D+00
  <mgrwgt>
 0.3935310721D-03    3    2    0
 0.112353907905420D+04 0.000000000000000D+00 0.000000000000000D+00 0.112353907905420D+04
 0.112353907905420D+04 0.000000000000000D+00 0.000000000000000D+00 -.112353907905420D+04
 0.688838347725725D+03 -.522032114748997D+03 -.230164302295940D+03 0.375086500787244D+03
 0.765359559834537D+03 0.636242509160689D+03 0.313226985447209D+03 -.287853401846636D+03
 0.339810147876026D+03 0.245190317429113D+03 0.164336349638933D+03 -.168363324467912D+03
 0.453070102672110D+03 -.359400711840805D+03 -.247399032790203D+03 0.811302255273040D+02
 0.000000000000000D+00 -.000000000000000D+00 -.000000000000000D+00 -.000000000000000D+00
 0.147182598454954D+04 0.000000000000000D+00 0.000000000000000D+00 0.147182598454954D+04
 0.316364697692063D+04 0.000000000000000D+00 0.000000000000000D+00 -.316364697692063D+04
 0.635028344420922D+03 -.493571012922705D+03 0.103167431894043D+03 0.375086500787244D+03
 0.106749204011270D+04 0.675646005243814D+03 0.774714237862819D+03 -.287853401846636D+03
 0.485832304648607D+03 0.262940362847440D+03 0.372221956364675D+03 -.168363324467912D+03
 0.365293050068591D+03 -.341807160194550D+03 -.413462553327404D+02 0.811302255273040D+02
 0.208182722221935D+04 -.103208194973999D+03 -.120875737078880D+04 -.169182099237109D+04
0.771633136745D-03 0.000000000000D+00 0.000000000000D+00 0.103216266599D-05 0.000000000000D+00  7 2 -2 23 -13 13 23 21 0 0.44219967D+00 0.67566471D-01 0.10280368D+07 0.10280368D+07 0.10280368D+07 0.10470655D+01  1  2  2  1  7  1        2 0.389964418284D-03 0.100000000000D+01
-.423192117010D-04 0.000000000000D+00 -.296327442077D-05 0.103216266599D-05 0.000000000000D+00  7 2 -2 23 -13 13 23 21 2 0.44219967D+00 0.67566471D-01 0.10280368D+07 0.10280368D+07 0.10280368D+07 0.10470655D+01  1  2  3  1  7  1        2 -.234476538947D-04 0.100000000000D+01
0.487564432672D-04 0.000000000000D+00 0.000000000000D+00 0.103216266599D-05 0.000000000000D+00  7 2 -2 23 -13 13 23 21 2 0.44219967D+00 0.67566471D-01 0.10280368D+07 0.10280368D+07 0.10280368D+07 0.10470655D+01  1  2 15  1  7  1        2 0.270143077084D-04 0.100000000000D+01
  </mgrwgt>
  </event>
  <event>
  8     66 0.55102590E-06 0.18617554E+03 0.75467711E-02 0.10144141E+00
        2 -1    0    0  501    0 0.00000000E+00 0.00000000E+00 0.59540659E+03 0.59540667E+03 0.32000000E+00 0.0000E+00 0.9000E+01
       -2 -1    0    0    0  501 0.00000000E+00 0.00000000E+00 -.90687565E+02 0.90688129E+02 0.32000000E+00 0.0000E+00 0.9000E+01
       25  2    1    2    0    0 -.47384228E+02 0.31734793E+02 0.21724109E+03 0.37500363E+03 0.30030263E+03 0.0000E+00 0.0000E+00
       23  2    1    2    0    0 0.47384228E+02 -.31734793E+02 0.28747793E+03 0.31109117E+03 0.10431583E+03 0.0000E+00 0.0000E+00
       23  1    3    3    0    0 -.10275821E+03 0.54262435E+02 0.22109550E+03 0.26589873E+03 0.91188000E+02 0.0000E+00 0.9000E+01
      -11  1    4    4    0    0 -.28919706E+02 0.73944958E+01 0.45971035E+02 0.54812079E+02 0.51099893E-03 0.0000E+00 0.9000E+01
       11  1    4    4    0    0 0.76303934E+02 -.39129289E+02 0.24150689E+03 0.25627909E+03 0.51099893E-03 0.0000E+00 0.9000E+01
       23  1    3    3    0    0 0.55373980E+02 -.22527642E+02 -.38544111E+01 0.10910490E+03 0.91188000E+02 0.0000E+00 0.9000E+01
#aMCatNLO 1  0  0  2  1 0.16752790D+03 0.00000000D+00  -5  7  0 0.00000000D+00 0.00000000D+00 0.00000000D+00 0.00000000D+00 0.00000000D+00
  <mgrwgt>
 0.2491698408D-03    3    2    0
 0.232370816697243D+03 0.000000000000000D+00 0.000000000000000D+00 0.232370816697243D+03
 0.232370816697243D+03 0.000000000000000D+00 0.000000000000000D+00 -.232370816697243D+03
 0.152430134484446D+03 -.102758208545952D+03 0.542624351586865D+02 0.376302174059931D+02
 0.309931907033577D+02 -.289197042587716D+02 0.739449512007982D+01 0.833966530977088D+01
 0.116061535522988D+03 0.763039333637660D+02 -.391292887848732D+02 0.782105398291161D+02
 0.165256772683693D+03 0.553739794409575D+02 -.225276414938932D+02 -.124180422544880D+03
 0.000000000000000D+00 -.000000000000000D+00 -.000000000000000D+00 0.000000000000000D+00
 0.465940102032922D+03 0.000000000000000D+00 0.000000000000000D+00 0.465940102032922D+03
 0.279055461865055D+03 0.000000000000000D+00 0.000000000000000D+00 -.279055461865055D+03
 0.176482910028562D+03 -.951022565376421D+02 0.111222721273919D+03 0.376302174059931D+02
 0.341984518359360D+02 -.274022694991904D+02 0.186842103603437D+02 0.833966530977088D+01
 0.113056581049133D+03 0.816370064478927D+02 0.548777171598630D+00 0.782105398291161D+02
 0.170276614338127D+03 0.631840300031908D+02 0.355791379264041D+02 -.124180422544880D+03
 0.250981006646219D+03 -.223165104142510D+02 -.166034846732265D+03 0.186884640167867D+03
0.113595018092D-05 0.000000000000D+00 0.000000000000D+00 0.197604697851D-08 0.000000000000D+00  7 2 -2 23 -11 11 23 21 0 0.91601063D-01 0.13951983D-01 0.34661330D+05 0.34661330D+05 0.34661330D+05 0.11615606D+01  1  2  2  2  7  2       -2 0.245959727155D-03 0.100000000000D+01
-.593388575779D-07 0.000000000000D+00 -.436234779729D-08 0.197604697851D-08 0.000000000000D+00  7 2 -2 23 -11 11 23 21 2 0.91601063D-01 0.13951983D-01 0.34661330D+05 0.34661330D+05 0.34661330D+05 0.11615606D+01  1  2  3  2  7  2       -2 -.173351527288D-04 0.100000000000D+01
0.703271930961D-07 0.000000000000D+00 0.000000000000D+00 0.197604697851D-08 0.000000000000D+00  7 2 -2 23 -11 11 23 21 2 0.91601063D-01 0.13951983D-01 0.34661330D+05 0.34661330D+05 0.34661330D+05 0.11615606D+01  1  2 15  2  7  2       -2 0.205452663410D-04 0.100000000000D+01
  </mgrwgt>
  </event>
  <event>
  8     66 0.55102590E-06 0.22975046E+03 0.75467711E-02 0.10016193E+00
        2 -1    0    0  501    0 0.00000000E+00 0.00000000E+00 0.30785585E+03 0.30785602E+03 0.32000000E+00 0.0000E+00 0.9000E+01
       -2 -1    0    0    0  501 0.00000000E+00 0.00000000E+00 -.20466271E+03 0.20466296E+03 0.32000000E+00 0.0000E+00 0.9000E+01
       25  2    1    2    0    0 0.50542180E+02 0.12113018E+03 0.12253123E+03 0.35053328E+03 0.30105257E+03 0.0000E+00 0.0000E+00
       23  2    1    2    0    0 -.50542180E+02 -.12113018E+03 -.19338089E+02 0.16198570E+03 0.92942851E+02 0.0000E+00 0.0000E+00
       23  1    3    3    0    0 -.83723448E+02 -.31387246E+01 0.40741691E+02 0.13036335E+03 0.91188000E+02 0.0000E+00 0.9000E+01
      -13  1    4    4    0    0 -.29756653E+02 -.70581850E+02 -.57113136E+02 0.95546729E+02 0.10565837E+00 0.0000E+00 0.9000E+01
       13  1    4    4    0    0 -.20785527E+02 -.50548326E+02 0.37775047E+02 0.66438970E+02 0.10565837E+00 0.0000E+00 0.9000E+01
       23  1    3    3    0    0 0.13426563E+03 0.12426890E+03 0.81789536E+02 0.22016993E+03 0.91188000E+02 0.0000E+00 0.9000E+01
#aMCatNLO 1  0  0  1  1 0.15753545D+03 0.00000000D+00  -5  7  0 0.00000000D+00 0.00000000D+00 0.00000000D+00 0.00000000D+00 0.00000000D+00
  <mgrwgt>
 0.2442819628D-03    3    2    0
 0.251011395899630D+03 0.000000000000000D+00 0.000000000000000D+00 0.251011395899630D+03
 0.251011395899630D+03 0.000000000000000D+00 0.000000000000000D+00 -.251011395899630D+03
 0.124714309606159D+03 -.837234338627369D+02 -.313871266233745D+01 0.147967152299468D+02
 0.109284345466668D+03 -.297566693304782D+02 -.705818873117245D+02 -.779474565200786D+02
 0.600631626508820D+02 -.207855176001286D+02 -.505483048155120D+02 0.249081240963494D+02
 0.207960974075552D+03 0.134265620793344D+03 0.124268904789574D+03 0.382426171937825D+02
 0.000000000000000D+00 -.000000000000000D+00 -.000000000000000D+00 -.000000000000000D+00
 0.285381293769478D+03 0.000000000000000D+00 0.000000000000000D+00 0.285381293769478D+03
 0.541285744248550D+03 0.000000000000000D+00 0.000000000000000D+00 -.541285744248550D+03
 0.110008765263058D+03 -.562556865303128D+02 0.200756579496069D+02 0.147967152299468D+02
 0.931100486647967D+02 -.607208662551972D+01 -.505648588292644D+02 -.779474565200786D+02
 0.477303877950127D+02 -.817130824145150D+01 -.398874039602271D+02 0.249081240963494D+02
 0.275310755944065D+03 0.190819011551702D+03 0.172065011129787D+03 0.382426171937825D+02
 0.300507080351096D+03 -.120319930154418D+03 -.101688406289903D+03 -.255904450479072D+03
0.207513221987D-05 0.000000000000D+00 0.000000000000D+00 0.272531020189D-07 0.000000000000D+00  7 2 -2 23 -13 13 23 21 0 0.47362471D-01 0.31486603D-01 0.52785276D+05 0.52785276D+05 0.52785276D+05 0.11452303D+01  1  2  2  1  7  1        2 0.241435422375D-03 0.100000000000D+01
-.114187164590D-06 0.000000000000D+00 -.796905411918D-08 0.272531020189D-07 0.000000000000D+00  7 2 -2 23 -13 13 23 21 2 0.47362471D-01 0.31486603D-01 0.52785276D+05 0.52785276D+05 0.52785276D+05 0.11452303D+01  1  2  3  1  7  1        2 -.174244137657D-04 0.100000000000D+01
0.132841357946D-06 0.000000000000D+00 0.000000000000D+00 0.272531020189D-07 0.000000000000D+00  7 2 -2 23 -13 13 23 21 2 0.47362471D-01 0.31486603D-01 0.52785276D+05 0.52785276D+05 0.52785276D+05 0.11452303D+01  1  2 15  1  7  1        2 0.202709542212D-04 0.100000000000D+01
  </mgrwgt>
  </event>
  <event>
  8     66 0.55102590E-06 0.28003193E+03 0.75467711E-02 0.99083377E-01
        2 -1    0    0  501    0 0.00000000E+00 0.00000000E+00 0.10120446E+04 0.10120446E+04 0.32000000E+00 0.0000E+00 0.9000E+01
       -2 -1    0    0    0  501 0.00000000E+00 0.00000000E+00 -.90133244E+02 0.90133812E+02 0.32000000E+00 0.0000E+00 0.9000E+01
       25  2    1    2    0    0 0.40615755E+02 -.20308975E+03 0.67673408E+03 0.76883956E+03 0.30041664E+03 0.0000E+00 0.0000E+00
       23  2    1    2    0    0 -.40615755E+02 0.20308975E+03 0.24517724E+03 0.33333887E+03 0.90043528E+02 0.0000E+00 0.0000E+00
       23  1    3    3    0    0 0.59209435E+02 0.17354425E+02 0.11997179E+03 0.16283554E+03 0.91188000E+02 0.0000E+00 0.9000E+01
      -11  1    4    4    0    0 -.45517150E+02 0.13607839E+03 0.21772811E+03 0.26075788E+03 0.51099893E-03 0.0000E+00 0.9000E+01
       11  1    4    4    0    0 0.49013944E+01 0.67011358E+02 0.27449125E+02 0.72580990E+02 0.51099893E-03 0.0000E+00 0.9000E+01
       23  1    3    3    0    0 -.18593680E+02 -.22044418E+03 0.55676230E+03 0.60600401E+03 0.91188000E+02 0.0000E+00 0.9000E+01
#aMCatNLO 1  0  0  1  1 0.11477638D+03 0.00000000D+00  -5  7  0 0.00000000D+00 0.00000000D+00 0.00000000D+00 0.00000000D+00 0.00000000D+00
  <mgrwgt>
 0.2561545926D-03    4    2    0
 0.302025164698200D+03 0.000000000000000D+00 0.000000000000000D+00 0.302025164698200D+03
 0.302025164698200D+03 0.000000000000000D+00 0.000000000000000D+00 -.302025164698200D+03
 0.114014464564554D+03 0.592094353748515D+02 0.173544247908323D+02 -.296161018486999D+02
 0.143490851106499D+03 -.455171495575785D+02 0.136078393028127D+03 -.695987286492326D+00
 0.905413671593825D+02 0.490139443444627D+01 0.670113575567703D+02 -.606893191433779D+02
 0.256003646565965D+03 -.185936802517193D+02 -.220444175375730D+03 0.910014082785701D+02
 0.000000000000000D+00 -.000000000000000D+00 -.000000000000000D+00 -.000000000000000D+00
 0.327323963202037D+03 0.000000000000000D+00 0.000000000000000D+00 0.327323963202037D+03
 0.472968817753875D+03 0.000000000000000D+00 0.000000000000000D+00 -.472968817753875D+03
 0.127307299301666D+03 0.783466297279474D+02 0.296072496703659D+02 -.296161018486999D+02
 0.152716512036030D+03 -.220274411016968D+02 0.151117968781542D+03 -.695987286492326D+00
 0.998113915733416D+02 0.199966667428965D+02 0.766762919610337D+02 -.606893191433779D+02
 0.235022843703553D+03 0.203454905311348D+02 -.195512890687210D+03 0.910014082785701D+02
 0.185434734341321D+03 -.966613459002817D+02 -.618886197257317D+02 -.145644854551838D+03
0.252011509830D-05 0.000000000000D+00 0.000000000000D+00 0.138234088751D-06 0.000000000000D+00  7 2 -2 23 -11 11 23 21 0 0.15569921D+00 0.13866700D-01 0.78417882D+05 0.78417882D+05 0.78417882D+05 0.11304909D+01  1  2  2  1  7  1        2 0.286133605464D-03 0.100000000000D+01
-.139033311100D-06 0.000000000000D+00 -.967790553901D-08 0.138234088751D-06 0.000000000000D+00  7 2 -2 23 -11 11 23 21 2 0.15569921D+00 0.13866700D-01 0.78417882D+05 0.78417882D+05 0.78417882D+05 0.11304909D+01  1  2  3  1  7  1        2 -.201744395742D-04 0.100000000000D+01
0.158310819219D-06 0.000000000000D+00 0.000000000000D+00 0.138234088751D-06 0.000000000000D+00  7 2 -2 23 -11 11 23 21 2 0.15569921D+00 0.13866700D-01 0.78417882D+05 0.78417882D+05 0.78417882D+05 0.11304909D+01  1  2 15  1  7  1        2 0.229717039105D-04 0.100000000000D+01
-.225879600313D-06 0.000000000000D+00 0.000000000000D+00 0.138234088751D-06 0.000000000000D+00  7 2 -2 23 -11 11 23 21 2 0.15569921D+00 0.13866700D-01 0.78417882D+05 0.78417882D+05 0.78417882D+05 0.11304909D+01  1  2  4  1  7  1        2 -.327762772211D-04 0.100000000000D+01
  </mgrwgt>
  </event>
  <event>
  8     66 0.55102590E-06 0.41992121E+03 0.75467711E-02 0.87915205E-01
        2 -1    0    0  501    0 0.00000000E+00 0.00000000E+00 0.12244259E+04 0.12244259E+04 0.32000000E+00 0.0000E+00 0.9000E+01
       -2 -1    0    0    0  501 0.00000000E+00 0.00000000E+00 -.53016499E+03 0.53016509E+03 0.32000000E+00 0.0000E+00 0.9000E+01
       25  2    1    2    0    0 0.58852138E+03 -.49183789E+03 0.47802338E+03 0.95221349E+03 0.29990374E+03 0.0000E+00 0.0000E+00
       23  2    1    2    0    0 -.58852138E+03 0.49183789E+03 0.21623753E+03 0.80237755E+03 0.93750392E+02 0.0000E+00 0.0000E+00
       23  1    3    3    0    0 0.50243388E+03 -.40882850E+03 0.46228875E+03 0.80100355E+03 0.91188000E+02 0.0000E+00 0.9000E+01
      -11  1    4    4    0    0 -.53440876E+03 0.41968720E+03 0.21308510E+03 0.71213435E+03 0.51099893E-03 0.0000E+00 0.9000E+01
       11  1    4    4    0    0 -.54112621E+02 0.72150686E+02 0.31524303E+01 0.90243199E+02 0.51099893E-03 0.0000E+00 0.9000E+01
       23  1    3    3    0    0 0.86087500E+02 -.83009387E+02 0.15734635E+02 0.15120994E+03 0.91188000E+02 0.0000E+00 0.9000E+01
#aMCatNLO 1  0  0  2  1 0.29153519D+03 0.00000000D+00  -5  7  0 0.00000000D+00 0.00000000D+00 0.00000000D+00 0.00000000D+00 0.00000000D+00
  <mgrwgt>
 0.4988660008D-03    9    2    0
 0.805697133174174D+03 0.000000000000000D+00 0.000000000000000D+00 0.805697133174174D+03
 0.805697133174174D+03 0.000000000000000D+00 0.000000000000000D+00 -.805697133174174D+03
 0.673010111525600D+03 0.502433879384378D+03 -.408828500447498D+03 0.158261849288815D+03
 0.683611644240616D+03 -.534408758663060D+03 0.419687201330526D+03 -.747984748836313D+02
 0.969044649520017D+02 -.541126207106905D+02 0.721506858042088D+02 -.354482460135481D+02
 0.157868045630129D+03 0.860874999893728D+02 -.830093866872361D+02 -.480151283916353D+02
 0.000000000000000D+00 0.000000000000000D+00 0.000000000000000D+00 -.000000000000000D+00
 0.939837174218740D+03 0.000000000000000D+00 0.000000000000000D+00 0.939837174218740D+03
 0.994295028946285D+03 0.000000000000000D+00 0.000000000000000D+00 -.994295028946285D+03
 0.677012594906313D+03 0.420558266096942D+03 -.498111166503019D+03 0.158261849288815D+03
 0.704095113601467D+03 -.618569818562366D+03 0.327912330839003D+03 -.747984748836313D+02
 0.954738121929974D+02 -.657798981197178D+02 0.594279031481531D+02 -.354482460135481D+02
 0.160972828643335D+03 0.667505718044848D+02 -.104095671508212D+03 -.480151283916353D+02
 0.296577853820911D+03 0.197040878780656D+03 0.214866604024074D+03 -.544578547275450D+02
0.112185959393D-03 0.000000000000D+00 0.000000000000D+00 0.843447758354D-06 0.000000000000D+00  7 2 -2 23 -11 11 23 21 0 0.18837323D+00 0.81563855D-01 0.61954360D+06 0.61954360D+06 0.61954360D+06 0.10619920D+01  1  2  2  2  7  2       -2 0.340347524764D-03 0.100000000000D+01
-.622842566006D-05 0.000000000000D+00 -.430823623312D-06 0.843447758354D-06 0.000000000000D+00  7 2 -2 23 -11 11 23 21 2 0.18837323D+00 0.81563855D-01 0.61954360D+06 0.61954360D+06 0.61954360D+06 0.10619920D+01  1  2  3  2  7  2       -2 -.213110513336D-04 0.100000000000D+01
0.711896993141D-05 0.000000000000D+00 0.000000000000D+00 0.843447758354D-06 0.000000000000D+00  7 2 -2 23 -11 11 23 21 2 0.18837323D+00 0.81563855D-01 0.61954360D+06 0.61954360D+06 0.61954360D+06 0.10619920D+01  1  2 15  2  7  2       -2 0.243581190386D-04 0.100000000000D+01
0.565646532523D-04 0.000000000000D+00 0.000000000000D+00 0.843447758354D-06 0.000000000000D+00  7 2 -2 23 -11 11 23 21 2 0.18837323D+00 0.10610734D+00 0.89510034D+06 0.89510034D+06 0.89510034D+06 0.10510828D+01  1  2 12  2  7  2       -2 0.995821271398D-04 0.100000000000D+01
-.597098013794D-04 0.000000000000D+00 0.000000000000D+00 0.843447758354D-06 0.000000000000D+00  7 2 -2 23 -11 11 23 21 2 0.18837323D+00 0.81563855D-01 0.61954360D+06 0.61954360D+06 0.61954360D+06 0.10619920D+01  1  2  4  2  7  2       -2 -.204301811046D-03 0.100000000000D+01
-.127096730255D-03 0.000000000000D+00 -.500348100946D-04 0.843447758354D-06 0.000000000000D+00  7 2 -2 23 -11 11 23 21 2 0.18837323D+00 0.11455775D+00 0.61954360D+06 0.61954360D+06 0.61954360D+06 0.10619920D+01  1  2  5  2  7  2       -2 -.192083177155D-03 0.100000000000D+01
0.138764053214D-03 0.000000000000D+00 0.472805942371D-04 0.843447758354D-06 0.000000000000D+00  7 2 -2 23 -11 11 23 21 2 0.18837323D+00 0.81563855D-01 0.61954360D+06 0.61954360D+06 0.61954360D+06 0.10619920D+01  1  2  6  2  7  2       -2 0.474792190307D-03 0.100000000000D+01
0.198736224915D-05 0.000000000000D+00 0.000000000000D+00 0.843447758354D-06 0.000000000000D+00  7 2 21 23 -11 11 23 2 2 0.18837323D+00 0.10610734D+00 0.89510034D+06 0.89510034D+06 0.89510034D+06 0.10510828D+01  1  2 12  4  7  2       -2 0.308198925858D-04 0.100000000000D+01
-.401906013207D-05 0.000000000000D+00 -.211535254157D-05 0.843447758354D-06 0.000000000000D+00  7 2 21 23 -11 11 23 2 2 0.18837323D+00 0.11455775D+00 0.61954360D+06 0.61954360D+06 0.61954360D+06 0.10619920D+01  1  2  5  4  7  2       -2 -.533378135479D-04 0.100000000000D+01
  </mgrwgt>
  </event>
  <event>
  8     66 0.55102590E-06 0.71405282E+02 0.75467711E-02 0.10057544E+00
        2 -1    0    0  501    0 0.00000000E+00 0.00000000E+00 0.27360891E+04 0.27360891E+04 0.32000000E+00 0.0000E+00 0.9000E+01
       -2 -1    0    0    0  501 0.00000000E+00 0.00000000E+00 -.28617887E+02 0.28619676E+02 0.32000000E+00 0.0000E+00 0.9000E+01
       25  2    1    2    0    0 -.18005860E+03 0.19116840E+02 0.15045914E+04 0.15448903E+04 0.30017358E+03 0.0000E+00 0.0000E+00
       23  2    1    2    0    0 0.18005860E+03 -.19116840E+02 0.12028797E+04 0.12198184E+04 0.90833835E+02 0.0000E+00 0.0000E+00
       23  1    3    3    0    0 -.15261962E+03 0.34521792E+02 0.13539548E+04 0.13660137E+04 0.91188000E+02 0.0000E+00 0.9000E+01
      -11  1    4    4    0    0 0.15357915E+03 -.48599282E+02 0.89266494E+03 0.90708277E+03 0.51099893E-03 0.0000E+00 0.9000E+01
       11  1    4    4    0    0 0.26479441E+02 0.29482441E+02 0.31021480E+03 0.31273567E+03 0.51099893E-03 0.0000E+00 0.9000E+01
       23  1    3    3    0    0 -.27438975E+02 -.15404952E+02 0.15063664E+03 0.17887666E+03 0.91188000E+02 0.0000E+00 0.9000E+01
#aMCatNLO 1  0  0  1  2 0.12187431D+03 0.00000000D+00  -5  7  0 0.00000000D+00 0.00000000D+00 0.00000000D+00 0.00000000D+00 0.00000000D+00
  <mgrwgt>
 0.3477314489D-03    9    2    0
 0.279827779945568D+03 0.000000000000000D+00 0.000000000000000D+00 0.279827779945568D+03
 0.279827779945568D+03 0.000000000000000D+00 0.000000000000000D+00 -.279827779945568D+03
 0.198043899757307D+03 -.152619620365276D+03 0.345217921251702D+02 0.801350874156122D+02
 0.162519726789911D+03 0.153579154826915D+03 -.485992817184345D+02 0.215456402775592D+02
 0.441796870022227D+02 0.264794408328686D+02 0.294824413108750D+02 0.195312470452807D+02
 0.154912246341694D+03 -.274389752945078D+02 -.154049517176108D+02 -.121211974738452D+03
 0.000000000000000D+00 -.000000000000000D+00 0.000000000000000D+00 0.000000000000000D+00
 0.356298625329936D+03 0.000000000000000D+00 0.000000000000000D+00 0.356298625329936D+03
 0.339499908630174D+03 0.000000000000000D+00 0.000000000000000D+00 -.339499908630174D+03
 0.169999139700776D+03 -.118030168050525D+03 0.152218050789285D+02 0.801350874156122D+02
 0.200691048099207D+03 0.187714460840934D+03 -.676458673045580D+02 0.215456402775592D+02
 0.471222932121520D+02 0.350601913220438D+02 0.246946125883749D+02 0.195312470452807D+02
 0.154959456404045D+03 0.168341349348940D+01 -.316544638882404D+02 -.121211974738452D+03
 0.123026596543931D+03 -.106427897605941D+03 0.593839135254951D+02 0.167987166997624D+02
0.317337276640D-05 0.000000000000D+00 0.000000000000D+00 0.196867806961D-06 0.000000000000D+00  7 2 -2 23 -11 11 23 21 0 0.42093692D+00 0.44028909D-02 0.57189140D+05 0.57189140D+05 0.57189140D+05 0.11421986D+01  1  2  2  1  7  1        2 0.232194818688D-03 0.100000000000D+01
-.171007170909D-06 0.000000000000D+00 -.121865869912D-07 0.196867806961D-06 0.000000000000D+00  7 2 -2 23 -11 11 23 21 2 0.42093692D+00 0.44028909D-02 0.57189140D+05 0.57189140D+05 0.57189140D+05 0.11421986D+01  1  2  3  1  7  1        2 -.163240910158D-04 0.100000000000D+01
0.200795702665D-06 0.000000000000D+00 0.000000000000D+00 0.196867806961D-06 0.000000000000D+00  7 2 -2 23 -11 11 23 21 2 0.42093692D+00 0.44028909D-02 0.57189140D+05 0.57189140D+05 0.57189140D+05 0.11421986D+01  1  2 15  1  7  1        2 0.191676600955D-04 0.100000000000D+01
0.783661559823D-06 0.000000000000D+00 0.000000000000D+00 0.196867806961D-06 0.000000000000D+00  7 2 -2 23 -11 11 23 21 2 0.57039759D+00 0.44028909D-02 0.93256033D+05 0.93256033D+05 0.93256033D+05 0.11242189D+01  1  2 12  1  7  1        2 0.164722903718D-04 0.100000000000D+01
-.116860095155D-05 0.000000000000D+00 0.000000000000D+00 0.196867806961D-06 0.000000000000D+00  7 2 -2 23 -11 11 23 21 2 0.42093692D+00 0.44028909D-02 0.57189140D+05 0.57189140D+05 0.57189140D+05 0.11421986D+01  1  2  4  1  7  1        2 -.111552914376D-03 0.100000000000D+01
-.257533095353D-05 0.000000000000D+00 -.103149031077D-05 0.196867806961D-06 0.000000000000D+00  7 2 -2 23 -11 11 23 21 2 0.56659843D+00 0.44028909D-02 0.57189140D+05 0.57189140D+05 0.57189140D+05 0.11421986D+01  1  2  5  1  7  1        2 -.595891159817D-04 0.100000000000D+01
0.280118628392D-05 0.000000000000D+00 0.987563246614D-06 0.196867806961D-06 0.000000000000D+00  7 2 -2 23 -11 11 23 21 2 0.42093692D+00 0.44028909D-02 0.57189140D+05 0.57189140D+05 0.57189140D+05 0.11421986D+01  1  2  6  1  7  1        2 0.267397089887D-03 0.100000000000D+01
0.305729702045D-07 0.000000000000D+00 0.000000000000D+00 0.196867806961D-06 0.000000000000D+00  7 21 -2 23 -11 11 23 -2 2 0.57039759D+00 0.44028909D-02 0.93256033D+05 0.93256033D+05 0.93256033D+05 0.11242189D+01  1  2 12  3  7  1        2 0.180518307101D-07 0.100000000000D+01
-.760806195071D-07 0.000000000000D+00 -.396000954252D-07 0.196867806961D-06 0.000000000000D+00  7 21 -2 23 -11 11 23 -2 2 0.56659843D+00 0.44028909D-02 0.57189140D+05 0.57189140D+05 0.57189140D+05 0.11421986D+01  1  2  5  3  7  1        2 -.523406230574D-07 0.100000000000D+01
  </mgrwgt>
  </event>
  <event>
  8     66 0.55102590E-06 0.34957858E+03 0.75467711E-02 0.95273800E-01
        2 -1    0    0  501    0 0.00000000E+00 0.00000000E+00 0.63337927E+03 0.63337936E+03 0.32000000E+00 0.0000E+00 0.9000E+01
       21 -1    0    0  502  501 0.00000000E+00 0.00000000E+00 -.52649562E+03 0.52649615E+03 0.75000000E+00 0.0000E+00 0.9000E+01
       25  2    1    2    0    0 0.38751805E+03 -.52523908E+02 0.29133852E+03 0.57285648E+03 0.30059509E+03 0.0000E+00 0.0000E+00
       23  1    3    3    0    0 0.16776021E+03 -.12383647E+03 0.64669931E+02 0.23659335E+03 0.91188000E+02 0.0000E+00 0.9000E+01
      -11  1    1    2    0    0 -.21298271E+03 -.42559906E+02 -.19929772E+03 0.29477544E+03 0.51099893E-03 0.0000E+00 0.9000E+01
       11  1    1    2    0    0 0.27522612E+02 -.17949158E+01 0.57834165E+02 0.64074227E+02 0.51099893E-03 0.0000E+00 0.9000E+01
       23  1    3    3    0    0 0.21975784E+03 0.71312566E+02 0.22666859E+03 0.33626313E+03 0.91188000E+02 0.0000E+00 0.9000E+01
        2  1    1    2  502    0 -.20205795E+03 0.96878730E+02 -.42991316E+02 0.22816937E+03 0.32000000E+00 0.0000E+00 0.9000E+01
#aMCatNLO 2  0  0  2  1 0.22408236D+03 0.00000000D+00  -5  7  0 0.00000000D+00 0.00000000D+00 0.00000000D+00 0.00000000D+00 0.00000000D+00
  <mgrwgt>
 0.2008729847D-03    2    2    0
 0.445926262272394D+03 0.000000000000000D+00 0.000000000000000D+00 0.445926262272394D+03
 0.445926262272394D+03 0.000000000000000D+00 0.000000000000000D+00 -.445926262272394D+03
 0.184838485273049D+03 0.121578502350113D+03 -.101694183535156D+03 0.269624756922761D+02
 0.385069864081420D+03 -.292874139206702D+03 -.425515367366107D+01 -.249970863251760D+03
 0.507879831969944D+02 0.156672653253987D+02 0.388924480278675D+01 0.481542294020550D+02
 0.271156191993325D+03 0.155628371531190D+03 0.102060092406030D+03 0.174854158157429D+03
 0.000000000000000D+00 -.000000000000000D+00 0.000000000000000D+00 -.000000000000000D+00
 0.538506462587299D+03 0.000000000000000D+00 0.000000000000000D+00 0.538506462587299D+03
 0.619252814982128D+03 0.000000000000000D+00 0.000000000000000D+00 -.619252814982128D+03
 0.229175018883438D+03 0.167760217198677D+03 -.123836474296631D+03 0.269624756922761D+02
 0.331147119759957D+03 -.212982714928524D+03 -.425599059228261D+02 -.249970863251760D+03
 0.554936478264221D+02 0.275225983719955D+02 -.179491465843426D+01 0.481542294020550D+02
 0.303756847566898D+03 0.219757849891529D+03 0.713125647125987D+02 0.174854158157429D+03
 0.238186643532713D+03 -.202057950533677D+03 0.968787301652932D+02 -.807463523948284D+02
-.565939778506D-06 0.000000000000D+00 0.000000000000D+00 0.135561067084D-09 0.000000000000D+00  7 2 21 23 -11 11 23 2 2 0.80690564D-01 0.85153372D-01 0.22317288D+06 0.22317288D+06 0.22317288D+06 0.10941873D+01  1  2 13  4  7  2       -2 -.568271130833D-04 0.100000000000D+01
0.282618304012D-05 0.000000000000D+00 0.000000000000D+00 0.135561067084D-09 0.902884827823D-15  7 2 21 23 -11 11 23 2 2 0.97442994D-01 0.80999358D-01 0.22317288D+06 0.22317288D+06 0.22317288D+06 0.10941873D+01  1  2  1  4  7  2       -2 0.257700097814D-03 0.100000000000D+01
  </mgrwgt>
  </event>
  <event>
  8     66 0.55102590E-06 0.26301854E+03 0.75467711E-02 0.98888999E-01
        2 -1    0    0  501    0 0.00000000E+00 0.00000000E+00 0.72742855E+03 0.72742862E+03 0.32000000E+00 0.0000E+00 0.9000E+01
       -2 -1    0    0    0  501 0.00000000E+00 0.00000000E+00 -.13226993E+03 0.13227032E+03 0.32000000E+00 0.0000E+00 0.9000E+01
       25  2    1    2    0    0 -.10197224E+03 -.14389414E+03 0.16384200E+03 0.38524275E+03 0.30077220E+03 0.0000E+00 0.0000E+00
       23  2    1    2    0    0 0.10197224E+03 0.14389414E+03 0.43131662E+03 0.47445619E+03 0.89279269E+02 0.0000E+00 0.0000E+00
       23  1    3    3    0    0 0.54158701E+02 0.13180488E+02 0.71310846E+02 0.12848104E+03 0.91188000E+02 0.0000E+00 0.9000E+01
      -13  1    4    4    0    0 0.83774203E+02 0.90871800E+02 0.37562555E+03 0.39543693E+03 0.10565837E+00 0.0000E+00 0.9000E+01
       13  1    4    4    0    0 0.18198036E+02 0.53022338E+02 0.55691073E+02 0.79019260E+02 0.10565837E+00 0.0000E+00 0.9000E+01
       23  1    3    3    0    0 -.15613094E+03 -.15707463E+03 0.92531157E+02 0.25676171E+03 0.91188000E+02 0.0000E+00 0.9000E+01
#aMCatNLO 1  0  0  1  1 0.15462665D+03 0.00000000D+00  -5  7  0 0.00000000D+00 0.00000000D+00 0.00000000D+00 0.00000000D+00 0.00000000D+00
  <mgrwgt>
 0.2217682626D-03    4    2    0
 0.310188845524580D+03 0.000000000000000D+00 0.000000000000000D+00 0.310188845524580D+03
 0.310188845524580D+03 0.000000000000000D+00 0.000000000000000D+00 -.310188845524580D+03
 0.109632812506927D+03 0.541587012826319D+02 0.131804879644910D+02 -.244379223048037D+02
 0.187627698552392D+03 0.837742946169675D+02 0.908718537480052D+02 0.141167726559218D+03
 0.560749334816809D+02 0.181979438800104D+02 0.530222841734526D+02 0.136762002931057D+01
 0.267042246508160D+03 -.156130939779610D+03 -.157074625885949D+03 -.118097424283724D+03
 0.000000000000000D+00 0.000000000000000D+00 -.000000000000000D+00 -.000000000000000D+00
 0.374451189675002D+03 0.000000000000000D+00 0.000000000000000D+00 0.374451189675002D+03
 0.428809215940606D+03 0.000000000000000D+00 0.000000000000000D+00 -.428809215940606D+03
 0.100799296088723D+03 0.292102673484955D+02 0.198694484783993D+02 -.244379223048037D+02
 0.179065254549851D+03 0.402998696556914D+02 0.102527844368440D+03 0.141167726559218D+03
 0.568318230408390D+02 0.481193176133538D+01 0.566112271402494D+02 0.136762002931057D+01
 0.302661023113076D+03 -.223673885003420D+03 -.138965589671978D+03 -.118097424283724D+03
 0.163903008823120D+03 0.149351816237898D+03 -.400429303151112D+02 -.543580262656037D+02
0.326503432084D-05 0.000000000000D+00 0.000000000000D+00 0.527784957469D-07 0.000000000000D+00  7 2 -2 23 -13 13 23 21 0 0.11191212D+00 0.20349255D-01 0.69178753D+05 0.69178753D+05 0.69178753D+05 0.11350956D+01  1  2  2  1  7  1        2 0.306327326189D-03 0.100000000000D+01
-.175389611058D-06 0.000000000000D+00 -.125385914953D-07 0.527784957469D-07 0.000000000000D+00  7 2 -2 23 -13 13 23 21 2 0.11191212D+00 0.20349255D-01 0.69178753D+05 0.69178753D+05 0.69178753D+05 0.11350956D+01  1  2  3  1  7  1        2 -.212015064187D-04 0.100000000000D+01
0.207484005393D-06 0.000000000000D+00 0.000000000000D+00 0.527784957469D-07 0.000000000000D+00  7 2 -2 23 -13 13 23 21 2 0.11191212D+00 0.20349255D-01 0.69178753D+05 0.69178753D+05 0.69178753D+05 0.11350956D+01  1  2 15  1  7  1        2 0.250811518744D-04 0.100000000000D+01
-.731609843275D-06 0.000000000000D+00 0.000000000000D+00 0.527784957469D-07 0.000000000000D+00  7 2 -2 23 -13 13 23 21 2 0.11191212D+00 0.20349255D-01 0.69178753D+05 0.69178753D+05 0.69178753D+05 0.11350956D+01  1  2  4  1  7  1        2 -.884387090812D-04 0.100000000000D+01
  </mgrwgt>
  </event>
  <event>
  8     66 0.55102590E-06 0.19939088E+03 0.75467711E-02 0.78166438E-01
        4 -1    0    0  501    0 0.00000000E+00 0.00000000E+00 0.13877098E+03 0.13877964E+03 0.15500000E+01 0.0000E+00 0.9000E+01
       -4 -1    0    0    0  501 0.00000000E+00 0.00000000E+00 -.48824541E+03 0.48824787E+03 0.15500000E+01 0.0000E+00 0.9000E+01
       25  2    1    2    0    0 0.15104741E+02 -.44737694E+02 -.47903609E+02 0.30873283E+03 0.30131643E+03 0.0000E+00 0.0000E+00
       23  2    1    2    0    0 -.15104741E+02 0.44737694E+02 -.30157082E+03 0.31829467E+03 0.90204911E+02 0.0000E+00 0.0000E+00
       23  1    3    3    0    0 0.12336784E+03 -.27183397E+02 -.56777260E+02 0.16582361E+03 0.91188000E+02 0.0000E+00 0.9000E+01
      -11  1    4    4    0    0 -.20594687E+02 -.23866747E+02 -.71283339E+02 0.77942781E+02 0.51099893E-03 0.0000E+00 0.9000E+01
       11  1    4    4    0    0 0.54899460E+01 0.68604440E+02 -.23028748E+03 0.24035189E+03 0.51099893E-03 0.0000E+00 0.9000E+01
       23  1    3    3    0    0 -.10826310E+03 -.17554296E+02 0.88736506E+01 0.14290922E+03 0.91188000E+02 0.0000E+00 0.9000E+01
#aMCatNLO 1  0  0  1  2 0.29039953D+04 0.00000000D+00  -5  7  0 0.00000000D+00 0.00000000D+00 0.00000000D+00 0.00000000D+00 0.00000000D+00
  <mgrwgt>
 0.2673628372D-04    5    2    0
 0.260303243692175D+03 0.000000000000000D+00 0.000000000000000D+00 0.260303243692175D+03
 0.260303243692175D+03 0.000000000000000D+00 0.000000000000000D+00 -.260303243692175D+03
 0.161607214709414D+03 0.123367841460415D+03 -.271833974401298D+02 0.429310971108849D+02
 0.460243273637551D+02 -.205946867522321D+02 -.238667466847964D+02 -.335332072660414D+02
 0.134895862930987D+03 0.548994596756644D+01 0.686044402959964D+02 -.116018037825339D+03
 0.178079082380194D+03 -.108263100675750D+03 -.175542961710702D+02 0.106620147980496D+03
 0.000000000000000D+00 -.000000000000000D+00 0.000000000000000D+00 0.000000000000000D+00
 0.677094833685178D+04 0.000000000000000D+00 0.000000000000000D+00 0.677094833685178D+04
 0.187325292492201D+04 0.000000000000000D+00 0.000000000000000D+00 -.187325292492201D+04
 0.147163382383733D+04 0.995170527345423D+03 -.107943661348037D+04 0.429310971108849D+02
 0.290046246975106D+03 0.158795386384943D+03 -.240387966956862D+03 -.335332072660414D+02
 0.489313491333624D+03 0.338684727851477D+03 -.333556835967170D+03 -.116018037825339D+03
 0.699297891980375D+03 0.360069242639486D+03 -.582824651961325D+03 0.106620147980496D+03
 0.569390980764735D+04 -.185271988422133D+04 0.223620606836573D+04 0.489769541192977D+04
0.356217296888D-05 0.000000000000D+00 0.000000000000D+00 0.282405957149D-07 0.000000000000D+00  7 4 -4 23 -11 11 23 21 0 0.21350237D-01 0.75115533D-01 0.39756724D+05 0.39756724D+05 0.39756724D+05 0.11561569D+01  1  2  2  1  7  1        4 0.262994035109D-04 0.100000000000D+01
-.180799149448D-06 0.000000000000D+00 -.136796821422D-07 0.282405957149D-07 0.000000000000D+00  7 4 -4 23 -11 11 23 21 2 0.21350237D-01 0.75115533D-01 0.39756724D+05 0.39756724D+05 0.39756724D+05 0.11561569D+01  1  2  3  1  7  1        4 -.178427113069D-05 0.100000000000D+01
0.225065292023D-06 0.000000000000D+00 0.000000000000D+00 0.282405957149D-07 0.000000000000D+00  7 4 -4 23 -11 11 23 21 2 0.21350237D-01 0.75115533D-01 0.39756724D+05 0.39756724D+05 0.39756724D+05 0.11561569D+01  1  2 15  1  7  1        4 0.222112495718D-05 0.100000000000D+01
0.344344787911D-04 0.000000000000D+00 -.990471039681D-05 0.282405957149D-07 0.000000000000D+00  7 4 -4 23 -11 11 23 21 2 0.85565864D+00 0.75115533D-01 0.39756724D+05 0.39756724D+05 0.39756724D+05 0.11561569D+01  1  2  5  1  7  1        4 0.361748509645D-11 0.100000000000D+01
0.887524000364D-05 0.000000000000D+00 -.344322410630D-05 0.282405957149D-07 0.000000000000D+00  7 21 -4 23 -11 11 23 -4 2 0.85565864D+00 0.75115533D-01 0.39756724D+05 0.39756724D+05 0.39756724D+05 0.11561569D+01  1  2  5  3  7  1        4 0.227697277680D-10 0.100000000000D+01
  </mgrwgt>
  </event>
  <event>
  8     66 0.55102590E-06 0.21611050E+03 0.75467711E-02 0.91196737E-01
        2 -1    0    0  501    0 0.00000000E+00 0.00000000E+00 0.35711474E+03 0.35711488E+03 0.32000000E+00 0.0000E+00 0.9000E+01
       -2 -1    0    0    0  501 0.00000000E+00 0.00000000E+00 -.19298090E+03 0.19298116E+03 0.32000000E+00 0.0000E+00 0.9000E+01
       25  2    1    2    0    0 -.10512386E+03 -.45040752E+02 -.59859573E+01 0.32949792E+03 0.30895526E+03 0.0000E+00 0.0000E+00
       23  2    1    2    0    0 0.10512386E+03 0.45040752E+02 0.17011980E+03 0.22059813E+03 0.81505163E+02 0.0000E+00 0.0000E+00
       23  1    3    3    0    0 0.44365262E+02 0.23583028E+02 0.71274982E+02 0.12617373E+03 0.91188000E+02 0.0000E+00 0.9000E+01
      -13  1    4    4    0    0 0.10211972E+03 0.75233615E+01 0.13158567E+03 0.16673284E+03 0.10565837E+00 0.0000E+00 0.9000E+01
       13  1    4    4    0    0 0.30041417E+01 0.37517390E+02 0.38534128E+02 0.53865291E+02 0.10565837E+00 0.0000E+00 0.9000E+01
       23  1    3    3    0    0 -.14948912E+03 -.68623780E+02 -.77260939E+02 0.20332419E+03 0.91188000E+02 0.0000E+00 0.9000E+01
#aMCatNLO 1  0  0  2  1 0.61838174D+03 0.00000000D+00  -5  7  0 0.00000000D+00 0.00000000D+00 0.00000000D+00 0.00000000D+00 0.00000000D+00
  <mgrwgt>
 0.2491636671D-03    3    2    0
 0.262519398735633D+03 0.000000000000000D+00 0.000000000000000D+00 0.262519398735633D+03
 0.262519398735633D+03 0.000000000000000D+00 0.000000000000000D+00 -.262519398735633D+03
 0.109913493175945D+03 0.443648263863538D+02 0.235828236066205D+02 0.352326162608780D+02
 0.133555247653554D+03 0.102120141536057D+03 0.752342383732606D+01 0.857430986273630D+02
 0.443896604288979D+02 0.300406285103708D+01 0.375174755707299D+02 0.235341578600035D+02
 0.237180396212870D+03 -.149489030773448D+03 -.686237230146765D+02 -.144509872748245D+03
 0.000000000000000D+00 -.000000000000000D+00 0.000000000000000D+00 0.000000000000000D+00
 0.138864166683245D+04 0.000000000000000D+00 0.000000000000000D+00 0.138864166683245D+04
 0.502853671419519D+03 0.000000000000000D+00 0.000000000000000D+00 -.502853671419519D+03
 0.183523680115325D+03 0.134135590287460D+03 -.783070621893113D+02 0.352326162608780D+02
 0.279211668043207D+03 0.228397262187096D+03 -.135801204835183D+03 0.857430986273630D+02
 0.377683870601682D+02 0.281385425796701D+02 0.898982182466412D+01 0.235341578600035D+02
 0.310706294909470D+03 0.181250661101826D+02 -.258865851377037D+03 -.144509872748245D+03
 0.108028530812380D+04 -.408796461164409D+03 0.463984296576867D+03 0.885787995412936D+03
0.223376931603D-05 0.000000000000D+00 0.000000000000D+00 0.118170184847D-10 0.000000000000D+00  7 2 -2 23 -13 13 23 21 0 0.54940761D-01 0.29689400D-01 0.46703747D+05 0.46703747D+05 0.46703747D+05 0.11499097D+01  1  2  2  2  7  2       -2 0.245215800446D-03 0.100000000000D+01
-.118388198999D-06 0.000000000000D+00 -.857826233853D-08 0.118170184847D-10 0.000000000000D+00  7 2 -2 23 -13 13 23 21 2 0.54940761D-01 0.29689400D-01 0.46703747D+05 0.46703747D+05 0.46703747D+05 0.11499097D+01  1  2  3  2  7  2       -2 -.171848621123D-04 0.100000000000D+01
0.145585439071D-06 0.000000000000D+00 0.000000000000D+00 0.118170184847D-10 0.000000000000D+00  7 2 -2 23 -13 13 23 21 2 0.54940761D-01 0.29689400D-01 0.46703747D+05 0.46703747D+05 0.46703747D+05 0.11499097D+01  1  2 15  2  7  2       -2 0.211327287446D-04 0.100000000000D+01
  </mgrwgt>
  </event>
  <event>
  8     66 0.55102590E-06 0.13664518E+03 0.75467711E-02 0.10139183E+00
        2 -1    0    0  501    0 0.00000000E+00 0.00000000E+00 0.23756371E+04 0.23756372E+04 0.32000000E+00 0.0000E+00 0.9000E+01
       -2 -1    0    0    0  501 0.00000000E+00 0.00000000E+00 -.35344541E+02 0.35345990E+02 0.32000000E+00 0.0000E+00 0.9000E+01
       25  2    1    2    0    0 0.14032667E+03 0.14209396E+03 0.14261696E+04 0.14710277E+04 0.30013413E+03 0.0000E+00 0.0000E+00
       23  2    1    2    0    0 -.14032667E+03 -.14209396E+03 0.91412299E+03 0.93995544E+03 0.89516081E+02 0.0000E+00 0.0000E+00
       23  1    3    3    0    0 0.81509128E+01 0.16584299E+03 0.92595012E+03 0.94512920E+03 0.91188000E+02 0.0000E+00 0.9000E+01
      -13  1    4    4    0    0 -.34289049E+01 -.64711600E+01 0.20455001E+03 0.20468110E+03 0.10565837E+00 0.0000E+00 0.9000E+01
       13  1    4    4    0    0 -.13689777E+03 -.13562280E+03 0.70957298E+03 0.73527435E+03 0.10565837E+00 0.0000E+00 0.9000E+01
       23  1    3    3    0    0 0.13217576E+03 -.23749029E+02 0.50021948E+03 0.52589849E+03 0.91188000E+02 0.0000E+00 0.9000E+01
#aMCatNLO 1  0  0  2  1 0.21135556D+02 0.00000000D+00  -5  7  0 0.00000000D+00 0.00000000D+00 0.00000000D+00 0.00000000D+00 0.00000000D+00
  <mgrwgt>
 0.1119158720D-03    9    2    0
 0.289771595001700D+03 0.000000000000000D+00 0.000000000000000D+00 0.289771595001700D+03
 0.289771595001700D+03 0.000000000000000D+00 0.000000000000000D+00 -.289771595001700D+03
 0.192731746128881D+03 0.815091348893422D+01 0.165842986565457D+03 0.354956481590795D+02
 0.254953627664129D+02 -.342871921753119D+01 -.647098031141444D+01 0.244209709251621D+02
 0.193472739478078D+03 -.136897955620279D+03 -.135622978059758D+03 -.172353848330378D+02
 0.167843341630028D+03 0.132175761348876D+03 -.237490281942846D+02 -.426812342512037D+02
 0.000000000000000D+00 -.000000000000000D+00 0.000000000000000D+00 -.000000000000000D+00
 0.294324305129375D+03 0.000000000000000D+00 0.000000000000000D+00 0.294324305129375D+03
 0.315577998965579D+03 0.000000000000000D+00 0.000000000000000D+00 -.315577998965579D+03
 0.190521510339151D+03 0.144549950265782D+02 0.162832142522475D+03 0.354956481590795D+02
 0.255011831843933D+02 -.258988385635296D+01 -.687161003600871D+01 0.244209709251621D+02
 0.191227849128498D+03 -.130570067109937D+03 -.138645192368417D+03 -.172353848330378D+02
 0.172677919142911D+03 0.137776950006729D+03 -.264241689587896D+02 -.426812342512037D+02
 0.299738423000020D+02 -.190719940670180D+02 0.910882884074022D+01 -.212536938362046D+02
0.243234387657D-05 0.000000000000D+00 0.000000000000D+00 0.136214113101D-06 0.000000000000D+00  7 2 -2 23 -13 13 23 21 0 0.36548275D+00 0.54377348D-02 0.76117376D+05 0.76117376D+05 0.76117376D+05 0.11315794D+01  1  2  2  2  7  2       -2 0.207626577553D-03 0.100000000000D+01
-.134734492220D-06 0.000000000000D+00 -.934084093689D-08 0.136214113101D-06 0.000000000000D+00  7 2 -2 23 -13 13 23 21 2 0.36548275D+00 0.54377348D-02 0.76117376D+05 0.76117376D+05 0.76117376D+05 0.11315794D+01  1  2  3  2  7  2       -2 -.147267467250D-04 0.100000000000D+01
0.155270044641D-06 0.000000000000D+00 0.000000000000D+00 0.136214113101D-06 0.000000000000D+00  7 2 -2 23 -13 13 23 21 2 0.36548275D+00 0.54377348D-02 0.76117376D+05 0.76117376D+05 0.76117376D+05 0.11315794D+01  1  2 15  2  7  2       -2 0.169713232575D-04 0.100000000000D+01
0.113641266730D-04 0.000000000000D+00 0.000000000000D+00 0.136214113101D-06 0.000000000000D+00  7 2 -2 23 -13 13 23 21 2 0.36548275D+00 0.59622955D-02 0.82206726D+05 0.82206726D+05 0.82206726D+05 0.11287725D+01  1  2 12  2  7  2       -2 0.107564890160D-02 0.100000000000D+01
-.115490581534D-04 0.000000000000D+00 0.000000000000D+00 0.136214113101D-06 0.000000000000D+00  7 2 -2 23 -13 13 23 21 2 0.36548275D+00 0.54377348D-02 0.76117376D+05 0.76117376D+05 0.76117376D+05 0.11315794D+01  1  2  4  2  7  2       -2 -.126233491910D-02 0.100000000000D+01
-.228487522782D-04 0.000000000000D+00 -.327302804094D-05 0.136214113101D-06 0.000000000000D+00  7 2 -2 23 -13 13 23 21 2 0.36548275D+00 0.60298926D-02 0.76117376D+05 0.76117376D+05 0.76117376D+05 0.11315794D+01  1  2  5  2  7  2       -2 -.214064874761D-02 0.100000000000D+01
0.230810657257D-04 0.000000000000D+00 0.325561995747D-05 0.136214113101D-06 0.000000000000D+00  7 2 -2 23 -13 13 23 21 2 0.36548275D+00 0.54377348D-02 0.76117376D+05 0.76117376D+05 0.76117376D+05 0.11315794D+01  1  2  6  2  7  2       -2 0.252280617595D-02 0.100000000000D+01
0.172135181048D-06 0.000000000000D+00 0.000000000000D+00 0.136214113101D-06 0.000000000000D+00  7 2 21 23 -13 13 23 2 2 0.36548275D+00 0.59622955D-02 0.82206726D+05 0.82206726D+05 0.82206726D+05 0.11287725D+01  1  2 12  4  7  2       -2 0.259929583755D-03 0.100000000000D+01
-.370376812559D-06 0.000000000000D+00 -.547004834906D-07 0.136214113101D-06 0.000000000000D+00  7 2 21 23 -13 13 23 2 2 0.36548275D+00 0.60298926D-02 0.76117376D+05 0.76117376D+05 0.76117376D+05 0.11315794D+01  1  2  5  4  7  2       -2 -.553356276723D-03 0.100000000000D+01
  </mgrwgt>
  </event>
  <event>
  8     66 0.55102590E-06 0.30562237E+03 0.75467711E-02 0.90993976E-01
        2 -1    0    0  501    0 0.00000000E+00 0.00000000E+00 0.10222216E+04 0.10222217E+04 0.32000000E+00 0.0000E+00 0.9000E+01
       -2 -1    0    0    0  501 0.00000000E+00 0.00000000E+00 -.96982574E+02 0.96983102E+02 0.32000000E+00 0.0000E+00 0.9000E+01
       25  2    1    2    0    0 -.18321945E+03 0.14165589E+03 0.59930234E+03 0.70887088E+03 0.29949769E+03 0.0000E+00 0.0000E+00
       23  2    1    2    0    0 0.18321945E+03 -.14165589E+03 0.32593671E+03 0.41033390E+03 0.92213969E+02 0.0000E+00 0.0000E+00
       23  1    3    3    0    0 -.84828483E+02 -.57363870E+02 0.24851820E+03 0.28383628E+03 0.91188000E+02 0.0000E+00 0.9000E+01
      -11  1    4    4    0    0 0.88538592E+02 -.90041002E+02 0.10402368E+03 0.16360743E+03 0.51099893E-03 0.0000E+00 0.9000E+01
       11  1    4    4    0    0 0.94680857E+02 -.51614883E+02 0.22191303E+03 0.24672647E+03 0.51099893E-03 0.0000E+00 0.9000E+01
       23  1    3    3    0    0 -.98390967E+02 0.19901976E+03 0.35078415E+03 0.42503460E+03 0.91188000E+02 0.0000E+00 0.9000E+01
#aMCatNLO 1  0  0  2  2 0.57361164D+03 0.00000000D+00  -5  7  0 0.00000000D+00 0.00000000D+00 0.00000000D+00 0.00000000D+00 0.00000000D+00
  <mgrwgt>
 0.2142912810D-03    5    2    0
 0.314861888039651D+03 0.000000000000000D+00 0.000000000000000D+00 0.314861888039651D+03
 0.314861888039651D+03 0.000000000000000D+00 0.000000000000000D+00 -.314861888039651D+03
 0.139318502978339D+03 -.848284829097953D+02 -.573638696902879D+02 0.246558080277979D+02
 0.137938960635906D+03 0.885385922238962D+02 -.900410021002969D+02 -.555039862451258D+02
 0.112453827777857D+03 0.946808574428338D+02 -.516148832888295D+02 0.318951789282066D+02
 0.240012484687199D+03 -.983909667569347D+02 0.199019755079414D+03 -.104700071087866D+01
 0.000000000000000D+00 0.000000000000000D+00 -.000000000000000D+00 -.000000000000000D+00
 0.460328591280328D+03 0.000000000000000D+00 0.000000000000000D+00 0.460328591280328D+03
 0.281551762428040D+04 0.000000000000000D+00 0.000000000000000D+00 -.281551762428040D+04
 0.164273338606670D+03 -.123182812826880D+03 0.537453643353176D+02 0.246558080277979D+02
 0.827419202527859D+02 0.606588334404980D+02 -.927571041253364D+01 -.555039862451258D+02
 0.795295110512984D+02 0.704266077976732D+02 0.186476165583966D+02 0.318951789282066D+02
 0.525266443706311D+03 -.195072617834764D+03 0.479098281253939D+03 -.104700071087866D+01
 0.242403500194367D+04 0.187169989423473D+03 -.542215551735119D+03 -.235518903300008D+04
0.228342480248D-05 0.000000000000D+00 0.000000000000D+00 0.194583463953D-06 0.000000000000D+00  7 2 -2 23 -11 11 23 21 0 0.15726491D+00 0.14920440D-01 0.93405033D+05 0.93405033D+05 0.93405033D+05 0.11241616D+01  1  2  2  2  7  2       -2 0.227336137099D-03 0.100000000000D+01
-.126720111153D-06 0.000000000000D+00 -.876895248107D-08 0.194583463953D-06 0.000000000000D+00  7 2 -2 23 -11 11 23 21 2 0.15726491D+00 0.14920440D-01 0.93405033D+05 0.93405033D+05 0.93405033D+05 0.11241616D+01  1  2  3  2  7  2       -2 -.159435428653D-04 0.100000000000D+01
0.147376178612D-06 0.000000000000D+00 0.000000000000D+00 0.194583463953D-06 0.000000000000D+00  7 2 -2 23 -11 11 23 21 2 0.15726491D+00 0.14920440D-01 0.93405033D+05 0.93405033D+05 0.93405033D+05 0.11241616D+01  1  2 15  2  7  2       -2 0.185424270832D-04 0.100000000000D+01
-.438682024418D-05 0.000000000000D+00 -.186586416839D-05 0.194583463953D-06 0.000000000000D+00  7 2 -2 23 -11 11 23 21 2 0.15726491D+00 0.16949538D+00 0.93405033D+05 0.93405033D+05 0.93405033D+05 0.11241616D+01  1  2  5  2  7  2       -2 -.379457403117D-05 0.100000000000D+01
-.158669006551D-05 0.000000000000D+00 -.531533004319D-06 0.194583463953D-06 0.000000000000D+00  7 2 21 23 -11 11 23 2 2 0.15726491D+00 0.16949538D+00 0.93405033D+05 0.93405033D+05 0.93405033D+05 0.11241616D+01  1  2  5  4  7  2       -2 -.118491663257D-04 0.100000000000D+01
  </mgrwgt>
  </event>
  <event>
  8     66 0.55102590E-06 0.13815398E+03 0.75467711E-02 0.98775474E-01
        2 -1    0    0  501    0 0.00000000E+00 0.00000000E+00 0.13887751E+04 0.13887751E+04 0.32000000E+00 0.0000E+00 0.9000E+01
       -2 -1    0    0    0  501 0.00000000E+00 0.00000000E+00 -.64111982E+02 0.64112780E+02 0.32000000E+00 0.0000E+00 0.9000E+01
       25  2    1    2    0    0 -.10331991E+03 -.18476725E+03 0.80904056E+03 0.88835414E+03 0.29968733E+03 0.0000E+00 0.0000E+00
       23  2    1    2    0    0 0.10331991E+03 0.18476725E+03 0.51562255E+03 0.56453378E+03 0.89542349E+02 0.0000E+00 0.0000E+00
       23  1    3    3    0    0 -.15387179E+03 -.13593219E+03 0.35636320E+03 0.42126484E+03 0.91188000E+02 0.0000E+00 0.9000E+01
      -11  1    4    4    0    0 0.59757965E+02 0.96027121E+02 0.16356943E+03 0.19886473E+03 0.51099893E-03 0.0000E+00 0.9000E+01
       11  1    4    4    0    0 0.43561940E+02 0.88740128E+02 0.35205312E+03 0.36566905E+03 0.51099893E-03 0.0000E+00 0.9000E+01
       23  1    3    3    0    0 0.50551889E+02 -.48835061E+02 0.45267737E+03 0.46708929E+03 0.91188000E+02 0.0000E+00 0.9000E+01
#aMCatNLO 1  0  0  1  2 0.13610758D+03 0.00000000D+00  -5  7  0 0.00000000D+00 0.00000000D+00 0.00000000D+00 0.00000000D+00 0.00000000D+00
  <mgrwgt>
 0.5592655781D-03    8    2    0
 0.298391907532602D+03 0.000000000000000D+00 0.000000000000000D+00 0.298391907532602D+03
 0.298391907532602D+03 0.000000000000000D+00 0.000000000000000D+00 -.298391907532602D+03
 0.234573079503268D+03 -.153871793927783D+03 -.135932188998875D+03 -.674921425876100D+02
 0.121071935962219D+03 0.597579648727423D+02 0.960271213253579D+02 -.431994361291055D+02
 0.108790411704666D+03 0.435619404433671D+02 0.887401283068493D+02 0.454191661280027D+02
 0.132348387895053D+03 0.505518886116736D+02 -.488350606333320D+02 0.652724125887128D+02
 0.000000000000000D+00 -.000000000000000D+00 -.000000000000000D+00 0.000000000000000D+00
 0.570710409395708D+03 0.000000000000000D+00 0.000000000000000D+00 0.570710409395708D+03
 0.323553356543615D+03 0.000000000000000D+00 0.000000000000000D+00 -.323553356543615D+03
 0.198607005491125D+03 -.135387387549738D+03 -.907995444236504D+02 -.674921425876100D+02
 0.149613071241453D+03 0.713084766504512D+02 0.124229549472819D+03 -.431994361291055D+02
 0.134078276201440D+03 0.539254905678311D+02 0.114044399092657D+03 0.454191661280027D+02
 0.129809639091854D+03 0.617385420935740D+02 -.215210509075722D+02 0.652724125887128D+02
 0.282155773913450D+03 -.515851217621182D+02 -.125953353234254D+03 0.247157052852093D+03
0.193762407577D-05 0.000000000000D+00 0.000000000000D+00 0.150946668830D-06 0.000000000000D+00  7 2 -2 23 -11 11 23 21 0 0.21365777D+00 0.98634461D-02 0.76105705D+05 0.76105705D+05 0.76105705D+05 0.11315850D+01  1  2  2  1  7  1        2 0.228697424220D-03 0.100000000000D+01
-.106839904279D-06 0.000000000000D+00 -.744098663911D-08 0.150946668830D-06 0.000000000000D+00  7 2 -2 23 -11 11 23 21 2 0.21365777D+00 0.98634461D-02 0.76105705D+05 0.76105705D+05 0.76105705D+05 0.11315850D+01  1  2  3  1  7  1        2 -.161472885936D-04 0.100000000000D+01
0.122491209927D-06 0.000000000000D+00 0.000000000000D+00 0.150946668830D-06 0.000000000000D+00  7 2 -2 23 -11 11 23 21 2 0.21365777D+00 0.98634461D-02 0.76105705D+05 0.76105705D+05 0.76105705D+05 0.11315850D+01  1  2 15  1  7  1        2 0.185127544828D-04 0.100000000000D+01
0.160652696996D-05 0.000000000000D+00 0.000000000000D+00 0.150946668830D-06 0.000000000000D+00  7 2 -2 23 -11 11 23 21 2 0.41005812D+00 0.98634461D-02 0.12407728D+06 0.12407728D+06 0.12407728D+06 0.11141136D+01  1  2 12  1  7  1        2 0.465887858374D-04 0.100000000000D+01
-.240156013893D-05 0.000000000000D+00 -.531824167916D-06 0.150946668830D-06 0.000000000000D+00  7 2 -2 23 -11 11 23 21 2 0.41707240D+00 0.98634461D-02 0.76105705D+05 0.76105705D+05 0.76105705D+05 0.11315850D+01  1  2  5  1  7  1        2 -.688069223626D-04 0.100000000000D+01
0.231907870445D-05 0.000000000000D+00 0.431616253940D-06 0.150946668830D-06 0.000000000000D+00  7 2 -2 23 -11 11 23 21 2 0.21365777D+00 0.98634461D-02 0.76105705D+05 0.76105705D+05 0.76105705D+05 0.11315850D+01  1  2  6  1  7  1        2 0.350494820871D-03 0.100000000000D+01
0.113669321316D-06 0.000000000000D+00 0.000000000000D+00 0.150946668830D-06 0.000000000000D+00  7 21 -2 23 -11 11 23 -2 2 0.41005812D+00 0.98634461D-02 0.12407728D+06 0.12407728D+06 0.12407728D+06 0.11141136D+01  1  2 12  3  7  1        2 0.339373763642D-06 0.100000000000D+01
-.142830696631D-06 0.000000000000D+00 -.385473419859D-07 0.150946668830D-06 0.000000000000D+00  7 21 -2 23 -11 11 23 -2 2 0.41707240D+00 0.98634461D-02 0.76105705D+05 0.76105705D+05 0.76105705D+05 0.11315850D+01  1  2  5  3  7  1        2 -.413370110477D-06 0.100000000000D+01
  </mgrwgt>
  </event>
  <event>
  8     66 0.55102590E-06 0.13927972E+03 0.75467711E-02 0.96461385E-01
        2 -1    0    0  501    0 0.00000000E+00 0.00000000E+00 0.71109745E+02 0.71110465E+02 0.32000000E+00 0.0000E+00 0.9000E+01
       -2 -1    0    0    0  501 0.00000000E+00 0.00000000E+00 -.14316241E+04 0.14316242E+04 0.32000000E+00 0.0000E+00 0.9000E+01
       25  2    1    2    0    0 -.18279291E+03 -.94614136E+02 -.53360709E+03 0.64577743E+03 0.29987809E+03 0.0000E+00 0.0000E+00
       23  2    1    2    0    0 0.18279291E+03 0.94614136E+02 -.82690729E+03 0.85695720E+03 0.90746335E+02 0.0000E+00 0.0000E+00
       23  1    3    3    0    0 0.19756071E+02 -.99932763E+02 -.15407344E+03 0.20598722E+03 0.91188000E+02 0.0000E+00 0.9000E+01
      -13  1    4    4    0    0 0.18191388E+03 0.62519313E+02 -.68773494E+03 0.71412932E+03 0.10565837E+00 0.0000E+00 0.9000E+01
       13  1    4    4    0    0 0.87903165E+00 0.32094823E+02 -.13917235E+03 0.14282788E+03 0.10565837E+00 0.0000E+00 0.9000E+01
       23  1    3    3    0    0 -.20254898E+03 0.53186273E+01 -.37953366E+03 0.43979021E+03 0.91188000E+02 0.0000E+00 0.9000E+01
#aMCatNLO 1  0  0  1  2 0.22840893D+03 0.00000000D+00  -5  7  0 0.00000000D+00 0.00000000D+00 0.00000000D+00 0.00000000D+00 0.00000000D+00
  <mgrwgt>
 0.1792631211D-03    7    2    0
 0.319065814807070D+03 0.000000000000000D+00 0.000000000000000D+00 0.319065814807070D+03
 0.319065814807070D+03 0.000000000000000D+00 0.000000000000000D+00 -.319065814807070D+03
 0.156589952776653D+03 0.197560709607429D+02 -.999327632172748D+02 0.763433196982467D+02
 0.215431618468515D+03 0.181914124360551D+03 0.625193542187622D+02 -.970018759724094D+02
 0.396254788270005D+02 0.878786719948330D+00 0.320947817318678D+02 -.232235073094844D+02
 0.226484579541973D+03 -.202548982041242D+03 0.531862726664482D+01 0.438820635836470D+02
 0.000000000000000D+00 -.000000000000000D+00 -.000000000000000D+00 0.000000000000000D+00
 0.651609899161436D+03 0.000000000000000D+00 0.000000000000000D+00 0.651609899161436D+03
 0.380595861584330D+03 0.000000000000000D+00 0.000000000000000D+00 -.380595861584330D+03
 0.131212030811008D+03 0.236636030172982D+02 -.501306005872653D+02 0.763433196982467D+02
 0.256218465169767D+03 0.188317790514340D+03 0.144135171722872D+03 -.970018759724094D+02
 0.535645609684649D+02 0.214404230753372D+01 0.482206800301928D+02 -.232235073094844D+02
 0.236782646817872D+03 -.196259131237621D+03 0.854838487175907D+02 0.438820635836470D+02
 0.354428056978654D+03 -.178663046015505D+02 -.227709099883390D+03 0.271014037577106D+03
0.345743001387D-04 0.000000000000D+00 0.000000000000D+00 0.454686701234D-06 0.000000000000D+00  7 2 -2 23 -13 13 23 21 0 0.10940019D-01 0.22024992D+00 0.85081950D+05 0.85081950D+05 0.85081950D+05 0.11275256D+01  1  2  2  1  7  1        2 0.242113989708D-03 0.100000000000D+01
-.190199840981D-05 0.000000000000D+00 -.132774416155D-06 0.454686701234D-06 0.000000000000D+00  7 2 -2 23 -13 13 23 21 2 0.10940019D-01 0.22024992D+00 0.85081950D+05 0.85081950D+05 0.85081950D+05 0.11275256D+01  1  2  3  1  7  1        2 -.169328256303D-04 0.100000000000D+01
0.220347045824D-05 0.000000000000D+00 0.000000000000D+00 0.454686701234D-06 0.000000000000D+00  7 2 -2 23 -13 13 23 21 2 0.10940019D-01 0.22024992D+00 0.85081950D+05 0.85081950D+05 0.85081950D+05 0.11275256D+01  1  2 15  1  7  1        2 0.196167256810D-04 0.100000000000D+01
0.255112722896D-05 0.000000000000D+00 0.000000000000D+00 0.454686701234D-06 0.000000000000D+00  7 2 -2 23 -13 13 23 21 2 0.22406185D-01 0.22024992D+00 0.18199640D+06 0.18199640D+06 0.18199640D+06 0.11009857D+01  1  2 12  1  7  1        2 0.882360994300D-05 0.100000000000D+01
-.192041388343D-04 0.000000000000D+00 -.114071155085D-04 0.454686701234D-06 0.000000000000D+00  7 2 -2 23 -13 13 23 21 2 0.26676668D-01 0.22024992D+00 0.85081950D+05 0.85081950D+05 0.85081950D+05 0.11275256D+01  1  2  5  1  7  1        2 -.584580625446D-04 0.100000000000D+01
0.197771319502D-06 0.000000000000D+00 0.000000000000D+00 0.454686701234D-06 0.000000000000D+00  7 21 -2 23 -13 13 23 -2 2 0.22406185D-01 0.22024992D+00 0.18199640D+06 0.18199640D+06 0.18199640D+06 0.11009857D+01  1  2 12  3  7  1        2 0.435840477017D-05 0.100000000000D+01
-.116408930979D-05 0.000000000000D+00 -.111497951316D-05 0.454686701234D-06 0.000000000000D+00  7 21 -2 23 -13 13 23 -2 2 0.26676668D-01 0.22024992D+00 0.85081950D+05 0.85081950D+05 0.85081950D+05 0.11275256D+01  1  2  5  3  7  1        2 -.202587208764D-04 0.100000000000D+01
  </mgrwgt>
  </event>
  <event>
  9     66 -.55102590E-06 0.38341706E+03 0.75467711E-02 0.97200510E-01
        2 -1    0    0  501    0 0.00000000E+00 0.00000000E+00 0.26003972E+04 0.26003972E+04 0.32000000E+00 0.0000E+00 0.9000E+01
       -2 -1    0    0    0  502 0.00000000E+00 0.00000000E+00 -.80750719E+02 0.80751353E+02 0.32000000E+00 0.0000E+00 0.9000E+01
       25  2    1    2    0    0 0.31098565E+03 -.93967081E+02 0.19434330E+04 0.19935775E+04 0.30311315E+03 0.0000E+00 0.0000E+00
       23  2    1    2    0    0 -.29152503E+03 0.12326459E+03 0.45776791E+03 0.56401146E+03 0.91523034E+02 0.0000E+00 0.0000E+00
       23  1    3    3    0    0 0.75601758E+02 -.13712701E+03 0.98452016E+03 0.10010568E+04 0.91188000E+02 0.0000E+00 0.9000E+01
      -11  1    4    4    0    0 -.65810580E+01 0.28149216E+02 0.45553769E+02 0.53952151E+02 0.51099893E-03 0.0000E+00 0.9000E+01
       11  1    4    4    0    0 -.28494397E+03 0.95115375E+02 0.41221414E+03 0.51005931E+03 0.51099893E-03 0.0000E+00 0.9000E+01
       23  1    3    3    0    0 0.23538389E+03 0.43159925E+02 0.95891283E+03 0.99252074E+03 0.91188000E+02 0.0000E+00 0.9000E+01
       21  1    1    2  501  502 -.19460623E+02 -.29297510E+02 0.11844559E+03 0.12355963E+03 0.75000000E+00 0.0000E+00 0.9000E+01
#aMCatNLO 2  0  0  2  1 0.35171863D+02 0.00000000D+00  -5  7  0 0.00000000D+00 0.00000000D+00 0.00000000D+00 0.00000000D+00 0.00000000D+00
  <mgrwgt>
 -.1328105219D-03    3    2    0
 0.439959789867091D+03 0.000000000000000D+00 0.000000000000000D+00 0.439959789867091D+03
 0.439959789867091D+03 0.000000000000000D+00 0.000000000000000D+00 -.439959789867091D+03
 0.225937975356422D+03 0.706407788496532D+02 -.144595642913256D+03 0.129748594513295D+03
 0.317154481431850D+02 -.729067305691701D+01 0.270809076455254D+02 -.148101376899314D+02
 0.360796188065125D+03 -.292882474843232D+03 0.831641382681047D+02 -.193590989868208D+03
 0.261469968169451D+03 0.229532369050495D+03 0.343505969996261D+02 0.786525330448443D+02
 0.000000000000000D+00 -.000000000000000D+00 -.000000000000000D+00 0.000000000000000D+00
 0.461795791598671D+03 0.000000000000000D+00 0.000000000000000D+00 0.461795791598671D+03
 0.454705798954740D+03 0.000000000000000D+00 0.000000000000000D+00 -.454705798954740D+03
 0.222866306638184D+03 0.756017577494884D+02 -.137127005865210D+03 0.129748594513295D+03
 0.324812081834170D+02 -.658105804152358D+01 0.281492163605641D+02 -.148101376899314D+02
 0.357375811131858D+03 -.284943967397103D+03 0.951153745090648D+02 -.193590989868208D+03
 0.267898912419379D+03 0.235383890420031D+03 0.431599247896314D+02 0.786525330448443D+02
 0.358793521805734D+02 -.194606227308929D+02 -.292975097940503D+02 0.708999264393088D+01
-.122845349820D-04 0.000000000000D+00 0.000000000000D+00 0.346863003402D-07 0.000000000000D+00  7 2 -2 23 -11 11 23 21 2 0.38114101D+00 0.12709479D-01 0.16071131D+06 0.16071131D+06 0.16071131D+06 0.11051957D+01  1  2 13  2  7  2       -2 -.299979835831D-03 0.100000000000D+01
-.616387807345D-06 0.000000000000D+00 0.000000000000D+00 0.346863003402D-07 0.000000000000D+00  7 2 -2 23 -11 11 23 21 2 0.38114101D+00 0.12020252D-01 0.14700864D+06 0.14700864D+06 0.14700864D+06 0.11082429D+01  1  2  8  2  7  2       -2 -.165819366566D-04 0.100000000000D+01
0.854629892189D-05 0.000000000000D+00 0.000000000000D+00 0.346863003402D-07 0.182998492088D-09  7 2 -2 23 -11 11 23 21 2 0.40005773D+00 0.12423131D-01 0.16071131D+06 0.16071131D+06 0.16071131D+06 0.11051957D+01  1  2  1  2  7  2       -2 0.183751250634D-03 0.100000000000D+01
  </mgrwgt>
  </event>
  <event>
  8     66 0.55102590E-06 0.23407435E+03 0.75467711E-02 0.92604077E-01
        2 -1    0    0  501    0 0.00000000E+00 0.00000000E+00 0.78636044E+03 0.78636051E+03 0.32000000E+00 0.0000E+00 0.9000E+01
       -2 -1    0    0    0  501 0.00000000E+00 0.00000000E+00 -.31386431E+03 0.31386448E+03 0.32000000E+00 0.0000E+00 0.9000E+01
       25  2    1    2    0    0 0.43099163E+03 -.11533428E+03 0.24609300E+03 0.59171765E+03 0.30085250E+03 0.0000E+00 0.0000E+00
       23  2    1    2    0    0 -.43099163E+03 0.11533428E+03 0.22640313E+03 0.50850734E+03 0.90915098E+02 0.0000E+00 0.0000E+00
       23  1    3    3    0    0 0.64337906E+02 -.11122767E+03 0.99969232E+02 0.18660134E+03 0.91188000E+02 0.0000E+00 0.9000E+01
      -11  1    4    4    0    0 -.40292689E+03 0.11425141E+03 0.18354389E+03 0.45726559E+03 0.51099893E-03 0.0000E+00 0.9000E+01
       11  1    4    4    0    0 -.28064738E+02 0.10828744E+01 0.42859235E+02 0.51241742E+02 0.51099893E-03 0.0000E+00 0.9000E+01
       23  1    3    3    0    0 0.36665372E+03 -.41066109E+01 0.14612377E+03 0.40511631E+03 0.91188000E+02 0.0000E+00 0.9000E+01
#aMCatNLO 1  0  0  2  1 0.19705686D+03 0.00000000D+00  -5  7  0 0.00000000D+00 0.00000000D+00 0.00000000D+00 0.00000000D+00 0.00000000D+00
  <mgrwgt>
 0.3485955142D-03    9    2    0
 0.496800367678852D+03 0.000000000000000D+00 0.000000000000000D+00 0.496800367678852D+03
 0.496800367678852D+03 0.000000000000000D+00 0.000000000000000D+00 -.496800367678852D+03
 0.159086416859506D+03 0.643379063307827D+02 -.111227672484591D+03 0.219607688350960D+02
 0.419052881558184D+03 -.402926889404030D+03 0.114251408998955D+03 -.142075641530590D+02
 0.363592950461375D+02 -.280647375268136D+02 0.108287436281016D+01 0.230910421358046D+02
 0.379102141893876D+03 0.366653720600061D+03 -.410661087717496D+01 -.308442468178416D+02
 0.000000000000000D+00 0.000000000000000D+00 0.000000000000000D+00 -.000000000000000D+00
 0.551727774009638D+03 0.000000000000000D+00 0.000000000000000D+00 0.551727774009638D+03
 0.721008693438401D+03 0.000000000000000D+00 0.000000000000000D+00 -.721008693438401D+03
 0.150737161987075D+03 0.339632714751910D+02 -.113007351454636D+03 0.219607688350960D+02
 0.505663472068307D+03 -.493584681464161D+03 0.108939682067348D+03 -.142075641530590D+02
 0.426113388882677D+02 -.358068989820589D+02 0.629253702344459D+00 0.230910421358046D+02
 0.313941051166230D+03 0.298708814641893D+03 -.808756804193973D+01 -.308442468178416D+02
 0.259783443338159D+03 0.196719494329136D+03 0.115259837268835D+02 -.169280919428762D+03
0.158786353725D-04 0.000000000000D+00 0.000000000000D+00 0.505083900979D-06 0.000000000000D+00  7 2 -2 23 -11 11 23 21 0 0.12097855D+00 0.48286835D-01 0.24123139D+06 0.24123139D+06 0.24123139D+06 0.10916276D+01  1  2  2  2  7  2       -2 0.284184101055D-03 0.100000000000D+01
-.882006227613D-06 0.000000000000D+00 -.609781407709D-07 0.505083900979D-06 0.000000000000D+00  7 2 -2 23 -11 11 23 21 2 0.12097855D+00 0.48286835D-01 0.24123139D+06 0.24123139D+06 0.24123139D+06 0.10916276D+01  1  2  3  2  7  2       -2 -.188107984765D-04 0.100000000000D+01
0.991357564721D-06 0.000000000000D+00 0.000000000000D+00 0.505083900979D-06 0.000000000000D+00  7 2 -2 23 -11 11 23 21 2 0.12097855D+00 0.48286835D-01 0.24123139D+06 0.24123139D+06 0.24123139D+06 0.10916276D+01  1  2 15  2  7  2       -2 0.211429656439D-04 0.100000000000D+01
0.116382756762D-04 0.000000000000D+00 0.000000000000D+00 0.505083900979D-06 0.000000000000D+00  7 2 -2 23 -11 11 23 21 2 0.12097855D+00 0.71795808D-01 0.35993050D+06 0.35993050D+06 0.35993050D+06 0.10787480D+01  1  2 12  2  7  2       -2 0.105522539589D-03 0.100000000000D+01
-.141391431563D-04 0.000000000000D+00 0.000000000000D+00 0.505083900979D-06 0.000000000000D+00  7 2 -2 23 -11 11 23 21 2 0.12097855D+00 0.48286835D-01 0.24123139D+06 0.24123139D+06 0.24123139D+06 0.10916276D+01  1  2  4  2  7  2       -2 -.301549540373D-03 0.100000000000D+01
-.185927932895D-04 0.000000000000D+00 -.605544378812D-05 0.505083900979D-06 0.000000000000D+00  7 2 -2 23 -11 11 23 21 2 0.12097855D+00 0.75950452D-01 0.24123139D+06 0.24123139D+06 0.24123139D+06 0.10916276D+01  1  2  5  2  7  2       -2 -.154564582715D-03 0.100000000000D+01
0.198377728218D-04 0.000000000000D+00 0.548334097223D-05 0.505083900979D-06 0.000000000000D+00  7 2 -2 23 -11 11 23 21 2 0.12097855D+00 0.48286835D-01 0.24123139D+06 0.24123139D+06 0.24123139D+06 0.10916276D+01  1  2  6  2  7  2       -2 0.423085841221D-03 0.100000000000D+01
0.550590528180D-06 0.000000000000D+00 0.000000000000D+00 0.505083900979D-06 0.000000000000D+00  7 2 21 23 -11 11 23 2 2 0.12097855D+00 0.71795808D-01 0.35993050D+06 0.35993050D+06 0.35993050D+06 0.10787480D+01  1  2 12  4  7  2       -2 0.484951341475D-04 0.100000000000D+01
-.728019543419D-06 0.000000000000D+00 -.316222221049D-06 0.505083900979D-06 0.000000000000D+00  7 2 21 23 -11 11 23 2 2 0.12097855D+00 0.75950452D-01 0.24123139D+06 0.24123139D+06 0.24123139D+06 0.10916276D+01  1  2  5  4  7  2       -2 -.589101458517D-04 0.100000000000D+01
  </mgrwgt>
  </event>
  <event>
  9     66 0.55102590E-06 0.48420957E+03 0.75467711E-02 0.94392441E-01
        2 -1    0    0  502    0 0.00000000E+00 0.00000000E+00 0.28147678E+04 0.28147678E+04 0.32000000E+00 0.0000E+00 0.9000E+01
       -2 -1    0    0    0  501 0.00000000E+00 0.00000000E+00 -.13925073E+03 0.13925110E+03 0.32000000E+00 0.0000E+00 0.9000E+01
       25  2    1    2    0    0 0.32203431E+03 0.31379402E+03 0.60306090E+03 0.80996939E+03 0.30032514E+03 0.0000E+00 0.0000E+00
       23  2    1    2    0    0 -.34832026E+03 -.27014386E+03 0.20189068E+04 0.20701281E+04 0.12304781E+03 0.0000E+00 0.0000E+00
       23  1    3    3    0    0 0.22668281E+03 0.80460533E+02 0.39166920E+03 0.46859258E+03 0.91188000E+02 0.0000E+00 0.9000E+01
      -11  1    4    4    0    0 0.11684456E+01 -.70173230E+01 0.17087948E+03 0.17102750E+03 0.51099893E-03 0.0000E+00 0.9000E+01
       11  1    4    4    0    0 -.34948871E+03 -.26312654E+03 0.18480273E+04 0.18991006E+04 0.51099893E-03 0.0000E+00 0.9000E+01
       23  1    3    3    0    0 0.95351499E+02 0.23333349E+03 0.21139169E+03 0.34137681E+03 0.91188000E+02 0.0000E+00 0.9000E+01
       21  1    1    2  502  501 0.26285949E+02 -.43650163E+02 0.53549382E+02 0.73921490E+02 0.75000000E+00 0.0000E+00 0.9000E+01
#aMCatNLO 2  0  0  1  1 0.50953781D+02 0.00000000D+00  -5  7  0 0.00000000D+00 0.00000000D+00 0.00000000D+00 0.00000000D+00 0.00000000D+00
  <mgrwgt>
 0.1887038968D-03    2    2    0
 0.595325625920183D+03 0.000000000000000D+00 0.000000000000000D+00 0.595325625920183D+03
 0.595325625920183D+03 0.000000000000000D+00 0.000000000000000D+00 -.595325625920183D+03
 0.273039454949430D+03 0.232682530172297D+03 0.704974683156229D+02 -.844052115025337D+02
 0.376872751142155D+02 0.199658458696886D+01 -.839252179006167D+01 0.366866451658500D+02
 0.526120127126557D+03 -.337905484154013D+03 -.282361513045444D+03 0.287913611864730D+03
 0.353804394650164D+03 0.103226369394747D+03 0.220256566519883D+03 -.240195045528047D+03
 0.000000000000000D+00 0.000000000000000D+00 -.000000000000000D+00 -.000000000000000D+00
 0.609673256002124D+03 0.000000000000000D+00 0.000000000000000D+00 0.609673256002124D+03
 0.642895382487709D+03 0.000000000000000D+00 0.000000000000000D+00 -.642895382487709D+03
 0.270736932204190D+03 0.226682813750865D+03 0.804605327880658D+02 -.844052115025337D+02
 0.373700149965317D+02 0.116844554550946D+01 -.701732301687740D+01 0.366866451658500D+02
 0.523710014381056D+03 -.349488707126765D+03 -.263126537728285D+03 0.287913611864730D+03
 0.359924072086659D+03 0.953514993130585D+02 0.233333490965130D+03 -.240195045528047D+03
 0.608276048213962D+02 0.262859485173318D+02 -.436501630080334D+02 -.332221264855853D+02
-.582625692475D-07 0.000000000000D+00 0.000000000000D+00 0.540242351642D-08 0.000000000000D+00  7 2 -2 23 -11 11 23 21 2 0.42284876D+00 0.19837977D-01 0.23445891D+06 0.23445891D+06 0.23445891D+06 0.10925622D+01  1  2  8  1  7  1        2 -.460518311809D-06 0.100000000000D+01
0.302141793146D-04 0.000000000000D+00 0.000000000000D+00 0.540242351642D-08 0.131935302695D-10  7 2 -2 23 -11 11 23 21 2 0.43303961D+00 0.21423139D-01 0.26052375D+06 0.26052375D+06 0.26052375D+06 0.10891145D+01  1  2  1  1  7  1        2 0.189164415161D-03 0.100000000000D+01
  </mgrwgt>
  </event>
  <event>
  8     66 0.55102590E-06 0.14776837E+03 0.75467711E-02 0.10094278E+00
        2 -1    0    0  501    0 0.00000000E+00 0.00000000E+00 0.18133604E+03 0.18133632E+03 0.32000000E+00 0.0000E+00 0.9000E+01
       -2 -1    0    0    0  501 0.00000000E+00 0.00000000E+00 -.39207369E+03 0.39207382E+03 0.32000000E+00 0.0000E+00 0.9000E+01
       25  2    1    2    0    0 0.15736391E+03 0.15482656E+02 -.81595926E+02 0.34899417E+03 0.30022645E+03 0.0000E+00 0.0000E+00
       23  2    1    2    0    0 -.15736391E+03 -.15482656E+02 -.12914173E+03 0.22441598E+03 0.93176356E+02 0.0000E+00 0.0000E+00
       23  1    3    3    0    0 0.11926872E+03 0.89290574E+02 0.36250136E+02 0.17840167E+03 0.91188000E+02 0.0000E+00 0.9000E+01
      -13  1    4    4    0    0 -.11237475E+03 -.98764402E+01 -.32068778E+02 0.11727764E+03 0.10565837E+00 0.0000E+00 0.9000E+01
       13  1    4    4    0    0 -.44989163E+02 -.56062158E+01 -.97072949E+02 0.10713834E+03 0.10565837E+00 0.0000E+00 0.9000E+01
       23  1    3    3    0    0 0.38095196E+02 -.73807918E+02 -.11784606E+03 0.17059249E+03 0.91188000E+02 0.0000E+00 0.9000E+01
#aMCatNLO 1  0  0  2  1 0.12500536D+03 0.00000000D+00  -5  7  0 0.00000000D+00 0.00000000D+00 0.00000000D+00 0.00000000D+00 0.00000000D+00
  <mgrwgt>
 0.4530460568D-03    8    2    0
 0.266640599468188D+03 0.000000000000000D+00 0.000000000000000D+00 0.266640599468188D+03
 0.266640599468188D+03 0.000000000000000D+00 0.000000000000000D+00 -.266640599468188D+03
 0.206151278958956D+03 0.119268723722456D+03 0.892905742850582D+02 0.109477227576671D+03
 0.113430056641863D+03 -.112374835916299D+03 -.987644616627020D+01 0.118629597354921D+02
 0.768398657985474D+02 -.449890890237311D+02 -.560621112436584D+01 -.620396425004416D+02
 0.136859997537009D+03 0.380952012175745D+02 -.738079169944222D+02 -.593005448117217D+02
 0.000000000000000D+00 -.000000000000000D+00 -.000000000000000D+00 -.000000000000000D+00
 0.291634669014465D+03 0.000000000000000D+00 0.000000000000000D+00 0.291634669014465D+03
 0.493753541163870D+03 0.000000000000000D+00 0.000000000000000D+00 -.493753541163870D+03
 0.239938790708615D+03 0.170849624252238D+03 0.898916819161097D+02 0.109477227576671D+03
 0.901379663930562D+02 -.888364909470118D+02 -.960213767925198D+01 0.118629597354921D+02
 0.683623025389276D+02 -.281995231692268D+02 -.541055079169372D+01 -.620396425004416D+02
 0.149297351599798D+03 0.711832584628106D+02 -.734223191568021D+02 -.593005448117217D+02
 0.237651798937938D+03 -.124996868598811D+03 -.145667428836194D+01 -.202118872149405D+03
0.313771946407D-05 0.000000000000D+00 0.000000000000D+00 0.808030135298D-07 0.000000000000D+00  7 2 -2 23 -13 13 23 21 0 0.27897884D-01 0.60319062D-01 0.52022877D+05 0.52022877D+05 0.52022877D+05 0.11457834D+01  1  2  2  2  7  2       -2 0.191922746917D-03 0.100000000000D+01
-.169147795929D-06 0.000000000000D+00 -.120496689226D-07 0.808030135298D-07 0.000000000000D+00  7 2 -2 23 -13 13 23 21 2 0.27897884D-01 0.60319062D-01 0.52022877D+05 0.52022877D+05 0.52022877D+05 0.11457834D+01  1  2  3  2  7  2       -2 -.135826261420D-04 0.100000000000D+01
0.201148889916D-06 0.000000000000D+00 0.000000000000D+00 0.808030135298D-07 0.000000000000D+00  7 2 -2 23 -13 13 23 21 2 0.27897884D-01 0.60319062D-01 0.52022877D+05 0.52022877D+05 0.52022877D+05 0.11457834D+01  1  2 15  2  7  2       -2 0.161523249867D-04 0.100000000000D+01
0.206293046920D-05 0.000000000000D+00 0.000000000000D+00 0.808030135298D-07 0.000000000000D+00  7 2 -2 23 -13 13 23 21 2 0.27897884D-01 0.11235038D+00 0.88088925D+05 0.88088925D+05 0.88088925D+05 0.11262701D+01  1  2 12  2  7  2       -2 0.394093463455D-04 0.100000000000D+01
-.367926677535D-05 0.000000000000D+00 -.985247149274D-06 0.808030135298D-07 0.000000000000D+00  7 2 -2 23 -13 13 23 21 2 0.27897884D-01 0.11754597D+00 0.52022877D+05 0.52022877D+05 0.52022877D+05 0.11457834D+01  1  2  5  2  7  2       -2 -.656049742852D-04 0.100000000000D+01
0.367315676715D-05 0.000000000000D+00 0.800399123311D-06 0.808030135298D-07 0.000000000000D+00  7 2 -2 23 -13 13 23 21 2 0.27897884D-01 0.60319062D-01 0.52022877D+05 0.52022877D+05 0.52022877D+05 0.11457834D+01  1  2  6  2  7  2       -2 0.294955750711D-03 0.100000000000D+01
0.139808924143D-06 0.000000000000D+00 0.000000000000D+00 0.808030135298D-07 0.000000000000D+00  7 2 21 23 -13 13 23 2 2 0.27897884D-01 0.11235038D+00 0.88088925D+05 0.88088925D+05 0.88088925D+05 0.11262701D+01  1  2 12  4  7  2       -2 0.251082893924D-04 0.100000000000D+01
-.208260074004D-06 0.000000000000D+00 -.712400131798D-07 0.808030135298D-07 0.000000000000D+00  7 2 21 23 -13 13 23 2 2 0.27897884D-01 0.11754597D+00 0.52022877D+05 0.52022877D+05 0.52022877D+05 0.11457834D+01  1  2  5  4  7  2       -2 -.353148011431D-04 0.100000000000D+01
  </mgrwgt>
  </event>
  <event>
  8     66 0.55102590E-06 0.18185189E+03 0.75467711E-02 0.10021175E+00
        2 -1    0    0  501    0 0.00000000E+00 0.00000000E+00 0.18538591E+03 0.18538618E+03 0.32000000E+00 0.0000E+00 0.9000E+01
       -2 -1    0    0    0  501 0.00000000E+00 0.00000000E+00 -.20490955E+03 0.20490980E+03 0.32000000E+00 0.0000E+00 0.9000E+01
       25  2    1    2    0    0 -.12783694E+02 -.18545732E+02 -.25332861E+02 0.30373296E+03 0.30183536E+03 0.0000E+00 0.0000E+00
       23  2    1    2    0    0 0.12783694E+02 0.18545732E+02 0.58092193E+01 0.86563027E+02 0.83378916E+02 0.0000E+00 0.0000E+00
       23  1    3    3    0    0 0.65653524E+02 0.87409614E+02 -.13728693E+02 0.14301942E+03 0.91188000E+02 0.0000E+00 0.9000E+01
      -13  1    4    4    0    0 0.30252956E+01 0.38617955E+02 -.26759597E+02 0.47080634E+02 0.10565837E+00 0.0000E+00 0.9000E+01
       13  1    4    4    0    0 0.97583985E+01 -.20072223E+02 0.32568816E+02 0.39482394E+02 0.10565837E+00 0.0000E+00 0.9000E+01
       23  1    3    3    0    0 -.78437218E+02 -.10595535E+03 -.11604168E+02 0.16071354E+03 0.91188000E+02 0.0000E+00 0.9000E+01
#aMCatNLO 1  0  0  1  1 0.20954582D+03 0.00000000D+00  -5  7  0 0.00000000D+00 0.00000000D+00 0.00000000D+00 0.00000000D+00 0.00000000D+00
  <mgrwgt>
 0.7601700538D-03    3    2    0
 0.194903682228659D+03 0.000000000000000D+00 0.000000000000000D+00 0.194903682228659D+03
 0.194903682228659D+03 0.000000000000000D+00 0.000000000000000D+00 -.194903682228659D+03
 0.142488589929360D+03 0.656362626913337D+02 0.873852514824767D+02 -.659133972086018D+01
 0.458100739056130D+02 0.303763869070502D+01 0.386359585327193D+02 -.244253624472688D+02
 0.411652736394862D+02 0.976950891339361D+01 -.200562014871179D+02 0.345960291263756D+02
 0.160343426982858D+03 -.784434102954324D+02 -.105965008528078D+03 -.357932695824661D+01
 0.000000000000000D+00 0.000000000000000D+00 0.000000000000000D+00 -.000000000000000D+00
 0.245214828949046D+03 0.000000000000000D+00 0.000000000000000D+00 0.245214828949046D+03
 0.679914169295564D+03 0.000000000000000D+00 0.000000000000000D+00 -.679914169295564D+03
 0.111478795622583D+03 0.591908032913410D+02 0.237754826632733D+02 -.659133972086018D+01
 0.311814841641763D+02 0.108366353518446D+01 0.193523202056715D+02 -.244253624472688D+02
 0.569332559774192D+02 0.727985817154500D+01 -.446263831144706D+02 0.345960291263756D+02
 0.242966328770533D+03 -.886790421293388D+02 -.206979712720305D+03 -.357932695824661D+01
 0.482569133709898D+03 0.211247171312683D+02 0.208478292965830D+03 -.434699340346518D+03
0.372366322309D-05 0.000000000000D+00 0.000000000000D+00 0.188258048807D-09 0.000000000000D+00  7 2 -2 23 -13 13 23 21 0 0.28520949D-01 0.31524586D-01 0.33070110D+05 0.33070110D+05 0.33070110D+05 0.11634302D+01  1  2  2  1  7  1        2 0.751166657144D-03 0.100000000000D+01
-.205661786891D-06 0.000000000000D+00 -.142998472397D-07 0.188258048807D-09 0.000000000000D+00  7 2 -2 23 -13 13 23 21 2 0.28520949D-01 0.31524586D-01 0.33070110D+05 0.33070110D+05 0.33070110D+05 0.11634302D+01  1  2  3  1  7  1        2 -.561565152385D-04 0.100000000000D+01
0.238634891305D-06 0.000000000000D+00 0.000000000000D+00 0.188258048807D-09 0.000000000000D+00  7 2 -2 23 -13 13 23 21 2 0.28520949D-01 0.31524586D-01 0.33070110D+05 0.33070110D+05 0.33070110D+05 0.11634302D+01  1  2 15  1  7  1        2 0.651599118758D-04 0.100000000000D+01
  </mgrwgt>
  </event>
</LesHouchesEvents>
