<event>
12    4  0.4320235E-008  0.1534938E+04  0.7818608E-02  0.8861546E-01
          1   -1    0    0  501    0  0.00000000000E+00  0.00000000000E+00  0.12501925022E+04  0.12501925022E+04  0.00000000000E+00 0. -1.
         -2   -1    0    0    0  501 -0.00000000000E+00 -0.00000000000E+00 -0.47113455022E+03  0.47113455022E+03  0.00000000000E+00 0.  1.
        -24    2    1    2    0    0 -0.24090624711E+03  0.40028099237E+03  0.94645768556E+02  0.48334258679E+03  0.80009636600E+02 0.  0.
        254    2    1    2    0    0  0.24090624711E+03 -0.40028099237E+03  0.68441218339E+03  0.12379844656E+04  0.91974170697E+03 0.  0.
         23    2    4    4    0    0  0.38622313343E+03  0.17599344937E+02 -0.23878263095E+02  0.39789050113E+03  0.90932027911E+02 0.  0.
         23    2    4    4    0    0 -0.14531688632E+03 -0.41788033731E+03  0.70829044649E+03  0.84009396447E+03  0.91332025081E+02 0.  0.
          1    1    3    3  502    0 -0.17158759546E+02  0.12503436171E+02  0.20561019773E+02  0.29555278367E+02  0.00000000000E+00 0. -1.
         -2    1    3    3    0  502 -0.22374748756E+03  0.38777755620E+03  0.74084748783E+02  0.45378730842E+03  0.00000000000E+00 0.  1.
         11    1    5    5    0    0  0.16051093258E+03 -0.55854472276E+01  0.33015755613E+02  0.16396645028E+03  0.00000000000E+00 0. -1.
        -11    1    5    5    0    0  0.22571220085E+03  0.23184792165E+02 -0.56894018708E+02  0.23392405084E+03  0.00000000000E+00 0.  1.
          4    1    6    6  503    0 -0.79648877873E+01 -0.69734748731E+02  0.17527250500E+03  0.18880366953E+03  0.00000000000E+00 0. -1.
         -4    1    6    6    0  503 -0.13735199853E+03 -0.34814558858E+03  0.53301794148E+03  0.65129029494E+03  0.00000000000E+00 0.  1.
<mgrwt>
<rscale>  0 0.15349383E+04</rscale>
<asrwt>0</asrwt>
<pdfrwt beam="1">  1        1 0.19233731E+00 0.15349383E+04</pdfrwt>
<pdfrwt beam="2">  1       -2 0.72482239E-01 0.15349383E+04</pdfrwt>
<totfact> 0.14313487E+01</totfact>
</mgrwt>
</event>
<event>
12    4  0.4320235E-008  0.2302219E+04  0.7818608E-02  0.8477047E-01
         -2   -1    0    0    0  501 -0.00000000000E+00  0.00000000000E+00  0.88069409966E+03  0.88069409966E+03  0.00000000000E+00 0.  1.
          1   -1    0    0  501    0  0.00000000000E+00 -0.00000000000E+00 -0.15045554198E+04  0.15045554198E+04  0.00000000000E+00 0. -1.
        -24    2    1    2    0    0 -0.54606880940E+03  0.57304014488E+03  0.31881793152E+03  0.85678392424E+03  0.76600699369E+02 0.  0.
        254    2    1    2    0    0  0.54606880940E+03 -0.57304014488E+03 -0.94267925162E+03  0.15284655952E+04  0.90608871087E+03 0.  0.
         23    2    4    4    0    0  0.20574755608E+03  0.16852676522E+03 -0.34675568681E+01  0.28047580357E+03  0.89001825864E+02 0.  0.
         23    2    4    4    0    0  0.34032125332E+03 -0.74156691010E+03 -0.93921169476E+03  0.12479897916E+04  0.98080960420E+02 0.  0.
          3    1    3    3  502    0 -0.99163383955E+02  0.14627663424E+03  0.84816204792E+02  0.19602045566E+03  0.00000000000E+00 0. -1.
         -4    1    3    3    0  502 -0.44690542544E+03  0.42676351064E+03  0.23400172673E+03  0.66076346859E+03  0.00000000000E+00 0.  1.
         11    1    5    5    0    0  0.48701735349E+01 -0.43809234404E+01  0.13378441474E+02  0.14896099379E+02  0.00000000000E+00 0.  1.
        -11    1    5    5    0    0  0.20087738255E+03  0.17290768866E+03 -0.16845998342E+02  0.26557970419E+03  0.00000000000E+00 0. -1.
          1    1    6    6  503    0  0.31529659179E+03 -0.70469010859E+03 -0.91533766354E+03  0.11974318888E+04  0.00000000000E+00 0. -1.
         -1    1    6    6    0  503  0.25024661524E+02 -0.36876801504E+02 -0.23874031213E+02  0.50557902843E+02  0.00000000000E+00 0.  1.
<mgrwt>
<rscale>  0 0.23022190E+04</rscale>
<asrwt>0</asrwt>
<pdfrwt beam="1">  1        1 0.23147006E+00 0.23022190E+04</pdfrwt>
<pdfrwt beam="2">  1       -2 0.13549140E+00 0.23022190E+04</pdfrwt>
<totfact> 0.20140801E+00</totfact>
</mgrwt>
</event>
<event>
12    4  0.4320235E-008  0.2333376E+04  0.7818608E-02  0.8464877E-01
         -2   -1    0    0    0  501 -0.00000000000E+00  0.00000000000E+00  0.96570389750E+03  0.96570389750E+03  0.00000000000E+00 0.  1.
          1   -1    0    0  501    0  0.00000000000E+00 -0.00000000000E+00 -0.14095009059E+04  0.14095009059E+04  0.00000000000E+00 0. -1.
        -24    2    1    2    0    0  0.17582070126E+03  0.79809911629E+03 -0.75755506689E+03  0.11172617221E+04  0.80678112244E+02 0.  0.
        254    2    1    2    0    0 -0.17582070126E+03 -0.79809911629E+03  0.31375805848E+03  0.12579430813E+04  0.90338339493E+03 0.  0.
         23    2    4    4    0    0 -0.31394752195E+03 -0.83573214161E+02  0.39494063512E+03  0.51996537231E+03  0.94012522959E+02 0.  0.
         23    2    4    4    0    0  0.13812682069E+03 -0.71452590213E+03 -0.81182576637E+02  0.73797770903E+03  0.91619893393E+02 0.  0.
          1    1    3    3  502    0  0.11495611059E+03  0.44667355844E+03 -0.47660805862E+03  0.66324008979E+03  0.00000000000E+00 0. -1.
         -2    1    3    3    0  502  0.60864590672E+02  0.35142555785E+03 -0.28094700827E+03  0.45402163227E+03  0.00000000000E+00 0.  1.
         11    1    5    5    0    0 -0.30629573672E+03 -0.94062426759E+02  0.39263096925E+03  0.50677795579E+03  0.00000000000E+00 0. -1.
        -11    1    5    5    0    0 -0.76517852286E+01  0.10489212598E+02  0.23096658697E+01  0.13187416523E+02  0.00000000000E+00 0.  1.
          2    1    6    6  503    0  0.48879287181E+02 -0.47264424613E+03 -0.39439499337E+02  0.47679895367E+03  0.00000000000E+00 0. -1.
         -2    1    6    6    0  503  0.89247533513E+02 -0.24188165600E+03 -0.41743077300E+02  0.26117875536E+03  0.00000000000E+00 0.  1.
<mgrwt>
<rscale>  0 0.23333757E+04</rscale>
<asrwt>0</asrwt>
<pdfrwt beam="1">  1        1 0.21684629E+00 0.23333757E+04</pdfrwt>
<pdfrwt beam="2">  1       -2 0.14856983E+00 0.23333757E+04</pdfrwt>
<totfact> 0.18395907E+00</totfact>
</mgrwt>
</event>
<event>
12    4  0.4320235E-008  0.1410801E+04  0.7818608E-02  0.8946037E-01
         -2   -1    0    0    0  501 -0.00000000000E+00  0.00000000000E+00  0.43325608130E+03  0.43325608130E+03  0.00000000000E+00 0.  1.
          1   -1    0    0  501    0  0.00000000000E+00 -0.00000000000E+00 -0.11484884709E+04  0.11484884709E+04  0.00000000000E+00 0. -1.
        -24    2    1    2    0    0 -0.12925414658E+03  0.31860918503E+03 -0.44289559108E+03  0.56835631690E+03  0.93026615400E+02 0.  0.
        254    2    1    2    0    0  0.12925414658E+03 -0.31860918503E+03 -0.27233679854E+03  0.10133882353E+04  0.91354799350E+03 0.  0.
         23    2    4    4    0    0  0.49454910983E+03 -0.62909072256E+02 -0.52042017617E+02  0.50744807506E+03  0.79112602554E+02 0.  0.
         23    2    4    4    0    0 -0.36529496324E+03 -0.25570011278E+03 -0.22029478093E+03  0.50594016025E+03  0.92858480510E+02 0.  0.
          1    1    3    3  502    0 -0.11879480099E+03  0.23665706236E+03 -0.27805249632E+03  0.38396869745E+03  0.00000000000E+00 0. -1.
         -2    1    3    3    0  502 -0.10459345591E+02  0.81952122671E+02 -0.16484309475E+03  0.18438761946E+03  0.00000000000E+00 0.  1.
         11    1    5    5    0    0  0.45380484869E+03 -0.35286495900E+02 -0.52726124731E+02  0.45821831229E+03  0.00000000000E+00 0. -1.
        -11    1    5    5    0    0  0.40744261139E+02 -0.27622576356E+02  0.68410711422E+00  0.49229762775E+02  0.00000000000E+00 0.  1.
          3    1    6    6  503    0 -0.19500278275E+03 -0.10704759977E+03 -0.65229247248E+02  0.23181917219E+03  0.00000000000E+00 0. -1.
         -3    1    6    6    0  503 -0.17029218049E+03 -0.14865251300E+03 -0.15506553368E+03  0.27412098806E+03  0.00000000000E+00 0.  1.
<mgrwt>
<rscale>  0 0.14108006E+04</rscale>
<asrwt>0</asrwt>
<pdfrwt beam="1">  1        1 0.17669053E+00 0.14108006E+04</pdfrwt>
<pdfrwt beam="2">  1       -2 0.66654782E-01 0.14108006E+04</pdfrwt>
<totfact> 0.20604504E+01</totfact>
</mgrwt>
</event>
<event>
12    4  0.4320235E-008  0.2422018E+04  0.7818608E-02  0.8431306E-01
         -2   -1    0    0    0  501 -0.00000000000E+00  0.00000000000E+00  0.21572791284E+04  0.21572791284E+04  0.00000000000E+00 0.  1.
          1   -1    0    0  501    0  0.00000000000E+00 -0.00000000000E+00 -0.67981124716E+03  0.67981124716E+03  0.00000000000E+00 0. -1.
        -24    2    1    2    0    0 -0.71217502549E+03 -0.53914223401E+03  0.11686975024E+04  0.14730906381E+04  0.79212124108E+02 0.  0.
        254    2    1    2    0    0  0.71217502549E+03  0.53914223401E+03  0.30877037883E+03  0.13639997374E+04  0.98350827217E+03 0.  0.
         23    2    4    4    0    0  0.37746186335E+03 -0.25712168954E+02  0.53609801304E+03  0.66233598045E+03  0.90273459538E+02 0.  0.
         23    2    4    4    0    0  0.33471316213E+03  0.56485440297E+03 -0.22732763421E+03  0.70166375697E+03  0.97779226408E+02 0.  0.
          3    1    3    3  502    0 -0.34835681516E+03 -0.27687637426E+03  0.51933402057E+03  0.68390117869E+03  0.00000000000E+00 0. -1.
         -4    1    3    3    0  502 -0.36381821033E+03 -0.26226585975E+03  0.64936348181E+03  0.78918945942E+03  0.00000000000E+00 0.  1.
         11    1    5    5    0    0  0.33425877321E+03 -0.11052116259E+01  0.49763650234E+03  0.59947663626E+03  0.00000000000E+00 0. -1.
        -11    1    5    5    0    0  0.43203090142E+02 -0.24606957328E+02  0.38461510700E+02  0.62859344191E+02  0.00000000000E+00 0.  1.
          4    1    6    6  503    0  0.23067144344E+03  0.40561958401E+03 -0.11434790175E+03  0.48042897954E+03  0.00000000000E+00 0. -1.
         -4    1    6    6    0  503  0.10404171870E+03  0.15923481895E+03 -0.11297973246E+03  0.22123477743E+03  0.00000000000E+00 0.  1.
<mgrwt>
<rscale>  0 0.24220178E+04</rscale>
<asrwt>0</asrwt>
<pdfrwt beam="1">  1        1 0.10458635E+00 0.24220178E+04</pdfrwt>
<pdfrwt beam="2">  1       -2 0.33188909E+00 0.24220178E+04</pdfrwt>
<totfact> 0.45133194E-01</totfact>
</mgrwt>
</event>
<event>
12    4  0.4320235E-008  0.3084245E+04  0.7818608E-02  0.8220075E-01
         -2   -1    0    0    0  501 -0.00000000000E+00  0.00000000000E+00  0.18554559180E+04  0.18554559180E+04  0.00000000000E+00 0.  1.
          1   -1    0    0  501    0  0.00000000000E+00 -0.00000000000E+00 -0.12817018727E+04  0.12817018727E+04  0.00000000000E+00 0. -1.
        -24    2    1    2    0    0  0.99311063153E+03  0.21858817881E+03  0.12549405480E+04  0.16171668020E+04  0.79392494310E+02 0.  0.
        254    2    1    2    0    0 -0.99311063153E+03 -0.21858817881E+03 -0.68118650265E+03  0.15199909888E+04  0.90128133017E+03 0.  0.
         23    2    4    4    0    0 -0.87963205283E+03 -0.48039008109E+03 -0.33123637466E+03  0.10595604800E+04  0.91780697785E+02 0.  0.
         23    2    4    4    0    0 -0.11347857871E+03  0.26180190228E+03 -0.34995012799E+03  0.46043050876E+03  0.90075176702E+02 0.  0.
          3    1    3    3  502    0  0.40079360148E+03  0.68985907614E+02  0.55611913027E+03  0.68895794755E+03  0.00000000000E+00 0. -1.
         -4    1    3    3    0  502  0.59231703005E+03  0.14960227120E+03  0.69882141772E+03  0.92820885446E+03  0.00000000000E+00 0.  1.
         11    1    5    5    0    0 -0.48315464780E+03 -0.30785325152E+03 -0.16348810076E+03  0.59576874477E+03  0.00000000000E+00 0.  1.
        -11    1    5    5    0    0 -0.39647740503E+03 -0.17253682957E+03 -0.16774827390E+03  0.46379173522E+03  0.00000000000E+00 0. -1.
          1    1    6    6  503    0 -0.15100800781E+02  0.95053838154E+02 -0.65784214022E+02  0.11657971156E+03  0.00000000000E+00 0. -1.
         -1    1    6    6    0  503 -0.98377777927E+02  0.16674806413E+03 -0.28416591397E+03  0.34385079721E+03  0.00000000000E+00 0.  1.
<mgrwt>
<rscale>  0 0.30842447E+04</rscale>
<asrwt>0</asrwt>
<pdfrwt beam="1">  1        1 0.19718490E+00 0.30842447E+04</pdfrwt>
<pdfrwt beam="2">  1       -2 0.28545475E+00 0.30842447E+04</pdfrwt>
<totfact> 0.26974286E-01</totfact>
</mgrwt>
</event>
<event>
12    4  0.4320235E-008  0.1620118E+04  0.7818608E-02  0.8808283E-01
         -2   -1    0    0    0  501 -0.00000000000E+00  0.00000000000E+00  0.69632159248E+03  0.69632159248E+03  0.00000000000E+00 0.  1.
          1   -1    0    0  501    0  0.00000000000E+00 -0.00000000000E+00 -0.94237422411E+03  0.94237422411E+03  0.00000000000E+00 0. -1.
        -24    2    1    2    0    0 -0.35564044595E+03  0.78832913499E+02 -0.50280751718E+03  0.62616970013E+03  0.81106960096E+02 0.  0.
        254    2    1    2    0    0  0.35564044595E+03 -0.78832913499E+02  0.25675488555E+03  0.10125261165E+04  0.90917067166E+03 0.  0.
         23    2    4    4    0    0  0.46697546298E+03 -0.34352547954E+03  0.36587712536E+03  0.69189397460E+03  0.93676908091E+02 0.  0.
         23    2    4    4    0    0 -0.11133501703E+03  0.26469256604E+03 -0.10912223981E+03  0.32063214186E+03  0.91867658274E+02 0.  0.
          1    1    3    3  502    0 -0.29026327798E+03  0.47467602591E+02 -0.44509892431E+03  0.53349695057E+03  0.00000000000E+00 0. -1.
         -2    1    3    3    0  502 -0.65377167972E+02  0.31365310907E+02 -0.57708592870E+02  0.92672749562E+02  0.00000000000E+00 0.  1.
         11    1    5    5    0    0  0.32341952747E+03 -0.21053411364E+03  0.19636789018E+03  0.43299555661E+03  0.00000000000E+00 0.  1.
        -11    1    5    5    0    0  0.14355593551E+03 -0.13299136590E+03  0.16950923518E+03  0.25889841799E+03  0.00000000000E+00 0. -1.
          2    1    6    6  503    0 -0.43000695667E+02  0.18055539406E+03 -0.10252748061E+03  0.21204054902E+03  0.00000000000E+00 0. -1.
         -2    1    6    6    0  503 -0.68334321360E+02  0.84137171983E+02 -0.65947592072E+01  0.10859159283E+03  0.00000000000E+00 0.  1.
<mgrwt>
<rscale>  0 0.16201179E+04</rscale>
<asrwt>0</asrwt>
<pdfrwt beam="1">  1        1 0.14498065E+00 0.16201179E+04</pdfrwt>
<pdfrwt beam="2">  1       -2 0.10712640E+00 0.16201179E+04</pdfrwt>
<totfact> 0.98859659E+00</totfact>
</mgrwt>
</event>
<event>
12    4  0.4320235E-008  0.1497368E+04  0.7818608E-02  0.8886205E-01
         -4   -1    0    0    0  501 -0.00000000000E+00  0.00000000000E+00  0.27951278669E+03  0.27951278669E+03  0.00000000000E+00 0.  1.
          3   -1    0    0  501    0  0.00000000000E+00 -0.00000000000E+00 -0.20053729555E+04  0.20053729555E+04  0.00000000000E+00 0. -1.
        -24    2    1    2    0    0 -0.42752621123E+03 -0.15516267451E+03 -0.58369368663E+03  0.74453269722E+03  0.82319502936E+02 0.  0.
        254    2    1    2    0    0  0.42752621123E+03  0.15516267451E+03 -0.11421664822E+04  0.15403530450E+04  0.92805663258E+03 0.  0.
         23    2    4    4    0    0  0.23799041515E+03  0.11462889174E+03  0.86683584341E+02  0.29305410791E+03  0.92668472760E+02 0.  0.
         23    2    4    4    0    0  0.18953579608E+03  0.40533782776E+02 -0.12288500665E+04  0.12472989370E+04  0.90085220015E+02 0.  0.
          3    1    3    3  502    0 -0.29177382896E+03 -0.12589080899E+03 -0.45651072041E+03  0.55622162931E+03  0.00000000000E+00 0. -1.
         -4    1    3    3    0  502 -0.13575238227E+03 -0.29271865522E+02 -0.12718296622E+03  0.18831106792E+03  0.00000000000E+00 0.  1.
         11    1    5    5    0    0  0.18714888279E+03  0.10810995782E+03  0.32661972228E+02  0.21858470153E+03  0.00000000000E+00 0. -1.
        -11    1    5    5    0    0  0.50841532354E+02  0.65189339160E+01  0.54021612113E+02  0.74469406382E+02  0.00000000000E+00 0.  1.
          3    1    6    6  503    0  0.31062150018E+02 -0.24341401276E+02 -0.32339005547E+03  0.32578902523E+03  0.00000000000E+00 0. -1.
         -3    1    6    6    0  503  0.15847364606E+03  0.64875184052E+02 -0.90546001104E+03  0.92150991182E+03  0.00000000000E+00 0.  1.
<mgrwt>
<rscale>  0 0.14973675E+04</rscale>
<asrwt>0</asrwt>
<pdfrwt beam="1">  1        3 0.30851893E+00 0.14973675E+04</pdfrwt>
<pdfrwt beam="2">  1       -4 0.43001966E-01 0.14973675E+04</pdfrwt>
<totfact> 0.40743066E-01</totfact>
</mgrwt>
</event>
<event>
12    4  0.4320235E-008  0.1815691E+04  0.7818608E-02  0.8697999E-01
         -2   -1    0    0    0  501 -0.00000000000E+00  0.00000000000E+00  0.11913816937E+04  0.11913816937E+04  0.00000000000E+00 0.  1.
          1   -1    0    0  501    0  0.00000000000E+00 -0.00000000000E+00 -0.69178822599E+03  0.69178822599E+03  0.00000000000E+00 0. -1.
        -24    2    1    2    0    0 -0.98832576106E+02 -0.24003522678E+03 -0.46250798605E+03  0.53600967032E+03  0.77510911015E+02 0.  0.
        254    2    1    2    0    0  0.98832576106E+02  0.24003522678E+03  0.96210145374E+03  0.13471602493E+04  0.90654108674E+03 0.  0.
         23    2    4    4    0    0  0.18696256124E+03  0.46743050673E+03  0.21399574040E+03  0.55514348095E+03  0.94571822484E+02 0.  0.
         23    2    4    4    0    0 -0.88129985129E+02 -0.22739527995E+03  0.74810571334E+03  0.79201676840E+03  0.90293385502E+02 0.  0.
          1    1    3    3  502    0 -0.67499846196E+02 -0.22589324294E+03 -0.41619414698E+03  0.47833205456E+03  0.00000000000E+00 0. -1.
         -2    1    3    3    0  502 -0.31332729910E+02 -0.14141983841E+02 -0.46313839073E+02  0.57677615765E+02  0.00000000000E+00 0.  1.
         11    1    5    5    0    0 -0.24503430228E+01  0.10255604953E+02 -0.75360025665E+01  0.12960437823E+02  0.00000000000E+00 0. -1.
        -11    1    5    5    0    0  0.18941290426E+03  0.45717490177E+03  0.22153174296E+03  0.54218304313E+03  0.00000000000E+00 0.  1.
          1    1    6    6  503    0 -0.33759374020E+02 -0.27556086185E+02  0.65396824954E+02  0.78586117948E+02  0.00000000000E+00 0. -1.
         -1    1    6    6    0  503 -0.54370611109E+02 -0.19983919377E+03  0.68270888839E+03  0.71343065045E+03  0.00000000000E+00 0.  1.
<mgrwt>
<rscale>  0 0.18156914E+04</rscale>
<asrwt>0</asrwt>
<pdfrwt beam="1">  1        1 0.10642896E+00 0.18156914E+04</pdfrwt>
<pdfrwt beam="2">  1       -2 0.18328949E+00 0.18156914E+04</pdfrwt>
<totfact> 0.39370674E+00</totfact>
</mgrwt>
</event>
<event>
12    4  0.4320235E-008  0.2338109E+04  0.7818608E-02  0.8463045E-01
          1   -1    0    0  501    0  0.00000000000E+00  0.00000000000E+00  0.31488937535E+04  0.31488937535E+04  0.00000000000E+00 0. -1.
         -2   -1    0    0    0  501 -0.00000000000E+00 -0.00000000000E+00 -0.43402178150E+03  0.43402178150E+03  0.00000000000E+00 0.  1.
        -24    2    1    2    0    0 -0.66356540557E+03 -0.63153429303E+03  0.56472644672E+03  0.10790217383E+04  0.78850119168E+02 0.  0.
        254    2    1    2    0    0  0.66356540557E+03  0.63153429303E+03  0.21501455253E+04  0.25038937967E+04  0.89844518735E+03 0.  0.
         23    2    4    4    0    0  0.47806840480E+02 -0.16126488410E+03  0.10084404419E+03  0.21993028507E+03  0.99538697009E+02 0.  0.
         23    2    4    4    0    0  0.61575856509E+03  0.79279917714E+03  0.20493014811E+04  0.22839635117E+04  0.95726780034E+02 0.  0.
          1    1    3    3  502    0 -0.45794452437E+03 -0.45166942783E+03  0.43577957789E+03  0.77693133542E+03  0.00000000000E+00 0. -1.
         -2    1    3    3    0  502 -0.20562088120E+03 -0.17986486520E+03  0.12894686883E+03  0.30209040286E+03  0.00000000000E+00 0.  1.
         11    1    5    5    0    0 -0.19142249907E+02 -0.30639482493E+00  0.20275449380E+02  0.27885721379E+02  0.00000000000E+00 0.  1.
        -11    1    5    5    0    0  0.66949090387E+02 -0.16095848928E+03  0.80568594806E+02  0.19204456369E+03  0.00000000000E+00 0. -1.
          3    1    6    6  503    0  0.60586077959E+03  0.79097300527E+03  0.20099698974E+04  0.22433645642E+04  0.00000000000E+00 0. -1.
         -3    1    6    6    0  503  0.98977855011E+01  0.18261718671E+01  0.39331583666E+02  0.40598947464E+02  0.00000000000E+00 0.  1.
<mgrwt>
<rscale>  0 0.23381090E+04</rscale>
<asrwt>0</asrwt>
<pdfrwt beam="1">  1        1 0.48444518E+00 0.23381090E+04</pdfrwt>
<pdfrwt beam="2">  1       -2 0.66772584E-01 0.23381090E+04</pdfrwt>
<totfact> 0.75785545E-01</totfact>
</mgrwt>
</event>
<event>
12    4  0.4320235E-008  0.2635139E+04  0.7818608E-02  0.8356362E-01
         -2   -1    0    0    0  501 -0.00000000000E+00  0.00000000000E+00  0.97321257062E+03  0.97321257062E+03  0.00000000000E+00 0.  1.
          1   -1    0    0  501    0  0.00000000000E+00 -0.00000000000E+00 -0.17837722961E+04  0.17837722961E+04  0.00000000000E+00 0. -1.
        -24    2    1    2    0    0 -0.32992117882E+03  0.88747285073E+03  0.34727282068E+03  0.10115737586E+04  0.78911419894E+02 0.  0.
        254    2    1    2    0    0  0.32992117882E+03 -0.88747285073E+03 -0.11578325461E+04  0.17454111081E+04  0.89968199175E+03 0.  0.
         23    2    4    4    0    0 -0.29977156934E+03 -0.35401694805E+03 -0.47820650511E+03  0.67259744095E+03  0.92276013951E+02 0.  0.
         23    2    4    4    0    0  0.62969274816E+03 -0.53345590268E+03 -0.67962604104E+03  0.10728136671E+04  0.89159696766E+02 0.  0.
          1    1    3    3  502    0 -0.67027175298E+02  0.18817955198E+03  0.10816673367E+03  0.22716564063E+03  0.00000000000E+00 0. -1.
         -2    1    3    3    0  502 -0.26289400352E+03  0.69929329875E+03  0.23910608701E+03  0.78440811801E+03  0.00000000000E+00 0.  1.
         11    1    5    5    0    0 -0.28205633668E+03 -0.29596141499E+03 -0.44121989318E+03  0.60151802164E+03  0.00000000000E+00 0. -1.
        -11    1    5    5    0    0 -0.17715232665E+02 -0.58055533056E+02 -0.36986611931E+02  0.71079419307E+02  0.00000000000E+00 0.  1.
          2    1    6    6  503    0  0.11817715027E+03 -0.10603871072E+03 -0.17831202408E+03  0.23875766993E+03  0.00000000000E+00 0.  1.
         -2    1    6    6    0  503  0.51151559789E+03 -0.42741719196E+03 -0.50131401696E+03  0.83405599720E+03  0.00000000000E+00 0. -1.
<mgrwt>
<rscale>  0 0.26351392E+04</rscale>
<asrwt>0</asrwt>
<pdfrwt beam="1">  1        1 0.27442651E+00 0.26351392E+04</pdfrwt>
<pdfrwt beam="2">  1       -2 0.14972501E+00 0.26351392E+04</pdfrwt>
<totfact> 0.97069915E-01</totfact>
</mgrwt>
</event>
<event>
12    4  0.4320235E-008  0.1384785E+04  0.7818608E-02  0.8964906E-01
         -4   -1    0    0    0  501 -0.00000000000E+00  0.00000000000E+00  0.64443407413E+03  0.64443407413E+03  0.00000000000E+00 0.  1.
          3   -1    0    0  501    0  0.00000000000E+00 -0.00000000000E+00 -0.74391979344E+03  0.74391979344E+03  0.00000000000E+00 0. -1.
        -24    2    1    2    0    0  0.19853406824E+03  0.32278056487E+03 -0.45634935280E+02  0.38988497088E+03  0.79527818312E+02 0.  0.
        254    2    1    2    0    0 -0.19853406824E+03 -0.32278056487E+03 -0.53850784022E+02  0.99846889669E+03  0.92219149932E+03 0.  0.
         23    2    4    4    0    0 -0.19397902228E+03 -0.28906652057E+03  0.39742141349E+03  0.53595702166E+03  0.90104576852E+02 0.  0.
         23    2    4    4    0    0 -0.45550459597E+01 -0.33714044304E+02 -0.45127219751E+03  0.46251187503E+03  0.95463359840E+02 0.  0.
          1    1    3    3  502    0  0.11298616141E+03  0.14172116773E+03 -0.55014561221E+02  0.18941320968E+03  0.00000000000E+00 0. -1.
         -2    1    3    3    0  502  0.85547906833E+02  0.18105939714E+03  0.93796259414E+01  0.20047176120E+03  0.00000000000E+00 0.  1.
         11    1    5    5    0    0 -0.19060884306E+03 -0.25249952911E+03  0.38234293481E+03  0.49625987451E+03  0.00000000000E+00 0.  1.
        -11    1    5    5    0    0 -0.33701792251E+01 -0.36566991463E+02  0.15078478678E+02  0.39697147150E+02  0.00000000000E+00 0. -1.
          4    1    6    6  503    0 -0.36141752647E+02  0.98931401009E+01 -0.93808190669E+02  0.10101523223E+03  0.00000000000E+00 0. -1.
         -4    1    6    6    0  503  0.31586706687E+02 -0.43607184404E+02 -0.35746400684E+03  0.36149664280E+03  0.00000000000E+00 0.  1.
<mgrwt>
<rscale>  0 0.13847848E+04</rscale>
<asrwt>0</asrwt>
<pdfrwt beam="1">  1        3 0.11444920E+00 0.13847848E+04</pdfrwt>
<pdfrwt beam="2">  1       -4 0.99143704E-01 0.13847848E+04</pdfrwt>
<totfact> 0.11941343E+00</totfact>
</mgrwt>
</event>
<event>
12    4  0.4320235E-008  0.1363003E+04  0.7818608E-02  0.8981043E-01
         -2   -1    0    0    0  501 -0.00000000000E+00  0.00000000000E+00  0.40672626657E+03  0.40672626657E+03  0.00000000000E+00 0.  1.
          1   -1    0    0  501    0  0.00000000000E+00 -0.00000000000E+00 -0.11419091056E+04  0.11419091056E+04  0.00000000000E+00 0. -1.
        -24    2    1    2    0    0 -0.34746307988E+03  0.10241966747E+03 -0.10394187892E+03  0.38532775337E+03  0.80331707065E+02 0.  0.
        254    2    1    2    0    0  0.34746307988E+03 -0.10241966747E+03 -0.63124096016E+03  0.11633076188E+04  0.90752360086E+03 0.  0.
         23    2    4    4    0    0  0.10062317801E+03  0.39252793017E+03 -0.23877420856E+03  0.47908866647E+03  0.91157159634E+02 0.  0.
         23    2    4    4    0    0  0.24683990187E+03 -0.49494759764E+03 -0.39246675160E+03  0.68421895238E+03  0.90677241467E+02 0.  0.
          1    1    3    3  502    0 -0.34130287196E+03  0.10601030011E+03 -0.11203982507E+03  0.37453805753E+03  0.00000000000E+00 0. -1.
         -2    1    3    3    0  502 -0.61602079156E+01 -0.35906326453E+01  0.80979461494E+01  0.10789695834E+02  0.00000000000E+00 0.  1.
         11    1    5    5    0    0  0.76788196681E+02  0.29377129538E+03 -0.22195317574E+03  0.37611329857E+03  0.00000000000E+00 0. -1.
        -11    1    5    5    0    0  0.23834981326E+02  0.98756634789E+02 -0.16821032821E+02  0.10297536790E+03  0.00000000000E+00 0.  1.
          3    1    6    6  503    0  0.24906502108E+03 -0.49787163099E+03 -0.39087124537E+03  0.68021311081E+03  0.00000000000E+00 0. -1.
         -3    1    6    6    0  503 -0.22251192078E+01  0.29240333496E+01 -0.15955062364E+01  0.40058415681E+01  0.00000000000E+00 0.  1.
<mgrwt>
<rscale>  0 0.13630032E+04</rscale>
<asrwt>0</asrwt>
<pdfrwt beam="1">  1        1 0.17567832E+00 0.13630032E+04</pdfrwt>
<pdfrwt beam="2">  1       -2 0.62573273E-01 0.13630032E+04</pdfrwt>
<totfact> 0.23957610E+01</totfact>
</mgrwt>
</event>
<event>
12    4  0.4320235E-008  0.1563311E+04  0.7818608E-02  0.8843410E-01
          1   -1    0    0  501    0  0.00000000000E+00  0.00000000000E+00  0.97683266614E+03  0.97683266614E+03  0.00000000000E+00 0. -1.
         -2   -1    0    0    0  501 -0.00000000000E+00 -0.00000000000E+00 -0.62547558003E+03  0.62547558003E+03  0.00000000000E+00 0.  1.
        -24    2    1    2    0    0 -0.30719596756E+03 -0.19227425981E+03 -0.26173260477E+03  0.45400874180E+03  0.79254197117E+02 0.  0.
        254    2    1    2    0    0  0.30719596756E+03  0.19227425981E+03  0.61308969087E+03  0.11482995044E+04  0.90076302612E+03 0.  0.
         23    2    4    4    0    0  0.49420514909E+03  0.22987084928E+03  0.72266971395E+03  0.90978485785E+03  0.91529423553E+02 0.  0.
         23    2    4    4    0    0 -0.18700918153E+03 -0.37596589473E+02 -0.10958002308E+03  0.23851464652E+03  0.92171132312E+02 0.  0.
          3    1    3    3  502    0 -0.40967906866E+02 -0.42814983914E+02 -0.14139971233E+02  0.60921515305E+02  0.00000000000E+00 0. -1.
         -4    1    3    3    0  502 -0.26622806069E+03 -0.14945927590E+03 -0.24759263353E+03  0.39308722649E+03  0.00000000000E+00 0.  1.
         11    1    5    5    0    0  0.20454007001E+03  0.46840505213E+02  0.26262293306E+03  0.33615692487E+03  0.00000000000E+00 0. -1.
        -11    1    5    5    0    0  0.28966507908E+03  0.18303034407E+03  0.46004678089E+03  0.57362793298E+03  0.00000000000E+00 0.  1.
          3    1    6    6  503    0 -0.11614917336E+03  0.23188044514E+02 -0.58646779897E+02  0.13216565617E+03  0.00000000000E+00 0. -1.
         -3    1    6    6    0  503 -0.70860008176E+02 -0.60784633987E+02 -0.50933243182E+02  0.10634899035E+03  0.00000000000E+00 0.  1.
<mgrwt>
<rscale>  0 0.15633106E+04</rscale>
<asrwt>0</asrwt>
<pdfrwt beam="1">  1        1 0.15028195E+00 0.15633106E+04</pdfrwt>
<pdfrwt beam="2">  1       -2 0.96227013E-01 0.15633106E+04</pdfrwt>
<totfact> 0.12040008E+01</totfact>
</mgrwt>
</event>
<event>
12    4  0.4320235E-008  0.2531875E+04  0.7818608E-02  0.8391717E-01
         -2   -1    0    0    0  501 -0.00000000000E+00  0.00000000000E+00  0.12057012542E+04  0.12057012542E+04  0.00000000000E+00 0.  1.
          1   -1    0    0  501    0  0.00000000000E+00 -0.00000000000E+00 -0.13291834573E+04  0.13291834573E+04  0.00000000000E+00 0. -1.
        -24    2    1    2    0    0 -0.10317572050E+04  0.30707976254E+03 -0.19796277909E+03  0.10973202469E+04  0.78112429349E+02 0.  0.
        254    2    1    2    0    0  0.10317572050E+04 -0.30707976254E+03  0.74480576047E+02  0.14375644646E+04  0.94985436937E+03 0.  0.
         23    2    4    4    0    0  0.25612439523E+03  0.26417791464E+03  0.25004007002E+03  0.45409136731E+03  0.91045355943E+02 0.  0.
         23    2    4    4    0    0  0.77563280982E+03 -0.57125767718E+03 -0.17555949397E+03  0.98347309731E+03  0.91959816235E+02 0.  0.
          3    1    3    3  502    0 -0.72038101304E+02  0.42368618321E+02 -0.20798566713E+02  0.86122983200E+02  0.00000000000E+00 0. -1.
         -4    1    3    3    0  502 -0.95971910374E+03  0.26471114422E+03 -0.17716421238E+03  0.10111972637E+04  0.00000000000E+00 0.  1.
         11    1    5    5    0    0  0.97056403381E+02  0.44877490283E+02  0.87412960617E+02  0.13811212928E+03  0.00000000000E+00 0. -1.
        -11    1    5    5    0    0  0.15906799185E+03  0.21930042436E+03  0.16262710941E+03  0.31597923803E+03  0.00000000000E+00 0.  1.
          4    1    6    6  503    0  0.44280864273E+03 -0.31306108663E+03 -0.14382730985E+03  0.56104637339E+03  0.00000000000E+00 0.  1.
         -4    1    6    6    0  503  0.33282416708E+03 -0.25819659055E+03 -0.31732184128E+02  0.42242672392E+03  0.00000000000E+00 0. -1.
<mgrwt>
<rscale>  0 0.25318753E+04</rscale>
<asrwt>0</asrwt>
<pdfrwt beam="1">  1        1 0.20448976E+00 0.25318753E+04</pdfrwt>
<pdfrwt beam="2">  1       -2 0.18549250E+00 0.25318753E+04</pdfrwt>
<totfact> 0.11147980E+00</totfact>
</mgrwt>
</event>
<event>
12    4  0.4320235E-008  0.1290578E+04  0.7818608E-02  0.9037071E-01
         -2   -1    0    0    0  501 -0.00000000000E+00  0.00000000000E+00  0.18399568502E+04  0.18399568502E+04  0.00000000000E+00 0.  1.
          1   -1    0    0  501    0  0.00000000000E+00 -0.00000000000E+00 -0.22630847750E+03  0.22630847750E+03  0.00000000000E+00 0. -1.
        -24    2    1    2    0    0 -0.65289033161E+02 -0.20065979816E+02 -0.92483788432E+02  0.14070796191E+03  0.81118296483E+02 0.  0.
        254    2    1    2    0    0  0.65289033161E+02  0.20065979816E+02  0.17061321611E+04  0.19255573658E+04  0.89006680442E+03 0.  0.
         23    2    4    4    0    0  0.21659763167E+03 -0.29403974191E+03  0.14072653388E+04  0.14570372897E+04  0.95854192196E+02 0.  0.
         23    2    4    4    0    0 -0.15130859851E+03  0.31410572172E+03  0.29886682239E+03  0.46852007607E+03  0.92913872782E+02 0.  0.
          1    1    3    3  502    0 -0.96599480624E+01 -0.26588657803E+02 -0.77831275138E+02  0.82812913908E+02  0.00000000000E+00 0. -1.
         -4    1    3    3    0  502 -0.55629085098E+02  0.65226779866E+01 -0.14652513294E+02  0.57895047999E+02  0.00000000000E+00 0.  1.
         11    1    5    5    0    0  0.97593821764E+02 -0.60987453302E+02  0.47507229088E+03  0.48881254594E+03  0.00000000000E+00 0. -1.
        -11    1    5    5    0    0  0.11900380990E+03 -0.23305228861E+03  0.93219304787E+03  0.96822474379E+03  0.00000000000E+00 0.  1.
          1    1    6    6  503    0 -0.88562847195E+02  0.13637423328E+03  0.85115397355E+02  0.18353729941E+03  0.00000000000E+00 0. -1.
         -1    1    6    6    0  503 -0.62745751311E+02  0.17773148844E+03  0.21375142503E+03  0.28498277666E+03  0.00000000000E+00 0.  1.
<mgrwt>
<rscale>  0 0.12905779E+04</rscale>
<asrwt>0</asrwt>
<pdfrwt beam="1">  1        1 0.34816690E-01 0.12905779E+04</pdfrwt>
<pdfrwt beam="2">  1       -2 0.28307027E+00 0.12905779E+04</pdfrwt>
<totfact> 0.44002700E+00</totfact>
</mgrwt>
</event>
<event>
12    4  0.4320235E-008  0.2452520E+04  0.7818608E-02  0.8420098E-01
         -2   -1    0    0    0  501 -0.00000000000E+00  0.00000000000E+00  0.20052588858E+04  0.20052588858E+04  0.00000000000E+00 0.  1.
          1   -1    0    0  501    0  0.00000000000E+00 -0.00000000000E+00 -0.74988499350E+03  0.74988499350E+03  0.00000000000E+00 0. -1.
        -24    2    1    2    0    0 -0.41156252660E+03 -0.52603884094E+03 -0.37292370577E+03  0.76892865311E+03  0.77965426749E+02 0.  0.
        254    2    1    2    0    0  0.41156252660E+03  0.52603884094E+03  0.16282975981E+04  0.19862152262E+04  0.92065046645E+03 0.  0.
         23    2    4    4    0    0  0.43828350121E+03  0.29178699875E+03  0.16472909025E+04  0.17316549924E+04  0.88485113811E+02 0.  0.
         23    2    4    4    0    0 -0.26720974612E+02  0.23425184219E+03 -0.18993304366E+02  0.25456023379E+03  0.94086295287E+02 0.  0.
          1    1    3    3  502    0 -0.31436687587E+03 -0.40978962858E+03 -0.32400574777E+03  0.60969975965E+03  0.00000000000E+00 0. -1.
         -2    1    3    3    0  502 -0.97195650734E+02 -0.11624921237E+03 -0.48917957997E+02  0.15922889346E+03  0.00000000000E+00 0.  1.
         11    1    5    5    0    0  0.32023002167E+03  0.16409419601E+03  0.11316694681E+04  0.11874973503E+04  0.00000000000E+00 0.  1.
        -11    1    5    5    0    0  0.11805347954E+03  0.12769280273E+03  0.51562143433E+03  0.54415764208E+03  0.00000000000E+00 0. -1.
          3    1    6    6  503    0 -0.36205117315E+02  0.60475283464E+02 -0.36982880484E+02  0.79597763026E+02  0.00000000000E+00 0. -1.
         -3    1    6    6    0  503  0.94841427032E+01  0.17377655873E+03  0.17989576119E+02  0.17496247076E+03  0.00000000000E+00 0.  1.
<mgrwt>
<rscale>  0 0.24525200E+04</rscale>
<asrwt>0</asrwt>
<pdfrwt beam="1">  1        1 0.11536692E+00 0.24525200E+04</pdfrwt>
<pdfrwt beam="2">  1       -2 0.30850136E+00 0.24525200E+04</pdfrwt>
<totfact> 0.54016260E-01</totfact>
</mgrwt>
</event>
<event>
12    4  0.4320235E-008  0.1803612E+04  0.7818608E-02  0.8704381E-01
          1   -1    0    0  501    0  0.00000000000E+00  0.00000000000E+00  0.85648578053E+03  0.85648578053E+03  0.00000000000E+00 0. -1.
         -2   -1    0    0    0  501 -0.00000000000E+00 -0.00000000000E+00 -0.94952453916E+03  0.94952453916E+03  0.00000000000E+00 0.  1.
        -24    2    1    2    0    0  0.22327945936E+03 -0.13556556098E+03 -0.68209744738E+03  0.73478328194E+03  0.80111206545E+02 0.  0.
        254    2    1    2    0    0 -0.22327945936E+03  0.13556556098E+03  0.58905868875E+03  0.10712270377E+04  0.85574849653E+03 0.  0.
         23    2    4    4    0    0 -0.10325809743E+03 -0.34990422149E+03  0.17362690841E+03  0.41425611409E+03  0.91469261730E+02 0.  0.
         23    2    4    4    0    0 -0.12002136193E+03  0.48546978246E+03  0.41543178035E+03  0.65697092365E+03  0.94557883852E+02 0.  0.
          1    1    3    3  502    0  0.35807394711E+02 -0.23859825867E+02 -0.49423222952E+02  0.65529503076E+02  0.00000000000E+00 0. -1.
         -2    1    3    3    0  502  0.18747206465E+03 -0.11170573511E+03 -0.63267422442E+03  0.66925377887E+03  0.00000000000E+00 0.  1.
         11    1    5    5    0    0  0.11880411561E+01 -0.90339604407E+01  0.27478626049E+02  0.28949935623E+02  0.00000000000E+00 0.  1.
        -11    1    5    5    0    0 -0.10444613859E+03 -0.34087026105E+03  0.14614828236E+03  0.38530617847E+03  0.00000000000E+00 0. -1.
          1    1    6    6  503    0 -0.11862326565E+03  0.37502552797E+03  0.36076748692E+03  0.53373102345E+03  0.00000000000E+00 0. -1.
         -1    1    6    6    0  503 -0.13980962773E+01  0.11044425450E+03  0.54664293426E+02  0.12323990020E+03  0.00000000000E+00 0.  1.
<mgrwt>
<rscale>  0 0.18036122E+04</rscale>
<asrwt>0</asrwt>
<pdfrwt beam="1">  1        1 0.13176704E+00 0.18036122E+04</pdfrwt>
<pdfrwt beam="2">  1       -2 0.14608070E+00 0.18036122E+04</pdfrwt>
<totfact> 0.52514019E+00</totfact>
</mgrwt>
</event>
<event>
12    4  0.4320235E-008  0.1710909E+04  0.7818608E-02  0.8755167E-01
         -2   -1    0    0    0  501 -0.00000000000E+00  0.00000000000E+00  0.90817737176E+03  0.90817737176E+03  0.00000000000E+00 0.  1.
          1   -1    0    0  501    0  0.00000000000E+00 -0.00000000000E+00 -0.80579228414E+03  0.80579228414E+03  0.00000000000E+00 0. -1.
        -24    2    1    2    0    0 -0.23582989253E+03 -0.20194305158E+03 -0.49376820282E+03  0.58784953919E+03  0.73234611458E+02 0.  0.
        254    2    1    2    0    0  0.23582989253E+03  0.20194305158E+03  0.59615329043E+03  0.11261201167E+04  0.90352146477E+03 0.  0.
         23    2    4    4    0    0  0.34868821020E+02 -0.33327981023E+03  0.95274176675E+02  0.36075593772E+03  0.93682502486E+02 0.  0.
         23    2    4    4    0    0  0.20096107151E+03  0.53522286181E+03  0.50087911375E+03  0.76536417900E+03  0.89741717379E+02 0.  0.
          1    1    3    3  502    0 -0.13995718712E+03 -0.83121617201E+02 -0.29827569445E+03  0.33980230630E+03  0.00000000000E+00 0. -1.
         -2    1    3    3    0  502 -0.95872705415E+02 -0.11882143438E+03 -0.19549250837E+03  0.24804723288E+03  0.00000000000E+00 0.  1.
         11    1    5    5    0    0  0.14288754717E+02 -0.19630671051E+03  0.78897316360E+01  0.19698411349E+03  0.00000000000E+00 0.  1.
        -11    1    5    5    0    0  0.20580066303E+02 -0.13697309972E+03  0.87384445039E+02  0.16377182422E+03  0.00000000000E+00 0. -1.
          1    1    6    6  503    0  0.12364491229E+03  0.36169879329E+03  0.27881477276E+03  0.47312974849E+03  0.00000000000E+00 0. -1.
         -1    1    6    6    0  503  0.77316159221E+02  0.17352406852E+03  0.22206434099E+03  0.29223443051E+03  0.00000000000E+00 0.  1.
<mgrwt>
<rscale>  0 0.17109089E+04</rscale>
<asrwt>0</asrwt>
<pdfrwt beam="1">  1        1 0.12396804E+00 0.17109089E+04</pdfrwt>
<pdfrwt beam="2">  1       -2 0.13971960E+00 0.17109089E+04</pdfrwt>
<totfact> 0.65694137E+00</totfact>
</mgrwt>
</event>
<event>
12    4  0.4320235E-008  0.1158165E+04  0.7818608E-02  0.9150284E-01
          1   -1    0    0  501    0  0.00000000000E+00  0.00000000000E+00  0.68389026312E+03  0.68389026312E+03  0.00000000000E+00 0. -1.
         -2   -1    0    0    0  501 -0.00000000000E+00 -0.00000000000E+00 -0.49033660899E+03  0.49033660899E+03  0.00000000000E+00 0.  1.
        -24    2    1    2    0    0 -0.17733908993E+03  0.94501395633E+02  0.40718886746E+02  0.21998874013E+03  0.79733001023E+02 0.  0.
        254    2    1    2    0    0  0.17733908993E+03 -0.94501395633E+02  0.15283476738E+03  0.95423813198E+03  0.92023490469E+03 0.  0.
         23    2    4    4    0    0  0.41736474003E+03  0.26471714264E+03  0.87197633834E+02  0.50894467921E+03  0.84574034559E+02 0.  0.
         23    2    4    4    0    0 -0.24002565010E+03 -0.35921853828E+03  0.65637133544E+02  0.44529345277E+03  0.85602306233E+02 0.  0.
          1    1    3    3  502    0 -0.13881896492E+03  0.99949454665E+02  0.11704732843E+02  0.17145728121E+03  0.00000000000E+00 0. -1.
         -4    1    3    3    0  502 -0.38520125010E+02 -0.54480590327E+01  0.29014153904E+02  0.48531458918E+02  0.00000000000E+00 0.  1.
         11    1    5    5    0    0  0.41745056082E+03  0.26820983193E+03  0.90223124896E+02  0.50432300854E+03  0.00000000000E+00 0.  1.
        -11    1    5    5    0    0 -0.85820790488E-01 -0.34926892869E+01 -0.30254910615E+01  0.46216706748E+01  0.00000000000E+00 0. -1.
          4    1    6    6  503    0 -0.85539158108E+02 -0.16343826751E+03 -0.98376666564E+01  0.18473168256E+03  0.00000000000E+00 0. -1.
         -4    1    6    6    0  503 -0.15448649199E+03 -0.19578027077E+03  0.75474800200E+02  0.26056177021E+03  0.00000000000E+00 0.  1.
<mgrwt>
<rscale>  0 0.11581648E+04</rscale>
<asrwt>0</asrwt>
<pdfrwt beam="1">  1        1 0.10521389E+00 0.11581648E+04</pdfrwt>
<pdfrwt beam="2">  1       -2 0.75436401E-01 0.11581648E+04</pdfrwt>
<totfact> 0.38684014E+01</totfact>
</mgrwt>
</event>
<event>
12    4  0.4320235E-008  0.2359895E+04  0.7818608E-02  0.8454673E-01
         -2   -1    0    0    0  501 -0.00000000000E+00  0.00000000000E+00  0.11670122400E+04  0.11670122400E+04  0.00000000000E+00 0.  1.
          1   -1    0    0  501    0  0.00000000000E+00 -0.00000000000E+00 -0.11930259928E+04  0.11930259928E+04  0.00000000000E+00 0. -1.
        -24    2    1    2    0    0  0.23790234381E+03  0.72103108505E+03  0.58893410451E+03  0.96343504048E+03  0.69859480137E+02 0.  0.
        254    2    1    2    0    0 -0.23790234381E+03 -0.72103108505E+03 -0.61494785735E+03  0.13966031923E+04  0.99792597862E+03 0.  0.
         23    2    4    4    0    0 -0.15604945282E+03  0.21519521592E+03 -0.27336521938E+03  0.39253544579E+03  0.93247629197E+02 0.  0.
         23    2    4    4    0    0 -0.81852890990E+02 -0.93622630097E+03 -0.34158263797E+03  0.10040677466E+04  0.90850199314E+02 0.  0.
          1    1    3    3  502    0  0.47882527797E+02  0.19162782225E+03  0.11989484877E+03  0.23106002141E+03  0.00000000000E+00 0. -1.
         -2    1    3    3    0  502  0.19001981602E+03  0.52940326280E+03  0.46903925573E+03  0.73237501907E+03  0.00000000000E+00 0.  1.
         11    1    5    5    0    0 -0.60527986474E+02  0.37683865761E+02 -0.32244143146E+02  0.78252128741E+02  0.00000000000E+00 0.  1.
        -11    1    5    5    0    0 -0.95521466350E+02  0.17751135016E+03 -0.24112107623E+03  0.31428331705E+03  0.00000000000E+00 0. -1.
          1    1    6    6  503    0 -0.88135013953E+02 -0.82236962663E+03 -0.32586952450E+03  0.88896036497E+03  0.00000000000E+00 0. -1.
         -1    1    6    6    0  503  0.62821229632E+01 -0.11385667434E+03 -0.15713113477E+02  0.11510738159E+03  0.00000000000E+00 0.  1.
<mgrwt>
<rscale>  0 0.23598949E+04</rscale>
<asrwt>0</asrwt>
<pdfrwt beam="1">  1        1 0.18354246E+00 0.23598949E+04</pdfrwt>
<pdfrwt beam="2">  1       -2 0.17954034E+00 0.23598949E+04</pdfrwt>
<totfact> 0.15580858E+00</totfact>
</mgrwt>
</event>
<event>
12    4  0.4320235E-008  0.1447982E+04  0.7818608E-02  0.8919801E-01
         -2   -1    0    0    0  501 -0.00000000000E+00  0.00000000000E+00  0.23427669047E+03  0.23427669047E+03  0.00000000000E+00 0.  1.
          1   -1    0    0  501    0  0.00000000000E+00 -0.00000000000E+00 -0.22373662686E+04  0.22373662686E+04  0.00000000000E+00 0. -1.
        -24    2    1    2    0    0  0.13133843976E+03 -0.15839423888E+02 -0.13462157550E+04  0.13550890327E+04  0.80428567843E+02 0.  0.
        254    2    1    2    0    0 -0.13133843976E+03  0.15839423888E+02 -0.65687382317E+03  0.11165539264E+04  0.89314544048E+03 0.  0.
         23    2    4    4    0    0 -0.64913458822E+02 -0.17076570219E+03  0.16572329771E+03  0.26566310522E+03  0.98681264122E+02 0.  0.
         23    2    4    4    0    0 -0.66424980935E+02  0.18660512608E+03 -0.82259712089E+03  0.85089082117E+03  0.90085598645E+02 0.  0.
          3    1    3    3  502    0  0.10208184230E+03  0.65625869714E+01 -0.11980855176E+04  0.12024444593E+04  0.00000000000E+00 0. -1.
         -4    1    3    3    0  502  0.29256597454E+02 -0.22402010859E+02 -0.14813023735E+03  0.15264457344E+03  0.00000000000E+00 0.  1.
         11    1    5    5    0    0  0.14977154382E+02 -0.80749839599E+02  0.39076094709E+02  0.90949397614E+02  0.00000000000E+00 0. -1.
        -11    1    5    5    0    0 -0.79890613204E+02 -0.90015862590E+02  0.12664720300E+03  0.17471370760E+03  0.00000000000E+00 0.  1.
          2    1    6    6  503    0 -0.79858069175E+02  0.16196317328E+03 -0.60157192573E+03  0.62809088717E+03  0.00000000000E+00 0. -1.
         -2    1    6    6    0  503  0.13433088240E+02  0.24641952793E+02 -0.22102519515E+03  0.22279993400E+03  0.00000000000E+00 0.  1.
<mgrwt>
<rscale>  0 0.14479817E+04</rscale>
<asrwt>0</asrwt>
<pdfrwt beam="1">  1        1 0.34421018E+00 0.14479817E+04</pdfrwt>
<pdfrwt beam="2">  1       -2 0.36042569E-01 0.14479817E+04</pdfrwt>
<totfact> 0.12707089E+01</totfact>
</mgrwt>
</event>
<event>
12    4  0.4320235E-008  0.2125415E+04  0.7818608E-02  0.8550130E-01
          1   -1    0    0  501    0  0.00000000000E+00  0.00000000000E+00  0.14857175442E+04  0.14857175442E+04  0.00000000000E+00 0. -1.
         -2   -1    0    0    0  501 -0.00000000000E+00 -0.00000000000E+00 -0.76013587231E+03  0.76013587231E+03  0.00000000000E+00 0.  1.
        -24    2    1    2    0    0 -0.82479706799E+03 -0.98825486232E+02  0.17435838674E+02  0.83490474726E+03  0.81885581344E+02 0.  0.
        254    2    1    2    0    0  0.82479706799E+03  0.98825486232E+02  0.70814583323E+03  0.14109486693E+04  0.89400724052E+03 0.  0.
         23    2    4    4    0    0  0.66386594506E+03 -0.97753516520E+02  0.27507084958E+02  0.67767552556E+03  0.90629659744E+02 0.  0.
         23    2    4    4    0    0  0.16093112293E+03  0.19657900275E+03  0.68063874827E+03  0.73327314371E+03  0.99389471187E+02 0.  0.
          1    1    3    3  502    0 -0.64706819613E+03 -0.79225078316E+02  0.47332192877E+02  0.65361624824E+03  0.00000000000E+00 0. -1.
         -2    1    3    3    0  502 -0.17772887186E+03 -0.19600407915E+02 -0.29896354203E+02  0.18128849902E+03  0.00000000000E+00 0.  1.
         11    1    5    5    0    0  0.27584226392E+03 -0.30218118212E+02  0.54884132738E+02  0.28286809163E+03  0.00000000000E+00 0. -1.
        -11    1    5    5    0    0  0.38802368114E+03 -0.67535398309E+02 -0.27377047781E+02  0.39480743394E+03  0.00000000000E+00 0.  1.
          1    1    6    6  503    0  0.32641592193E+02  0.82301118069E+02  0.34548045642E+03  0.35664505232E+03  0.00000000000E+00 0. -1.
         -1    1    6    6    0  503  0.12828953074E+03  0.11427788468E+03  0.33515829185E+03  0.37662809138E+03  0.00000000000E+00 0.  1.
<mgrwt>
<rscale>  0 0.21254150E+04</rscale>
<asrwt>0</asrwt>
<pdfrwt beam="1">  1        1 0.22857193E+00 0.21254150E+04</pdfrwt>
<pdfrwt beam="2">  1       -2 0.11694398E+00 0.21254150E+04</pdfrwt>
<totfact> 0.30511869E+00</totfact>
</mgrwt>
</event>
<event>
12    4  0.4697296E-008  0.2367434E+04  0.7818608E-02  0.8451797E-01
          1   -1    0    0  501    0  0.00000000000E+00  0.00000000000E+00  0.14550190541E+04  0.14550190541E+04  0.00000000000E+00 0. -1.
         -2   -1    0    0    0  501 -0.00000000000E+00 -0.00000000000E+00 -0.96300191394E+03  0.96300191394E+03  0.00000000000E+00 0.  1.
        -24    2    1    2    0    0  0.32405518860E+03  0.89746006651E+03 -0.10508149815E+03  0.96323461296E+03  0.79576768628E+02 0.  0.
        254    2    1    2    0    0 -0.32405518860E+03 -0.89746006651E+03  0.59709863835E+03  0.14547863551E+04  0.92164538672E+03 0.  0.
         23    2    4    4    0    0 -0.12481912725E+03 -0.95155024840E+03  0.18041921977E+03  0.98053077487E+03  0.88666881333E+02 0.  0.
         23    2    4    4    0    0 -0.19923606135E+03  0.54090181887E+02  0.41667941858E+03  0.47425558025E+03  0.93144305283E+02 0.  0.
          3    1    3    3  502    0  0.23131426111E+01  0.49878994146E+02 -0.15208852018E+02  0.52197450756E+02  0.00000000000E+00 0. -1.
         -4    1    3    3    0  502  0.32174204599E+03  0.84758107236E+03 -0.89872646132E+02  0.91103716220E+03  0.00000000000E+00 0.  1.
         11    1    5    5    0    0 -0.69332892906E+02 -0.46931535101E+03  0.13359776297E+03  0.49286135069E+03  0.00000000000E+00 0. -1.
        -11    1    5    5    0    0 -0.55486234345E+02 -0.48223489739E+03  0.46821456794E+02  0.48766942418E+03  0.00000000000E+00 0.  1.
          2    1    6    6  503    0 -0.43080454150E+02  0.19841930034E+02  0.30753282534E+02  0.56527799390E+02  0.00000000000E+00 0. -1.
         -2    1    6    6    0  503 -0.15615560720E+03  0.34248251854E+02  0.38592613605E+03  0.41772778086E+03  0.00000000000E+00 0.  1.
<mgrwt>
<rscale>  0 0.23674342E+04</rscale>
<asrwt>0</asrwt>
<pdfrwt beam="1">  1        1 0.22384909E+00 0.23674342E+04</pdfrwt>
<pdfrwt beam="2">  1       -2 0.14815414E+00 0.23674342E+04</pdfrwt>
<totfact> 0.17173438E+00</totfact>
</mgrwt>
</event>
<event>
12    4  0.4320235E-008  0.1787009E+04  0.7818608E-02  0.8713239E-01
          1   -1    0    0  501    0  0.00000000000E+00  0.00000000000E+00  0.26375501884E+04  0.26375501884E+04  0.00000000000E+00 0. -1.
         -2   -1    0    0    0  501 -0.00000000000E+00 -0.00000000000E+00 -0.30268626634E+03  0.30268626634E+03  0.00000000000E+00 0.  1.
        -24    2    1    2    0    0  0.36888485109E+03  0.48172846087E+03  0.45344405661E+03  0.76254630910E+03  0.87903456559E+02 0.  0.
        254    2    1    2    0    0 -0.36888485109E+03 -0.48172846087E+03  0.18814198655E+04  0.21776901457E+04  0.91348525821E+03 0.  0.
         23    2    4    4    0    0 -0.45645487893E+03 -0.46627713278E+03  0.60344089041E+03  0.89333600143E+03  0.90237919888E+02 0.  0.
         23    2    4    4    0    0  0.87570027839E+02 -0.15451328094E+02  0.12779789751E+04  0.12843541443E+04  0.91804432286E+02 0.  0.
          1    1    3    3  502    0  0.80581520169E+02  0.11956384228E+03  0.64593065504E+02  0.15799100571E+03  0.00000000000E+00 0. -1.
         -2    1    3    3    0  502  0.28830333092E+03  0.36216461859E+03  0.38885099111E+03  0.60455530340E+03  0.00000000000E+00 0.  1.
         11    1    5    5    0    0 -0.96053940377E+02 -0.13477074084E+03  0.11376921376E+03  0.20083064021E+03  0.00000000000E+00 0.  1.
        -11    1    5    5    0    0 -0.36040093855E+03 -0.33150639193E+03  0.48967167664E+03  0.69250536121E+03  0.00000000000E+00 0. -1.
          4    1    6    6  503    0  0.83110792354E+02  0.13044236408E+02  0.61251958581E+03  0.61827000486E+03  0.00000000000E+00 0. -1.
         -4    1    6    6    0  503  0.44592354850E+01 -0.28495564502E+02  0.66545938928E+03  0.66608413940E+03  0.00000000000E+00 0.  1.
<mgrwt>
<rscale>  0 0.17870089E+04</rscale>
<asrwt>0</asrwt>
<pdfrwt beam="1">  1        1 0.40577694E+00 0.17870089E+04</pdfrwt>
<pdfrwt beam="2">  1       -2 0.46567120E-01 0.17870089E+04</pdfrwt>
<totfact> 0.39454827E+00</totfact>
</mgrwt>
</event>
<event>
12    4  0.4320235E-008  0.2302491E+04  0.7818608E-02  0.8476940E-01
         -2   -1    0    0    0  501 -0.00000000000E+00  0.00000000000E+00  0.58129880988E+03  0.58129880988E+03  0.00000000000E+00 0.  1.
          1   -1    0    0  501    0  0.00000000000E+00 -0.00000000000E+00 -0.22800082562E+04  0.22800082562E+04  0.00000000000E+00 0. -1.
        -24    2    1    2    0    0 -0.45150878280E+03  0.49589160176E+03 -0.15903533584E+04  0.17280146884E+04  0.83918395068E+02 0.  0.
        254    2    1    2    0    0  0.45150878280E+03 -0.49589160176E+03 -0.10835608789E+03  0.11332923777E+04  0.90710633878E+03 0.  0.
         23    2    4    4    0    0  0.40757941084E+03 -0.40685732938E+03  0.33387793254E+03  0.67125327240E+03  0.86328554158E+02 0.  0.
         23    2    4    4    0    0  0.43929371965E+02 -0.89034272379E+02 -0.44223402043E+03  0.46203910526E+03  0.89734689990E+02 0.  0.
          3    1    3    3  502    0 -0.34470876098E+03  0.41590725206E+03 -0.13285039444E+04  0.14341289003E+04  0.00000000000E+00 0. -1.
         -4    1    3    3    0  502 -0.10680002182E+03  0.79984349696E+02 -0.26184941401E+03  0.29388578815E+03  0.00000000000E+00 0.  1.
         11    1    5    5    0    0  0.47569509101E+02 -0.78928431404E+02  0.28553548756E+02  0.96477254452E+02  0.00000000000E+00 0.  1.
        -11    1    5    5    0    0  0.36000990174E+03 -0.32792889797E+03  0.30532438379E+03  0.57477601795E+03  0.00000000000E+00 0. -1.
          1    1    6    6  503    0  0.43712340432E+02 -0.77391500337E+02 -0.44151421477E+03  0.45037208492E+03  0.00000000000E+00 0. -1.
         -1    1    6    6    0  503  0.21703153277E+00 -0.11642772042E+02 -0.71980565968E+00  0.11667020344E+02  0.00000000000E+00 0.  1.
<mgrwt>
<rscale>  0 0.23024909E+04</rscale>
<asrwt>0</asrwt>
<pdfrwt beam="1">  1        1 0.35077050E+00 0.23024909E+04</pdfrwt>
<pdfrwt beam="2">  1       -2 0.89430587E-01 0.23024909E+04</pdfrwt>
<totfact> 0.16356019E+00</totfact>
</mgrwt>
</event>
<event>
12    4  0.4320235E-008  0.1393696E+04  0.7818608E-02  0.8958394E-01
          1   -1    0    0  501    0  0.00000000000E+00  0.00000000000E+00  0.14995764356E+04  0.14995764356E+04  0.00000000000E+00 0. -1.
         -2   -1    0    0    0  501 -0.00000000000E+00 -0.00000000000E+00 -0.32382295437E+03  0.32382295437E+03  0.00000000000E+00 0.  1.
        -24    2    1    2    0    0 -0.33434134477E+03 -0.16426714406E+03  0.61778439799E+03  0.72553520120E+03  0.77304180561E+02 0.  0.
        254    2    1    2    0    0  0.33434134477E+03  0.16426714406E+03  0.55796908328E+03  0.10978641888E+04  0.86902730091E+03 0.  0.
         23    2    4    4    0    0 -0.19827661142E+03  0.22721120072E+03  0.43913349715E+03  0.54050373368E+03  0.91474113448E+02 0.  0.
         23    2    4    4    0    0  0.53261795619E+03 -0.62944056655E+02  0.11883558613E+03  0.55736045513E+03  0.94259953762E+02 0.  0.
          1    1    3    3  502    0 -0.22619050769E+03 -0.12670707575E+03  0.48705912352E+03  0.55176391566E+03  0.00000000000E+00 0. -1.
         -2    1    3    3    0  502 -0.10815083709E+03 -0.37560068310E+02  0.13072527447E+03  0.17377128554E+03  0.00000000000E+00 0.  1.
         11    1    5    5    0    0 -0.44210231455E+02  0.98405550321E+01  0.38929371367E+02  0.59723337513E+02  0.00000000000E+00 0. -1.
        -11    1    5    5    0    0 -0.15406637996E+03  0.21737064568E+03  0.40020412578E+03  0.48078039616E+03  0.00000000000E+00 0.  1.
          3    1    6    6  503    0  0.14294576528E+03 -0.34680498504E+02  0.72306228974E+02  0.16390368982E+03  0.00000000000E+00 0. -1.
         -3    1    6    6    0  503  0.38967219091E+03 -0.28263558151E+02  0.46529357153E+02  0.39345676531E+03  0.00000000000E+00 0.  1.
<mgrwt>
<rscale>  0 0.13936962E+04</rscale>
<asrwt>0</asrwt>
<pdfrwt beam="1">  1        1 0.23070406E+00 0.13936962E+04</pdfrwt>
<pdfrwt beam="2">  1       -2 0.49818917E-01 0.13936962E+04</pdfrwt>
<totfact> 0.21361812E+01</totfact>
</mgrwt>
</event>
<event>
12    4  0.4320235E-008  0.1138689E+04  0.7818608E-02  0.9168282E-01
         -2   -1    0    0    0  501 -0.00000000000E+00  0.00000000000E+00  0.37701091089E+03  0.37701091089E+03  0.00000000000E+00 0.  1.
          1   -1    0    0  501    0  0.00000000000E+00 -0.00000000000E+00 -0.85979801348E+03  0.85979801348E+03  0.00000000000E+00 0. -1.
        -24    2    1    2    0    0 -0.29933533392E+01  0.16655464775E+03  0.36717286183E+02  0.18727732703E+03  0.77299594195E+02 0.  0.
        254    2    1    2    0    0  0.29933533392E+01 -0.16655464775E+03 -0.51950438877E+03  0.10495315973E+04  0.89659486559E+03 0.  0.
         23    2    4    4    0    0 -0.19520377606E+03 -0.48135804257E+03 -0.33298002060E+03  0.62389997858E+03  0.92549499274E+02 0.  0.
         23    2    4    4    0    0  0.19819712940E+03  0.31480339482E+03 -0.18652436817E+03  0.42563161876E+03  0.89373684439E+02 0.  0.
          3    1    3    3  502    0 -0.16348579715E+02  0.65435329207E+02 -0.20286665112E+02  0.70431577780E+02  0.00000000000E+00 0. -1.
         -4    1    3    3    0  502  0.13355226376E+02  0.10111931855E+03  0.57003951295E+02  0.11684574925E+03  0.00000000000E+00 0.  1.
         11    1    5    5    0    0 -0.19899144784E+03 -0.48240701810E+03 -0.32436835757E+03  0.61443385228E+03  0.00000000000E+00 0. -1.
        -11    1    5    5    0    0  0.37876717759E+01  0.10489755297E+01 -0.86116630263E+01  0.94661263051E+01  0.00000000000E+00 0.  1.
          1    1    6    6  503    0  0.27202399259E+02  0.28297699811E+02 -0.53689740096E+02  0.66508033587E+02  0.00000000000E+00 0. -1.
         -1    1    6    6    0  503  0.17099473014E+03  0.28650569501E+03 -0.13283462808E+03  0.35912358517E+03  0.00000000000E+00 0.  1.
<mgrwt>
<rscale>  0 0.11386891E+04</rscale>
<asrwt>0</asrwt>
<pdfrwt beam="1">  1        1 0.13227662E+00 0.11386891E+04</pdfrwt>
<pdfrwt beam="2">  1       -2 0.58001678E-01 0.11386891E+04</pdfrwt>
<totfact> 0.47618953E+01</totfact>
</mgrwt>
</event>
<event>
12    4  0.4320235E-008  0.1259072E+04  0.7818608E-02  0.9062666E-01
         -2   -1    0    0    0  501 -0.00000000000E+00  0.00000000000E+00  0.17617249283E+03  0.17617249283E+03  0.00000000000E+00 0.  1.
          1   -1    0    0  501    0  0.00000000000E+00 -0.00000000000E+00 -0.22495890467E+04  0.22495890467E+04  0.00000000000E+00 0. -1.
        -24    2    1    2    0    0  0.56912035323E+02 -0.16277265659E+03 -0.10394511610E+04  0.10565394425E+04  0.77993333016E+02 0.  0.
        254    2    1    2    0    0 -0.56912035323E+02  0.16277265659E+03 -0.10339653929E+04  0.13692220971E+04  0.88088069558E+03 0.  0.
         23    2    4    4    0    0 -0.43829194505E+03  0.21078162406E+03 -0.66017384052E+03  0.82517599993E+03  0.92505183753E+02 0.  0.
         23    2    4    4    0    0  0.38137990972E+03 -0.48008967472E+02 -0.37379155241E+03  0.54404609715E+03  0.92252559133E+02 0.  0.
          1    1    3    3  502    0  0.29582408689E+01 -0.10050084826E+03 -0.70260870757E+03  0.70976627677E+03  0.00000000000E+00 0. -1.
         -2    1    3    3    0  502  0.53953794454E+02 -0.62271808331E+02 -0.33684245341E+03  0.34677316573E+03  0.00000000000E+00 0.  1.
         11    1    5    5    0    0 -0.20533692486E+03  0.14562953400E+03 -0.30528996154E+03  0.39569328336E+03  0.00000000000E+00 0. -1.
        -11    1    5    5    0    0 -0.23295502019E+03  0.65152090069E+02 -0.35488387898E+03  0.42948271657E+03  0.00000000000E+00 0.  1.
          1    1    6    6  503    0  0.10274095117E+03 -0.52688528755E+02 -0.90962865392E+02  0.14698988737E+03  0.00000000000E+00 0. -1.
         -1    1    6    6    0  503  0.27863895855E+03  0.46795612828E+01 -0.28282868702E+03  0.39705620977E+03  0.00000000000E+00 0.  1.
<mgrwt>
<rscale>  0 0.12590722E+04</rscale>
<asrwt>0</asrwt>
<pdfrwt beam="1">  1        1 0.34609060E+00 0.12590722E+04</pdfrwt>
<pdfrwt beam="2">  1       -2 0.27103462E-01 0.12590722E+04</pdfrwt>
<totfact> 0.21647078E+01</totfact>
</mgrwt>
</event>
<event>
12    4  0.4320235E-008  0.1086941E+04  0.7818608E-02  0.9218014E-01
          1   -1    0    0  501    0  0.00000000000E+00  0.00000000000E+00  0.16969590477E+04  0.16969590477E+04  0.00000000000E+00 0. -1.
         -2   -1    0    0    0  501 -0.00000000000E+00 -0.00000000000E+00 -0.17405261283E+03  0.17405261283E+03  0.00000000000E+00 0.  1.
        -24    2    1    2    0    0 -0.95135496180E+01 -0.82548585989E+02  0.14364386208E+02  0.11630755371E+03  0.80102027336E+02 0.  0.
        254    2    1    2    0    0  0.95135496180E+01  0.82548585989E+02  0.15085420487E+04  0.17547041068E+04  0.89240271920E+03 0.  0.
         23    2    4    4    0    0 -0.12431111979E+02  0.33064331537E+02  0.16074653998E+04  0.16104420607E+04  0.91273418447E+02 0.  0.
         23    2    4    4    0    0  0.21944661597E+02  0.49484254451E+02 -0.98923351093E+02  0.14426204611E+03  0.89974712813E+02 0.  0.
          1    1    3    3  502    0 -0.26030178661E+02 -0.51114458330E+02  0.42180901509E+02  0.71200326570E+02  0.00000000000E+00 0. -1.
         -2    1    3    3    0  502  0.16516629043E+02 -0.31434127658E+02 -0.27816515301E+02  0.45107227138E+02  0.00000000000E+00 0.  1.
         11    1    5    5    0    0  0.12748667931E+02 -0.16382697410E+01  0.33325451501E+02  0.35718317143E+02  0.00000000000E+00 0. -1.
        -11    1    5    5    0    0 -0.25179779910E+02  0.34702601278E+02  0.15741399483E+04  0.15747237436E+04  0.00000000000E+00 0.  1.
          1    1    6    6  503    0  0.28795522473E+02  0.68050736153E+02 -0.44276908405E+02  0.86142494875E+02  0.00000000000E+00 0. -1.
         -1    1    6    6    0  503 -0.68508608761E+01 -0.18566481702E+02 -0.54646442688E+02  0.58119551237E+02  0.00000000000E+00 0.  1.
<mgrwt>
<rscale>  0 0.10869409E+04</rscale>
<asrwt>0</asrwt>
<pdfrwt beam="1">  1        1 0.26107061E+00 0.10869409E+04</pdfrwt>
<pdfrwt beam="2">  1       -2 0.26777326E-01 0.10869409E+04</pdfrwt>
<totfact> 0.53092808E+01</totfact>
</mgrwt>
</event>
<event>
12    4  0.4320235E-008  0.2206664E+04  0.7818608E-02  0.8515660E-01
         -2   -1    0    0    0  501 -0.00000000000E+00  0.00000000000E+00  0.66498684917E+03  0.66498684917E+03  0.00000000000E+00 0.  1.
          1   -1    0    0  501    0  0.00000000000E+00 -0.00000000000E+00 -0.18306244273E+04  0.18306244273E+04  0.00000000000E+00 0. -1.
        -24    2    1    2    0    0 -0.74006025722E+03 -0.24256560232E+03  0.22343641081E+02  0.78310707728E+03  0.78931618749E+02 0.  0.
        254    2    1    2    0    0  0.74006025722E+03  0.24256560232E+03 -0.11879812192E+04  0.17125041992E+04  0.95647477716E+03 0.  0.
         23    2    4    4    0    0  0.51966083156E+03 -0.36043677687E+02 -0.12351492113E+04  0.13435509580E+04  0.90493513317E+02 0.  0.
         23    2    4    4    0    0  0.22039942567E+03  0.27860928001E+03  0.47167992076E+02  0.36895324123E+03  0.87764668288E+02 0.  0.
          3    1    3    3  502    0 -0.28562511308E+03 -0.53742006865E+02  0.12481986663E+02  0.29090498194E+03  0.00000000000E+00 0. -1.
         -4    1    3    3    0  502 -0.45443514414E+03 -0.18882359545E+03  0.98616544178E+01  0.49220209534E+03  0.00000000000E+00 0.  1.
         11    1    5    5    0    0  0.11218004454E+03  0.14066290158E+02 -0.35040214246E+03  0.36819001121E+03  0.00000000000E+00 0. -1.
        -11    1    5    5    0    0  0.40748078702E+03 -0.50109967844E+02 -0.88474706886E+03  0.97536094679E+03  0.00000000000E+00 0.  1.
          4    1    6    6  503    0  0.13986910771E+03  0.21013442231E+03 -0.18487411708E+01  0.25243466595E+03  0.00000000000E+00 0. -1.
         -4    1    6    6    0  503  0.80530317957E+02  0.68474857693E+02  0.49016733247E+02  0.11651857528E+03  0.00000000000E+00 0.  1.
<mgrwt>
<rscale>  0 0.22066637E+04</rscale>
<asrwt>0</asrwt>
<pdfrwt beam="1">  1        1 0.28163452E+00 0.22066637E+04</pdfrwt>
<pdfrwt beam="2">  1       -2 0.10230567E+00 0.22066637E+04</pdfrwt>
<totfact> 0.24312712E+00</totfact>
</mgrwt>
</event>
<event>
12    4  0.4320235E-008  0.1723541E+04  0.7818608E-02  0.8748051E-01
         -2   -1    0    0    0  501 -0.00000000000E+00  0.00000000000E+00  0.53075734538E+03  0.53075734538E+03  0.00000000000E+00 0.  1.
          1   -1    0    0  501    0  0.00000000000E+00 -0.00000000000E+00 -0.13992233190E+04  0.13992233190E+04  0.00000000000E+00 0. -1.
        -24    2    1    2    0    0 -0.59725591442E+03 -0.81385330962E+02 -0.13330254888E+03  0.62245297496E+03  0.79623721909E+02 0.  0.
        254    2    1    2    0    0  0.59725591442E+03  0.81385330962E+02 -0.73516342473E+03  0.13075276894E+04  0.89767766937E+03 0.  0.
         23    2    4    4    0    0  0.22037027274E+03  0.47237509135E+03 -0.38962378436E+03  0.65734626955E+03  0.92715374767E+02 0.  0.
         23    2    4    4    0    0  0.37688564168E+03 -0.39098976039E+03 -0.34553964037E+03  0.65018141985E+03  0.91773939770E+02 0.  0.
          3    1    3    3  502    0 -0.21739985915E+03 -0.63463965221E+02 -0.69194938061E+02  0.23680860013E+03  0.00000000000E+00 0. -1.
         -4    1    3    3    0  502 -0.37985605527E+03 -0.17921365741E+02 -0.64107610822E+02  0.38564437483E+03  0.00000000000E+00 0.  1.
         11    1    5    5    0    0  0.17685398960E+03  0.40912364139E+03 -0.36684043098E+03  0.57726197638E+03  0.00000000000E+00 0.  1.
        -11    1    5    5    0    0  0.43516283140E+02  0.63251449965E+02 -0.22783353383E+02  0.80084293169E+02  0.00000000000E+00 0. -1.
          3    1    6    6  503    0  0.18914128584E+03 -0.21858397571E+03 -0.23421933888E+03  0.37203773888E+03  0.00000000000E+00 0. -1.
         -3    1    6    6    0  503  0.18774435583E+03 -0.17240578468E+03 -0.11132030149E+03  0.27814368097E+03  0.00000000000E+00 0.  1.
<mgrwt>
<rscale>  0 0.17235406E+04</rscale>
<asrwt>0</asrwt>
<pdfrwt beam="1">  1        1 0.21526512E+00 0.17235406E+04</pdfrwt>
<pdfrwt beam="2">  1       -2 0.81654977E-01 0.17235406E+04</pdfrwt>
<totfact> 0.84607805E+00</totfact>
</mgrwt>
</event>
<event>
12    4  0.4320235E-008  0.2335638E+04  0.7818608E-02  0.8464001E-01
         -2   -1    0    0    0  501 -0.00000000000E+00  0.00000000000E+00  0.97901903338E+03  0.97901903338E+03  0.00000000000E+00 0.  1.
          1   -1    0    0  501    0  0.00000000000E+00 -0.00000000000E+00 -0.13930282698E+04  0.13930282698E+04  0.00000000000E+00 0. -1.
        -24    2    1    2    0    0  0.68157440379E+03  0.32196384998E+03 -0.83332919578E+03  0.11261519640E+04  0.74674687515E+02 0.  0.
        254    2    1    2    0    0 -0.68157440379E+03 -0.32196384998E+03  0.41931995937E+03  0.12458953391E+04  0.89901144552E+03 0.  0.
         23    2    4    4    0    0  0.15783614574E+02 -0.76799546848E+02  0.48390598551E+03  0.49870049879E+03  0.91596352498E+02 0.  0.
         23    2    4    4    0    0 -0.69735801836E+03 -0.24516430313E+03 -0.64586026145E+02  0.74719484035E+03  0.87835262699E+02 0.  0.
          3    1    3    3  502    0  0.67163295234E+03  0.30462172817E+03 -0.81050768093E+03  0.10958138167E+04  0.00000000000E+00 0. -1.
         -4    1    3    3    0  502  0.99414514492E+01  0.17342121802E+02 -0.22821514853E+02  0.30338147368E+02  0.00000000000E+00 0.  1.
         11    1    5    5    0    0  0.25150530871E+02 -0.31453536881E+02  0.59935256340E+02  0.72208788509E+02  0.00000000000E+00 0. -1.
        -11    1    5    5    0    0 -0.93669162972E+01 -0.45346009967E+02  0.42397072917E+03  0.42649171028E+03  0.00000000000E+00 0.  1.
          4    1    6    6  503    0 -0.65762947746E+02 -0.17347377102E+01 -0.20379089494E+02  0.68870036298E+02  0.00000000000E+00 0. -1.
         -4    1    6    6    0  503 -0.63159507061E+03 -0.24342956542E+03 -0.44206936651E+02  0.67832480405E+03  0.00000000000E+00 0.  1.
<mgrwt>
<rscale>  0 0.23356380E+04</rscale>
<asrwt>0</asrwt>
<pdfrwt beam="1">  1        1 0.21431204E+00 0.23356380E+04</pdfrwt>
<pdfrwt beam="2">  1       -2 0.15061831E+00 0.23356380E+04</pdfrwt>
<totfact> 0.18215107E+00</totfact>
</mgrwt>
</event>
<event>
12    4  0.4320235E-008  0.1878619E+04  0.7818608E-02  0.8665573E-01
         -2   -1    0    0    0  501 -0.00000000000E+00  0.00000000000E+00  0.10284251678E+04  0.10284251678E+04  0.00000000000E+00 0.  1.
          1   -1    0    0  501    0  0.00000000000E+00 -0.00000000000E+00 -0.85791637478E+03  0.85791637478E+03  0.00000000000E+00 0. -1.
        -24    2    1    2    0    0 -0.31122724444E+03  0.56867645474E+03 -0.25118677817E+03  0.69972750973E+03  0.79173748696E+02 0.  0.
        254    2    1    2    0    0  0.31122724444E+03 -0.56867645474E+03  0.42169557122E+03  0.11866140329E+04  0.89998355562E+03 0.  0.
         23    2    4    4    0    0  0.20767043619E+03  0.18436690015E+03  0.28687130853E+03  0.40917959712E+03  0.89524472074E+02 0.  0.
         23    2    4    4    0    0  0.10355680825E+03 -0.75304335489E+03  0.13482426269E+03  0.77743443576E+03  0.91806389821E+02 0.  0.
          3    1    3    3  502    0 -0.23914868816E+03  0.48717949218E+03 -0.19067096689E+03  0.57523157968E+03  0.00000000000E+00 0. -1.
         -4    1    3    3    0  502 -0.72078556288E+02  0.81496962556E+02 -0.60515811282E+02  0.12449593004E+03  0.00000000000E+00 0.  1.
         11    1    5    5    0    0  0.19620848671E+03  0.18528817979E+03  0.29108010494E+03  0.39693463860E+03  0.00000000000E+00 0.  1.
        -11    1    5    5    0    0  0.11461949477E+02 -0.92127963555E+00 -0.42087964072E+01  0.12244958521E+02  0.00000000000E+00 0. -1.
          4    1    6    6  503    0  0.83211869693E+01 -0.14023232977E+03 -0.91428390229E+01  0.14077620527E+03  0.00000000000E+00 0. -1.
         -4    1    6    6    0  503  0.95235621285E+02 -0.61281102513E+03  0.14396710171E+03  0.63665823049E+03  0.00000000000E+00 0.  1.
<mgrwt>
<rscale>  0 0.18786195E+04</rscale>
<asrwt>0</asrwt>
<pdfrwt beam="1">  1        1 0.13198713E+00 0.18786195E+04</pdfrwt>
<pdfrwt beam="2">  1       -2 0.15821926E+00 0.18786195E+04</pdfrwt>
<totfact> 0.42050156E+00</totfact>
</mgrwt>
</event>
<event>
12    4  0.4320235E-008  0.1601480E+04  0.7818608E-02  0.8819639E-01
          1   -1    0    0  501    0  0.00000000000E+00  0.00000000000E+00  0.12611036252E+04  0.12611036252E+04  0.00000000000E+00 0. -1.
         -2   -1    0    0    0  501 -0.00000000000E+00 -0.00000000000E+00 -0.50843133306E+03  0.50843133306E+03  0.00000000000E+00 0.  1.
        -24    2    1    2    0    0 -0.45596524030E+03  0.27775387410E+03  0.13442366812E+03  0.55639717988E+03  0.80352873531E+02 0.  0.
        254    2    1    2    0    0  0.45596524030E+03 -0.27775387410E+03  0.61824862399E+03  0.12131377784E+04  0.89689486188E+03 0.  0.
         23    2    4    4    0    0  0.56228323761E+03 -0.48219471290E+03  0.61275220780E+03  0.96554516970E+03  0.90211008876E+02 0.  0.
         23    2    4    4    0    0 -0.10631799730E+03  0.20444083879E+03  0.54964161846E+01  0.24759260866E+03  0.90400863676E+02 0.  0.
          3    1    3    3  502    0 -0.22130487123E+03  0.12518940029E+03  0.10453497039E+03  0.27491051637E+03  0.00000000000E+00 0. -1.
         -4    1    3    3    0  502 -0.23466036907E+03  0.15256447382E+03  0.29888697728E+02  0.28148666351E+03  0.00000000000E+00 0.  1.
         11    1    5    5    0    0  0.45884861944E+03 -0.38913515610E+03  0.54049009432E+03  0.80876310953E+03  0.00000000000E+00 0.  1.
        -11    1    5    5    0    0  0.10343461816E+03 -0.93059556802E+02  0.72262113484E+02  0.15678206017E+03  0.00000000000E+00 0. -1.
          2    1    6    6  503    0 -0.25980909069E+02  0.18719680180E+02  0.29853567064E+02  0.43779784473E+02  0.00000000000E+00 0. -1.
         -2    1    6    6    0  503 -0.80337088236E+02  0.18572115861E+03 -0.24357150879E+02  0.20381282418E+03  0.00000000000E+00 0.  1.
<mgrwt>
<rscale>  0 0.16014801E+04</rscale>
<asrwt>0</asrwt>
<pdfrwt beam="1">  1        1 0.19401594E+00 0.16014801E+04</pdfrwt>
<pdfrwt beam="2">  1       -2 0.78220206E-01 0.16014801E+04</pdfrwt>
<totfact> 0.11803925E+01</totfact>
</mgrwt>
</event>
<event>
12    4  0.4320235E-008  0.1258314E+04  0.7818608E-02  0.9063292E-01
         -2   -1    0    0    0  501 -0.00000000000E+00  0.00000000000E+00  0.73548392020E+03  0.73548392020E+03  0.00000000000E+00 0.  1.
          1   -1    0    0  501    0  0.00000000000E+00 -0.00000000000E+00 -0.53820116251E+03  0.53820116251E+03  0.00000000000E+00 0. -1.
        -24    2    1    2    0    0  0.66151330191E+02  0.24733787487E+03 -0.99696140108E+02  0.28598151966E+03  0.79335278416E+02 0.  0.
        254    2    1    2    0    0 -0.66151330191E+02 -0.24733787487E+03  0.29697889780E+03  0.98770356305E+03  0.90653727992E+03 0.  0.
         23    2    4    4    0    0 -0.22078149563E+03  0.28926673292E+03  0.12982828822E+03  0.39732459089E+03  0.92691609735E+02 0.  0.
         23    2    4    4    0    0  0.15463016544E+03 -0.53660460779E+03  0.16715060958E+03  0.59037897216E+03  0.93557529443E+02 0.  0.
          3    1    3    3  502    0  0.48658293836E+02  0.24108671457E+03 -0.10380393263E+03  0.26695634461E+03  0.00000000000E+00 0. -1.
         -2    1    3    3    0  502  0.17493036355E+02  0.62511603052E+01  0.41077925224E+01  0.19025175045E+02  0.00000000000E+00 0.  1.
         11    1    5    5    0    0 -0.91760069632E+02  0.18012630573E+03  0.40473311356E+02  0.20616373427E+03  0.00000000000E+00 0. -1.
        -11    1    5    5    0    0 -0.12902142600E+03  0.10914042719E+03  0.89354976861E+02  0.19116085662E+03  0.00000000000E+00 0.  1.
          1    1    6    6  503    0  0.58792510846E+02 -0.35157025972E+03  0.12532543707E+03  0.37784212580E+03  0.00000000000E+00 0. -1.
         -1    1    6    6    0  503  0.95837654594E+02 -0.18503434807E+03  0.41825172504E+02  0.21253684636E+03  0.00000000000E+00 0.  1.
<mgrwt>
<rscale>  0 0.12583136E+04</rscale>
<asrwt>0</asrwt>
<pdfrwt beam="1">  1        1 0.82800179E-01 0.12583136E+04</pdfrwt>
<pdfrwt beam="2">  1       -2 0.11315137E+00 0.12583136E+04</pdfrwt>
<totfact> 0.21148860E+01</totfact>
</mgrwt>
</event>
<event>
12    4  0.4320235E-008  0.1890261E+04  0.7818608E-02  0.8659719E-01
         -2   -1    0    0    0  501 -0.00000000000E+00  0.00000000000E+00  0.80432075437E+03  0.80432075437E+03  0.00000000000E+00 0.  1.
          1   -1    0    0  501    0  0.00000000000E+00 -0.00000000000E+00 -0.11105918593E+04  0.11105918593E+04  0.00000000000E+00 0. -1.
        -24    2    1    2    0    0 -0.69992444820E+03 -0.16966994050E+03 -0.23198658100E+03  0.76114723325E+03  0.82735814590E+02 0.  0.
        254    2    1    2    0    0  0.69992444820E+03  0.16966994050E+03 -0.74284523886E+02  0.11537653804E+04  0.89831744979E+03 0.  0.
         23    2    4    4    0    0  0.99940070606E+02 -0.33461074301E+03 -0.52568479665E+01  0.36212053942E+03  0.95662341429E+02 0.  0.
         23    2    4    4    0    0  0.59998437759E+03  0.50428068351E+03 -0.69027675919E+02  0.79164484097E+03  0.87501274658E+02 0.  0.
          3    1    3    3  502    0 -0.10826341980E+03 -0.47598270039E+02 -0.14878963562E+02  0.11919709281E+03  0.00000000000E+00 0. -1.
         -4    1    3    3    0  502 -0.59166102840E+03 -0.12207167046E+03 -0.21710761744E+03  0.64195014043E+03  0.00000000000E+00 0.  1.
         11    1    5    5    0    0  0.64662701449E+02 -0.29974871980E+03 -0.27277502750E+02  0.30785487188E+03  0.00000000000E+00 0.  1.
        -11    1    5    5    0    0  0.35277369156E+02 -0.34862023210E+02  0.22020654783E+02  0.54265667544E+02  0.00000000000E+00 0. -1.
          2    1    6    6  503    0  0.47314252842E+03  0.37772994460E+03 -0.86677950460E+02  0.61160185607E+03  0.00000000000E+00 0. -1.
         -2    1    6    6    0  503  0.12684184918E+03  0.12655073891E+03  0.17650274540E+02  0.18004298490E+03  0.00000000000E+00 0.  1.
<mgrwt>
<rscale>  0 0.18902614E+04</rscale>
<asrwt>0</asrwt>
<pdfrwt beam="1">  1        1 0.17086029E+00 0.18902614E+04</pdfrwt>
<pdfrwt beam="2">  1       -2 0.12374166E+00 0.18902614E+04</pdfrwt>
<totfact> 0.50272233E+00</totfact>
</mgrwt>
</event>
<event>
12    4  0.4320235E-008  0.1159593E+04  0.7818608E-02  0.9148979E-01
         -2   -1    0    0    0  501 -0.00000000000E+00  0.00000000000E+00  0.18056177539E+04  0.18056177539E+04  0.00000000000E+00 0.  1.
          1   -1    0    0  501    0  0.00000000000E+00 -0.00000000000E+00 -0.18617684292E+03  0.18617684292E+03  0.00000000000E+00 0. -1.
        -24    2    1    2    0    0  0.21105444038E+03 -0.71927827006E+02  0.34766006879E+03  0.42033888391E+03  0.78100350799E+02 0.  0.
        254    2    1    2    0    0 -0.21105444038E+03  0.71927827006E+02  0.12717808422E+04  0.15714557129E+04  0.89572817193E+03 0.  0.
         23    2    4    4    0    0 -0.21220264311E+03 -0.37414805982E+03  0.43669126130E+03  0.61982358099E+03  0.92006964183E+02 0.  0.
         23    2    4    4    0    0  0.11482027309E+01  0.44607588682E+03  0.83508958088E+03  0.95163213190E+03  0.96146197058E+02 0.  0.
          1    1    3    3  502    0  0.17077027574E+03 -0.22925471578E+02  0.24139611571E+03  0.29658076304E+03  0.00000000000E+00 0. -1.
         -2    1    3    3    0  502  0.40284164636E+02 -0.49002355427E+02  0.10626395307E+03  0.12375812087E+03  0.00000000000E+00 0.  1.
         11    1    5    5    0    0 -0.11776695538E+03 -0.29140642095E+03  0.31052449963E+03  0.44182827300E+03  0.00000000000E+00 0.  1.
        -11    1    5    5    0    0 -0.94435687731E+02 -0.82741638866E+02  0.12616676166E+03  0.17799530799E+03  0.00000000000E+00 0. -1.
          4    1    6    6  503    0  0.46350274984E+02  0.15799626001E+03  0.29385075061E+03  0.33683739372E+03  0.00000000000E+00 0. -1.
         -4    1    6    6    0  503 -0.45202072253E+02  0.28807962681E+03  0.54123883026E+03  0.61479473819E+03  0.00000000000E+00 0.  1.
<mgrwt>
<rscale>  0 0.11595934E+04</rscale>
<asrwt>0</asrwt>
<pdfrwt beam="1">  1        1 0.28642592E-01 0.11595934E+04</pdfrwt>
<pdfrwt beam="2">  1       -2 0.27778733E+00 0.11595934E+04</pdfrwt>
<totfact> 0.61781667E+00</totfact>
</mgrwt>
</event>
<event>
12    4  0.4320235E-008  0.3473810E+04  0.7818608E-02  0.8120025E-01
         -2   -1    0    0    0  501 -0.00000000000E+00  0.00000000000E+00  0.19788812419E+04  0.19788812419E+04  0.00000000000E+00 0.  1.
          1   -1    0    0  501    0  0.00000000000E+00 -0.00000000000E+00 -0.15245176524E+04  0.15245176524E+04  0.00000000000E+00 0. -1.
        -24    2    1    2    0    0  0.85130989952E+03 -0.13600836496E+04  0.48297106359E+03  0.16776142076E+04  0.81069738680E+02 0.  0.
        254    2    1    2    0    0 -0.85130989952E+03  0.13600836496E+04 -0.28607474146E+02  0.18257846867E+04  0.87069814265E+03 0.  0.
         23    2    4    4    0    0  0.66352037566E+02 -0.62396667534E+02 -0.18820342920E+02  0.13033910456E+03  0.91313415558E+02 0.  0.
         23    2    4    4    0    0 -0.91766193708E+03  0.14224803171E+04 -0.97871312259E+01  0.16954455821E+04  0.94266911492E+02 0.  0.
          1    1    3    3  502    0  0.70535749404E+03 -0.11050177170E+04  0.42462872901E+03  0.13780068602E+04  0.00000000000E+00 0. -1.
         -2    1    3    3    0  502  0.14595240548E+03 -0.25506593264E+03  0.58342334587E+02  0.29960734747E+03  0.00000000000E+00 0.  1.
         11    1    5    5    0    0  0.65284552613E+01 -0.11738047890E+02 -0.45571227691E+02  0.47509360021E+02  0.00000000000E+00 0.  1.
        -11    1    5    5    0    0  0.59823582305E+02 -0.50658619644E+02  0.26750884771E+02  0.82829744537E+02  0.00000000000E+00 0. -1.
          2    1    6    6  503    0 -0.44157657572E+03  0.63132129473E+03  0.32596610878E+02  0.77111541837E+03  0.00000000000E+00 0.  1.
         -2    1    6    6    0  503 -0.47608536137E+03  0.79115902239E+03 -0.42383742104E+02  0.92433016375E+03  0.00000000000E+00 0. -1.
<mgrwt>
<rscale>  0 0.34738102E+04</rscale>
<asrwt>0</asrwt>
<pdfrwt beam="1">  1        1 0.23454118E+00 0.34738102E+04</pdfrwt>
<pdfrwt beam="2">  1       -2 0.30444327E+00 0.34738102E+04</pdfrwt>
<totfact> 0.13484509E-01</totfact>
</mgrwt>
</event>
<event>
12    4  0.4320235E-008  0.1742807E+04  0.7818608E-02  0.8737319E-01
         -2   -1    0    0    0  501 -0.00000000000E+00  0.00000000000E+00  0.48135808896E+03  0.48135808896E+03  0.00000000000E+00 0.  1.
          1   -1    0    0  501    0  0.00000000000E+00 -0.00000000000E+00 -0.15775041410E+04  0.15775041410E+04  0.00000000000E+00 0. -1.
        -24    2    1    2    0    0 -0.25754674533E+03 -0.18685650685E+03 -0.10505249617E+04  0.11005326474E+04  0.79521901631E+02 0.  0.
        254    2    1    2    0    0  0.25754674533E+03  0.18685650685E+03 -0.45621090375E+02  0.95832958252E+03  0.90281151114E+03 0.  0.
         23    2    4    4    0    0 -0.22451255724E+03 -0.10705323252E+03  0.20362038556E+03  0.33414326610E+03  0.91236932828E+02 0.  0.
         23    2    4    4    0    0  0.48205930257E+03  0.29390973938E+03 -0.24924147593E+03  0.62418631642E+03  0.93397741822E+02 0.  0.
          3    1    3    3  502    0 -0.19433022376E+03 -0.17835652030E+03 -0.82303917143E+03  0.86427354576E+03  0.00000000000E+00 0. -1.
         -4    1    3    3    0  502 -0.63216521574E+02 -0.84999865578E+01 -0.22748579023E+03  0.23625910168E+03  0.00000000000E+00 0.  1.
         11    1    5    5    0    0 -0.98915837610E+02 -0.88701228916E+02  0.71295063247E+02  0.15078208443E+03  0.00000000000E+00 0.  1.
        -11    1    5    5    0    0 -0.12559671963E+03 -0.18352003605E+02  0.13232532231E+03  0.18336118167E+03  0.00000000000E+00 0. -1.
          2    1    6    6  503    0  0.24146739275E+03  0.96257403692E+02 -0.13133882007E+03  0.29124195300E+03  0.00000000000E+00 0. -1.
         -2    1    6    6    0  503  0.24059190983E+03  0.19765233568E+03 -0.11790265586E+03  0.33294436342E+03  0.00000000000E+00 0.  1.
<mgrwt>
<rscale>  0 0.17428074E+04</rscale>
<asrwt>0</asrwt>
<pdfrwt beam="1">  1        1 0.24269295E+00 0.17428074E+04</pdfrwt>
<pdfrwt beam="2">  1       -2 0.74055090E-01 0.17428074E+04</pdfrwt>
<totfact> 0.79028002E+00</totfact>
</mgrwt>
</event>
<event>
12    4  0.4320235E-008  0.3275550E+04  0.7818608E-02  0.8169145E-01
         -2   -1    0    0    0  501 -0.00000000000E+00  0.00000000000E+00  0.93194608813E+03  0.93194608813E+03  0.00000000000E+00 0.  1.
          1   -1    0    0  501    0  0.00000000000E+00 -0.00000000000E+00 -0.28781773901E+04  0.28781773901E+04  0.00000000000E+00 0. -1.
        -24    2    1    2    0    0  0.49782822278E+03  0.13437309339E+04 -0.33700532955E+03  0.14743110556E+04  0.81084737012E+02 0.  0.
        254    2    1    2    0    0 -0.49782822278E+03 -0.13437309339E+04 -0.16092259725E+04  0.23358124226E+04  0.90164609537E+03 0.  0.
         23    2    4    4    0    0  0.19355721829E+03 -0.62378846503E+03 -0.42590682033E+03  0.78498419164E+03  0.90703448948E+02 0.  0.
         23    2    4    4    0    0 -0.69138544107E+03 -0.71994246884E+03 -0.11833191521E+04  0.15508282310E+04  0.92157472561E+02 0.  0.
          3    1    3    3  502    0  0.34249366975E+02  0.47652053662E+02 -0.10296603645E+02  0.59579840576E+02  0.00000000000E+00 0. -1.
         -4    1    3    3    0  502  0.46357885581E+03  0.12960788802E+04 -0.32670872591E+03  0.14147312151E+04  0.00000000000E+00 0.  1.
         11    1    5    5    0    0  0.15192219312E+03 -0.39106503909E+03 -0.31024712522E+03  0.52179066326E+03  0.00000000000E+00 0.  1.
        -11    1    5    5    0    0  0.41635025173E+02 -0.23272342594E+03 -0.11565969511E+03  0.26319352837E+03  0.00000000000E+00 0. -1.
          1    1    6    6  503    0 -0.10765507318E+03 -0.15865848779E+03 -0.20171747728E+03  0.27830212211E+03  0.00000000000E+00 0. -1.
         -1    1    6    6    0  503 -0.58373036788E+03 -0.56128398104E+03 -0.98160167484E+03  0.12725261089E+04  0.00000000000E+00 0.  1.
<mgrwt>
<rscale>  0 0.32755495E+04</rscale>
<asrwt>0</asrwt>
<pdfrwt beam="1">  1        1 0.44279652E+00 0.32755495E+04</pdfrwt>
<pdfrwt beam="2">  1       -2 0.14337632E+00 0.32755495E+04</pdfrwt>
<totfact> 0.18081190E-01</totfact>
</mgrwt>
</event>
<event>
12    4  0.4320235E-008  0.3120989E+04  0.7818608E-02  0.8210001E-01
          1   -1    0    0  501    0  0.00000000000E+00  0.00000000000E+00  0.11227957066E+04  0.11227957066E+04  0.00000000000E+00 0. -1.
         -2   -1    0    0    0  501 -0.00000000000E+00 -0.00000000000E+00 -0.21688209355E+04  0.21688209355E+04  0.00000000000E+00 0.  1.
        -24    2    1    2    0    0  0.33317287067E+03  0.13439304728E+04 -0.13459967685E+03  0.13934624092E+04  0.80418500670E+02 0.  0.
        254    2    1    2    0    0 -0.33317287067E+03 -0.13439304728E+04 -0.91142555202E+03  0.18981542329E+04  0.92473762633E+03 0.  0.
         23    2    4    4    0    0 -0.36714676029E+03 -0.12322404986E+03 -0.50683604551E+02  0.40133317445E+03  0.92296148824E+02 0.  0.
         23    2    4    4    0    0  0.33973889622E+02 -0.12207064230E+04 -0.86074194747E+03  0.14968210585E+04  0.91204082779E+02 0.  0.
          3    1    3    3  502    0  0.32824114934E+03  0.13386531993E+04 -0.12901763190E+03  0.13843338432E+04  0.00000000000E+00 0. -1.
         -2    1    3    3    0  502  0.49317213274E+01  0.52772735562E+01 -0.55820449426E+01  0.91285659980E+01  0.00000000000E+00 0.  1.
         11    1    5    5    0    0 -0.14758994897E+03 -0.33800631114E+02  0.22841637003E+02  0.15312418516E+03  0.00000000000E+00 0. -1.
        -11    1    5    5    0    0 -0.21955681132E+03 -0.89423418748E+02 -0.73525241554E+02  0.24820898929E+03  0.00000000000E+00 0.  1.
          2    1    6    6  503    0 -0.65459769005E+01 -0.57042783045E+03 -0.45034007899E+03  0.72679911001E+03  0.00000000000E+00 0. -1.
         -2    1    6    6    0  503  0.40519866522E+02 -0.65027859253E+03 -0.41040186848E+03  0.77002194848E+03  0.00000000000E+00 0.  1.
<mgrwt>
<rscale>  0 0.31209888E+04</rscale>
<asrwt>0</asrwt>
<pdfrwt beam="1">  1        1 0.17273780E+00 0.31209888E+04</pdfrwt>
<pdfrwt beam="2">  1       -2 0.33366475E+00 0.31209888E+04</pdfrwt>
<totfact> 0.17743428E-01</totfact>
</mgrwt>
</event>
<event>
12    4  0.4320235E-008  0.2244822E+04  0.7818608E-02  0.8500000E-01
          1   -1    0    0  501    0  0.00000000000E+00  0.00000000000E+00  0.14055192961E+04  0.14055192961E+04  0.00000000000E+00 0. -1.
         -2   -1    0    0    0  501 -0.00000000000E+00 -0.00000000000E+00 -0.89632837585E+03  0.89632837585E+03  0.00000000000E+00 0.  1.
        -24    2    1    2    0    0  0.17646854793E+02 -0.63871121343E+02 -0.74832172183E+03  0.75520552998E+03  0.77194957809E+02 0.  0.
        254    2    1    2    0    0 -0.17646854793E+02  0.63871121343E+02  0.12575126421E+04  0.15466421420E+04  0.89798270511E+03 0.  0.
         23    2    4    4    0    0 -0.40866113687E+03 -0.15107185848E+03  0.63181093180E+03  0.77273056862E+03  0.90004705031E+02 0.  0.
         23    2    4    4    0    0  0.39101428208E+03  0.21494297982E+03  0.62570171028E+03  0.77391157334E+03  0.91344620743E+02 0.  0.
          1    1    3    3  502    0 -0.27679633746E+02 -0.10062064483E+02 -0.15959203661E+03  0.16228686150E+03  0.00000000000E+00 0. -1.
         -2    1    3    3    0  502  0.45326488539E+02 -0.53809056860E+02 -0.58872968522E+03  0.59291866848E+03  0.00000000000E+00 0.  1.
         11    1    5    5    0    0 -0.12657169832E+03 -0.88456489355E+01  0.14841168023E+03  0.19525538955E+03  0.00000000000E+00 0. -1.
        -11    1    5    5    0    0 -0.28208943855E+03 -0.14222620954E+03  0.48339925157E+03  0.57747517907E+03  0.00000000000E+00 0.  1.
          2    1    6    6  503    0  0.28974581295E+02 -0.47186166813E+01  0.22888889261E+02  0.37224896994E+02  0.00000000000E+00 0. -1.
         -2    1    6    6    0  503  0.36203970078E+03  0.21966159650E+03  0.60281282102E+03  0.73668667635E+03  0.00000000000E+00 0.  1.
<mgrwt>
<rscale>  0 0.22448223E+04</rscale>
<asrwt>0</asrwt>
<pdfrwt beam="1">  1        1 0.21623374E+00 0.22448223E+04</pdfrwt>
<pdfrwt beam="2">  1       -2 0.13789667E+00 0.22448223E+04</pdfrwt>
<totfact> 0.22675727E+00</totfact>
</mgrwt>
</event>
<event>
12    4  0.4320235E-008  0.2764609E+04  0.7818608E-02  0.8314341E-01
          1   -1    0    0  501    0  0.00000000000E+00  0.00000000000E+00  0.12648972627E+04  0.12648972627E+04  0.00000000000E+00 0. -1.
         -2   -1    0    0    0  501 -0.00000000000E+00 -0.00000000000E+00 -0.15106095119E+04  0.15106095119E+04  0.00000000000E+00 0.  1.
        -24    2    1    2    0    0  0.98430432459E+03 -0.65980647151E+03 -0.44874754215E+03  0.12697582169E+04  0.81926733463E+02 0.  0.
        254    2    1    2    0    0 -0.98430432459E+03  0.65980647151E+03  0.20303529286E+03  0.15057485577E+04  0.90656263186E+03 0.  0.
         23    2    4    4    0    0  0.27138258401E+02  0.42367332633E+03 -0.36639095053E+02  0.43636720684E+03  0.94012464099E+02 0.  0.
         23    2    4    4    0    0 -0.10114425830E+04  0.23613314517E+03  0.23967438791E+03  0.10693813508E+04  0.85777038314E+02 0.  0.
          3    1    3    3  502    0  0.11685127734E+03 -0.10582802214E+03 -0.42962325357E+02  0.16339997762E+03  0.00000000000E+00 0. -1.
         -4    1    3    3    0  502  0.86745304725E+03 -0.55397844936E+03 -0.40578521679E+03  0.11063582393E+04  0.00000000000E+00 0.  1.
         11    1    5    5    0    0  0.29099850608E+02  0.42743297681E+03 -0.40881877913E+02  0.43036853848E+03  0.00000000000E+00 0.  1.
        -11    1    5    5    0    0 -0.19615922068E+01 -0.37596504796E+01  0.42427828602E+01  0.59986683617E+01  0.00000000000E+00 0. -1.
          1    1    6    6  503    0 -0.26039706437E+03  0.23286788679E+02  0.53190676525E+02  0.26679234196E+03  0.00000000000E+00 0. -1.
         -1    1    6    6    0  503 -0.75104551862E+03  0.21284635649E+03  0.18648371139E+03  0.80258900885E+03  0.00000000000E+00 0.  1.
<mgrwt>
<rscale>  0 0.27646091E+04</rscale>
<asrwt>0</asrwt>
<pdfrwt beam="1">  1        1 0.19459958E+00 0.27646091E+04</pdfrwt>
<pdfrwt beam="2">  1       -2 0.23240146E+00 0.27646091E+04</pdfrwt>
<totfact> 0.60346246E-01</totfact>
</mgrwt>
</event>
<event>
12    4  0.4320235E-008  0.1665185E+04  0.7818608E-02  0.8781474E-01
         -2   -1    0    0    0  501 -0.00000000000E+00  0.00000000000E+00  0.78590123384E+03  0.78590123384E+03  0.00000000000E+00 0.  1.
          1   -1    0    0  501    0  0.00000000000E+00 -0.00000000000E+00 -0.88205747700E+03  0.88205747700E+03  0.00000000000E+00 0. -1.
        -24    2    1    2    0    0  0.38900956913E+03  0.41317415588E+03  0.15384203541E+03  0.59328548063E+03  0.79239899670E+02 0.  0.
        254    2    1    2    0    0 -0.38900956913E+03 -0.41317415588E+03 -0.24999827857E+03  0.10746732302E+04  0.87771412457E+03 0.  0.
         23    2    4    4    0    0  0.22431663641E+03 -0.54195706298E+02  0.11165304748E+03  0.27208716599E+03  0.91158625113E+02 0.  0.
         23    2    4    4    0    0 -0.61332620554E+03 -0.35897844958E+03 -0.36165132605E+03  0.80258606422E+03  0.91203877025E+02 0.  0.
          1    1    3    3  502    0  0.11402446835E+02  0.19827303520E+01  0.13233473620E+02  0.17580439059E+02  0.00000000000E+00 0. -1.
         -2    1    3    3    0  502  0.37760712230E+03  0.41119142552E+03  0.14060856179E+03  0.57570504157E+03  0.00000000000E+00 0.  1.
         11    1    5    5    0    0  0.43241405718E+02  0.16668654937E+02 -0.28500521879E+01  0.46430442851E+02  0.00000000000E+00 0.  1.
        -11    1    5    5    0    0  0.18107523069E+03 -0.70864361236E+02  0.11450309967E+03  0.22565672313E+03  0.00000000000E+00 0. -1.
          2    1    6    6  503    0 -0.45359084163E+03 -0.29174489910E+03 -0.30847961858E+03  0.62130460553E+03  0.00000000000E+00 0. -1.
         -2    1    6    6    0  503 -0.15973536391E+03 -0.67233550476E+02 -0.53171707469E+02  0.18128145870E+03  0.00000000000E+00 0.  1.
<mgrwt>
<rscale>  0 0.16651847E+04</rscale>
<asrwt>0</asrwt>
<pdfrwt beam="1">  1        1 0.13570115E+00 0.16651847E+04</pdfrwt>
<pdfrwt beam="2">  1       -2 0.12090788E+00 0.16651847E+04</pdfrwt>
<totfact> 0.82046453E+00</totfact>
</mgrwt>
</event>
<event>
12    4  0.4320235E-008  0.1091824E+04  0.7818608E-02  0.9213197E-01
          1   -1    0    0  501    0  0.00000000000E+00  0.00000000000E+00  0.13070629137E+04  0.13070629137E+04  0.00000000000E+00 0. -1.
         -2   -1    0    0    0  501 -0.00000000000E+00 -0.00000000000E+00 -0.22800746445E+03  0.22800746445E+03  0.00000000000E+00 0.  1.
        -24    2    1    2    0    0  0.14384080481E+03 -0.23684207310E+02  0.24910996752E+03  0.29888868697E+03  0.77637313671E+02 0.  0.
        254    2    1    2    0    0 -0.14384080481E+03  0.23684207310E+02  0.82994548172E+03  0.12361816912E+04  0.90448026633E+03 0.  0.
         23    2    4    4    0    0 -0.25520085000E+03  0.52857413923E+02 -0.10108958197E+03  0.29375635667E+03  0.90290162566E+02 0.  0.
         23    2    4    4    0    0  0.11136004519E+03 -0.29173206613E+02  0.93103506369E+03  0.94242533451E+03  0.89928224983E+02 0.  0.
          3    1    3    3  502    0  0.21182293408E+01 -0.21063718656E+01  0.67268435347E+02  0.67334731692E+02  0.00000000000E+00 0. -1.
         -4    1    3    3    0  502  0.14172257547E+03 -0.21577835444E+02  0.18184153218E+03  0.23155395528E+03  0.00000000000E+00 0.  1.
         11    1    5    5    0    0 -0.12990883499E+02 -0.19138086128E+02 -0.83656731246E+01  0.24597029934E+02  0.00000000000E+00 0.  1.
        -11    1    5    5    0    0 -0.24220996650E+03  0.71995500051E+02 -0.92723908847E+02  0.26915932674E+03  0.00000000000E+00 0. -1.
          1    1    6    6  503    0  0.60586718540E+02 -0.33866554851E+02  0.77861184116E+03  0.78169949034E+03  0.00000000000E+00 0. -1.
         -1    1    6    6    0  503  0.50773326648E+02  0.46933482380E+01  0.15242322253E+03  0.16072584416E+03  0.00000000000E+00 0.  1.
<mgrwt>
<rscale>  0 0.10918243E+04</rscale>
<asrwt>0</asrwt>
<pdfrwt beam="1">  1        1 0.20108660E+00 0.10918243E+04</pdfrwt>
<pdfrwt beam="2">  1       -2 0.35078072E-01 0.10918243E+04</pdfrwt>
<totfact> 0.59624620E+01</totfact>
</mgrwt>
</event>
<event>
12    4  0.4320235E-008  0.2146957E+04  0.7818608E-02  0.8540836E-01
          1   -1    0    0  501    0  0.00000000000E+00  0.00000000000E+00  0.17155259149E+04  0.17155259149E+04  0.00000000000E+00 0. -1.
         -2   -1    0    0    0  501 -0.00000000000E+00 -0.00000000000E+00 -0.67172199924E+03  0.67172199924E+03  0.00000000000E+00 0.  1.
        -24    2    1    2    0    0 -0.64201418249E+03 -0.65510231499E+01 -0.24193006932E+03  0.69072164411E+03  0.79631054072E+02 0.  0.
        254    2    1    2    0    0  0.64201418249E+03  0.65510231499E+01  0.12857339849E+04  0.16965262700E+04  0.90158991695E+03 0.  0.
         23    2    4    4    0    0  0.28707937391E+03 -0.10357443816E+03  0.12745204190E+04  0.13135934321E+04  0.89348616825E+02 0.  0.
         23    2    4    4    0    0  0.35493480858E+03  0.11012546131E+03  0.11213565933E+02  0.38293283786E+03  0.91681397667E+02 0.  0.
          1    1    3    3  502    0 -0.14775857333E+03 -0.17865656798E+02 -0.88109607187E+02  0.17295976574E+03  0.00000000000E+00 0. -1.
         -2    1    3    3    0  502 -0.49425560916E+03  0.11314633648E+02 -0.15382046213E+03  0.51776187837E+03  0.00000000000E+00 0.  1.
         11    1    5    5    0    0  0.26946170809E+03 -0.11234247973E+03  0.12395563092E+04  0.12734717463E+04  0.00000000000E+00 0. -1.
        -11    1    5    5    0    0  0.17617665817E+02  0.87680415664E+01  0.34964109765E+02  0.40121685825E+02  0.00000000000E+00 0.  1.
          4    1    6    6  503    0  0.77076311991E+02  0.66977873099E+01  0.36162729129E+02  0.85401177995E+02  0.00000000000E+00 0.  1.
         -4    1    6    6    0  503  0.27785849659E+03  0.10342767400E+03 -0.24949163196E+02  0.29753165986E+03  0.00000000000E+00 0. -1.
<mgrwt>
<rscale>  0 0.21469574E+04</rscale>
<asrwt>0</asrwt>
<pdfrwt beam="1">  1        1 0.26392706E+00 0.21469574E+04</pdfrwt>
<pdfrwt beam="2">  1       -2 0.10334185E+00 0.21469574E+04</pdfrwt>
<totfact> 0.28568687E+00</totfact>
</mgrwt>
</event>
<event>
12    4  0.4320235E-008  0.1289308E+04  0.7818608E-02  0.9038087E-01
         -2   -1    0    0    0  501 -0.00000000000E+00  0.00000000000E+00  0.40146567046E+03  0.40146567046E+03  0.00000000000E+00 0.  1.
          1   -1    0    0  501    0  0.00000000000E+00 -0.00000000000E+00 -0.10351534482E+04  0.10351534482E+04  0.00000000000E+00 0. -1.
        -24    2    1    2    0    0 -0.13075061731E+03  0.23799664243E+03 -0.36839720213E+03  0.46460937716E+03  0.80045293894E+02 0.  0.
        254    2    1    2    0    0  0.13075061731E+03 -0.23799664243E+03 -0.26529057562E+03  0.97200974151E+03  0.89481043934E+03 0.  0.
         23    2    4    4    0    0  0.24318173433E+03  0.94078887837E+02  0.22913838217E+03  0.35875291124E+03  0.90614899946E+02 0.  0.
         23    2    4    4    0    0 -0.11243111702E+03 -0.33207553026E+03 -0.49442895779E+03  0.61325683027E+03  0.93322192942E+02 0.  0.
          3    1    3    3  502    0 -0.92687024864E+02  0.22087073921E+03 -0.33092859989E+03  0.40851989700E+03  0.00000000000E+00 0. -1.
         -4    1    3    3    0  502 -0.38063592448E+02  0.17125903213E+02 -0.37468602234E+02  0.56089480156E+02  0.00000000000E+00 0.  1.
         11    1    5    5    0    0  0.12528524589E+03  0.51546520899E+02  0.59821029369E+02  0.14809453808E+03  0.00000000000E+00 0.  1.
        -11    1    5    5    0    0  0.11789648845E+03  0.42532366938E+02  0.16931735280E+03  0.21065837316E+03  0.00000000000E+00 0. -1.
          2    1    6    6  503    0 -0.96194438287E+02 -0.22751949068E+03 -0.27502532144E+03  0.36967203848E+03  0.00000000000E+00 0.  1.
         -2    1    6    6    0  503 -0.16236678736E+02 -0.10455603958E+03 -0.21940363635E+03  0.24358479179E+03  0.00000000000E+00 0. -1.
<mgrwt>
<rscale>  0 0.12893077E+04</rscale>
<asrwt>0</asrwt>
<pdfrwt beam="1">  1        1 0.15925438E+00 0.12893077E+04</pdfrwt>
<pdfrwt beam="2">  1       -2 0.61763949E-01 0.12893077E+04</pdfrwt>
<totfact> 0.29832542E+01</totfact>
</mgrwt>
</event>
<event>
12    4  0.4320235E-008  0.1371583E+04  0.7818608E-02  0.8974649E-01
         -2   -1    0    0    0  501 -0.00000000000E+00  0.00000000000E+00  0.65057767003E+03  0.65057767003E+03  0.00000000000E+00 0.  1.
          1   -1    0    0  501    0  0.00000000000E+00 -0.00000000000E+00 -0.72291128948E+03  0.72291128948E+03  0.00000000000E+00 0. -1.
        -24    2    1    2    0    0  0.17590336942E+03 -0.90746930516E+01  0.32011644186E+03  0.37645008314E+03  0.90640958259E+02 0.  0.
        254    2    1    2    0    0 -0.17590336942E+03  0.90746930516E+01 -0.39245006130E+03  0.99703887637E+03  0.89946935743E+03 0.  0.
         23    2    4    4    0    0 -0.13604713607E+03  0.41778657223E+03 -0.36070788509E+03  0.57537651971E+03  0.88845472000E+02 0.  0.
         23    2    4    4    0    0 -0.39856233351E+02 -0.40871187918E+03 -0.31742176215E+02  0.42166235666E+03  0.90319752852E+02 0.  0.
          1    1    3    3  502    0  0.50649585087E+02 -0.40578467470E+02  0.73438267958E+02  0.98005977840E+02  0.00000000000E+00 0. -1.
         -2    1    3    3    0  502  0.12525378434E+03  0.31503774419E+02  0.24667817391E+03  0.27844410530E+03  0.00000000000E+00 0.  1.
         11    1    5    5    0    0 -0.36103482527E+02  0.24399356588E+03 -0.21928341243E+03  0.33003262961E+03  0.00000000000E+00 0.  1.
        -11    1    5    5    0    0 -0.99943653546E+02  0.17379300636E+03 -0.14142447266E+03  0.24534389010E+03  0.00000000000E+00 0. -1.
          3    1    6    6  503    0  0.50185451278E+00 -0.34363958936E+03 -0.31611344969E+02  0.34509085233E+03  0.00000000000E+00 0. -1.
         -3    1    6    6    0  503 -0.40358087864E+02 -0.65072289825E+02 -0.13083124551E+00  0.76571504334E+02  0.00000000000E+00 0.  1.
<mgrwt>
<rscale>  0 0.13715829E+04</rscale>
<asrwt>0</asrwt>
<pdfrwt beam="1">  1        1 0.11121712E+00 0.13715829E+04</pdfrwt>
<pdfrwt beam="2">  1       -2 0.10008887E+00 0.13715829E+04</pdfrwt>
<totfact> 0.18293389E+01</totfact>
</mgrwt>
</event>
<event>
12    4  0.4320235E-008  0.1436990E+04  0.7818608E-02  0.8927470E-01
          1   -1    0    0  501    0  0.00000000000E+00  0.00000000000E+00  0.20671302327E+04  0.20671302327E+04  0.00000000000E+00 0. -1.
         -2   -1    0    0    0  501 -0.00000000000E+00 -0.00000000000E+00 -0.24973506052E+03  0.24973506052E+03  0.00000000000E+00 0.  1.
        -24    2    1    2    0    0  0.92353616933E+02  0.54675527758E+01 -0.12892043473E+03  0.17698391214E+03  0.78382025813E+02 0.  0.
        254    2    1    2    0    0 -0.92353616933E+02 -0.54675527758E+01  0.19463156069E+04  0.21398813811E+04  0.88452744374E+03 0.  0.
         23    2    4    4    0    0 -0.43735864064E+02 -0.36604749176E+03  0.41157397284E+03  0.55991965261E+03  0.90627204682E+02 0.  0.
         23    2    4    4    0    0 -0.48617752868E+02  0.36057993899E+03  0.15347416341E+04  0.15799617285E+04  0.92008705119E+02 0.  0.
          3    1    3    3  502    0 -0.19820854173E-01  0.12944594051E+02  0.52077014713E+01  0.13952887251E+02  0.00000000000E+00 0. -1.
         -4    1    3    3    0  502  0.92373437787E+02 -0.74770412752E+01 -0.13412813620E+03  0.16303102489E+03  0.00000000000E+00 0.  1.
         11    1    5    5    0    0 -0.41911508263E+00 -0.16285579212E+02 -0.21513555252E+01  0.16432409389E+02  0.00000000000E+00 0. -1.
        -11    1    5    5    0    0 -0.43316748982E+02 -0.34976191255E+03  0.41372532837E+03  0.54348724322E+03  0.00000000000E+00 0.  1.
          2    1    6    6  503    0 -0.44444026062E+02  0.95474133006E+02  0.55927886993E+03  0.56910757848E+03  0.00000000000E+00 0. -1.
         -2    1    6    6    0  503 -0.41737268067E+01  0.26510580598E+03  0.97546276413E+03  0.10108541500E+04  0.00000000000E+00 0.  1.
<mgrwt>
<rscale>  0 0.14369898E+04</rscale>
<asrwt>0</asrwt>
<pdfrwt beam="1">  1        1 0.31802002E+00 0.14369898E+04</pdfrwt>
<pdfrwt beam="2">  1       -2 0.38420780E-01 0.14369898E+04</pdfrwt>
<totfact> 0.14667825E+01</totfact>
</mgrwt>
</event>
<event>
12    4  0.4320235E-008  0.1259248E+04  0.7818608E-02  0.9062521E-01
          1   -1    0    0  501    0  0.00000000000E+00  0.00000000000E+00  0.20537764059E+03  0.20537764059E+03  0.00000000000E+00 0. -1.
         -2   -1    0    0    0  501 -0.00000000000E+00 -0.00000000000E+00 -0.19302327517E+04  0.19302327517E+04  0.00000000000E+00 0.  1.
        -24    2    1    2    0    0 -0.13082424896E+03 -0.18077883546E+03 -0.77807496169E+03  0.81296675052E+03  0.75619574002E+02 0.  0.
        254    2    1    2    0    0  0.13082424896E+03  0.18077883546E+03 -0.94678014940E+03  0.13226436418E+04  0.89621291015E+03 0.  0.
         23    2    4    4    0    0  0.27037316277E+03 -0.27629070108E+03 -0.23908358264E+03  0.46376713691E+03  0.92091254422E+02 0.  0.
         23    2    4    4    0    0 -0.13954891381E+03  0.45706953654E+03 -0.70769656675E+03  0.85887650484E+03  0.91912781464E+02 0.  0.
          1    1    3    3  502    0 -0.49480362113E+02 -0.12416492681E+03 -0.38307500839E+03  0.40572367116E+03  0.00000000000E+00 0. -1.
         -2    1    3    3    0  502 -0.81343886847E+02 -0.56613908651E+02 -0.39499995330E+03  0.40724307936E+03  0.00000000000E+00 0.  1.
         11    1    5    5    0    0  0.77084288479E+02 -0.92783261876E+02 -0.12542976474E+03  0.17402111107E+03  0.00000000000E+00 0.  1.
        -11    1    5    5    0    0  0.19328887429E+03 -0.18350743921E+03 -0.11365381790E+03  0.28974602584E+03  0.00000000000E+00 0. -1.
          1    1    6    6  503    0 -0.54946601298E+02  0.28330712118E+03 -0.48151122118E+03  0.56136896069E+03  0.00000000000E+00 0. -1.
         -1    1    6    6    0  503 -0.84602312514E+02  0.17376241536E+03 -0.22618534557E+03  0.29750754415E+03  0.00000000000E+00 0.  1.
<mgrwt>
<rscale>  0 0.12592484E+04</rscale>
<asrwt>0</asrwt>
<pdfrwt beam="1">  1        1 0.31596559E-01 0.12592484E+04</pdfrwt>
<pdfrwt beam="2">  1       -2 0.29695889E+00 0.12592484E+04</pdfrwt>
<totfact> 0.41236854E+00</totfact>
</mgrwt>
</event>
<event>
12    4  0.4320235E-008  0.5013902E+04  0.7818608E-02  0.7826366E-01
         -2   -1    0    0    0  501 -0.00000000000E+00  0.00000000000E+00  0.31689210742E+04  0.31689210742E+04  0.00000000000E+00 0.  1.
          1   -1    0    0  501    0  0.00000000000E+00 -0.00000000000E+00 -0.19832626105E+04  0.19832626105E+04  0.00000000000E+00 0. -1.
        -24    2    1    2    0    0  0.23617145049E+04  0.99625487975E+02  0.15327226916E+02  0.23652877682E+04  0.82040611593E+02 0.  0.
        254    2    1    2    0    0 -0.23617145049E+04 -0.99625487975E+02  0.11703312368E+04  0.27868959166E+04  0.89971829217E+03 0.  0.
         23    2    4    4    0    0 -0.15191127033E+04  0.34513439225E+03  0.59589729250E+03  0.16706123177E+04  0.95030409725E+02 0.  0.
         23    2    4    4    0    0 -0.84260180157E+03 -0.44475988022E+03  0.57443394431E+03  0.11162835988E+04  0.91244559093E+02 0.  0.
          1    1    3    3  502    0  0.22189665052E+03  0.43876023499E+01  0.24880323788E+02  0.22333026010E+03  0.00000000000E+00 0. -1.
         -2    1    3    3    0  502  0.21398178544E+04  0.95237885625E+02 -0.95530968714E+01  0.21419575081E+04  0.00000000000E+00 0.  1.
         11    1    5    5    0    0 -0.91517917425E+03  0.22937192794E+03  0.31618426191E+03  0.99505622443E+03  0.00000000000E+00 0.  1.
        -11    1    5    5    0    0 -0.60393352909E+03  0.11576246431E+03  0.27971303060E+03  0.67555609330E+03  0.00000000000E+00 0. -1.
          3    1    6    6  503    0 -0.25754187568E+03 -0.17463609910E+03  0.15749762409E+03  0.34875648586E+03  0.00000000000E+00 0. -1.
         -3    1    6    6    0  503 -0.58505992590E+03 -0.27012378112E+03  0.41693632022E+03  0.76752711296E+03  0.00000000000E+00 0.  1.
<mgrwt>
<rscale>  0 0.50139017E+04</rscale>
<asrwt>0</asrwt>
<pdfrwt beam="1">  1        1 0.30511732E+00 0.50139017E+04</pdfrwt>
<pdfrwt beam="2">  1       -2 0.48752632E+00 0.50139017E+04</pdfrwt>
<totfact> 0.38485549E-03</totfact>
</mgrwt>
</event>
<event>
12    4  0.4320235E-008  0.1852227E+04  0.7818608E-02  0.8679008E-01
         -2   -1    0    0    0  501 -0.00000000000E+00  0.00000000000E+00  0.98424373046E+03  0.98424373046E+03  0.00000000000E+00 0.  1.
          1   -1    0    0  501    0  0.00000000000E+00 -0.00000000000E+00 -0.87141631767E+03  0.87141631767E+03  0.00000000000E+00 0. -1.
        -24    2    1    2    0    0 -0.34657585798E+03  0.24597300196E+03  0.60257206879E+03  0.74173629778E+03  0.80387152758E+02 0.  0.
        254    2    1    2    0    0  0.34657585798E+03 -0.24597300196E+03 -0.48974465601E+03  0.11139237503E+04  0.90573657896E+03 0.  0.
         23    2    4    4    0    0  0.18111236843E+03 -0.52416924507E+03 -0.53303130199E+03  0.77460733171E+03  0.91318464538E+02 0.  0.
         23    2    4    4    0    0  0.16546348955E+03  0.27819624311E+03  0.43286645979E+02  0.33931641863E+03  0.92144355100E+02 0.  0.
          3    1    3    3  502    0 -0.61915614148E+02  0.73069670305E+02  0.96966061823E+02  0.13629063482E+03  0.00000000000E+00 0. -1.
         -4    1    3    3    0  502 -0.28466024384E+03  0.17290333166E+03  0.50560600697E+03  0.60544566297E+03  0.00000000000E+00 0.  1.
         11    1    5    5    0    0  0.17975187526E+03 -0.41795700899E+03 -0.41491674471E+03  0.61575539224E+03  0.00000000000E+00 0.  1.
        -11    1    5    5    0    0  0.13604931688E+01 -0.10621223608E+03 -0.11811455728E+03  0.15885193947E+03  0.00000000000E+00 0. -1.
          2    1    6    6  503    0 -0.52618389512E+01  0.80715470927E+01 -0.11603989208E+02  0.15082751313E+02  0.00000000000E+00 0. -1.
         -2    1    6    6    0  503  0.17072532851E+03  0.27012469602E+03  0.54890635188E+02  0.32423366732E+03  0.00000000000E+00 0.  1.
<mgrwt>
<rscale>  0 0.18522268E+04</rscale>
<asrwt>0</asrwt>
<pdfrwt beam="1">  1        1 0.13406405E+00 0.18522268E+04</pdfrwt>
<pdfrwt beam="2">  1       -2 0.15142211E+00 0.18522268E+04</pdfrwt>
<totfact> 0.46206816E+00</totfact>
</mgrwt>
</event>
<event>
12    4  0.4320235E-008  0.1121511E+04  0.7818608E-02  0.9184475E-01
         -2   -1    0    0    0  501 -0.00000000000E+00  0.00000000000E+00  0.15887565006E+03  0.15887565006E+03  0.00000000000E+00 0.  1.
          1   -1    0    0  501    0  0.00000000000E+00 -0.00000000000E+00 -0.19792014955E+04  0.19792014955E+04  0.00000000000E+00 0. -1.
        -24    2    1    2    0    0  0.14342667178E+03  0.46763997521E+02 -0.21697414396E+03  0.27580727981E+03  0.78954384335E+02 0.  0.
        254    2    1    2    0    0 -0.14342667178E+03 -0.46763997521E+02 -0.16033517015E+04  0.18622698658E+04  0.93517607572E+03 0.  0.
         23    2    4    4    0    0  0.11554801087E+03 -0.17711809418E+03 -0.15333506794E+04  0.15504645934E+04  0.89744009734E+02 0.  0.
         23    2    4    4    0    0 -0.25897468265E+03  0.13035409666E+03 -0.70001022048E+02  0.31180527231E+03  0.90897238582E+02 0.  0.
          1    1    3    3  502    0  0.20103096930E+02  0.18110285229E+01 -0.93309072952E+02  0.95467258396E+02  0.00000000000E+00 0. -1.
         -2    1    3    3    0  502  0.12332357485E+03  0.44952968998E+02 -0.12366507101E+03  0.18034002141E+03  0.00000000000E+00 0.  1.
         11    1    5    5    0    0  0.12641323101E+03 -0.13919496220E+03 -0.13402424975E+04  0.13533682036E+04  0.00000000000E+00 0.  1.
        -11    1    5    5    0    0 -0.10865220139E+02 -0.37923131982E+02 -0.19310818194E+03  0.19709638982E+03  0.00000000000E+00 0. -1.
          4    1    6    6  503    0 -0.14826654660E+02  0.24066208597E+02 -0.32213215707E+02  0.42856777187E+02  0.00000000000E+00 0. -1.
         -4    1    6    6    0  503 -0.24414802799E+03  0.10628788807E+03 -0.37787806341E+02  0.26894849512E+03  0.00000000000E+00 0.  1.
<mgrwt>
<rscale>  0 0.11215113E+04</rscale>
<asrwt>0</asrwt>
<pdfrwt beam="1">  1        1 0.30449255E+00 0.11215113E+04</pdfrwt>
<pdfrwt beam="2">  1       -2 0.24442407E-01 0.11215113E+04</pdfrwt>
<totfact> 0.40287778E+01</totfact>
</mgrwt>
</event>
<event>
12    4  0.4320235E-008  0.1480735E+04  0.7818608E-02  0.8897366E-01
          1   -1    0    0  501    0  0.00000000000E+00  0.00000000000E+00  0.96842105081E+03  0.96842105081E+03  0.00000000000E+00 0. -1.
         -2   -1    0    0    0  501 -0.00000000000E+00 -0.00000000000E+00 -0.56601860481E+03  0.56601860481E+03  0.00000000000E+00 0.  1.
        -24    2    1    2    0    0 -0.38839770203E+03 -0.39473041605E+02  0.40219961465E+03  0.56631554199E+03  0.80857078351E+02 0.  0.
        254    2    1    2    0    0  0.38839770203E+03  0.39473041605E+02  0.20283134979E+00  0.96812411364E+03  0.88591950103E+03 0.  0.
         23    2    4    4    0    0  0.59128232108E+03 -0.20787948241E+03 -0.32042837845E+02  0.63434637162E+03  0.92411651388E+02 0.  0.
         23    2    4    4    0    0 -0.20288461905E+03  0.24735252401E+03  0.32245669195E+02  0.33377774201E+03  0.89567617471E+02 0.  0.
          1    1    3    3  502    0 -0.37338781010E+03 -0.27437398217E+02  0.35756214389E+03  0.51770836800E+03  0.00000000000E+00 0. -1.
         -2    1    3    3    0  502 -0.15009891928E+02 -0.12035643389E+02  0.44637470763E+02  0.48607173993E+02  0.00000000000E+00 0.  1.
         11    1    5    5    0    0  0.16031171448E+03 -0.10110668192E+03 -0.85059223352E+01  0.18972284429E+03  0.00000000000E+00 0.  1.
        -11    1    5    5    0    0  0.43097060659E+03 -0.10677280049E+03 -0.23536915510E+02  0.44462352734E+03  0.00000000000E+00 0. -1.
          3    1    6    6  503    0 -0.59024431338E+02  0.46238546717E+02 -0.26677681929E+02  0.79583826312E+02  0.00000000000E+00 0. -1.
         -3    1    6    6    0  503 -0.14386018771E+03  0.20111397730E+03  0.58923351124E+02  0.25419391570E+03  0.00000000000E+00 0.  1.
<mgrwt>
<rscale>  0 0.14807354E+04</rscale>
<asrwt>0</asrwt>
<pdfrwt beam="1">  1        1 0.14898785E+00 0.14807354E+04</pdfrwt>
<pdfrwt beam="2">  1       -2 0.87079786E-01 0.14807354E+04</pdfrwt>
<totfact> 0.15516384E+01</totfact>
</mgrwt>
</event>
<event>
12    4  0.4320235E-008  0.2882522E+04  0.7818608E-02  0.8278097E-01
         -2   -1    0    0    0  501 -0.00000000000E+00  0.00000000000E+00  0.58733918410E+03  0.58733918410E+03  0.00000000000E+00 0.  1.
          1   -1    0    0  501    0  0.00000000000E+00 -0.00000000000E+00 -0.35366830763E+04  0.35366830763E+04  0.00000000000E+00 0. -1.
        -24    2    1    2    0    0  0.41137278996E+03  0.96777397692E+03 -0.24824817750E+03  0.10834776009E+04  0.80514044431E+02 0.  0.
        254    2    1    2    0    0 -0.41137278996E+03 -0.96777397692E+03 -0.27010957147E+04  0.30405446594E+04  0.91824818187E+03 0.  0.
         23    2    4    4    0    0  0.21155725291E+03 -0.62817621082E+03 -0.15006615310E+04  0.16431495358E+04  0.92701365470E+02 0.  0.
         23    2    4    4    0    0 -0.62293004287E+03 -0.33959776610E+03 -0.12004341836E+04  0.13973951236E+04  0.91117623413E+02 0.  0.
          1    1    3    3  502    0  0.14818362482E+03  0.40666449485E+03 -0.13551481400E+03  0.45354014470E+03  0.00000000000E+00 0. -1.
         -2    1    3    3    0  502  0.26318916514E+03  0.56110948206E+03 -0.11273336351E+03  0.62993745623E+03  0.00000000000E+00 0.  1.
         11    1    5    5    0    0  0.50340643650E+02 -0.66057831344E+02 -0.15317065535E+03  0.17423853519E+03  0.00000000000E+00 0. -1.
        -11    1    5    5    0    0  0.16121660926E+03 -0.56211837947E+03 -0.13474908757E+04  0.14689110006E+04  0.00000000000E+00 0.  1.
          3    1    6    6  503    0 -0.17540248727E+03 -0.13173090330E+03 -0.42499611959E+03  0.47826850731E+03  0.00000000000E+00 0. -1.
         -3    1    6    6    0  503 -0.44752755560E+03 -0.20786686280E+03 -0.77543806405E+03  0.91912661634E+03  0.00000000000E+00 0.  1.
<mgrwt>
<rscale>  0 0.28825215E+04</rscale>
<asrwt>0</asrwt>
<pdfrwt beam="1">  1        1 0.54410508E+00 0.28825215E+04</pdfrwt>
<pdfrwt beam="2">  1       -2 0.90359877E-01 0.28825215E+04</pdfrwt>
<totfact> 0.18505124E-01</totfact>
</mgrwt>
</event>
<event>
12    4  0.4320235E-008  0.1829505E+04  0.7818608E-02  0.8690765E-01
         -2   -1    0    0    0  501 -0.00000000000E+00  0.00000000000E+00  0.47163109663E+03  0.47163109663E+03  0.00000000000E+00 0.  1.
          1   -1    0    0  501    0  0.00000000000E+00 -0.00000000000E+00 -0.17742086199E+04  0.17742086199E+04  0.00000000000E+00 0. -1.
        -24    2    1    2    0    0 -0.26400766850E+02  0.67055327039E+03 -0.29657085613E+03  0.73803778232E+03  0.80042529350E+02 0.  0.
        254    2    1    2    0    0  0.26400766850E+02 -0.67055327039E+03 -0.10060066671E+04  0.15078019342E+04  0.90059900595E+03 0.  0.
         23    2    4    4    0    0  0.42212084643E+03 -0.54602857513E+03 -0.66515005118E+03  0.96294768777E+03  0.92252072836E+02 0.  0.
         23    2    4    4    0    0 -0.39572007958E+03 -0.12452469527E+03 -0.34085661596E+03  0.54485424643E+03  0.92639819184E+02 0.  0.
          3    1    3    3  502    0  0.62339366647E+00  0.43096216464E+03 -0.22699906550E+03  0.48709070172E+03  0.00000000000E+00 0. -1.
         -4    1    3    3    0  502 -0.27024160517E+02  0.23959110576E+03 -0.69571790627E+02  0.25094708060E+03  0.00000000000E+00 0.  1.
         11    1    5    5    0    0  0.40410477451E+03 -0.47978769038E+03 -0.60858487218E+03  0.87399796525E+03  0.00000000000E+00 0. -1.
        -11    1    5    5    0    0  0.18016071919E+02 -0.66240884748E+02 -0.56565178999E+02  0.88949722511E+02  0.00000000000E+00 0.  1.
          3    1    6    6  503    0 -0.19215307198E+03 -0.43621148899E+02 -0.10618824822E+03  0.22383375921E+03  0.00000000000E+00 0. -1.
         -3    1    6    6    0  503 -0.20356700760E+03 -0.80903546368E+02 -0.23466836774E+03  0.32102048722E+03  0.00000000000E+00 0.  1.
<mgrwt>
<rscale>  0 0.18295048E+04</rscale>
<asrwt>0</asrwt>
<pdfrwt beam="1">  1        1 0.27295517E+00 0.18295048E+04</pdfrwt>
<pdfrwt beam="2">  1       -2 0.72558631E-01 0.18295048E+04</pdfrwt>
<totfact> 0.60219865E+00</totfact>
</mgrwt>
</event>
<event>
12    4  0.4320235E-008  0.1683626E+04  0.7818608E-02  0.8770758E-01
          1   -1    0    0  501    0  0.00000000000E+00  0.00000000000E+00  0.73159898666E+03  0.73159898666E+03  0.00000000000E+00 0. -1.
         -2   -1    0    0    0  501 -0.00000000000E+00 -0.00000000000E+00 -0.96863096056E+03  0.96863096056E+03  0.00000000000E+00 0.  1.
        -24    2    1    2    0    0 -0.56846334524E+02  0.45114112822E+03 -0.51857495170E+03  0.69433775544E+03  0.80156813670E+02 0.  0.
        254    2    1    2    0    0  0.56846334524E+02 -0.45114112822E+03  0.28154297780E+03  0.10058921918E+04  0.85193475679E+03 0.  0.
         23    2    4    4    0    0 -0.61607050193E+02 -0.56727338349E+03  0.46574055440E+03  0.74208321763E+03  0.90436262715E+02 0.  0.
         23    2    4    4    0    0  0.11845338472E+03  0.11613225527E+03 -0.18419757660E+03  0.26380897416E+03  0.90269167247E+02 0.  0.
          1    1    3    3  502    0 -0.53673810452E+02  0.43621224324E+03 -0.47024616349E+03  0.64365631618E+03  0.00000000000E+00 0. -1.
         -2    1    3    3    0  502 -0.31725240717E+01  0.14928884984E+02 -0.48328788212E+02  0.50681439264E+02  0.00000000000E+00 0.  1.
         11    1    5    5    0    0 -0.44784695369E+02 -0.34636535194E+03  0.22782628406E+03  0.41698853902E+03  0.00000000000E+00 0.  1.
        -11    1    5    5    0    0 -0.16822354824E+02 -0.22090803155E+03  0.23791427034E+03  0.32509467861E+03  0.00000000000E+00 0. -1.
          4    1    6    6  503    0  0.13077816142E+03  0.11362137838E+03 -0.18157101563E+03  0.25095971558E+03  0.00000000000E+00 0. -1.
         -4    1    6    6    0  503 -0.12324776700E+02  0.25108768922E+01 -0.26265609757E+01  0.12849258579E+02  0.00000000000E+00 0.  1.
<mgrwt>
<rscale>  0 0.16836264E+04</rscale>
<asrwt>0</asrwt>
<pdfrwt beam="1">  1        1 0.11255369E+00 0.16836264E+04</pdfrwt>
<pdfrwt beam="2">  1       -2 0.14902015E+00 0.16836264E+04</pdfrwt>
<totfact> 0.64738642E+00</totfact>
</mgrwt>
</event>
<event>
12    4  0.4320235E-008  0.2011970E+04  0.7818608E-02  0.8601045E-01
          1   -1    0    0  501    0  0.00000000000E+00  0.00000000000E+00  0.30918972106E+04  0.30918972106E+04  0.00000000000E+00 0. -1.
         -2   -1    0    0    0  501 -0.00000000000E+00 -0.00000000000E+00 -0.32730893993E+03  0.32730893993E+03  0.00000000000E+00 0.  1.
        -24    2    1    2    0    0 -0.29498752104E+03  0.70162440584E+03  0.71762013159E+03  0.10491680264E+04  0.80501241914E+02 0.  0.
        254    2    1    2    0    0  0.29498752104E+03 -0.70162440584E+03  0.20469681390E+04  0.23700381241E+04  0.92071043377E+03 0.  0.
         23    2    4    4    0    0 -0.27786707710E+03 -0.10759334122E+03  0.28568354856E+03  0.42292319769E+03  0.91991856238E+02 0.  0.
         23    2    4    4    0    0  0.57285459814E+03 -0.59403106462E+03  0.17612845905E+04  0.19471149264E+04  0.89987952113E+02 0.  0.
          3    1    3    3  502    0 -0.10165034093E+03  0.24726952579E+03  0.30586872837E+03  0.40623969426E+03  0.00000000000E+00 0. -1.
         -4    1    3    3    0  502 -0.19333718011E+03  0.45435488005E+03  0.41175140322E+03  0.64292833216E+03  0.00000000000E+00 0.  1.
         11    1    5    5    0    0 -0.27994240874E+03 -0.11446024192E+03  0.28525064787E+03  0.41573649262E+03  0.00000000000E+00 0. -1.
        -11    1    5    5    0    0  0.20753316383E+01  0.68669007049E+01  0.43290069806E+00  0.71867050666E+01  0.00000000000E+00 0.  1.
          1    1    6    6  503    0  0.46086150282E+03 -0.47370191842E+03  0.14885792943E+04  0.16286973775E+04  0.00000000000E+00 0. -1.
         -1    1    6    6    0  503  0.11199309532E+03 -0.12032914620E+03  0.27270529622E+03  0.31841754884E+03  0.00000000000E+00 0.  1.
<mgrwt>
<rscale>  0 0.20119698E+04</rscale>
<asrwt>0</asrwt>
<pdfrwt beam="1">  1        1 0.47567647E+00 0.20119698E+04</pdfrwt>
<pdfrwt beam="2">  1       -2 0.50355224E-01 0.20119698E+04</pdfrwt>
<totfact> 0.15572734E+00</totfact>
</mgrwt>
</event>
<event>
12    4  0.4320235E-008  0.1191672E+04  0.7818608E-02  0.9120177E-01
          1   -1    0    0  501    0  0.00000000000E+00  0.00000000000E+00  0.22122868220E+04  0.22122868220E+04  0.00000000000E+00 0. -1.
         -2   -1    0    0    0  501 -0.00000000000E+00 -0.00000000000E+00 -0.16047675763E+03  0.16047675763E+03  0.00000000000E+00 0.  1.
        -24    2    1    2    0    0  0.30546064933E+02 -0.75370037665E+01 -0.36376774152E+02  0.95221723005E+02  0.82182956419E+02 0.  0.
        254    2    1    2    0    0 -0.30546064933E+02  0.75370037665E+01  0.20881868386E+04  0.22775418566E+04  0.90867087967E+03 0.  0.
         23    2    4    4    0    0  0.41732253900E+03 -0.97047351276E+02  0.92583866273E+03  0.10242712911E+04  0.91532280201E+02 0.  0.
         23    2    4    4    0    0 -0.44786860393E+03  0.10458435504E+03  0.11623481758E+04  0.12532705656E+04  0.90053623187E+02 0.  0.
          1    1    3    3  502    0  0.48057650176E+02  0.12412699873E+02  0.67857440893E+00  0.49639433133E+02  0.00000000000E+00 0. -1.
         -2    1    3    3    0  502 -0.17511585243E+02 -0.19949703640E+02 -0.37055348560E+02  0.45582289872E+02  0.00000000000E+00 0.  1.
         11    1    5    5    0    0  0.27819425176E+03 -0.38467066668E+02  0.51534859181E+03  0.58690367865E+03  0.00000000000E+00 0.  1.
        -11    1    5    5    0    0  0.13912828724E+03 -0.58580284608E+02  0.41049007092E+03  0.43736761240E+03  0.00000000000E+00 0. -1.
          4    1    6    6  503    0 -0.44112812837E+03  0.10963294257E+03  0.11575045797E+04  0.12435554912E+04  0.00000000000E+00 0. -1.
         -4    1    6    6    0  503 -0.67404755585E+01 -0.50485875243E+01  0.48435961386E+01  0.97150743846E+01  0.00000000000E+00 0.  1.
<mgrwt>
<rscale>  0 0.11916721E+04</rscale>
<asrwt>0</asrwt>
<pdfrwt beam="1">  1        1 0.34035180E+00 0.11916721E+04</pdfrwt>
<pdfrwt beam="2">  1       -2 0.24688733E-01 0.11916721E+04</pdfrwt>
<totfact> 0.27363496E+01</totfact>
</mgrwt>
</event>
<event>
12    4  0.4320235E-008  0.2138016E+04  0.7818608E-02  0.8544679E-01
         -2   -1    0    0    0  501 -0.00000000000E+00  0.00000000000E+00  0.67579069003E+03  0.67579069003E+03  0.00000000000E+00 0.  1.
          1   -1    0    0  501    0  0.00000000000E+00 -0.00000000000E+00 -0.16910240171E+04  0.16910240171E+04  0.00000000000E+00 0. -1.
        -24    2    1    2    0    0 -0.64193646099E+03 -0.52343640035E+03 -0.74131473221E+03  0.11144822282E+04  0.80343136424E+02 0.  0.
        254    2    1    2    0    0  0.64193646099E+03  0.52343640035E+03 -0.27391859489E+03  0.12523324790E+04  0.89846377565E+03 0.  0.
         23    2    4    4    0    0  0.10857226470E+03  0.59268116973E+03  0.58389050035E+02  0.61351760256E+03  0.99677790271E+02 0.  0.
         23    2    4    4    0    0  0.53336419629E+03 -0.69244769376E+02 -0.33230764493E+03  0.63881487643E+03  0.91563483475E+02 0.  0.
          3    1    3    3  502    0 -0.39393072858E+03 -0.28908841044E+03 -0.47725848163E+03  0.68302941829E+03  0.00000000000E+00 0. -1.
         -4    1    3    3    0  502 -0.24800573241E+03 -0.23434798991E+03 -0.26405625058E+03  0.43145280988E+03  0.00000000000E+00 0.  1.
         11    1    5    5    0    0  0.12269462505E+03  0.51978351526E+03  0.69011798761E+02  0.53850859057E+03  0.00000000000E+00 0.  1.
        -11    1    5    5    0    0 -0.14122360348E+02  0.72897654468E+02 -0.10622748726E+02  0.75009011986E+02  0.00000000000E+00 0. -1.
          3    1    6    6  503    0  0.31993673948E+03  0.10334471541E+01 -0.21355983835E+03  0.38466659569E+03  0.00000000000E+00 0. -1.
         -3    1    6    6    0  503  0.21342745681E+03 -0.70278216530E+02 -0.11874780657E+03  0.25414828075E+03  0.00000000000E+00 0.  1.
<mgrwt>
<rscale>  0 0.21380162E+04</rscale>
<asrwt>0</asrwt>
<pdfrwt beam="1">  1        1 0.26015754E+00 0.21380162E+04</pdfrwt>
<pdfrwt beam="2">  1       -2 0.10396780E+00 0.21380162E+04</pdfrwt>
<totfact> 0.29285606E+00</totfact>
</mgrwt>
</event>
<event>
12    4  0.4320235E-008  0.1353715E+04  0.7818608E-02  0.8988020E-01
         -2   -1    0    0    0  501 -0.00000000000E+00  0.00000000000E+00  0.14855099373E+03  0.14855099373E+03  0.00000000000E+00 0.  1.
          1   -1    0    0  501    0  0.00000000000E+00 -0.00000000000E+00 -0.30840341841E+04  0.30840341841E+04  0.00000000000E+00 0. -1.
        -24    2    1    2    0    0  0.14442464269E+03 -0.14745404497E+03 -0.15582245828E+04  0.15741327664E+04  0.85023190930E+02 0.  0.
        254    2    1    2    0    0 -0.14442464269E+03  0.14745404497E+03 -0.13772586076E+04  0.16584524114E+04  0.90056757440E+03 0.  0.
         23    2    4    4    0    0 -0.44157993994E+03  0.16397002955E+03 -0.12177363051E+04  0.13085847133E+04  0.87368352634E+02 0.  0.
         23    2    4    4    0    0  0.29715529725E+03 -0.16515984572E+02 -0.15952230243E+03  0.34986769815E+03  0.91575066516E+02 0.  0.
          3    1    3    3  502    0  0.76911588451E+02 -0.71963009180E+02 -0.10901782449E+04  0.10952546156E+04  0.00000000000E+00 0. -1.
         -4    1    3    3    0  502  0.67513054236E+02 -0.75491035794E+02 -0.46804633788E+03  0.47887815087E+03  0.00000000000E+00 0.  1.
         11    1    5    5    0    0 -0.29998632463E+03  0.89880434921E+02 -0.70263349089E+03  0.76926205552E+03  0.00000000000E+00 0.  1.
        -11    1    5    5    0    0 -0.14159361530E+03  0.74089594626E+02 -0.51510281423E+03  0.53932265774E+03  0.00000000000E+00 0. -1.
          2    1    6    6  503    0  0.15012511215E+03  0.31658229920E+01 -0.30408598657E+02  0.15320657494E+03  0.00000000000E+00 0. -1.
         -2    1    6    6    0  503  0.14703018510E+03 -0.19681807564E+02 -0.12911370378E+03  0.19666112321E+03  0.00000000000E+00 0.  1.
<mgrwt>
<rscale>  0 0.13537154E+04</rscale>
<asrwt>0</asrwt>
<pdfrwt beam="1">  1        1 0.47446675E+00 0.13537154E+04</pdfrwt>
<pdfrwt beam="2">  1       -2 0.22854001E-01 0.13537154E+04</pdfrwt>
<totfact> 0.75902885E+00</totfact>
</mgrwt>
</event>
<event>
12    4  0.4320235E-008  0.1742505E+04  0.7818608E-02  0.8737487E-01
         -2   -1    0    0    0  501 -0.00000000000E+00  0.00000000000E+00  0.73884534221E+03  0.73884534221E+03  0.00000000000E+00 0.  1.
          1   -1    0    0  501    0  0.00000000000E+00 -0.00000000000E+00 -0.10273885655E+04  0.10273885655E+04  0.00000000000E+00 0. -1.
        -24    2    1    2    0    0 -0.53246571017E+03 -0.14796507928E+03  0.20624534470E+03  0.59510192664E+03  0.78713173543E+02 0.  0.
        254    2    1    2    0    0  0.53246571017E+03  0.14796507928E+03 -0.49478856804E+03  0.11711319811E+04  0.90626761661E+03 0.  0.
         23    2    4    4    0    0  0.13669310248E+02  0.31599262672E+03 -0.52363193196E+03  0.61849998856E+03  0.91179194404E+02 0.  0.
         23    2    4    4    0    0  0.51879639992E+03 -0.16802754744E+03  0.28843363922E+02  0.55263199255E+03  0.84777463254E+02 0.  0.
          3    1    3    3  502    0 -0.29733283858E+03 -0.56192706969E+02  0.80577264346E+02  0.31314075549E+03  0.00000000000E+00 0. -1.
         -4    1    3    3    0  502 -0.23513287159E+03 -0.91772372308E+02  0.12566808035E+03  0.28196117116E+03  0.00000000000E+00 0.  1.
         11    1    5    5    0    0  0.48186809739E+02  0.11197983389E+03 -0.20802206324E+03  0.24111124119E+03  0.00000000000E+00 0. -1.
        -11    1    5    5    0    0 -0.34517499492E+02  0.20401279283E+03 -0.31560986872E+03  0.37738874737E+03  0.00000000000E+00 0.  1.
          3    1    6    6  503    0  0.45894428215E+02 -0.12097271441E+02  0.27158234650E+02  0.54682833017E+02  0.00000000000E+00 0. -1.
         -3    1    6    6    0  503  0.47290197171E+03 -0.15593027600E+03  0.16851292721E+01  0.49794915953E+03  0.00000000000E+00 0.  1.
<mgrwt>
<rscale>  0 0.17425054E+04</rscale>
<asrwt>0</asrwt>
<pdfrwt beam="1">  1        1 0.15805978E+00 0.17425054E+04</pdfrwt>
<pdfrwt beam="2">  1       -2 0.11366851E+00 0.17425054E+04</pdfrwt>
<totfact> 0.72651448E+00</totfact>
</mgrwt>
</event>
<event>
12    4  0.4320235E-008  0.2589530E+04  0.7818608E-02  0.8371766E-01
         -2   -1    0    0    0  501 -0.00000000000E+00  0.00000000000E+00  0.63347023169E+03  0.63347023169E+03  0.00000000000E+00 0.  1.
          1   -1    0    0  501    0  0.00000000000E+00 -0.00000000000E+00 -0.26464008581E+04  0.26464008581E+04  0.00000000000E+00 0. -1.
        -24    2    1    2    0    0  0.74841062158E+03 -0.24302404183E+03  0.15679828113E+03  0.80638257618E+03  0.80548214140E+02 0.  0.
        254    2    1    2    0    0 -0.74841062158E+03  0.24302404183E+03 -0.21697289076E+04  0.24734885136E+04  0.88951826926E+03 0.  0.
         23    2    4    4    0    0 -0.30623003953E+03 -0.24680200050E+03 -0.34602886150E+03  0.53183132191E+03  0.91763377317E+02 0.  0.
         23    2    4    4    0    0 -0.44218058205E+03  0.48982604233E+03 -0.18237000461E+04  0.19416571917E+04  0.93260780918E+02 0.  0.
          1    1    3    3  502    0  0.28013663031E+03 -0.11456764205E+03  0.27597769512E+02  0.30391431873E+03  0.00000000000E+00 0. -1.
         -2    1    3    3    0  502  0.46827399127E+03 -0.12845639978E+03  0.12920051162E+03  0.50246825745E+03  0.00000000000E+00 0.  1.
         11    1    5    5    0    0 -0.12196525361E+02  0.33747107461E+01  0.10388155040E+01  0.12697363551E+02  0.00000000000E+00 0.  1.
        -11    1    5    5    0    0 -0.29403351417E+03 -0.25017671124E+03 -0.34706767701E+03  0.51913395836E+03  0.00000000000E+00 0. -1.
          2    1    6    6  503    0 -0.34168217989E+03  0.42820877565E+03 -0.14645034465E+04  0.15636111449E+04  0.00000000000E+00 0. -1.
         -2    1    6    6    0  503 -0.10049840217E+03  0.61617266684E+02 -0.35919659952E+03  0.37804604679E+03  0.00000000000E+00 0.  1.
<mgrwt>
<rscale>  0 0.25895298E+04</rscale>
<asrwt>0</asrwt>
<pdfrwt beam="1">  1        1 0.40713859E+00 0.25895298E+04</pdfrwt>
<pdfrwt beam="2">  1       -2 0.97456959E-01 0.25895298E+04</pdfrwt>
<totfact> 0.72823735E-01</totfact>
</mgrwt>
</event>
<event>
12    4  0.4320235E-008  0.2228407E+04  0.7818608E-02  0.8506697E-01
         -2   -1    0    0    0  501 -0.00000000000E+00  0.00000000000E+00  0.12460594014E+04  0.12460594014E+04  0.00000000000E+00 0.  1.
          1   -1    0    0  501    0  0.00000000000E+00 -0.00000000000E+00 -0.99630066896E+03  0.99630066896E+03  0.00000000000E+00 0. -1.
        -24    2    1    2    0    0 -0.42854881817E+03 -0.78988764897E+03  0.12472161122E+03  0.91116228291E+03  0.84170291239E+02 0.  0.
        254    2    1    2    0    0  0.42854881817E+03  0.78988764897E+03  0.12503712117E+03  0.13311977874E+04  0.97410301303E+03 0.  0.
         23    2    4    4    0    0 -0.27113765926E+03  0.32109663968E+03 -0.12716571062E+03  0.44850507705E+03  0.91471328294E+02 0.  0.
         23    2    4    4    0    0  0.69968647743E+03  0.46879100929E+03  0.25220283179E+03  0.88269271037E+03  0.78828773226E+02 0.  0.
          3    1    3    3  502    0 -0.29926061870E+03 -0.47301831175E+03  0.60985422879E+02  0.56304747842E+03  0.00000000000E+00 0. -1.
         -4    1    3    3    0  502 -0.12928819947E+03 -0.31686933723E+03  0.63736188345E+02  0.34811480449E+03  0.00000000000E+00 0.  1.
         11    1    5    5    0    0 -0.20106397254E+03  0.26346090180E+03 -0.13407369281E+03  0.35751101093E+03  0.00000000000E+00 0.  1.
        -11    1    5    5    0    0 -0.70073686714E+02  0.57635737879E+02  0.69079821943E+01  0.90994066117E+02  0.00000000000E+00 0. -1.
          3    1    6    6  503    0  0.20696602883E+02  0.16168930312E+02 -0.57180012242E+01  0.26878973498E+02  0.00000000000E+00 0. -1.
         -3    1    6    6    0  503  0.67898987454E+03  0.45262207898E+03  0.25792083301E+03  0.85581373687E+03  0.00000000000E+00 0.  1.
<mgrwt>
<rscale>  0 0.22284073E+04</rscale>
<asrwt>0</asrwt>
<pdfrwt beam="1">  1        1 0.15327703E+00 0.22284073E+04</pdfrwt>
<pdfrwt beam="2">  1       -2 0.19170145E+00 0.22284073E+04</pdfrwt>
<totfact> 0.18336814E+00</totfact>
</mgrwt>
</event>
<event>
12    4  0.4320235E-008  0.2991228E+04  0.7818608E-02  0.8246240E-01
          1   -1    0    0  501    0  0.00000000000E+00  0.00000000000E+00  0.14284086762E+04  0.14284086762E+04  0.00000000000E+00 0. -1.
         -2   -1    0    0    0  501 -0.00000000000E+00 -0.00000000000E+00 -0.15659813960E+04  0.15659813960E+04  0.00000000000E+00 0.  1.
        -24    2    1    2    0    0  0.13226981153E+04  0.30393377063E+03 -0.16503205781E+03  0.13694947564E+04  0.79839004319E+02 0.  0.
        254    2    1    2    0    0 -0.13226981153E+04 -0.30393377063E+03  0.27459337912E+02  0.16248953158E+04  0.89309838810E+03 0.  0.
         23    2    4    4    0    0 -0.92930403568E+03  0.31503486935E+02 -0.32882639895E+03  0.99049767419E+03  0.91435121801E+02 0.  0.
         23    2    4    4    0    0 -0.39339407962E+03 -0.33543725756E+03  0.35628573686E+03  0.63439764159E+03  0.90795295691E+02 0.  0.
          3    1    3    3  502    0  0.38696967565E+03  0.84184325961E+02 -0.11995122925E+02  0.39620249064E+03  0.00000000000E+00 0. -1.
         -2    1    3    3    0  502  0.93572843966E+03  0.21974944467E+03 -0.15303693488E+03  0.97329226579E+03  0.00000000000E+00 0.  1.
         11    1    5    5    0    0 -0.42339311725E+03 -0.27399799415E+02 -0.16875546498E+03  0.45660802414E+03  0.00000000000E+00 0. -1.
        -11    1    5    5    0    0 -0.50591091843E+03  0.58903286350E+02 -0.16007093397E+03  0.53388965005E+03  0.00000000000E+00 0.  1.
          3    1    6    6  503    0 -0.38702706313E+03 -0.32089855989E+03  0.35967479093E+03  0.61816809087E+03  0.00000000000E+00 0. -1.
         -3    1    6    6    0  503 -0.63670164928E+01 -0.14538697671E+02 -0.33890540758E+01  0.16229550718E+02  0.00000000000E+00 0.  1.
<mgrwt>
<rscale>  0 0.29912281E+04</rscale>
<asrwt>0</asrwt>
<pdfrwt beam="1">  1        1 0.21975518E+00 0.29912281E+04</pdfrwt>
<pdfrwt beam="2">  1       -2 0.24092022E+00 0.29912281E+04</pdfrwt>
<totfact> 0.40125249E-01</totfact>
</mgrwt>
</event>
<event>
12    4  0.4320235E-008  0.2160154E+04  0.7818608E-02  0.8535198E-01
         -2   -1    0    0    0  501 -0.00000000000E+00  0.00000000000E+00  0.33808572165E+03  0.33808572165E+03  0.00000000000E+00 0.  1.
          1   -1    0    0  501    0  0.00000000000E+00 -0.00000000000E+00 -0.34505043270E+04  0.34505043270E+04  0.00000000000E+00 0. -1.
        -24    2    1    2    0    0  0.80421876495E+03 -0.36489012131E+03 -0.10847745999E+04  0.14009825095E+04  0.78124495866E+02 0.  0.
        254    2    1    2    0    0 -0.80421876495E+03  0.36489012131E+03 -0.20276440055E+04  0.23876075392E+04  0.89967601146E+03 0.  0.
         23    2    4    4    0    0 -0.15543598723E+03  0.46187545942E+03 -0.13579610850E+04  0.14456278254E+04  0.91061599323E+02 0.  0.
         23    2    4    4    0    0 -0.64878277772E+03 -0.96985338108E+02 -0.66968292042E+03  0.94197971378E+03  0.92332652867E+02 0.  0.
          1    1    3    3  502    0  0.31054244186E+03 -0.12166114876E+03 -0.46320938351E+03  0.57078978292E+03  0.00000000000E+00 0. -1.
         -2    1    3    3    0  502  0.49367632308E+03 -0.24322897255E+03 -0.62156521638E+03  0.83019272658E+03  0.00000000000E+00 0.  1.
         11    1    5    5    0    0 -0.10482160042E+02  0.10666080440E+03 -0.21963833019E+03  0.24439189627E+03  0.00000000000E+00 0. -1.
        -11    1    5    5    0    0 -0.14495382718E+03  0.35521465501E+03 -0.11383227549E+04  0.12012359291E+04  0.00000000000E+00 0.  1.
          3    1    6    6  503    0 -0.10652473331E+03 -0.62962451989E+01 -0.15975401499E+03  0.19211586821E+03  0.00000000000E+00 0. -1.
         -3    1    6    6    0  503 -0.54225804441E+03 -0.90689092909E+02 -0.50992890543E+03  0.74986384557E+03  0.00000000000E+00 0.  1.
<mgrwt>
<rscale>  0 0.21601539E+04</rscale>
<asrwt>0</asrwt>
<pdfrwt beam="1">  1        1 0.53084683E+00 0.21601539E+04</pdfrwt>
<pdfrwt beam="2">  1       -2 0.52013187E-01 0.21601539E+04</pdfrwt>
<totfact> 0.76899525E-01</totfact>
</mgrwt>
</event>
<event>
12    4  0.4320235E-008  0.1138797E+04  0.7818608E-02  0.9168182E-01
          1   -1    0    0  501    0  0.00000000000E+00  0.00000000000E+00  0.87498341571E+03  0.87498341571E+03  0.00000000000E+00 0. -1.
         -4   -1    0    0    0  501 -0.00000000000E+00 -0.00000000000E+00 -0.37053779506E+03  0.37053779506E+03  0.00000000000E+00 0.  1.
        -24    2    1    2    0    0 -0.10679405967E+02 -0.20138666681E+03  0.15883815944E+03  0.26886055246E+03  0.79911178791E+02 0.  0.
        254    2    1    2    0    0  0.10679405967E+02  0.20138666681E+03  0.34560746121E+03  0.97666065830E+03  0.89092698071E+03 0.  0.
         23    2    4    4    0    0 -0.25003368084E+03 -0.23095057317E+03  0.29465117438E+03  0.46065029458E+03  0.97592881574E+02 0.  0.
         23    2    4    4    0    0  0.26071308681E+03  0.43233723998E+03  0.50956286838E+02  0.51601036372E+03  0.93719526185E+02 0.  0.
          3    1    3    3  502    0  0.15096441251E+02 -0.18422505845E+03  0.14506456312E+03  0.23496915154E+03  0.00000000000E+00 0. -1.
         -4    1    3    3    0  502 -0.25775847218E+02 -0.17161608356E+02  0.13773596320E+02  0.33891400926E+02  0.00000000000E+00 0.  1.
         11    1    5    5    0    0 -0.19936138673E+02  0.86908824517E+01  0.21037951672E+02  0.30258494237E+02  0.00000000000E+00 0.  1.
        -11    1    5    5    0    0 -0.23009754217E+03 -0.23964145563E+03  0.27361322270E+03  0.43039180035E+03  0.00000000000E+00 0. -1.
          4    1    6    6  503    0  0.23583438504E+03  0.41874274751E+03  0.31484051013E+02  0.48161664343E+03  0.00000000000E+00 0. -1.
         -4    1    6    6    0  503  0.24878701771E+02  0.13594492471E+02  0.19472235825E+02  0.34393720290E+02  0.00000000000E+00 0.  1.
<mgrwt>
<rscale>  0 0.11387966E+04</rscale>
<asrwt>0</asrwt>
<pdfrwt beam="1">  1        1 0.13461283E+00 0.11387966E+04</pdfrwt>
<pdfrwt beam="2">  1       -4 0.57005815E-01 0.11387966E+04</pdfrwt>
<totfact> 0.26987170E+01</totfact>
</mgrwt>
</event>
<event>
12    4  0.4320235E-008  0.1218276E+04  0.7818608E-02  0.9097009E-01
         -2   -1    0    0    0  501 -0.00000000000E+00  0.00000000000E+00  0.76852842213E+03  0.76852842213E+03  0.00000000000E+00 0.  1.
          1   -1    0    0  501    0  0.00000000000E+00 -0.00000000000E+00 -0.48280433642E+03  0.48280433642E+03  0.00000000000E+00 0. -1.
        -24    2    1    2    0    0 -0.24184768728E+03  0.11683906165E+03 -0.44136585693E+01  0.27973256584E+03  0.78033056087E+02 0.  0.
        254    2    1    2    0    0  0.24184768728E+03 -0.11683906165E+03  0.29013774428E+03  0.97160019271E+03  0.88751639627E+03 0.  0.
         23    2    4    4    0    0 -0.27895555548E+03 -0.68766337351E+02  0.32042455525E+03  0.43997694051E+03  0.91448354186E+02 0.  0.
         23    2    4    4    0    0  0.52080324276E+03 -0.48072724298E+02 -0.30286810972E+02  0.53162325220E+03  0.90327110354E+02 0.  0.
          3    1    3    3  502    0 -0.14244129786E+03  0.48184637566E+02 -0.36494341439E+02  0.15473564421E+03  0.00000000000E+00 0. -1.
         -4    1    3    3    0  502 -0.99406389423E+02  0.68654424084E+02  0.32080682869E+02  0.12499692163E+03  0.00000000000E+00 0.  1.
         11    1    5    5    0    0 -0.25684348291E+03 -0.88576317803E+02  0.28484564503E+03  0.39363864176E+03  0.00000000000E+00 0. -1.
        -11    1    5    5    0    0 -0.22112072573E+02  0.19809980452E+02  0.35578910219E+02  0.46338298753E+02  0.00000000000E+00 0.  1.
          4    1    6    6  503    0  0.35398438739E+03  0.26014424391E+01 -0.44104662888E+02  0.35673090041E+03  0.00000000000E+00 0. -1.
         -4    1    6    6    0  503  0.16681885537E+03 -0.50674166737E+02  0.13817851916E+02  0.17489235178E+03  0.00000000000E+00 0.  1.
<mgrwt>
<rscale>  0 0.12182756E+04</rscale>
<asrwt>0</asrwt>
<pdfrwt beam="1">  1        1 0.74277590E-01 0.12182756E+04</pdfrwt>
<pdfrwt beam="2">  1       -2 0.11823514E+00 0.12182756E+04</pdfrwt>
<totfact> 0.22138353E+01</totfact>
</mgrwt>
</event>
<event>
12    4  0.4320235E-008  0.1384987E+04  0.7818608E-02  0.8964758E-01
         -2   -1    0    0    0  501 -0.00000000000E+00  0.00000000000E+00  0.91835517952E+03  0.91835517952E+03  0.00000000000E+00 0.  1.
          1   -1    0    0  501    0  0.00000000000E+00 -0.00000000000E+00 -0.52218086309E+03  0.52218086309E+03  0.00000000000E+00 0. -1.
        -24    2    1    2    0    0 -0.30043301971E+03 -0.37087518741E+02 -0.15050111091E+03  0.34874368919E+03  0.85650995228E+02 0.  0.
        254    2    1    2    0    0  0.30043301971E+03  0.37087518741E+02  0.54667542734E+03  0.10917923534E+04  0.89527707262E+03 0.  0.
         23    2    4    4    0    0  0.11298768990E+03 -0.89489986327E+02  0.75249670311E+03  0.77185239492E+03  0.93435301823E+02 0.  0.
         23    2    4    4    0    0  0.18744532981E+03  0.12657750507E+03 -0.20582127578E+03  0.31993995850E+03  0.94029585901E+02 0.  0.
          1    1    3    3  502    0 -0.25235727864E+03 -0.13629034134E+02 -0.90699261920E+02  0.26850754695E+03  0.00000000000E+00 0. -1.
         -2    1    3    3    0  502 -0.48075741076E+02 -0.23458484607E+02 -0.59801848985E+02  0.80236142243E+02  0.00000000000E+00 0.  1.
         11    1    5    5    0    0  0.92306321054E+02 -0.13855014102E+02  0.40340464194E+03  0.41406246324E+03  0.00000000000E+00 0. -1.
        -11    1    5    5    0    0  0.20681368847E+02 -0.75634972225E+02  0.34909206117E+03  0.35778993168E+03  0.00000000000E+00 0.  1.
          3    1    6    6  503    0  0.15087028719E+03  0.11035239416E+03 -0.20827371552E+03  0.27985252371E+03  0.00000000000E+00 0. -1.
         -3    1    6    6    0  503  0.36575042624E+02  0.16225110909E+02  0.24524397431E+01  0.40087434785E+02  0.00000000000E+00 0.  1.
<mgrwt>
<rscale>  0 0.13849874E+04</rscale>
<asrwt>0</asrwt>
<pdfrwt beam="1">  1        1 0.80335517E-01 0.13849874E+04</pdfrwt>
<pdfrwt beam="2">  1       -2 0.14128541E+00 0.13849874E+04</pdfrwt>
<totfact> 0.12486294E+01</totfact>
</mgrwt>
</event>
<event>
12    4  0.4320235E-008  0.2825327E+04  0.7818608E-02  0.8295448E-01
          1   -1    0    0  501    0  0.00000000000E+00  0.00000000000E+00  0.16715264659E+04  0.16715264659E+04  0.00000000000E+00 0. -1.
         -2   -1    0    0    0  501 -0.00000000000E+00 -0.00000000000E+00 -0.11938894437E+04  0.11938894437E+04  0.00000000000E+00 0.  1.
        -24    2    1    2    0    0 -0.26684472724E+03  0.73033926120E+03  0.12300573132E+04  0.14575333028E+04  0.82224023991E+02 0.  0.
        254    2    1    2    0    0  0.26684472724E+03 -0.73033926120E+03 -0.75242029101E+03  0.14078826068E+04  0.90077499709E+03 0.  0.
         23    2    4    4    0    0  0.15107578954E+03 -0.52799739024E+03  0.58199014224E+02  0.55959764309E+03  0.90317543203E+02 0.  0.
         23    2    4    4    0    0  0.11576893770E+03 -0.20234187097E+03 -0.81061930524E+03  0.84828496375E+03  0.90216639324E+02 0.  0.
          3    1    3    3  502    0 -0.23949495763E+03  0.70308500470E+03  0.11568631523E+04  0.13747795138E+04  0.00000000000E+00 0. -1.
         -4    1    3    3    0  502 -0.27349769616E+02  0.27254256500E+02  0.73194160975E+02  0.82753789014E+02  0.00000000000E+00 0.  1.
         11    1    5    5    0    0  0.66052165490E+02 -0.23483629226E+03 -0.19178020834E+02  0.24470138785E+03  0.00000000000E+00 0. -1.
        -11    1    5    5    0    0  0.85023624052E+02 -0.29316109797E+03  0.77377035058E+02  0.31489625524E+03  0.00000000000E+00 0.  1.
          2    1    6    6  503    0  0.39307420572E+02 -0.65642960966E+02 -0.13923673611E+03  0.15887397621E+03  0.00000000000E+00 0. -1.
         -2    1    6    6    0  503  0.76461517129E+02 -0.13669891000E+03 -0.67138256913E+03  0.68941098753E+03  0.00000000000E+00 0.  1.
<mgrwt>
<rscale>  0 0.28253267E+04</rscale>
<asrwt>0</asrwt>
<pdfrwt beam="1">  1        1 0.25715792E+00 0.28253267E+04</pdfrwt>
<pdfrwt beam="2">  1       -2 0.18367530E+00 0.28253267E+04</pdfrwt>
<totfact> 0.64717999E-01</totfact>
</mgrwt>
</event>
<event>
12    4  0.4320235E-008  0.2604454E+04  0.7818608E-02  0.8366690E-01
         -2   -1    0    0    0  501 -0.00000000000E+00  0.00000000000E+00  0.58696803317E+03  0.58696803317E+03  0.00000000000E+00 0.  1.
          1   -1    0    0  501    0  0.00000000000E+00 -0.00000000000E+00 -0.28890747777E+04  0.28890747777E+04  0.00000000000E+00 0. -1.
        -24    2    1    2    0    0 -0.10396725999E+04  0.61384719601E+02 -0.16404590279E+04  0.19447666755E+04  0.79526103290E+02 0.  0.
        254    2    1    2    0    0  0.10396725999E+04 -0.61384719601E+02 -0.66164771663E+03  0.15312761354E+04  0.90683058135E+03 0.  0.
         23    2    4    4    0    0  0.57295090619E+03 -0.60089279539E+02  0.13997014135E+03  0.59923135341E+03  0.87195825708E+02 0.  0.
         23    2    4    4    0    0  0.46672169366E+03 -0.12954400614E+01 -0.80161785798E+03  0.93204478200E+03  0.91024545713E+02 0.  0.
          3    1    3    3  502    0 -0.50310887335E+01  0.42995971649E+01 -0.37274713378E+01  0.75955534491E+01  0.00000000000E+00 0. -1.
         -4    1    3    3    0  502 -0.10346415111E+04  0.57085122436E+02 -0.16367315566E+04  0.19371711220E+04  0.00000000000E+00 0.  1.
         11    1    5    5    0    0  0.17362688782E+03 -0.35567773377E+02  0.80879340458E+02  0.19481486183E+03  0.00000000000E+00 0. -1.
        -11    1    5    5    0    0  0.39932401837E+03 -0.24521506163E+02  0.59090800892E+02  0.40441649158E+03  0.00000000000E+00 0.  1.
          1    1    6    6  503    0  0.13762980893E+02 -0.24863218194E+01 -0.36088040222E+01  0.14443853562E+02  0.00000000000E+00 0. -1.
         -1    1    6    6    0  503  0.45295871277E+03  0.11908817580E+01 -0.79800905396E+03  0.91760092844E+03  0.00000000000E+00 0.  1.
<mgrwt>
<rscale>  0 0.26044535E+04</rscale>
<asrwt>0</asrwt>
<pdfrwt beam="1">  1        1 0.44447304E+00 0.26044535E+04</pdfrwt>
<pdfrwt beam="2">  1       -2 0.90302775E-01 0.26044535E+04</pdfrwt>
<totfact> 0.58395004E-01</totfact>
</mgrwt>
</event>
<event>
12    4  0.4320235E-008  0.2191147E+04  0.7818608E-02  0.8522122E-01
         -2   -1    0    0    0  501 -0.00000000000E+00  0.00000000000E+00  0.13128240001E+04  0.13128240001E+04  0.00000000000E+00 0.  1.
          1   -1    0    0  501    0  0.00000000000E+00 -0.00000000000E+00 -0.91427468887E+03  0.91427468887E+03  0.00000000000E+00 0. -1.
        -24    2    1    2    0    0  0.33823336333E+03  0.84687594343E+03  0.17628576099E+03  0.93256940252E+03  0.83715884727E+02 0.  0.
        254    2    1    2    0    0 -0.33823336333E+03 -0.84687594343E+03  0.22226355022E+03  0.12945292864E+04  0.89151798414E+03 0.  0.
         23    2    4    4    0    0  0.72358807037E+02  0.15077158405E+03  0.10948618848E+02  0.19156662609E+03  0.92790260604E+02 0.  0.
         23    2    4    4    0    0 -0.41059217036E+03 -0.99764752748E+03  0.21131493137E+03  0.11029626603E+04  0.89365040305E+02 0.  0.
          3    1    3    3  502    0  0.25756108890E+02  0.31690290080E+02 -0.43061675068E+01  0.41063301245E+02  0.00000000000E+00 0. -1.
         -4    1    3    3    0  502  0.31247725444E+03  0.81518565335E+03  0.18059192850E+03  0.89150610128E+03  0.00000000000E+00 0.  1.
         11    1    5    5    0    0 -0.11614208648E+02  0.94550615551E+01 -0.19294351338E+02  0.24424578299E+02  0.00000000000E+00 0. -1.
        -11    1    5    5    0    0  0.83973015685E+02  0.14131652250E+03  0.30242970186E+02  0.16714204779E+03  0.00000000000E+00 0.  1.
          1    1    6    6  503    0 -0.30511161075E+02 -0.15507577674E+03  0.37368814065E+02  0.16240645229E+03  0.00000000000E+00 0. -1.
         -1    1    6    6    0  503 -0.38008100929E+03 -0.84257175074E+03  0.17394611731E+03  0.94055620805E+03  0.00000000000E+00 0.  1.
<mgrwt>
<rscale>  0 0.21911474E+04</rscale>
<asrwt>0</asrwt>
<pdfrwt beam="1">  1        1 0.14065764E+00 0.21911474E+04</pdfrwt>
<pdfrwt beam="2">  1       -2 0.20197292E+00 0.21911474E+04</pdfrwt>
<totfact> 0.18285742E+00</totfact>
</mgrwt>
</event>
<event>
12    4  0.4320235E-008  0.2145218E+04  0.7818608E-02  0.8541582E-01
          1   -1    0    0  501    0  0.00000000000E+00  0.00000000000E+00  0.17325159466E+04  0.17325159466E+04  0.00000000000E+00 0. -1.
         -2   -1    0    0    0  501 -0.00000000000E+00 -0.00000000000E+00 -0.66405770984E+03  0.66405770984E+03  0.00000000000E+00 0.  1.
        -24    2    1    2    0    0  0.28951249364E+03 -0.56659248276E+03 -0.24297916193E+03  0.68577172287E+03  0.79996607851E+02 0.  0.
        254    2    1    2    0    0 -0.28951249364E+03  0.56659248276E+03  0.13114373987E+04  0.17108019335E+04  0.89561748514E+03 0.  0.
         23    2    4    4    0    0 -0.57182727891E+01  0.43475789273E+03  0.99438791485E+02  0.45572692522E+03  0.93551232938E+02 0.  0.
         23    2    4    4    0    0 -0.28379422085E+03  0.13183459003E+03  0.12119986072E+04  0.12550750083E+04  0.91395480162E+02 0.  0.
          3    1    3    3  502    0  0.87167227814E+02 -0.24480500986E+03 -0.77294797886E+02  0.27111271501E+03  0.00000000000E+00 0. -1.
         -4    1    3    3    0  502  0.20234526583E+03 -0.32178747289E+03 -0.16568436404E+03  0.41465900786E+03  0.00000000000E+00 0.  1.
         11    1    5    5    0    0  0.11808462179E+02  0.28091514489E+02  0.30076433907E+02  0.42815474327E+02  0.00000000000E+00 0. -1.
        -11    1    5    5    0    0 -0.17526734968E+02  0.40666637824E+03  0.69362357578E+02  0.41291145089E+03  0.00000000000E+00 0.  1.
          1    1    6    6  503    0 -0.15393106313E+03  0.11696265421E+03  0.65432159619E+03  0.68228424129E+03  0.00000000000E+00 0. -1.
         -1    1    6    6    0  503 -0.12986315772E+03  0.14871935822E+02  0.55767701099E+03  0.57279076703E+03  0.00000000000E+00 0.  1.
<mgrwt>
<rscale>  0 0.21452185E+04</rscale>
<asrwt>0</asrwt>
<pdfrwt beam="1">  1        1 0.26654091E+00 0.21452185E+04</pdfrwt>
<pdfrwt beam="2">  1       -2 0.10216273E+00 0.21452185E+04</pdfrwt>
<totfact> 0.28595435E+00</totfact>
</mgrwt>
</event>
<event>
12    4  0.4320235E-008  0.1679873E+04  0.7818608E-02  0.8772928E-01
          1   -1    0    0  501    0  0.00000000000E+00  0.00000000000E+00  0.10893054016E+04  0.10893054016E+04  0.00000000000E+00 0. -1.
         -2   -1    0    0    0  501 -0.00000000000E+00 -0.00000000000E+00 -0.64765399393E+03  0.64765399393E+03  0.00000000000E+00 0.  1.
        -24    2    1    2    0    0 -0.52931062470E+03  0.27852034022E+03  0.16382224346E+03  0.62569366237E+03  0.83135517959E+02 0.  0.
        254    2    1    2    0    0  0.52931062470E+03 -0.27852034022E+03  0.27782916419E+03  0.11112657331E+04  0.89441554539E+03 0.  0.
         23    2    4    4    0    0  0.97650919077E+02  0.20940359793E+03  0.37109343590E+03  0.44651473436E+03  0.90991763398E+02 0.  0.
         23    2    4    4    0    0  0.43165970562E+03 -0.48792393815E+03 -0.93264271709E+02  0.66475099878E+03  0.93785900439E+02 0.  0.
          1    1    3    3  502    0 -0.91087108185E+02  0.14529654036E+02  0.27327689842E+02  0.96201739880E+02  0.00000000000E+00 0. -1.
         -2    1    3    3    0  502 -0.43822351651E+03  0.26399068619E+03  0.13649455361E+03  0.52949192249E+03  0.00000000000E+00 0.  1.
         11    1    5    5    0    0 -0.14673690521E+02  0.49297216440E+02  0.59752981229E+02  0.78841305849E+02  0.00000000000E+00 0. -1.
        -11    1    5    5    0    0  0.11232460960E+03  0.16010638149E+03  0.31134045467E+03  0.36767342851E+03  0.00000000000E+00 0.  1.
          4    1    6    6  503    0  0.13378031253E+02 -0.21281655758E+02  0.14295633643E+02  0.28917913708E+02  0.00000000000E+00 0. -1.
         -4    1    6    6    0  503  0.41828167437E+03 -0.46664228239E+03 -0.10755990535E+03  0.63583308507E+03  0.00000000000E+00 0.  1.
<mgrwt>
<rscale>  0 0.16798726E+04</rscale>
<asrwt>0</asrwt>
<pdfrwt beam="1">  1        1 0.16758545E+00 0.16798726E+04</pdfrwt>
<pdfrwt beam="2">  1       -2 0.99639076E-01 0.16798726E+04</pdfrwt>
<totfact> 0.89948640E+00</totfact>
</mgrwt>
</event>
<event>
12    4  0.4320235E-008  0.1743380E+04  0.7818608E-02  0.8737003E-01
         -2   -1    0    0    0  501 -0.00000000000E+00  0.00000000000E+00  0.80847375603E+03  0.80847375603E+03  0.00000000000E+00 0.  1.
          1   -1    0    0  501    0  0.00000000000E+00 -0.00000000000E+00 -0.93984924275E+03  0.93984924275E+03  0.00000000000E+00 0. -1.
        -24    2    1    2    0    0 -0.49575760021E+03  0.29830576349E+03 -0.32825980680E+03  0.67146402942E+03  0.91364738024E+02 0.  0.
        254    2    1    2    0    0  0.49575760021E+03 -0.29830576349E+03  0.19688432008E+03  0.10768589694E+04  0.88662273697E+03 0.  0.
         23    2    4    4    0    0  0.15584898200E+03  0.26677335909E+03  0.25000423519E+03  0.40837634378E+03  0.93873266880E+02 0.  0.
         23    2    4    4    0    0  0.33990861820E+03 -0.56507912257E+03 -0.53119915104E+02  0.66848262558E+03  0.95890624311E+02 0.  0.
          3    1    3    3  502    0 -0.39386452402E+03  0.24735072088E+03 -0.22075501564E+03  0.51482464911E+03  0.00000000000E+00 0. -1.
         -4    1    3    3    0  502 -0.10189307619E+03  0.50955042605E+02 -0.10750479116E+03  0.15663938031E+03  0.00000000000E+00 0.  1.
         11    1    5    5    0    0  0.88231779808E+02  0.19740494917E+03  0.12339106188E+03  0.24895564882E+03  0.00000000000E+00 0.  1.
        -11    1    5    5    0    0  0.67617202196E+02  0.69368409914E+02  0.12661317330E+03  0.15942069496E+03  0.00000000000E+00 0. -1.
          2    1    6    6  503    0  0.13518296115E+03 -0.20883935568E+03 -0.66085949501E+02  0.25740175250E+03  0.00000000000E+00 0. -1.
         -2    1    6    6    0  503  0.20472565705E+03 -0.35623976689E+03  0.12966034397E+02  0.41108087309E+03  0.00000000000E+00 0.  1.
<mgrwt>
<rscale>  0 0.17433800E+04</rscale>
<asrwt>0</asrwt>
<pdfrwt beam="1">  1        1 0.14459219E+00 0.17433800E+04</pdfrwt>
<pdfrwt beam="2">  1       -2 0.12438058E+00 0.17433800E+04</pdfrwt>
<totfact> 0.68132320E+00</totfact>
</mgrwt>
</event>
<event>
12    4  0.4320235E-008  0.2936932E+04  0.7818608E-02  0.8261973E-01
          1   -1    0    0  501    0  0.00000000000E+00  0.00000000000E+00  0.22945740201E+04  0.22945740201E+04  0.00000000000E+00 0. -1.
         -4   -1    0    0    0  501 -0.00000000000E+00 -0.00000000000E+00 -0.93977867731E+03  0.93977867731E+03  0.00000000000E+00 0.  1.
        -24    2    1    2    0    0  0.12703802048E+03 -0.78913203561E+03  0.17835178771E+04  0.19560072314E+04  0.78487218015E+02 0.  0.
        254    2    1    2    0    0 -0.12703802048E+03  0.78913203561E+03 -0.42872253425E+03  0.12783454660E+04  0.90083077810E+03 0.  0.
         23    2    4    4    0    0  0.81454379131E+02  0.73134663208E+03 -0.62711825659E+03  0.97102044734E+03  0.90003829158E+02 0.  0.
         23    2    4    4    0    0 -0.20849239961E+03  0.57785403537E+02  0.19839572235E+03  0.30732501865E+03  0.90992147400E+02 0.  0.
          1    1    3    3  502    0  0.93481543872E+02 -0.69757889699E+03  0.15203786226E+04  0.16753824258E+04  0.00000000000E+00 0. -1.
         -2    1    3    3    0  502  0.33556476604E+02 -0.91553138625E+02  0.26313925444E+03  0.28062480565E+03  0.00000000000E+00 0.  1.
         11    1    5    5    0    0  0.85408855176E+02  0.61454596987E+03 -0.48828329352E+03  0.78954543653E+03  0.00000000000E+00 0. -1.
        -11    1    5    5    0    0 -0.39544760452E+01  0.11680066221E+03 -0.13883496308E+03  0.18147501080E+03  0.00000000000E+00 0.  1.
          1    1    6    6  503    0 -0.96334083045E+02  0.94606524746E+01  0.34136943662E+02  0.10264058858E+03  0.00000000000E+00 0. -1.
         -1    1    6    6    0  503 -0.11215831656E+03  0.48324751062E+02  0.16425877869E+03  0.20468443007E+03  0.00000000000E+00 0.  1.
<mgrwt>
<rscale>  0 0.29369316E+04</rscale>
<asrwt>0</asrwt>
<pdfrwt beam="1">  1        1 0.35301138E+00 0.29369316E+04</pdfrwt>
<pdfrwt beam="2">  1       -4 0.14458134E+00 0.29369316E+04</pdfrwt>
<totfact> 0.25891762E-01</totfact>
</mgrwt>
</event>
<event>
12    4  0.4320235E-008  0.1909603E+04  0.7818608E-02  0.8650091E-01
          1   -1    0    0  501    0  0.00000000000E+00  0.00000000000E+00  0.34369284909E+04  0.34369284909E+04  0.00000000000E+00 0. -1.
         -2   -1    0    0    0  501 -0.00000000000E+00 -0.00000000000E+00 -0.26525014025E+03  0.26525014025E+03  0.00000000000E+00 0.  1.
        -24    2    1    2    0    0 -0.86532806762E+02  0.72555641153E+03  0.10404961808E+04  0.12738460423E+04  0.78303282950E+02 0.  0.
        254    2    1    2    0    0  0.86532806762E+02 -0.72555641153E+03  0.21311821698E+04  0.24283325889E+04  0.90605832503E+03 0.  0.
         23    2    4    4    0    0 -0.56992907270E+02  0.53932921578E+02 -0.30253469283E+02  0.12427989196E+03  0.91505560663E+02 0.  0.
         23    2    4    4    0    0  0.14352571403E+03 -0.77948933310E+03  0.21614356391E+04  0.23040526969E+04  0.93013747614E+02 0.  0.
          3    1    3    3  502    0 -0.34365914591E+02  0.31961136762E+03  0.52549004627E+03  0.61601317447E+03  0.00000000000E+00 0. -1.
         -4    1    3    3    0  502 -0.52166892171E+02  0.40594504391E+03  0.51500613454E+03  0.65783286778E+03  0.00000000000E+00 0.  1.
         11    1    5    5    0    0 -0.79151267070E+02  0.25048077997E+02 -0.13141587934E+02  0.84053736523E+02  0.00000000000E+00 0.  1.
        -11    1    5    5    0    0  0.22158359800E+02  0.28884843581E+02 -0.17111881348E+02  0.40226155434E+02  0.00000000000E+00 0. -1.
          2    1    6    6  503    0  0.12012054093E+03 -0.63572621675E+03  0.18591297414E+04  0.19684867697E+04  0.00000000000E+00 0.  1.
         -2    1    6    6    0  503  0.23405173104E+02 -0.14376311636E+03  0.30230589771E+03  0.33556592727E+03  0.00000000000E+00 0. -1.
<mgrwt>
<rscale>  0 0.19096029E+04</rscale>
<asrwt>0</asrwt>
<pdfrwt beam="1">  1        1 0.52875820E+00 0.19096029E+04</pdfrwt>
<pdfrwt beam="2">  1       -2 0.40807716E-01 0.19096029E+04</pdfrwt>
<totfact> 0.13142624E+00</totfact>
</mgrwt>
</event>
<event>
12    4  0.4320235E-008  0.1210419E+04  0.7818608E-02  0.9103785E-01
         -4   -1    0    0    0  501 -0.00000000000E+00  0.00000000000E+00  0.35673790839E+03  0.35673790839E+03  0.00000000000E+00 0.  1.
          1   -1    0    0  501    0  0.00000000000E+00 -0.00000000000E+00 -0.10267443724E+04  0.10267443724E+04  0.00000000000E+00 0. -1.
        -24    2    1    2    0    0  0.25103989516E+03 -0.43677229820E+02 -0.19272077797E+03  0.32976168983E+03  0.81686868271E+02 0.  0.
        254    2    1    2    0    0 -0.25103989516E+03  0.43677229820E+02 -0.47728568603E+03  0.10537205910E+04  0.90421055531E+03 0.  0.
         23    2    4    4    0    0  0.38580772596E+02  0.38877444030E+03 -0.43768814140E+03  0.59374984452E+03  0.91290346178E+02 0.  0.
         23    2    4    4    0    0 -0.28962066776E+03 -0.34509721048E+03 -0.39597544630E+02  0.45997074643E+03  0.83862424001E+02 0.  0.
          1    1    3    3  502    0  0.17000067931E+03 -0.10259503868E+02 -0.16671564061E+03  0.23832665233E+03  0.00000000000E+00 0. -1.
         -2    1    3    3    0  502  0.81039215851E+02 -0.33417725952E+02 -0.26005137366E+02  0.91435037501E+02  0.00000000000E+00 0.  1.
         11    1    5    5    0    0  0.33995265640E+02  0.96714526911E+02 -0.69883715217E+02  0.12406897861E+03  0.00000000000E+00 0.  1.
        -11    1    5    5    0    0  0.45855069561E+01  0.29205991339E+03 -0.36780442619E+03  0.46968086591E+03  0.00000000000E+00 0. -1.
          1    1    6    6  503    0 -0.21969015682E+03 -0.23601086789E+03  0.63228898285E+01  0.32249786619E+03  0.00000000000E+00 0. -1.
         -1    1    6    6    0  503 -0.69930510943E+02 -0.10908634259E+03 -0.45920434458E+02  0.13747288024E+03  0.00000000000E+00 0.  1.
<mgrwt>
<rscale>  0 0.12104192E+04</rscale>
<asrwt>0</asrwt>
<pdfrwt beam="1">  1        1 0.15796067E+00 0.12104192E+04</pdfrwt>
<pdfrwt beam="2">  1       -4 0.54882755E-01 0.12104192E+04</pdfrwt>
<totfact> 0.22070707E+01</totfact>
</mgrwt>
</event>
<event>
12    4  0.4320235E-008  0.1971166E+04  0.7818608E-02  0.8620222E-01
          1   -1    0    0  501    0  0.00000000000E+00  0.00000000000E+00  0.75265914364E+03  0.75265914364E+03  0.00000000000E+00 0. -1.
         -2   -1    0    0    0  501 -0.00000000000E+00 -0.00000000000E+00 -0.12905886834E+04  0.12905886834E+04  0.00000000000E+00 0.  1.
        -24    2    1    2    0    0  0.41768833190E+03  0.31725100321E+02 -0.94413022319E+03  0.10360803121E+04  0.81305043824E+02 0.  0.
        254    2    1    2    0    0 -0.41768833190E+03 -0.31725100321E+02  0.40620068348E+03  0.10071675149E+04  0.82092471229E+03 0.  0.
         23    2    4    4    0    0  0.18825900960E+03  0.70912764675E+02  0.30643320838E+03  0.37784581334E+03  0.91630085490E+02 0.  0.
         23    2    4    4    0    0 -0.60594734150E+03 -0.10263786500E+03  0.99767475100E+02  0.62932170158E+03  0.91572610442E+02 0.  0.
          3    1    3    3  502    0  0.66902201784E+02  0.45879620402E+01 -0.23629027438E+03  0.24562175752E+03  0.00000000000E+00 0. -1.
         -4    1    3    3    0  502  0.35078613012E+03  0.27137138280E+02 -0.70783994881E+03  0.79045855457E+03  0.00000000000E+00 0.  1.
         11    1    5    5    0    0  0.11992158743E+03  0.82769256915E+01  0.12114746175E+03  0.17066458953E+03  0.00000000000E+00 0. -1.
        -11    1    5    5    0    0  0.68337422174E+02  0.62635838984E+02  0.18528574663E+03  0.20718122381E+03  0.00000000000E+00 0.  1.
          1    1    6    6  503    0 -0.32240524475E+03 -0.51383629300E+02  0.99100116788E+02  0.34118360505E+03  0.00000000000E+00 0. -1.
         -1    1    6    6    0  503 -0.28354209675E+03 -0.51254235696E+02  0.66735831189E+00  0.28813809653E+03  0.00000000000E+00 0.  1.
<mgrwt>
<rscale>  0 0.19711655E+04</rscale>
<asrwt>0</asrwt>
<pdfrwt beam="1">  1        1 0.11579372E+00 0.19711655E+04</pdfrwt>
<pdfrwt beam="2">  1       -2 0.19855210E+00 0.19711655E+04</pdfrwt>
<totfact> 0.26962258E+00</totfact>
</mgrwt>
</event>
<event>
12    4  0.4320235E-008  0.2279746E+04  0.7818608E-02  0.8485950E-01
         -2   -1    0    0    0  501 -0.00000000000E+00  0.00000000000E+00  0.73386728950E+03  0.73386728950E+03  0.00000000000E+00 0.  1.
          1   -1    0    0  501    0  0.00000000000E+00 -0.00000000000E+00 -0.17704978370E+04  0.17704978370E+04  0.00000000000E+00 0. -1.
        -24    2    1    2    0    0  0.45586978858E+03  0.21911420661E+03 -0.12274746309E+04  0.13299572094E+04  0.79144865036E+02 0.  0.
        254    2    1    2    0    0 -0.45586978858E+03 -0.21911420661E+03  0.19084408346E+03  0.11744079170E+04  0.10425853403E+04 0.  0.
         23    2    4    4    0    0  0.27154505409E+03  0.83414409252E+02 -0.12092786570E+03  0.32176553567E+03  0.90635705821E+02 0.  0.
         23    2    4    4    0    0 -0.72741484267E+03 -0.30252861587E+03  0.31177194917E+03  0.85264238137E+03  0.95610488270E+02 0.  0.
          3    1    3    3  502    0  0.30445370301E+03  0.16609847077E+03 -0.91890355754E+03  0.98217335910E+03  0.00000000000E+00 0. -1.
         -4    1    3    3    0  502  0.15141608558E+03  0.53015735839E+02 -0.30857107338E+03  0.34778385032E+03  0.00000000000E+00 0.  1.
         11    1    5    5    0    0  0.17883057954E+02  0.21117799807E+02 -0.39382727114E+02  0.48132779116E+02  0.00000000000E+00 0. -1.
        -11    1    5    5    0    0  0.25366199613E+03  0.62296609445E+02 -0.81545138590E+02  0.27363275655E+03  0.00000000000E+00 0.  1.
          2    1    6    6  503    0 -0.90969361526E+02 -0.64328453423E+02  0.20482084441E+02  0.11328323106E+03  0.00000000000E+00 0. -1.
         -2    1    6    6    0  503 -0.63644548114E+03 -0.23820016244E+03  0.29128986473E+03  0.73935915031E+03  0.00000000000E+00 0.  1.
<mgrwt>
<rscale>  0 0.22797460E+04</rscale>
<asrwt>0</asrwt>
<pdfrwt beam="1">  1        1 0.27238428E+00 0.22797460E+04</pdfrwt>
<pdfrwt beam="2">  1       -2 0.11290266E+00 0.22797460E+04</pdfrwt>
<totfact> 0.20926908E+00</totfact>
</mgrwt>
</event>
<event>
12    4  0.4320235E-008  0.1761474E+04  0.7818608E-02  0.8727060E-01
          1   -1    0    0  501    0  0.00000000000E+00  0.00000000000E+00  0.20048747868E+04  0.20048747868E+04  0.00000000000E+00 0. -1.
         -2   -1    0    0    0  501 -0.00000000000E+00 -0.00000000000E+00 -0.38690598380E+03  0.38690598380E+03  0.00000000000E+00 0.  1.
        -24    2    1    2    0    0  0.67560002065E+02  0.11741412189E+03  0.12616655503E+04  0.12713464406E+04  0.78558139291E+02 0.  0.
        254    2    1    2    0    0 -0.67560002065E+02 -0.11741412189E+03  0.35630325273E+03  0.11204343301E+04  0.10535989038E+04 0.  0.
         23    2    4    4    0    0 -0.11536324135E+03  0.24730668313E+03 -0.26618412439E+03  0.39181706667E+03  0.90539232838E+02 0.  0.
         23    2    4    4    0    0  0.47803239287E+02 -0.36472080502E+03  0.62248737712E+03  0.72861726339E+03  0.89923114527E+02 0.  0.
          1    1    3    3  502    0  0.74395546723E+02  0.11604969322E+03  0.12512086593E+04  0.12587793046E+04  0.00000000000E+00 0. -1.
         -2    1    3    3    0  502 -0.68355446582E+01  0.13644286786E+01  0.10456891007E+02  0.12567135948E+02  0.00000000000E+00 0.  1.
         11    1    5    5    0    0 -0.57355179448E+02  0.20774642493E+03 -0.21874904522E+03  0.30708197352E+03  0.00000000000E+00 0. -1.
        -11    1    5    5    0    0 -0.58008061905E+02  0.39560258203E+02 -0.47435079175E+02  0.84735093151E+02  0.00000000000E+00 0.  1.
          3    1    6    6  503    0  0.68102474206E+00 -0.17167607911E+03  0.36509083991E+03  0.40344077796E+03  0.00000000000E+00 0. -1.
         -3    1    6    6    0  503  0.47122214545E+02 -0.19304472592E+03  0.25739653721E+03  0.32517648543E+03  0.00000000000E+00 0.  1.
<mgrwt>
<rscale>  0 0.17614744E+04</rscale>
<asrwt>0</asrwt>
<pdfrwt beam="1">  1        1 0.30844227E+00 0.17614744E+04</pdfrwt>
<pdfrwt beam="2">  1       -2 0.59523999E-01 0.17614744E+04</pdfrwt>
<totfact> 0.64761841E+00</totfact>
</mgrwt>
</event>
<event>
12    4  0.4320235E-008  0.1974048E+04  0.7818608E-02  0.8618851E-01
          1   -1    0    0  501    0  0.00000000000E+00  0.00000000000E+00  0.21071860202E+04  0.21071860202E+04  0.00000000000E+00 0. -1.
         -2   -1    0    0    0  501 -0.00000000000E+00 -0.00000000000E+00 -0.46233052548E+03  0.46233052548E+03  0.00000000000E+00 0.  1.
        -24    2    1    2    0    0  0.41468782431E+03 -0.65447233959E+03  0.73814383800E+03  0.10731997671E+04  0.81248873905E+02 0.  0.
        254    2    1    2    0    0 -0.41468782431E+03  0.65447233959E+03  0.90671165669E+03  0.14963167786E+04  0.90362483290E+03 0.  0.
         23    2    4    4    0    0 -0.59618249422E+03  0.19011448781E+03  0.71580635352E+03  0.95470209756E+03  0.86604124979E+02 0.  0.
         23    2    4    4    0    0  0.18149466991E+03  0.46435785178E+03  0.19090530317E+03  0.54161468105E+03  0.91285805168E+02 0.  0.
          1    1    3    3  502    0  0.30092780950E+03 -0.47848011103E+03  0.48694120905E+03  0.74606467833E+03  0.00000000000E+00 0. -1.
         -2    1    3    3    0  502  0.11376001480E+03 -0.17599222856E+03  0.25120262896E+03  0.32713508873E+03  0.00000000000E+00 0.  1.
         11    1    5    5    0    0 -0.29191146400E+03  0.12466733932E+03  0.31433362918E+03  0.44672125397E+03  0.00000000000E+00 0. -1.
        -11    1    5    5    0    0 -0.30427103021E+03  0.65447148483E+02  0.40147272434E+03  0.50798084359E+03  0.00000000000E+00 0.  1.
          3    1    6    6  503    0  0.13073313461E+03  0.21757978723E+03  0.78179034171E+02  0.26560135105E+03  0.00000000000E+00 0. -1.
         -3    1    6    6    0  503  0.50761535297E+02  0.24677806456E+03  0.11272626900E+03  0.27601333000E+03  0.00000000000E+00 0.  1.
<mgrwt>
<rscale>  0 0.19740480E+04</rscale>
<asrwt>0</asrwt>
<pdfrwt beam="1">  1        1 0.32418246E+00 0.19740480E+04</pdfrwt>
<pdfrwt beam="2">  1       -2 0.71127774E-01 0.19740480E+04</pdfrwt>
<totfact> 0.36935912E+00</totfact>
</mgrwt>
</event>
<event>
12    4  0.4320235E-008  0.2219305E+04  0.7818608E-02  0.8510436E-01
         -2   -1    0    0    0  501 -0.00000000000E+00  0.00000000000E+00  0.10760401960E+04  0.10760401960E+04  0.00000000000E+00 0.  1.
          1   -1    0    0  501    0  0.00000000000E+00 -0.00000000000E+00 -0.11443146253E+04  0.11443146253E+04  0.00000000000E+00 0. -1.
        -24    2    1    2    0    0 -0.31771899429E+03  0.83596968943E+03 -0.26446929593E+03  0.93609324869E+03  0.80844794401E+02 0.  0.
        254    2    1    2    0    0  0.31771899429E+03 -0.83596968943E+03  0.19619486661E+03  0.12842615726E+04  0.90058019084E+03 0.  0.
         23    2    4    4    0    0  0.25068972286E+03 -0.10190763837E+04  0.18369034021E+03  0.10692523829E+04  0.90534546868E+02 0.  0.
         23    2    4    4    0    0  0.67029271429E+02  0.18310669431E+03  0.12504526405E+02  0.21500918970E+03  0.89730729103E+02 0.  0.
          1    1    3    3  502    0 -0.30914301663E+03  0.76285530711E+03 -0.25592564816E+03  0.86198350431E+03  0.00000000000E+00 0. -1.
         -2    1    3    3    0  502 -0.85759776516E+01  0.73114382324E+02 -0.85436477651E+01  0.74109744382E+02  0.00000000000E+00 0.  1.
         11    1    5    5    0    0  0.17096819081E+02 -0.92427911083E+02  0.42812910062E+02  0.10328681057E+03  0.00000000000E+00 0. -1.
        -11    1    5    5    0    0  0.23359290378E+03 -0.92664847265E+03  0.14087743015E+03  0.96596557231E+03  0.00000000000E+00 0.  1.
          3    1    6    6  503    0 -0.61968120940E+01  0.21127802235E+01  0.18548475301E+02  0.19670034479E+02  0.00000000000E+00 0. -1.
         -3    1    6    6    0  503  0.73226083523E+02  0.18099391408E+03 -0.60439488963E+01  0.19533915522E+03  0.00000000000E+00 0.  1.
<mgrwt>
<rscale>  0 0.22193049E+04</rscale>
<asrwt>0</asrwt>
<pdfrwt beam="1">  1        1 0.17604840E+00 0.22193049E+04</pdfrwt>
<pdfrwt beam="2">  1       -2 0.16554465E+00 0.22193049E+04</pdfrwt>
<totfact> 0.21514281E+00</totfact>
</mgrwt>
</event>
<event>
12    4  0.4320235E-008  0.2724877E+04  0.7818608E-02  0.8326978E-01
         -2   -1    0    0    0  501 -0.00000000000E+00  0.00000000000E+00  0.13729395250E+04  0.13729395250E+04  0.00000000000E+00 0.  1.
          1   -1    0    0  501    0  0.00000000000E+00 -0.00000000000E+00 -0.13520177378E+04  0.13520177378E+04  0.00000000000E+00 0. -1.
        -24    2    1    2    0    0  0.92335452489E+03  0.40998213953E+03 -0.67027332554E+03  0.12149003541E+04  0.77766355971E+02 0.  0.
        254    2    1    2    0    0 -0.92335452489E+03 -0.40998213953E+03  0.69119511273E+03  0.15100569087E+04  0.88422409497E+03 0.  0.
         23    2    4    4    0    0 -0.40887719120E+03 -0.25488981863E+03 -0.14446052798E+03  0.51242511539E+03  0.97781785691E+02 0.  0.
         23    2    4    4    0    0 -0.51447733368E+03 -0.15509232090E+03  0.83565564072E+03  0.99763179326E+03  0.90599614678E+02 0.  0.
          3    1    3    3  502    0  0.41631482604E+03  0.18422778971E+03 -0.25584614678E+03  0.52222137423E+03  0.00000000000E+00 0. -1.
         -4    1    3    3    0  502  0.50703969885E+03  0.22575434982E+03 -0.41442717876E+03  0.69267897988E+03  0.00000000000E+00 0.  1.
         11    1    5    5    0    0 -0.30491076770E+02 -0.37626163871E+01 -0.32433120424E+02  0.44674045542E+02  0.00000000000E+00 0. -1.
        -11    1    5    5    0    0 -0.37838611443E+03 -0.25112720224E+03 -0.11202740756E+03  0.46775106985E+03  0.00000000000E+00 0.  1.
          2    1    6    6  503    0 -0.24677183677E+03 -0.12151707906E+03  0.41454036247E+03  0.49750020306E+03  0.00000000000E+00 0. -1.
         -2    1    6    6    0  503 -0.26770549691E+03 -0.33575241839E+02  0.42111527825E+03  0.50013159020E+03  0.00000000000E+00 0.  1.
<mgrwt>
<rscale>  0 0.27248769E+04</rscale>
<asrwt>0</asrwt>
<pdfrwt beam="1">  1        1 0.20800273E+00 0.27248769E+04</pdfrwt>
<pdfrwt beam="2">  1       -2 0.21122146E+00 0.27248769E+04</pdfrwt>
<totfact> 0.71447152E-01</totfact>
</mgrwt>
</event>
<event>
12    4  0.4320235E-008  0.1838041E+04  0.7818608E-02  0.8686327E-01
          1   -1    0    0  501    0  0.00000000000E+00  0.00000000000E+00  0.27774655008E+04  0.27774655008E+04  0.00000000000E+00 0. -1.
         -2   -1    0    0    0  501 -0.00000000000E+00 -0.00000000000E+00 -0.30408956681E+03  0.30408956681E+03  0.00000000000E+00 0.  1.
        -24    2    1    2    0    0  0.71344334837E+02 -0.28584705818E+03  0.20046482437E+04  0.20277335101E+04  0.79309848967E+02 0.  0.
        254    2    1    2    0    0 -0.71344334837E+02  0.28584705818E+03  0.46872769027E+03  0.10538215575E+04  0.89668036259E+03 0.  0.
         23    2    4    4    0    0 -0.41738352803E+03 -0.71322264974E+01  0.40233387829E+03  0.58652553743E+03  0.88768115398E+02 0.  0.
         23    2    4    4    0    0  0.34603919319E+03  0.29297928468E+03  0.66393811977E+02  0.46729602007E+03  0.91528397958E+02 0.  0.
          1    1    3    3  502    0  0.53697385994E+02 -0.17671868946E+03  0.99003104272E+03  0.10071118955E+04  0.00000000000E+00 0. -1.
         -2    1    3    3    0  502  0.17646948843E+02 -0.10912836872E+03  0.10146172010E+04  0.10206216146E+04  0.00000000000E+00 0.  1.
         11    1    5    5    0    0 -0.36505888815E+03  0.17647356897E+02  0.37059963899E+03  0.52050313490E+03  0.00000000000E+00 0. -1.
        -11    1    5    5    0    0 -0.52324639875E+02 -0.24779583395E+02  0.31734239304E+02  0.66022402528E+02  0.00000000000E+00 0.  1.
          1    1    6    6  503    0  0.30448576908E+03  0.26829066923E+03  0.86513968801E+02  0.41494112060E+03  0.00000000000E+00 0. -1.
         -1    1    6    6    0  503  0.41553424116E+02  0.24688615449E+02 -0.20120156824E+02  0.52354899476E+02  0.00000000000E+00 0.  1.
<mgrwt>
<rscale>  0 0.18380406E+04</rscale>
<asrwt>0</asrwt>
<pdfrwt beam="1">  1        1 0.42730237E+00 0.18380406E+04</pdfrwt>
<pdfrwt beam="2">  1       -2 0.46783012E-01 0.18380406E+04</pdfrwt>
<totfact> 0.31002169E+00</totfact>
</mgrwt>
</event>
<event>
12    4  0.4320235E-008  0.1958478E+04  0.7818608E-02  0.8626283E-01
          1   -1    0    0  501    0  0.00000000000E+00  0.00000000000E+00  0.49521793659E+03  0.49521793659E+03  0.00000000000E+00 0. -1.
         -2   -1    0    0    0  501 -0.00000000000E+00 -0.00000000000E+00 -0.19363383613E+04  0.19363383613E+04  0.00000000000E+00 0.  1.
        -24    2    1    2    0    0 -0.59888706130E+03  0.19390214770E+03 -0.20675539004E+02  0.63473892262E+03  0.78754472273E+02 0.  0.
        254    2    1    2    0    0  0.59888706130E+03 -0.19390214770E+03 -0.14204448857E+04  0.17968173753E+04  0.90256592651E+03 0.  0.
         23    2    4    4    0    0  0.34424132402E+03 -0.17445971441E+03 -0.50191252109E+02  0.40010924600E+03  0.92897609411E+02 0.  0.
         23    2    4    4    0    0  0.25464573729E+03 -0.19442433289E+02 -0.13702536336E+04  0.13967081293E+04  0.89309116344E+02 0.  0.
          3    1    3    3  502    0 -0.58397806665E+03  0.20123213773E+03 -0.18225046377E+02  0.61794571598E+03  0.00000000000E+00 0. -1.
         -4    1    3    3    0  502 -0.14908994649E+02 -0.73299900244E+01 -0.24504926275E+01  0.16793206642E+02  0.00000000000E+00 0.  1.
         11    1    5    5    0    0  0.28925342362E+03 -0.18035071030E+03 -0.34442359781E+02  0.34260793617E+03  0.00000000000E+00 0. -1.
        -11    1    5    5    0    0  0.54987900395E+02  0.58909958862E+01 -0.15748892328E+02  0.57501309828E+02  0.00000000000E+00 0.  1.
          3    1    6    6  503    0  0.20155236683E+03  0.75740943318E+01 -0.11870247601E+04  0.12040384149E+04  0.00000000000E+00 0. -1.
         -3    1    6    6    0  503  0.53093370456E+02 -0.27016527621E+02 -0.18322887349E+03  0.19266971436E+03  0.00000000000E+00 0.  1.
<mgrwt>
<rscale>  0 0.19584785E+04</rscale>
<asrwt>0</asrwt>
<pdfrwt beam="1">  1        1 0.76187376E-01 0.19584785E+04</pdfrwt>
<pdfrwt beam="2">  1       -2 0.29789820E+00 0.19584785E+04</pdfrwt>
<totfact> 0.11995285E+00</totfact>
</mgrwt>
</event>
<event>
12    4  0.4320235E-008  0.1312788E+04  0.7818608E-02  0.9019485E-01
          3   -1    0    0  501    0  0.00000000000E+00  0.00000000000E+00  0.81486397762E+03  0.81486397762E+03  0.00000000000E+00 0. -1.
         -2   -1    0    0    0  501 -0.00000000000E+00 -0.00000000000E+00 -0.52874263041E+03  0.52874263041E+03  0.00000000000E+00 0.  1.
        -24    2    1    2    0    0  0.22336830956E+03 -0.16865307292E+03 -0.14017350992E+03  0.32320968340E+03  0.80489911441E+02 0.  0.
        254    2    1    2    0    0 -0.22336830956E+03  0.16865307292E+03  0.42629485712E+03  0.10203969246E+04  0.88382425734E+03 0.  0.
         23    2    4    4    0    0  0.27861102924E+03  0.16250363978E+03  0.38214495268E+03  0.50820234121E+03  0.90572160133E+02 0.  0.
         23    2    4    4    0    0 -0.50197933880E+03  0.61494331422E+01  0.44149904438E+02  0.51219458342E+03  0.91504126218E+02 0.  0.
          3    1    3    3  502    0  0.33795489732E+02  0.46500463024E+00 -0.33781165460E+02  0.47786174731E+02  0.00000000000E+00 0. -1.
         -4    1    3    3    0  502  0.18957281982E+03 -0.16911807755E+03 -0.10639234446E+03  0.27542350867E+03  0.00000000000E+00 0.  1.
         11    1    5    5    0    0  0.19291758230E+03  0.72121038022E+02  0.27717869100E+03  0.34532110336E+03  0.00000000000E+00 0. -1.
        -11    1    5    5    0    0  0.85693446946E+02  0.90382601756E+02  0.10496626168E+03  0.16288123784E+03  0.00000000000E+00 0.  1.
          3    1    6    6  503    0 -0.49068802603E+03 -0.85787648742E+01  0.48436825695E+02  0.49314750347E+03  0.00000000000E+00 0. -1.
         -3    1    6    6    0  503 -0.11291312775E+02  0.14728198016E+02 -0.42869212572E+01  0.19047079956E+02  0.00000000000E+00 0.  1.
<mgrwt>
<rscale>  0 0.13127884E+04</rscale>
<asrwt>0</asrwt>
<pdfrwt beam="1">  1        3 0.12536369E+00 0.13127884E+04</pdfrwt>
<pdfrwt beam="2">  1       -2 0.81345020E-01 0.13127884E+04</pdfrwt>
<totfact> 0.27446186E+00</totfact>
</mgrwt>
</event>
<event>
12    4  0.4320235E-008  0.1594983E+04  0.7818608E-02  0.8823636E-01
         -2   -1    0    0    0  501 -0.00000000000E+00  0.00000000000E+00  0.60785440492E+03  0.60785440492E+03  0.00000000000E+00 0.  1.
          1   -1    0    0  501    0  0.00000000000E+00 -0.00000000000E+00 -0.10462917436E+04  0.10462917436E+04  0.00000000000E+00 0. -1.
        -24    2    1    2    0    0  0.30743552546E+02  0.30033565158E+03  0.31533724412E+03  0.44436757898E+03  0.82935505578E+02 0.  0.
        254    2    1    2    0    0 -0.30743552546E+02 -0.30033565158E+03 -0.75377458283E+03  0.12097785696E+04  0.89679506914E+03 0.  0.
         23    2    4    4    0    0  0.15447279392E+03 -0.49115624422E+03 -0.76761860177E+03  0.92892484154E+03  0.92556702352E+02 0.  0.
         23    2    4    4    0    0 -0.18521634647E+03  0.19082059263E+03  0.13844018937E+02  0.28085372803E+03  0.89272426424E+02 0.  0.
          1    1    3    3  502    0 -0.10070887699E+02  0.73569533979E+01  0.33681672378E+02  0.35916606139E+02  0.00000000000E+00 0. -1.
         -2    1    3    3    0  502  0.40814440244E+02  0.29297869819E+03  0.28165557174E+03  0.40845097284E+03  0.00000000000E+00 0.  1.
         11    1    5    5    0    0  0.37928528073E+02 -0.99067524519E+02 -0.98944912597E+02  0.14506220523E+03  0.00000000000E+00 0.  1.
        -11    1    5    5    0    0  0.11654426585E+03 -0.39208871970E+03 -0.66867368917E+03  0.78386263631E+03  0.00000000000E+00 0. -1.
          1    1    6    6  503    0 -0.15781195765E+03  0.13621469944E+03  0.43471099289E+02  0.21295256465E+03  0.00000000000E+00 0. -1.
         -1    1    6    6    0  503 -0.27404388820E+02  0.54605893197E+02 -0.29627080353E+02  0.67901163382E+02  0.00000000000E+00 0.  1.
<mgrwt>
<rscale>  0 0.15949834E+04</rscale>
<asrwt>0</asrwt>
<pdfrwt beam="1">  1        1 0.16096796E+00 0.15949834E+04</pdfrwt>
<pdfrwt beam="2">  1       -2 0.93516063E-01 0.15949834E+04</pdfrwt>
<totfact> 0.11336429E+01</totfact>
</mgrwt>
</event>
<event>
12    4  0.4320235E-008  0.2435183E+04  0.7818608E-02  0.8426448E-01
          1   -1    0    0  501    0  0.00000000000E+00  0.00000000000E+00  0.32697965958E+04  0.32697965958E+04  0.00000000000E+00 0. -1.
         -2   -1    0    0    0  501 -0.00000000000E+00 -0.00000000000E+00 -0.45340117211E+03  0.45340117211E+03  0.00000000000E+00 0.  1.
        -24    2    1    2    0    0  0.14987641394E+03  0.46859029415E+03  0.26423281301E+04  0.26889307861E+04  0.80068855974E+02 0.  0.
        254    2    1    2    0    0 -0.14987641394E+03 -0.46859029415E+03  0.17406729359E+03  0.10342669819E+04  0.89295518582E+03 0.  0.
         23    2    4    4    0    0  0.29816975705E+03  0.41576420578E+02  0.15234364754E+03  0.34950722732E+03  0.91175173320E+02 0.  0.
         23    2    4    4    0    0 -0.44804617100E+03 -0.51016671473E+03  0.21723646040E+02  0.68475975456E+03  0.86072971967E+02 0.  0.
          1    1    3    3  502    0  0.10422487270E+03  0.25895778659E+03  0.13070005189E+04  0.13364775777E+04  0.00000000000E+00 0. -1.
         -2    1    3    3    0  502  0.45651541240E+02  0.20963250756E+03  0.13353276113E+04  0.13524532084E+04  0.00000000000E+00 0.  1.
         11    1    5    5    0    0  0.20546637072E+03 -0.11675742892E+02  0.82010203669E+02  0.22153651161E+03  0.00000000000E+00 0.  1.
        -11    1    5    5    0    0  0.92703386334E+02  0.53252163470E+02  0.70333443876E+02  0.12797071571E+03  0.00000000000E+00 0. -1.
          3    1    6    6  503    0 -0.43699843361E+03 -0.49277856911E+03  0.36125774835E+02  0.65962369633E+03  0.00000000000E+00 0. -1.
         -3    1    6    6    0  503 -0.11047737384E+02 -0.17388145618E+02 -0.14402128795E+02  0.25136058226E+02  0.00000000000E+00 0.  1.
<mgrwt>
<rscale>  0 0.24351835E+04</rscale>
<asrwt>0</asrwt>
<pdfrwt beam="1">  1        1 0.50304561E+00 0.24351835E+04</pdfrwt>
<pdfrwt beam="2">  1       -2 0.69754029E-01 0.24351835E+04</pdfrwt>
<totfact> 0.55440349E-01</totfact>
</mgrwt>
</event>
<event>
12    4  0.4320235E-008  0.1411941E+04  0.7818608E-02  0.8945220E-01
         -4   -1    0    0    0  501 -0.00000000000E+00  0.00000000000E+00  0.13030582564E+04  0.13030582564E+04  0.00000000000E+00 0.  1.
          3   -1    0    0  501    0  0.00000000000E+00 -0.00000000000E+00 -0.38248054007E+03  0.38248054007E+03  0.00000000000E+00 0. -1.
        -24    2    1    2    0    0  0.11198140784E+03  0.33762043924E+03  0.15059822715E+01  0.36459195981E+03  0.79985201644E+02 0.  0.
        254    2    1    2    0    0 -0.11198140784E+03 -0.33762043924E+03  0.91907173410E+03  0.13209468367E+04  0.87959098239E+03 0.  0.
         23    2    4    4    0    0  0.24287493036E+03 -0.44868008929E+03  0.31945230975E+03  0.60899227178E+03  0.92302516540E+02 0.  0.
         23    2    4    4    0    0 -0.35485633820E+03  0.11105965005E+03  0.59961942435E+03  0.71195456493E+03  0.95281592342E+02 0.  0.
          3    1    3    3  502    0  0.10153386452E+03  0.18175316184E+03 -0.48276177037E+01  0.20824659271E+03  0.00000000000E+00 0. -1.
         -4    1    3    3    0  502  0.10447543326E+02  0.15586727740E+03  0.63335999753E+01  0.15634536710E+03  0.00000000000E+00 0.  1.
         11    1    5    5    0    0  0.24440971766E+03 -0.41713760818E+03  0.28086133682E+03  0.55912698447E+03  0.00000000000E+00 0.  1.
        -11    1    5    5    0    0 -0.15347872973E+01 -0.31542481111E+02  0.38590972931E+02  0.49865287309E+02  0.00000000000E+00 0. -1.
          1    1    6    6  503    0 -0.12988372598E+03 -0.50772529298E+01  0.18369572241E+03  0.22503261808E+03  0.00000000000E+00 0. -1.
         -1    1    6    6    0  503 -0.22497261222E+03  0.11613690298E+03  0.41592370194E+03  0.48692194685E+03  0.00000000000E+00 0.  1.
<mgrwt>
<rscale>  0 0.14119411E+04</rscale>
<asrwt>0</asrwt>
<pdfrwt beam="1">  1        3 0.58843161E-01 0.14119411E+04</pdfrwt>
<pdfrwt beam="2">  1       -4 0.20047050E+00 0.14119411E+04</pdfrwt>
<totfact> 0.82239718E-01</totfact>
</mgrwt>
</event>
<event>
12    4  0.4320235E-008  0.2531728E+04  0.7818608E-02  0.8391769E-01
         -2   -1    0    0    0  501 -0.00000000000E+00  0.00000000000E+00  0.18250243341E+04  0.18250243341E+04  0.00000000000E+00 0.  1.
          1   -1    0    0  501    0  0.00000000000E+00 -0.00000000000E+00 -0.87802176147E+03  0.87802176147E+03  0.00000000000E+00 0. -1.
        -24    2    1    2    0    0 -0.41196652056E+03  0.52940025350E+03  0.13526310641E+04  0.15119979263E+04  0.80906681860E+02 0.  0.
        254    2    1    2    0    0  0.41196652056E+03 -0.52940025350E+03 -0.40562849148E+03  0.11910481692E+04  0.89670520567E+03 0.  0.
         23    2    4    4    0    0  0.35695700407E+03 -0.76139958030E+03 -0.39999143612E+03  0.93556217492E+03  0.90198728076E+02 0.  0.
         23    2    4    4    0    0  0.55009516499E+02  0.23199932680E+03 -0.56370553604E+01  0.25548599432E+03  0.91605580405E+02 0.  0.
          3    1    3    3  502    0 -0.12237435161E+03  0.20533483493E+03  0.53715387545E+03  0.58793891033E+03  0.00000000000E+00 0. -1.
         -4    1    3    3    0  502 -0.28959216896E+03  0.32406541857E+03  0.81547718861E+03  0.92405901596E+03  0.00000000000E+00 0.  1.
         11    1    5    5    0    0  0.82727531969E+02 -0.17472872893E+03 -0.51110916479E+02  0.19996574467E+03  0.00000000000E+00 0.  1.
        -11    1    5    5    0    0  0.27422947210E+03 -0.58667085137E+03 -0.34888051964E+03  0.73559643025E+03  0.00000000000E+00 0. -1.
          3    1    6    6  503    0  0.43679895269E+02  0.12287940695E+03  0.40378277140E+02  0.13651991492E+03  0.00000000000E+00 0. -1.
         -3    1    6    6    0  503  0.11329621230E+02  0.10911991984E+03 -0.46015332500E+02  0.11896607940E+03  0.00000000000E+00 0.  1.
<mgrwt>
<rscale>  0 0.25317275E+04</rscale>
<asrwt>0</asrwt>
<pdfrwt beam="1">  1        1 0.13508027E+00 0.25317275E+04</pdfrwt>
<pdfrwt beam="2">  1       -2 0.28077297E+00 0.25317275E+04</pdfrwt>
<totfact> 0.61409671E-01</totfact>
</mgrwt>
</event>
<event>
12    4  0.4320235E-008  0.1596712E+04  0.7818608E-02  0.8822570E-01
         -2   -1    0    0    0  501 -0.00000000000E+00  0.00000000000E+00  0.11081823088E+04  0.11081823088E+04  0.00000000000E+00 0.  1.
          1   -1    0    0  501    0  0.00000000000E+00 -0.00000000000E+00 -0.57515136968E+03  0.57515136968E+03  0.00000000000E+00 0. -1.
        -24    2    1    2    0    0  0.19873185661E+03 -0.48567958497E+03  0.31323766506E+03  0.61665446409E+03  0.82254988816E+02 0.  0.
        254    2    1    2    0    0 -0.19873185661E+03  0.48567958497E+03  0.21979327402E+03  0.10666792144E+04  0.90228402010E+03 0.  0.
         23    2    4    4    0    0  0.25333226545E+03  0.42850646506E+03  0.31201190565E+03  0.59277816060E+03  0.78990449476E+02 0.  0.
         23    2    4    4    0    0 -0.45206412206E+03  0.57173119912E+02 -0.92218631623E+02  0.47390105375E+03  0.91908631954E+02 0.  0.
          1    1    3    3  502    0  0.16345627021E+03 -0.42796555948E+03  0.30034701944E+03  0.54779631658E+03  0.00000000000E+00 0. -1.
         -2    1    3    3    0  502  0.35275586400E+02 -0.57714025490E+02  0.12890645614E+02  0.68858147510E+02  0.00000000000E+00 0.  1.
         11    1    5    5    0    0  0.12159242822E+03  0.13634906547E+03  0.96954803513E+02  0.20682364512E+03  0.00000000000E+00 0. -1.
        -11    1    5    5    0    0  0.13173983723E+03  0.29215739958E+03  0.21505710213E+03  0.38595451549E+03  0.00000000000E+00 0.  1.
          3    1    6    6  503    0 -0.42487627560E+03  0.64182223794E+02 -0.64615104323E+02  0.43452769662E+03  0.00000000000E+00 0. -1.
         -3    1    6    6    0  503 -0.27187846464E+02 -0.70091038818E+01 -0.27603527300E+02  0.39373357133E+02  0.00000000000E+00 0.  1.
<mgrwt>
<rscale>  0 0.15967123E+04</rscale>
<asrwt>0</asrwt>
<pdfrwt beam="1">  1        1 0.88484826E-01 0.15967123E+04</pdfrwt>
<pdfrwt beam="2">  1       -2 0.17048959E+00 0.15967123E+04</pdfrwt>
<totfact> 0.64579652E+00</totfact>
</mgrwt>
</event>
<event>
12    4  0.4320235E-008  0.1288154E+04  0.7818608E-02  0.9039012E-01
         -2   -1    0    0    0  501 -0.00000000000E+00  0.00000000000E+00  0.16961267369E+04  0.16961267369E+04  0.00000000000E+00 0.  1.
          1   -1    0    0  501    0  0.00000000000E+00 -0.00000000000E+00 -0.24457800048E+03  0.24457800048E+03  0.00000000000E+00 0. -1.
        -24    2    1    2    0    0  0.17996089122E+03  0.20157468231E+03  0.63747370943E+03  0.69699815459E+03  0.80096331881E+02 0.  0.
        254    2    1    2    0    0 -0.17996089122E+03 -0.20157468231E+03  0.81407502702E+03  0.12437065828E+04  0.90059404818E+03 0.  0.
         23    2    4    4    0    0 -0.22899540065E+03  0.11026504064E+03 -0.87274928661E+02  0.28427330565E+03  0.92720690377E+02 0.  0.
         23    2    4    4    0    0  0.49034509428E+02 -0.31183972295E+03  0.90134995568E+03  0.95943327717E+03  0.91826329621E+02 0.  0.
          3    1    3    3  502    0  0.94366269862E+01 -0.16143911027E+01  0.42812232160E+01  0.10487376208E+02  0.00000000000E+00 0. -1.
         -4    1    3    3    0  502  0.17052426424E+03  0.20318907341E+03  0.63319248621E+03  0.68651077839E+03  0.00000000000E+00 0.  1.
         11    1    5    5    0    0 -0.23524207870E+03  0.95127507133E+02 -0.85666890798E+02  0.26781877153E+03  0.00000000000E+00 0. -1.
        -11    1    5    5    0    0  0.62466780453E+01  0.15137533512E+02 -0.16080378629E+01  0.16454534122E+02  0.00000000000E+00 0.  1.
          3    1    6    6  503    0 -0.23710550876E+02 -0.11812969325E+03  0.37459729221E+03  0.39349707239E+03  0.00000000000E+00 0. -1.
         -3    1    6    6    0  503  0.72745060304E+02 -0.19371002970E+03  0.52675266347E+03  0.56593620478E+03  0.00000000000E+00 0.  1.
<mgrwt>
<rscale>  0 0.12881542E+04</rscale>
<asrwt>0</asrwt>
<pdfrwt beam="1">  1        1 0.37627386E-01 0.12881542E+04</pdfrwt>
<pdfrwt beam="2">  1       -2 0.26094257E+00 0.12881542E+04</pdfrwt>
<totfact> 0.54196518E+00</totfact>
</mgrwt>
</event>
<event>
12    4  0.4320235E-008  0.1689405E+04  0.7818608E-02  0.8767430E-01
          1   -1    0    0  501    0  0.00000000000E+00  0.00000000000E+00  0.82381935558E+03  0.82381935558E+03  0.00000000000E+00 0. -1.
         -2   -1    0    0    0  501 -0.00000000000E+00 -0.00000000000E+00 -0.86611507419E+03  0.86611507419E+03  0.00000000000E+00 0.  1.
        -24    2    1    2    0    0 -0.38201522805E+03  0.10258680683E+03 -0.46723809774E+03  0.61732920209E+03  0.79524941788E+02 0.  0.
        254    2    1    2    0    0  0.38201522805E+03 -0.10258680683E+03  0.42494237913E+03  0.10726052277E+04  0.90191255755E+03 0.  0.
         23    2    4    4    0    0  0.18359633123E+03  0.27039421849E+03  0.52806953623E+03  0.62749950270E+03  0.89875160992E+02 0.  0.
         23    2    4    4    0    0  0.19841889682E+03 -0.37298102532E+03 -0.10312715710E+03  0.44510572498E+03  0.94863017089E+02 0.  0.
          1    1    3    3  502    0 -0.15888823129E+03  0.26255455626E+01 -0.18926014235E+03  0.24712702202E+03  0.00000000000E+00 0. -1.
         -2    1    3    3    0  502 -0.22312699676E+03  0.99961261270E+02 -0.27797795539E+03  0.37020218006E+03  0.00000000000E+00 0.  1.
         11    1    5    5    0    0  0.11923296264E+03  0.17562495665E+03  0.41708264544E+03  0.46799418576E+03  0.00000000000E+00 0. -1.
        -11    1    5    5    0    0  0.64363368593E+02  0.94769261836E+02  0.11098689079E+03  0.15950531695E+03  0.00000000000E+00 0.  1.
          4    1    6    6  503    0  0.69795873470E+02 -0.91263789729E+02 -0.67798813197E+02  0.13340623051E+03  0.00000000000E+00 0. -1.
         -4    1    6    6    0  503  0.12862302335E+03 -0.28171723559E+03 -0.35328343903E+02  0.31169949446E+03  0.00000000000E+00 0.  1.
<mgrwt>
<rscale>  0 0.16894051E+04</rscale>
<asrwt>0</asrwt>
<pdfrwt beam="1">  1        1 0.12674144E+00 0.16894051E+04</pdfrwt>
<pdfrwt beam="2">  1       -2 0.13324847E+00 0.16894051E+04</pdfrwt>
<totfact> 0.71741891E+00</totfact>
</mgrwt>
</event>
<event>
12    4  0.4320235E-008  0.2065683E+04  0.7818608E-02  0.8576513E-01
         -2   -1    0    0    0  501 -0.00000000000E+00  0.00000000000E+00  0.92876477641E+03  0.92876477641E+03  0.00000000000E+00 0.  1.
          1   -1    0    0  501    0  0.00000000000E+00 -0.00000000000E+00 -0.11485808130E+04  0.11485808130E+04  0.00000000000E+00 0. -1.
        -24    2    1    2    0    0 -0.23936931727E+03  0.26756226646E+03  0.66960494041E+03  0.76419712266E+03  0.82092810720E+02 0.  0.
        254    2    1    2    0    0  0.23936931727E+03 -0.26756226646E+03 -0.88942097699E+03  0.13131484667E+04  0.89688459954E+03 0.  0.
         23    2    4    4    0    0  0.47585873538E+03 -0.44255870079E+03 -0.58230030135E+03  0.87786098157E+03  0.96262777423E+02 0.  0.
         23    2    4    4    0    0 -0.23648941812E+03  0.17499643433E+03 -0.30712067564E+03  0.43528748517E+03  0.92742053184E+02 0.  0.
          3    1    3    3  502    0 -0.47682224550E+02  0.49835039703E+02  0.70878525557E+02  0.98898387779E+02  0.00000000000E+00 0. -1.
         -4    1    3    3    0  502 -0.19168709272E+03  0.21772722676E+03  0.59872641485E+03  0.66529873488E+03  0.00000000000E+00 0.  1.
         11    1    5    5    0    0  0.25768757926E+03 -0.26988893321E+03 -0.38920736885E+03  0.53918948500E+03  0.00000000000E+00 0.  1.
        -11    1    5    5    0    0  0.21817115613E+03 -0.17266976758E+03 -0.19309293250E+03  0.33867149656E+03  0.00000000000E+00 0. -1.
          4    1    6    6  503    0 -0.24984265803E+02  0.47525570291E+02 -0.97766384360E+02  0.11153994477E+03  0.00000000000E+00 0. -1.
         -4    1    6    6    0  503 -0.21150515231E+03  0.12747086404E+03 -0.20935429128E+03  0.32374754040E+03  0.00000000000E+00 0.  1.
<mgrwt>
<rscale>  0 0.20656828E+04</rscale>
<asrwt>0</asrwt>
<pdfrwt beam="1">  1        1 0.17670474E+00 0.20656828E+04</pdfrwt>
<pdfrwt beam="2">  1       -2 0.14288689E+00 0.20656828E+04</pdfrwt>
<totfact> 0.32125378E+00</totfact>
</mgrwt>
</event>
<event>
12    4  0.4320235E-008  0.1686057E+04  0.7818608E-02  0.8769356E-01
          1   -1    0    0  501    0  0.00000000000E+00  0.00000000000E+00  0.18432336778E+04  0.18432336778E+04  0.00000000000E+00 0. -1.
         -2   -1    0    0    0  501 -0.00000000000E+00 -0.00000000000E+00 -0.38557099816E+03  0.38557099816E+03  0.00000000000E+00 0.  1.
        -24    2    1    2    0    0 -0.52331750343E+03  0.53230456039E+02  0.14661300643E+03  0.55186257432E+03  0.79763628490E+02 0.  0.
        254    2    1    2    0    0  0.52331750343E+03 -0.53230456039E+02  0.13110496732E+04  0.16769421016E+04  0.90365307266E+03 0.  0.
         23    2    4    4    0    0  0.40538448414E+03  0.17037263758E+03  0.13336712439E+04  0.14072826032E+04  0.91662002885E+02 0.  0.
         23    2    4    4    0    0  0.11793301929E+03 -0.22360309362E+03 -0.22621570758E+02  0.26965949839E+03  0.91093189079E+02 0.  0.
          1    1    3    3  502    0 -0.15764572632E+03 -0.72846192548E+01  0.14923938650E+02  0.15851802626E+03  0.00000000000E+00 0. -1.
         -2    1    3    3    0  502 -0.36567177711E+03  0.60515075293E+02  0.13168906778E+03  0.39334454806E+03  0.00000000000E+00 0.  1.
         11    1    5    5    0    0  0.32575902902E+03  0.17395666916E+03  0.10813302557E+04  0.11426526111E+04  0.00000000000E+00 0.  1.
        -11    1    5    5    0    0  0.79625455127E+02 -0.35840315811E+01  0.25234098826E+03  0.26462999215E+03  0.00000000000E+00 0. -1.
          2    1    6    6  503    0  0.49528366744E+02 -0.59678772433E+02 -0.46517580735E+02  0.90435061281E+02  0.00000000000E+00 0. -1.
         -2    1    6    6    0  503  0.68404652541E+02 -0.16392432119E+03  0.23896009977E+02  0.17922443711E+03  0.00000000000E+00 0.  1.
<mgrwt>
<rscale>  0 0.16860575E+04</rscale>
<asrwt>0</asrwt>
<pdfrwt beam="1">  1        1 0.28357441E+00 0.16860575E+04</pdfrwt>
<pdfrwt beam="2">  1       -2 0.59318616E-01 0.16860575E+04</pdfrwt>
<totfact> 0.84500358E+00</totfact>
</mgrwt>
</event>
<event>
12    4  0.9242347E-008  0.1962113E+04  0.7818608E-02  0.8624542E-01
          1   -1    0    0  501    0  0.00000000000E+00  0.00000000000E+00  0.17626476376E+04  0.17626476376E+04  0.00000000000E+00 0. -1.
         -2   -1    0    0    0  501 -0.00000000000E+00 -0.00000000000E+00 -0.54603738500E+03  0.54603738500E+03  0.00000000000E+00 0.  1.
        -24    2    1    2    0    0  0.43719332205E+03  0.35914310548E+03  0.10979538917E+04  0.12398379564E+04  0.10758084770E+03 0.  0.
        254    2    1    2    0    0 -0.43719332205E+03 -0.35914310548E+03  0.11865636085E+03  0.10688470662E+04  0.89901776835E+03 0.  0.
         23    2    4    4    0    0 -0.11533851870E+03 -0.35524085594E+03  0.45376194536E+03  0.59482535005E+03  0.91751045652E+02 0.  0.
         23    2    4    4    0    0 -0.32185480335E+03 -0.39022495347E+01 -0.33510558450E+03  0.47402171611E+03  0.93782154944E+02 0.  0.
          1    1    3    3  502    0  0.43253007784E+03  0.35316372957E+03  0.10314281853E+04  0.11728814899E+04  0.00000000000E+00 0. -1.
         -2    1    3    3    0  502  0.46632442086E+01  0.59793759060E+01  0.66525706445E+02  0.66956466459E+02  0.00000000000E+00 0.  1.
         11    1    5    5    0    0 -0.12139319712E+03 -0.29284022165E+03  0.33948068401E+03  0.46447695157E+03  0.00000000000E+00 0. -1.
        -11    1    5    5    0    0  0.60546784171E+01 -0.62400634289E+02  0.11428126135E+03  0.13034839848E+03  0.00000000000E+00 0.  1.
          2    1    6    6  503    0 -0.28504401300E+03  0.20363204004E+02 -0.31576159125E+03  0.42587572358E+03  0.00000000000E+00 0. -1.
         -2    1    6    6    0  503 -0.36810790349E+02 -0.24265453539E+02 -0.19343993251E+02  0.48145992527E+02  0.00000000000E+00 0.  1.
<mgrwt>
<rscale>  0 0.19621126E+04</rscale>
<asrwt>0</asrwt>
<pdfrwt beam="1">  1        1 0.27117656E+00 0.19621126E+04</pdfrwt>
<pdfrwt beam="2">  1       -2 0.84005752E-01 0.19621126E+04</pdfrwt>
<totfact> 0.43681433E+00</totfact>
</mgrwt>
</event>
<event>
12    4  0.4320235E-008  0.1454076E+04  0.7818608E-02  0.8915580E-01
         -2   -1    0    0    0  501 -0.00000000000E+00  0.00000000000E+00  0.90796450512E+03  0.90796450512E+03  0.00000000000E+00 0.  1.
          1   -1    0    0  501    0  0.00000000000E+00 -0.00000000000E+00 -0.58216371255E+03  0.58216371255E+03  0.00000000000E+00 0. -1.
        -24    2    1    2    0    0  0.35012404014E+03  0.23338299420E+03  0.21196521364E+03  0.48044613958E+03  0.94046668088E+02 0.  0.
        254    2    1    2    0    0 -0.35012404014E+03 -0.23338299420E+03  0.11383557894E+03  0.10096820781E+04  0.91073865314E+03 0.  0.
         23    2    4    4    0    0 -0.52921620760E+03 -0.21947830650E+03  0.36773474409E+03  0.68703033272E+03  0.92419233105E+02 0.  0.
         23    2    4    4    0    0  0.17909216746E+03 -0.13904687694E+02 -0.25389916516E+03  0.32265174537E+03  0.85860456214E+02 0.  0.
          3    1    3    3  502    0  0.11151923010E+03  0.64629107066E+02  0.11440350224E+03  0.17234158374E+03  0.00000000000E+00 0. -1.
         -4    1    3    3    0  502  0.23860481004E+03  0.16875388713E+03  0.97561711400E+02  0.30810455584E+03  0.00000000000E+00 0.  1.
         11    1    5    5    0    0 -0.21768622935E+03 -0.12306825972E+03  0.20063064015E+03  0.32060215964E+03  0.00000000000E+00 0.  1.
        -11    1    5    5    0    0 -0.31152997825E+03 -0.96410046779E+02  0.16710410395E+03  0.36642817308E+03  0.00000000000E+00 0. -1.
          1    1    6    6  503    0  0.70246533807E+02 -0.29722993109E+02 -0.50683010281E+02  0.91579470202E+02  0.00000000000E+00 0. -1.
         -1    1    6    6    0  503  0.10884563365E+03  0.15818305415E+02 -0.20321615488E+03  0.23107227517E+03  0.00000000000E+00 0.  1.
<mgrwt>
<rscale>  0 0.14540756E+04</rscale>
<asrwt>0</asrwt>
<pdfrwt beam="1">  1        1 0.89563648E-01 0.14540756E+04</pdfrwt>
<pdfrwt beam="2">  1       -2 0.13968685E+00 0.14540756E+04</pdfrwt>
<totfact> 0.10972305E+01</totfact>
</mgrwt>
</event>
<event>
12    4  0.4320235E-008  0.1469294E+04  0.7818608E-02  0.8905133E-01
          1   -1    0    0  501    0  0.00000000000E+00  0.00000000000E+00  0.93942161822E+03  0.93942161822E+03  0.00000000000E+00 0. -1.
         -2   -1    0    0    0  501 -0.00000000000E+00 -0.00000000000E+00 -0.57450916102E+03  0.57450916102E+03  0.00000000000E+00 0.  1.
        -24    2    1    2    0    0 -0.10087270605E+03  0.26420708256E+03 -0.26062008854E+03  0.39369085369E+03  0.84196035718E+02 0.  0.
        254    2    1    2    0    0  0.10087270605E+03 -0.26420708256E+03  0.62553254574E+03  0.11202399255E+04  0.88524902695E+03 0.  0.
         23    2    4    4    0    0 -0.22504340650E+03  0.16558794130E+03  0.46190972220E+03  0.54937668012E+03  0.10193254672E+03 0.  0.
         23    2    4    4    0    0  0.32591611255E+03 -0.42979502386E+03  0.16362282354E+03  0.57086324543E+03  0.90373345874E+02 0.  0.
          3    1    3    3  502    0 -0.13822832295E+02 -0.27418618840E+01 -0.15715379360E+02  0.21108331238E+02  0.00000000000E+00 0. -1.
         -4    1    3    3    0  502 -0.87049873751E+02  0.26694894444E+03 -0.24490470918E+03  0.37258252245E+03  0.00000000000E+00 0.  1.
         11    1    5    5    0    0 -0.16870437941E+03  0.17102677700E+03  0.38675898659E+03  0.45529533250E+03  0.00000000000E+00 0. -1.
        -11    1    5    5    0    0 -0.56339027096E+02 -0.54388357035E+01  0.75150735610E+02  0.94081347624E+02  0.00000000000E+00 0.  1.
          3    1    6    6  503    0  0.10224896296E+03 -0.20494340616E+03  0.83155424024E+02  0.24366262475E+03  0.00000000000E+00 0. -1.
         -3    1    6    6    0  503  0.22366714959E+03 -0.22485161770E+03  0.80467399513E+02  0.32720062068E+03  0.00000000000E+00 0.  1.
<mgrwt>
<rscale>  0 0.14692942E+04</rscale>
<asrwt>0</asrwt>
<pdfrwt beam="1">  1        1 0.14452640E+00 0.14692942E+04</pdfrwt>
<pdfrwt beam="2">  1       -2 0.88386025E-01 0.14692942E+04</pdfrwt>
<totfact> 0.15830121E+01</totfact>
</mgrwt>
</event>
<event>
12    4  0.4320235E-008  0.3546509E+04  0.7818608E-02  0.8102855E-01
         -2   -1    0    0    0  501 -0.00000000000E+00  0.00000000000E+00  0.17384344128E+04  0.17384344128E+04  0.00000000000E+00 0.  1.
          1   -1    0    0  501    0  0.00000000000E+00 -0.00000000000E+00 -0.18087721445E+04  0.18087721445E+04  0.00000000000E+00 0. -1.
        -24    2    1    2    0    0 -0.38737676053E+03 -0.79836945924E+03 -0.14335315956E+04  0.16878315834E+04  0.79423361186E+02 0.  0.
        254    2    1    2    0    0  0.38737676053E+03  0.79836945924E+03  0.13631938639E+04  0.18593749740E+04  0.90084584430E+03 0.  0.
         23    2    4    4    0    0 -0.23208879071E+02 -0.13312624258E+03  0.48602194998E+03  0.51253763240E+03  0.90643478711E+02 0.  0.
         23    2    4    4    0    0  0.41058563961E+03  0.93149570182E+03  0.87717191393E+03  0.13468373416E+04  0.90969489943E+02 0.  0.
          3    1    3    3  502    0 -0.28265698517E+03 -0.59992621976E+03 -0.11323208975E+04  0.13122336131E+04  0.00000000000E+00 0. -1.
         -4    1    3    3    0  502 -0.10471977537E+03 -0.19844323948E+03 -0.30121069804E+03  0.37559797026E+03  0.00000000000E+00 0.  1.
         11    1    5    5    0    0 -0.22923456307E+02 -0.72601031578E+02  0.12412261470E+03  0.14561187491E+03  0.00000000000E+00 0. -1.
        -11    1    5    5    0    0 -0.28542276340E+00 -0.60525211006E+02  0.36189933528E+03  0.36692575749E+03  0.00000000000E+00 0.  1.
          1    1    6    6  503    0  0.24866104935E+03  0.60011855369E+03  0.50428327977E+03  0.82236015359E+03  0.00000000000E+00 0. -1.
         -1    1    6    6    0  503  0.16192459026E+03  0.33137714813E+03  0.37288863416E+03  0.52447718799E+03  0.00000000000E+00 0.  1.
<mgrwt>
<rscale>  0 0.35465091E+04</rscale>
<asrwt>0</asrwt>
<pdfrwt beam="1">  1        1 0.27827264E+00 0.35465091E+04</pdfrwt>
<pdfrwt beam="2">  1       -2 0.26745145E+00 0.35465091E+04</pdfrwt>
<totfact> 0.14418363E-01</totfact>
</mgrwt>
</event>
<event>
12    4  0.4320235E-008  0.1544684E+04  0.7818608E-02  0.8855271E-01
          3   -1    0    0  501    0  0.00000000000E+00  0.00000000000E+00  0.92973394215E+03  0.92973394215E+03  0.00000000000E+00 0. -1.
         -4   -1    0    0    0  501 -0.00000000000E+00 -0.00000000000E+00 -0.64159422232E+03  0.64159422232E+03  0.00000000000E+00 0.  1.
        -24    2    1    2    0    0 -0.25187887554E+03  0.36330895904E+03  0.34074317059E+03  0.56405503982E+03  0.81337641876E+02 0.  0.
        254    2    1    2    0    0  0.25187887554E+03 -0.36330895904E+03 -0.52603450747E+02  0.10072731246E+04  0.90354615651E+03 0.  0.
         23    2    4    4    0    0 -0.93995926420E+02 -0.56699180856E+03  0.46535190206E+02  0.58376965817E+03  0.91140247497E+02 0.  0.
         23    2    4    4    0    0  0.34587480196E+03  0.20368284952E+03 -0.99138640953E+02  0.42350346647E+03  0.91709509685E+02 0.  0.
          3    1    3    3  502    0 -0.12358315189E+03  0.15873395269E+03  0.10645454872E+03  0.22760016280E+03  0.00000000000E+00 0. -1.
         -4    1    3    3    0  502 -0.12829572365E+03  0.20457500636E+03  0.23428862187E+03  0.33645487702E+03  0.00000000000E+00 0.  1.
         11    1    5    5    0    0 -0.53400234107E+02 -0.50430948875E+03  0.44234486603E+02  0.50905435393E+03  0.00000000000E+00 0. -1.
        -11    1    5    5    0    0 -0.40595692312E+02 -0.62682319810E+02  0.23007036032E+01  0.74715304243E+02  0.00000000000E+00 0.  1.
          4    1    6    6  503    0  0.19438794974E+03  0.11836350402E+03 -0.92414514797E+01  0.22777620270E+03  0.00000000000E+00 0.  1.
         -4    1    6    6    0  503  0.15148685221E+03  0.85319345504E+02 -0.89897189473E+02  0.19572726378E+03  0.00000000000E+00 0. -1.
<mgrwt>
<rscale>  0 0.15446837E+04</rscale>
<asrwt>0</asrwt>
<pdfrwt beam="1">  1        3 0.14303599E+00 0.15446837E+04</pdfrwt>
<pdfrwt beam="2">  1       -4 0.98706803E-01 0.15446837E+04</pdfrwt>
<totfact> 0.68687183E-01</totfact>
</mgrwt>
</event>
<event>
12    4  0.4320235E-008  0.2214641E+04  0.7818608E-02  0.8512359E-01
          1   -1    0    0  501    0  0.00000000000E+00  0.00000000000E+00  0.12693726776E+04  0.12693726776E+04  0.00000000000E+00 0. -1.
         -2   -1    0    0    0  501 -0.00000000000E+00 -0.00000000000E+00 -0.96595645890E+03  0.96595645890E+03  0.00000000000E+00 0.  1.
        -24    2    1    2    0    0 -0.75945121247E+03 -0.13195223141E+03 -0.37896207832E+03  0.86259521033E+03  0.79250896387E+02 0.  0.
        254    2    1    2    0    0  0.75945121247E+03  0.13195223141E+03  0.68237829706E+03  0.13727339262E+04  0.90806429087E+03 0.  0.
         23    2    4    4    0    0  0.90596427815E+03  0.15188576667E+03  0.32894597954E+03  0.97995077386E+03  0.90870800235E+02 0.  0.
         23    2    4    4    0    0 -0.14651306567E+03 -0.19933535262E+02  0.35343231751E+03  0.39278315234E+03  0.86607028927E+02 0.  0.
          3    1    3    3  502    0 -0.18987086154E+02  0.88648151435E+01 -0.71362851801E+01  0.22136416926E+02  0.00000000000E+00 0. -1.
         -4    1    3    3    0  502 -0.74046412632E+03 -0.14081704655E+03 -0.37182579314E+03  0.84045879340E+03  0.00000000000E+00 0.  1.
         11    1    5    5    0    0  0.15420667172E+02  0.13646680020E+02  0.15553086318E+02  0.25805568112E+02  0.00000000000E+00 0.  1.
        -11    1    5    5    0    0  0.89054361097E+03  0.13823908665E+03  0.31339289323E+03  0.95414520575E+03  0.00000000000E+00 0. -1.
          4    1    6    6  503    0 -0.11728300058E+03 -0.40929794957E+02  0.32152339843E+03  0.34468514050E+03  0.00000000000E+00 0. -1.
         -4    1    6    6    0  503 -0.29230065090E+02  0.20996259695E+02  0.31908919082E+02  0.48098011843E+02  0.00000000000E+00 0.  1.
<mgrwt>
<rscale>  0 0.22146410E+04</rscale>
<asrwt>0</asrwt>
<pdfrwt beam="1">  1        1 0.19528810E+00 0.22146410E+04</pdfrwt>
<pdfrwt beam="2">  1       -2 0.14860869E+00 0.22146410E+04</pdfrwt>
<totfact> 0.23348862E+00</totfact>
</mgrwt>
</event>
<event>
12    4  0.4320235E-008  0.1542192E+04  0.7818608E-02  0.8856871E-01
         -2   -1    0    0    0  501 -0.00000000000E+00  0.00000000000E+00  0.36907811348E+03  0.36907811348E+03  0.00000000000E+00 0.  1.
          1   -1    0    0  501    0  0.00000000000E+00 -0.00000000000E+00 -0.16110110862E+04  0.16110110862E+04  0.00000000000E+00 0. -1.
        -24    2    1    2    0    0  0.32131724653E+03 -0.28477876588E+03 -0.73311101492E+03  0.85519508970E+03  0.97791425144E+02 0.  0.
        254    2    1    2    0    0 -0.32131724653E+03  0.28477876588E+03 -0.50882195784E+03  0.11248941100E+04  0.90672115645E+03 0.  0.
         23    2    4    4    0    0  0.15387005944E+02  0.15030117010E+03 -0.68831639852E+03  0.71027114593E+03  0.88760546293E+02 0.  0.
         23    2    4    4    0    0 -0.33670425248E+03  0.13447759578E+03  0.17949444068E+03  0.41462296409E+03  0.90774284410E+02 0.  0.
          1    1    3    3  502    0  0.29555806612E+03 -0.26061447417E+03 -0.71275760914E+03  0.81443101856E+03  0.00000000000E+00 0. -1.
         -2    1    3    3    0  502  0.25759180411E+02 -0.24164291715E+02 -0.20353405781E+02  0.40764071147E+02  0.00000000000E+00 0.  1.
         11    1    5    5    0    0 -0.65062459694E+01  0.13700029199E+03 -0.64908014722E+03  0.66341272882E+03  0.00000000000E+00 0.  1.
        -11    1    5    5    0    0  0.21893251913E+02  0.13300878112E+02 -0.39236251300E+02  0.46858417109E+02  0.00000000000E+00 0. -1.
          2    1    6    6  503    0 -0.43773675064E+02 -0.64879390971E+01  0.21329773961E+01  0.44303245647E+02  0.00000000000E+00 0. -1.
         -2    1    6    6    0  503 -0.29293057741E+03  0.14096553488E+03  0.17736146329E+03  0.37031971844E+03  0.00000000000E+00 0.  1.
<mgrwt>
<rscale>  0 0.15421919E+04</rscale>
<asrwt>0</asrwt>
<pdfrwt beam="1">  1        1 0.24784786E+00 0.15421919E+04</pdfrwt>
<pdfrwt beam="2">  1       -2 0.56781248E-01 0.15421919E+04</pdfrwt>
<totfact> 0.13495580E+01</totfact>
</mgrwt>
</event>
<event>
12    4  0.4320235E-008  0.1283085E+04  0.7818608E-02  0.9043088E-01
         -2   -1    0    0    0  501 -0.00000000000E+00  0.00000000000E+00  0.31514940908E+03  0.31514940908E+03  0.00000000000E+00 0.  1.
          1   -1    0    0  501    0  0.00000000000E+00 -0.00000000000E+00 -0.13059727686E+04  0.13059727686E+04  0.00000000000E+00 0. -1.
        -24    2    1    2    0    0  0.70785815137E+02  0.17736237790E+03 -0.57420791662E+03  0.61027418905E+03  0.79068385530E+02 0.  0.
        254    2    1    2    0    0 -0.70785815137E+02 -0.17736237790E+03 -0.41661544286E+03  0.10108479886E+04  0.90098678354E+03 0.  0.
         23    2    4    4    0    0 -0.29849451902E+03  0.26840658744E+03 -0.21049887275E+03  0.46174008540E+03  0.88051445019E+02 0.  0.
         23    2    4    4    0    0  0.22770870388E+03 -0.44576896534E+03 -0.20611657011E+03  0.54910790320E+03  0.92055551689E+02 0.  0.
          1    1    3    3  502    0  0.72549471470E+02  0.15191826235E+03 -0.54970095808E+03  0.57490323321E+03  0.00000000000E+00 0. -1.
         -2    1    3    3    0  502 -0.17636563322E+01  0.25444115550E+02 -0.24506958542E+02  0.35370955836E+02  0.00000000000E+00 0.  1.
         11    1    5    5    0    0 -0.20220865046E+03  0.21158770806E+03 -0.11413295429E+03  0.31414014035E+03  0.00000000000E+00 0. -1.
        -11    1    5    5    0    0 -0.96285868561E+02  0.56818879378E+02 -0.96365918462E+02  0.14759994505E+03  0.00000000000E+00 0.  1.
          3    1    6    6  503    0  0.22961983367E+03 -0.42604452899E+03 -0.21208471601E+03  0.52841189943E+03  0.00000000000E+00 0. -1.
         -3    1    6    6    0  503 -0.19111297860E+01 -0.19724436352E+02  0.59681459006E+01  0.20696003768E+02  0.00000000000E+00 0.  1.
<mgrwt>
<rscale>  0 0.12830846E+04</rscale>
<asrwt>0</asrwt>
<pdfrwt beam="1">  1        1 0.20091889E+00 0.12830846E+04</pdfrwt>
<pdfrwt beam="2">  1       -2 0.48484524E-01 0.12830846E+04</pdfrwt>
<totfact> 0.31139409E+01</totfact>
</mgrwt>
</event>
<event>
12    4  0.4320235E-008  0.1404710E+04  0.7818608E-02  0.8950417E-01
          1   -1    0    0  501    0  0.00000000000E+00  0.00000000000E+00  0.32088954963E+03  0.32088954963E+03  0.00000000000E+00 0. -1.
         -2   -1    0    0    0  501 -0.00000000000E+00 -0.00000000000E+00 -0.15372962479E+04  0.15372962479E+04  0.00000000000E+00 0.  1.
        -24    2    1    2    0    0  0.26459511002E+03 -0.18409163777E+03 -0.29334548443E+02  0.33324815679E+03  0.79331676686E+02 0.  0.
        254    2    1    2    0    0 -0.26459511002E+03  0.18409163777E+03 -0.11870721499E+04  0.15249376408E+04  0.90132913850E+03 0.  0.
         23    2    4    4    0    0 -0.54022272312E+03 -0.51825979390E+02 -0.88881091885E+03  0.10457904834E+04  0.95741125259E+02 0.  0.
         23    2    4    4    0    0  0.27562761310E+03  0.23591761716E+03 -0.29826123100E+03  0.47914715732E+03  0.94839513179E+02 0.  0.
          3    1    3    3  502    0  0.26005432633E+03 -0.16714370364E+03 -0.13209904341E+02  0.30941844140E+03  0.00000000000E+00 0. -1.
         -4    1    3    3    0  502  0.45407836940E+01 -0.16947934134E+02 -0.16124644101E+02  0.23829715385E+02  0.00000000000E+00 0.  1.
         11    1    5    5    0    0 -0.38749946538E+03  0.30760392996E+01 -0.65811262249E+03  0.76372607758E+03  0.00000000000E+00 0. -1.
        -11    1    5    5    0    0 -0.15272325774E+03 -0.54902018690E+02 -0.23069829636E+03  0.28206440586E+03  0.00000000000E+00 0.  1.
          2    1    6    6  503    0  0.21977953210E+03  0.17163961513E+03 -0.27319676191E+03  0.39038400445E+03  0.00000000000E+00 0. -1.
         -2    1    6    6    0  503  0.55848081003E+02  0.64278002032E+02 -0.25064469088E+02  0.88763152871E+02  0.00000000000E+00 0.  1.
<mgrwt>
<rscale>  0 0.14047097E+04</rscale>
<asrwt>0</asrwt>
<pdfrwt beam="1">  1        1 0.49367623E-01 0.14047097E+04</pdfrwt>
<pdfrwt beam="2">  1       -2 0.23650712E+00 0.14047097E+04</pdfrwt>
<totfact> 0.53228589E+00</totfact>
</mgrwt>
</event>
<event>
12    4  0.4320235E-008  0.1164764E+04  0.7818608E-02  0.9144271E-01
         -2   -1    0    0    0  501 -0.00000000000E+00  0.00000000000E+00  0.30522958638E+03  0.30522958638E+03  0.00000000000E+00 0.  1.
          1   -1    0    0  501    0  0.00000000000E+00 -0.00000000000E+00 -0.11111915851E+04  0.11111915851E+04  0.00000000000E+00 0. -1.
        -24    2    1    2    0    0  0.32294624862E+02  0.11320996133E+03 -0.37223831111E+03  0.39816576575E+03  0.78199607516E+02 0.  0.
        254    2    1    2    0    0 -0.32294624862E+02 -0.11320996133E+03 -0.43372368757E+03  0.10182554057E+04  0.91371133074E+03 0.  0.
         23    2    4    4    0    0 -0.23453676371E+03  0.86590939106E+02 -0.61387334160E+03  0.66878545252E+03  0.89039416583E+02 0.  0.
         23    2    4    4    0    0  0.20224213885E+03 -0.19980090044E+03  0.18014965403E+03  0.34946995317E+03  0.94090742266E+02 0.  0.
          3    1    3    3  502    0  0.41406263495E+02  0.78494821530E+02 -0.16045064804E+03  0.18335846345E+03  0.00000000000E+00 0. -1.
         -4    1    3    3    0  502 -0.91116386330E+01  0.34715139801E+02 -0.21178766307E+03  0.21480730230E+03  0.00000000000E+00 0.  1.
         11    1    5    5    0    0 -0.21705364836E+03  0.55112894814E+02 -0.47225085306E+03  0.52265723534E+03  0.00000000000E+00 0. -1.
        -11    1    5    5    0    0 -0.17483115357E+02  0.31478044292E+02 -0.14162248854E+03  0.14612821718E+03  0.00000000000E+00 0.  1.
          1    1    6    6  503    0  0.13943889454E+03 -0.78072109017E+02  0.73642135434E+02  0.17595915329E+03  0.00000000000E+00 0. -1.
         -1    1    6    6    0  503  0.62803244313E+02 -0.12172879142E+03  0.10650751860E+03  0.17351079988E+03  0.00000000000E+00 0.  1.
<mgrwt>
<rscale>  0 0.11647636E+04</rscale>
<asrwt>0</asrwt>
<pdfrwt beam="1">  1        1 0.17095255E+00 0.11647636E+04</pdfrwt>
<pdfrwt beam="2">  1       -2 0.46958398E-01 0.11647636E+04</pdfrwt>
<totfact> 0.46497521E+01</totfact>
</mgrwt>
</event>
<event>
12    4  0.4320235E-008  0.1519389E+04  0.7818608E-02  0.8871661E-01
         -2   -1    0    0    0  501 -0.00000000000E+00  0.00000000000E+00  0.46069708391E+03  0.46069708391E+03  0.00000000000E+00 0.  1.
          1   -1    0    0  501    0  0.00000000000E+00 -0.00000000000E+00 -0.12527449244E+04  0.12527449244E+04  0.00000000000E+00 0. -1.
        -24    2    1    2    0    0 -0.64722054902E+02 -0.23283086902E+03  0.22237403764E+03  0.33829054653E+03  0.81185733320E+02 0.  0.
        254    2    1    2    0    0  0.64722054902E+02  0.23283086902E+03 -0.10144218781E+04  0.13751514618E+04  0.89643217149E+03 0.  0.
         23    2    4    4    0    0  0.22139395741E+03 -0.17099628351E+03 -0.32891577023E+02  0.29848855168E+03  0.98785354668E+02 0.  0.
         23    2    4    4    0    0 -0.15667190250E+03  0.40382715253E+03 -0.98153030112E+03  0.10766629101E+04  0.90436916459E+02 0.  0.
          3    1    3    3  502    0 -0.30908082962E+01 -0.12239063752E+02  0.50176789858E+02  0.51740293949E+02  0.00000000000E+00 0. -1.
         -4    1    3    3    0  502 -0.61631246606E+02 -0.22059180527E+03  0.17219724778E+03  0.28655025258E+03  0.00000000000E+00 0.  1.
         11    1    5    5    0    0  0.22056245161E+03 -0.15030793334E+03 -0.50094991006E+02  0.27156910356E+03  0.00000000000E+00 0. -1.
        -11    1    5    5    0    0  0.83150579824E+00 -0.20688350167E+02  0.17203413983E+02  0.26919448122E+02  0.00000000000E+00 0.  1.
          1    1    6    6  503    0 -0.12136956101E+03  0.25854817532E+03 -0.54611419106E+03  0.61629411727E+03  0.00000000000E+00 0. -1.
         -1    1    6    6    0  503 -0.35302341495E+02  0.14527897721E+03 -0.43541611005E+03  0.46036879285E+03  0.00000000000E+00 0.  1.
<mgrwt>
<rscale>  0 0.15193893E+04</rscale>
<asrwt>0</asrwt>
<pdfrwt beam="1">  1        1 0.19272999E+00 0.15193893E+04</pdfrwt>
<pdfrwt beam="2">  1       -2 0.70876475E-01 0.15193893E+04</pdfrwt>
<totfact> 0.14990926E+01</totfact>
</mgrwt>
</event>
<event>
12    4  0.4320235E-008  0.2310030E+04  0.7818608E-02  0.8473977E-01
         -2   -1    0    0    0  501 -0.00000000000E+00  0.00000000000E+00  0.10502469501E+04  0.10502469501E+04  0.00000000000E+00 0.  1.
          1   -1    0    0  501    0  0.00000000000E+00 -0.00000000000E+00 -0.12702337050E+04  0.12702337050E+04  0.00000000000E+00 0. -1.
        -24    2    1    2    0    0  0.15408783929E+03  0.95565828971E+03 -0.20990087497E+03  0.99373430782E+03  0.80147790474E+02 0.  0.
        254    2    1    2    0    0 -0.15408783929E+03 -0.95565828971E+03 -0.10085879951E+02  0.13267463472E+04  0.90726419304E+03 0.  0.
         23    2    4    4    0    0 -0.78057186886E+02 -0.11091534733E+04 -0.84574217172E+02  0.11188842440E+04  0.91841175075E+02 0.  0.
         23    2    4    4    0    0 -0.76030652404E+02  0.15349518359E+03  0.74488337221E+02  0.20786210325E+03  0.91195998235E+02 0.  0.
          3    1    3    3  502    0  0.13204892882E+03  0.86128479482E+03 -0.21212028401E+03  0.89679620443E+03  0.00000000000E+00 0. -1.
         -4    1    3    3    0  502  0.22038910473E+02  0.94373494892E+02  0.22194090415E+01  0.96938103393E+02  0.00000000000E+00 0.  1.
         11    1    5    5    0    0  0.96863141566E+01 -0.10859744679E+03 -0.29646951890E+02  0.11298748554E+03  0.00000000000E+00 0.  1.
        -11    1    5    5    0    0 -0.87743501043E+02 -0.10005560265E+04 -0.54927265282E+02  0.10058967584E+04  0.00000000000E+00 0. -1.
          3    1    6    6  503    0  0.10568436373E+02  0.72691909843E+02  0.13668656019E+02  0.74717051343E+02  0.00000000000E+00 0. -1.
         -3    1    6    6    0  503 -0.86599088776E+02  0.80803273747E+02  0.60819681202E+02  0.13314505190E+03  0.00000000000E+00 0.  1.
<mgrwt>
<rscale>  0 0.23100295E+04</rscale>
<asrwt>0</asrwt>
<pdfrwt beam="1">  1        1 0.19542057E+00 0.23100295E+04</pdfrwt>
<pdfrwt beam="2">  1       -2 0.16157645E+00 0.23100295E+04</pdfrwt>
<totfact> 0.18466669E+00</totfact>
</mgrwt>
</event>
<event>
12    4  0.4320235E-008  0.2056521E+04  0.7818608E-02  0.8580642E-01
          1   -1    0    0  501    0  0.00000000000E+00  0.00000000000E+00  0.12893115408E+04  0.12893115408E+04  0.00000000000E+00 0. -1.
         -2   -1    0    0    0  501 -0.00000000000E+00 -0.00000000000E+00 -0.82006501238E+03  0.82006501238E+03  0.00000000000E+00 0.  1.
        -24    2    1    2    0    0 -0.44197093021E+03 -0.46953115639E+03 -0.32821622087E+03  0.72790664436E+03  0.79526003852E+02 0.  0.
        254    2    1    2    0    0  0.44197093021E+03  0.46953115639E+03  0.79746274933E+03  0.13814699089E+04  0.92558871132E+03 0.  0.
         23    2    4    4    0    0  0.22840710439E+03  0.11024586852E+03  0.90173089655E+03  0.94116113108E+03  0.91332951420E+02 0.  0.
         23    2    4    4    0    0  0.21356382583E+03  0.35928528788E+03 -0.10426814722E+03  0.44030877777E+03  0.91129289868E+02 0.  0.
          3    1    3    3  502    0 -0.53263935327E+02 -0.28553665058E+02 -0.17063772740E+02  0.62797539242E+02  0.00000000000E+00 0. -1.
         -4    1    3    3    0  502 -0.38870699489E+03 -0.44097749134E+03 -0.31115244813E+03  0.66510910512E+03  0.00000000000E+00 0.  1.
         11    1    5    5    0    0  0.18661636727E+03  0.68513384704E+02  0.79174981447E+03  0.81632562200E+03  0.00000000000E+00 0. -1.
        -11    1    5    5    0    0  0.41790737119E+02  0.41732483811E+02  0.10998108208E+03  0.12483550909E+03  0.00000000000E+00 0.  1.
          4    1    6    6  503    0  0.12038125145E+03  0.21331891713E+03 -0.14799431482E+02  0.24538873096E+03  0.00000000000E+00 0. -1.
         -4    1    6    6    0  503  0.93182574372E+02  0.14596637075E+03 -0.89468715737E+02  0.19492004682E+03  0.00000000000E+00 0.  1.
<mgrwt>
<rscale>  0 0.20565206E+04</rscale>
<asrwt>0</asrwt>
<pdfrwt beam="1">  1        1 0.19835562E+00 0.20565206E+04</pdfrwt>
<pdfrwt beam="2">  1       -2 0.12616385E+00 0.20565206E+04</pdfrwt>
<totfact> 0.34932623E+00</totfact>
</mgrwt>
</event>
<event>
12    4  0.4320235E-008  0.1586855E+04  0.7818608E-02  0.8828665E-01
         -2   -1    0    0    0  501 -0.00000000000E+00  0.00000000000E+00  0.82557580744E+03  0.82557580744E+03  0.00000000000E+00 0.  1.
          1   -1    0    0  501    0  0.00000000000E+00 -0.00000000000E+00 -0.76253058895E+03  0.76253058895E+03  0.00000000000E+00 0. -1.
        -24    2    1    2    0    0  0.54662362618E+02  0.57356552924E+03  0.56816673601E+02  0.58442945072E+03  0.79776301340E+02 0.  0.
        254    2    1    2    0    0 -0.54662362618E+02 -0.57356552924E+03  0.62285448910E+01  0.10036769457E+04  0.82180485900E+03 0.  0.
         23    2    4    4    0    0  0.23173831942E+03 -0.31196866706E+03 -0.30112456791E+03  0.50013181584E+03  0.91808114567E+02 0.  0.
         23    2    4    4    0    0 -0.28640068204E+03 -0.26159686218E+03  0.30735311280E+03  0.50354512983E+03  0.92916590800E+02 0.  0.
          3    1    3    3  502    0  0.49706978581E+02  0.17708848185E+03  0.35660922044E+02  0.18735745377E+03  0.00000000000E+00 0. -1.
         -4    1    3    3    0  502  0.49553840367E+01  0.39647704739E+03  0.21155751557E+02  0.39707199695E+03  0.00000000000E+00 0.  1.
         11    1    5    5    0    0  0.41424767273E+02 -0.88661294722E+02 -0.34749804054E+02  0.10384789554E+03  0.00000000000E+00 0. -1.
        -11    1    5    5    0    0  0.19031355215E+03 -0.22330737234E+03 -0.26637476386E+03  0.39628392030E+03  0.00000000000E+00 0.  1.
          2    1    6    6  503    0 -0.36176093232E+01 -0.16369420790E+02 -0.33422755432E+01  0.17094321865E+02  0.00000000000E+00 0. -1.
         -2    1    6    6    0  503 -0.28278307272E+03 -0.24522744139E+03  0.31069538834E+03  0.48645080796E+03  0.00000000000E+00 0.  1.
<mgrwt>
<rscale>  0 0.15868545E+04</rscale>
<asrwt>0</asrwt>
<pdfrwt beam="1">  1        1 0.11731240E+00 0.15868545E+04</pdfrwt>
<pdfrwt beam="2">  1       -2 0.12701166E+00 0.15868545E+04</pdfrwt>
<totfact> 0.92452377E+00</totfact>
</mgrwt>
</event>
<event>
12    4  0.4320235E-008  0.2774936E+04  0.7818608E-02  0.8311092E-01
         -2   -1    0    0    0  501 -0.00000000000E+00  0.00000000000E+00  0.87819879178E+03  0.87819879178E+03  0.00000000000E+00 0.  1.
          1   -1    0    0  501    0  0.00000000000E+00 -0.00000000000E+00 -0.21920631654E+04  0.21920631654E+04  0.00000000000E+00 0. -1.
        -24    2    1    2    0    0 -0.62198937500E+03  0.47432449403E+03  0.44276156873E+03  0.90235935318E+03  0.79750155417E+02 0.  0.
        254    2    1    2    0    0  0.62198937500E+03 -0.47432449403E+03 -0.17566259424E+04  0.21679026040E+04  0.10011056342E+04 0.  0.
         23    2    4    4    0    0 -0.39237891291E+02 -0.37283116094E+03 -0.12919716803E+04  0.13481891026E+04  0.88771318050E+02 0.  0.
         23    2    4    4    0    0  0.66122726629E+03 -0.10149333309E+03 -0.46465426203E+03  0.81971350141E+03  0.92218473362E+02 0.  0.
          3    1    3    3  502    0 -0.16167691558E+03  0.16438087487E+03  0.11200470611E+03  0.25633094087E+03  0.00000000000E+00 0. -1.
         -4    1    3    3    0  502 -0.46031245942E+03  0.30994361916E+03  0.33075686262E+03  0.64602841232E+03  0.00000000000E+00 0.  1.
         11    1    5    5    0    0 -0.40947343904E+01 -0.16600060333E+03 -0.72155670843E+03  0.74041680872E+03  0.00000000000E+00 0. -1.
        -11    1    5    5    0    0 -0.35143156901E+02 -0.20683055761E+03 -0.57041497192E+03  0.60777229390E+03  0.00000000000E+00 0.  1.
          3    1    6    6  503    0  0.28431740741E+03 -0.39203680455E+01 -0.22430582149E+03  0.36216689384E+03  0.00000000000E+00 0. -1.
         -3    1    6    6    0  503  0.37690985888E+03 -0.97572965045E+02 -0.24034844054E+03  0.45754660757E+03  0.00000000000E+00 0.  1.
<mgrwt>
<rscale>  0 0.27749358E+04</rscale>
<asrwt>0</asrwt>
<pdfrwt beam="1">  1        1 0.33724049E+00 0.27749358E+04</pdfrwt>
<pdfrwt beam="2">  1       -2 0.13510751E+00 0.27749358E+04</pdfrwt>
<totfact> 0.66239715E-01</totfact>
</mgrwt>
</event>
<event>
12    4  0.4320235E-008  0.1188248E+04  0.7818608E-02  0.9123205E-01
          1   -1    0    0  501    0  0.00000000000E+00  0.00000000000E+00  0.35264602741E+03  0.35264602741E+03  0.00000000000E+00 0. -1.
         -2   -1    0    0    0  501 -0.00000000000E+00 -0.00000000000E+00 -0.10009568245E+04  0.10009568245E+04  0.00000000000E+00 0.  1.
        -24    2    1    2    0    0 -0.12285093542E+03 -0.10476099445E+03 -0.33987894336E+03  0.38435573649E+03  0.78386336439E+02 0.  0.
        254    2    1    2    0    0  0.12285093542E+03  0.10476099445E+03 -0.30843185375E+03  0.96924711545E+03  0.90456760063E+03 0.  0.
         23    2    4    4    0    0  0.32144154142E+03 -0.18502115850E+03  0.12414262109E+03  0.40282115143E+03  0.96415745708E+02 0.  0.
         23    2    4    4    0    0 -0.19859060600E+03  0.28978215295E+03 -0.43257447484E+03  0.56642596402E+03  0.10151734568E+03 0.  0.
          1    1    3    3  502    0  0.37560719061E+01 -0.30823634073E+02 -0.40795278617E+02  0.51268501549E+02  0.00000000000E+00 0. -1.
         -2    1    3    3    0  502 -0.12660700733E+03 -0.73937360381E+02 -0.29908366474E+03  0.33308723494E+03  0.00000000000E+00 0.  1.
         11    1    5    5    0    0  0.12449230054E+03 -0.84837862849E+02  0.99368487479E+02  0.18047130567E+03  0.00000000000E+00 0.  1.
        -11    1    5    5    0    0  0.19694924088E+03 -0.10018329565E+03  0.24774133613E+02  0.22234984575E+03  0.00000000000E+00 0. -1.
          2    1    6    6  503    0 -0.88510058585E+02  0.18466965690E+03 -0.30736633913E+03  0.36933856972E+03  0.00000000000E+00 0. -1.
         -2    1    6    6    0  503 -0.11008054742E+03  0.10511249605E+03 -0.12520813571E+03  0.19708739430E+03  0.00000000000E+00 0.  1.
<mgrwt>
<rscale>  0 0.11882482E+04</rscale>
<asrwt>0</asrwt>
<pdfrwt beam="1">  1        1 0.54253235E-01 0.11882482E+04</pdfrwt>
<pdfrwt beam="2">  1       -2 0.15399336E+00 0.11882482E+04</pdfrwt>
<totfact> 0.17116187E+01</totfact>
</mgrwt>
</event>
<event>
12    4  0.4320235E-008  0.1407571E+04  0.7818608E-02  0.8948356E-01
         -2   -1    0    0    0  501 -0.00000000000E+00  0.00000000000E+00  0.50002011950E+03  0.50002011950E+03  0.00000000000E+00 0.  1.
          1   -1    0    0  501    0  0.00000000000E+00 -0.00000000000E+00 -0.99058816508E+03  0.99058816508E+03  0.00000000000E+00 0. -1.
        -24    2    1    2    0    0  0.58127146447E+02  0.11154514847E+03 -0.56241766767E+03  0.58184831611E+03  0.80079615059E+02 0.  0.
        254    2    1    2    0    0 -0.58127146447E+02 -0.11154514847E+03  0.71849622089E+02  0.90875996847E+03  0.89714058363E+03 0.  0.
         23    2    4    4    0    0 -0.43731461575E+03  0.80513700182E+02 -0.51386118540E+02  0.45694577824E+03  0.91828002306E+02 0.  0.
         23    2    4    4    0    0  0.37918746931E+03 -0.19205884865E+03  0.12323574063E+03  0.45181419022E+03  0.90990529686E+02 0.  0.
          3    1    3    3  502    0  0.55100303645E+02  0.11936968411E+03 -0.44200610314E+03  0.46114483643E+03  0.00000000000E+00 0. -1.
         -4    1    3    3    0  502  0.30268428023E+01 -0.78245356402E+01 -0.12041156453E+03  0.12070347969E+03  0.00000000000E+00 0.  1.
         11    1    5    5    0    0 -0.14263150396E+03  0.40325443228E+02  0.23942025852E+02  0.15014362423E+03  0.00000000000E+00 0. -1.
        -11    1    5    5    0    0 -0.29468311179E+03  0.40188256954E+02 -0.75328144391E+02  0.30680215402E+03  0.00000000000E+00 0.  1.
          1    1    6    6  503    0  0.20345359067E+03 -0.12686493166E+03  0.27486099650E+02  0.24133702600E+03  0.00000000000E+00 0. -1.
         -1    1    6    6    0  503  0.17573387864E+03 -0.65193916990E+02  0.95749640979E+02  0.21047716423E+03  0.00000000000E+00 0.  1.
<mgrwt>
<rscale>  0 0.14075710E+04</rscale>
<asrwt>0</asrwt>
<pdfrwt beam="1">  1        1 0.15239818E+00 0.14075710E+04</pdfrwt>
<pdfrwt beam="2">  1       -2 0.76926172E-01 0.14075710E+04</pdfrwt>
<totfact> 0.19843632E+01</totfact>
</mgrwt>
</event>
<event>
12    4  0.4320235E-008  0.1560767E+04  0.7818608E-02  0.8845020E-01
          3   -1    0    0  501    0  0.00000000000E+00  0.00000000000E+00  0.64049774487E+03  0.64049774487E+03  0.00000000000E+00 0. -1.
         -4   -1    0    0    0  501 -0.00000000000E+00 -0.00000000000E+00 -0.95082012304E+03  0.95082012304E+03  0.00000000000E+00 0.  1.
        -24    2    1    2    0    0 -0.35108909163E+03 -0.10157530059E+03  0.28006415877E+03  0.46714711128E+03  0.78799737312E+02 0.  0.
        254    2    1    2    0    0  0.35108909163E+03  0.10157530059E+03 -0.59038653695E+03  0.11241707566E+04  0.88409418904E+03 0.  0.
         23    2    4    4    0    0  0.26682539759E+03 -0.34883423558E+03 -0.12722138931E+03  0.46553919389E+03  0.87523382202E+02 0.  0.
         23    2    4    4    0    0  0.84263694036E+02  0.45040953618E+03 -0.46316514763E+03  0.65863156274E+03  0.96459634250E+02 0.  0.
          3    1    3    3  502    0 -0.29127909738E+03 -0.11027783335E+03  0.25138183198E+03  0.40024684702E+03  0.00000000000E+00 0. -1.
         -4    1    3    3    0  502 -0.59809994250E+02  0.87025327601E+01  0.28682326798E+02  0.66900264269E+02  0.00000000000E+00 0.  1.
         11    1    5    5    0    0  0.27369701735E+03 -0.33761985681E+03 -0.12238000907E+03  0.45152418721E+03  0.00000000000E+00 0.  1.
        -11    1    5    5    0    0 -0.68716197604E+01 -0.11214378774E+02 -0.48413802397E+01  0.14015006673E+02  0.00000000000E+00 0. -1.
          3    1    6    6  503    0  0.10459203468E+02  0.17778626085E+02 -0.96160330277E-01  0.20627256955E+02  0.00000000000E+00 0. -1.
         -3    1    6    6    0  503  0.73804490567E+02  0.43263091009E+03 -0.46306898730E+03  0.63800430578E+03  0.00000000000E+00 0.  1.
<mgrwt>
<rscale>  0 0.15607667E+04</rscale>
<asrwt>0</asrwt>
<pdfrwt beam="1">  1        3 0.98538115E-01 0.15607667E+04</pdfrwt>
<pdfrwt beam="2">  1       -4 0.14628002E+00 0.15607667E+04</pdfrwt>
<totfact> 0.63461190E-01</totfact>
</mgrwt>
</event>
<event>
12    4  0.4320235E-008  0.1398483E+04  0.7818608E-02  0.8954917E-01
          1   -1    0    0  501    0  0.00000000000E+00  0.00000000000E+00  0.36444818064E+03  0.36444818064E+03  0.00000000000E+00 0. -1.
         -2   -1    0    0    0  501 -0.00000000000E+00 -0.00000000000E+00 -0.13415863054E+04  0.13415863054E+04  0.00000000000E+00 0.  1.
        -24    2    1    2    0    0 -0.29162150621E+03  0.14422756110E+03 -0.57268866354E+03  0.66278126500E+03  0.73905396486E+02 0.  0.
        254    2    1    2    0    0  0.29162150621E+03 -0.14422756110E+03 -0.40444946125E+03  0.10432532211E+04  0.90496034403E+03 0.  0.
         23    2    4    4    0    0  0.29841758660E+03  0.28210390385E+03 -0.43622354407E+03  0.60602505566E+03  0.91322062660E+02 0.  0.
         23    2    4    4    0    0 -0.67960803881E+01 -0.42633146495E+03  0.31774082820E+02  0.43722816539E+03  0.91401157318E+02 0.  0.
          1    1    3    3  502    0 -0.94371693363E+02  0.18000481848E+02 -0.21179147796E+03  0.23256324729E+03  0.00000000000E+00 0. -1.
         -2    1    3    3    0  502 -0.19724981285E+03  0.12622707925E+03 -0.36089718558E+03  0.43021801771E+03  0.00000000000E+00 0.  1.
         11    1    5    5    0    0  0.82527977248E+02  0.56391132950E+02 -0.16218150682E+03  0.19050897107E+03  0.00000000000E+00 0. -1.
        -11    1    5    5    0    0  0.21588960935E+03  0.22571277090E+03 -0.27404203725E+03  0.41551608459E+03  0.00000000000E+00 0.  1.
          1    1    6    6  503    0  0.21269194249E+02 -0.12079984765E+03  0.43615674222E+02  0.13018182997E+03  0.00000000000E+00 0. -1.
         -1    1    6    6    0  503 -0.28065274637E+02 -0.30553161730E+03 -0.11841591401E+02  0.30704633543E+03  0.00000000000E+00 0.  1.
<mgrwt>
<rscale>  0 0.13984830E+04</rscale>
<asrwt>0</asrwt>
<pdfrwt beam="1">  1        1 0.56068951E-01 0.13984830E+04</pdfrwt>
<pdfrwt beam="2">  1       -2 0.20639789E+00 0.13984830E+04</pdfrwt>
<totfact> 0.69823472E+00</totfact>
</mgrwt>
</event>
<event>
12    4  0.4320235E-008  0.1981265E+04  0.7818608E-02  0.8615430E-01
          1   -1    0    0  501    0  0.00000000000E+00  0.00000000000E+00  0.18301974893E+04  0.18301974893E+04  0.00000000000E+00 0. -1.
         -2   -1    0    0    0  501 -0.00000000000E+00 -0.00000000000E+00 -0.53620042434E+03  0.53620042434E+03  0.00000000000E+00 0.  1.
        -24    2    1    2    0    0 -0.59167181688E+03 -0.36592326729E+03  0.94153111547E+02  0.70660141814E+03  0.80283119433E+02 0.  0.
        254    2    1    2    0    0  0.59167181688E+03  0.36592326729E+03  0.11998439534E+04  0.16597964955E+04  0.91176944318E+03 0.  0.
         23    2    4    4    0    0  0.54464411242E+03 -0.14967095816E+03  0.38394938399E+03  0.68922983559E+03  0.92639256747E+02 0.  0.
         23    2    4    4    0    0  0.47027704465E+02  0.51559422545E+03  0.81589456946E+03  0.97056665995E+03  0.90921299046E+02 0.  0.
          3    1    3    3  502    0 -0.53845627081E+03 -0.35621556580E+03  0.94549845183E+02  0.65250621309E+03  0.00000000000E+00 0. -1.
         -4    1    3    3    0  502 -0.53215546068E+02 -0.97077014850E+01 -0.39673363620E+00  0.54095205046E+02  0.00000000000E+00 0.  1.
         11    1    5    5    0    0  0.15928613908E+03 -0.59210533851E+02  0.16507898831E+03  0.23691566813E+03  0.00000000000E+00 0.  1.
        -11    1    5    5    0    0  0.38535797334E+03 -0.90460424311E+02  0.21887039567E+03  0.45231416746E+03  0.00000000000E+00 0. -1.
          3    1    6    6  503    0  0.28348428792E+01  0.40351305707E+03  0.65934489278E+03  0.77302426300E+03  0.00000000000E+00 0. -1.
         -3    1    6    6    0  503  0.44192861585E+02  0.11208116838E+03  0.15654967668E+03  0.19754239694E+03  0.00000000000E+00 0.  1.
<mgrwt>
<rscale>  0 0.19812649E+04</rscale>
<asrwt>0</asrwt>
<pdfrwt beam="1">  1        1 0.28156884E+00 0.19812649E+04</pdfrwt>
<pdfrwt beam="2">  1       -2 0.82492374E-01 0.19812649E+04</pdfrwt>
<totfact> 0.40888081E+00</totfact>
</mgrwt>
</event>
<event>
12    4  0.4320235E-008  0.1935231E+04  0.7818608E-02  0.8637516E-01
         -2   -1    0    0    0  501 -0.00000000000E+00  0.00000000000E+00  0.61869148553E+03  0.61869148553E+03  0.00000000000E+00 0.  1.
          1   -1    0    0  501    0  0.00000000000E+00 -0.00000000000E+00 -0.15133222840E+04  0.15133222840E+04  0.00000000000E+00 0. -1.
        -24    2    1    2    0    0 -0.57343234765E+03 -0.42396243078E+03 -0.64713657728E+03  0.96797239052E+03  0.98061200847E+02 0.  0.
        254    2    1    2    0    0  0.57343234765E+03  0.42396243078E+03 -0.24749422118E+03  0.11640413790E+04  0.88609826908E+03 0.  0.
         23    2    4    4    0    0  0.74904512612E+03  0.29596366385E+03 -0.37695753265E+03  0.89431304348E+03  0.95056546439E+02 0.  0.
         23    2    4    4    0    0 -0.17561277847E+03  0.12799876693E+03  0.12946331147E+03  0.26972833553E+03  0.93643439025E+02 0.  0.
          3    1    3    3  502    0 -0.37538705011E+03 -0.25451157930E+03 -0.46801536405E+03  0.65171309820E+03  0.00000000000E+00 0. -1.
         -4    1    3    3    0  502 -0.19804529755E+03 -0.16945085148E+03 -0.17912121323E+03  0.31625929232E+03  0.00000000000E+00 0.  1.
         11    1    5    5    0    0  0.67560572755E+03  0.25957747278E+03 -0.30555280229E+03  0.78561191339E+03  0.00000000000E+00 0. -1.
        -11    1    5    5    0    0  0.73439398567E+02  0.36386191068E+02 -0.71404730369E+02  0.10870113008E+03  0.00000000000E+00 0.  1.
          3    1    6    6  503    0 -0.14825197722E+03  0.81077818460E+02  0.13337799351E+03  0.21527180621E+03  0.00000000000E+00 0. -1.
         -3    1    6    6    0  503 -0.27360801253E+02  0.46920948466E+02 -0.39146820367E+01  0.54456529320E+02  0.00000000000E+00 0.  1.
<mgrwt>
<rscale>  0 0.19352309E+04</rscale>
<asrwt>0</asrwt>
<pdfrwt beam="1">  1        1 0.23281881E+00 0.19352309E+04</pdfrwt>
<pdfrwt beam="2">  1       -2 0.95183306E-01 0.19352309E+04</pdfrwt>
<totfact> 0.48646070E+00</totfact>
</mgrwt>
</event>
<event>
12    4  0.4320235E-008  0.1904747E+04  0.7818608E-02  0.8652497E-01
         -2   -1    0    0    0  501 -0.00000000000E+00  0.00000000000E+00  0.11637978389E+04  0.11637978389E+04  0.00000000000E+00 0.  1.
          1   -1    0    0  501    0  0.00000000000E+00 -0.00000000000E+00 -0.77935826709E+03  0.77935826709E+03  0.00000000000E+00 0. -1.
        -24    2    1    2    0    0  0.32413201053E+03  0.17747495188E+03  0.88537701109E+03  0.96257096172E+03  0.78047971082E+02 0.  0.
        254    2    1    2    0    0 -0.32413201053E+03 -0.17747495188E+03 -0.50093743929E+03  0.98058514426E+03  0.75766086627E+03 0.  0.
         23    2    4    4    0    0 -0.40061190020E+03  0.15316856330E+03 -0.44547168165E+03  0.62521638304E+03  0.92195461471E+02 0.  0.
         23    2    4    4    0    0  0.76479889661E+02 -0.33064351518E+03 -0.55465757641E+02  0.35536876122E+03  0.89644846640E+02 0.  0.
          1    1    3    3  502    0  0.69792204452E-01  0.77119507299E+01  0.49540539000E+01  0.91663354214E+01  0.00000000000E+00 0. -1.
         -2    1    3    3    0  502  0.32406221833E+03  0.16976300115E+03  0.88042295719E+03  0.95340462630E+03  0.00000000000E+00 0.  1.
         11    1    5    5    0    0 -0.42100547951E+02 -0.10401879304E+02 -0.59426713324E+02  0.73567584487E+02  0.00000000000E+00 0. -1.
        -11    1    5    5    0    0 -0.35851135224E+03  0.16357044260E+03 -0.38604496832E+03  0.55164879856E+03  0.00000000000E+00 0.  1.
          2    1    6    6  503    0  0.59678446806E+02 -0.24175880672E+03  0.46360789178E+00  0.24901616930E+03  0.00000000000E+00 0.  1.
         -2    1    6    6    0  503  0.16801442855E+02 -0.88884708458E+02 -0.55929365533E+02  0.10635259192E+03  0.00000000000E+00 0. -1.
<mgrwt>
<rscale>  0 0.19047472E+04</rscale>
<asrwt>0</asrwt>
<pdfrwt beam="1">  1        1 0.11990127E+00 0.19047472E+04</pdfrwt>
<pdfrwt beam="2">  1       -2 0.17904582E+00 0.19047472E+04</pdfrwt>
<totfact> 0.34756716E+00</totfact>
</mgrwt>
</event>
<event>
12    4  0.4320235E-008  0.1566676E+04  0.7818608E-02  0.8841286E-01
         -2   -1    0    0    0  501 -0.00000000000E+00  0.00000000000E+00  0.31136740331E+03  0.31136740331E+03  0.00000000000E+00 0.  1.
          1   -1    0    0  501    0  0.00000000000E+00 -0.00000000000E+00 -0.19707212315E+04  0.19707212315E+04  0.00000000000E+00 0. -1.
        -24    2    1    2    0    0  0.28258447260E+02  0.42737835072E+03 -0.12913920032E+03  0.45443281074E+03  0.79883990348E+02 0.  0.
        254    2    1    2    0    0 -0.28258447260E+02 -0.42737835072E+03 -0.15302146279E+04  0.18276558241E+04  0.90294972696E+03 0.  0.
         23    2    4    4    0    0 -0.28108438398E+03 -0.41224318506E+03 -0.14639815934E+04  0.15491707074E+04  0.87948283398E+02 0.  0.
         23    2    4    4    0    0  0.25282593672E+03 -0.15135165659E+02 -0.66233034525E+02  0.27848511665E+03  0.94958505758E+02 0.  0.
          3    1    3    3  502    0  0.16695677751E+02  0.79820293081E+02  0.50175380362E+01  0.81701900412E+02  0.00000000000E+00 0. -1.
         -4    1    3    3    0  502  0.11562769510E+02  0.34755805764E+03 -0.13415673836E+03  0.37273091033E+03  0.00000000000E+00 0.  1.
         11    1    5    5    0    0 -0.46245393660E+02 -0.62081544854E+02 -0.34031253314E+03  0.34900626765E+03  0.00000000000E+00 0. -1.
        -11    1    5    5    0    0 -0.23483899032E+03 -0.35016164021E+03 -0.11236690602E+04  0.12001644398E+04  0.00000000000E+00 0.  1.
          3    1    6    6  503    0  0.94091669201E+02 -0.51279297201E+02 -0.34916814675E+02  0.11270311656E+03  0.00000000000E+00 0. -1.
         -3    1    6    6    0  503  0.15873426752E+03  0.36144131541E+02 -0.31316219850E+02  0.16578200009E+03  0.00000000000E+00 0.  1.
<mgrwt>
<rscale>  0 0.15666759E+04</rscale>
<asrwt>0</asrwt>
<pdfrwt beam="1">  1        1 0.30318788E+00 0.15666759E+04</pdfrwt>
<pdfrwt beam="2">  1       -2 0.47902678E-01 0.15666759E+04</pdfrwt>
<totfact> 0.10884573E+01</totfact>
</mgrwt>
</event>
<event>
12    4  0.4320235E-008  0.1299277E+04  0.7818608E-02  0.9030139E-01
         -2   -1    0    0    0  501 -0.00000000000E+00  0.00000000000E+00  0.13661983622E+04  0.13661983622E+04  0.00000000000E+00 0.  1.
          1   -1    0    0  501    0  0.00000000000E+00 -0.00000000000E+00 -0.30890851748E+03  0.30890851748E+03  0.00000000000E+00 0. -1.
        -24    2    1    2    0    0  0.27920342152E+02 -0.24038631441E+03  0.65172095859E+03  0.69929938981E+03  0.75593009344E+02 0.  0.
        254    2    1    2    0    0 -0.27920342152E+02  0.24038631441E+03  0.40556888609E+03  0.97580748984E+03  0.85390222520E+03 0.  0.
         23    2    4    4    0    0  0.29283655528E+03  0.27078753741E+03 -0.47894523115E+02  0.41246481496E+03  0.93563880384E+02 0.  0.
         23    2    4    4    0    0 -0.32075689743E+03 -0.30401223000E+02  0.45346340921E+03  0.56334267488E+03  0.88975750852E+02 0.  0.
          3    1    3    3  502    0  0.72588181904E+01 -0.24557428338E+02  0.23649369303E+02  0.34857573015E+02  0.00000000000E+00 0. -1.
         -4    1    3    3    0  502  0.20661523962E+02 -0.21582888607E+03  0.62807158929E+03  0.66444181680E+03  0.00000000000E+00 0.  1.
         11    1    5    5    0    0  0.29896009582E+03  0.25906812695E+03 -0.41458949882E+02  0.39775907007E+03  0.00000000000E+00 0.  1.
        -11    1    5    5    0    0 -0.61235405363E+01  0.11719410455E+02 -0.64355732329E+01  0.14705744896E+02  0.00000000000E+00 0. -1.
          1    1    6    6  503    0 -0.38076979591E+02  0.25326208221E+02  0.52988043682E+02  0.69992899431E+02  0.00000000000E+00 0. -1.
         -1    1    6    6    0  503 -0.28267991784E+03 -0.55727431221E+02  0.40047536553E+03  0.49334977545E+03  0.00000000000E+00 0.  1.
<mgrwt>
<rscale>  0 0.12992772E+04</rscale>
<asrwt>0</asrwt>
<pdfrwt beam="1">  1        1 0.47524388E-01 0.12992772E+04</pdfrwt>
<pdfrwt beam="2">  1       -2 0.21018436E+00 0.12992772E+04</pdfrwt>
<totfact> 0.82618873E+00</totfact>
</mgrwt>
</event>
<event>
12    4  0.4320235E-008  0.2086275E+04  0.7818608E-02  0.8567314E-01
         -2   -1    0    0    0  501 -0.00000000000E+00  0.00000000000E+00  0.40160166658E+03  0.40160166658E+03  0.00000000000E+00 0.  1.
          1   -1    0    0  501    0  0.00000000000E+00 -0.00000000000E+00 -0.27094893813E+04  0.27094893813E+04  0.00000000000E+00 0. -1.
        -24    2    1    2    0    0  0.63810925077E+03  0.16177239905E+01 -0.17813499444E+04  0.18939871737E+04  0.82424249621E+02 0.  0.
        254    2    1    2    0    0 -0.63810925077E+03 -0.16177239905E+01 -0.52653777033E+03  0.12171038741E+04  0.89270027664E+03 0.  0.
         23    2    4    4    0    0  0.12500597458E+03  0.22003984685E+03 -0.25876881155E+03  0.37384875304E+03  0.93581859547E+02 0.  0.
         23    2    4    4    0    0 -0.76311522534E+03 -0.22165757084E+03 -0.26776895878E+03  0.84325512110E+03  0.88893521258E+02 0.  0.
          3    1    3    3  502    0  0.56975762290E+03  0.45499089271E+01 -0.16545427384E+04  0.17499017469E+04  0.00000000000E+00 0. -1.
         -4    1    3    3    0  502  0.68351627866E+02 -0.29321849365E+01 -0.12680720598E+03  0.14408542685E+03  0.00000000000E+00 0.  1.
         11    1    5    5    0    0  0.13933903753E+03  0.20903570719E+03 -0.24684969789E+03  0.35220174277E+03  0.00000000000E+00 0.  1.
        -11    1    5    5    0    0 -0.14333062952E+02  0.11004139653E+02 -0.11919113662E+02  0.21647010269E+02  0.00000000000E+00 0. -1.
          2    1    6    6  503    0 -0.33784281921E+03 -0.14411159609E+03 -0.12674692412E+03  0.38854948899E+03  0.00000000000E+00 0. -1.
         -2    1    6    6    0  503 -0.42527240613E+03 -0.77545974748E+02 -0.14102203466E+03  0.45470563212E+03  0.00000000000E+00 0.  1.
<mgrwt>
<rscale>  0 0.20862746E+04</rscale>
<asrwt>0</asrwt>
<pdfrwt beam="1">  1        1 0.41684452E+00 0.20862746E+04</pdfrwt>
<pdfrwt beam="2">  1       -2 0.61784872E-01 0.20862746E+04</pdfrwt>
<totfact> 0.19038673E+00</totfact>
</mgrwt>
</event>
<event>
12    4  0.4320235E-008  0.1734160E+04  0.7818608E-02  0.8742118E-01
          1   -1    0    0  501    0  0.00000000000E+00  0.00000000000E+00  0.21356841807E+04  0.21356841807E+04  0.00000000000E+00 0. -1.
         -2   -1    0    0    0  501 -0.00000000000E+00 -0.00000000000E+00 -0.35203149656E+03  0.35203149656E+03  0.00000000000E+00 0.  1.
        -24    2    1    2    0    0 -0.12254249509E+03 -0.27968955481E+03 -0.13751780532E+03  0.34408962185E+03  0.79016523059E+02 0.  0.
        254    2    1    2    0    0  0.12254249509E+03  0.27968955481E+03  0.19211704895E+04  0.21436260554E+04  0.90055188950E+03 0.  0.
         23    2    4    4    0    0  0.27091944493E+02 -0.31693402505E+03  0.82117768417E+03  0.88534714622E+03  0.91244893818E+02 0.  0.
         23    2    4    4    0    0  0.95450550599E+02  0.59662357986E+03  0.10999928053E+04  0.12582789092E+04  0.90615329618E+02 0.  0.
          3    1    3    3  502    0 -0.14207821892E+02 -0.12085718928E+03 -0.37304361815E+02  0.12727897633E+03  0.00000000000E+00 0. -1.
         -2    1    3    3    0  502 -0.10833467320E+03 -0.15883236553E+03 -0.10021344350E+03  0.21681064553E+03  0.00000000000E+00 0.  1.
         11    1    5    5    0    0  0.27208511319E+02 -0.22636422614E+02  0.11426061342E+03  0.11961688215E+03  0.00000000000E+00 0. -1.
        -11    1    5    5    0    0 -0.11656682677E+00 -0.29429760244E+03  0.70691707075E+03  0.76573026407E+03  0.00000000000E+00 0.  1.
          3    1    6    6  503    0  0.22006069651E+02  0.32048200669E+03  0.65339950207E+03  0.72809607403E+03  0.00000000000E+00 0. -1.
         -3    1    6    6    0  503  0.73444480948E+02  0.27614157318E+03  0.44659330325E+03  0.53018283519E+03  0.00000000000E+00 0.  1.
<mgrwt>
<rscale>  0 0.17341604E+04</rscale>
<asrwt>0</asrwt>
<pdfrwt beam="1">  1        1 0.32856679E+00 0.17341604E+04</pdfrwt>
<pdfrwt beam="2">  1       -2 0.54158693E-01 0.17341604E+04</pdfrwt>
<totfact> 0.64486433E+00</totfact>
</mgrwt>
</event>
<event>
12    4  0.4320235E-008  0.1706804E+04  0.7818608E-02  0.8757493E-01
         -2   -1    0    0    0  501 -0.00000000000E+00  0.00000000000E+00  0.18916058335E+03  0.18916058335E+03  0.00000000000E+00 0.  1.
          1   -1    0    0  501    0  0.00000000000E+00 -0.00000000000E+00 -0.38501409238E+04  0.38501409238E+04  0.00000000000E+00 0. -1.
        -24    2    1    2    0    0  0.26853619747E+03  0.54992217998E+03 -0.11729829624E+04  0.13255030625E+04  0.80890328376E+02 0.  0.
        254    2    1    2    0    0 -0.26853619747E+03 -0.54992217998E+03 -0.24879973781E+04  0.27137984447E+04  0.89445231940E+03 0.  0.
         23    2    4    4    0    0  0.88549822947E+02 -0.23874550458E+03 -0.11752752291E+03  0.29477443165E+03  0.90767614345E+02 0.  0.
         23    2    4    4    0    0 -0.35708602042E+03 -0.31117667540E+03 -0.23704698552E+04  0.24190240131E+04  0.90600728825E+02 0.  0.
          1    1    3    3  502    0  0.90590989286E+02  0.10865137468E+03 -0.27568470100E+03  0.30986110264E+03  0.00000000000E+00 0. -1.
         -2    1    3    3    0  502  0.17794520819E+03  0.44127080530E+03 -0.89729826137E+03  0.10156419598E+04  0.00000000000E+00 0.  1.
         11    1    5    5    0    0  0.71225188953E+01 -0.12426801264E+03 -0.26154767510E+02  0.12719017692E+03  0.00000000000E+00 0.  1.
        -11    1    5    5    0    0  0.81427304052E+02 -0.11447749194E+03 -0.91372755397E+02  0.16758425473E+03  0.00000000000E+00 0. -1.
          1    1    6    6  503    0 -0.62503592898E+02 -0.15079598261E+02 -0.34432456891E+03  0.35027632259E+03  0.00000000000E+00 0. -1.
         -1    1    6    6    0  503 -0.29458242752E+03 -0.29609707714E+03 -0.20261452863E+04  0.20687476905E+04  0.00000000000E+00 0.  1.
<mgrwt>
<rscale>  0 0.17068039E+04</rscale>
<asrwt>0</asrwt>
<pdfrwt beam="1">  1        1 0.59232941E+00 0.17068039E+04</pdfrwt>
<pdfrwt beam="2">  1       -2 0.29101627E-01 0.17068039E+04</pdfrwt>
<totfact> 0.11859706E+00</totfact>
</mgrwt>
</event>
<event>
12    4  0.4320235E-008  0.4055744E+04  0.7818608E-02  0.7993395E-01
         -2   -1    0    0    0  501 -0.00000000000E+00  0.00000000000E+00  0.22188730199E+04  0.22188730199E+04  0.00000000000E+00 0.  1.
          1   -1    0    0  501    0  0.00000000000E+00 -0.00000000000E+00 -0.18533126919E+04  0.18533126919E+04  0.00000000000E+00 0. -1.
        -24    2    1    2    0    0 -0.13887148018E+04  0.12859488546E+04 -0.18992270516E+03  0.19038218148E+04  0.79206131172E+02 0.  0.
        254    2    1    2    0    0  0.13887148018E+04 -0.12859488546E+04  0.55548303317E+03  0.21683638970E+04  0.90058166326E+03 0.  0.
         23    2    4    4    0    0  0.12064891034E+04 -0.10167084392E+04  0.78025293903E+03  0.17623626292E+04  0.88404642502E+02 0.  0.
         23    2    4    4    0    0  0.18222569837E+03 -0.26924041542E+03 -0.22476990586E+03  0.40600126782E+03  0.92838098022E+02 0.  0.
          3    1    3    3  502    0 -0.10802756091E+04  0.10026891117E+04 -0.18081832299E+03  0.14849498686E+04  0.00000000000E+00 0. -1.
         -4    1    3    3    0  502 -0.30843919268E+03  0.28325974291E+03 -0.91043821650E+01  0.41887194620E+03  0.00000000000E+00 0.  1.
         11    1    5    5    0    0  0.56395352737E+03 -0.41941481042E+03  0.33550301650E+03  0.77879049707E+03  0.00000000000E+00 0. -1.
        -11    1    5    5    0    0  0.64253557606E+03 -0.59729362875E+03  0.44474992252E+03  0.98357213209E+03  0.00000000000E+00 0.  1.
          3    1    6    6  503    0  0.49947883859E+02 -0.88535673098E+02 -0.22239925045E+02  0.10405753591E+03  0.00000000000E+00 0. -1.
         -3    1    6    6    0  503  0.13227781451E+03 -0.18070474233E+03 -0.20252998082E+03  0.30194373191E+03  0.00000000000E+00 0.  1.
<mgrwt>
<rscale>  0 0.40557443E+04</rscale>
<asrwt>0</asrwt>
<pdfrwt beam="1">  1        1 0.28512503E+00 0.40557443E+04</pdfrwt>
<pdfrwt beam="2">  1       -2 0.34136508E+00 0.40557443E+04</pdfrwt>
<totfact> 0.45222812E-02</totfact>
</mgrwt>
</event>
<event>
12    4  0.4320235E-008  0.1334924E+04  0.7818608E-02  0.9002319E-01
         -2   -1    0    0    0  501 -0.00000000000E+00  0.00000000000E+00  0.29484699625E+03  0.29484699625E+03  0.00000000000E+00 0.  1.
          1   -1    0    0  501    0  0.00000000000E+00 -0.00000000000E+00 -0.15109721034E+04  0.15109721034E+04  0.00000000000E+00 0. -1.
        -24    2    1    2    0    0  0.21091948250E+03 -0.20353464122E+03 -0.61171870693E+03  0.68366847424E+03  0.85378146981E+02 0.  0.
        254    2    1    2    0    0 -0.21091948250E+03  0.20353464122E+03 -0.60440640025E+03  0.11221506254E+04  0.89888906504E+03 0.  0.
         23    2    4    4    0    0 -0.51365000228E+03 -0.11083786982E+02 -0.50849984815E+03  0.72853533962E+03  0.90732961704E+02 0.  0.
         23    2    4    4    0    0  0.30273051977E+03  0.21461842820E+03 -0.95906552105E+02  0.39361528583E+03  0.89599604756E+02 0.  0.
          3    1    3    3  502    0  0.21359915012E+03 -0.18127300245E+03 -0.58616468579E+03  0.64967186889E+03  0.00000000000E+00 0. -1.
         -4    1    3    3    0  502 -0.26796676196E+01 -0.22261638767E+02 -0.25554021140E+02  0.33996605354E+02  0.00000000000E+00 0.  1.
         11    1    5    5    0    0 -0.11582844013E+03 -0.20256461551E+02 -0.16650100242E+03  0.20383605075E+03  0.00000000000E+00 0. -1.
        -11    1    5    5    0    0 -0.39782156215E+03  0.91726745687E+01 -0.34199884573E+03  0.52469928888E+03  0.00000000000E+00 0.  1.
          1    1    6    6  503    0  0.10987923223E+03  0.13114255637E+03 -0.32840191255E+02  0.17421335749E+03  0.00000000000E+00 0. -1.
         -1    1    6    6    0  503  0.19285128755E+03  0.83475871833E+02 -0.63066360850E+02  0.21940192834E+03  0.00000000000E+00 0.  1.
<mgrwt>
<rscale>  0 0.13349241E+04</rscale>
<asrwt>0</asrwt>
<pdfrwt beam="1">  1        1 0.23245724E+00 0.13349241E+04</pdfrwt>
<pdfrwt beam="2">  1       -2 0.45361077E-01 0.13349241E+04</pdfrwt>
<totfact> 0.25473053E+01</totfact>
</mgrwt>
</event>
<event>
12    4  0.4320235E-008  0.1901653E+04  0.7818608E-02  0.8654034E-01
          1   -1    0    0  501    0  0.00000000000E+00  0.00000000000E+00  0.13596872936E+04  0.13596872936E+04  0.00000000000E+00 0. -1.
         -2   -1    0    0    0  501 -0.00000000000E+00 -0.00000000000E+00 -0.66491081289E+03  0.66491081289E+03  0.00000000000E+00 0.  1.
        -24    2    1    2    0    0 -0.14047363414E+03 -0.61218515200E+03 -0.66327719333E+02  0.63652775353E+03  0.79149936487E+02 0.  0.
        254    2    1    2    0    0  0.14047363414E+03  0.61218515200E+03  0.76110420000E+03  0.13880703529E+04  0.97619475472E+03 0.  0.
         23    2    4    4    0    0 -0.15901669034E+03  0.53580922908E+03  0.48503140989E+01  0.56606962025E+03  0.89629524455E+02 0.  0.
         23    2    4    4    0    0  0.29949032448E+03  0.76375922927E+02  0.75625388590E+03  0.82200073266E+03  0.90760831253E+02 0.  0.
          3    1    3    3  502    0  0.88508884900E+01 -0.18976643758E+02 -0.63469660369E+01  0.21880018585E+02  0.00000000000E+00 0. -1.
         -4    1    3    3    0  502 -0.14932452263E+03 -0.59320850824E+03 -0.59980753297E+02  0.61464773495E+03  0.00000000000E+00 0.  1.
         11    1    5    5    0    0 -0.10740648056E+03  0.33173532861E+03 -0.39592577276E+02  0.35093026727E+03  0.00000000000E+00 0.  1.
        -11    1    5    5    0    0 -0.51610209777E+02  0.20407390047E+03  0.44442891375E+02  0.21513935298E+03  0.00000000000E+00 0. -1.
          2    1    6    6  503    0  0.67914882646E+02  0.13186785473E+02  0.87979720406E+02  0.11192298155E+03  0.00000000000E+00 0. -1.
         -2    1    6    6    0  503  0.23157544183E+03  0.63189137454E+02  0.66827416550E+03  0.71007775111E+03  0.00000000000E+00 0.  1.
<mgrwt>
<rscale>  0 0.19016527E+04</rscale>
<asrwt>0</asrwt>
<pdfrwt beam="1">  1        1 0.20918266E+00 0.19016527E+04</pdfrwt>
<pdfrwt beam="2">  1       -2 0.10229397E+00 0.19016527E+04</pdfrwt>
<totfact> 0.52691762E+00</totfact>
</mgrwt>
</event>
<event>
12    4  0.4320235E-008  0.1635352E+04  0.7818608E-02  0.8799119E-01
         -4   -1    0    0    0  501 -0.00000000000E+00  0.00000000000E+00  0.76077255406E+03  0.76077255406E+03  0.00000000000E+00 0.  1.
          3   -1    0    0  501    0  0.00000000000E+00 -0.00000000000E+00 -0.87883605058E+03  0.87883605058E+03  0.00000000000E+00 0. -1.
        -24    2    1    2    0    0 -0.48577560853E+03 -0.21417328195E+03  0.15074482613E+03  0.55772178057E+03  0.80507424399E+02 0.  0.
        254    2    1    2    0    0  0.48577560853E+03  0.21417328195E+03 -0.26880832265E+03  0.10818868241E+04  0.90353364588E+03 0.  0.
         23    2    4    4    0    0  0.46100254759E+03  0.30704769570E+03  0.19908853182E+03  0.59591771357E+03  0.93166740433E+02 0.  0.
         23    2    4    4    0    0  0.24773060933E+02 -0.92874413754E+02 -0.46789685447E+03  0.48596911050E+03  0.89437959821E+02 0.  0.
          1    1    3    3  502    0 -0.20477711239E+03 -0.81591243188E+02  0.10321619898E+03  0.24340168540E+03  0.00000000000E+00 0. -1.
         -2    1    3    3    0  502 -0.28099849614E+03 -0.13258203876E+03  0.47528627156E+02  0.31432009518E+03  0.00000000000E+00 0.  1.
         11    1    5    5    0    0  0.16703744344E+03  0.59488120044E+02  0.59388179085E+02  0.18699545383E+03  0.00000000000E+00 0. -1.
        -11    1    5    5    0    0  0.29396510415E+03  0.24755957566E+03  0.13970035274E+03  0.40892225974E+03  0.00000000000E+00 0.  1.
          3    1    6    6  503    0  0.41179264532E+00 -0.29454908326E+02 -0.33888145592E+03  0.34015937788E+03  0.00000000000E+00 0. -1.
         -3    1    6    6    0  503  0.24361268288E+02 -0.63419505428E+02 -0.12901539855E+03  0.14580973261E+03  0.00000000000E+00 0.  1.
<mgrwt>
<rscale>  0 0.16353524E+04</rscale>
<asrwt>0</asrwt>
<pdfrwt beam="1">  1        3 0.13520555E+00 0.16353524E+04</pdfrwt>
<pdfrwt beam="2">  1       -4 0.11704193E+00 0.16353524E+04</pdfrwt>
<totfact> 0.52023809E-01</totfact>
</mgrwt>
</event>
<event>
12    4  0.4320235E-008  0.2218566E+04  0.7818608E-02  0.8510740E-01
          1   -1    0    0  501    0  0.00000000000E+00  0.00000000000E+00  0.10730484485E+04  0.10730484485E+04  0.00000000000E+00 0. -1.
         -2   -1    0    0    0  501 -0.00000000000E+00 -0.00000000000E+00 -0.11467415241E+04  0.11467415241E+04  0.00000000000E+00 0.  1.
        -24    2    1    2    0    0 -0.75276414353E+03  0.30294739563E+03 -0.48402379528E+03  0.94815453553E+03  0.79290658641E+02 0.  0.
        254    2    1    2    0    0  0.75276414353E+03 -0.30294739563E+03  0.41033071961E+03  0.12716354371E+04  0.88896254423E+03 0.  0.
         23    2    4    4    0    0  0.45457319715E+03 -0.11239968238E+03 -0.23346685738E+03  0.53126072956E+03  0.91982113019E+02 0.  0.
         23    2    4    4    0    0  0.29819094638E+03 -0.19054771325E+03  0.64379757699E+03  0.74037470750E+03  0.91940827965E+02 0.  0.
          1    1    3    3  502    0 -0.24651440960E+03  0.13506014161E+03 -0.14659874557E+03  0.31702017002E+03  0.00000000000E+00 0. -1.
         -2    1    3    3    0  502 -0.50624973392E+03  0.16788725402E+03 -0.33742504971E+03  0.63113436551E+03  0.00000000000E+00 0.  1.
         11    1    5    5    0    0  0.39417511448E+03 -0.81693973703E+02 -0.22952874916E+03  0.46339116620E+03  0.00000000000E+00 0.  1.
        -11    1    5    5    0    0  0.60398082668E+02 -0.30705708674E+02 -0.39381082136E+01  0.67869563365E+02  0.00000000000E+00 0. -1.
          3    1    6    6  503    0  0.12979328391E+02 -0.33159121727E+02  0.10369755648E+03  0.10964111245E+03  0.00000000000E+00 0. -1.
         -3    1    6    6    0  503  0.28521161799E+03 -0.15738859153E+03  0.54010002051E+03  0.63073359506E+03  0.00000000000E+00 0.  1.
<mgrwt>
<rscale>  0 0.22185664E+04</rscale>
<asrwt>0</asrwt>
<pdfrwt beam="1">  1        1 0.16508438E+00 0.22185664E+04</pdfrwt>
<pdfrwt beam="2">  1       -2 0.17642177E+00 0.22185664E+04</pdfrwt>
<totfact> 0.20368473E+00</totfact>
</mgrwt>
</event>
<event>
12    4  0.4320235E-008  0.1818569E+04  0.7818608E-02  0.8696487E-01
         -4   -1    0    0    0  501 -0.00000000000E+00  0.00000000000E+00  0.40655925943E+03  0.40655925943E+03  0.00000000000E+00 0.  1.
          3   -1    0    0  501    0  0.00000000000E+00 -0.00000000000E+00 -0.20336475040E+04  0.20336475040E+04  0.00000000000E+00 0. -1.
        -24    2    1    2    0    0 -0.26935701991E+03  0.46127480151E+03 -0.10971903076E+04  0.12225738528E+04  0.74381501462E+02 0.  0.
        254    2    1    2    0    0  0.26935701991E+03 -0.46127480151E+03 -0.52989793700E+03  0.12176329107E+04  0.95734551486E+03 0.  0.
         23    2    4    4    0    0 -0.34373964159E+03 -0.25569367537E+03 -0.26071309256E+03  0.50974879893E+03  0.91303475019E+02 0.  0.
         23    2    4    4    0    0  0.61309666149E+03 -0.20558112614E+03 -0.26918484445E+03  0.70788411174E+03  0.10241249642E+03 0.  0.
          1    1    3    3  502    0 -0.20292642318E+03  0.40172703578E+03 -0.91078762092E+03  0.10159221599E+04  0.00000000000E+00 0. -1.
         -2    1    3    3    0  502 -0.66430596726E+02  0.59547765731E+02 -0.18640268663E+03  0.20665169288E+03  0.00000000000E+00 0.  1.
         11    1    5    5    0    0 -0.34018541964E+03 -0.25871753663E+03 -0.24344247282E+03  0.49185884262E+03  0.00000000000E+00 0. -1.
        -11    1    5    5    0    0 -0.35542219511E+01  0.30238612513E+01 -0.17270619736E+02  0.17889956305E+02  0.00000000000E+00 0.  1.
          4    1    6    6  503    0  0.55121865612E+03 -0.20168966059E+03 -0.26952555900E+03  0.64588292515E+03  0.00000000000E+00 0. -1.
         -4    1    6    6    0  503  0.61878005372E+02 -0.38914655505E+01  0.34071455277E+00  0.62001186596E+02  0.00000000000E+00 0.  1.
<mgrwt>
<rscale>  0 0.18185689E+04</rscale>
<asrwt>0</asrwt>
<pdfrwt beam="1">  1        3 0.31286884E+00 0.18185689E+04</pdfrwt>
<pdfrwt beam="2">  1       -4 0.62547580E-01 0.18185689E+04</pdfrwt>
<totfact> 0.17065872E-01</totfact>
</mgrwt>
</event>
<event>
12    4  0.4320235E-008  0.1164532E+04  0.7818608E-02  0.9144481E-01
         -2   -1    0    0    0  501 -0.00000000000E+00  0.00000000000E+00  0.12973680955E+03  0.12973680955E+03  0.00000000000E+00 0.  1.
          1   -1    0    0  501    0  0.00000000000E+00 -0.00000000000E+00 -0.26132423753E+04  0.26132423753E+04  0.00000000000E+00 0. -1.
        -24    2    1    2    0    0 -0.16270509807E+02 -0.95657875379E+02 -0.96204419453E+03  0.97023260675E+03  0.80044489832E+02 0.  0.
        254    2    1    2    0    0  0.16270509807E+02  0.95657875379E+02 -0.15214613713E+04  0.17727465781E+04  0.90463836281E+03 0.  0.
         23    2    4    4    0    0 -0.22809669895E+03 -0.14197073607E+03 -0.88028919070E+02  0.29716705033E+03  0.91517054357E+02 0.  0.
         23    2    4    4    0    0  0.24436720875E+03  0.23762861145E+03 -0.14334324522E+04  0.14755795278E+04  0.80147727438E+02 0.  0.
          3    1    3    3  502    0 -0.46487219604E+02 -0.53647838882E+02 -0.65776132944E+03  0.66158077263E+03  0.00000000000E+00 0. -1.
         -4    1    3    3    0  502  0.30216709797E+02 -0.42010036496E+02 -0.30428286509E+03  0.30865183412E+03  0.00000000000E+00 0.  1.
         11    1    5    5    0    0 -0.18746162798E+03 -0.14877632747E+03 -0.90566936705E+02  0.25588792001E+03  0.00000000000E+00 0.  1.
        -11    1    5    5    0    0 -0.40635070962E+02  0.68055914024E+01  0.25380176354E+01  0.41279130319E+02  0.00000000000E+00 0. -1.
          1    1    6    6  503    0  0.52240630715E+02  0.48314495119E+02 -0.45991486689E+03  0.46538699887E+03  0.00000000000E+00 0. -1.
         -1    1    6    6    0  503  0.19212657804E+03  0.18931411633E+03 -0.97351758530E+03  0.10101925289E+04  0.00000000000E+00 0.  1.
<mgrwt>
<rscale>  0 0.11645321E+04</rscale>
<asrwt>0</asrwt>
<pdfrwt beam="1">  1        1 0.40203726E+00 0.11645321E+04</pdfrwt>
<pdfrwt beam="2">  1       -2 0.19959511E-01 0.11645321E+04</pdfrwt>
<totfact> 0.21287302E+01</totfact>
</mgrwt>
</event>
<event>
12    4  0.4320235E-008  0.1779998E+04  0.7818608E-02  0.8717009E-01
         -2   -1    0    0    0  501 -0.00000000000E+00  0.00000000000E+00  0.34622910073E+03  0.34622910073E+03  0.00000000000E+00 0.  1.
          1   -1    0    0  501    0  0.00000000000E+00 -0.00000000000E+00 -0.22877851602E+04  0.22877851602E+04  0.00000000000E+00 0. -1.
        -24    2    1    2    0    0  0.18067207810E+03  0.20142500848E+03 -0.16176555706E+04  0.16418961686E+04  0.76151490653E+02 0.  0.
        254    2    1    2    0    0 -0.18067207810E+03 -0.20142500848E+03 -0.32390048878E+03  0.99211809224E+03  0.89787100882E+03 0.  0.
         23    2    4    4    0    0  0.34768777851E+03 -0.16009252757E+03 -0.19183009873E+03  0.43786905900E+03  0.91728497985E+02 0.  0.
         23    2    4    4    0    0 -0.52835985661E+03 -0.41332480911E+02 -0.13207039004E+03  0.55424903324E+03  0.94217253563E+02 0.  0.
          3    1    3    3  502    0  0.65251426608E+02  0.12918676465E+03 -0.86440934089E+03  0.87644194186E+03  0.00000000000E+00 0. -1.
         -4    1    3    3    0  502  0.11542065149E+03  0.72238243826E+02 -0.75324622976E+03  0.76545422679E+03  0.00000000000E+00 0.  1.
         11    1    5    5    0    0  0.33233340329E+03 -0.15399222930E+03 -0.20218027413E+03  0.41837299252E+03  0.00000000000E+00 0.  1.
        -11    1    5    5    0    0  0.15354375225E+02 -0.61002982709E+01  0.10350175396E+02  0.19496066482E+02  0.00000000000E+00 0. -1.
          2    1    6    6  503    0 -0.26759090412E+02 -0.18298455766E+02  0.71093286236E+01  0.33187722980E+02  0.00000000000E+00 0. -1.
         -2    1    6    6    0  503 -0.50160076620E+03 -0.23034025145E+02 -0.13917971867E+03  0.52106131026E+03  0.00000000000E+00 0.  1.
<mgrwt>
<rscale>  0 0.17799975E+04</rscale>
<asrwt>0</asrwt>
<pdfrwt beam="1">  1        1 0.35196696E+00 0.17799975E+04</pdfrwt>
<pdfrwt beam="2">  1       -2 0.53266013E-01 0.17799975E+04</pdfrwt>
<totfact> 0.52363554E+00</totfact>
</mgrwt>
</event>
<event>
12    4  0.4320235E-008  0.3294296E+04  0.7818608E-02  0.8164348E-01
         -2   -1    0    0    0  501 -0.00000000000E+00  0.00000000000E+00  0.28935274472E+04  0.28935274472E+04  0.00000000000E+00 0.  1.
          1   -1    0    0  501    0  0.00000000000E+00 -0.00000000000E+00 -0.93764333726E+03  0.93764333726E+03  0.00000000000E+00 0. -1.
        -24    2    1    2    0    0 -0.40352511735E+03  0.82035454607E+03  0.23310580746E+04  0.25052009661E+04  0.79912652037E+02 0.  0.
        254    2    1    2    0    0  0.40352511735E+03 -0.82035454607E+03 -0.37517396469E+03  0.13259698183E+04  0.88409634862E+03 0.  0.
         23    2    4    4    0    0  0.10709098414E+03 -0.25434773093E+03 -0.58018425027E+03  0.64910910552E+03  0.92561436328E+02 0.  0.
         23    2    4    4    0    0  0.29643413321E+03 -0.56600681515E+03  0.20501028558E+03  0.67686071277E+03  0.88737236691E+02 0.  0.
          3    1    3    3  502    0 -0.22679519917E+03  0.45542151624E+03  0.14043858264E+04  0.14937015663E+04  0.00000000000E+00 0. -1.
         -4    1    3    3    0  502 -0.17672991818E+03  0.36493302984E+03  0.92667224817E+03  0.10114993998E+04  0.00000000000E+00 0.  1.
         11    1    5    5    0    0  0.13866892148E+02 -0.14060881845E+03 -0.32872505392E+03  0.35780342592E+03  0.00000000000E+00 0. -1.
        -11    1    5    5    0    0  0.93224091991E+02 -0.11373891247E+03 -0.25145919635E+03  0.29130567960E+03  0.00000000000E+00 0.  1.
          1    1    6    6  503    0  0.29000144929E+03 -0.53413528872E+03  0.17465973833E+03  0.63238229848E+03  0.00000000000E+00 0. -1.
         -1    1    6    6    0  503  0.64326839294E+01 -0.31871526429E+02  0.30350547249E+02  0.44478414290E+02  0.00000000000E+00 0.  1.
<mgrwt>
<rscale>  0 0.32942961E+04</rscale>
<asrwt>0</asrwt>
<pdfrwt beam="1">  1        1 0.14425282E+00 0.32942961E+04</pdfrwt>
<pdfrwt beam="2">  1       -2 0.44515807E+00 0.32942961E+04</pdfrwt>
<totfact> 0.46088442E-02</totfact>
</mgrwt>
</event>
<event>
12    4  0.4320235E-008  0.1124501E+04  0.7818608E-02  0.9181636E-01
          1   -1    0    0  501    0  0.00000000000E+00  0.00000000000E+00  0.96640143806E+03  0.96640143806E+03  0.00000000000E+00 0. -1.
         -2   -1    0    0    0  501 -0.00000000000E+00 -0.00000000000E+00 -0.32711601230E+03  0.32711601230E+03  0.00000000000E+00 0.  1.
        -24    2    1    2    0    0  0.54382540707E+02 -0.10932428410E+03  0.31419318754E+03  0.34649941988E+03  0.80219879410E+02 0.  0.
        254    2    1    2    0    0 -0.54382540707E+02  0.10932428410E+03  0.32509223823E+03  0.94701803048E+03  0.88104990033E+03 0.  0.
         23    2    4    4    0    0 -0.34198672284E+03  0.49150220316E+01 -0.14201409114E+03  0.38143410376E+03  0.91350409884E+02 0.  0.
         23    2    4    4    0    0  0.28760418213E+03  0.10440926207E+03  0.46710632937E+03  0.56558392672E+03  0.89885458487E+02 0.  0.
          3    1    3    3  502    0  0.65853335535E+02 -0.10140658528E+03  0.30866924895E+03  0.33150665542E+03  0.00000000000E+00 0. -1.
         -4    1    3    3    0  502 -0.11470794828E+02 -0.79176988225E+01  0.55239385875E+01  0.14992764460E+02  0.00000000000E+00 0.  1.
         11    1    5    5    0    0  0.55110127790E+01 -0.31872590730E+01 -0.16976851002E+01  0.65887796251E+01  0.00000000000E+00 0. -1.
        -11    1    5    5    0    0 -0.34749773562E+03  0.81022811046E+01 -0.14031640604E+03  0.37484532413E+03  0.00000000000E+00 0.  1.
          2    1    6    6  503    0  0.11233412289E+03  0.50558937879E+02  0.11463986811E+03  0.16827792703E+03  0.00000000000E+00 0.  1.
         -2    1    6    6    0  503  0.17527005924E+03  0.53850324188E+02  0.35246646126E+03  0.39730599969E+03  0.00000000000E+00 0. -1.
<mgrwt>
<rscale>  0 0.11245006E+04</rscale>
<asrwt>0</asrwt>
<pdfrwt beam="1">  1        1 0.14867714E+00 0.11245006E+04</pdfrwt>
<pdfrwt beam="2">  1       -2 0.50325541E-01 0.11245006E+04</pdfrwt>
<totfact> 0.52373680E+01</totfact>
</mgrwt>
</event>
<event>
12    4  0.4320235E-008  0.2005329E+04  0.7818608E-02  0.8604133E-01
         -2   -1    0    0    0  501 -0.00000000000E+00  0.00000000000E+00  0.67277663899E+03  0.67277663899E+03  0.00000000000E+00 0.  1.
          1   -1    0    0  501    0  0.00000000000E+00 -0.00000000000E+00 -0.14943094747E+04  0.14943094747E+04  0.00000000000E+00 0. -1.
        -24    2    1    2    0    0 -0.46277495868E+03  0.28557369545E+03  0.30611307586E+03  0.62920865969E+03  0.80531511166E+02 0.  0.
        254    2    1    2    0    0  0.46277495868E+03 -0.28557369545E+03 -0.11276459116E+04  0.15378774540E+04  0.89317902108E+03 0.  0.
         23    2    4    4    0    0  0.23275102654E+03 -0.10781681707E+03  0.87492643508E+02  0.28514957857E+03  0.88644306600E+02 0.  0.
         23    2    4    4    0    0  0.23002393215E+03 -0.17775687838E+03 -0.12151385551E+04  0.12527278754E+04  0.90867511554E+02 0.  0.
          1    1    3    3  502    0 -0.11393555744E+03  0.10840150125E+03  0.69189924624E+02  0.17181223004E+03  0.00000000000E+00 0. -1.
         -2    1    3    3    0  502 -0.34883940125E+03  0.17717219420E+03  0.23692315124E+03  0.45739642965E+03  0.00000000000E+00 0.  1.
         11    1    5    5    0    0  0.15999119024E+03 -0.90605119819E+02  0.20943162084E+02  0.18505427510E+03  0.00000000000E+00 0.  1.
        -11    1    5    5    0    0  0.72759836295E+02 -0.17211697255E+02  0.66549481425E+02  0.10009530348E+03  0.00000000000E+00 0. -1.
          2    1    6    6  503    0  0.14647690748E+03 -0.14558853014E+03 -0.69854942328E+03  0.72843860503E+03  0.00000000000E+00 0. -1.
         -2    1    6    6    0  503  0.83547024662E+02 -0.32168348243E+02 -0.51658913178E+03  0.52428927038E+03  0.00000000000E+00 0.  1.
<mgrwt>
<rscale>  0 0.20053294E+04</rscale>
<asrwt>0</asrwt>
<pdfrwt beam="1">  1        1 0.22989376E+00 0.20053294E+04</pdfrwt>
<pdfrwt beam="2">  1       -2 0.10350410E+00 0.20053294E+04</pdfrwt>
<totfact> 0.40876490E+00</totfact>
</mgrwt>
</event>
<event>
12    4  0.4320235E-008  0.3026920E+04  0.7818608E-02  0.8236085E-01
         -2   -1    0    0    0  501 -0.00000000000E+00  0.00000000000E+00  0.83526397319E+03  0.83526397319E+03  0.00000000000E+00 0.  1.
          1   -1    0    0  501    0  0.00000000000E+00 -0.00000000000E+00 -0.27423202628E+04  0.27423202628E+04  0.00000000000E+00 0. -1.
        -24    2    1    2    0    0  0.96953487392E+03 -0.96988596436E+03 -0.10340678030E+04  0.17191841505E+04  0.74975106239E+02 0.  0.
        254    2    1    2    0    0 -0.96953487392E+03  0.96988596436E+03 -0.87298848660E+03  0.18584000855E+04  0.90048060740E+03 0.  0.
         23    2    4    4    0    0 -0.84927237090E+03  0.10513187120E+04 -0.96345550498E+03  0.16625225196E+04  0.95916755409E+02 0.  0.
         23    2    4    4    0    0 -0.12026250302E+03 -0.81432747660E+02  0.90467018377E+02  0.19587756584E+03  0.95338226126E+02 0.  0.
          1    1    3    3  502    0  0.49720504327E+03 -0.51995803736E+03 -0.58466038793E+03  0.92703666857E+03  0.00000000000E+00 0. -1.
         -2    1    3    3    0  502  0.47232983065E+03 -0.44992792701E+03 -0.44940741507E+03  0.79214748194E+03  0.00000000000E+00 0.  1.
         11    1    5    5    0    0 -0.66754931324E+03  0.86345624035E+03 -0.73974211339E+03  0.13184829005E+04  0.00000000000E+00 0. -1.
        -11    1    5    5    0    0 -0.18172305766E+03  0.18786247168E+03 -0.22371339159E+03  0.34403961912E+03  0.00000000000E+00 0.  1.
          1    1    6    6  503    0 -0.11171424632E+03 -0.66525976764E+02  0.10967772337E+03  0.17010285541E+03  0.00000000000E+00 0. -1.
         -1    1    6    6    0  503 -0.85482566963E+01 -0.14906770896E+02 -0.19210704995E+02  0.25774710425E+02  0.00000000000E+00 0.  1.
<mgrwt>
<rscale>  0 0.30269201E+04</rscale>
<asrwt>0</asrwt>
<pdfrwt beam="1">  1        1 0.42189542E+00 0.30269201E+04</pdfrwt>
<pdfrwt beam="2">  1       -2 0.12850215E+00 0.30269201E+04</pdfrwt>
<totfact> 0.30592751E-01</totfact>
</mgrwt>
</event>
<event>
12    4  0.4320235E-008  0.1876665E+04  0.7818608E-02  0.8666560E-01
          1   -1    0    0  501    0  0.00000000000E+00  0.00000000000E+00  0.62767055349E+03  0.62767055349E+03  0.00000000000E+00 0. -1.
         -2   -1    0    0    0  501 -0.00000000000E+00 -0.00000000000E+00 -0.14027542170E+04  0.14027542170E+04  0.00000000000E+00 0.  1.
        -24    2    1    2    0    0 -0.59604230562E+03  0.31843467493E+03 -0.37012766662E+02  0.68139513061E+03  0.79134738468E+02 0.  0.
        254    2    1    2    0    0  0.59604230562E+03 -0.31843467493E+03 -0.73807089687E+03  0.13490296399E+04  0.90469069204E+03 0.  0.
         23    2    4    4    0    0  0.12246996503E+03  0.18939312609E+03  0.94248901851E+02  0.26094447135E+03  0.91326409543E+02 0.  0.
         23    2    4    4    0    0  0.47357234059E+03 -0.50782780103E+03 -0.83231979873E+03  0.10880851686E+04  0.94938134804E+02 0.  0.
          1    1    3    3  502    0 -0.25283563946E+03  0.10958152130E+03  0.16671640679E+02  0.27606505392E+03  0.00000000000E+00 0. -1.
         -2    1    3    3    0  502 -0.34320666616E+03  0.20885315363E+03 -0.53684407341E+02  0.40533007669E+03  0.00000000000E+00 0.  1.
         11    1    5    5    0    0  0.13647221336E+03  0.16052321440E+03  0.87580217452E+02  0.22817243889E+03  0.00000000000E+00 0.  1.
        -11    1    5    5    0    0 -0.14002248333E+02  0.28869911690E+02  0.66686843987E+01  0.32772032451E+02  0.00000000000E+00 0. -1.
          1    1    6    6  503    0  0.32852860370E+03 -0.40663287157E+03 -0.64908841964E+03  0.83342492895E+03  0.00000000000E+00 0.  1.
         -1    1    6    6    0  503  0.14504373690E+03 -0.10119492946E+03 -0.18323137909E+03  0.25466023962E+03  0.00000000000E+00 0. -1.
<mgrwt>
<rscale>  0 0.18766646E+04</rscale>
<asrwt>0</asrwt>
<pdfrwt beam="1">  1        1 0.96564702E-01 0.18766646E+04</pdfrwt>
<pdfrwt beam="2">  1       -2 0.21580834E+00 0.18766646E+04</pdfrwt>
<totfact> 0.27647554E+00</totfact>
</mgrwt>
</event>
<event>
12    4  0.4320235E-008  0.2065867E+04  0.7818608E-02  0.8576430E-01
         -2   -1    0    0    0  501 -0.00000000000E+00  0.00000000000E+00  0.88381124203E+03  0.88381124203E+03  0.00000000000E+00 0.  1.
          1   -1    0    0  501    0  0.00000000000E+00 -0.00000000000E+00 -0.12072163885E+04  0.12072163885E+04  0.00000000000E+00 0. -1.
        -24    2    1    2    0    0 -0.36278218472E+03 -0.32777922218E+03 -0.82672612212E+03  0.96394789037E+03  0.81665918890E+02 0.  0.
        254    2    1    2    0    0  0.36278218472E+03  0.32777922218E+03  0.50332097561E+03  0.11270797402E+04  0.88200147634E+03 0.  0.
         23    2    4    4    0    0  0.28655878376E+03 -0.23684006909E+03  0.35740081915E+02  0.38440698517E+03  0.91006713584E+02 0.  0.
         23    2    4    4    0    0  0.76223400962E+02  0.56461929127E+03  0.46758089369E+03  0.74267275504E+03  0.91246797222E+02 0.  0.
          3    1    3    3  502    0 -0.29009496856E+03 -0.30067036433E+03 -0.68425661182E+03  0.80172618118E+03  0.00000000000E+00 0. -1.
         -4    1    3    3    0  502 -0.72687216155E+02 -0.27108857846E+02 -0.14246951029E+03  0.16222170918E+03  0.00000000000E+00 0.  1.
         11    1    5    5    0    0  0.21504157844E+03 -0.14971900927E+03 -0.11295333528E+02  0.26227132278E+03  0.00000000000E+00 0. -1.
        -11    1    5    5    0    0  0.71517205314E+02 -0.87121059823E+02  0.47035415443E+02  0.12213566239E+03  0.00000000000E+00 0.  1.
          2    1    6    6  503    0  0.52244038550E+02  0.45833969925E+03  0.41971398303E+03  0.62367022297E+03  0.00000000000E+00 0. -1.
         -2    1    6    6    0  503  0.23979362412E+02  0.10627959202E+03  0.47866910662E+02  0.11900253207E+03  0.00000000000E+00 0.  1.
<mgrwt>
<rscale>  0 0.20658668E+04</rscale>
<asrwt>0</asrwt>
<pdfrwt beam="1">  1        1 0.18572560E+00 0.20658668E+04</pdfrwt>
<pdfrwt beam="2">  1       -2 0.13597096E+00 0.20658668E+04</pdfrwt>
<totfact> 0.33086797E+00</totfact>
</mgrwt>
</event>
<event>
12    4  0.4320235E-008  0.1964942E+04  0.7818608E-02  0.8623189E-01
          1   -1    0    0  501    0  0.00000000000E+00  0.00000000000E+00  0.36639559343E+04  0.36639559343E+04  0.00000000000E+00 0. -1.
         -2   -1    0    0    0  501 -0.00000000000E+00 -0.00000000000E+00 -0.26344462681E+03  0.26344462681E+03  0.00000000000E+00 0.  1.
        -24    2    1    2    0    0  0.31552355739E+03  0.55538688339E+03  0.22248039570E+04  0.23161068399E+04  0.81169830057E+02 0.  0.
        254    2    1    2    0    0 -0.31552355739E+03 -0.55538688339E+03  0.11757073504E+04  0.16112937211E+04  0.89775830622E+03 0.  0.
         23    2    4    4    0    0 -0.93616718908E+02 -0.57950912680E+03  0.12267774639E+04  0.13630340017E+04  0.91015525264E+02 0.  0.
         23    2    4    4    0    0 -0.22190683848E+03  0.24122243418E+02 -0.51070113464E+02  0.24825971940E+03  0.95917694907E+02 0.  0.
          3    1    3    3  502    0  0.30447294469E+03  0.54921353077E+03  0.21356685833E+04  0.22260771716E+04  0.00000000000E+00 0. -1.
         -4    1    3    3    0  502  0.11050612701E+02  0.61733526174E+01  0.89135373774E+02  0.90029668341E+02  0.00000000000E+00 0.  1.
         11    1    5    5    0    0 -0.28755370529E+02 -0.33800345462E+02  0.98719823508E+02  0.10823556828E+03  0.00000000000E+00 0. -1.
        -11    1    5    5    0    0 -0.64861348379E+02 -0.54570878134E+03  0.11280576404E+04  0.12547984334E+04  0.00000000000E+00 0.  1.
          2    1    6    6  503    0 -0.11755719166E+02 -0.63253227563E+01  0.20252593219E+02  0.24256425400E+02  0.00000000000E+00 0. -1.
         -2    1    6    6    0  503 -0.21015111932E+03  0.30447566175E+02 -0.71322706683E+02  0.22400329400E+03  0.00000000000E+00 0.  1.
<mgrwt>
<rscale>  0 0.19649422E+04</rscale>
<asrwt>0</asrwt>
<pdfrwt beam="1">  1        1 0.56368549E+00 0.19649422E+04</pdfrwt>
<pdfrwt beam="2">  1       -2 0.40529945E-01 0.19649422E+04</pdfrwt>
<totfact> 0.87508752E-01</totfact>
</mgrwt>
</event>
<event>
12    4  0.4320235E-008  0.1373924E+04  0.7818608E-02  0.8972913E-01
          1   -1    0    0  501    0  0.00000000000E+00  0.00000000000E+00  0.13924701698E+04  0.13924701698E+04  0.00000000000E+00 0. -1.
         -2   -1    0    0    0  501 -0.00000000000E+00 -0.00000000000E+00 -0.33890627794E+03  0.33890627794E+03  0.00000000000E+00 0.  1.
        -24    2    1    2    0    0 -0.21058125708E+03  0.13584844106E+03  0.66392845290E+03  0.71412595589E+03  0.79847514234E+02 0.  0.
        254    2    1    2    0    0  0.21058125708E+03 -0.13584844106E+03  0.38963543891E+03  0.10172504918E+04  0.90563984180E+03 0.  0.
         23    2    4    4    0    0  0.26972399109E+03  0.28393299930E+03  0.42105162788E+03  0.58240842486E+03  0.92445229948E+02 0.  0.
         23    2    4    4    0    0 -0.59142734008E+02 -0.41978144036E+03 -0.31416188976E+02  0.43484206695E+03  0.91576883578E+02 0.  0.
          3    1    3    3  502    0 -0.13534915088E+03  0.12709614723E+03  0.50562758723E+03  0.53863910019E+03  0.00000000000E+00 0. -1.
         -4    1    3    3    0  502 -0.75232106202E+02  0.87522938275E+01  0.15830086568E+03  0.17548685570E+03  0.00000000000E+00 0.  1.
         11    1    5    5    0    0  0.87462327274E+02  0.36048567587E+02  0.10480699549E+03  0.14118662904E+03  0.00000000000E+00 0.  1.
        -11    1    5    5    0    0  0.18226166381E+03  0.24788443171E+03  0.31624463240E+03  0.44122179581E+03  0.00000000000E+00 0. -1.
          3    1    6    6  503    0 -0.40863517932E+02 -0.39074848149E+03 -0.49625437458E+02  0.39600111986E+03  0.00000000000E+00 0. -1.
         -3    1    6    6    0  503 -0.18279216076E+02 -0.29032958869E+02  0.18209248482E+02  0.38840947096E+02  0.00000000000E+00 0.  1.
<mgrwt>
<rscale>  0 0.13739241E+04</rscale>
<asrwt>0</asrwt>
<pdfrwt beam="1">  1        1 0.21422618E+00 0.13739241E+04</pdfrwt>
<pdfrwt beam="2">  1       -2 0.52139428E-01 0.13739241E+04</pdfrwt>
<totfact> 0.23147997E+01</totfact>
</mgrwt>
</event>
<event>
12    4  0.4320235E-008  0.2013926E+04  0.7818608E-02  0.8600138E-01
         -2   -1    0    0    0  501 -0.00000000000E+00  0.00000000000E+00  0.40204073371E+03  0.40204073371E+03  0.00000000000E+00 0.  1.
          1   -1    0    0  501    0  0.00000000000E+00 -0.00000000000E+00 -0.25220678048E+04  0.25220678048E+04  0.00000000000E+00 0. -1.
        -24    2    1    2    0    0  0.35098699766E+03 -0.19667980829E+03  0.15894810068E+03  0.43965879353E+03  0.78489085259E+02 0.  0.
        254    2    1    2    0    0 -0.35098699766E+03  0.19667980829E+03 -0.22789751717E+04  0.24844497450E+04  0.90381850073E+03 0.  0.
         23    2    4    4    0    0 -0.69618355159E+02 -0.33609540966E+03 -0.58863221712E+03  0.68742725088E+03  0.90892785499E+02 0.  0.
         23    2    4    4    0    0 -0.28136864250E+03  0.53277521795E+03 -0.16903429546E+04  0.17970224941E+04  0.94935736720E+02 0.  0.
          1    1    3    3  502    0  0.85237371761E+02 -0.14491327159E+02  0.19838446001E+02  0.88707226578E+02  0.00000000000E+00 0. -1.
         -2    1    3    3    0  502  0.26574962590E+03 -0.18218848113E+03  0.13910965467E+03  0.35095156695E+03  0.00000000000E+00 0.  1.
         11    1    5    5    0    0 -0.34968646288E+02 -0.28114510794E+03 -0.52459030715E+03  0.59620497172E+03  0.00000000000E+00 0.  1.
        -11    1    5    5    0    0 -0.34649708872E+02 -0.54950301720E+02 -0.64041909968E+02  0.91222279167E+02  0.00000000000E+00 0. -1.
          2    1    6    6  503    0 -0.57059250391E+02  0.19732703665E+03 -0.61966603464E+03  0.65282441126E+03  0.00000000000E+00 0. -1.
         -2    1    6    6    0  503 -0.22430939211E+03  0.33544818129E+03 -0.10706769200E+04  0.11441980828E+04  0.00000000000E+00 0.  1.
<mgrwt>
<rscale>  0 0.20139255E+04</rscale>
<asrwt>0</asrwt>
<pdfrwt beam="1">  1        1 0.38801043E+00 0.20139255E+04</pdfrwt>
<pdfrwt beam="2">  1       -2 0.61852421E-01 0.20139255E+04</pdfrwt>
<totfact> 0.25857465E+00</totfact>
</mgrwt>
</event>
<event>
12    4  0.4320235E-008  0.1811849E+04  0.7818608E-02  0.8700024E-01
         -4   -1    0    0    0  501 -0.00000000000E+00  0.00000000000E+00  0.66962614827E+03  0.66962614827E+03  0.00000000000E+00 0.  1.
          3   -1    0    0  501    0  0.00000000000E+00 -0.00000000000E+00 -0.12256079079E+04  0.12256079079E+04  0.00000000000E+00 0. -1.
        -24    2    1    2    0    0  0.47844487036E+03  0.38213109103E+03 -0.51125862298E+03  0.80106735730E+03  0.73415711208E+02 0.  0.
        254    2    1    2    0    0 -0.47844487036E+03 -0.38213109103E+03 -0.44723136680E+02  0.10941666989E+04  0.90568589551E+03 0.  0.
         23    2    4    4    0    0 -0.31326068568E+03 -0.33242761721E+03 -0.44839248798E+03  0.64624907450E+03  0.89116020670E+02 0.  0.
         23    2    4    4    0    0 -0.16518418468E+03 -0.49703473820E+02  0.40366935130E+03  0.44791762440E+03  0.89022485294E+02 0.  0.
          1    1    3    3  502    0  0.44575902660E+03  0.37372020296E+03 -0.49403164194E+03  0.76317439890E+03  0.00000000000E+00 0. -1.
         -2    1    3    3    0  502  0.32685843764E+02  0.84108880700E+01 -0.17226981035E+02  0.37892958400E+02  0.00000000000E+00 0.  1.
         11    1    5    5    0    0 -0.21161249538E+03 -0.16961277122E+03 -0.29343550178E+03  0.39956568180E+03  0.00000000000E+00 0.  1.
        -11    1    5    5    0    0 -0.10164819029E+03 -0.16281484598E+03 -0.15495698620E+03  0.24668339270E+03  0.00000000000E+00 0. -1.
          4    1    6    6  503    0 -0.44986771402E+02  0.12744071552E+02  0.46570685713E+02  0.65992800582E+02  0.00000000000E+00 0. -1.
         -4    1    6    6    0  503 -0.12019741328E+03 -0.62447545372E+02  0.35709866559E+03  0.38192482382E+03  0.00000000000E+00 0.  1.
<mgrwt>
<rscale>  0 0.18118489E+04</rscale>
<asrwt>0</asrwt>
<pdfrwt beam="1">  1        3 0.18855506E+00 0.18118489E+04</pdfrwt>
<pdfrwt beam="2">  1       -4 0.10301941E+00 0.18118489E+04</pdfrwt>
<totfact> 0.28966635E-01</totfact>
</mgrwt>
</event>
<event>
12    4  0.4320235E-008  0.2241494E+04  0.7818608E-02  0.8501353E-01
         -2   -1    0    0    0  501 -0.00000000000E+00  0.00000000000E+00  0.12019792406E+04  0.12019792406E+04  0.00000000000E+00 0.  1.
          1   -1    0    0  501    0  0.00000000000E+00 -0.00000000000E+00 -0.10450045029E+04  0.10450045029E+04  0.00000000000E+00 0. -1.
        -24    2    1    2    0    0  0.48912216574E+03 -0.16402265658E+03 -0.72238673987E+03  0.89098918218E+03  0.76649826674E+02 0.  0.
        254    2    1    2    0    0 -0.48912216574E+03  0.16402265658E+03  0.87936147755E+03  0.13559945614E+04  0.89403619465E+03 0.  0.
         23    2    4    4    0    0  0.20808927824E+03  0.20534956025E+03  0.14504654863E+03  0.33825328373E+03  0.88922399150E+02 0.  0.
         23    2    4    4    0    0 -0.69721144397E+03 -0.41326903672E+02  0.73431492892E+03  0.10177412776E+04  0.93633235464E+02 0.  0.
          3    1    3    3  502    0  0.30582961039E+03 -0.85363065741E+02 -0.49959926207E+03  0.59196116954E+03  0.00000000000E+00 0. -1.
         -4    1    3    3    0  502  0.18329255534E+03 -0.78659590836E+02 -0.22278747780E+03  0.29902801263E+03  0.00000000000E+00 0.  1.
         11    1    5    5    0    0  0.18014364994E+03  0.16008606035E+03  0.79356680488E+02  0.25372576548E+03  0.00000000000E+00 0. -1.
        -11    1    5    5    0    0  0.27945628303E+02  0.45263499900E+02  0.65689868145E+02  0.84527518249E+02  0.00000000000E+00 0.  1.
          1    1    6    6  503    0 -0.12326691838E+03 -0.65694374780E+01  0.82073730711E+02  0.14823625720E+03  0.00000000000E+00 0. -1.
         -1    1    6    6    0  503 -0.57394452560E+03 -0.34757466194E+02  0.65224119821E+03  0.86950502043E+03  0.00000000000E+00 0.  1.
<mgrwt>
<rscale>  0 0.22414939E+04</rscale>
<asrwt>0</asrwt>
<pdfrwt beam="1">  1        1 0.16076992E+00 0.22414939E+04</pdfrwt>
<pdfrwt beam="2">  1       -2 0.18491988E+00 0.22414939E+04</pdfrwt>
<totfact> 0.18657914E+00</totfact>
</mgrwt>
</event>
<event>
12    4  0.4320235E-008  0.1836593E+04  0.7818608E-02  0.8687078E-01
          1   -1    0    0  501    0  0.00000000000E+00  0.00000000000E+00  0.22978427899E+04  0.22978427899E+04  0.00000000000E+00 0. -1.
         -2   -1    0    0    0  501 -0.00000000000E+00 -0.00000000000E+00 -0.36698280334E+03  0.36698280334E+03  0.00000000000E+00 0.  1.
        -24    2    1    2    0    0 -0.27362968974E+03  0.47013871595E+03  0.10197932668E+03  0.55911552288E+03  0.79415146667E+02 0.  0.
        254    2    1    2    0    0  0.27362968974E+03 -0.47013871595E+03  0.18288806599E+04  0.21057100704E+04  0.89067772676E+03 0.  0.
         23    2    4    4    0    0 -0.93887752419E+02 -0.48920005943E+03  0.45677760465E+03  0.68220765821E+03  0.92897258317E+02 0.  0.
         23    2    4    4    0    0  0.36751744216E+03  0.19061343487E+02  0.13721030552E+04  0.14235024122E+04  0.90884091532E+02 0.  0.
          1    1    3    3  502    0 -0.26282996079E+02  0.13021945726E+02 -0.62384586696E+00  0.29338645795E+02  0.00000000000E+00 0. -1.
         -2    1    3    3    0  502 -0.24734669366E+03  0.45711677022E+03  0.10260317254E+03  0.52977687709E+03  0.00000000000E+00 0.  1.
         11    1    5    5    0    0 -0.75595161048E+02 -0.39514354594E+03  0.31439215641E+03  0.51058346847E+03  0.00000000000E+00 0. -1.
        -11    1    5    5    0    0 -0.18292591371E+02 -0.94056513498E+02  0.14238544824E+03  0.17162418973E+03  0.00000000000E+00 0.  1.
          1    1    6    6  503    0  0.29612936196E+03  0.90409248849E+00  0.12055396862E+04  0.12413780051E+04  0.00000000000E+00 0. -1.
         -1    1    6    6    0  503  0.71388080198E+02  0.18157250999E+02  0.16656336901E+03  0.18212440708E+03  0.00000000000E+00 0.  1.
<mgrwt>
<rscale>  0 0.18365934E+04</rscale>
<asrwt>0</asrwt>
<pdfrwt beam="1">  1        1 0.35351427E+00 0.18365934E+04</pdfrwt>
<pdfrwt beam="2">  1       -2 0.56458894E-01 0.18365934E+04</pdfrwt>
<totfact> 0.45437066E+00</totfact>
</mgrwt>
</event>
<event>
12    4  0.4320235E-008  0.1481668E+04  0.7818608E-02  0.8896736E-01
         -2   -1    0    0    0  501 -0.00000000000E+00  0.00000000000E+00  0.48750512873E+03  0.48750512873E+03  0.00000000000E+00 0.  1.
          1   -1    0    0  501    0  0.00000000000E+00 -0.00000000000E+00 -0.11258038596E+04  0.11258038596E+04  0.00000000000E+00 0. -1.
        -24    2    1    2    0    0 -0.35390989635E+03 -0.14292713772E+03  0.70960717150E+02  0.39616238700E+03  0.78922950134E+02 0.  0.
        254    2    1    2    0    0  0.35390989635E+03  0.14292713772E+03 -0.70925944801E+03  0.12171466013E+04  0.91253301480E+03 0.  0.
         23    2    4    4    0    0 -0.11498371015E+03 -0.29240900275E+03 -0.34515517809E+03  0.47552367864E+03  0.90919709058E+02 0.  0.
         23    2    4    4    0    0  0.46889360651E+03  0.43533614047E+03 -0.36410426992E+03  0.74162292269E+03  0.89743360012E+02 0.  0.
          1    1    3    3  502    0 -0.12200521485E+03 -0.42041971777E+02 -0.12981018519E+02  0.12969698024E+03  0.00000000000E+00 0. -1.
         -2    1    3    3    0  502 -0.23190468151E+03 -0.10088516595E+03  0.83941735670E+02  0.26646540676E+03  0.00000000000E+00 0.  1.
         11    1    5    5    0    0 -0.11632009987E+02 -0.52372509924E+01  0.24028102099E+01  0.12980984215E+02  0.00000000000E+00 0. -1.
        -11    1    5    5    0    0 -0.10335170017E+03 -0.28717175175E+03 -0.34755798830E+03  0.46254269442E+03  0.00000000000E+00 0.  1.
          3    1    6    6  503    0  0.78949737028E+02  0.38813830168E+02 -0.30547168575E+02  0.93127353109E+02  0.00000000000E+00 0. -1.
         -3    1    6    6    0  503  0.38994386948E+03  0.39652231030E+03 -0.33355710135E+03  0.64849556958E+03  0.00000000000E+00 0.  1.
<mgrwt>
<rscale>  0 0.14816682E+04</rscale>
<asrwt>0</asrwt>
<pdfrwt beam="1">  1        1 0.17320059E+00 0.14816682E+04</pdfrwt>
<pdfrwt beam="2">  1       -2 0.75000789E-01 0.14816682E+04</pdfrwt>
<totfact> 0.16449042E+01</totfact>
</mgrwt>
</event>
<event>
12    4  0.4320235E-008  0.1532974E+04  0.7818608E-02  0.8862817E-01
          1   -1    0    0  501    0  0.00000000000E+00  0.00000000000E+00  0.16871175241E+04  0.16871175241E+04  0.00000000000E+00 0. -1.
         -2   -1    0    0    0  501 -0.00000000000E+00 -0.00000000000E+00 -0.34822856954E+03  0.34822856954E+03  0.00000000000E+00 0.  1.
        -24    2    1    2    0    0  0.31493724756E+03  0.35403491644E+03  0.60362343933E+03  0.77148796265E+03  0.79411762637E+02 0.  0.
        254    2    1    2    0    0 -0.31493724756E+03 -0.35403491644E+03  0.73526551527E+03  0.12638581310E+04  0.91224766673E+03 0.  0.
         23    2    4    4    0    0 -0.31102683495E+03 -0.51432498230E+03  0.11744880763E+03  0.61927210410E+03  0.91846812791E+02 0.  0.
         23    2    4    4    0    0 -0.39104126048E+01  0.16029006586E+03  0.61781670764E+03  0.64458602693E+03  0.89919215566E+02 0.  0.
          1    1    3    3  502    0  0.21756335082E+03  0.23949155241E+03  0.46836270651E+03  0.56925709495E+03  0.00000000000E+00 0. -1.
         -2    1    3    3    0  502  0.97373896738E+02  0.11454336403E+03  0.13526073282E+03  0.20223086770E+03  0.00000000000E+00 0.  1.
         11    1    5    5    0    0  0.60864530249E+01 -0.17919580954E+02  0.21765559985E+01  0.19049768713E+02  0.00000000000E+00 0. -1.
        -11    1    5    5    0    0 -0.31711328798E+03 -0.49640540135E+03  0.11527225163E+03  0.60022233539E+03  0.00000000000E+00 0.  1.
          1    1    6    6  503    0  0.57517890753E+01  0.26090750093E+02  0.27525949045E+03  0.27655306435E+03  0.00000000000E+00 0. -1.
         -1    1    6    6    0  503 -0.96622016801E+01  0.13419931577E+03  0.34255721719E+03  0.36803296258E+03  0.00000000000E+00 0.  1.
<mgrwt>
<rscale>  0 0.15329743E+04</rscale>
<asrwt>0</asrwt>
<pdfrwt beam="1">  1        1 0.25955654E+00 0.15329743E+04</pdfrwt>
<pdfrwt beam="2">  1       -2 0.53573627E-01 0.15329743E+04</pdfrwt>
<totfact> 0.13522193E+01</totfact>
</mgrwt>
</event>
<event>
12    4  0.4320235E-008  0.1857778E+04  0.7818608E-02  0.8676163E-01
          1   -1    0    0  501    0  0.00000000000E+00  0.00000000000E+00  0.26849251330E+04  0.26849251330E+04  0.00000000000E+00 0. -1.
         -2   -1    0    0    0  501 -0.00000000000E+00 -0.00000000000E+00 -0.32136273192E+03  0.32136273192E+03  0.00000000000E+00 0.  1.
        -24    2    1    2    0    0 -0.14132383562E+03 -0.49645323677E+03  0.16857365778E+04  0.17648803887E+04  0.81588809360E+02 0.  0.
        254    2    1    2    0    0  0.14132383562E+03  0.49645323677E+03  0.67782582331E+03  0.12414074763E+04  0.90288782946E+03 0.  0.
         23    2    4    4    0    0  0.51394062735E+02  0.66869162084E+03  0.75369215202E+03  0.10132750594E+04  0.94258434698E+02 0.  0.
         23    2    4    4    0    0  0.89929772885E+02 -0.17223838407E+03 -0.75866328710E+02  0.22813241688E+03  0.92386550970E+02 0.  0.
          3    1    3    3  502    0 -0.13097632425E+03 -0.47141436746E+03  0.16427927512E+04  0.17141045262E+04  0.00000000000E+00 0. -1.
         -4    1    3    3    0  502 -0.10347511369E+02 -0.25038869306E+02  0.42943826635E+02  0.50775862511E+02  0.00000000000E+00 0.  1.
         11    1    5    5    0    0 -0.26968100694E+02  0.17278695209E+03  0.20848043452E+03  0.27211523450E+03  0.00000000000E+00 0. -1.
        -11    1    5    5    0    0  0.78362163430E+02  0.49590466875E+03  0.54521171750E+03  0.74115982490E+03  0.00000000000E+00 0.  1.
          3    1    6    6  503    0  0.80235959440E+02 -0.11259297466E+03 -0.98078714302E+01  0.13860440639E+03  0.00000000000E+00 0. -1.
         -3    1    6    6    0  503  0.96938134446E+01 -0.59645409413E+02 -0.66058457280E+02  0.89528010485E+02  0.00000000000E+00 0.  1.
<mgrwt>
<rscale>  0 0.18577781E+04</rscale>
<asrwt>0</asrwt>
<pdfrwt beam="1">  1        1 0.41306539E+00 0.18577781E+04</pdfrwt>
<pdfrwt beam="2">  1       -2 0.49440422E-01 0.18577781E+04</pdfrwt>
<totfact> 0.32165339E+00</totfact>
</mgrwt>
</event>
<event>
12    4  0.4320235E-008  0.2234875E+04  0.7818608E-02  0.8504051E-01
         -2   -1    0    0    0  501 -0.00000000000E+00  0.00000000000E+00  0.43980485082E+03  0.43980485082E+03  0.00000000000E+00 0.  1.
          1   -1    0    0  501    0  0.00000000000E+00 -0.00000000000E+00 -0.28391380373E+04  0.28391380373E+04  0.00000000000E+00 0. -1.
        -24    2    1    2    0    0 -0.62530317572E+03  0.87656482272E+01  0.93876993512E+01  0.62990913010E+03  0.74943212743E+02 0.  0.
        254    2    1    2    0    0  0.62530317572E+03 -0.87656482272E+01 -0.24087208858E+04  0.26490337580E+04  0.90794418723E+03 0.  0.
         23    2    4    4    0    0  0.72867364948E+03 -0.78390683111E+02 -0.10612466200E+04  0.12929050604E+04  0.90822464418E+02 0.  0.
         23    2    4    4    0    0 -0.10337047376E+03  0.69625034884E+02 -0.13474742658E+04  0.13561286976E+04  0.88685101218E+02 0.  0.
          1    1    3    3  502    0 -0.57788304652E+02 -0.31268383879E+00 -0.21056419041E+02  0.61505761589E+02  0.00000000000E+00 0. -1.
         -4    1    3    3    0  502 -0.56751487106E+03  0.90783320659E+01  0.30444118392E+02  0.56840336851E+03  0.00000000000E+00 0.  1.
         11    1    5    5    0    0  0.18473990899E+03 -0.58904262939E+02 -0.29513711341E+03  0.35313518923E+03  0.00000000000E+00 0.  1.
        -11    1    5    5    0    0  0.54393374049E+03 -0.19486420172E+02 -0.76610950661E+03  0.93976987116E+03  0.00000000000E+00 0. -1.
          2    1    6    6  503    0 -0.10180586332E+03  0.34918845106E+02 -0.11905374711E+04  0.11953925002E+04  0.00000000000E+00 0. -1.
         -2    1    6    6    0  503 -0.15646104386E+01  0.34706189779E+02 -0.15693679473E+03  0.16073619740E+03  0.00000000000E+00 0.  1.
<mgrwt>
<rscale>  0 0.22348751E+04</rscale>
<asrwt>0</asrwt>
<pdfrwt beam="1">  1        1 0.43679048E+00 0.22348751E+04</pdfrwt>
<pdfrwt beam="2">  1       -2 0.67662283E-01 0.22348751E+04</pdfrwt>
<totfact> 0.12500427E+00</totfact>
</mgrwt>
</event>
<event>
12    4  0.4320235E-008  0.3396708E+04  0.7818608E-02  0.8138715E-01
         -2   -1    0    0    0  501 -0.00000000000E+00  0.00000000000E+00  0.15484080132E+04  0.15484080132E+04  0.00000000000E+00 0.  1.
          1   -1    0    0  501    0  0.00000000000E+00 -0.00000000000E+00 -0.18628210439E+04  0.18628210439E+04  0.00000000000E+00 0. -1.
        -24    2    1    2    0    0 -0.14328683178E+04  0.39888507852E+03  0.38083438092E+03  0.15373967337E+04  0.79579953055E+02 0.  0.
        254    2    1    2    0    0  0.14328683178E+04 -0.39888507852E+03 -0.69524741164E+03  0.18738323235E+04  0.90313769225E+03 0.  0.
         23    2    4    4    0    0  0.14815691277E+04 -0.17694244234E+03 -0.58138978908E+03  0.16039067071E+04  0.90260346882E+02 0.  0.
         23    2    4    4    0    0 -0.48700809915E+02 -0.22194263619E+03 -0.11385762255E+03  0.26992561636E+03  0.90917421393E+02 0.  0.
          1    1    3    3  502    0 -0.26476546096E+03  0.10601321820E+03  0.76199610876E+02  0.29520489909E+03  0.00000000000E+00 0. -1.
         -4    1    3    3    0  502 -0.11681028568E+04  0.29287186033E+03  0.30463477005E+03  0.12421918346E+04  0.00000000000E+00 0.  1.
         11    1    5    5    0    0  0.29810553390E+03  0.66604518034E+00 -0.11481751264E+03  0.31945330514E+03  0.00000000000E+00 0. -1.
        -11    1    5    5    0    0  0.11834635938E+04 -0.17760848752E+03 -0.46657227644E+03  0.12844534020E+04  0.00000000000E+00 0.  1.
          3    1    6    6  503    0  0.66636663764E+01  0.58955560867E+01  0.78259704811E+00  0.89316565813E+01  0.00000000000E+00 0. -1.
         -3    1    6    6    0  503 -0.55364476291E+02 -0.22783819227E+03 -0.11464021960E+03  0.26099395978E+03  0.00000000000E+00 0.  1.
<mgrwt>
<rscale>  0 0.33967084E+04</rscale>
<asrwt>0</asrwt>
<pdfrwt beam="1">  1        1 0.28658785E+00 0.33967084E+04</pdfrwt>
<pdfrwt beam="2">  1       -2 0.23821662E+00 0.33967084E+04</pdfrwt>
<totfact> 0.20296679E-01</totfact>
</mgrwt>
</event>
<event>
12    4  0.4320235E-008  0.2487839E+04  0.7818608E-02  0.8407331E-01
         -2   -1    0    0    0  501 -0.00000000000E+00  0.00000000000E+00  0.60311745714E+03  0.60311745714E+03  0.00000000000E+00 0.  1.
          1   -1    0    0  501    0  0.00000000000E+00 -0.00000000000E+00 -0.25655633138E+04  0.25655633138E+04  0.00000000000E+00 0. -1.
        -24    2    1    2    0    0  0.99429677226E+03  0.96005756238E+02 -0.13765804860E+04  0.17025863733E+04  0.77352102685E+02 0.  0.
        254    2    1    2    0    0 -0.99429677226E+03 -0.96005756238E+02 -0.58586537067E+03  0.14660943976E+04  0.89908362987E+03 0.  0.
         23    2    4    4    0    0  0.31060712754E+02 -0.15338442064E+03 -0.37041017707E+03  0.41287631951E+03  0.93656860731E+02 0.  0.
         23    2    4    4    0    0 -0.10253574850E+04  0.57378664398E+02 -0.21545519361E+03  0.10532180781E+04  0.90537817112E+02 0.  0.
          3    1    3    3  502    0  0.74860802870E+03  0.88577838722E+02 -0.98702591963E+03  0.12419662556E+04  0.00000000000E+00 0. -1.
         -4    1    3    3    0  502  0.24568874356E+03  0.74279175158E+01 -0.38955456635E+03  0.46062011770E+03  0.00000000000E+00 0.  1.
         11    1    5    5    0    0  0.13457188825E+02 -0.15543066582E+03 -0.27802460666E+03  0.31880632007E+03  0.00000000000E+00 0. -1.
        -11    1    5    5    0    0  0.17603523929E+02  0.20462451828E+01 -0.92385570414E+02  0.94069999441E+02  0.00000000000E+00 0.  1.
          1    1    6    6  503    0 -0.80382853211E+03  0.60897015237E+02 -0.13417199864E+03  0.81722143922E+03  0.00000000000E+00 0. -1.
         -1    1    6    6    0  503 -0.22152895290E+03 -0.35183508387E+01 -0.81283194964E+02  0.23599663885E+03  0.00000000000E+00 0.  1.
<mgrwt>
<rscale>  0 0.24878392E+04</rscale>
<asrwt>0</asrwt>
<pdfrwt beam="1">  1        1 0.39470205E+00 0.24878392E+04</pdfrwt>
<pdfrwt beam="2">  1       -2 0.92787300E-01 0.24878392E+04</pdfrwt>
<totfact> 0.93875489E-01</totfact>
</mgrwt>
</event>
<event>
12    4  0.4320235E-008  0.1778770E+04  0.7818608E-02  0.8717671E-01
          1   -1    0    0  501    0  0.00000000000E+00  0.00000000000E+00  0.96705205939E+03  0.96705205939E+03  0.00000000000E+00 0. -1.
         -2   -1    0    0    0  501 -0.00000000000E+00 -0.00000000000E+00 -0.81795569428E+03  0.81795569428E+03  0.00000000000E+00 0.  1.
        -24    2    1    2    0    0 -0.66567181387E+03  0.19761791233E+02  0.73202362741E+02  0.67473745448E+03  0.80015963319E+02 0.  0.
        254    2    1    2    0    0  0.66567181387E+03 -0.19761791233E+02  0.75894002366E+02  0.11102702992E+04  0.88511623275E+03 0.  0.
         23    2    4    4    0    0  0.64805773406E+03 -0.17971631700E+03  0.36277570403E+03  0.76905380520E+03  0.86952645589E+02 0.  0.
         23    2    4    4    0    0  0.17614079811E+02  0.15995452577E+03 -0.28688170167E+03  0.34121649399E+03  0.90729702391E+02 0.  0.
          3    1    3    3  502    0 -0.62555113269E+03  0.88326961371E+00  0.76813939213E+02  0.63025025270E+03  0.00000000000E+00 0. -1.
         -4    1    3    3    0  502 -0.40120681188E+02  0.18878521619E+02 -0.36115764722E+01  0.44487201779E+02  0.00000000000E+00 0.  1.
         11    1    5    5    0    0  0.44707074146E+03 -0.12905237432E+03  0.29511005181E+03  0.55101425196E+03  0.00000000000E+00 0.  1.
        -11    1    5    5    0    0  0.20098699260E+03 -0.50663942685E+02  0.67665652226E+02  0.21803955324E+03  0.00000000000E+00 0. -1.
          3    1    6    6  503    0  0.45662060830E+02  0.37620042013E+02 -0.87732370363E+02  0.10581710717E+03  0.00000000000E+00 0. -1.
         -3    1    6    6    0  503 -0.28047981020E+02  0.12233448375E+03 -0.19914933131E+03  0.23539938682E+03  0.00000000000E+00 0.  1.
<mgrwt>
<rscale>  0 0.17787701E+04</rscale>
<asrwt>0</asrwt>
<pdfrwt beam="1">  1        1 0.14877724E+00 0.17787701E+04</pdfrwt>
<pdfrwt beam="2">  1       -2 0.12583934E+00 0.17787701E+04</pdfrwt>
<totfact> 0.62752126E+00</totfact>
</mgrwt>
</event>
<event>
12    4  0.4320235E-008  0.1380545E+04  0.7818608E-02  0.8968022E-01
         -2   -1    0    0    0  501 -0.00000000000E+00  0.00000000000E+00  0.44275733532E+03  0.44275733532E+03  0.00000000000E+00 0.  1.
          1   -1    0    0  501    0  0.00000000000E+00 -0.00000000000E+00 -0.10761568543E+04  0.10761568543E+04  0.00000000000E+00 0. -1.
        -24    2    1    2    0    0 -0.31712442653E+02 -0.23572155084E+03  0.15307965454E+03  0.29375289021E+03  0.79290928390E+02 0.  0.
        254    2    1    2    0    0  0.31712442653E+02  0.23572155084E+03 -0.78647917351E+03  0.12251612994E+04  0.90879061981E+03 0.  0.
         23    2    4    4    0    0 -0.17116099299E+03  0.45576389458E+03 -0.76644305801E+03  0.91266761666E+03  0.92251851959E+02 0.  0.
         23    2    4    4    0    0  0.20287343564E+03 -0.22004234375E+03 -0.20036115492E+02  0.31249368275E+03  0.87604748165E+02 0.  0.
          3    1    3    3  502    0 -0.15539524354E+02 -0.24878523017E+02  0.51247612256E+02  0.59048585814E+02  0.00000000000E+00 0. -1.
         -4    1    3    3    0  502 -0.16172918299E+02 -0.21084302782E+03  0.10183204228E+03  0.23470430440E+03  0.00000000000E+00 0.  1.
         11    1    5    5    0    0 -0.83502504715E+02  0.24512019666E+03 -0.32313423278E+03  0.41409215339E+03  0.00000000000E+00 0.  1.
        -11    1    5    5    0    0 -0.87658488276E+02  0.21064369792E+03 -0.44330882524E+03  0.49857546327E+03  0.00000000000E+00 0. -1.
          2    1    6    6  503    0  0.45958382416E+02 -0.71090405343E+02  0.31090196326E+02  0.90181034334E+02  0.00000000000E+00 0. -1.
         -2    1    6    6    0  503  0.15691505323E+03 -0.14895193840E+03 -0.51126311817E+02  0.22231264841E+03  0.00000000000E+00 0.  1.
<mgrwt>
<rscale>  0 0.13805453E+04</rscale>
<asrwt>0</asrwt>
<pdfrwt beam="1">  1        1 0.16556259E+00 0.13805453E+04</pdfrwt>
<pdfrwt beam="2">  1       -2 0.68116513E-01 0.13805453E+04</pdfrwt>
<totfact> 0.22327318E+01</totfact>
</mgrwt>
</event>
<event>
12    4  0.4320235E-008  0.1261759E+04  0.7818608E-02  0.9060452E-01
          1   -1    0    0  501    0  0.00000000000E+00  0.00000000000E+00  0.76292808664E+03  0.76292808664E+03  0.00000000000E+00 0. -1.
         -2   -1    0    0    0  501 -0.00000000000E+00 -0.00000000000E+00 -0.52168637821E+03  0.52168637821E+03  0.00000000000E+00 0.  1.
        -24    2    1    2    0    0  0.27032084641E+02  0.16264187687E+03 -0.19492682461E+03  0.26930390577E+03  0.85703051307E+02 0.  0.
        254    2    1    2    0    0 -0.27032084641E+02 -0.16264187687E+03  0.43616853304E+03  0.10153105591E+04  0.90190322565E+03 0.  0.
         23    2    4    4    0    0  0.22816326166E+03 -0.77673998851E+02 -0.19490392485E+03  0.32323926139E+03  0.91675275392E+02 0.  0.
         23    2    4    4    0    0 -0.25519534630E+03 -0.84967878015E+02  0.63107245788E+03  0.69207129767E+03  0.91465998596E+02 0.  0.
          1    1    3    3  502    0  0.50601223683E+00 -0.12641972832E+01  0.74256784708E+01  0.75494995799E+01  0.00000000000E+00 0. -1.
         -2    1    3    3    0  502  0.26526072404E+02  0.16390607415E+03 -0.20235250308E+03  0.26175440619E+03  0.00000000000E+00 0.  1.
         11    1    5    5    0    0  0.11005811989E+03 -0.83692128077E+02 -0.88536483071E+02  0.16418243173E+03  0.00000000000E+00 0.  1.
        -11    1    5    5    0    0  0.11810514177E+03  0.60181292258E+01 -0.10636744177E+03  0.15905682966E+03  0.00000000000E+00 0. -1.
          3    1    6    6  503    0 -0.75951032662E+02 -0.63958523126E+02  0.16907138295E+03  0.19607239626E+03  0.00000000000E+00 0. -1.
         -3    1    6    6    0  503 -0.17924431364E+03 -0.21009354888E+02  0.46200107493E+03  0.49599890141E+03  0.00000000000E+00 0.  1.
<mgrwt>
<rscale>  0 0.12617594E+04</rscale>
<asrwt>0</asrwt>
<pdfrwt beam="1">  1        1 0.11737355E+00 0.12617594E+04</pdfrwt>
<pdfrwt beam="2">  1       -2 0.80259443E-01 0.12617594E+04</pdfrwt>
<totfact> 0.28247126E+01</totfact>
</mgrwt>
</event>
<event>
12    4  0.4320235E-008  0.1372491E+04  0.7818608E-02  0.8973975E-01
          1   -1    0    0  501    0  0.00000000000E+00  0.00000000000E+00  0.15451901827E+04  0.15451901827E+04  0.00000000000E+00 0. -1.
         -2   -1    0    0    0  501 -0.00000000000E+00 -0.00000000000E+00 -0.30477360676E+03  0.30477360676E+03  0.00000000000E+00 0.  1.
        -24    2    1    2    0    0  0.83874042831E-01  0.23691377147E+03 -0.59327360317E+02  0.25737305327E+03  0.81197356617E+02 0.  0.
        254    2    1    2    0    0 -0.83874042831E-01 -0.23691377147E+03  0.12997439363E+04  0.15925907362E+04  0.88931592306E+03 0.  0.
         23    2    4    4    0    0 -0.35988110365E+02  0.70675909071E+02 -0.10165707511E+03  0.15391489562E+03  0.84055969216E+02 0.  0.
         23    2    4    4    0    0  0.35904236323E+02 -0.30758968054E+03  0.14014010114E+04  0.14386758406E+04  0.99814096249E+02 0.  0.
          3    1    3    3  502    0  0.14181793570E+02  0.49809769363E+02  0.17432871167E+02  0.54644683090E+02  0.00000000000E+00 0. -1.
         -4    1    3    3    0  502 -0.14097919527E+02  0.18710400210E+03 -0.76760231484E+02  0.20272837018E+03  0.00000000000E+00 0.  1.
         11    1    5    5    0    0 -0.42500739154E+02  0.35790254867E+00 -0.23449527088E+02  0.48541953437E+02  0.00000000000E+00 0.  1.
        -11    1    5    5    0    0  0.65126287884E+01  0.70318006522E+02 -0.78207548026E+02  0.10537294218E+03  0.00000000000E+00 0. -1.
          3    1    6    6  503    0  0.15665940976E+02 -0.19806951215E+03  0.66986902688E+03  0.69871415223E+03  0.00000000000E+00 0. -1.
         -3    1    6    6    0  503  0.20238295347E+02 -0.10952016839E+03  0.73153198451E+03  0.73996168836E+03  0.00000000000E+00 0.  1.
<mgrwt>
<rscale>  0 0.13724914E+04</rscale>
<asrwt>0</asrwt>
<pdfrwt beam="1">  1        1 0.23772156E+00 0.13724914E+04</pdfrwt>
<pdfrwt beam="2">  1       -2 0.46888248E-01 0.13724914E+04</pdfrwt>
<totfact> 0.22503961E+01</totfact>
</mgrwt>
</event>
<event>
12    4  0.4320235E-008  0.1951522E+04  0.7818608E-02  0.8629627E-01
          1   -1    0    0  501    0  0.00000000000E+00  0.00000000000E+00  0.78387991223E+03  0.78387991223E+03  0.00000000000E+00 0. -1.
         -2   -1    0    0    0  501 -0.00000000000E+00 -0.00000000000E+00 -0.12146113246E+04  0.12146113246E+04  0.00000000000E+00 0.  1.
        -24    2    1    2    0    0  0.66386987759E+02  0.76099488392E+03 -0.73054812126E+02  0.77156571189E+03  0.80350461751E+02 0.  0.
        254    2    1    2    0    0 -0.66386987759E+02 -0.76099488392E+03 -0.35767660019E+03  0.12269255249E+04  0.89100687305E+03 0.  0.
         23    2    4    4    0    0 -0.29998157759E+03 -0.42444655414E+03 -0.55394899496E+03  0.76539805372E+03  0.93972694969E+02 0.  0.
         23    2    4    4    0    0  0.23359458983E+03 -0.33654832977E+03  0.19627239477E+03  0.46152747117E+03  0.81569252958E+02 0.  0.
          1    1    3    3  502    0  0.20730348419E+02  0.55378584092E+03 -0.29474775183E+02  0.55495699592E+03  0.00000000000E+00 0. -1.
         -2    1    3    3    0  502  0.45656639341E+02  0.20720904300E+03 -0.43580036943E+02  0.21660871597E+03  0.00000000000E+00 0.  1.
         11    1    5    5    0    0 -0.34307688193E+01  0.42467124039E+01 -0.11277512253E+01  0.55746357512E+01  0.00000000000E+00 0. -1.
        -11    1    5    5    0    0 -0.29655080877E+03 -0.42869326655E+03 -0.55282124374E+03  0.75982341797E+03  0.00000000000E+00 0.  1.
          1    1    6    6  503    0  0.17224805039E+03 -0.19549118723E+03  0.94835717413E+02  0.27727244444E+03  0.00000000000E+00 0.  1.
         -1    1    6    6    0  503  0.61346539439E+02 -0.14105714254E+03  0.10143667735E+03  0.18425502673E+03  0.00000000000E+00 0. -1.
<mgrwt>
<rscale>  0 0.19515219E+04</rscale>
<asrwt>0</asrwt>
<pdfrwt beam="1">  1        1 0.12059691E+00 0.19515219E+04</pdfrwt>
<pdfrwt beam="2">  1       -2 0.18686328E+00 0.19515219E+04</pdfrwt>
<totfact> 0.30321490E+00</totfact>
</mgrwt>
</event>
<event>
12    4  0.4320235E-008  0.1572162E+04  0.7818608E-02  0.8837835E-01
         -4   -1    0    0    0  501 -0.00000000000E+00  0.00000000000E+00  0.71127807328E+03  0.71127807328E+03  0.00000000000E+00 0.  1.
          1   -1    0    0  501    0  0.00000000000E+00 -0.00000000000E+00 -0.86875022243E+03  0.86875022243E+03  0.00000000000E+00 0. -1.
        -24    2    1    2    0    0  0.17612098295E+03 -0.51504960539E+03  0.17146925977E+02  0.55010966827E+03  0.77665522621E+02 0.  0.
        254    2    1    2    0    0 -0.17612098295E+03  0.51504960539E+03 -0.17461907513E+03  0.10299186274E+04  0.85670640310E+03 0.  0.
         23    2    4    4    0    0 -0.40111259233E+03  0.46615612639E+03 -0.36238280707E+03  0.71989311509E+03  0.93444916420E+02 0.  0.
         23    2    4    4    0    0  0.22499160938E+03  0.48893479004E+02  0.18776373194E+03  0.31002551235E+03  0.88593468703E+02 0.  0.
          3    1    3    3  502    0  0.12703142341E+03 -0.25660504288E+03 -0.21807017000E+01  0.28633526856E+03  0.00000000000E+00 0. -1.
         -4    1    3    3    0  502  0.49089559545E+02 -0.25844456252E+03  0.19327627677E+02  0.26377439971E+03  0.00000000000E+00 0.  1.
         11    1    5    5    0    0 -0.38269307203E+03  0.46162485806E+03 -0.33584291034E+03  0.68727138554E+03  0.00000000000E+00 0. -1.
        -11    1    5    5    0    0 -0.18419520306E+02  0.45312683314E+01 -0.26539896725E+02  0.32621729556E+02  0.00000000000E+00 0.  1.
          4    1    6    6  503    0  0.17536680342E+03 -0.21044040673E+01  0.12842081429E+03  0.21737030570E+03  0.00000000000E+00 0. -1.
         -4    1    6    6    0  503  0.49624805964E+02  0.50997883071E+02  0.59342917654E+02  0.92655206656E+02  0.00000000000E+00 0.  1.
<mgrwt>
<rscale>  0 0.15721615E+04</rscale>
<asrwt>0</asrwt>
<pdfrwt beam="1">  1        1 0.13365388E+00 0.15721615E+04</pdfrwt>
<pdfrwt beam="2">  1       -4 0.10942740E+00 0.15721615E+04</pdfrwt>
<totfact> 0.59796797E+00</totfact>
</mgrwt>
</event>
<event>
12    4  0.4320235E-008  0.2141548E+04  0.7818608E-02  0.8543159E-01
          1   -1    0    0  501    0  0.00000000000E+00  0.00000000000E+00  0.13594636215E+04  0.13594636215E+04  0.00000000000E+00 0. -1.
         -2   -1    0    0    0  501 -0.00000000000E+00 -0.00000000000E+00 -0.84338923524E+03  0.84338923524E+03  0.00000000000E+00 0.  1.
        -24    2    1    2    0    0 -0.88104202326E+02 -0.76000467149E+03 -0.23677038979E+03  0.80469647136E+03  0.78145648532E+02 0.  0.
        254    2    1    2    0    0  0.88104202326E+02  0.76000467149E+03  0.75284477608E+03  0.13981563854E+04  0.89593335134E+03 0.  0.
         23    2    4    4    0    0 -0.76210165107E+02  0.39303949502E+03  0.87610490512E+03  0.96766186612E+03  0.92312775070E+02 0.  0.
         23    2    4    4    0    0  0.16431436743E+03  0.36696517647E+03 -0.12326012905E+03  0.43049451929E+03  0.92031623070E+02 0.  0.
          3    1    3    3  502    0 -0.55697837996E+02 -0.53913827012E+03 -0.20373621926E+03  0.57903434311E+03  0.00000000000E+00 0. -1.
         -4    1    3    3    0  502 -0.32406364330E+02 -0.22086640137E+03 -0.33034170536E+02  0.22566212825E+03  0.00000000000E+00 0.  1.
         11    1    5    5    0    0 -0.23499592421E+02  0.30311473657E+02  0.14269265847E+03  0.14775727075E+03  0.00000000000E+00 0. -1.
        -11    1    5    5    0    0 -0.52710572685E+02  0.36272802136E+03  0.73341224666E+03  0.81990459537E+03  0.00000000000E+00 0.  1.
          4    1    6    6  503    0  0.12792042644E+02  0.33257186590E+01  0.77676095788E+01  0.15330770306E+02  0.00000000000E+00 0. -1.
         -4    1    6    6    0  503  0.15152232479E+03  0.36363945781E+03 -0.13102773863E+03  0.41516374899E+03  0.00000000000E+00 0.  1.
<mgrwt>
<rscale>  0 0.21415480E+04</rscale>
<asrwt>0</asrwt>
<pdfrwt beam="1">  1        1 0.20914825E+00 0.21415480E+04</pdfrwt>
<pdfrwt beam="2">  1       -2 0.12975219E+00 0.21415480E+04</pdfrwt>
<totfact> 0.28800104E+00</totfact>
</mgrwt>
</event>
<event>
12    4  0.5920890E-008  0.3448169E+04  0.7818608E-02  0.8126184E-01
          1   -1    0    0  501    0  0.00000000000E+00  0.00000000000E+00  0.20231488998E+04  0.20231488998E+04  0.00000000000E+00 0. -1.
         -2   -1    0    0    0  501 -0.00000000000E+00 -0.00000000000E+00 -0.14692278552E+04  0.14692278552E+04  0.00000000000E+00 0.  1.
        -24    2    1    2    0    0 -0.82280120933E+03 -0.79627509002E+03  0.13972713398E+04  0.18082169654E+04  0.78902141704E+02 0.  0.
        254    2    1    2    0    0  0.82280120933E+03  0.79627509002E+03 -0.84335029520E+03  0.16841597896E+04  0.90227414197E+03 0.  0.
         23    2    4    4    0    0  0.12586741309E+03  0.30578222965E+03  0.14808498309E+03  0.37346080302E+03  0.90545190503E+02 0.  0.
         23    2    4    4    0    0  0.69693379624E+03  0.49049286037E+03 -0.99143527829E+03  0.13106989865E+04  0.93209226258E+02 0.  0.
          1    1    3    3  502    0 -0.77959492417E+03 -0.75969363573E+03  0.13519047613E+04  0.17356696545E+04  0.00000000000E+00 0. -1.
         -2    1    3    3    0  502 -0.43206285155E+02 -0.36581454291E+02  0.45366578448E+02  0.72547310874E+02  0.00000000000E+00 0.  1.
         11    1    5    5    0    0  0.10690234302E+03  0.29364185011E+03  0.15640955217E+03  0.34945328027E+03  0.00000000000E+00 0. -1.
        -11    1    5    5    0    0  0.18965070068E+02  0.12140379542E+02 -0.83245690804E+01  0.24007522748E+02  0.00000000000E+00 0.  1.
          1    1    6    6  503    0  0.59489447322E+03  0.43542234174E+03 -0.80886485703E+03  0.10944196667E+04  0.00000000000E+00 0. -1.
         -1    1    6    6    0  503  0.10203932303E+03  0.55070518632E+02 -0.18257042126E+03  0.21627931983E+03  0.00000000000E+00 0.  1.
<mgrwt>
<rscale>  0 0.34481686E+04</rscale>
<asrwt>0</asrwt>
<pdfrwt beam="1">  1        1 0.31125368E+00 0.34481686E+04</pdfrwt>
<pdfrwt beam="2">  1       -2 0.22603505E+00 0.34481686E+04</pdfrwt>
<totfact> 0.18747596E-01</totfact>
</mgrwt>
</event>
<event>
12    4  0.4320235E-008  0.1561214E+04  0.7818608E-02  0.8844737E-01
          1   -1    0    0  501    0  0.00000000000E+00  0.00000000000E+00  0.16193765673E+04  0.16193765673E+04  0.00000000000E+00 0. -1.
         -2   -1    0    0    0  501 -0.00000000000E+00 -0.00000000000E+00 -0.37628489204E+03  0.37628489204E+03  0.00000000000E+00 0.  1.
        -24    2    1    2    0    0  0.33619597361E+03 -0.11794380294E+03  0.89616895473E+03  0.96765419060E+03  0.79355931381E+02 0.  0.
        254    2    1    2    0    0 -0.33619597361E+03  0.11794380294E+03  0.34692272050E+03  0.10280072687E+04  0.89972501198E+03 0.  0.
         23    2    4    4    0    0  0.41735918038E+02 -0.21347313909E+02 -0.26798390199E+03  0.28692210231E+03  0.91166476312E+02 0.  0.
         23    2    4    4    0    0 -0.37793189164E+03  0.13929111685E+03  0.61490662249E+03  0.74108516639E+03  0.94141061764E+02 0.  0.
          1    1    3    3  502    0  0.12218889934E+03 -0.75529908946E+02  0.41995219068E+03  0.44384089123E+03  0.00000000000E+00 0. -1.
         -2    1    3    3    0  502  0.21400707427E+03 -0.42413893991E+02  0.47621676404E+03  0.52381329937E+03  0.00000000000E+00 0.  1.
         11    1    5    5    0    0  0.59218614856E+02 -0.19422569467E+01 -0.24521620237E+03  0.25227287332E+03  0.00000000000E+00 0.  1.
        -11    1    5    5    0    0 -0.17482696818E+02 -0.19405056962E+02 -0.22767699617E+02  0.34649228990E+02  0.00000000000E+00 0. -1.
          2    1    6    6  503    0 -0.25362265686E+02  0.20772575252E+02  0.10453011769E+03  0.10955039894E+03  0.00000000000E+00 0. -1.
         -2    1    6    6    0  503 -0.35256962596E+03  0.11851854159E+03  0.51037650480E+03  0.63153476745E+03  0.00000000000E+00 0.  1.
<mgrwt>
<rscale>  0 0.15612135E+04</rscale>
<asrwt>0</asrwt>
<pdfrwt beam="1">  1        1 0.24913485E+00 0.15612135E+04</pdfrwt>
<pdfrwt beam="2">  1       -2 0.57889984E-01 0.15612135E+04</pdfrwt>
<totfact> 0.12769225E+01</totfact>
</mgrwt>
</event>
<event>
12    4  0.5832196E-008  0.1747752E+04  0.7818608E-02  0.8734589E-01
         -2   -1    0    0    0  501 -0.00000000000E+00  0.00000000000E+00  0.70023243304E+03  0.70023243304E+03  0.00000000000E+00 0.  1.
          1   -1    0    0  501    0  0.00000000000E+00 -0.00000000000E+00 -0.10905790803E+04  0.10905790803E+04  0.00000000000E+00 0. -1.
        -24    2    1    2    0    0  0.58382910221E+02 -0.31151041107E+03 -0.58130716564E+03  0.66695244747E+03  0.80375655173E+02 0.  0.
        254    2    1    2    0    0 -0.58382910221E+02  0.31151041107E+03  0.19096051842E+03  0.11238590658E+04  0.10612002544E+04 0.  0.
         23    2    4    4    0    0 -0.41012991689E+03  0.11152819409E+03  0.45728011902E+03  0.63079805979E+03  0.90310565159E+02 0.  0.
         23    2    4    4    0    0  0.35174700667E+03  0.19998221698E+03 -0.26631960061E+03  0.49306100605E+03  0.92000990256E+02 0.  0.
          1    1    3    3  502    0  0.36353328162E+02 -0.28317981718E+03 -0.46915487824E+03  0.54919820930E+03  0.00000000000E+00 0. -1.
         -2    1    3    3    0  502  0.22029582059E+02 -0.28330593892E+02 -0.11215228740E+03  0.11775423816E+03  0.00000000000E+00 0.  1.
         11    1    5    5    0    0 -0.34089171138E+03  0.83105431102E+02  0.41969975175E+03  0.54704803554E+03  0.00000000000E+00 0. -1.
        -11    1    5    5    0    0 -0.69238205508E+02  0.28422762991E+02  0.37580367268E+02  0.83750024251E+02  0.00000000000E+00 0.  1.
          3    1    6    6  503    0  0.27503599974E+03  0.19659881647E+03 -0.21306875064E+03  0.39961755253E+03  0.00000000000E+00 0. -1.
         -3    1    6    6    0  503  0.76711006930E+02  0.33834005097E+01 -0.53250849970E+02  0.93443453520E+02  0.00000000000E+00 0.  1.
<mgrwt>
<rscale>  0 0.17477515E+04</rscale>
<asrwt>0</asrwt>
<pdfrwt beam="1">  1        1 0.16778140E+00 0.17477515E+04</pdfrwt>
<pdfrwt beam="2">  1       -2 0.10772807E+00 0.17477515E+04</pdfrwt>
<totfact> 0.74021355E+00</totfact>
</mgrwt>
</event>
<event>
12    4  0.4320235E-008  0.1549470E+04  0.7818608E-02  0.8852206E-01
         -4   -1    0    0    0  501 -0.00000000000E+00  0.00000000000E+00  0.23938335292E+03  0.23938335292E+03  0.00000000000E+00 0.  1.
          1   -1    0    0  501    0  0.00000000000E+00 -0.00000000000E+00 -0.25073345123E+04  0.25073345123E+04  0.00000000000E+00 0. -1.
        -24    2    1    2    0    0  0.24232921388E+03  0.48834290427E+02  0.37233477266E+02  0.26196578070E+03  0.78303911824E+02 0.  0.
        254    2    1    2    0    0 -0.24232921388E+03 -0.48834290427E+02 -0.23051846366E+04  0.24847520845E+04  0.89387274077E+03 0.  0.
         23    2    4    4    0    0 -0.15427591626E+03 -0.45218779717E+03 -0.14907622418E+04  0.15681371204E+04  0.91690263478E+02 0.  0.
         23    2    4    4    0    0 -0.88053297618E+02  0.40335350674E+03 -0.81442239483E+03  0.91661496415E+03  0.80322603813E+02 0.  0.
          1    1    3    3  502    0  0.30862383161E+02 -0.12438063829E+02  0.24708259938E+02  0.41445026666E+02  0.00000000000E+00 0. -1.
         -2    1    3    3    0  502  0.21146683072E+03  0.61272354256E+02  0.12525217328E+02  0.22052075403E+03  0.00000000000E+00 0.  1.
         11    1    5    5    0    0  0.63825668187E+01 -0.75998433850E+01 -0.11570364206E+02  0.15243625112E+02  0.00000000000E+00 0. -1.
        -11    1    5    5    0    0 -0.16065848308E+03 -0.44458795379E+03 -0.14791918776E+04  0.15528934953E+04  0.00000000000E+00 0.  1.
          1    1    6    6  503    0 -0.37078851692E+02  0.44215922366E+02 -0.10352196527E+03  0.11851871720E+03  0.00000000000E+00 0. -1.
         -1    1    6    6    0  503 -0.50974445927E+02  0.35913758438E+03 -0.71090042956E+03  0.79809624695E+03  0.00000000000E+00 0.  1.
<mgrwt>
<rscale>  0 0.15494698E+04</rscale>
<asrwt>0</asrwt>
<pdfrwt beam="1">  1        1 0.38574376E+00 0.15494698E+04</pdfrwt>
<pdfrwt beam="2">  1       -4 0.36828209E-01 0.15494698E+04</pdfrwt>
<totfact> 0.46282252E+00</totfact>
</mgrwt>
</event>
<event>
12    4  0.4320235E-008  0.1539360E+04  0.7818608E-02  0.8858693E-01
         -2   -1    0    0    0  501 -0.00000000000E+00  0.00000000000E+00  0.21131537259E+04  0.21131537259E+04  0.00000000000E+00 0.  1.
          1   -1    0    0  501    0  0.00000000000E+00 -0.00000000000E+00 -0.28034257021E+03  0.28034257021E+03  0.00000000000E+00 0. -1.
        -24    2    1    2    0    0  0.35611504784E+03 -0.20896220678E+03  0.10521765454E+04  0.11328474447E+04  0.76057339970E+02 0.  0.
        254    2    1    2    0    0 -0.35611504784E+03  0.20896220678E+03  0.78063461021E+03  0.12606488514E+04  0.89964548613E+03 0.  0.
         23    2    4    4    0    0 -0.37225528412E+03 -0.24274421988E+03  0.62921141350E+03  0.77603046692E+03  0.93901703245E+02 0.  0.
         23    2    4    4    0    0  0.16140236283E+02  0.45170642666E+03  0.15142319671E+03  0.48461838448E+03  0.87331500352E+02 0.  0.
          1    1    3    3  502    0  0.10052225250E+03 -0.62475132020E+02  0.21609903219E+03  0.24638720965E+03  0.00000000000E+00 0. -1.
         -2    1    3    3    0  502  0.25559279534E+03 -0.14648707476E+03  0.83607751325E+03  0.88646023502E+03  0.00000000000E+00 0.  1.
         11    1    5    5    0    0 -0.30157024858E+03 -0.16768069632E+03  0.53341736910E+03  0.63529168136E+03  0.00000000000E+00 0.  1.
        -11    1    5    5    0    0 -0.70685035546E+02 -0.75063523567E+02  0.95794044397E+02  0.14073878556E+03  0.00000000000E+00 0. -1.
          1    1    6    6  503    0  0.23996868552E+02  0.50209744214E+02  0.37821939729E+02  0.67285713485E+02  0.00000000000E+00 0. -1.
         -1    1    6    6    0  503 -0.78566322681E+01  0.40149668245E+03  0.11360125698E+03  0.41733267099E+03  0.00000000000E+00 0.  1.
<mgrwt>
<rscale>  0 0.15393595E+04</rscale>
<asrwt>0</asrwt>
<pdfrwt beam="1">  1        1 0.43129627E-01 0.15393595E+04</pdfrwt>
<pdfrwt beam="2">  1       -2 0.32510056E+00 0.15393595E+04</pdfrwt>
<totfact> 0.18047847E+00</totfact>
</mgrwt>
</event>
<event>
12    4  0.4320235E-008  0.1788068E+04  0.7818608E-02  0.8712670E-01
         -2   -1    0    0    0  501 -0.00000000000E+00  0.00000000000E+00  0.47125880201E+03  0.47125880201E+03  0.00000000000E+00 0.  1.
          1   -1    0    0  501    0  0.00000000000E+00 -0.00000000000E+00 -0.16960893438E+04  0.16960893438E+04  0.00000000000E+00 0. -1.
        -24    2    1    2    0    0  0.17642726722E+03 -0.44639866128E+03 -0.10554596553E+04  0.11621689304E+04  0.79013881865E+02 0.  0.
        254    2    1    2    0    0 -0.17642726722E+03  0.44639866128E+03 -0.16937088654E+03  0.10051792154E+04  0.86677587211E+03 0.  0.
         23    2    4    4    0    0 -0.22291813063E+03 -0.18120085739E+01  0.27505072424E+03  0.36568715855E+03  0.91533713356E+02 0.  0.
         23    2    4    4    0    0  0.46490863417E+02  0.44821066985E+03 -0.44442161078E+03  0.63949205686E+03  0.91571380368E+02 0.  0.
          3    1    3    3  502    0  0.68320738794E+02 -0.18166299491E+03 -0.52173936652E+03  0.55666968091E+03  0.00000000000E+00 0. -1.
         -4    1    3    3    0  502  0.10810652842E+03 -0.26473566637E+03 -0.53372028877E+03  0.60549924953E+03  0.00000000000E+00 0.  1.
         11    1    5    5    0    0 -0.16303141578E+03  0.61880470005E+01  0.13017472461E+03  0.20871749659E+03  0.00000000000E+00 0. -1.
        -11    1    5    5    0    0 -0.59886714854E+02 -0.80000555745E+01  0.14487599963E+03  0.15696966195E+03  0.00000000000E+00 0.  1.
          1    1    6    6  503    0  0.73587404702E+02  0.28412730466E+03 -0.28096790803E+03  0.40630825333E+03  0.00000000000E+00 0. -1.
         -1    1    6    6    0  503 -0.27096541285E+02  0.16408336519E+03 -0.16345370275E+03  0.23318380352E+03  0.00000000000E+00 0.  1.
<mgrwt>
<rscale>  0 0.17880683E+04</rscale>
<asrwt>0</asrwt>
<pdfrwt beam="1">  1        1 0.26093682E+00 0.17880683E+04</pdfrwt>
<pdfrwt beam="2">  1       -2 0.72501355E-01 0.17880683E+04</pdfrwt>
<totfact> 0.68427704E+00</totfact>
</mgrwt>
</event>
<event>
12    4  0.4320235E-008  0.1207140E+04  0.7818608E-02  0.9106630E-01
          1   -1    0    0  501    0  0.00000000000E+00  0.00000000000E+00  0.42725800624E+03  0.42725800624E+03  0.00000000000E+00 0. -1.
         -2   -1    0    0    0  501 -0.00000000000E+00 -0.00000000000E+00 -0.85263821509E+03  0.85263821509E+03  0.00000000000E+00 0.  1.
        -24    2    1    2    0    0  0.91452265576E+02  0.15931347537E+03 -0.29913054159E+03  0.35983560837E+03  0.79109315661E+02 0.  0.
        254    2    1    2    0    0 -0.91452265576E+02 -0.15931347537E+03 -0.12624966726E+03  0.92006061296E+03  0.89265236948E+03 0.  0.
         23    2    4    4    0    0 -0.11250728268E+03 -0.41587412251E+03  0.20922222858E+03  0.48758799082E+03  0.91427202866E+02 0.  0.
         23    2    4    4    0    0  0.21055017108E+02  0.25656064714E+03 -0.33547189585E+03  0.43247262215E+03  0.90689010345E+02 0.  0.
          1    1    3    3  502    0  0.54177939654E+01  0.43090264565E+02 -0.25541876200E+02  0.50383636545E+02  0.00000000000E+00 0. -1.
         -2    1    3    3    0  502  0.86034471611E+02  0.11622321081E+03 -0.27358866539E+03  0.30945197182E+03  0.00000000000E+00 0.  1.
         11    1    5    5    0    0 -0.10964878403E+03 -0.23288778022E+03  0.12243421366E+03  0.28504334879E+03  0.00000000000E+00 0.  1.
        -11    1    5    5    0    0 -0.28584986571E+01 -0.18298634229E+03  0.86788014927E+02  0.20254464203E+03  0.00000000000E+00 0. -1.
          1    1    6    6  503    0  0.27478265676E+02  0.19342045334E+02 -0.25987426910E+02  0.42479596981E+02  0.00000000000E+00 0. -1.
         -1    1    6    6    0  503 -0.64232485681E+01  0.23721860180E+03 -0.30948446894E+03  0.38999302516E+03  0.00000000000E+00 0.  1.
<mgrwt>
<rscale>  0 0.12071396E+04</rscale>
<asrwt>0</asrwt>
<pdfrwt beam="1">  1        1 0.65732002E-01 0.12071396E+04</pdfrwt>
<pdfrwt beam="2">  1       -2 0.13117511E+00 0.12071396E+04</pdfrwt>
<totfact> 0.20142132E+01</totfact>
</mgrwt>
</event>
<event>
12    4  0.4320235E-008  0.1382405E+04  0.7818608E-02  0.8966654E-01
         -2   -1    0    0    0  501 -0.00000000000E+00  0.00000000000E+00  0.63702094669E+03  0.63702094669E+03  0.00000000000E+00 0.  1.
          1   -1    0    0  501    0  0.00000000000E+00 -0.00000000000E+00 -0.74999288467E+03  0.74999288467E+03  0.00000000000E+00 0. -1.
        -24    2    1    2    0    0 -0.18901227026E+03  0.17340598195E+03  0.26671635903E+03  0.37824156247E+03  0.78318519628E+02 0.  0.
        254    2    1    2    0    0  0.18901227026E+03 -0.17340598195E+03 -0.37968829702E+03  0.10087722689E+04  0.89870073701E+03 0.  0.
         23    2    4    4    0    0 -0.30024489565E+03 -0.28440153841E+03 -0.18556884579E+03  0.46264594243E+03  0.92597187377E+02 0.  0.
         23    2    4    4    0    0  0.48925716591E+03  0.11099555646E+03 -0.19411945123E+03  0.54612632646E+03  0.94228526245E+02 0.  0.
          1    1    3    3  502    0  0.12448500169E+00 -0.29739407172E+01 -0.32388151502E+01  0.43988343322E+01  0.00000000000E+00 0. -1.
         -2    1    3    3    0  502 -0.18913675526E+03  0.17637992266E+03  0.26995517418E+03  0.37384272813E+03  0.00000000000E+00 0.  1.
         11    1    5    5    0    0 -0.10261756613E+03 -0.41987679148E+02 -0.54189235150E+02  0.12340908915E+03  0.00000000000E+00 0.  1.
        -11    1    5    5    0    0 -0.19762732952E+03 -0.24241385926E+03 -0.13137961064E+03  0.33923685329E+03  0.00000000000E+00 0. -1.
          4    1    6    6  503    0  0.43045589944E+03  0.11226830397E+03 -0.19853160146E+03  0.48714602556E+03  0.00000000000E+00 0. -1.
         -4    1    6    6    0  503  0.58801266472E+02 -0.12727475078E+01  0.44121502323E+01  0.58980300903E+02  0.00000000000E+00 0.  1.
<mgrwt>
<rscale>  0 0.13824054E+04</rscale>
<asrwt>0</asrwt>
<pdfrwt beam="1">  1        1 0.11538352E+00 0.13824054E+04</pdfrwt>
<pdfrwt beam="2">  1       -2 0.98003223E-01 0.13824054E+04</pdfrwt>
<totfact> 0.18147178E+01</totfact>
</mgrwt>
</event>
<event>
12    4  0.4320235E-008  0.1300520E+04  0.7818608E-02  0.9029153E-01
         -2   -1    0    0    0  501 -0.00000000000E+00  0.00000000000E+00  0.11680268426E+04  0.11680268426E+04  0.00000000000E+00 0.  1.
          1   -1    0    0  501    0  0.00000000000E+00 -0.00000000000E+00 -0.36201070067E+03  0.36201070067E+03  0.00000000000E+00 0. -1.
        -24    2    1    2    0    0 -0.17514163657E+03  0.29807308644E+03  0.21293337058E+03  0.41378261395E+03  0.79707424855E+02 0.  0.
        254    2    1    2    0    0  0.17514163657E+03 -0.29807308644E+03  0.59308277138E+03  0.11162549294E+04  0.88020209945E+03 0.  0.
         23    2    4    4    0    0  0.87480750639E+02 -0.34223634021E+03 -0.12573550271E+03  0.38529751344E+03  0.88691391486E+02 0.  0.
         23    2    4    4    0    0  0.87660885935E+02  0.44163253773E+02  0.71881827410E+03  0.73095741592E+03  0.89242415968E+02 0.  0.
          1    1    3    3  502    0 -0.17266786587E+03  0.23712380290E+03  0.16812761055E+03  0.33809581961E+03  0.00000000000E+00 0. -1.
         -2    1    3    3    0  502 -0.24737706995E+01  0.60949283543E+02  0.44805760024E+02  0.75686794338E+02  0.00000000000E+00 0.  1.
         11    1    5    5    0    0  0.68341205431E+02 -0.24382185201E+03 -0.13061431441E+03  0.28492054156E+03  0.00000000000E+00 0.  1.
        -11    1    5    5    0    0  0.19139545208E+02 -0.98414488201E+02  0.48788116922E+01  0.10037697187E+03  0.00000000000E+00 0. -1.
          1    1    6    6  503    0  0.33556779117E+02  0.65868114933E+02  0.43122786753E+03  0.43751815931E+03  0.00000000000E+00 0.  1.
         -1    1    6    6    0  503  0.54104106818E+02 -0.21704861160E+02  0.28759040656E+03  0.29343925661E+03  0.00000000000E+00 0. -1.
<mgrwt>
<rscale>  0 0.13005202E+04</rscale>
<asrwt>0</asrwt>
<pdfrwt beam="1">  1        1 0.55693954E-01 0.13005202E+04</pdfrwt>
<pdfrwt beam="2">  1       -2 0.17969644E+00 0.13005202E+04</pdfrwt>
<totfact> 0.10698581E+01</totfact>
</mgrwt>
</event>
<event>
12    4  0.4320235E-008  0.1756912E+04  0.7818608E-02  0.8729555E-01
          3   -1    0    0  501    0  0.00000000000E+00  0.00000000000E+00  0.56622372874E+03  0.56622372874E+03  0.00000000000E+00 0. -1.
         -4   -1    0    0    0  501 -0.00000000000E+00 -0.00000000000E+00 -0.13628625910E+04  0.13628625910E+04  0.00000000000E+00 0.  1.
        -24    2    1    2    0    0 -0.32675284546E+03  0.21972810970E+02  0.31694996191E+03  0.46239945641E+03  0.78139314646E+02 0.  0.
        254    2    1    2    0    0  0.32675284546E+03 -0.21972810970E+02 -0.11135888242E+04  0.14666868633E+04  0.89657127956E+03 0.  0.
         23    2    4    4    0    0  0.37893246868E+03 -0.87828055128E+02 -0.12306784360E+04  0.12939007719E+04  0.91138419450E+02 0.  0.
         23    2    4    4    0    0 -0.52179623215E+02  0.65855244159E+02  0.11708961183E+03  0.17278609148E+03  0.95317521723E+02 0.  0.
          3    1    3    3  502    0 -0.16448951125E+03 -0.11906695112E+02  0.11462719737E+03  0.20084313052E+03  0.00000000000E+00 0. -1.
         -4    1    3    3    0  502 -0.16226333421E+03  0.33879506082E+02  0.20232276454E+03  0.26155632589E+03  0.00000000000E+00 0.  1.
         11    1    5    5    0    0  0.21788445985E+03 -0.50645184694E+01 -0.63987973670E+03  0.67597734032E+03  0.00000000000E+00 0.  1.
        -11    1    5    5    0    0  0.16104800883E+03 -0.82763536659E+02 -0.59079869930E+03  0.61792343154E+03  0.00000000000E+00 0. -1.
          3    1    6    6  503    0 -0.45207513386E+02  0.40498504369E+02  0.13001441660E+03  0.14348378531E+03  0.00000000000E+00 0. -1.
         -3    1    6    6    0  503 -0.69721098286E+01  0.25356739790E+02 -0.12924804773E+02  0.29302306166E+02  0.00000000000E+00 0.  1.
<mgrwt>
<rscale>  0 0.17569122E+04</rscale>
<asrwt>0</asrwt>
<pdfrwt beam="1">  1        3 0.87111344E-01 0.17569122E+04</pdfrwt>
<pdfrwt beam="2">  1       -4 0.20967116E+00 0.17569122E+04</pdfrwt>
<totfact> 0.29595663E-01</totfact>
</mgrwt>
</event>
<event>
12    4  0.4320235E-008  0.2466466E+04  0.7818608E-02  0.8415030E-01
          1   -1    0    0  501    0  0.00000000000E+00  0.00000000000E+00  0.20501509586E+04  0.20501509586E+04  0.00000000000E+00 0. -1.
         -2   -1    0    0    0  501 -0.00000000000E+00 -0.00000000000E+00 -0.74183022036E+03  0.74183022036E+03  0.00000000000E+00 0.  1.
        -24    2    1    2    0    0  0.20033846895E+03 -0.10356241064E+04  0.73829964251E+03  0.12897915731E+04  0.76309554147E+02 0.  0.
        254    2    1    2    0    0 -0.20033846895E+03  0.10356241064E+04  0.57002109576E+03  0.15021896059E+04  0.90498440348E+03 0.  0.
         23    2    4    4    0    0 -0.28461465718E+03  0.67293742402E+03 -0.86607908325E+02  0.74137726194E+03  0.91044137746E+02 0.  0.
         23    2    4    4    0    0  0.84276188230E+02  0.36268668237E+03  0.65662900408E+03  0.76081234394E+03  0.95024566406E+02 0.  0.
          3    1    3    3  502    0  0.24068282011E+01 -0.10137777007E+03  0.53481428202E+02  0.11464514054E+03  0.00000000000E+00 0. -1.
         -4    1    3    3    0  502  0.19793164075E+03 -0.93424633632E+03  0.68481821431E+03  0.11751464326E+04  0.00000000000E+00 0.  1.
         11    1    5    5    0    0 -0.21341971681E+02  0.24138430494E+02  0.11804508032E+02  0.34314574045E+02  0.00000000000E+00 0.  1.
        -11    1    5    5    0    0 -0.26327268550E+03  0.64879899352E+03 -0.98412416357E+02  0.70706268790E+03  0.00000000000E+00 0. -1.
          3    1    6    6  503    0  0.94421140188E+02  0.30516195485E+03  0.59846545366E+03  0.67838047557E+03  0.00000000000E+00 0. -1.
         -3    1    6    6    0  503 -0.10144951958E+02  0.57524727518E+02  0.58163550419E+02  0.82431868374E+02  0.00000000000E+00 0.  1.
<mgrwt>
<rscale>  0 0.24664662E+04</rscale>
<asrwt>0</asrwt>
<pdfrwt beam="1">  1        1 0.31540784E+00 0.24664662E+04</pdfrwt>
<pdfrwt beam="2">  1       -2 0.11412773E+00 0.24664662E+04</pdfrwt>
<totfact> 0.12958177E+00</totfact>
</mgrwt>
</event>
<event>
12    4  0.4320235E-008  0.1358185E+04  0.7818608E-02  0.8984655E-01
          1   -1    0    0  501    0  0.00000000000E+00  0.00000000000E+00  0.11794930106E+04  0.11794930106E+04  0.00000000000E+00 0. -1.
         -2   -1    0    0    0  501 -0.00000000000E+00 -0.00000000000E+00 -0.39098693501E+03  0.39098693501E+03  0.00000000000E+00 0.  1.
        -24    2    1    2    0    0 -0.38424994186E+02  0.91449281162E+02  0.64804719414E+03  0.65995807676E+03  0.75763091576E+02 0.  0.
        254    2    1    2    0    0  0.38424994186E+02 -0.91449281162E+02  0.14045888149E+03  0.91052186889E+03  0.89413753144E+03 0.  0.
         23    2    4    4    0    0  0.17998216737E+03 -0.28061567778E+03  0.41335790749E+03  0.53853343809E+03  0.89525220314E+02 0.  0.
         23    2    4    4    0    0 -0.14155717319E+03  0.18916639662E+03 -0.27289902600E+03  0.37198843079E+03  0.89884121849E+02 0.  0.
          3    1    3    3  502    0 -0.24902999745E+02  0.62912214782E+02  0.59008765984E+03  0.59395416697E+03  0.00000000000E+00 0. -1.
         -4    1    3    3    0  502 -0.13521994441E+02  0.28537066381E+02  0.57959534291E+02  0.66003909782E+02  0.00000000000E+00 0.  1.
         11    1    5    5    0    0  0.14244232843E+03 -0.14056498496E+03  0.24506169226E+03  0.31639147419E+03  0.00000000000E+00 0. -1.
        -11    1    5    5    0    0  0.37539838943E+02 -0.14005069282E+03  0.16829621523E+03  0.22214196390E+03  0.00000000000E+00 0.  1.
          3    1    6    6  503    0 -0.13754088490E+03  0.12431608519E+03 -0.22338569662E+03  0.29029838703E+03  0.00000000000E+00 0. -1.
         -3    1    6    6    0  503 -0.40162882881E+01  0.64850311428E+02 -0.49513329375E+02  0.81690043761E+02  0.00000000000E+00 0.  1.
<mgrwt>
<rscale>  0 0.13581846E+04</rscale>
<asrwt>0</asrwt>
<pdfrwt beam="1">  1        1 0.18146046E+00 0.13581846E+04</pdfrwt>
<pdfrwt beam="2">  1       -2 0.60151836E-01 0.13581846E+04</pdfrwt>
<totfact> 0.24448903E+01</totfact>
</mgrwt>
</event>
<event>
12    4  0.4320235E-008  0.2303134E+04  0.7818608E-02  0.8476686E-01
          1   -1    0    0  501    0  0.00000000000E+00  0.00000000000E+00  0.17820349563E+04  0.17820349563E+04  0.00000000000E+00 0. -1.
         -2   -1    0    0    0  501 -0.00000000000E+00 -0.00000000000E+00 -0.74415297020E+03  0.74415297020E+03  0.00000000000E+00 0.  1.
        -24    2    1    2    0    0 -0.78524240033E+03  0.26381377182E+03  0.10046716653E+04  0.13045838568E+04  0.79815730383E+02 0.  0.
        254    2    1    2    0    0  0.78524240033E+03 -0.26381377182E+03  0.33210320775E+02  0.12216040697E+04  0.89722363115E+03 0.  0.
         23    2    4    4    0    0  0.96351486953E+03 -0.12219006188E+03  0.26164797781E+02  0.97640856272E+03  0.96942094532E+02 0.  0.
         23    2    4    4    0    0 -0.17827246920E+03 -0.14162370994E+03  0.70455229946E+01  0.24519550700E+03  0.90735047071E+02 0.  0.
          3    1    3    3  502    0 -0.53404590685E+03  0.21630780950E+03  0.71372423293E+03  0.91727661027E+03  0.00000000000E+00 0. -1.
         -4    1    3    3    0  502 -0.25119649347E+03  0.47505962318E+02  0.29094743241E+03  0.38730724653E+03  0.00000000000E+00 0.  1.
         11    1    5    5    0    0  0.18125409388E+03 -0.16663416799E+02 -0.32451741100E+02  0.18488870033E+03  0.00000000000E+00 0. -1.
        -11    1    5    5    0    0  0.78226077564E+03 -0.10552664508E+03  0.58616538880E+02  0.79151986239E+03  0.00000000000E+00 0.  1.
          4    1    6    6  503    0 -0.98334404931E+02 -0.52329281742E+02  0.44019381039E+02  0.11977359821E+03  0.00000000000E+00 0. -1.
         -4    1    6    6    0  503 -0.79938064270E+02 -0.89294428197E+02 -0.36973858044E+02  0.12542190879E+03  0.00000000000E+00 0.  1.
<mgrwt>
<rscale>  0 0.23031340E+04</rscale>
<asrwt>0</asrwt>
<pdfrwt beam="1">  1        1 0.27415922E+00 0.23031340E+04</pdfrwt>
<pdfrwt beam="2">  1       -2 0.11448507E+00 0.23031340E+04</pdfrwt>
<totfact> 0.19826931E+00</totfact>
</mgrwt>
</event>
<event>
12    4  0.4320235E-008  0.2008222E+04  0.7818608E-02  0.8602786E-01
          1   -1    0    0  501    0  0.00000000000E+00  0.00000000000E+00  0.15826762852E+04  0.15826762852E+04  0.00000000000E+00 0. -1.
         -4   -1    0    0    0  501 -0.00000000000E+00 -0.00000000000E+00 -0.63704697418E+03  0.63704697418E+03  0.00000000000E+00 0.  1.
        -24    2    1    2    0    0  0.49629794583E+03 -0.21429882550E+03 -0.26903515058E+03  0.60827545071E+03  0.73372161223E+02 0.  0.
        254    2    1    2    0    0 -0.49629794583E+03  0.21429882550E+03  0.12146644616E+04  0.16114478087E+04  0.91055952478E+03 0.  0.
         23    2    4    4    0    0 -0.51804250820E+03  0.13718106803E+03  0.13346309293E+04  0.14410892744E+04  0.91169588321E+02 0.  0.
         23    2    4    4    0    0  0.21744562372E+02  0.77117757471E+02 -0.11996646762E+03  0.17035853427E+03  0.90609615030E+02 0.  0.
          3    1    3    3  502    0  0.36486116565E+03 -0.17133463255E+03 -0.16647055912E+03  0.43610970359E+03  0.00000000000E+00 0. -1.
         -4    1    3    3    0  502  0.13143678017E+03 -0.42964192950E+02 -0.10256459146E+03  0.17216574712E+03  0.00000000000E+00 0.  1.
         11    1    5    5    0    0 -0.18436899214E+03  0.91773225566E+02  0.46674693244E+03  0.51016364937E+03  0.00000000000E+00 0. -1.
        -11    1    5    5    0    0 -0.33367351606E+03  0.45407842465E+02  0.86788399682E+03  0.93092562507E+03  0.00000000000E+00 0.  1.
          1    1    6    6  503    0  0.13940242686E+02  0.36793181067E+02  0.42058037381E+01  0.39569651556E+02  0.00000000000E+00 0. -1.
         -1    1    6    6    0  503  0.78043196863E+01  0.40324576404E+02 -0.12417227136E+03  0.13078888272E+03  0.00000000000E+00 0.  1.
<mgrwt>
<rscale>  0 0.20082222E+04</rscale>
<asrwt>0</asrwt>
<pdfrwt beam="1">  1        1 0.24348866E+00 0.20082222E+04</pdfrwt>
<pdfrwt beam="2">  1       -4 0.98007227E-01 0.20082222E+04</pdfrwt>
<totfact> 0.22562290E+00</totfact>
</mgrwt>
</event>
<event>
12    4  0.4320235E-008  0.9862766E+03  0.7818608E-02  0.9323726E-01
         -2   -1    0    0    0  501 -0.00000000000E+00  0.00000000000E+00  0.53682431697E+03  0.53682431697E+03  0.00000000000E+00 0.  1.
          1   -1    0    0  501    0  0.00000000000E+00 -0.00000000000E+00 -0.45300737954E+03  0.45300737954E+03  0.00000000000E+00 0. -1.
        -24    2    1    2    0    0 -0.50130122439E+02 -0.22627163366E+02  0.32332581884E+02  0.10211100947E+03  0.79726060389E+02 0.  0.
        254    2    1    2    0    0  0.50130122439E+02  0.22627163366E+02  0.51484355552E+02  0.88772068704E+03  0.88451815224E+03 0.  0.
         23    2    4    4    0    0 -0.97635239411E+02  0.23627309436E+03 -0.32302036135E+03  0.42212932482E+03  0.92159632898E+02 0.  0.
         23    2    4    4    0    0  0.14776536185E+03 -0.21364593099E+03  0.37450471690E+03  0.46559136222E+03  0.95091259358E+02 0.  0.
          1    1    3    3  502    0  0.13449772180E+02  0.49870800436E+01 -0.12940077790E+02  0.19318720255E+02  0.00000000000E+00 0. -1.
         -2    1    3    3    0  502 -0.63579894619E+02 -0.27614243409E+02  0.45272659674E+02  0.82792289211E+02  0.00000000000E+00 0.  1.
         11    1    5    5    0    0  0.59770327354E+01  0.10605594485E+02 -0.56744577312E+02  0.58035770082E+02  0.00000000000E+00 0. -1.
        -11    1    5    5    0    0 -0.10361227215E+03  0.22566749987E+03 -0.26627578403E+03  0.36409355474E+03  0.00000000000E+00 0.  1.
          1    1    6    6  503    0  0.64313082135E+02 -0.39942854175E+02  0.59395716619E+02  0.96226063445E+02  0.00000000000E+00 0. -1.
         -1    1    6    6    0  503  0.83452279715E+02 -0.17370307682E+03  0.31510900028E+03  0.36936529878E+03  0.00000000000E+00 0.  1.
<mgrwt>
<rscale>  0 0.98627659E+03</rscale>
<asrwt>0</asrwt>
<pdfrwt beam="1">  1        1 0.69693443E-01 0.98627659E+03</pdfrwt>
<pdfrwt beam="2">  1       -2 0.82588356E-01 0.98627659E+03</pdfrwt>
<totfact> 0.57292129E+01</totfact>
</mgrwt>
</event>
<event>
12    4  0.4320235E-008  0.1965430E+04  0.7818608E-02  0.8622956E-01
         -2   -1    0    0    0  501 -0.00000000000E+00  0.00000000000E+00  0.54971053826E+03  0.54971053826E+03  0.00000000000E+00 0.  1.
          1   -1    0    0  501    0  0.00000000000E+00 -0.00000000000E+00 -0.17567947221E+04  0.17567947221E+04  0.00000000000E+00 0. -1.
        -24    2    1    2    0    0  0.64173084017E+03 -0.31061327523E+03 -0.13807226050E+03  0.73046487919E+03  0.78841059256E+02 0.  0.
        254    2    1    2    0    0 -0.64173084017E+03  0.31061327523E+03 -0.10690119233E+04  0.15760403812E+04  0.91258846852E+03 0.  0.
         23    2    4    4    0    0 -0.63570352191E+03 -0.15518761628E+03 -0.46575159084E+03  0.80832516462E+03  0.90900293565E+02 0.  0.
         23    2    4    4    0    0 -0.60273182649E+01  0.46580089151E+03 -0.60326033249E+03  0.76771521655E+03  0.91961001933E+02 0.  0.
          3    1    3    3  502    0  0.16048893657E+03 -0.42538424279E+02 -0.42259401923E+02  0.17132446805E+03  0.00000000000E+00 0. -1.
         -4    1    3    3    0  502  0.48124190360E+03 -0.26807485095E+03 -0.95812858582E+02  0.55914041113E+03  0.00000000000E+00 0.  1.
         11    1    5    5    0    0 -0.56353837436E+03 -0.10754404970E+03 -0.41482480439E+03  0.70796951936E+03  0.00000000000E+00 0.  1.
        -11    1    5    5    0    0 -0.72165147546E+02 -0.47643566581E+02 -0.50926786444E+02  0.10035564525E+03  0.00000000000E+00 0. -1.
          1    1    6    6  503    0 -0.28337584436E+02  0.13913449266E+03 -0.23837643218E+03  0.27746125704E+03  0.00000000000E+00 0. -1.
         -1    1    6    6    0  503  0.22310266171E+02  0.32666639885E+03 -0.36488390031E+03  0.49025395952E+03  0.00000000000E+00 0.  1.
<mgrwt>
<rscale>  0 0.19654298E+04</rscale>
<asrwt>0</asrwt>
<pdfrwt beam="1">  1        1 0.27027611E+00 0.19654298E+04</pdfrwt>
<pdfrwt beam="2">  1       -2 0.84570853E-01 0.19654298E+04</pdfrwt>
<totfact> 0.43404345E+00</totfact>
</mgrwt>
</event>
<event>
12    4  0.4320235E-008  0.2402846E+04  0.7818608E-02  0.8438439E-01
         -2   -1    0    0    0  501 -0.00000000000E+00  0.00000000000E+00  0.59662029334E+03  0.59662029334E+03  0.00000000000E+00 0.  1.
          1   -1    0    0  501    0  0.00000000000E+00 -0.00000000000E+00 -0.24193228400E+04  0.24193228400E+04  0.00000000000E+00 0. -1.
        -24    2    1    2    0    0 -0.56293751594E+03 -0.79914826278E+03 -0.11942524264E+04  0.15453627751E+04  0.79816388414E+02 0.  0.
        254    2    1    2    0    0  0.56293751594E+03  0.79914826278E+03 -0.62845012018E+03  0.14705803582E+04  0.90117725427E+03 0.  0.
         23    2    4    4    0    0  0.47049922297E+03  0.52071136667E+02 -0.51192539079E+03  0.70323943128E+03  0.91636073017E+02 0.  0.
         23    2    4    4    0    0  0.92438292968E+02  0.74707712612E+03 -0.11652472939E+03  0.76734092693E+03  0.92547367338E+02 0.  0.
          3    1    3    3  502    0 -0.40664262792E+03 -0.55007855771E+03 -0.88608547845E+03  0.11194159734E+04  0.00000000000E+00 0. -1.
         -4    1    3    3    0  502 -0.15629488802E+03 -0.24906970508E+03 -0.30816694799E+03  0.42594680166E+03  0.00000000000E+00 0.  1.
         11    1    5    5    0    0  0.15905623048E+02  0.13573078953E+02 -0.49061151383E+02  0.53331171859E+02  0.00000000000E+00 0. -1.
        -11    1    5    5    0    0  0.45459359992E+03  0.38498057714E+02 -0.46286423940E+03  0.64990825942E+03  0.00000000000E+00 0.  1.
          1    1    6    6  503    0 -0.84526955063E+01  0.88964292071E+01 -0.74484932849E+01  0.14355297495E+02  0.00000000000E+00 0. -1.
         -1    1    6    6    0  503  0.10089098847E+03  0.73818069691E+03 -0.10907623611E+03  0.75298562943E+03  0.00000000000E+00 0.  1.
<mgrwt>
<rscale>  0 0.24028459E+04</rscale>
<asrwt>0</asrwt>
<pdfrwt beam="1">  1        1 0.37220351E+00 0.24028459E+04</pdfrwt>
<pdfrwt beam="2">  1       -2 0.91787738E-01 0.24028459E+04</pdfrwt>
<totfact> 0.12248808E+00</totfact>
</mgrwt>
</event>
<event>
12    4  0.4320235E-008  0.1534628E+04  0.7818608E-02  0.8861746E-01
          1   -1    0    0  501    0  0.00000000000E+00  0.00000000000E+00  0.15219683274E+04  0.15219683274E+04  0.00000000000E+00 0. -1.
         -2   -1    0    0    0  501 -0.00000000000E+00 -0.00000000000E+00 -0.38684846377E+03  0.38684846377E+03  0.00000000000E+00 0.  1.
        -24    2    1    2    0    0 -0.16237856119E+03  0.24668589253E+03 -0.13710687022E+03  0.33531986618E+03  0.80127349163E+02 0.  0.
        254    2    1    2    0    0  0.16237856119E+03 -0.24668589253E+03  0.12722267338E+04  0.15734969249E+04  0.87755967540E+03 0.  0.
         23    2    4    4    0    0  0.14820243938E+03 -0.39242468473E+02  0.13281880762E+04  0.13401761523E+04  0.92111992287E+02 0.  0.
         23    2    4    4    0    0  0.14176121813E+02 -0.20744342406E+03 -0.55961342353E+02  0.23332077266E+03  0.89850845869E+02 0.  0.
          1    1    3    3  502    0 -0.16692985339E+01  0.56831978558E+02 -0.18856899032E+02  0.59901944756E+02  0.00000000000E+00 0. -1.
         -2    1    3    3    0  502 -0.16070926266E+03  0.18985391397E+03 -0.11824997119E+03  0.27541792142E+03  0.00000000000E+00 0.  1.
         11    1    5    5    0    0  0.14255812307E+01 -0.21642242364E+02  0.68702405405E+02  0.72044704488E+02  0.00000000000E+00 0. -1.
        -11    1    5    5    0    0  0.14677685815E+03 -0.17600226109E+02  0.12594856708E+04  0.12681314478E+04  0.00000000000E+00 0.  1.
          2    1    6    6  503    0  0.11216487291E+02 -0.66599786923E+02  0.23587120141E+02  0.71538055899E+02  0.00000000000E+00 0. -1.
         -2    1    6    6    0  503  0.29596345217E+01 -0.14084363713E+03 -0.79548462495E+02  0.16178271676E+03  0.00000000000E+00 0.  1.
<mgrwt>
<rscale>  0 0.15346284E+04</rscale>
<asrwt>0</asrwt>
<pdfrwt beam="1">  1        1 0.23414897E+00 0.15346284E+04</pdfrwt>
<pdfrwt beam="2">  1       -2 0.59515149E-01 0.15346284E+04</pdfrwt>
<totfact> 0.14086755E+01</totfact>
</mgrwt>
</event>
<event>
12    4  0.4320235E-008  0.1634933E+04  0.7818608E-02  0.8799370E-01
         -2   -1    0    0    0  501 -0.00000000000E+00  0.00000000000E+00  0.75111006409E+03  0.75111006409E+03  0.00000000000E+00 0.  1.
          1   -1    0    0  501    0  0.00000000000E+00 -0.00000000000E+00 -0.88968499912E+03  0.88968499912E+03  0.00000000000E+00 0. -1.
        -24    2    1    2    0    0  0.17794110226E+03  0.12114054226E+03 -0.57265252506E+03  0.61768382353E+03  0.85231006876E+02 0.  0.
        254    2    1    2    0    0 -0.17794110226E+03 -0.12114054226E+03  0.43407759004E+03  0.10231112397E+04  0.90110775590E+03 0.  0.
         23    2    4    4    0    0  0.42375711044E+02  0.35078008142E+03  0.31248422498E+03  0.48066406599E+03  0.92461814060E+02 0.  0.
         23    2    4    4    0    0 -0.22031681331E+03 -0.47192062368E+03  0.12159336505E+03  0.54244717369E+03  0.90638935043E+02 0.  0.
          3    1    3    3  502    0  0.88152968976E+02  0.12401940937E+02 -0.25644331579E+03  0.27145520494E+03  0.00000000000E+00 0. -1.
         -4    1    3    3    0  502  0.89788133287E+02  0.10873860132E+03 -0.31620920928E+03  0.34622861859E+03  0.00000000000E+00 0.  1.
         11    1    5    5    0    0 -0.27759171967E+02  0.60688039379E+02  0.54280834078E+02  0.86023361363E+02  0.00000000000E+00 0. -1.
        -11    1    5    5    0    0  0.70134883011E+02  0.29009204204E+03  0.25820339091E+03  0.39464070462E+03  0.00000000000E+00 0.  1.
          2    1    6    6  503    0 -0.92209993799E+02 -0.13591653115E+03  0.72428889959E+02  0.17950468099E+03  0.00000000000E+00 0. -1.
         -2    1    6    6    0  503 -0.12810681951E+03 -0.33600409253E+03  0.49164475096E+02  0.36294249271E+03  0.00000000000E+00 0.  1.
<mgrwt>
<rscale>  0 0.16349329E+04</rscale>
<asrwt>0</asrwt>
<pdfrwt beam="1">  1        1 0.13687461E+00 0.16349329E+04</pdfrwt>
<pdfrwt beam="2">  1       -2 0.11555539E+00 0.16349329E+04</pdfrwt>
<totfact> 0.90657038E+00</totfact>
</mgrwt>
</event>
<event>
12    4  0.4320235E-008  0.3023946E+04  0.7818608E-02  0.8236926E-01
          1   -1    0    0  501    0  0.00000000000E+00  0.00000000000E+00  0.19016578453E+04  0.19016578453E+04  0.00000000000E+00 0. -1.
         -2   -1    0    0    0  501 -0.00000000000E+00 -0.00000000000E+00 -0.12021421411E+04  0.12021421411E+04  0.00000000000E+00 0.  1.
        -24    2    1    2    0    0 -0.77674314454E+03  0.11160656716E+04  0.52296979295E+03  0.14590973435E+04  0.80840322494E+02 0.  0.
        254    2    1    2    0    0  0.77674314454E+03 -0.11160656716E+04  0.17654591123E+03  0.16447026428E+04  0.90826528538E+03 0.  0.
         23    2    4    4    0    0  0.30252439234E+03 -0.11053729670E+04  0.81702097311E+02  0.11525266610E+04  0.90950906896E+02 0.  0.
         23    2    4    4    0    0  0.47421875220E+03 -0.10692704599E+02  0.94843813922E+02  0.49217598183E+03  0.90796966849E+02 0.  0.
          1    1    3    3  502    0 -0.24532864988E+03  0.41219915946E+03  0.20369360818E+03  0.52113854158E+03  0.00000000000E+00 0. -1.
         -2    1    3    3    0  502 -0.53141449466E+03  0.70386651212E+03  0.31927618478E+03  0.93795880197E+03  0.00000000000E+00 0.  1.
         11    1    5    5    0    0  0.18866554064E+03 -0.80656234814E+03  0.85508054327E+02  0.83273593355E+03  0.00000000000E+00 0. -1.
        -11    1    5    5    0    0  0.11385885170E+03 -0.29881061884E+03 -0.38059570163E+01  0.31979072743E+03  0.00000000000E+00 0.  1.
          4    1    6    6  503    0 -0.11372586484E+01 -0.52950942087E+00  0.89225219285E+01  0.90102794088E+01  0.00000000000E+00 0.  1.
         -4    1    6    6    0  503  0.47535601085E+03 -0.10163195179E+02  0.85921291994E+02  0.48316570243E+03  0.00000000000E+00 0. -1.
<mgrwt>
<rscale>  0 0.30239465E+04</rscale>
<asrwt>0</asrwt>
<pdfrwt beam="1">  1        1 0.29256275E+00 0.30239465E+04</pdfrwt>
<pdfrwt beam="2">  1       -2 0.18494494E+00 0.30239465E+04</pdfrwt>
<totfact> 0.43507740E-01</totfact>
</mgrwt>
</event>
<event>
12    4  0.4320235E-008  0.1838482E+04  0.7818608E-02  0.8686099E-01
          1   -1    0    0  501    0  0.00000000000E+00  0.00000000000E+00  0.35943183153E+04  0.35943183153E+04  0.00000000000E+00 0. -1.
         -2   -1    0    0    0  501 -0.00000000000E+00 -0.00000000000E+00 -0.23509441756E+03  0.23509441756E+03  0.00000000000E+00 0.  1.
        -24    2    1    2    0    0 -0.28394693884E+03  0.53975028311E+03  0.59628301139E+03  0.85673825800E+03  0.80565382540E+02 0.  0.
        254    2    1    2    0    0  0.28394693884E+03 -0.53975028311E+03  0.27629408864E+04  0.29726744749E+04  0.91158924951E+03 0.  0.
         23    2    4    4    0    0  0.45933664366E+03 -0.28499914958E+03  0.24922734483E+04  0.25518689959E+04  0.91617485121E+02 0.  0.
         23    2    4    4    0    0 -0.17538970483E+03 -0.25475113353E+03  0.27066743803E+03  0.42080547895E+03  0.90314453524E+02 0.  0.
          3    1    3    3  502    0  0.40730740899E+01  0.22257247323E+02  0.27340411325E+02  0.35489055811E+02  0.00000000000E+00 0. -1.
         -4    1    3    3    0  502 -0.28802001293E+03  0.51749303579E+03  0.56894260006E+03  0.82124920219E+03  0.00000000000E+00 0.  1.
         11    1    5    5    0    0  0.27337931995E+03 -0.11691044306E+03  0.13113596516E+04  0.13446443545E+04  0.00000000000E+00 0.  1.
        -11    1    5    5    0    0  0.18595732371E+03 -0.16808870652E+03  0.11809137968E+04  0.12072246414E+04  0.00000000000E+00 0. -1.
          2    1    6    6  503    0 -0.11172221144E+03 -0.12420699871E+03  0.92572811009E+02  0.19099465018E+03  0.00000000000E+00 0. -1.
         -2    1    6    6    0  503 -0.63667493382E+02 -0.13054413482E+03  0.17809462702E+03  0.22981082878E+03  0.00000000000E+00 0.  1.
<mgrwt>
<rscale>  0 0.18384822E+04</rscale>
<asrwt>0</asrwt>
<pdfrwt beam="1">  1        1 0.55297201E+00 0.18384822E+04</pdfrwt>
<pdfrwt beam="2">  1       -2 0.36168374E-01 0.18384822E+04</pdfrwt>
<totfact> 0.12577504E+00</totfact>
</mgrwt>
</event>
<event>
12    4  0.4320235E-008  0.1820823E+04  0.7818608E-02  0.8695304E-01
         -2   -1    0    0    0  501 -0.00000000000E+00  0.00000000000E+00  0.67928617313E+03  0.67928617313E+03  0.00000000000E+00 0.  1.
          1   -1    0    0  501    0  0.00000000000E+00 -0.00000000000E+00 -0.12201759627E+04  0.12201759627E+04  0.00000000000E+00 0. -1.
        -24    2    1    2    0    0  0.23300938927E+03 -0.33357984912E+03 -0.78119666848E+03  0.88493067337E+03  0.85235970121E+02 0.  0.
        254    2    1    2    0    0 -0.23300938927E+03  0.33357984912E+03  0.24030687888E+03  0.10145314625E+04  0.89775152528E+03 0.  0.
         23    2    4    4    0    0 -0.14740732486E+01 -0.12889742533E+03 -0.25045247340E+03  0.29561957720E+03  0.89709385468E+02 0.  0.
         23    2    4    4    0    0 -0.23153531602E+03  0.46247727445E+03  0.49075935228E+03  0.71891188530E+03  0.92172257376E+02 0.  0.
          1    1    3    3  502    0  0.22149701798E+03 -0.33716336682E+03 -0.76338989437E+03  0.86342584842E+03  0.00000000000E+00 0. -1.
         -2    1    3    3    0  502  0.11512371283E+02  0.35835177043E+01 -0.17806774112E+02  0.21504824946E+02  0.00000000000E+00 0.  1.
         11    1    5    5    0    0  0.30131221523E+02 -0.12849460806E+02 -0.84811270609E+02  0.90917274353E+02  0.00000000000E+00 0. -1.
        -11    1    5    5    0    0 -0.31605294771E+02 -0.11604796452E+03 -0.16564120279E+03  0.20470230285E+03  0.00000000000E+00 0.  1.
          1    1    6    6  503    0 -0.18861176669E+03  0.29055802779E+03  0.35184732531E+03  0.49375591781E+03  0.00000000000E+00 0. -1.
         -1    1    6    6    0  503 -0.42923549331E+02  0.17191924665E+03  0.13891202697E+03  0.22515596749E+03  0.00000000000E+00 0.  1.
<mgrwt>
<rscale>  0 0.18208225E+04</rscale>
<asrwt>0</asrwt>
<pdfrwt beam="1">  1        1 0.18771938E+00 0.18208225E+04</pdfrwt>
<pdfrwt beam="2">  1       -2 0.10450557E+00 0.18208225E+04</pdfrwt>
<totfact> 0.63451697E+00</totfact>
</mgrwt>
</event>
<event>
12    4  0.4320235E-008  0.2326000E+04  0.7818608E-02  0.8467740E-01
          1   -1    0    0  501    0  0.00000000000E+00  0.00000000000E+00  0.33589885048E+04  0.33589885048E+04  0.00000000000E+00 0. -1.
         -2   -1    0    0    0  501 -0.00000000000E+00 -0.00000000000E+00 -0.40267144112E+03  0.40267144112E+03  0.00000000000E+00 0.  1.
        -24    2    1    2    0    0  0.55471282070E+03  0.19758367134E+03  0.25113118805E+04  0.25806642585E+04  0.79968950656E+02 0.  0.
        254    2    1    2    0    0 -0.55471282070E+03 -0.19758367134E+03  0.44500518312E+03  0.11809956874E+04  0.92194120206E+03 0.  0.
         23    2    4    4    0    0 -0.43277223239E+03  0.27657070318E+03  0.44115101611E+03  0.68275046062E+03  0.88038704418E+02 0.  0.
         23    2    4    4    0    0 -0.12194058832E+03 -0.47415437452E+03  0.38541670093E+01  0.49824522680E+03  0.92420633315E+02 0.  0.
          1    1    3    3  502    0  0.44267687753E+03  0.13379815388E+03  0.20620083093E+04  0.21132304729E+04  0.00000000000E+00 0. -1.
         -2    1    3    3    0  502  0.11203594317E+03  0.63785517456E+02  0.44930357117E+03  0.46743378554E+03  0.00000000000E+00 0.  1.
         11    1    5    5    0    0 -0.42081324424E+03  0.25325070212E+03  0.39753064919E+03  0.63186258134E+03  0.00000000000E+00 0. -1.
        -11    1    5    5    0    0 -0.11958988145E+02  0.23320001061E+02  0.43620366925E+02  0.50887879280E+02  0.00000000000E+00 0.  1.
          1    1    6    6  503    0 -0.13167338826E+03 -0.35987214747E+03 -0.46679831382E+01  0.38323313240E+03  0.00000000000E+00 0. -1.
         -1    1    6    6    0  503  0.97327999395E+01 -0.11428222705E+03  0.85221501475E+01  0.11501209440E+03  0.00000000000E+00 0.  1.
<mgrwt>
<rscale>  0 0.23259998E+04</rscale>
<asrwt>0</asrwt>
<pdfrwt beam="1">  1        1 0.51676744E+00 0.23259998E+04</pdfrwt>
<pdfrwt beam="2">  1       -2 0.61949455E-01 0.23259998E+04</pdfrwt>
<totfact> 0.61828265E-01</totfact>
</mgrwt>
</event>
<event>
12    4  0.4396470E-008  0.1558322E+04  0.7818608E-02  0.8846569E-01
          1   -1    0    0  501    0  0.00000000000E+00  0.00000000000E+00  0.12512214496E+04  0.12512214496E+04  0.00000000000E+00 0. -1.
         -2   -1    0    0    0  501 -0.00000000000E+00 -0.00000000000E+00 -0.48519950771E+03  0.48519950771E+03  0.00000000000E+00 0.  1.
        -24    2    1    2    0    0 -0.31442543681E+03  0.20365337595E+03 -0.13272747680E+03  0.40558857386E+03  0.80916347548E+02 0.  0.
        254    2    1    2    0    0  0.31442543681E+03 -0.20365337595E+03  0.89874941867E+03  0.13308323834E+04  0.90720794880E+03 0.  0.
         23    2    4    4    0    0 -0.26402754310E+03 -0.14177952193E+03  0.58520798205E+03  0.66366959043E+03  0.90426581570E+02 0.  0.
         23    2    4    4    0    0  0.57845297991E+03 -0.61873854021E+02  0.31354143661E+03  0.66716279299E+03  0.91442528892E+02 0.  0.
          1    1    3    3  502    0  0.47606968521E+01  0.64369676014E+01 -0.37428231885E+01  0.88378454297E+01  0.00000000000E+00 0. -1.
         -2    1    3    3    0  502 -0.31918613366E+03  0.19721640835E+03 -0.12898465361E+03  0.39675072843E+03  0.00000000000E+00 0.  1.
         11    1    5    5    0    0 -0.18775699582E+03 -0.12041640642E+03  0.49908934512E+03  0.54666532250E+03  0.00000000000E+00 0. -1.
        -11    1    5    5    0    0 -0.76270547287E+02 -0.21363115507E+02  0.86118636936E+02  0.11700426794E+03  0.00000000000E+00 0.  1.
          2    1    6    6  503    0  0.38224056298E+03 -0.12976117093E+02  0.16645463941E+03  0.41711314363E+03  0.00000000000E+00 0. -1.
         -2    1    6    6    0  503  0.19621241693E+03 -0.48897736928E+02  0.14708679720E+03  0.25004964936E+03  0.00000000000E+00 0.  1.
<mgrwt>
<rscale>  0 0.15583222E+04</rscale>
<asrwt>0</asrwt>
<pdfrwt beam="1">  1        1 0.19249561E+00 0.15583222E+04</pdfrwt>
<pdfrwt beam="2">  1       -2 0.74646079E-01 0.15583222E+04</pdfrwt>
<totfact> 0.13364364E+01</totfact>
</mgrwt>
</event>
<event>
12    4  0.4320235E-008  0.1498290E+04  0.7818608E-02  0.8885591E-01
          1   -1    0    0  501    0  0.00000000000E+00  0.00000000000E+00  0.17361108516E+04  0.17361108516E+04  0.00000000000E+00 0. -1.
         -2   -1    0    0    0  501 -0.00000000000E+00 -0.00000000000E+00 -0.32326165314E+03  0.32326165314E+03  0.00000000000E+00 0.  1.
        -24    2    1    2    0    0 -0.25487862275E+03  0.39349693419E+03  0.35958357375E+03  0.59570657937E+03  0.75914640495E+02 0.  0.
        254    2    1    2    0    0  0.25487862275E+03 -0.39349693419E+03  0.10532656248E+04  0.14636659254E+04  0.90174636977E+03 0.  0.
         23    2    4    4    0    0 -0.16788674891E+03 -0.52409907882E+03  0.66648655912E+03  0.86890263614E+03  0.89003666869E+02 0.  0.
         23    2    4    4    0    0  0.42276537166E+03  0.13060214463E+03  0.38677906564E+03  0.59476328929E+03  0.91421250327E+02 0.  0.
          1    1    3    3  502    0 -0.24968373614E+03  0.37419072879E+03  0.32225632079E+03  0.55336227365E+03  0.00000000000E+00 0. -1.
         -2    1    3    3    0  502 -0.51948866112E+01  0.19306205399E+02  0.37327252955E+02  0.42344305721E+02  0.00000000000E+00 0.  1.
         11    1    5    5    0    0 -0.82274635522E+02 -0.18843786343E+03  0.30859722050E+03  0.37082366230E+03  0.00000000000E+00 0.  1.
        -11    1    5    5    0    0 -0.85612113390E+02 -0.33566121539E+03  0.35788933862E+03  0.49807897383E+03  0.00000000000E+00 0. -1.
          1    1    6    6  503    0  0.34150018179E+03  0.92180751954E+02  0.25844497252E+03  0.43807929535E+03  0.00000000000E+00 0. -1.
         -1    1    6    6    0  503  0.81265189868E+02  0.38421392675E+02  0.12833409311E+03  0.15668399393E+03  0.00000000000E+00 0.  1.
<mgrwt>
<rscale>  0 0.14982898E+04</rscale>
<asrwt>0</asrwt>
<pdfrwt beam="1">  1        1 0.26709397E+00 0.14982898E+04</pdfrwt>
<pdfrwt beam="2">  1       -2 0.49732563E-01 0.14982898E+04</pdfrwt>
<totfact> 0.14632142E+01</totfact>
</mgrwt>
</event>
<event>
12    4  0.4320235E-008  0.2115824E+04  0.7818608E-02  0.8554305E-01
          1   -1    0    0  501    0  0.00000000000E+00  0.00000000000E+00  0.15273303508E+04  0.15273303508E+04  0.00000000000E+00 0. -1.
         -2   -1    0    0    0  501 -0.00000000000E+00 -0.00000000000E+00 -0.73276701075E+03  0.73276701075E+03  0.00000000000E+00 0.  1.
        -24    2    1    2    0    0 -0.80240680880E+03 -0.22043500362E+03  0.17371090545E+03  0.85395164313E+03  0.81299769391E+02 0.  0.
        254    2    1    2    0    0  0.80240680880E+03  0.22043500362E+03  0.62085243459E+03  0.14061457184E+04  0.94833525623E+03 0.  0.
         23    2    4    4    0    0  0.36204563146E+03  0.50571654083E+03  0.56976639743E+02  0.63066311152E+03  0.87540640956E+02 0.  0.
         23    2    4    4    0    0  0.44036117734E+03 -0.28528153721E+03  0.56387579484E+03  0.77548260688E+03  0.90076853773E+02 0.  0.
          3    1    3    3  502    0 -0.57105979606E+03 -0.13508573586E+03  0.15333806947E+03  0.60652288519E+03  0.00000000000E+00 0. -1.
         -4    1    3    3    0  502 -0.23134701274E+03 -0.85349267753E+02  0.20372835981E+02  0.24742875794E+03  0.00000000000E+00 0.  1.
         11    1    5    5    0    0  0.84409922886E+02  0.84071664304E+02  0.39521023291E+02  0.12551888743E+03  0.00000000000E+00 0. -1.
        -11    1    5    5    0    0  0.27763570858E+03  0.42164487653E+03  0.17455616452E+02  0.50514422408E+03  0.00000000000E+00 0.  1.
          1    1    6    6  503    0  0.21844505230E+02 -0.18758038855E+02  0.70108747716E+01  0.29634419101E+02  0.00000000000E+00 0. -1.
         -1    1    6    6    0  503  0.41851667211E+03 -0.26652349836E+03  0.55686492007E+03  0.74584818778E+03  0.00000000000E+00 0.  1.
<mgrwt>
<rscale>  0 0.21158235E+04</rscale>
<asrwt>0</asrwt>
<pdfrwt beam="1">  1        1 0.23497390E+00 0.21158235E+04</pdfrwt>
<pdfrwt beam="2">  1       -2 0.11273339E+00 0.21158235E+04</pdfrwt>
<totfact> 0.31253961E+00</totfact>
</mgrwt>
</event>
<event>
12    4  0.4320235E-008  0.1727292E+04  0.7818608E-02  0.8745950E-01
         -2   -1    0    0    0  501 -0.00000000000E+00  0.00000000000E+00  0.47880969618E+03  0.47880969618E+03  0.00000000000E+00 0.  1.
          1   -1    0    0  501    0  0.00000000000E+00 -0.00000000000E+00 -0.15577880994E+04  0.15577880994E+04  0.00000000000E+00 0. -1.
        -24    2    1    2    0    0 -0.19722808852E+03 -0.45192444975E+03 -0.88929521865E+03  0.10197706195E+04  0.77145987018E+02 0.  0.
        254    2    1    2    0    0  0.19722808852E+03  0.45192444975E+03 -0.18968318454E+03  0.10168271760E+04  0.86880559865E+03 0.  0.
         23    2    4    4    0    0  0.13821618877E+03  0.70187254924E+03 -0.92315338001E+02  0.72763920776E+03  0.95957828359E+02 0.  0.
         23    2    4    4    0    0  0.59011899750E+02 -0.24994809949E+03 -0.97367846539E+02  0.28918796827E+03  0.90513682403E+02 0.  0.
          3    1    3    3  502    0 -0.79194779960E+02 -0.27664177657E+03 -0.51619535597E+03  0.59098234427E+03  0.00000000000E+00 0. -1.
         -4    1    3    3    0  502 -0.11803330856E+03 -0.17528267318E+03 -0.37309986268E+03  0.42878827524E+03  0.00000000000E+00 0.  1.
         11    1    5    5    0    0  0.35425728064E+02  0.40873595594E+03 -0.70053844816E+02  0.41620620497E+03  0.00000000000E+00 0.  1.
        -11    1    5    5    0    0  0.10279046071E+03  0.29313659331E+03 -0.22261493184E+02  0.31143300279E+03  0.00000000000E+00 0. -1.
          4    1    6    6  503    0  0.60018202883E+02 -0.24701708616E+03 -0.72796438018E+02  0.26442191082E+03  0.00000000000E+00 0.  1.
         -4    1    6    6    0  503 -0.10063031329E+01 -0.29310133323E+01 -0.24571408521E+02  0.24766057455E+02  0.00000000000E+00 0. -1.
<mgrwt>
<rscale>  0 0.17272916E+04</rscale>
<asrwt>0</asrwt>
<pdfrwt beam="1">  1        1 0.23965970E+00 0.17272916E+04</pdfrwt>
<pdfrwt beam="2">  1       -2 0.73663032E-01 0.17272916E+04</pdfrwt>
<totfact> 0.82608070E+00</totfact>
</mgrwt>
</event>
<event>
12    4  0.4320235E-008  0.2255752E+04  0.7818608E-02  0.8495575E-01
          1   -1    0    0  501    0  0.00000000000E+00  0.00000000000E+00  0.59865974496E+03  0.59865974496E+03  0.00000000000E+00 0. -1.
         -2   -1    0    0    0  501 -0.00000000000E+00 -0.00000000000E+00 -0.21249204765E+04  0.21249204765E+04  0.00000000000E+00 0.  1.
        -24    2    1    2    0    0 -0.27437899403E+03 -0.90262122189E+03 -0.70305784624E+03  0.11792661994E+04  0.79809342967E+02 0.  0.
        254    2    1    2    0    0  0.27437899403E+03  0.90262122189E+03 -0.82320288530E+03  0.15443140221E+04  0.90400990368E+03 0.  0.
         23    2    4    4    0    0  0.45261214409E+03  0.59751978596E+03 -0.89592314896E+03  0.11717411506E+04  0.91713616797E+02 0.  0.
         23    2    4    4    0    0 -0.17823315006E+03  0.30510143593E+03  0.72720263656E+02  0.37257287154E+03  0.93104059399E+02 0.  0.
          3    1    3    3  502    0 -0.21828002594E+03 -0.64900517329E+03 -0.47225704968E+03  0.83179360761E+03  0.00000000000E+00 0. -1.
         -4    1    3    3    0  502 -0.56098968082E+02 -0.25361604860E+03 -0.23080079655E+03  0.34747259175E+03  0.00000000000E+00 0.  1.
         11    1    5    5    0    0  0.28784658634E+03  0.41713295345E+03 -0.65974057150E+03  0.83193339866E+03  0.00000000000E+00 0. -1.
        -11    1    5    5    0    0  0.16476555775E+03  0.18038683251E+03 -0.23618257746E+03  0.33980775191E+03  0.00000000000E+00 0.  1.
          3    1    6    6  503    0 -0.10858363475E+03  0.98240468605E+02  0.40572969328E+02  0.15194657366E+03  0.00000000000E+00 0. -1.
         -3    1    6    6    0  503 -0.69649515318E+02  0.20686096732E+03  0.32147294328E+02  0.22062629788E+03  0.00000000000E+00 0.  1.
<mgrwt>
<rscale>  0 0.22557521E+04</rscale>
<asrwt>0</asrwt>
<pdfrwt beam="1">  1        1 0.92101498E-01 0.22557521E+04</pdfrwt>
<pdfrwt beam="2">  1       -2 0.32691085E+00 0.22557521E+04</pdfrwt>
<totfact> 0.59310168E-01</totfact>
</mgrwt>
</event>
<event>
12    4  0.4320235E-008  0.1643020E+04  0.7818608E-02  0.8794546E-01
          3   -1    0    0  501    0  0.00000000000E+00  0.00000000000E+00  0.95853678070E+03  0.95853678070E+03  0.00000000000E+00 0. -1.
         -4   -1    0    0    0  501 -0.00000000000E+00 -0.00000000000E+00 -0.70407217924E+03  0.70407217924E+03  0.00000000000E+00 0.  1.
        -24    2    1    2    0    0 -0.17704086416E+03  0.13600061589E+03  0.60004729705E+03  0.64513613829E+03  0.79399264052E+02 0.  0.
        254    2    1    2    0    0  0.17704086416E+03 -0.13600061589E+03 -0.34558269559E+03  0.10174728216E+04  0.93058256387E+03 0.  0.
         23    2    4    4    0    0 -0.36931478044E+02  0.90741482011E+02  0.28159196948E+03  0.31096836318E+03  0.88370441875E+02 0.  0.
         23    2    4    4    0    0  0.21397234220E+03 -0.22674209790E+03 -0.62717466507E+03  0.70650445845E+03  0.92759620092E+02 0.  0.
          3    1    3    3  502    0 -0.17680642845E+03  0.14449410753E+03  0.58193451384E+03  0.62512945751E+03  0.00000000000E+00 0. -1.
         -4    1    3    3    0  502 -0.23443571378E+00 -0.84934916401E+01  0.18112783213E+02  0.20006680786E+02  0.00000000000E+00 0.  1.
         11    1    5    5    0    0 -0.52985101077E+02  0.45362960493E+02  0.23028566121E+03  0.24061734119E+03  0.00000000000E+00 0. -1.
        -11    1    5    5    0    0  0.16053623033E+02  0.45378521517E+02  0.51306308268E+02  0.70351021994E+02  0.00000000000E+00 0.  1.
          1    1    6    6  503    0  0.11033301621E+03 -0.57198549233E+02 -0.28298080420E+03  0.30906825143E+03  0.00000000000E+00 0. -1.
         -1    1    6    6    0  503  0.10363932599E+03 -0.16954354866E+03 -0.34419386087E+03  0.39743620702E+03  0.00000000000E+00 0.  1.
<mgrwt>
<rscale>  0 0.16430205E+04</rscale>
<asrwt>0</asrwt>
<pdfrwt beam="1">  1        3 0.14746720E+00 0.16430205E+04</pdfrwt>
<pdfrwt beam="2">  1       -4 0.10831880E+00 0.16430205E+04</pdfrwt>
<totfact> 0.50387934E-01</totfact>
</mgrwt>
</event>
<event>
12    4  0.4320235E-008  0.1511990E+04  0.7818608E-02  0.8876519E-01
          1   -1    0    0  501    0  0.00000000000E+00  0.00000000000E+00  0.19770983154E+03  0.19770983154E+03  0.00000000000E+00 0. -1.
         -2   -1    0    0    0  501 -0.00000000000E+00 -0.00000000000E+00 -0.28907439897E+04  0.28907439897E+04  0.00000000000E+00 0.  1.
        -24    2    1    2    0    0 -0.92009056262E+02 -0.46396822992E+03 -0.10597860520E+04  0.11634742443E+04  0.82423638430E+02 0.  0.
        254    2    1    2    0    0  0.92009056262E+02  0.46396822992E+03 -0.16332481061E+04  0.19249795770E+04  0.90239393325E+03 0.  0.
         23    2    4    4    0    0  0.41682990194E+03  0.25489526966E+03 -0.13476043572E+04  0.14357833284E+04  0.81960337642E+02 0.  0.
         23    2    4    4    0    0 -0.32482084568E+03  0.20907296026E+03 -0.28564374889E+03  0.48919624852E+03  0.92198339430E+02 0.  0.
          3    1    3    3  502    0  0.89850311978E+01 -0.18961046901E+02 -0.25681976844E+02  0.33163474182E+02  0.00000000000E+00 0. -1.
         -4    1    3    3    0  502 -0.10099408746E+03 -0.44500718302E+03 -0.10341040752E+04  0.11303107701E+04  0.00000000000E+00 0.  1.
         11    1    5    5    0    0  0.22721425778E+03  0.17872668652E+03 -0.85191245174E+03  0.89962457328E+03  0.00000000000E+00 0. -1.
        -11    1    5    5    0    0  0.18961564415E+03  0.76168583141E+02 -0.49569190548E+03  0.53615875515E+03  0.00000000000E+00 0.  1.
          4    1    6    6  503    0 -0.32889155364E+03  0.20533464643E+03 -0.28820109263E+03  0.48310644880E+03  0.00000000000E+00 0. -1.
         -4    1    6    6    0  503  0.40707079673E+01  0.37383138322E+01  0.25573437395E+01  0.60897997229E+01  0.00000000000E+00 0.  1.
<mgrwt>
<rscale>  0 0.15119901E+04</rscale>
<asrwt>0</asrwt>
<pdfrwt beam="1">  1        1 0.30416897E-01 0.15119901E+04</pdfrwt>
<pdfrwt beam="2">  1       -2 0.44472984E+00 0.15119901E+04</pdfrwt>
<totfact> 0.48311996E-01</totfact>
</mgrwt>
</event>
<event>
12    4  0.4320235E-008  0.1386582E+04  0.7818608E-02  0.8963588E-01
         -4   -1    0    0    0  501 -0.00000000000E+00  0.00000000000E+00  0.45517844593E+03  0.45517844593E+03  0.00000000000E+00 0.  1.
          3   -1    0    0  501    0  0.00000000000E+00 -0.00000000000E+00 -0.10559655364E+04  0.10559655364E+04  0.00000000000E+00 0. -1.
        -24    2    1    2    0    0 -0.32518959860E+03 -0.13755326405E+03 -0.36529380261E+03  0.51411623993E+03  0.78783059398E+02 0.  0.
        254    2    1    2    0    0  0.32518959860E+03  0.13755326405E+03 -0.23549328788E+03  0.99702774243E+03  0.90218515564E+03 0.  0.
         23    2    4    4    0    0  0.34911868839E+03 -0.15118265156E+03 -0.47151062139E+03  0.61273585516E+03  0.91558229534E+02 0.  0.
         23    2    4    4    0    0 -0.23929089791E+02  0.28873591561E+03  0.23601733351E+03  0.38429188727E+03  0.89638399176E+02 0.  0.
          1    1    3    3  502    0 -0.32840272510E+03 -0.13288451911E+03 -0.36466091414E+03  0.50841344157E+03  0.00000000000E+00 0. -1.
         -2    1    3    3    0  502  0.32131265038E+01 -0.46687449462E+01 -0.63288847288E+00  0.57027983588E+01  0.00000000000E+00 0.  1.
         11    1    5    5    0    0  0.47044706920E+02 -0.43660887131E+02 -0.12576616094E+03  0.14119704229E+03  0.00000000000E+00 0. -1.
        -11    1    5    5    0    0  0.30207398147E+03 -0.10752176443E+03 -0.34574446045E+03  0.47153881287E+03  0.00000000000E+00 0.  1.
          3    1    6    6  503    0  0.13813532305E+02  0.17151562556E+02  0.45064852680E+02  0.50158057378E+02  0.00000000000E+00 0. -1.
         -3    1    6    6    0  503 -0.37742622095E+02  0.27158435306E+03  0.19095248083E+03  0.33413382990E+03  0.00000000000E+00 0.  1.
<mgrwt>
<rscale>  0 0.13865825E+04</rscale>
<asrwt>0</asrwt>
<pdfrwt beam="1">  1        3 0.16245623E+00 0.13865825E+04</pdfrwt>
<pdfrwt beam="2">  1       -4 0.70027454E-01 0.13865825E+04</pdfrwt>
<totfact> 0.10953659E+00</totfact>
</mgrwt>
</event>
<event>
12    4  0.4502125E-008  0.1728985E+04  0.7818608E-02  0.8745004E-01
          1   -1    0    0  501    0  0.00000000000E+00  0.00000000000E+00  0.21407287136E+04  0.21407287136E+04  0.00000000000E+00 0. -1.
         -2   -1    0    0    0  501 -0.00000000000E+00 -0.00000000000E+00 -0.34910875434E+03  0.34910875434E+03  0.00000000000E+00 0.  1.
        -24    2    1    2    0    0  0.41889777458E+03  0.10467160289E+03  0.13395703987E+04  0.14096847480E+04  0.79565984407E+02 0.  0.
        254    2    1    2    0    0 -0.41889777458E+03 -0.10467160289E+03  0.45204956061E+03  0.10801527199E+04  0.88088001628E+03 0.  0.
         23    2    4    4    0    0  0.21154295919E+03  0.13130212864E+03  0.21891694883E+01  0.26539915365E+03  0.91876252250E+02 0.  0.
         23    2    4    4    0    0 -0.63044073378E+03 -0.23597373152E+03  0.44986039113E+03  0.81475356626E+03  0.91158551210E+02 0.  0.
          3    1    3    3  502    0  0.41665816443E+03  0.11193957264E+03  0.13151832588E+04  0.13841392626E+04  0.00000000000E+00 0. -1.
         -4    1    3    3    0  502  0.22396101491E+01 -0.72679697547E+01  0.24387139808E+02  0.25545485433E+02  0.00000000000E+00 0.  1.
         11    1    5    5    0    0  0.19591815942E+03  0.87545791212E+02 -0.16714541390E+02  0.21523839491E+03  0.00000000000E+00 0. -1.
        -11    1    5    5    0    0  0.15624799774E+02  0.43756337423E+02  0.18903710878E+02  0.50160758742E+02  0.00000000000E+00 0.  1.
          3    1    6    6  503    0 -0.49689358111E+03 -0.14579119599E+03  0.33242278699E+03  0.61535616767E+03  0.00000000000E+00 0. -1.
         -3    1    6    6    0  503 -0.13354715266E+03 -0.90182535533E+02  0.11743760414E+03  0.19939739859E+03  0.00000000000E+00 0.  1.
<mgrwt>
<rscale>  0 0.17289848E+04</rscale>
<asrwt>0</asrwt>
<pdfrwt beam="1">  1        1 0.32934287E+00 0.17289848E+04</pdfrwt>
<pdfrwt beam="2">  1       -2 0.53709040E-01 0.17289848E+04</pdfrwt>
<totfact> 0.65123766E+00</totfact>
</mgrwt>
</event>
<event>
12    4  0.4320235E-008  0.3274115E+04  0.7818608E-02  0.8169513E-01
         -2   -1    0    0    0  501 -0.00000000000E+00  0.00000000000E+00  0.20120815053E+04  0.20120815053E+04  0.00000000000E+00 0.  1.
          1   -1    0    0  501    0  0.00000000000E+00 -0.00000000000E+00 -0.13319326411E+04  0.13319326411E+04  0.00000000000E+00 0. -1.
        -24    2    1    2    0    0 -0.71476519217E+03  0.66693893278E+03 -0.85876776245E+03  0.13035375818E+04  0.77661685621E+02 0.  0.
        254    2    1    2    0    0  0.71476519217E+03 -0.66693893278E+03  0.15389166266E+04  0.20404765645E+04  0.91628784045E+03 0.  0.
         23    2    4    4    0    0  0.56719180270E+03  0.56290256526E+02  0.84434314512E+03  0.10228441547E+04  0.91758836318E+02 0.  0.
         23    2    4    4    0    0  0.14757338947E+03 -0.72322918931E+03  0.69457348152E+03  0.10176324098E+04  0.91131963276E+02 0.  0.
          3    1    3    3  502    0 -0.67870285944E+03  0.60727394446E+03 -0.79016743136E+03  0.12057295653E+04  0.00000000000E+00 0. -1.
         -4    1    3    3    0  502 -0.36062332733E+02  0.59664988323E+02 -0.68600331084E+02  0.97808016535E+02  0.00000000000E+00 0.  1.
         11    1    5    5    0    0  0.51354840982E+03  0.64094327515E+02  0.80001570196E+03  0.95281959228E+03  0.00000000000E+00 0. -1.
        -11    1    5    5    0    0  0.53643392877E+02 -0.78040709894E+01  0.44327443155E+02  0.70024562405E+02  0.00000000000E+00 0.  1.
          1    1    6    6  503    0  0.14234293223E+03 -0.69338979715E+03  0.68697359120E+03  0.98639932895E+03  0.00000000000E+00 0. -1.
         -1    1    6    6    0  503  0.52304572418E+01 -0.29839392157E+02  0.75998903124E+01  0.31233080860E+02  0.00000000000E+00 0.  1.
<mgrwt>
<rscale>  0 0.32741149E+04</rscale>
<asrwt>0</asrwt>
<pdfrwt beam="1">  1        1 0.20491271E+00 0.32741149E+04</pdfrwt>
<pdfrwt beam="2">  1       -2 0.30955100E+00 0.32741149E+04</pdfrwt>
<totfact> 0.17398745E-01</totfact>
</mgrwt>
</event>
<event>
12    4  0.4320235E-008  0.1223467E+04  0.7818608E-02  0.9092560E-01
         -2   -1    0    0    0  501 -0.00000000000E+00  0.00000000000E+00  0.18931614094E+03  0.18931614094E+03  0.00000000000E+00 0.  1.
          1   -1    0    0  501    0  0.00000000000E+00 -0.00000000000E+00 -0.19766823368E+04  0.19766823368E+04  0.00000000000E+00 0. -1.
        -24    2    1    2    0    0  0.25274713039E+02  0.24414776987E+03 -0.21796984214E+03  0.33771344676E+03  0.79325754861E+02 0.  0.
        254    2    1    2    0    0 -0.25274713039E+02 -0.24414776987E+03 -0.15693963537E+04  0.18282850310E+04  0.90519296000E+03 0.  0.
         23    2    4    4    0    0  0.99327966162E+02 -0.20673926223E+03  0.38662806533E+01  0.24700345821E+03  0.91589261558E+02 0.  0.
         23    2    4    4    0    0 -0.12460267920E+03 -0.37408507645E+02 -0.15732626344E+04  0.15812815728E+04  0.91492467460E+02 0.  0.
          3    1    3    3  502    0 -0.25844621005E+02  0.50284338509E+02 -0.60240984543E+02  0.82616193042E+02  0.00000000000E+00 0. -1.
         -4    1    3    3    0  502  0.51119334044E+02  0.19386343137E+03 -0.15772885760E+03  0.25509725372E+03  0.00000000000E+00 0.  1.
         11    1    5    5    0    0 -0.12678174020E+02 -0.19086180919E+02  0.16287503104E+02  0.28112295458E+02  0.00000000000E+00 0. -1.
        -11    1    5    5    0    0  0.11200614018E+03 -0.18765308131E+03 -0.12421222451E+02  0.21889116275E+03  0.00000000000E+00 0.  1.
          2    1    6    6  503    0 -0.46388847227E+01  0.54448398942E+01 -0.55961075042E+03  0.55965646385E+03  0.00000000000E+00 0. -1.
         -2    1    6    6    0  503 -0.11996379448E+03 -0.42853347539E+02 -0.10136518839E+04  0.10216251089E+04  0.00000000000E+00 0.  1.
<mgrwt>
<rscale>  0 0.12234670E+04</rscale>
<asrwt>0</asrwt>
<pdfrwt beam="1">  1        1 0.30410501E+00 0.12234670E+04</pdfrwt>
<pdfrwt beam="2">  1       -2 0.29125557E-01 0.12234670E+04</pdfrwt>
<totfact> 0.29093233E+01</totfact>
</mgrwt>
</event>
<event>
12    4  0.4320235E-008  0.1537454E+04  0.7818608E-02  0.8859921E-01
         -2   -1    0    0    0  501 -0.00000000000E+00  0.00000000000E+00  0.33377366001E+03  0.33377366001E+03  0.00000000000E+00 0.  1.
          1   -1    0    0  501    0  0.00000000000E+00 -0.00000000000E+00 -0.17704852093E+04  0.17704852093E+04  0.00000000000E+00 0. -1.
        -24    2    1    2    0    0 -0.69158988057E+02 -0.39411719305E+03 -0.57097682921E+02  0.41189548541E+03  0.79286934744E+02 0.  0.
        254    2    1    2    0    0  0.69158988057E+02  0.39411719305E+03 -0.13796138664E+04  0.16923633839E+04  0.89478940281E+03 0.  0.
         23    2    4    4    0    0 -0.48048712226E+02 -0.26387151537E+03 -0.25591129945E+03  0.38176316130E+03  0.91190255888E+02 0.  0.
         23    2    4    4    0    0  0.11720770028E+03  0.65798870842E+03 -0.11237025669E+04  0.13106002226E+04  0.90987357095E+02 0.  0.
          3    1    3    3  502    0 -0.18704877775E+02 -0.55667365262E+02 -0.36375020250E+02  0.69078723975E+02  0.00000000000E+00 0. -1.
         -4    1    3    3    0  502 -0.50454110282E+02 -0.33844982779E+03 -0.20722662671E+02  0.34281676144E+03  0.00000000000E+00 0.  1.
         11    1    5    5    0    0 -0.42567804794E+02 -0.11295591742E+03 -0.61157468771E+02  0.13531922728E+03  0.00000000000E+00 0. -1.
        -11    1    5    5    0    0 -0.54809074317E+01 -0.15091559795E+03 -0.19475383067E+03  0.24644393401E+03  0.00000000000E+00 0.  1.
          3    1    6    6  503    0  0.68642042565E+02  0.24949082163E+03 -0.50813795837E+03  0.57022941420E+03  0.00000000000E+00 0. -1.
         -3    1    6    6    0  503  0.48565657718E+02  0.40849788679E+03 -0.61556460854E+03  0.74037080838E+03  0.00000000000E+00 0.  1.
<mgrwt>
<rscale>  0 0.15374542E+04</rscale>
<asrwt>0</asrwt>
<pdfrwt beam="1">  1        1 0.27238234E+00 0.15374542E+04</pdfrwt>
<pdfrwt beam="2">  1       -2 0.51349795E-01 0.15374542E+04</pdfrwt>
<totfact> 0.12944520E+01</totfact>
</mgrwt>
</event>
<event>
12    4  0.4320235E-008  0.1190139E+04  0.7818608E-02  0.9121532E-01
         -2   -1    0    0    0  501 -0.00000000000E+00  0.00000000000E+00  0.38740176335E+03  0.38740176335E+03  0.00000000000E+00 0.  1.
          1   -1    0    0  501    0  0.00000000000E+00 -0.00000000000E+00 -0.91405829024E+03  0.91405829024E+03  0.00000000000E+00 0. -1.
        -24    2    1    2    0    0 -0.60776866340E+02 -0.43129498179E+02 -0.36609222589E+03  0.38147952052E+03  0.77130575128E+02 0.  0.
        254    2    1    2    0    0  0.60776866340E+02  0.43129498179E+02 -0.16056430099E+03  0.91998053308E+03  0.90278973487E+03 0.  0.
         23    2    4    4    0    0  0.46673384012E+03  0.25817673451E+02 -0.61389855214E+01  0.47618194145E+03  0.90578830003E+02 0.  0.
         23    2    4    4    0    0 -0.40595697378E+03  0.17311824728E+02 -0.15442531547E+03  0.44379859162E+03  0.89494402212E+02 0.  0.
          1    1    3    3  502    0 -0.13831186595E+02 -0.24029669753E+02 -0.28153127085E+03  0.28289323643E+03  0.00000000000E+00 0. -1.
         -2    1    3    3    0  502 -0.46945679745E+02 -0.19099828426E+02 -0.84560955049E+02  0.98586284094E+02  0.00000000000E+00 0.  1.
         11    1    5    5    0    0  0.46360265205E+03  0.36303011630E+02 -0.79522431433E+01  0.46508984703E+03  0.00000000000E+00 0.  1.
        -11    1    5    5    0    0  0.31311880744E+01 -0.10485338179E+02  0.18132576219E+01  0.11092094423E+02  0.00000000000E+00 0. -1.
          4    1    6    6  503    0 -0.43196643264E+02  0.30756274526E+02 -0.21413717026E+02  0.57187810667E+02  0.00000000000E+00 0. -1.
         -4    1    6    6    0  503 -0.36276033052E+03 -0.13444449797E+02 -0.13301159844E+03  0.38661078095E+03  0.00000000000E+00 0.  1.
<mgrwt>
<rscale>  0 0.11901391E+04</rscale>
<asrwt>0</asrwt>
<pdfrwt beam="1">  1        1 0.14062435E+00 0.11901391E+04</pdfrwt>
<pdfrwt beam="2">  1       -2 0.59600271E-01 0.11901391E+04</pdfrwt>
<totfact> 0.40411961E+01</totfact>
</mgrwt>
</event>
<event>
12    4  0.4320235E-008  0.2638522E+04  0.7818608E-02  0.8355233E-01
          1   -1    0    0  501    0  0.00000000000E+00  0.00000000000E+00  0.23128160880E+04  0.23128160880E+04  0.00000000000E+00 0. -1.
         -2   -1    0    0    0  501 -0.00000000000E+00 -0.00000000000E+00 -0.75252386191E+03  0.75252386191E+03  0.00000000000E+00 0.  1.
        -24    2    1    2    0    0  0.23893549992E+03 -0.26078448172E+03 -0.59647469916E+03  0.69960805741E+03  0.92577795544E+02 0.  0.
        254    2    1    2    0    0 -0.23893549992E+03  0.26078448172E+03  0.21567669252E+04  0.23657318925E+04  0.90550819891E+03 0.  0.
         23    2    4    4    0    0 -0.24916718719E+03  0.52263050892E+03  0.86764308630E+03  0.10470437200E+04  0.90934539348E+02 0.  0.
         23    2    4    4    0    0  0.10231687272E+02 -0.26184602720E+03  0.12891238389E+04  0.13186881724E+04  0.91816091393E+02 0.  0.
          1    1    3    3  502    0  0.90757825370E+02 -0.16685626012E+03 -0.32235606642E+03  0.37415428363E+03  0.00000000000E+00 0. -1.
         -2    1    3    3    0  502  0.14817767455E+03 -0.93928221610E+02 -0.27411863274E+03  0.32545377378E+03  0.00000000000E+00 0.  1.
         11    1    5    5    0    0 -0.20677578115E+03  0.42959081626E+03  0.64529844755E+03  0.80231825324E+03  0.00000000000E+00 0. -1.
        -11    1    5    5    0    0 -0.42391406043E+02  0.93039692669E+02  0.22234463876E+03  0.24472546680E+03  0.00000000000E+00 0.  1.
          2    1    6    6  503    0  0.37473061569E+02 -0.17832022997E+03  0.71357180589E+03  0.73646931838E+03  0.00000000000E+00 0. -1.
         -2    1    6    6    0  503 -0.27241374297E+02 -0.83525797229E+02  0.57555203303E+03  0.58221885404E+03  0.00000000000E+00 0.  1.
<mgrwt>
<rscale>  0 0.26385218E+04</rscale>
<asrwt>0</asrwt>
<pdfrwt beam="1">  1        1 0.35581786E+00 0.26385218E+04</pdfrwt>
<pdfrwt beam="2">  1       -2 0.11577290E+00 0.26385218E+04</pdfrwt>
<totfact> 0.81633792E-01</totfact>
</mgrwt>
</event>
<event>
12    4  0.4320235E-008  0.1617359E+04  0.7818608E-02  0.8809954E-01
         -2   -1    0    0    0  501 -0.00000000000E+00  0.00000000000E+00  0.28186537244E+03  0.28186537244E+03  0.00000000000E+00 0.  1.
          1   -1    0    0  501    0  0.00000000000E+00 -0.00000000000E+00 -0.23201238071E+04  0.23201238071E+04  0.00000000000E+00 0. -1.
        -24    2    1    2    0    0 -0.13180062108E+03  0.16892073664E+03  0.12086609677E+03  0.25883415396E+03  0.80503955952E+02 0.  0.
        254    2    1    2    0    0  0.13180062108E+03 -0.16892073664E+03 -0.21591245314E+04  0.23431550256E+04  0.88467571048E+03 0.  0.
         23    2    4    4    0    0  0.24628264771E+03 -0.39423424584E+02 -0.12055588753E+03  0.29519556981E+03  0.10196741365E+03 0.  0.
         23    2    4    4    0    0 -0.11448202663E+03 -0.12949731205E+03 -0.20385686439E+04  0.20479594558E+04  0.92196140699E+02 0.  0.
          3    1    3    3  502    0 -0.65051727903E+02  0.30820172682E+02  0.60376873425E+02  0.93951994082E+02  0.00000000000E+00 0. -1.
         -4    1    3    3    0  502 -0.66748893181E+02  0.13810056395E+03  0.60489223344E+02  0.16488215988E+03  0.00000000000E+00 0.  1.
         11    1    5    5    0    0  0.10903659118E+02  0.55009669417E+01 -0.40885664808E+02  0.42670692591E+02  0.00000000000E+00 0. -1.
        -11    1    5    5    0    0  0.23537898859E+03 -0.44924391525E+02 -0.79670222724E+02  0.25252487722E+03  0.00000000000E+00 0.  1.
          1    1    6    6  503    0 -0.81980341946E+02 -0.42373806869E+02 -0.13484646781E+04  0.13516187717E+04  0.00000000000E+00 0. -1.
         -1    1    6    6    0  503 -0.32501684682E+02 -0.87123505183E+02 -0.69010396576E+03  0.69634068402E+03  0.00000000000E+00 0.  1.
<mgrwt>
<rscale>  0 0.16173590E+04</rscale>
<asrwt>0</asrwt>
<pdfrwt beam="1">  1        1 0.35694213E+00 0.16173590E+04</pdfrwt>
<pdfrwt beam="2">  1       -2 0.43363903E-01 0.16173590E+04</pdfrwt>
<totfact> 0.76584706E+00</totfact>
</mgrwt>
</event>
<event>
12    4  0.4320235E-008  0.1812514E+04  0.7818608E-02  0.8699673E-01
         -2   -1    0    0    0  501 -0.00000000000E+00  0.00000000000E+00  0.10266302037E+04  0.10266302037E+04  0.00000000000E+00 0.  1.
          1   -1    0    0  501    0  0.00000000000E+00 -0.00000000000E+00 -0.79999742142E+03  0.79999742142E+03  0.00000000000E+00 0. -1.
        -24    2    1    2    0    0 -0.59298061759E+02 -0.40473192871E+03 -0.43745160277E+03  0.60426298574E+03  0.80284848629E+02 0.  0.
        254    2    1    2    0    0  0.59298061759E+02  0.40473192871E+03  0.66408438507E+03  0.12223646394E+04  0.94119235383E+03 0.  0.
         23    2    4    4    0    0  0.18402215520E+02 -0.27531866383E+03  0.38209387009E+03  0.48003445082E+03  0.91095226119E+02 0.  0.
         23    2    4    4    0    0  0.40895846239E+02  0.68005059255E+03  0.28199051498E+03  0.74233018858E+03  0.85989416044E+02 0.  0.
          1    1    3    3  502    0 -0.39360187000E+02 -0.38372950632E+03 -0.38909479896E+03  0.54789809356E+03  0.00000000000E+00 0. -1.
         -2    1    3    3    0  502 -0.19937874759E+02 -0.21002422389E+02 -0.48356803806E+02  0.56364892179E+02  0.00000000000E+00 0.  1.
         11    1    5    5    0    0 -0.24822294472E+01  0.70133153613E+01  0.86024746486E+01  0.11373241643E+02  0.00000000000E+00 0. -1.
        -11    1    5    5    0    0  0.20884444967E+02 -0.28233197920E+03  0.37349139544E+03  0.46866120918E+03  0.00000000000E+00 0.  1.
          2    1    6    6  503    0  0.28225136446E+02  0.49017665034E+03  0.16048639174E+03  0.51655172906E+03  0.00000000000E+00 0.  1.
         -2    1    6    6    0  503  0.12670709793E+02  0.18987394221E+03  0.12150412324E+03  0.22577845951E+03  0.00000000000E+00 0. -1.
<mgrwt>
<rscale>  0 0.18125137E+04</rscale>
<asrwt>0</asrwt>
<pdfrwt beam="1">  1        1 0.12307653E+00 0.18125137E+04</pdfrwt>
<pdfrwt beam="2">  1       -2 0.15794311E+00 0.18125137E+04</pdfrwt>
<totfact> 0.47615674E+00</totfact>
</mgrwt>
</event>
<event>
12    4  0.4320235E-008  0.1724131E+04  0.7818608E-02  0.8747720E-01
         -2   -1    0    0    0  501 -0.00000000000E+00  0.00000000000E+00  0.23373995849E+03  0.23373995849E+03  0.00000000000E+00 0.  1.
          1   -1    0    0  501    0  0.00000000000E+00 -0.00000000000E+00 -0.31794172041E+04  0.31794172041E+04  0.00000000000E+00 0. -1.
        -24    2    1    2    0    0  0.76166962211E+02  0.37745820904E+03 -0.20555675958E+04  0.20928446147E+04  0.79776778643E+02 0.  0.
        254    2    1    2    0    0 -0.76166962211E+02 -0.37745820904E+03 -0.89010964978E+03  0.13203125479E+04  0.89590955451E+03 0.  0.
         23    2    4    4    0    0  0.15701705153E+03 -0.37002103549E+03 -0.97280314111E+03  0.10566372189E+04  0.92554523474E+02 0.  0.
         23    2    4    4    0    0 -0.23318401374E+03 -0.74371735463E+01  0.82693491329E+02  0.26367532903E+03  0.90864568542E+02 0.  0.
          1    1    3    3  502    0  0.33896580977E+02  0.27060910070E+03 -0.15957315708E+04  0.16188692071E+04  0.00000000000E+00 0. -1.
         -2    1    3    3    0  502  0.42270381234E+02  0.10684910834E+03 -0.45983602507E+03  0.47397540763E+03  0.00000000000E+00 0.  1.
         11    1    5    5    0    0  0.11201385789E+02 -0.94268224378E+02 -0.16012768376E+03  0.18615274448E+03  0.00000000000E+00 0.  1.
        -11    1    5    5    0    0  0.14581566574E+03 -0.27575281111E+03 -0.81267545735E+03  0.87048447441E+03  0.00000000000E+00 0. -1.
          4    1    6    6  503    0 -0.16809260019E+03 -0.12391424151E+01  0.10057602033E+03  0.19588821704E+03  0.00000000000E+00 0. -1.
         -4    1    6    6    0  503 -0.65091413551E+02 -0.61980311312E+01 -0.17882528997E+02  0.67787111985E+02  0.00000000000E+00 0.  1.
<mgrwt>
<rscale>  0 0.17241309E+04</rscale>
<asrwt>0</asrwt>
<pdfrwt beam="1">  1        1 0.48914107E+00 0.17241309E+04</pdfrwt>
<pdfrwt beam="2">  1       -2 0.35959996E-01 0.17241309E+04</pdfrwt>
<totfact> 0.26853685E+00</totfact>
</mgrwt>
</event>
<event>
12    4  0.4320235E-008  0.1651655E+04  0.7818608E-02  0.8789428E-01
         -2   -1    0    0    0  501 -0.00000000000E+00  0.00000000000E+00  0.14423792232E+03  0.14423792232E+03  0.00000000000E+00 0.  1.
          1   -1    0    0  501    0  0.00000000000E+00 -0.00000000000E+00 -0.47282376299E+04  0.47282376299E+04  0.00000000000E+00 0. -1.
        -24    2    1    2    0    0  0.16721576480E+02  0.49648161889E+03 -0.75189613403E+03  0.90475151457E+03  0.80336154595E+02 0.  0.
        254    2    1    2    0    0 -0.16721576480E+02 -0.49648161889E+03 -0.38321035736E+04  0.39677240377E+04  0.90057905344E+03 0.  0.
         23    2    4    4    0    0  0.38534149114E+03 -0.43125321257E+03 -0.26549335531E+04  0.27187574826E+04  0.92209975484E+02 0.  0.
         23    2    4    4    0    0 -0.40206306762E+03 -0.65228406315E+02 -0.11771700205E+04  0.12489665551E+04  0.90987599630E+02 0.  0.
          1    1    3    3  502    0  0.27849327443E+02  0.14013603733E+03 -0.16716947822E+03  0.21990754522E+03  0.00000000000E+00 0. -1.
         -2    1    3    3    0  502 -0.11127750964E+02  0.35634558156E+03 -0.58472665581E+03  0.68484396935E+03  0.00000000000E+00 0.  1.
         11    1    5    5    0    0  0.64695090034E+02 -0.43165452685E+02 -0.25512831993E+03  0.26671927304E+03  0.00000000000E+00 0.  1.
        -11    1    5    5    0    0  0.32064640111E+03 -0.38808775989E+03 -0.23998052332E+04  0.24520382095E+04  0.00000000000E+00 0. -1.
          4    1    6    6  503    0 -0.20167257827E+03 -0.40144205208E+02 -0.45928787225E+03  0.50321837768E+03  0.00000000000E+00 0. -1.
         -4    1    6    6    0  503 -0.20039048935E+03 -0.25084201107E+02 -0.71788214824E+03  0.74574817742E+03  0.00000000000E+00 0.  1.
<mgrwt>
<rscale>  0 0.16516551E+04</rscale>
<asrwt>0</asrwt>
<pdfrwt beam="1">  1        1 0.72742121E+00 0.16516551E+04</pdfrwt>
<pdfrwt beam="2">  1       -2 0.22190448E-01 0.16516551E+04</pdfrwt>
<totfact> 0.28117299E-01</totfact>
</mgrwt>
</event>
<event>
12    4  0.4320235E-008  0.1867379E+04  0.7818608E-02  0.8671267E-01
         -2   -1    0    0    0  501 -0.00000000000E+00  0.00000000000E+00  0.88305837487E+03  0.88305837487E+03  0.00000000000E+00 0.  1.
          1   -1    0    0  501    0  0.00000000000E+00 -0.00000000000E+00 -0.98722351907E+03  0.98722351907E+03  0.00000000000E+00 0. -1.
        -24    2    1    2    0    0  0.47155627241E+03 -0.46975936203E+03  0.23019931653E+03  0.70872733482E+03  0.79142488809E+02 0.  0.
        254    2    1    2    0    0 -0.47155627241E+03  0.46975936203E+03 -0.33436446073E+03  0.11615545591E+04  0.89127449472E+03 0.  0.
         23    2    4    4    0    0 -0.73177173764E+02 -0.25188964045E+03 -0.37686975339E+02  0.28081178404E+03  0.92906728577E+02 0.  0.
         23    2    4    4    0    0 -0.39837909864E+03  0.72164900248E+03 -0.29667748539E+03  0.88074277508E+03  0.90593137142E+02 0.  0.
          3    1    3    3  502    0  0.21345833298E+03 -0.19024097491E+03  0.61094859497E+02  0.29238445634E+03  0.00000000000E+00 0. -1.
         -4    1    3    3    0  502  0.25809793943E+03 -0.27951838712E+03  0.16910445703E+03  0.41634287848E+03  0.00000000000E+00 0.  1.
         11    1    5    5    0    0 -0.85757022020E+02 -0.24034216920E+03 -0.19596505344E+02  0.25593485136E+03  0.00000000000E+00 0. -1.
        -11    1    5    5    0    0  0.12579848256E+02 -0.11547471257E+02 -0.18090469995E+02  0.24876932673E+02  0.00000000000E+00 0.  1.
          1    1    6    6  503    0 -0.39646758442E+03  0.67829589998E+03 -0.28549198796E+03  0.83592915287E+03  0.00000000000E+00 0. -1.
         -1    1    6    6    0  503 -0.19115142277E+01  0.43353102498E+02 -0.11185497438E+02  0.44813622212E+02  0.00000000000E+00 0.  1.
<mgrwt>
<rscale>  0 0.18673789E+04</rscale>
<asrwt>0</asrwt>
<pdfrwt beam="1">  1        1 0.15188054E+00 0.18673789E+04</pdfrwt>
<pdfrwt beam="2">  1       -2 0.13585513E+00 0.18673789E+04</pdfrwt>
<totfact> 0.49431873E+00</totfact>
</mgrwt>
</event>
<event>
12    4  0.4320235E-008  0.1234477E+04  0.7818608E-02  0.9083203E-01
          1   -1    0    0  501    0  0.00000000000E+00  0.00000000000E+00  0.11248179151E+04  0.11248179151E+04  0.00000000000E+00 0. -1.
         -2   -1    0    0    0  501 -0.00000000000E+00 -0.00000000000E+00 -0.33870666620E+03  0.33870666620E+03  0.00000000000E+00 0.  1.
        -24    2    1    2    0    0  0.74289989815E+02 -0.53155804838E+02  0.48050499447E+03  0.49558271176E+03  0.79828768650E+02 0.  0.
        254    2    1    2    0    0 -0.74289989815E+02  0.53155804838E+02  0.30560625438E+03  0.96794186950E+03  0.91387731005E+03 0.  0.
         23    2    4    4    0    0 -0.43965336878E+03 -0.17080233885E+03  0.15365848967E+03  0.50415132116E+03  0.89939421502E+02 0.  0.
         23    2    4    4    0    0  0.36536337897E+03  0.22395814368E+03  0.15194776472E+03  0.46379054834E+03  0.91465297877E+02 0.  0.
          3    1    3    3  502    0  0.30910514870E+02 -0.97565326737E+01  0.34859752263E+03  0.35010124627E+03  0.00000000000E+00 0. -1.
         -4    1    3    3    0  502  0.43379474944E+02 -0.43399272164E+02  0.13190747184E+03  0.14548146548E+03  0.00000000000E+00 0.  1.
         11    1    5    5    0    0 -0.20200465482E+03 -0.11090683879E+03  0.10943813349E+03  0.25511352869E+03  0.00000000000E+00 0. -1.
        -11    1    5    5    0    0 -0.23764871396E+03 -0.59895500052E+02  0.44220356175E+02  0.24903779246E+03  0.00000000000E+00 0.  1.
          1    1    6    6  503    0  0.19740664850E+03  0.16845957506E+03  0.69677630503E+02  0.26870613222E+03  0.00000000000E+00 0. -1.
         -1    1    6    6    0  503  0.16795673047E+03  0.55498568621E+02  0.82270134216E+02  0.19508441612E+03  0.00000000000E+00 0.  1.
<mgrwt>
<rscale>  0 0.12344769E+04</rscale>
<asrwt>0</asrwt>
<pdfrwt beam="1">  1        1 0.17304891E+00 0.12344769E+04</pdfrwt>
<pdfrwt beam="2">  1       -2 0.52108718E-01 0.12344769E+04</pdfrwt>
<totfact> 0.36556881E+01</totfact>
</mgrwt>
</event>
<event>
12    4  0.4320235E-008  0.1689351E+04  0.7818608E-02  0.8767461E-01
          1   -1    0    0  501    0  0.00000000000E+00  0.00000000000E+00  0.11607379152E+04  0.11607379152E+04  0.00000000000E+00 0. -1.
         -2   -1    0    0    0  501 -0.00000000000E+00 -0.00000000000E+00 -0.61467519064E+03  0.61467519064E+03  0.00000000000E+00 0.  1.
        -24    2    1    2    0    0  0.11076903508E+03 -0.32723178951E+03 -0.32082814496E+03  0.47803474155E+03  0.78968932722E+02 0.  0.
        254    2    1    2    0    0 -0.11076903508E+03  0.32723178951E+03  0.86689086954E+03  0.12973783643E+04  0.90129929395E+03 0.  0.
         23    2    4    4    0    0  0.18619489311E+03  0.46907975780E+03  0.79862890028E+03  0.94916786860E+03  0.91690593965E+02 0.  0.
         23    2    4    4    0    0 -0.29696392819E+03 -0.14184796829E+03  0.68261969263E+02  0.34821049570E+03  0.91007868433E+02 0.  0.
          1    1    3    3  502    0  0.31343591253E+02 -0.11542984964E+03 -0.63509008352E+02  0.13542475786E+03  0.00000000000E+00 0. -1.
         -2    1    3    3    0  502  0.79425443829E+02 -0.21180193987E+03 -0.25731913661E+03  0.34260998369E+03  0.00000000000E+00 0.  1.
         11    1    5    5    0    0  0.15444391141E+03  0.44075211405E+03  0.75806048152E+03  0.89037690978E+03  0.00000000000E+00 0. -1.
        -11    1    5    5    0    0  0.31750981698E+02  0.28327643745E+02  0.40568418758E+02  0.58790958824E+02  0.00000000000E+00 0.  1.
          4    1    6    6  503    0 -0.40792388466E+02 -0.38713914607E+02 -0.17748881770E+02  0.58972950961E+02  0.00000000000E+00 0. -1.
         -4    1    6    6    0  503 -0.25617153972E+03 -0.10313405369E+03  0.86010851032E+02  0.28923754474E+03  0.00000000000E+00 0.  1.
<mgrwt>
<rscale>  0 0.16893511E+04</rscale>
<asrwt>0</asrwt>
<pdfrwt beam="1">  1        1 0.17857506E+00 0.16893511E+04</pdfrwt>
<pdfrwt beam="2">  1       -2 0.94565414E-01 0.16893511E+04</pdfrwt>
<totfact> 0.89876595E+00</totfact>
</mgrwt>
</event>
<event>
12    4  0.4320235E-008  0.1866902E+04  0.7818608E-02  0.8671509E-01
          1   -1    0    0  501    0  0.00000000000E+00  0.00000000000E+00  0.16237059082E+04  0.16237059082E+04  0.00000000000E+00 0. -1.
         -2   -1    0    0    0  501 -0.00000000000E+00 -0.00000000000E+00 -0.53663113003E+03  0.53663113003E+03  0.00000000000E+00 0.  1.
        -24    2    1    2    0    0 -0.56867254473E+03  0.22685309589E+03  0.90431186740E+03  0.10950085319E+04  0.80080842003E+02 0.  0.
        254    2    1    2    0    0  0.56867254473E+03 -0.22685309589E+03  0.18276291074E+03  0.10653285063E+04  0.85245044106E+03 0.  0.
         23    2    4    4    0    0  0.16848379860E+03 -0.23873799274E+03 -0.30203635599E+03  0.43009510452E+03  0.91505295057E+02 0.  0.
         23    2    4    4    0    0  0.40018874614E+03  0.11884896846E+02  0.48479926673E+03  0.63523340175E+03  0.90547569610E+02 0.  0.
          1    1    3    3  502    0 -0.50617824596E+03  0.18351836299E+03  0.82480645779E+03  0.98498786746E+03  0.00000000000E+00 0. -1.
         -2    1    3    3    0  502 -0.62494298770E+02  0.43334732906E+02  0.79505409606E+02  0.11002066447E+03  0.00000000000E+00 0.  1.
         11    1    5    5    0    0  0.10181711269E+03 -0.85200830102E+02 -0.92024360772E+02  0.16153757724E+03  0.00000000000E+00 0. -1.
        -11    1    5    5    0    0  0.66666685913E+02 -0.15353716264E+03 -0.21001199522E+03  0.26855752728E+03  0.00000000000E+00 0.  1.
          4    1    6    6  503    0  0.12356104031E+03 -0.25107223114E+01  0.21825826485E+03  0.25081926678E+03  0.00000000000E+00 0. -1.
         -4    1    6    6    0  503  0.27662770583E+03  0.14395619158E+02  0.26654100188E+03  0.38441413497E+03  0.00000000000E+00 0.  1.
<mgrwt>
<rscale>  0 0.18669024E+04</rscale>
<asrwt>0</asrwt>
<pdfrwt beam="1">  1        1 0.24980091E+00 0.18669024E+04</pdfrwt>
<pdfrwt beam="2">  1       -2 0.82558636E-01 0.18669024E+04</pdfrwt>
<totfact> 0.56986108E+00</totfact>
</mgrwt>
</event>
<event>
12    4  0.4837350E-008  0.1641348E+04  0.7818608E-02  0.8795542E-01
         -2   -1    0    0    0  501 -0.00000000000E+00  0.00000000000E+00  0.33581662757E+03  0.33581662757E+03  0.00000000000E+00 0.  1.
          1   -1    0    0  501    0  0.00000000000E+00 -0.00000000000E+00 -0.20055754364E+04  0.20055754364E+04  0.00000000000E+00 0. -1.
        -24    2    1    2    0    0  0.37382804091E+03 -0.36159287998E+03 -0.91284502446E+03  0.10535464625E+04  0.78595768801E+02 0.  0.
        254    2    1    2    0    0 -0.37382804091E+03  0.36159287998E+03 -0.75691378436E+03  0.12878456015E+04  0.90284605626E+03 0.  0.
         23    2    4    4    0    0 -0.36359326639E+02 -0.14665160274E+03 -0.63493017984E+03  0.65896656687E+03  0.90950039909E+02 0.  0.
         23    2    4    4    0    0 -0.33746871427E+03  0.50824448271E+03 -0.12198360452E+03  0.62887903462E+03  0.91712884016E+02 0.  0.
          1    1    3    3  502    0  0.28241742461E+03 -0.28957183245E+03 -0.64255504653E+03  0.75926835552E+03  0.00000000000E+00 0. -1.
         -2    1    3    3    0  502  0.91410616300E+02 -0.72021047530E+02 -0.27028997793E+03  0.29427810695E+03  0.00000000000E+00 0.  1.
         11    1    5    5    0    0 -0.29942665883E+02 -0.14440424320E+03 -0.44273739372E+03  0.46665356368E+03  0.00000000000E+00 0.  1.
        -11    1    5    5    0    0 -0.64166607561E+01 -0.22473595394E+01 -0.19219278612E+03  0.19231300319E+03  0.00000000000E+00 0. -1.
          2    1    6    6  503    0 -0.22369682689E+03  0.29606738287E+03 -0.34311280367E+02  0.37265725475E+03  0.00000000000E+00 0. -1.
         -2    1    6    6    0  503 -0.11377188738E+03  0.21217709984E+03 -0.87672324156E+02  0.25622177987E+03  0.00000000000E+00 0.  1.
<mgrwt>
<rscale>  0 0.16413477E+04</rscale>
<asrwt>0</asrwt>
<pdfrwt beam="1">  1        1 0.30855006E+00 0.16413477E+04</pdfrwt>
<pdfrwt beam="2">  1       -2 0.51664098E-01 0.16413477E+04</pdfrwt>
<totfact> 0.87797792E+00</totfact>
</mgrwt>
</event>
<event>
12    4  0.4320235E-008  0.1681735E+04  0.7818608E-02  0.8771850E-01
         -2   -1    0    0    0  501 -0.00000000000E+00  0.00000000000E+00  0.20935286648E+04  0.20935286648E+04  0.00000000000E+00 0.  1.
          1   -1    0    0  501    0  0.00000000000E+00 -0.00000000000E+00 -0.33773526393E+03  0.33773526393E+03  0.00000000000E+00 0. -1.
        -24    2    1    2    0    0 -0.30850700353E+03  0.32710832679E+03  0.74412620045E+02  0.46275651810E+03  0.80186833937E+02 0.  0.
        254    2    1    2    0    0  0.30850700353E+03 -0.32710832679E+03  0.16813807808E+04  0.19685074106E+04  0.91967584881E+03 0.  0.
         23    2    4    4    0    0  0.58312707963E+03 -0.34187555660E+03  0.86241626252E+03  0.10995156522E+04  0.90866783404E+02 0.  0.
         23    2    4    4    0    0 -0.27462007610E+03  0.14767229808E+02  0.81896451830E+03  0.86899175844E+03  0.93859132411E+02 0.  0.
          3    1    3    3  502    0 -0.18123072925E+03  0.24619127457E+03  0.43212697150E+02  0.30874270533E+03  0.00000000000E+00 0. -1.
         -4    1    3    3    0  502 -0.12727627428E+03  0.80917052219E+02  0.31199922895E+02  0.15401381277E+03  0.00000000000E+00 0.  1.
         11    1    5    5    0    0  0.20024428137E+03 -0.70321186159E+02  0.28609906716E+03  0.35622397122E+03  0.00000000000E+00 0. -1.
        -11    1    5    5    0    0  0.38288279827E+03 -0.27155437044E+03  0.57631719536E+03  0.74329168096E+03  0.00000000000E+00 0.  1.
          3    1    6    6  503    0 -0.22417226147E+01 -0.15389682257E+02  0.62917931698E+02  0.64811524974E+02  0.00000000000E+00 0. -1.
         -3    1    6    6    0  503 -0.27237835349E+03  0.30156912065E+02  0.75604658660E+03  0.80418023347E+03  0.00000000000E+00 0.  1.
<mgrwt>
<rscale>  0 0.16817354E+04</rscale>
<asrwt>0</asrwt>
<pdfrwt beam="1">  1        1 0.51959273E-01 0.16817354E+04</pdfrwt>
<pdfrwt beam="2">  1       -2 0.32208132E+00 0.16817354E+04</pdfrwt>
<totfact> 0.14584670E+00</totfact>
</mgrwt>
</event>
<event>
12    4  0.4320235E-008  0.1756685E+04  0.7818608E-02  0.8729679E-01
          1   -1    0    0  501    0  0.00000000000E+00  0.00000000000E+00  0.12593727574E+04  0.12593727574E+04  0.00000000000E+00 0. -1.
         -2   -1    0    0    0  501 -0.00000000000E+00 -0.00000000000E+00 -0.61259474792E+03  0.61259474792E+03  0.00000000000E+00 0.  1.
        -24    2    1    2    0    0 -0.81657752901E+02  0.62850125584E+03  0.11486126950E+03  0.64882019337E+03  0.78055844717E+02 0.  0.
        254    2    1    2    0    0  0.81657752901E+02 -0.62850125584E+03  0.53191674003E+03  0.12231473120E+04  0.90081746837E+03 0.  0.
         23    2    4    4    0    0 -0.27380866990E+03 -0.65135760706E+03  0.23539051314E+03  0.75048203674E+03  0.92610333170E+02 0.  0.
         23    2    4    4    0    0  0.35546642280E+03  0.22856351219E+02  0.29652622689E+03  0.47266527525E+03  0.92767821281E+02 0.  0.
          1    1    3    3  502    0 -0.24729251928E+02  0.95659951664E+02 -0.77170709429E+01  0.99105577225E+02  0.00000000000E+00 0. -1.
         -2    1    3    3    0  502 -0.56928500973E+02  0.53284130418E+03  0.12257834044E+03  0.54971461615E+03  0.00000000000E+00 0.  1.
         11    1    5    5    0    0 -0.74835249752E+02 -0.11380234037E+03  0.17744617963E+02  0.13735413625E+03  0.00000000000E+00 0. -1.
        -11    1    5    5    0    0 -0.19897342015E+03 -0.53755526669E+03  0.21764589517E+03  0.61312790049E+03  0.00000000000E+00 0.  1.
          1    1    6    6  503    0  0.24761068589E+03  0.10307248168E+02  0.25723055252E+03  0.35719021302E+03  0.00000000000E+00 0. -1.
         -1    1    6    6    0  503  0.10785573692E+03  0.12549103051E+02  0.39295674374E+02  0.11547506223E+03  0.00000000000E+00 0.  1.
<mgrwt>
<rscale>  0 0.17566845E+04</rscale>
<asrwt>0</asrwt>
<pdfrwt beam="1">  1        1 0.19374966E+00 0.17566845E+04</pdfrwt>
<pdfrwt beam="2">  1       -2 0.94245346E-01 0.17566845E+04</pdfrwt>
<totfact> 0.76323755E+00</totfact>
</mgrwt>
</event>
<event>
12    4  0.4320235E-008  0.1172859E+04  0.7818608E-02  0.9136950E-01
          1   -1    0    0  501    0  0.00000000000E+00  0.00000000000E+00  0.10069325473E+04  0.10069325473E+04  0.00000000000E+00 0. -1.
         -2   -1    0    0    0  501 -0.00000000000E+00 -0.00000000000E+00 -0.34153202902E+03  0.34153202902E+03  0.00000000000E+00 0.  1.
        -24    2    1    2    0    0  0.21094535188E+03  0.73460313837E+02  0.15227330689E+03  0.28185886434E+03  0.79767789404E+02 0.  0.
        254    2    1    2    0    0 -0.21094535188E+03 -0.73460313837E+02  0.51312721138E+03  0.10666057120E+04  0.90799441108E+03 0.  0.
         23    2    4    4    0    0 -0.55737160396E+03 -0.72369411513E+02  0.38147511076E+03  0.68487384169E+03  0.87341183198E+02 0.  0.
         23    2    4    4    0    0  0.34642625208E+03 -0.10909023238E+01  0.13165210062E+03  0.38173187027E+03  0.91512878828E+02 0.  0.
          1    1    3    3  502    0  0.57013472073E+02  0.37296142414E+02  0.87714000271E+02  0.11106432407E+03  0.00000000000E+00 0. -1.
         -2    1    3    3    0  502  0.15393187981E+03  0.36164171423E+02  0.64559306616E+02  0.17079454027E+03  0.00000000000E+00 0.  1.
         11    1    5    5    0    0 -0.10570256363E+03 -0.48812320696E+02  0.73373952631E+02  0.13762053456E+03  0.00000000000E+00 0.  1.
        -11    1    5    5    0    0 -0.45166904033E+03 -0.23557090817E+02  0.30810115813E+03  0.54725330713E+03  0.00000000000E+00 0. -1.
          4    1    6    6  503    0  0.28905681950E+03 -0.27176236602E+02  0.82547651974E+02  0.30183854556E+03  0.00000000000E+00 0. -1.
         -4    1    6    6    0  503  0.57369432574E+02  0.26085334278E+02  0.49104448642E+02  0.79893324720E+02  0.00000000000E+00 0.  1.
<mgrwt>
<rscale>  0 0.11728593E+04</rscale>
<asrwt>0</asrwt>
<pdfrwt beam="1">  1        1 0.15491270E+00 0.11728593E+04</pdfrwt>
<pdfrwt beam="2">  1       -2 0.52543389E-01 0.11728593E+04</pdfrwt>
<totfact> 0.44396514E+01</totfact>
</mgrwt>
</event>
<event>
12    4  0.4320235E-008  0.1793314E+04  0.7818608E-02  0.8709863E-01
          1   -1    0    0  501    0  0.00000000000E+00  0.00000000000E+00  0.33360333204E+04  0.33360333204E+04  0.00000000000E+00 0. -1.
         -2   -1    0    0    0  501 -0.00000000000E+00 -0.00000000000E+00 -0.24100297629E+03  0.24100297629E+03  0.00000000000E+00 0.  1.
        -24    2    1    2    0    0 -0.28203864110E+03 -0.24528807536E+02 -0.44338129742E+02  0.29776491930E+03  0.80935900203E+02 0.  0.
        254    2    1    2    0    0  0.28203864110E+03  0.24528807536E+02  0.31393684739E+04  0.32792713774E+04  0.90434445569E+03 0.  0.
         23    2    4    4    0    0 -0.12406441502E+03 -0.18300302155E+03  0.23579174490E+04  0.23699361849E+04  0.89110826273E+02 0.  0.
         23    2    4    4    0    0  0.40610305612E+03  0.20753182909E+03  0.78145102494E+03  0.90933519256E+03  0.90750403693E+02 0.  0.
          3    1    3    3  502    0 -0.76234177710E+02  0.24784231105E+02 -0.30204812426E+02  0.85663519986E+02  0.00000000000E+00 0. -1.
         -4    1    3    3    0  502 -0.20580446339E+03 -0.49313038640E+02 -0.14133317316E+02  0.21210139931E+03  0.00000000000E+00 0.  1.
         11    1    5    5    0    0 -0.55590944462E+02 -0.41843819823E+02  0.11128169640E+04  0.11149900689E+04  0.00000000000E+00 0.  1.
        -11    1    5    5    0    0 -0.68473470557E+02 -0.14115920173E+03  0.12451004849E+04  0.12549461160E+04  0.00000000000E+00 0. -1.
          4    1    6    6  503    0  0.38659257509E+03  0.19265647146E+03  0.68499397831E+03  0.80980681982E+03  0.00000000000E+00 0. -1.
         -4    1    6    6    0  503  0.19510481030E+02  0.14875357626E+02  0.96457046639E+02  0.99528372743E+02  0.00000000000E+00 0.  1.
<mgrwt>
<rscale>  0 0.17933142E+04</rscale>
<asrwt>0</asrwt>
<pdfrwt beam="1">  1        1 0.51323586E+00 0.17933142E+04</pdfrwt>
<pdfrwt beam="2">  1       -2 0.37077383E-01 0.17933142E+04</pdfrwt>
<totfact> 0.19159705E+00</totfact>
</mgrwt>
</event>
<event>
12    4  0.4320235E-008  0.1423392E+04  0.7818608E-02  0.8937058E-01
         -2   -1    0    0    0  501 -0.00000000000E+00  0.00000000000E+00  0.31348321226E+03  0.31348321226E+03  0.00000000000E+00 0.  1.
          1   -1    0    0  501    0  0.00000000000E+00 -0.00000000000E+00 -0.16157522739E+04  0.16157522739E+04  0.00000000000E+00 0. -1.
        -24    2    1    2    0    0 -0.28661806274E+03 -0.22261586803E+03 -0.10500984341E+03  0.38608603630E+03  0.79546348929E+02 0.  0.
        254    2    1    2    0    0  0.28661806274E+03  0.22261586803E+03 -0.11972592183E+04  0.15431494499E+04  0.90342285249E+03 0.  0.
         23    2    4    4    0    0  0.49216739708E+03 -0.16067609966E+03 -0.58678825470E+03  0.78800845920E+03  0.92689374569E+02 0.  0.
         23    2    4    4    0    0 -0.20554933434E+03  0.38329196769E+03 -0.61047096356E+03  0.75514099070E+03  0.91650734503E+02 0.  0.
          3    1    3    3  502    0 -0.80872759670E+01 -0.34127762977E+02 -0.13096735208E+02  0.37438385536E+02  0.00000000000E+00 0. -1.
         -4    1    3    3    0  502 -0.27853078677E+03 -0.18848810505E+03 -0.91913108199E+02  0.34864765076E+03  0.00000000000E+00 0.  1.
         11    1    5    5    0    0  0.40618002858E+03 -0.95209922670E+02 -0.44914655906E+03  0.61300878991E+03  0.00000000000E+00 0. -1.
        -11    1    5    5    0    0  0.85987368505E+02 -0.65466176988E+02 -0.13764169565E+03  0.17499966929E+03  0.00000000000E+00 0.  1.
          1    1    6    6  503    0 -0.20778901413E+03  0.33472308748E+03 -0.51951992968E+03  0.65200979825E+03  0.00000000000E+00 0. -1.
         -1    1    6    6    0  503  0.22396797886E+01  0.48568880209E+02 -0.90951033881E+02  0.10313119244E+03  0.00000000000E+00 0.  1.
<mgrwt>
<rscale>  0 0.14233920E+04</rscale>
<asrwt>0</asrwt>
<pdfrwt beam="1">  1        1 0.24857727E+00 0.14233920E+04</pdfrwt>
<pdfrwt beam="2">  1       -2 0.48228187E-01 0.14233920E+04</pdfrwt>
<totfact> 0.18934550E+01</totfact>
</mgrwt>
</event>
<event>
12    4  0.4320235E-008  0.1406887E+04  0.7818608E-02  0.8948848E-01
          1   -1    0    0  501    0  0.00000000000E+00  0.00000000000E+00  0.13238446120E+04  0.13238446120E+04  0.00000000000E+00 0. -1.
         -2   -1    0    0    0  501 -0.00000000000E+00 -0.00000000000E+00 -0.37378483632E+03  0.37378483632E+03  0.00000000000E+00 0.  1.
        -24    2    1    2    0    0 -0.39134690017E+02  0.34348754119E+03  0.66594718583E+01  0.35474978139E+03  0.79295926251E+02 0.  0.
        254    2    1    2    0    0  0.39134690017E+02 -0.34348754119E+03  0.94340030382E+03  0.13428796669E+04  0.89095816494E+03 0.  0.
         23    2    4    4    0    0 -0.92092976785E+02  0.20955629856E+03  0.10322069756E+02  0.24653059219E+03  0.90971584146E+02 0.  0.
         23    2    4    4    0    0  0.13122766680E+03 -0.55304383975E+03  0.93307823406E+03  0.10963490747E+04  0.90929167874E+02 0.  0.
          3    1    3    3  502    0 -0.52042676496E+02  0.20873033143E+03  0.30565971168E+02  0.21728108530E+03  0.00000000000E+00 0. -1.
         -4    1    3    3    0  502  0.12907986479E+02  0.13475720976E+03 -0.23906499310E+02  0.13746869610E+03  0.00000000000E+00 0.  1.
         11    1    5    5    0    0 -0.95329801700E+02  0.12473534264E+03  0.28920687365E+02  0.15963421611E+03  0.00000000000E+00 0. -1.
        -11    1    5    5    0    0  0.32368249145E+01  0.84820955920E+02 -0.18598617609E+02  0.86896376079E+02  0.00000000000E+00 0.  1.
          1    1    6    6  503    0 -0.12457071967E+02 -0.48208130091E+02  0.64340499186E+02  0.81356636388E+02  0.00000000000E+00 0. -1.
         -1    1    6    6    0  503  0.14368473877E+03 -0.50483570966E+03  0.86873773488E+03  0.10149924383E+04  0.00000000000E+00 0.  1.
<mgrwt>
<rscale>  0 0.14068874E+04</rscale>
<asrwt>0</asrwt>
<pdfrwt beam="1">  1        1 0.20366840E+00 0.14068874E+04</pdfrwt>
<pdfrwt beam="2">  1       -2 0.57505360E-01 0.14068874E+04</pdfrwt>
<totfact> 0.21060920E+01</totfact>
</mgrwt>
</event>
<event>
12    4  0.4320235E-008  0.1462419E+04  0.7818608E-02  0.8909836E-01
          1   -1    0    0  501    0  0.00000000000E+00  0.00000000000E+00  0.96129923413E+03  0.96129923413E+03  0.00000000000E+00 0. -1.
         -2   -1    0    0    0  501 -0.00000000000E+00 -0.00000000000E+00 -0.55619230553E+03  0.55619230553E+03  0.00000000000E+00 0.  1.
        -24    2    1    2    0    0  0.19222893832E+03 -0.35923682101E+03  0.23787855205E+03  0.47861576304E+03  0.80521952293E+02 0.  0.
        254    2    1    2    0    0 -0.19222893832E+03  0.35923682101E+03  0.16722837655E+03  0.10388757766E+04  0.94090089331E+03 0.  0.
         23    2    4    4    0    0  0.29541589785E+03  0.35045015570E+03 -0.97233231074E+02  0.47636853002E+03  0.85946558021E+02 0.  0.
         23    2    4    4    0    0 -0.48764483617E+03  0.87866653107E+01  0.26446160762E+03  0.56250724660E+03  0.92734938672E+02 0.  0.
          3    1    3    3  502    0 -0.60025659707E+01 -0.20361795860E+02  0.22036803810E+02  0.30598272027E+02  0.00000000000E+00 0. -1.
         -4    1    3    3    0  502  0.19823150429E+03 -0.33887502515E+03  0.21584174824E+03  0.44801749101E+03  0.00000000000E+00 0.  1.
         11    1    5    5    0    0  0.24794410245E+03  0.25377679372E+03 -0.10005146146E+03  0.36863156933E+03  0.00000000000E+00 0. -1.
        -11    1    5    5    0    0  0.47471795398E+02  0.96673361985E+02  0.28182303811E+01  0.10773696069E+03  0.00000000000E+00 0.  1.
          3    1    6    6  503    0 -0.39850998947E+03 -0.27836833602E+02  0.22395215920E+03  0.45797343877E+03  0.00000000000E+00 0. -1.
         -3    1    6    6    0  503 -0.89134846695E+02  0.36623498913E+02  0.40509448423E+02  0.10453380783E+03  0.00000000000E+00 0.  1.
<mgrwt>
<rscale>  0 0.14624189E+04</rscale>
<asrwt>0</asrwt>
<pdfrwt beam="1">  1        1 0.14789219E+00 0.14624189E+04</pdfrwt>
<pdfrwt beam="2">  1       -2 0.85568047E-01 0.14624189E+04</pdfrwt>
<totfact> 0.16386359E+01</totfact>
</mgrwt>
</event>
<event>
12    4  0.4320235E-008  0.3360942E+04  0.7818608E-02  0.8147560E-01
          1   -1    0    0  501    0  0.00000000000E+00  0.00000000000E+00  0.17861410395E+04  0.17861410395E+04  0.00000000000E+00 0. -1.
         -2   -1    0    0    0  501 -0.00000000000E+00 -0.00000000000E+00 -0.15810522570E+04  0.15810522570E+04  0.00000000000E+00 0.  1.
        -24    2    1    2    0    0  0.10623709846E+04  0.10328789492E+04  0.58425616079E+03  0.15946967832E+04  0.78940080784E+02 0.  0.
        254    2    1    2    0    0 -0.10623709846E+04 -0.10328789492E+04 -0.37916737833E+03  0.17724965133E+04  0.89582640966E+03 0.  0.
         23    2    4    4    0    0  0.19931919825E+02 -0.17022675033E+03  0.19185401552E+03  0.27265953706E+03  0.90337322966E+02 0.  0.
         23    2    4    4    0    0 -0.10823029044E+04 -0.86265219889E+03 -0.57102139386E+03  0.14998369763E+04  0.88865797181E+02 0.  0.
          1    1    3    3  502    0  0.74835799430E+03  0.70134507410E+03  0.43758711033E+03  0.11150816471E+04  0.00000000000E+00 0. -1.
         -2    1    3    3    0  502  0.31401299031E+03  0.33153387512E+03  0.14666905046E+03  0.47961513612E+03  0.00000000000E+00 0.  1.
         11    1    5    5    0    0  0.19740314787E+02 -0.21833375531E+02 -0.84272160525E+00  0.29446332449E+02  0.00000000000E+00 0. -1.
        -11    1    5    5    0    0  0.19160503885E+00 -0.14839337480E+03  0.19269673713E+03  0.24321320461E+03  0.00000000000E+00 0.  1.
          3    1    6    6  503    0 -0.26926390041E+03 -0.22517468939E+03 -0.10448340240E+03  0.36622871295E+03  0.00000000000E+00 0. -1.
         -3    1    6    6    0  503 -0.81303900403E+03 -0.63747750950E+03 -0.46653799146E+03  0.11336082633E+04  0.00000000000E+00 0.  1.
<mgrwt>
<rscale>  0 0.33609417E+04</rscale>
<asrwt>0</asrwt>
<pdfrwt beam="1">  1        1 0.27479093E+00 0.33609417E+04</pdfrwt>
<pdfrwt beam="2">  1       -2 0.24323881E+00 0.33609417E+04</pdfrwt>
<totfact> 0.21363761E-01</totfact>
</mgrwt>
</event>
<event>
12    4  0.4320235E-008  0.1394761E+04  0.7818608E-02  0.8957619E-01
          1   -1    0    0  501    0  0.00000000000E+00  0.00000000000E+00  0.58540034821E+03  0.58540034821E+03  0.00000000000E+00 0. -1.
         -2   -1    0    0    0  501 -0.00000000000E+00 -0.00000000000E+00 -0.83078147688E+03  0.83078147688E+03  0.00000000000E+00 0.  1.
        -24    2    1    2    0    0  0.40772738945E+03 -0.33127613808E+01 -0.94960395175E+02  0.42591728230E+03  0.78329153044E+02 0.  0.
        254    2    1    2    0    0 -0.40772738945E+03  0.33127613808E+01 -0.15042073350E+03  0.99026454279E+03  0.88980046592E+03 0.  0.
         23    2    4    4    0    0 -0.98777285512E+02 -0.36349733419E+03 -0.28856916214E+03  0.48323766032E+03  0.91428720412E+02 0.  0.
         23    2    4    4    0    0 -0.30895010394E+03  0.36681009557E+03  0.13814842864E+03  0.50702688248E+03  0.89394956705E+02 0.  0.
          1    1    3    3  502    0  0.38623894391E+03  0.94240891088E+01 -0.74150339366E+02  0.39340514496E+03  0.00000000000E+00 0. -1.
         -2    1    3    3    0  502  0.21488445536E+02 -0.12736850490E+02 -0.20810055809E+02  0.32512137345E+02  0.00000000000E+00 0.  1.
         11    1    5    5    0    0  0.93064651536E+01 -0.43867715693E+02 -0.63161879392E+02  0.77462312012E+02  0.00000000000E+00 0. -1.
        -11    1    5    5    0    0 -0.10808375067E+03 -0.31962961850E+03 -0.22540728275E+03  0.40577534830E+03  0.00000000000E+00 0.  1.
          4    1    6    6  503    0 -0.67475680291E+02  0.14486539717E+03  0.48894682800E+02  0.16712163455E+03  0.00000000000E+00 0. -1.
         -4    1    6    6    0  503 -0.24147442365E+03  0.22194469840E+03  0.89253745841E+02  0.33990524793E+03  0.00000000000E+00 0.  1.
<mgrwt>
<rscale>  0 0.13947613E+04</rscale>
<asrwt>0</asrwt>
<pdfrwt beam="1">  1        1 0.90061592E-01 0.13947613E+04</pdfrwt>
<pdfrwt beam="2">  1       -2 0.12781254E+00 0.13947613E+04</pdfrwt>
<totfact> 0.13726683E+01</totfact>
</mgrwt>
</event>
<event>
12    4  0.4320235E-008  0.1341727E+04  0.7818608E-02  0.8997114E-01
          1   -1    0    0  501    0  0.00000000000E+00  0.00000000000E+00  0.11684358803E+04  0.11684358803E+04  0.00000000000E+00 0. -1.
         -2   -1    0    0    0  501 -0.00000000000E+00 -0.00000000000E+00 -0.38517999512E+03  0.38517999512E+03  0.00000000000E+00 0.  1.
        -24    2    1    2    0    0  0.88960152851E+02 -0.10470649275E+03 -0.17187452804E+03  0.23664361960E+03  0.87074628275E+02 0.  0.
        254    2    1    2    0    0 -0.88960152851E+02  0.10470649275E+03  0.95513041326E+03  0.13169722559E+04  0.89625022064E+03 0.  0.
         23    2    4    4    0    0 -0.47735536849E+03  0.13334705071E+03  0.47120275772E+03  0.68927171931E+03  0.86103893058E+02 0.  0.
         23    2    4    4    0    0  0.38839521564E+03 -0.28640557962E+02  0.48392765554E+03  0.62770053657E+03  0.90282128477E+02 0.  0.
          1    1    3    3  502    0 -0.45548472792E+01  0.11268670510E+02 -0.55791503421E+01  0.13373723765E+02  0.00000000000E+00 0. -1.
         -2    1    3    3    0  502  0.93515000130E+02 -0.11597516326E+03 -0.16629537769E+03  0.22326989583E+03  0.00000000000E+00 0.  1.
         11    1    5    5    0    0 -0.41015770488E+03  0.13672945406E+03  0.43303073675E+03  0.61191494952E+03  0.00000000000E+00 0. -1.
        -11    1    5    5    0    0 -0.67197663612E+02 -0.33824033459E+01  0.38172020968E+02  0.77356769788E+02  0.00000000000E+00 0.  1.
          4    1    6    6  503    0  0.73604263254E+02 -0.22614557655E+02  0.15085315375E+03  0.16936847340E+03  0.00000000000E+00 0.  1.
         -4    1    6    6    0  503  0.31479095238E+03 -0.60260003076E+01  0.33307450179E+03  0.45833206316E+03  0.00000000000E+00 0. -1.
<mgrwt>
<rscale>  0 0.13417274E+04</rscale>
<asrwt>0</asrwt>
<pdfrwt beam="1">  1        1 0.17975936E+00 0.13417274E+04</pdfrwt>
<pdfrwt beam="2">  1       -2 0.59258461E-01 0.13417274E+04</pdfrwt>
<totfact> 0.25744992E+01</totfact>
</mgrwt>
</event>
<event>
12    4  0.4320235E-008  0.1954213E+04  0.7818608E-02  0.8628332E-01
         -2   -1    0    0    0  501 -0.00000000000E+00  0.00000000000E+00  0.99705365015E+03  0.99705365015E+03  0.00000000000E+00 0.  1.
          1   -1    0    0  501    0  0.00000000000E+00 -0.00000000000E+00 -0.95755849574E+03  0.95755849574E+03  0.00000000000E+00 0. -1.
        -24    2    1    2    0    0  0.50903148110E+03  0.10042419025E+03  0.58418097063E+03  0.78521412320E+03  0.78075259150E+02 0.  0.
        254    2    1    2    0    0 -0.50903148110E+03 -0.10042419025E+03 -0.54468581621E+03  0.11693980227E+04  0.89532733141E+03 0.  0.
         23    2    4    4    0    0 -0.73086888118E+02  0.36914770110E+03 -0.21935403081E+03  0.44497087404E+03  0.90945970096E+02 0.  0.
         23    2    4    4    0    0 -0.43594459298E+03 -0.46957189134E+03 -0.32533178540E+03  0.72442714865E+03  0.91697730750E+02 0.  0.
          1    1    3    3  502    0  0.29947872320E+03  0.93962539774E+02  0.32442264852E+03  0.45140505026E+03  0.00000000000E+00 0. -1.
         -2    1    3    3    0  502  0.20955275790E+03  0.64616504708E+01  0.25975832211E+03  0.33380907293E+03  0.00000000000E+00 0.  1.
         11    1    5    5    0    0 -0.67466523696E+02  0.29669957671E+03 -0.13289115318E+03  0.33202775371E+03  0.00000000000E+00 0. -1.
        -11    1    5    5    0    0 -0.56203644218E+01  0.72448124384E+02 -0.86462877628E+02  0.11294312033E+03  0.00000000000E+00 0.  1.
          3    1    6    6  503    0 -0.13772800185E+03 -0.20625533981E+03 -0.14845766562E+03  0.28905007555E+03  0.00000000000E+00 0. -1.
         -3    1    6    6    0  503 -0.29821659113E+03 -0.26331655153E+03 -0.17687411978E+03  0.43537707310E+03  0.00000000000E+00 0.  1.
<mgrwt>
<rscale>  0 0.19542131E+04</rscale>
<asrwt>0</asrwt>
<pdfrwt beam="1">  1        1 0.14731669E+00 0.19542131E+04</pdfrwt>
<pdfrwt beam="2">  1       -2 0.15339287E+00 0.19542131E+04</pdfrwt>
<totfact> 0.37661063E+00</totfact>
</mgrwt>
</event>
<event>
12    4  0.6410598E-008  0.2452734E+04  0.7818608E-02  0.8420021E-01
          1   -1    0    0  501    0  0.00000000000E+00  0.00000000000E+00  0.94273434625E+03  0.94273434625E+03  0.00000000000E+00 0. -1.
         -2   -1    0    0    0  501 -0.00000000000E+00 -0.00000000000E+00 -0.15953336012E+04  0.15953336012E+04  0.00000000000E+00 0.  1.
        -24    2    1    2    0    0 -0.84436306345E+03  0.23582388292E+03 -0.89759498552E+03  0.12577791443E+04  0.88146079082E+02 0.  0.
        254    2    1    2    0    0  0.84436306345E+03 -0.23582388292E+03  0.24499573060E+03  0.12802888031E+04  0.90030807204E+03 0.  0.
         23    2    4    4    0    0 -0.83632964545E+02 -0.67584618853E+02  0.29928051805E+03  0.33119330371E+03  0.92509580445E+02 0.  0.
         23    2    4    4    0    0  0.92799602799E+03 -0.16823926407E+03 -0.54284787449E+02  0.94909549936E+03  0.91402137874E+02 0.  0.
          1    1    3    3  502    0 -0.33841525494E+01 -0.50737005442E+01 -0.41903274243E+01  0.73995790159E+01  0.00000000000E+00 0. -1.
         -2    1    3    3    0  502 -0.84097891090E+03  0.24089758347E+03 -0.89340465809E+03  0.12503795653E+04  0.00000000000E+00 0.  1.
         11    1    5    5    0    0 -0.73831493909E+02 -0.54380798468E+02  0.30100186793E+03  0.31465931614E+03  0.00000000000E+00 0. -1.
        -11    1    5    5    0    0 -0.98014706361E+01 -0.13203820385E+02 -0.17213498871E+01  0.16533987566E+02  0.00000000000E+00 0.  1.
          3    1    6    6  503    0  0.77581918716E+03 -0.13640169072E+03 -0.79005391890E+02  0.79167081817E+03  0.00000000000E+00 0. -1.
         -3    1    6    6    0  503  0.15217684083E+03 -0.31837573352E+02  0.24720604441E+02  0.15742468118E+03  0.00000000000E+00 0.  1.
<mgrwt>
<rscale>  0 0.24527338E+04</rscale>
<asrwt>0</asrwt>
<pdfrwt beam="1">  1        1 0.14503606E+00 0.24527338E+04</pdfrwt>
<pdfrwt beam="2">  1       -2 0.24543593E+00 0.24527338E+04</pdfrwt>
<totfact> 0.90086041E-01</totfact>
</mgrwt>
</event>
<event>
12    4  0.4320235E-008  0.3127880E+04  0.7818608E-02  0.8208128E-01
          1   -1    0    0  501    0  0.00000000000E+00  0.00000000000E+00  0.20001009771E+04  0.20001009771E+04  0.00000000000E+00 0. -1.
         -2   -1    0    0    0  501 -0.00000000000E+00 -0.00000000000E+00 -0.12228920717E+04  0.12228920717E+04  0.00000000000E+00 0.  1.
        -24    2    1    2    0    0 -0.12363272466E+04 -0.25673635930E+03 -0.33969348829E+03  0.13098659504E+04  0.77061813547E+02 0.  0.
        254    2    1    2    0    0  0.12363272466E+04  0.25673635930E+03  0.11169023936E+04  0.19131270984E+04  0.90452513439E+03 0.  0.
         23    2    4    4    0    0  0.11377841204E+04  0.50532006416E+03  0.10284619868E+04  0.16172219436E+04  0.88157158907E+02 0.  0.
         23    2    4    4    0    0  0.98543126224E+02 -0.24858370486E+03  0.88440406765E+02  0.29590515475E+03  0.90738905723E+02 0.  0.
          1    1    3    3  502    0 -0.19754412070E+03 -0.70032168193E+02 -0.52745909168E+02  0.21612569292E+03  0.00000000000E+00 0. -1.
         -2    1    3    3    0  502 -0.10387831259E+04 -0.18670419111E+03 -0.28694757912E+03  0.10937402575E+04  0.00000000000E+00 0.  1.
         11    1    5    5    0    0  0.59878885272E+02  0.75099447704E+01  0.59003283218E+02  0.84399452619E+02  0.00000000000E+00 0. -1.
        -11    1    5    5    0    0  0.10779052351E+04  0.49781011939E+03  0.96945870363E+03  0.15328224910E+04  0.00000000000E+00 0.  1.
          1    1    6    6  503    0 -0.51715917110E+01  0.49233330190E+01 -0.20720893824E+01  0.74349259074E+01  0.00000000000E+00 0. -1.
         -1    1    6    6    0  503  0.10371471793E+03 -0.25350703788E+03  0.90512496147E+02  0.28847022885E+03  0.00000000000E+00 0.  1.
<mgrwt>
<rscale>  0 0.31278796E+04</rscale>
<asrwt>0</asrwt>
<pdfrwt beam="1">  1        1 0.30770784E+00 0.31278796E+04</pdfrwt>
<pdfrwt beam="2">  1       -2 0.18813724E+00 0.31278796E+04</pdfrwt>
<totfact> 0.35183171E-01</totfact>
</mgrwt>
</event>
<event>
12    4  0.4320235E-008  0.2908093E+04  0.7818608E-02  0.8270474E-01
          1   -1    0    0  501    0  0.00000000000E+00  0.00000000000E+00  0.19730157709E+04  0.19730157709E+04  0.00000000000E+00 0. -1.
         -2   -1    0    0    0  501 -0.00000000000E+00 -0.00000000000E+00 -0.10715836299E+04  0.10715836299E+04  0.00000000000E+00 0.  1.
        -24    2    1    2    0    0 -0.29038497219E+03  0.89398899787E+03 -0.53273631667E+03  0.10838335584E+04  0.85717203109E+02 0.  0.
        254    2    1    2    0    0  0.29038497219E+03 -0.89398899787E+03  0.14341684577E+04  0.19607658423E+04  0.95090681083E+03 0.  0.
         23    2    4    4    0    0  0.49680065547E+03 -0.87817938308E+03  0.14069432121E+04  0.17337181500E+04  0.90991766559E+02 0.  0.
         23    2    4    4    0    0 -0.20641568327E+03 -0.15809614797E+02  0.27225245620E+02  0.22704769228E+03  0.89174336819E+02 0.  0.
          1    1    3    3  502    0 -0.75724646421E+01  0.21414736889E+02 -0.30644839441E+02  0.38144978190E+02  0.00000000000E+00 0. -1.
         -2    1    3    3    0  502 -0.28281250755E+03  0.87257426098E+03 -0.50209147723E+03  0.10456885802E+04  0.00000000000E+00 0.  1.
         11    1    5    5    0    0  0.19829734420E+03 -0.29007337237E+03  0.54383978762E+03  0.64747672752E+03  0.00000000000E+00 0.  1.
        -11    1    5    5    0    0  0.29850331126E+03 -0.58810601070E+03  0.86310342447E+03  0.10862414225E+04  0.00000000000E+00 0. -1.
          3    1    6    6  503    0 -0.14438165819E+03  0.20701824952E+02 -0.96376759495E+01  0.14617630990E+03  0.00000000000E+00 0. -1.
         -3    1    6    6    0  503 -0.62034025079E+02 -0.36511439749E+02  0.36862921570E+02  0.80871382372E+02  0.00000000000E+00 0.  1.
<mgrwt>
<rscale>  0 0.29080931E+04</rscale>
<asrwt>0</asrwt>
<pdfrwt beam="1">  1        1 0.30354089E+00 0.29080931E+04</pdfrwt>
<pdfrwt beam="2">  1       -2 0.16485902E+00 0.29080931E+04</pdfrwt>
<totfact> 0.54391209E-01</totfact>
</mgrwt>
</event>
<event>
12    4  0.4320235E-008  0.1437659E+04  0.7818608E-02  0.8927001E-01
         -2   -1    0    0    0  501 -0.00000000000E+00  0.00000000000E+00  0.13803319713E+04  0.13803319713E+04  0.00000000000E+00 0.  1.
          1   -1    0    0  501    0  0.00000000000E+00 -0.00000000000E+00 -0.37434197003E+03  0.37434197003E+03  0.00000000000E+00 0. -1.
        -24    2    1    2    0    0 -0.44896745174E+02 -0.40342467347E+03  0.12258619015E+03  0.43186150746E+03  0.81913385448E+02 0.  0.
        254    2    1    2    0    0  0.44896745174E+02  0.40342467347E+03  0.88340381112E+03  0.13228124339E+04  0.89703024296E+03 0.  0.
         23    2    4    4    0    0  0.39230312736E+03  0.46626101004E+02  0.15114700356E+03  0.43253409857E+03  0.90358135803E+02 0.  0.
         23    2    4    4    0    0 -0.34740638219E+03  0.35679857247E+03  0.73225680756E+03  0.89027833529E+03  0.91646420379E+02 0.  0.
          1    1    3    3  502    0 -0.66327101399E+02 -0.34229446341E+03  0.11210815782E+03  0.36624175501E+03  0.00000000000E+00 0. -1.
         -2    1    3    3    0  502  0.21430356225E+02 -0.61130210062E+02  0.10478032327E+02  0.65619752450E+02  0.00000000000E+00 0.  1.
         11    1    5    5    0    0  0.28414841680E+03  0.14796013767E+02  0.14568318605E+03  0.31966050036E+03  0.00000000000E+00 0.  1.
        -11    1    5    5    0    0  0.10815471056E+03  0.31830087237E+02  0.54638175078E+01  0.11287359820E+03  0.00000000000E+00 0. -1.
          2    1    6    6  503    0 -0.11091412439E+03  0.16126701787E+03  0.23346697747E+03  0.30465689490E+03  0.00000000000E+00 0.  1.
         -2    1    6    6    0  503 -0.23649225780E+03  0.19553155460E+03  0.49878983009E+03  0.58562144039E+03  0.00000000000E+00 0. -1.
<mgrwt>
<rscale>  0 0.14376595E+04</rscale>
<asrwt>0</asrwt>
<pdfrwt beam="1">  1        1 0.57591073E-01 0.14376595E+04</pdfrwt>
<pdfrwt beam="2">  1       -2 0.21235876E+00 0.14376595E+04</pdfrwt>
<totfact> 0.61508762E+00</totfact>
</mgrwt>
</event>
<event>
12    4  0.4320235E-008  0.2307882E+04  0.7818608E-02  0.8474820E-01
         -2   -1    0    0    0  501 -0.00000000000E+00  0.00000000000E+00  0.80203902962E+03  0.80203902962E+03  0.00000000000E+00 0.  1.
          1   -1    0    0  501    0  0.00000000000E+00 -0.00000000000E+00 -0.16602432163E+04  0.16602432163E+04  0.00000000000E+00 0. -1.
        -24    2    1    2    0    0 -0.62453038084E+03  0.22816055630E+03  0.40072461245E+03  0.78043844094E+03  0.80053163800E+02 0.  0.
        254    2    1    2    0    0  0.62453038084E+03 -0.22816055630E+03 -0.12589287991E+04  0.16818438050E+04  0.89532196836E+03 0.  0.
         23    2    4    4    0    0 -0.12664756619E+03 -0.10483166703E+03 -0.72054679567E+03  0.74490520453E+03  0.93095620497E+02 0.  0.
         23    2    4    4    0    0  0.75117794703E+03 -0.12332888927E+03 -0.53838200345E+03  0.93693860044E+03  0.92306209587E+02 0.  0.
          3    1    3    3  502    0 -0.88280565969E+02  0.59077492011E+02  0.47030220178E+02  0.11616991865E+03  0.00000000000E+00 0. -1.
         -4    1    3    3    0  502 -0.53624981487E+03  0.16908306429E+03  0.35369439227E+03  0.66426852229E+03  0.00000000000E+00 0.  1.
         11    1    5    5    0    0  0.12009737713E+02 -0.12806151653E+02 -0.31655441855E+02  0.36198043029E+02  0.00000000000E+00 0.  1.
        -11    1    5    5    0    0 -0.13865730390E+03 -0.92025515376E+02 -0.68889135382E+03  0.70870716151E+03  0.00000000000E+00 0. -1.
          2    1    6    6  503    0  0.37945807156E+03 -0.62591067844E+02 -0.32834548146E+03  0.50568451138E+03  0.00000000000E+00 0. -1.
         -2    1    6    6    0  503  0.37171987546E+03 -0.60737821429E+02 -0.21003652198E+03  0.43125408906E+03  0.00000000000E+00 0.  1.
<mgrwt>
<rscale>  0 0.23078820E+04</rscale>
<asrwt>0</asrwt>
<pdfrwt beam="1">  1        1 0.25542203E+00 0.23078820E+04</pdfrwt>
<pdfrwt beam="2">  1       -2 0.12339062E+00 0.23078820E+04</pdfrwt>
<totfact> 0.19936038E+00</totfact>
</mgrwt>
</event>
<event>
12    4  0.4320235E-008  0.1960868E+04  0.7818608E-02  0.8625138E-01
          1   -1    0    0  501    0  0.00000000000E+00  0.00000000000E+00  0.78970797297E+03  0.78970797297E+03  0.00000000000E+00 0. -1.
         -2   -1    0    0    0  501 -0.00000000000E+00 -0.00000000000E+00 -0.12172232099E+04  0.12172232099E+04  0.00000000000E+00 0.  1.
        -24    2    1    2    0    0 -0.53125837401E+03 -0.27702514188E+03  0.32029564898E+03  0.68409531861E+03  0.80116870857E+02 0.  0.
        254    2    1    2    0    0  0.53125837401E+03  0.27702514188E+03 -0.74781088591E+03  0.13228358643E+04  0.91197325261E+03 0.  0.
         23    2    4    4    0    0  0.47145965346E+03 -0.23835085392E+03 -0.22843403441E+03  0.58252135288E+03  0.89798018207E+02 0.  0.
         23    2    4    4    0    0  0.59798720545E+02  0.51537599579E+03 -0.51937685149E+03  0.74031451137E+03  0.95524645340E+02 0.  0.
          1    1    3    3  502    0 -0.36882771755E+03 -0.23046047607E+03  0.21686892533E+03  0.48598152952E+03  0.00000000000E+00 0. -1.
         -2    1    3    3    0  502 -0.16243065646E+03 -0.46564665804E+02  0.10342672365E+03  0.19811378908E+03  0.00000000000E+00 0.  1.
         11    1    5    5    0    0  0.46995601744E+03 -0.24372584945E+03 -0.22215422395E+03  0.57411971508E+03  0.00000000000E+00 0. -1.
        -11    1    5    5    0    0  0.15036360203E+01  0.53749955349E+01 -0.62798104628E+01  0.84016378004E+01  0.00000000000E+00 0.  1.
          3    1    6    6  503    0  0.96330515068E+01  0.25270821206E+03 -0.31375755459E+03  0.40298640074E+03  0.00000000000E+00 0. -1.
         -3    1    6    6    0  503  0.50165669038E+02  0.26266778374E+03 -0.20561929690E+03  0.33732811063E+03  0.00000000000E+00 0.  1.
<mgrwt>
<rscale>  0 0.19608680E+04</rscale>
<asrwt>0</asrwt>
<pdfrwt beam="1">  1        1 0.12149354E+00 0.19608680E+04</pdfrwt>
<pdfrwt beam="2">  1       -2 0.18726511E+00 0.19608680E+04</pdfrwt>
<totfact> 0.29755005E+00</totfact>
</mgrwt>
</event>
<event>
12    4  0.4320235E-008  0.1497964E+04  0.7818608E-02  0.8885808E-01
         -2   -1    0    0    0  501 -0.00000000000E+00  0.00000000000E+00  0.79327780403E+03  0.79327780403E+03  0.00000000000E+00 0.  1.
          1   -1    0    0  501    0  0.00000000000E+00 -0.00000000000E+00 -0.70715983076E+03  0.70715983076E+03  0.00000000000E+00 0. -1.
        -24    2    1    2    0    0  0.32072131817E+03 -0.30372061737E+03 -0.16295845761E+03  0.47777185598E+03  0.81253369896E+02 0.  0.
        254    2    1    2    0    0 -0.32072131817E+03  0.30372061737E+03  0.24907643088E+03  0.10226657788E+04  0.88808662269E+03 0.  0.
         23    2    4    4    0    0 -0.38530111634E+03 -0.34605965206E+02 -0.20347479548E+03  0.44654812522E+03  0.91371290110E+02 0.  0.
         23    2    4    4    0    0  0.64579798174E+02  0.33832658257E+03  0.45255122636E+03  0.57611765360E+03  0.92051678450E+02 0.  0.
          1    1    3    3  502    0  0.26989543679E+03 -0.20851807731E+03 -0.12885144739E+03  0.36459022321E+03  0.00000000000E+00 0. -1.
         -2    1    3    3    0  502  0.50825881383E+02 -0.95202540056E+02 -0.34107010219E+02  0.11318163277E+03  0.00000000000E+00 0.  1.
         11    1    5    5    0    0 -0.15533579215E+03 -0.23235862625E+02 -0.13284941442E+03  0.20571358863E+03  0.00000000000E+00 0. -1.
        -11    1    5    5    0    0 -0.22996532419E+03 -0.11370102581E+02 -0.70625381059E+02  0.24083453659E+03  0.00000000000E+00 0.  1.
          4    1    6    6  503    0  0.40784035742E+02  0.25023611034E+03  0.39115633890E+03  0.46613810180E+03  0.00000000000E+00 0. -1.
         -4    1    6    6    0  503  0.23795762431E+02  0.88090472234E+02  0.61394887455E+02  0.10997955180E+03  0.00000000000E+00 0.  1.
<mgrwt>
<rscale>  0 0.14979642E+04</rscale>
<asrwt>0</asrwt>
<pdfrwt beam="1">  1        1 0.10879382E+00 0.14979642E+04</pdfrwt>
<pdfrwt beam="2">  1       -2 0.12204274E+00 0.14979642E+04</pdfrwt>
<totfact> 0.11567074E+01</totfact>
</mgrwt>
</event>
<event>
12    4  0.4320235E-008  0.2167471E+04  0.7818608E-02  0.8532091E-01
         -4   -1    0    0    0  501 -0.00000000000E+00  0.00000000000E+00  0.72103374597E+03  0.72103374597E+03  0.00000000000E+00 0.  1.
          3   -1    0    0  501    0  0.00000000000E+00 -0.00000000000E+00 -0.16288874130E+04  0.16288874130E+04  0.00000000000E+00 0. -1.
        -24    2    1    2    0    0 -0.39319352178E+03 -0.79627216168E+03 -0.26695608895E+03  0.93091700920E+03  0.81795009355E+02 0.  0.
        254    2    1    2    0    0  0.39319352178E+03  0.79627216168E+03 -0.64089757812E+03  0.14190041498E+04  0.90231511708E+03 0.  0.
         23    2    4    4    0    0 -0.59244765218E+02  0.69944506195E+03 -0.12318186935E+03  0.71875011399E+03  0.93244927604E+02 0.  0.
         23    2    4    4    0    0  0.45243828700E+03  0.96827099734E+02 -0.51771570877E+03  0.70025403583E+03  0.90830990346E+02 0.  0.
          1    1    3    3  502    0 -0.10630797311E+03 -0.25036730850E+03 -0.11794287269E+03  0.29647208221E+03  0.00000000000E+00 0. -1.
         -2    1    3    3    0  502 -0.28688554868E+03 -0.54590485319E+03 -0.14901321626E+03  0.63444492700E+03  0.00000000000E+00 0.  1.
         11    1    5    5    0    0 -0.72959540413E+02  0.58317514001E+03 -0.12829988852E+03  0.60156229923E+03  0.00000000000E+00 0.  1.
        -11    1    5    5    0    0  0.13714775194E+02  0.11626992194E+03  0.51180191634E+01  0.11718781476E+03  0.00000000000E+00 0. -1.
          3    1    6    6  503    0  0.20973270931E+03  0.38951846789E+02 -0.17266115102E+03  0.27443929893E+03  0.00000000000E+00 0. -1.
         -3    1    6    6    0  503  0.24270557769E+03  0.57875252945E+02 -0.34505455774E+03  0.42581473691E+03  0.00000000000E+00 0.  1.
<mgrwt>
<rscale>  0 0.21674711E+04</rscale>
<asrwt>0</asrwt>
<pdfrwt beam="1">  1        3 0.25059806E+00 0.21674711E+04</pdfrwt>
<pdfrwt beam="2">  1       -4 0.11092827E+00 0.21674711E+04</pdfrwt>
<totfact> 0.98812240E-02</totfact>
</mgrwt>
</event>
<event>
12    4  0.4320235E-008  0.1859870E+04  0.7818608E-02  0.8675094E-01
         -2   -1    0    0    0  501 -0.00000000000E+00  0.00000000000E+00  0.10951427094E+04  0.10951427094E+04  0.00000000000E+00 0.  1.
          1   -1    0    0  501    0  0.00000000000E+00 -0.00000000000E+00 -0.78964932585E+03  0.78964932585E+03  0.00000000000E+00 0. -1.
        -24    2    1    2    0    0  0.28174657460E+03 -0.52750718551E+03  0.51893975723E+03  0.79579438370E+03  0.79657180598E+02 0.  0.
        254    2    1    2    0    0 -0.28174657460E+03  0.52750718551E+03 -0.21344637363E+03  0.10889976516E+04  0.88470987770E+03 0.  0.
         23    2    4    4    0    0 -0.56821540494E+03  0.46706827127E+03 -0.55626286254E+02  0.74348112512E+03  0.92996684048E+02 0.  0.
         23    2    4    4    0    0  0.28646883034E+03  0.60438914247E+02 -0.15782008737E+03  0.34551652649E+03  0.93580109985E+02 0.  0.
          3    1    3    3  502    0  0.27526769303E+02 -0.72913919771E+02  0.37366390466E+02  0.86431532794E+02  0.00000000000E+00 0. -1.
         -4    1    3    3    0  502  0.25421980530E+03 -0.45459326574E+03  0.48157336676E+03  0.70936285090E+03  0.00000000000E+00 0.  1.
         11    1    5    5    0    0 -0.23938910937E+03  0.18428665184E+03 -0.67770518960E+02  0.30961517885E+03  0.00000000000E+00 0.  1.
        -11    1    5    5    0    0 -0.32882629557E+03  0.28278161943E+03  0.12144232706E+02  0.43386594627E+03  0.00000000000E+00 0. -1.
          1    1    6    6  503    0  0.25190500578E+03  0.62660547613E+02 -0.16825740411E+03  0.30934290068E+03  0.00000000000E+00 0. -1.
         -1    1    6    6    0  503  0.34563824562E+02 -0.22216333658E+01  0.10437316739E+02  0.36173625805E+02  0.00000000000E+00 0.  1.
<mgrwt>
<rscale>  0 0.18598696E+04</rscale>
<asrwt>0</asrwt>
<pdfrwt beam="1">  1        1 0.12148451E+00 0.18598696E+04</pdfrwt>
<pdfrwt beam="2">  1       -2 0.16848349E+00 0.18598696E+04</pdfrwt>
<totfact> 0.40553603E+00</totfact>
</mgrwt>
</event>
<event>
12    4  0.4320235E-008  0.1235959E+04  0.7818608E-02  0.9081951E-01
          1   -1    0    0  501    0  0.00000000000E+00  0.00000000000E+00  0.14639631981E+04  0.14639631981E+04  0.00000000000E+00 0. -1.
         -4   -1    0    0    0  501 -0.00000000000E+00 -0.00000000000E+00 -0.26086624694E+03  0.26086624694E+03  0.00000000000E+00 0.  1.
        -24    2    1    2    0    0  0.80555083103E+02  0.70374175001E+01  0.45893925563E+03  0.47264224065E+03  0.78910079389E+02 0.  0.
        254    2    1    2    0    0 -0.80555083103E+02 -0.70374175001E+01  0.74415769552E+03  0.12521872044E+04  0.10038244231E+04 0.  0.
         23    2    4    4    0    0 -0.36697081783E+03 -0.31715200063E+03  0.63789323397E+03  0.80638111409E+03  0.89943040746E+02 0.  0.
         23    2    4    4    0    0  0.28641573473E+03  0.31011458313E+03  0.10626446155E+03  0.44580609029E+03  0.96155637292E+02 0.  0.
          3    1    3    3  502    0  0.34463862750E+02  0.38056266614E+02  0.29782657817E+03  0.30221963524E+03  0.00000000000E+00 0. -1.
         -4    1    3    3    0  502  0.46091220353E+02 -0.31018849114E+02  0.16111267747E+03  0.17042260541E+03  0.00000000000E+00 0.  1.
         11    1    5    5    0    0 -0.32263679271E+02 -0.20376424089E+02  0.98490482214E+02  0.10562442305E+03  0.00000000000E+00 0. -1.
        -11    1    5    5    0    0 -0.33470713856E+03 -0.29677557654E+03  0.53940275176E+03  0.70075669104E+03  0.00000000000E+00 0.  1.
          3    1    6    6  503    0  0.58816798158E+02  0.28796603438E+02 -0.88412349220E+01  0.66081975985E+02  0.00000000000E+00 0. -1.
         -3    1    6    6    0  503  0.22759893657E+03  0.28131797969E+03  0.11510569647E+03  0.37972411431E+03  0.00000000000E+00 0.  1.
<mgrwt>
<rscale>  0 0.12359589E+04</rscale>
<asrwt>0</asrwt>
<pdfrwt beam="1">  1        1 0.22522510E+00 0.12359589E+04</pdfrwt>
<pdfrwt beam="2">  1       -4 0.40133270E-01 0.12359589E+04</pdfrwt>
<totfact> 0.20395283E+01</totfact>
</mgrwt>
</event>
<event>
12    4  0.4320235E-008  0.1933120E+04  0.7818608E-02  0.8638544E-01
          1   -1    0    0  501    0  0.00000000000E+00  0.00000000000E+00  0.31558750437E+04  0.31558750437E+04  0.00000000000E+00 0. -1.
         -2   -1    0    0    0  501 -0.00000000000E+00 -0.00000000000E+00 -0.29603151238E+03  0.29603151238E+03  0.00000000000E+00 0.  1.
        -24    2    1    2    0    0  0.73380645803E+03  0.91639375268E+02  0.82685876679E+03  0.11121548682E+04  0.79519416980E+02 0.  0.
        254    2    1    2    0    0 -0.73380645803E+03 -0.91639375268E+02  0.20329847645E+04  0.23397516879E+04  0.89137041418E+03 0.  0.
         23    2    4    4    0    0 -0.66226094160E+03 -0.31108975776E+02  0.20920302644E+04  0.21965427770E+04  0.93017315104E+02 0.  0.
         23    2    4    4    0    0 -0.71545516432E+02 -0.60530399493E+02 -0.59045499917E+02  0.14320891085E+03  0.90772963498E+02 0.  0.
          1    1    3    3  502    0  0.34464597658E+03  0.21099682320E+02  0.43521575121E+03  0.55555269405E+03  0.00000000000E+00 0. -1.
         -2    1    3    3    0  502  0.38916048145E+03  0.70539692949E+02  0.39164301558E+03  0.55660217414E+03  0.00000000000E+00 0.  1.
         11    1    5    5    0    0 -0.16844711198E+03 -0.22406862301E+02  0.66888455793E+03  0.69013263135E+03  0.00000000000E+00 0. -1.
        -11    1    5    5    0    0 -0.49381382961E+03 -0.87021134750E+01  0.14231457065E+04  0.15064101457E+04  0.00000000000E+00 0.  1.
          4    1    6    6  503    0 -0.29485859867E+02 -0.17878537624E+02  0.23127377078E+02  0.41520279505E+02  0.00000000000E+00 0. -1.
         -4    1    6    6    0  503 -0.42059656565E+02 -0.42651861869E+02 -0.82172876995E+02  0.10168863135E+03  0.00000000000E+00 0.  1.
<mgrwt>
<rscale>  0 0.19331202E+04</rscale>
<asrwt>0</asrwt>
<pdfrwt beam="1">  1        1 0.48551921E+00 0.19331202E+04</pdfrwt>
<pdfrwt beam="2">  1       -2 0.45543312E-01 0.19331202E+04</pdfrwt>
<totfact> 0.17238424E+00</totfact>
</mgrwt>
</event>
<event>
12    4  0.4320235E-008  0.1886976E+04  0.7818608E-02  0.8661366E-01
         -2   -1    0    0    0  501 -0.00000000000E+00  0.00000000000E+00  0.17708703197E+04  0.17708703197E+04  0.00000000000E+00 0.  1.
          1   -1    0    0  501    0  0.00000000000E+00 -0.00000000000E+00 -0.50267374751E+03  0.50267374751E+03  0.00000000000E+00 0. -1.
        -24    2    1    2    0    0 -0.40437583675E+03 -0.47429929250E+03  0.31883705934E+02  0.62896492351E+03  0.78106773594E+02 0.  0.
        254    2    1    2    0    0  0.40437583675E+03  0.47429929250E+03  0.12363128663E+04  0.16445791437E+04  0.88751981410E+03 0.  0.
         23    2    4    4    0    0  0.25132539126E+03 -0.94608408912E+02  0.13305320329E+02  0.28400999680E+03  0.91484662150E+02 0.  0.
         23    2    4    4    0    0  0.15305044549E+03  0.56890770142E+03  0.12230075459E+04  0.13605691469E+04  0.91216963894E+02 0.  0.
          1    1    3    3  502    0 -0.39719798881E+03 -0.43973177114E+03  0.25676327120E+02  0.59311849291E+03  0.00000000000E+00 0. -1.
         -2    1    3    3    0  502 -0.71778479394E+01 -0.34567521368E+02  0.62073788141E+01  0.35846430594E+02  0.00000000000E+00 0.  1.
         11    1    5    5    0    0  0.11671810874E+03 -0.38000743067E+02  0.51433284109E+02  0.13308852729E+03  0.00000000000E+00 0. -1.
        -11    1    5    5    0    0  0.13460728251E+03 -0.56607665845E+02 -0.38127963780E+02  0.15092146951E+03  0.00000000000E+00 0.  1.
          1    1    6    6  503    0  0.53653823104E+02  0.80741255809E+02  0.17108654064E+03  0.19664304593E+03  0.00000000000E+00 0. -1.
         -1    1    6    6    0  503  0.99396622387E+02  0.48816644561E+03  0.10519210053E+04  0.11639261010E+04  0.00000000000E+00 0.  1.
<mgrwt>
<rscale>  0 0.18869764E+04</rscale>
<asrwt>0</asrwt>
<pdfrwt beam="1">  1        1 0.77334424E-01 0.18869764E+04</pdfrwt>
<pdfrwt beam="2">  1       -2 0.27244158E+00 0.18869764E+04</pdfrwt>
<totfact> 0.16898138E+00</totfact>
</mgrwt>
</event>
<event>
12    4  0.4320235E-008  0.3831564E+04  0.7818608E-02  0.8039415E-01
         -2   -1    0    0    0  501 -0.00000000000E+00  0.00000000000E+00  0.93111757564E+03  0.93111757564E+03  0.00000000000E+00 0.  1.
          1   -1    0    0  501    0  0.00000000000E+00 -0.00000000000E+00 -0.39417366877E+04  0.39417366877E+04  0.00000000000E+00 0. -1.
        -24    2    1    2    0    0  0.37687706851E+03 -0.15280408709E+04 -0.29350028307E+03  0.16029896481E+04  0.80549163309E+02 0.  0.
        254    2    1    2    0    0 -0.37687706851E+03  0.15280408709E+04 -0.27171188290E+04  0.32698646152E+04  0.91232376011E+03 0.  0.
         23    2    4    4    0    0  0.19692804739E+03  0.10196333085E+04 -0.14408239204E+04  0.17783458811E+04  0.90043121630E+02 0.  0.
         23    2    4    4    0    0 -0.57380511590E+03  0.50840756245E+03 -0.12762949086E+04  0.14915187341E+04  0.89268583198E+02 0.  0.
          3    1    3    3  502    0  0.25327637116E+02 -0.49353977653E+02 -0.28490246596E+01  0.55546568333E+02  0.00000000000E+00 0. -1.
         -4    1    3    3    0  502  0.35154943140E+03 -0.14786868933E+04 -0.29065125841E+03  0.15474430797E+04  0.00000000000E+00 0.  1.
         11    1    5    5    0    0  0.80036388810E+02  0.45975958486E+03 -0.72291201956E+03  0.86045713863E+03  0.00000000000E+00 0. -1.
        -11    1    5    5    0    0  0.11689165858E+03  0.55987372360E+03 -0.71791190082E+03  0.91788874248E+03  0.00000000000E+00 0.  1.
          3    1    6    6  503    0 -0.90309680529E+02  0.10590458323E+03 -0.17990172934E+03  0.22745604271E+03  0.00000000000E+00 0. -1.
         -3    1    6    6    0  503 -0.48349543538E+03  0.40250297923E+03 -0.10963931792E+04  0.12640626914E+04  0.00000000000E+00 0.  1.
<mgrwt>
<rscale>  0 0.38315638E+04</rscale>
<asrwt>0</asrwt>
<pdfrwt beam="1">  1        1 0.60642104E+00 0.38315638E+04</pdfrwt>
<pdfrwt beam="2">  1       -2 0.14324885E+00 0.38315638E+04</pdfrwt>
<totfact> 0.25455665E-02</totfact>
</mgrwt>
</event>
<event>
12    4  0.4320235E-008  0.2138839E+04  0.7818608E-02  0.8544325E-01
          1   -1    0    0  501    0  0.00000000000E+00  0.00000000000E+00  0.26236389951E+04  0.26236389951E+04  0.00000000000E+00 0. -1.
         -2   -1    0    0    0  501 -0.00000000000E+00 -0.00000000000E+00 -0.43590545537E+03  0.43590545537E+03  0.00000000000E+00 0.  1.
        -24    2    1    2    0    0 -0.55021050397E+02  0.30728342260E+03 -0.26741735098E+03  0.41834029764E+03  0.77756975436E+02 0.  0.
        254    2    1    2    0    0  0.55021050397E+02 -0.30728342260E+03  0.24551508907E+04  0.26412041529E+04  0.92235734017E+03 0.  0.
         23    2    4    4    0    0  0.26317718945E+03 -0.51953484368E+03  0.10695564461E+04  0.12212584420E+04  0.91337309033E+02 0.  0.
         23    2    4    4    0    0 -0.20815613905E+03  0.21225142108E+03  0.13855944447E+04  0.14199457109E+04  0.89410360957E+02 0.  0.
          1    1    3    3  502    0  0.63801224919E+01  0.26938040024E+01 -0.19952410040E+02  0.21120161207E+02  0.00000000000E+00 0. -1.
         -2    1    3    3    0  502 -0.61401172889E+02  0.30458961860E+03 -0.24746494094E+03  0.39722013643E+03  0.00000000000E+00 0.  1.
         11    1    5    5    0    0  0.66310530759E+02 -0.19418477033E+03  0.44518366614E+03  0.49019721349E+03  0.00000000000E+00 0.  1.
        -11    1    5    5    0    0  0.19686665869E+03 -0.32535007336E+03  0.62437277992E+03  0.73106122852E+03  0.00000000000E+00 0. -1.
          1    1    6    6  503    0 -0.13905640170E+03  0.10109475081E+03  0.93725665736E+03  0.95289394649E+03  0.00000000000E+00 0. -1.
         -1    1    6    6    0  503 -0.69099737348E+02  0.11115667027E+03  0.44833778734E+03  0.46705176437E+03  0.00000000000E+00 0.  1.
<mgrwt>
<rscale>  0 0.21388395E+04</rscale>
<asrwt>0</asrwt>
<pdfrwt beam="1">  1        1 0.40363676E+00 0.21388395E+04</pdfrwt>
<pdfrwt beam="2">  1       -2 0.67062380E-01 0.21388395E+04</pdfrwt>
<totfact> 0.18261205E+00</totfact>
</mgrwt>
</event>
<event>
12    4  0.4320235E-008  0.1597490E+04  0.7818608E-02  0.8822092E-01
         -2   -1    0    0    0  501 -0.00000000000E+00  0.00000000000E+00  0.45832909169E+03  0.45832909169E+03  0.00000000000E+00 0.  1.
          1   -1    0    0  501    0  0.00000000000E+00 -0.00000000000E+00 -0.13919986542E+04  0.13919986542E+04  0.00000000000E+00 0. -1.
        -24    2    1    2    0    0 -0.57913756857E+02  0.58689365334E+03 -0.52217577208E+03  0.79143114490E+03  0.76795550730E+02 0.  0.
        254    2    1    2    0    0  0.57913756857E+02 -0.58689365334E+03 -0.41149379041E+03  0.10588966010E+04  0.77726231635E+03 0.  0.
         23    2    4    4    0    0  0.51015757014E+02 -0.74233616133E+03 -0.45066382965E+03  0.87435404964E+03  0.87929135588E+02 0.  0.
         23    2    4    4    0    0  0.68979998425E+01  0.15544250799E+03  0.39170039244E+02  0.18454255132E+03  0.91168555891E+02 0.  0.
          3    1    3    3  502    0 -0.54927419161E+02  0.40274174907E+03 -0.40091071537E+03  0.57091797967E+03  0.00000000000E+00 0. -1.
         -4    1    3    3    0  502 -0.29863376953E+01  0.18415190427E+03 -0.12126505671E+03  0.22051316523E+03  0.00000000000E+00 0.  1.
         11    1    5    5    0    0  0.38699667125E+01 -0.50595668497E+02 -0.59791293423E+02  0.78421279524E+02  0.00000000000E+00 0.  1.
        -11    1    5    5    0    0  0.47145790302E+02 -0.69174049283E+03 -0.39087253623E+03  0.79593277012E+03  0.00000000000E+00 0. -1.
          4    1    6    6  503    0  0.92766264889E+00  0.14502666180E+03  0.15336802374E+01  0.14503773773E+03  0.00000000000E+00 0. -1.
         -4    1    6    6    0  503  0.59703371936E+01  0.10415846192E+02  0.37636359006E+02  0.39504813597E+02  0.00000000000E+00 0.  1.
<mgrwt>
<rscale>  0 0.15974899E+04</rscale>
<asrwt>0</asrwt>
<pdfrwt beam="1">  1        1 0.21415364E+00 0.15974899E+04</pdfrwt>
<pdfrwt beam="2">  1       -2 0.70512167E-01 0.15974899E+04</pdfrwt>
<totfact> 0.11989517E+01</totfact>
</mgrwt>
</event>
<event>
12    4  0.4320235E-008  0.1574855E+04  0.7818608E-02  0.8836146E-01
          1   -1    0    0  501    0  0.00000000000E+00  0.00000000000E+00  0.98026009227E+03  0.98026009227E+03  0.00000000000E+00 0. -1.
         -2   -1    0    0    0  501 -0.00000000000E+00 -0.00000000000E+00 -0.63252794603E+03  0.63252794603E+03  0.00000000000E+00 0.  1.
        -24    2    1    2    0    0  0.48942545508E+03 -0.38125833242E+02  0.29600809218E+03  0.57883305405E+03  0.80225049587E+02 0.  0.
        254    2    1    2    0    0 -0.48942545508E+03  0.38125833242E+02  0.51724054057E+02  0.10339549842E+04  0.90851344318E+03 0.  0.
         23    2    4    4    0    0 -0.20393625887E+03 -0.10332054003E+03  0.45159233669E+03  0.51442621476E+03  0.91834417297E+02 0.  0.
         23    2    4    4    0    0 -0.28548919622E+03  0.14144637327E+03 -0.39986828263E+03  0.51952876949E+03  0.92218985059E+02 0.  0.
          3    1    3    3  502    0  0.28577984395E+03 -0.13943213336E+02  0.12678553844E+03  0.31295224103E+03  0.00000000000E+00 0. -1.
         -4    1    3    3    0  502  0.20364561113E+03 -0.24182619906E+02  0.16922255374E+03  0.26588081303E+03  0.00000000000E+00 0.  1.
         11    1    5    5    0    0  0.51586571609E+01  0.32042065833E+01  0.41477645339E+02  0.41919849074E+02  0.00000000000E+00 0. -1.
        -11    1    5    5    0    0 -0.20909491603E+03 -0.10652474661E+03  0.41011469135E+03  0.47250636568E+03  0.00000000000E+00 0.  1.
          3    1    6    6  503    0 -0.12755168331E+03  0.83479644439E+02 -0.25701200486E+03  0.29882010239E+03  0.00000000000E+00 0. -1.
         -3    1    6    6    0  503 -0.15793751290E+03  0.57966728829E+02 -0.14285627777E+03  0.22070866710E+03  0.00000000000E+00 0.  1.
<mgrwt>
<rscale>  0 0.15748548E+04</rscale>
<asrwt>0</asrwt>
<pdfrwt beam="1">  1        1 0.15080924E+00 0.15748548E+04</pdfrwt>
<pdfrwt beam="2">  1       -2 0.97311992E-01 0.15748548E+04</pdfrwt>
<totfact> 0.11643190E+01</totfact>
</mgrwt>
</event>
<event>
12    4  0.4320235E-008  0.1394266E+04  0.7818608E-02  0.8957980E-01
          1   -1    0    0  501    0  0.00000000000E+00  0.00000000000E+00  0.46848413768E+03  0.46848413768E+03  0.00000000000E+00 0. -1.
         -2   -1    0    0    0  501 -0.00000000000E+00 -0.00000000000E+00 -0.10373763902E+04  0.10373763902E+04  0.00000000000E+00 0.  1.
        -24    2    1    2    0    0  0.39754809381E+03  0.35534731683E+02 -0.18872563173E+03  0.44771993004E+03  0.74354338384E+02 0.  0.
        254    2    1    2    0    0 -0.39754809381E+03 -0.35534731683E+02 -0.38016662079E+03  0.10581405978E+04  0.90323178708E+03 0.  0.
         23    2    4    4    0    0 -0.63808783287E+03  0.11550695218E+03 -0.12534042218E+03  0.66668641779E+03  0.90898953649E+02 0.  0.
         23    2    4    4    0    0  0.24053973906E+03 -0.15104168386E+03 -0.25482619860E+03  0.39145418005E+03  0.87332853207E+02 0.  0.
          1    1    3    3  502    0  0.84495665650E+00  0.54320251083E+01 -0.10347776612E+02  0.11717394306E+02  0.00000000000E+00 0. -1.
         -2    1    3    3    0  502  0.39670313715E+03  0.30102706574E+02 -0.17837785512E+03  0.43600253573E+03  0.00000000000E+00 0.  1.
         11    1    5    5    0    0 -0.61520275436E+03  0.11817936412E+03 -0.13640073931E+03  0.64112865539E+03  0.00000000000E+00 0.  1.
        -11    1    5    5    0    0 -0.22885078512E+02 -0.26724119364E+01  0.11060317130E+02  0.25557762404E+02  0.00000000000E+00 0. -1.
          3    1    6    6  503    0  0.17291041905E+03 -0.13928583525E+03 -0.22655871680E+03  0.31721823573E+03  0.00000000000E+00 0. -1.
         -3    1    6    6    0  503  0.67629320011E+02 -0.11755848609E+02 -0.28267481801E+02  0.74235944320E+02  0.00000000000E+00 0.  1.
<mgrwt>
<rscale>  0 0.13942659E+04</rscale>
<asrwt>0</asrwt>
<pdfrwt beam="1">  1        1 0.72074483E-01 0.13942659E+04</pdfrwt>
<pdfrwt beam="2">  1       -2 0.15959637E+00 0.13942659E+04</pdfrwt>
<totfact> 0.10475262E+01</totfact>
</mgrwt>
</event>
<event>
12    4  0.4320235E-008  0.1423596E+04  0.7818608E-02  0.8936913E-01
          1   -1    0    0  501    0  0.00000000000E+00  0.00000000000E+00  0.65981934517E+03  0.65981934517E+03  0.00000000000E+00 0. -1.
         -2   -1    0    0    0  501 -0.00000000000E+00 -0.00000000000E+00 -0.76787177578E+03  0.76787177578E+03  0.00000000000E+00 0.  1.
        -24    2    1    2    0    0  0.37417813334E+03  0.33611484478E+02 -0.35734068709E+03  0.52540372144E+03  0.84957027362E+02 0.  0.
        254    2    1    2    0    0 -0.37417813334E+03 -0.33611484478E+02  0.24928825648E+03  0.90228739950E+03  0.78156183960E+03 0.  0.
         23    2    4    4    0    0 -0.44230137102E+03 -0.31941210766E+03  0.21200930697E+03  0.59229434876E+03  0.90609337272E+02 0.  0.
         23    2    4    4    0    0  0.68123237679E+02  0.28580062318E+03  0.37278949511E+02  0.30999305075E+03  0.91559814934E+02 0.  0.
          3    1    3    3  502    0  0.19572605785E+03  0.58958767273E+02 -0.17632172266E+03  0.26995217325E+03  0.00000000000E+00 0. -1.
         -4    1    3    3    0  502  0.17845207549E+03 -0.25347282796E+02 -0.18101896443E+03  0.25545154819E+03  0.00000000000E+00 0.  1.
         11    1    5    5    0    0 -0.55647959216E+01  0.55937074673E+01  0.70893114907E+01  0.10607301933E+02  0.00000000000E+00 0.  1.
        -11    1    5    5    0    0 -0.43673657510E+03 -0.32500581513E+03  0.20491999548E+03  0.58168704682E+03  0.00000000000E+00 0. -1.
          3    1    6    6  503    0  0.33150447652E+02  0.26317671674E+03  0.39982865101E+02  0.26825280225E+03  0.00000000000E+00 0. -1.
         -3    1    6    6    0  503  0.34972790027E+02  0.22623906445E+02 -0.27039155899E+01  0.41740248498E+02  0.00000000000E+00 0.  1.
<mgrwt>
<rscale>  0 0.14235964E+04</rscale>
<asrwt>0</asrwt>
<pdfrwt beam="1">  1        1 0.10151067E+00 0.14235964E+04</pdfrwt>
<pdfrwt beam="2">  1       -2 0.11813412E+00 0.14235964E+04</pdfrwt>
<totfact> 0.14005976E+01</totfact>
</mgrwt>
</event>
<event>
12    4  0.4320235E-008  0.1380881E+04  0.7818608E-02  0.8967775E-01
          1   -1    0    0  501    0  0.00000000000E+00  0.00000000000E+00  0.43761784316E+03  0.43761784316E+03  0.00000000000E+00 0. -1.
         -2   -1    0    0    0  501 -0.00000000000E+00 -0.00000000000E+00 -0.10893256836E+04  0.10893256836E+04  0.00000000000E+00 0.  1.
        -24    2    1    2    0    0 -0.37204810640E+03 -0.58300313077E+02 -0.30311157150E+03  0.48875117043E+03  0.71988622949E+02 0.  0.
        254    2    1    2    0    0  0.37204810640E+03  0.58300313077E+02 -0.34859626898E+03  0.10381923564E+04  0.90249946821E+03 0.  0.
         23    2    4    4    0    0  0.10615714201E+03 -0.25415951032E+03  0.19596565398E+03  0.35017158448E+03  0.91384930666E+02 0.  0.
         23    2    4    4    0    0  0.26589096439E+03  0.31245982339E+03 -0.54456192295E+03  0.68802077190E+03  0.92172384458E+02 0.  0.
          1    1    3    3  502    0 -0.10314944782E+03  0.95519828599E+01 -0.58542918576E+02  0.11898874854E+03  0.00000000000E+00 0. -1.
         -2    1    3    3    0  502 -0.26889865858E+03 -0.67852295937E+02 -0.24456865292E+03  0.36976242189E+03  0.00000000000E+00 0.  1.
         11    1    5    5    0    0  0.99586844002E+02 -0.25823284154E+03  0.17408839110E+03  0.32696866496E+03  0.00000000000E+00 0.  1.
        -11    1    5    5    0    0  0.65702980053E+01  0.40733312268E+01  0.21877262875E+02  0.23202919516E+02  0.00000000000E+00 0. -1.
          4    1    6    6  503    0 -0.97984051128E+00  0.32365626353E+02 -0.29171019743E+02  0.43582591129E+02  0.00000000000E+00 0. -1.
         -4    1    6    6    0  503  0.26687080490E+03  0.28009419704E+03 -0.51539090321E+03  0.64443818077E+03  0.00000000000E+00 0.  1.
<mgrwt>
<rscale>  0 0.13808814E+04</rscale>
<asrwt>0</asrwt>
<pdfrwt beam="1">  1        1 0.67325822E-01 0.13808814E+04</pdfrwt>
<pdfrwt beam="2">  1       -2 0.16758857E+00 0.13808814E+04</pdfrwt>
<totfact> 0.10054993E+01</totfact>
</mgrwt>
</event>
<event>
12    4  0.4320235E-008  0.2006836E+04  0.7818608E-02  0.8603431E-01
         -4   -1    0    0    0  501 -0.00000000000E+00  0.00000000000E+00  0.34196177718E+03  0.34196177718E+03  0.00000000000E+00 0.  1.
          3   -1    0    0  501    0  0.00000000000E+00 -0.00000000000E+00 -0.29443285559E+04  0.29443285559E+04  0.00000000000E+00 0. -1.
        -24    2    1    2    0    0 -0.37530374978E+03  0.52294179710E+02 -0.21757537241E+04  0.22098862381E+04  0.78136620602E+02 0.  0.
        254    2    1    2    0    0  0.37530374978E+03 -0.52294179710E+02 -0.42661305458E+03  0.10764040950E+04  0.91272092749E+03 0.  0.
         23    2    4    4    0    0  0.53298215483E+03 -0.34656705433E+03 -0.26151139459E+03  0.69348262184E+03  0.91385101491E+02 0.  0.
         23    2    4    4    0    0 -0.15767840505E+03  0.29427287462E+03 -0.16510165999E+03  0.38292147312E+03  0.88945445572E+02 0.  0.
          1    1    3    3  502    0 -0.11747125077E+03  0.77390640142E+01 -0.89231122515E+03  0.90004372694E+03  0.00000000000E+00 0. -1.
         -2    1    3    3    0  502 -0.25783249902E+03  0.44555115695E+02 -0.12834424990E+04  0.13098425112E+04  0.00000000000E+00 0.  1.
         11    1    5    5    0    0  0.49240983376E+03 -0.28618253999E+03 -0.23121984787E+03  0.61467919163E+03  0.00000000000E+00 0. -1.
        -11    1    5    5    0    0  0.40572321077E+02 -0.60384514345E+02 -0.30291546717E+02  0.78803430210E+02  0.00000000000E+00 0.  1.
          4    1    6    6  503    0 -0.13856183391E+03  0.17028072237E+03 -0.11499702367E+03  0.24782901702E+03  0.00000000000E+00 0. -1.
         -4    1    6    6    0  503 -0.19116571137E+02  0.12399215226E+03 -0.50104636318E+02  0.13509245610E+03  0.00000000000E+00 0.  1.
<mgrwt>
<rscale>  0 0.20068361E+04</rscale>
<asrwt>0</asrwt>
<pdfrwt beam="1">  1        3 0.45297361E+00 0.20068361E+04</pdfrwt>
<pdfrwt beam="2">  1       -4 0.52609506E-01 0.20068361E+04</pdfrwt>
<totfact> 0.43694420E-02</totfact>
</mgrwt>
</event>
<event>
12    4  0.4320235E-008  0.1633246E+04  0.7818608E-02  0.8800380E-01
          1   -1    0    0  501    0  0.00000000000E+00  0.00000000000E+00  0.20719397173E+04  0.20719397173E+04  0.00000000000E+00 0. -1.
         -2   -1    0    0    0  501 -0.00000000000E+00 -0.00000000000E+00 -0.32185922951E+03  0.32185922951E+03  0.00000000000E+00 0.  1.
        -24    2    1    2    0    0  0.22997474696E+03  0.43157092008E+03  0.99845011280E+03  0.11148197031E+04  0.82331643149E+02 0.  0.
        254    2    1    2    0    0 -0.22997474696E+03 -0.43157092008E+03  0.75163037502E+03  0.12789792437E+04  0.91197469366E+03 0.  0.
         23    2    4    4    0    0 -0.41192905845E+03 -0.39094538516E+03  0.86611827985E+03  0.10398496400E+04  0.92749964006E+02 0.  0.
         23    2    4    4    0    0  0.18195431149E+03 -0.40625534924E+02 -0.11448790483E+03  0.23912960367E+03  0.96528138064E+02 0.  0.
          1    1    3    3  502    0 -0.34779433708E+01  0.45525027594E-01  0.17188483143E+01  0.38797683109E+01  0.00000000000E+00 0. -1.
         -2    1    3    3    0  502  0.23345269033E+03  0.43152539506E+03  0.99673126449E+03  0.11109399348E+04  0.00000000000E+00 0.  1.
         11    1    5    5    0    0 -0.69347296874E+02 -0.66430011229E+02  0.21735270580E+03  0.23762195331E+03  0.00000000000E+00 0. -1.
        -11    1    5    5    0    0 -0.34258176158E+03 -0.32451537393E+03  0.64876557405E+03  0.80222768673E+03  0.00000000000E+00 0.  1.
          2    1    6    6  503    0  0.25739126538E+02  0.10417946753E+02  0.13455039811E+02  0.30855701998E+02  0.00000000000E+00 0. -1.
         -2    1    6    6    0  503  0.15621518495E+03 -0.51043481678E+02 -0.12794294464E+03  0.20827390167E+03  0.00000000000E+00 0.  1.
<mgrwt>
<rscale>  0 0.16332458E+04</rscale>
<asrwt>0</asrwt>
<pdfrwt beam="1">  1        1 0.31875995E+00 0.16332458E+04</pdfrwt>
<pdfrwt beam="2">  1       -2 0.49516806E-01 0.16332458E+04</pdfrwt>
<totfact> 0.86402886E+00</totfact>
</mgrwt>
</event>
<event>
12    4  0.4320235E-008  0.2177275E+04  0.7818608E-02  0.8527947E-01
          1   -1    0    0  501    0  0.00000000000E+00  0.00000000000E+00  0.11462104379E+04  0.11462104379E+04  0.00000000000E+00 0. -1.
         -2   -1    0    0    0  501 -0.00000000000E+00 -0.00000000000E+00 -0.10339567848E+04  0.10339567848E+04  0.00000000000E+00 0.  1.
        -24    2    1    2    0    0 -0.87249039328E+02 -0.43849767138E+03  0.84034112050E+03  0.95524914442E+03  0.80219239906E+02 0.  0.
        254    2    1    2    0    0  0.87249039328E+02  0.43849767138E+03 -0.72808746738E+03  0.12249180783E+04  0.87773591451E+03 0.  0.
         23    2    4    4    0    0 -0.16564414767E+02  0.64230606136E+03 -0.26587133728E+03  0.70145752833E+03  0.92323560178E+02 0.  0.
         23    2    4    4    0    0  0.10381345410E+03 -0.20380838998E+03 -0.46221613010E+03  0.52346054994E+03  0.89733512885E+02 0.  0.
          3    1    3    3  502    0 -0.77065604491E+02 -0.40037454577E+03  0.80460091714E+03  0.90200971179E+03  0.00000000000E+00 0. -1.
         -4    1    3    3    0  502 -0.10183434837E+02 -0.38123125609E+02  0.35740203361E+02  0.53239432637E+02  0.00000000000E+00 0.  1.
         11    1    5    5    0    0  0.13167773536E+02  0.86001235099E+02 -0.67417162750E+02  0.11006669129E+03  0.00000000000E+00 0. -1.
        -11    1    5    5    0    0 -0.29732188303E+02  0.55630482626E+03 -0.19845417453E+03  0.59139083704E+03  0.00000000000E+00 0.  1.
          4    1    6    6  503    0  0.19025922860E+02  0.49599273467E+01 -0.49061475740E+02  0.52854659413E+02  0.00000000000E+00 0. -1.
         -4    1    6    6    0  503  0.84787531235E+02 -0.20876831733E+03 -0.41315465436E+03  0.47060589052E+03  0.00000000000E+00 0.  1.
<mgrwt>
<rscale>  0 0.21772754E+04</rscale>
<asrwt>0</asrwt>
<pdfrwt beam="1">  1        1 0.17634007E+00 0.21772754E+04</pdfrwt>
<pdfrwt beam="2">  1       -2 0.15907028E+00 0.21772754E+04</pdfrwt>
<totfact> 0.24008622E+00</totfact>
</mgrwt>
</event>
<event>
12    4  0.4520737E-008  0.1398717E+04  0.7818608E-02  0.8954748E-01
         -2   -1    0    0    0  501 -0.00000000000E+00  0.00000000000E+00  0.45435544401E+03  0.45435544401E+03  0.00000000000E+00 0.  1.
          1   -1    0    0  501    0  0.00000000000E+00 -0.00000000000E+00 -0.10764754674E+04  0.10764754674E+04  0.00000000000E+00 0. -1.
        -24    2    1    2    0    0 -0.19314249083E+03  0.32016954300E+03 -0.40721045384E+03  0.55928893011E+03  0.84682912071E+02 0.  0.
        254    2    1    2    0    0  0.19314249083E+03 -0.32016954300E+03 -0.21490956950E+03  0.97154198126E+03  0.87057173182E+03 0.  0.
         23    2    4    4    0    0  0.43896871009E+03 -0.79181955305E+02  0.13141274070E+03  0.47407846226E+03  0.92291762791E+02 0.  0.
         23    2    4    4    0    0 -0.24582621925E+03 -0.24098758770E+03 -0.34632231021E+03  0.49746351899E+03  0.95001382550E+02 0.  0.
          3    1    3    3  502    0 -0.14841950124E+03  0.24497849916E+03 -0.25385535878E+03  0.38273405464E+03  0.00000000000E+00 0. -1.
         -4    1    3    3    0  502 -0.44722989591E+02  0.75191043845E+02 -0.15335509506E+03  0.17655487547E+03  0.00000000000E+00 0.  1.
         11    1    5    5    0    0  0.13083956984E+03 -0.76354505470E+01 -0.12287093688E+01  0.13106793226E+03  0.00000000000E+00 0. -1.
        -11    1    5    5    0    0  0.30812914025E+03 -0.71546504758E+02  0.13264145007E+03  0.34301053000E+03  0.00000000000E+00 0.  1.
          3    1    6    6  503    0 -0.11243296933E+03 -0.94941710680E+02 -0.85733234257E+02  0.17030939045E+03  0.00000000000E+00 0. -1.
         -3    1    6    6    0  503 -0.13339324992E+03 -0.14604587702E+03 -0.26058907595E+03  0.32715412854E+03  0.00000000000E+00 0.  1.
<mgrwt>
<rscale>  0 0.13987173E+04</rscale>
<asrwt>0</asrwt>
<pdfrwt beam="1">  1        1 0.16561161E+00 0.13987173E+04</pdfrwt>
<pdfrwt beam="2">  1       -2 0.69900838E-01 0.13987173E+04</pdfrwt>
<totfact> 0.21062140E+01</totfact>
</mgrwt>
</event>
<event>
12    4  0.4320235E-008  0.1457526E+04  0.7818608E-02  0.8913199E-01
          1   -1    0    0  501    0  0.00000000000E+00  0.00000000000E+00  0.30409643874E+04  0.30409643874E+04  0.00000000000E+00 0. -1.
         -2   -1    0    0    0  501 -0.00000000000E+00 -0.00000000000E+00 -0.17464707059E+03  0.17464707059E+03  0.00000000000E+00 0.  1.
        -24    2    1    2    0    0  0.22065663196E+03  0.36883870060E+03  0.11822317337E+04  0.12605611028E+04  0.81308581636E+02 0.  0.
        254    2    1    2    0    0 -0.22065663196E+03 -0.36883870060E+03  0.16840855831E+04  0.19550503552E+04  0.89517948132E+03 0.  0.
         23    2    4    4    0    0  0.19805952821E+03 -0.22843387818E+03  0.14194512116E+03  0.34825292453E+03  0.98600550769E+02 0.  0.
         23    2    4    4    0    0 -0.41871616017E+03 -0.14040482242E+03  0.15421404619E+04  0.16067974306E+04  0.92542108391E+02 0.  0.
          3    1    3    3  502    0  0.20730815769E+03  0.34614718585E+03  0.11512410366E+04  0.12198977297E+04  0.00000000000E+00 0. -1.
         -4    1    3    3    0  502  0.13348474278E+02  0.22691514750E+02  0.30990697078E+02  0.40663373109E+02  0.00000000000E+00 0.  1.
         11    1    5    5    0    0  0.18007707440E+03 -0.23735708065E+03  0.13319130893E+03  0.32635266390E+03  0.00000000000E+00 0. -1.
        -11    1    5    5    0    0  0.17982453801E+02  0.89232024744E+01  0.87538122342E+01  0.21900260632E+02  0.00000000000E+00 0.  1.
          1    1    6    6  503    0 -0.40081598338E+03 -0.14908549849E+03  0.15060366783E+04  0.15655754261E+04  0.00000000000E+00 0. -1.
         -1    1    6    6    0  503 -0.17900176790E+02  0.86806760661E+01  0.36103783605E+02  0.41222004520E+02  0.00000000000E+00 0.  1.
<mgrwt>
<rscale>  0 0.14575260E+04</rscale>
<asrwt>0</asrwt>
<pdfrwt beam="1">  1        1 0.46784063E+00 0.14575260E+04</pdfrwt>
<pdfrwt beam="2">  1       -2 0.26868782E-01 0.14575260E+04</pdfrwt>
<totfact> 0.60241298E+00</totfact>
</mgrwt>
</event>
<event>
12    4  0.4320235E-008  0.1412557E+04  0.7818608E-02  0.8944779E-01
          1   -1    0    0  501    0  0.00000000000E+00  0.00000000000E+00  0.74822526426E+03  0.74822526426E+03  0.00000000000E+00 0. -1.
         -2   -1    0    0    0  501 -0.00000000000E+00 -0.00000000000E+00 -0.66668364152E+03  0.66668364152E+03  0.00000000000E+00 0.  1.
        -24    2    1    2    0    0  0.90572136506E+02  0.39638124885E+03  0.96110514906E+02  0.42551985825E+03  0.80675351451E+02 0.  0.
        254    2    1    2    0    0 -0.90572136506E+02 -0.39638124885E+03 -0.14568892164E+02  0.98938904753E+03  0.90186308740E+03 0.  0.
         23    2    4    4    0    0 -0.36145228826E+03 -0.54945670751E+03 -0.70904956643E+01  0.66476561650E+03  0.96501915243E+02 0.  0.
         23    2    4    4    0    0  0.27088015175E+03  0.15307545865E+03 -0.74783964994E+01  0.32462343103E+03  0.92283762955E+02 0.  0.
          3    1    3    3  502    0  0.30723552325E+02  0.15846009987E+03  0.78685356707E+02  0.17956872021E+03  0.00000000000E+00 0. -1.
         -2    1    3    3    0  502  0.59848584181E+02  0.23792114898E+03  0.17425158200E+02  0.24595113803E+03  0.00000000000E+00 0.  1.
         11    1    5    5    0    0 -0.28485288814E+03 -0.35137172199E+03 -0.25947481376E+01  0.45233835523E+03  0.00000000000E+00 0. -1.
        -11    1    5    5    0    0 -0.76599400120E+02 -0.19808498552E+03 -0.44957475267E+01  0.21242726128E+03  0.00000000000E+00 0.  1.
          2    1    6    6  503    0  0.23206656618E+02  0.29494341874E+02  0.26227084884E+02  0.45785642897E+02  0.00000000000E+00 0.  1.
         -2    1    6    6    0  503  0.24767349513E+03  0.12358111678E+03 -0.33705481383E+02  0.27883778813E+03  0.00000000000E+00 0. -1.
<mgrwt>
<rscale>  0 0.14125573E+04</rscale>
<asrwt>0</asrwt>
<pdfrwt beam="1">  1        1 0.11511158E+00 0.14125573E+04</pdfrwt>
<pdfrwt beam="2">  1       -2 0.10256671E+00 0.14125573E+04</pdfrwt>
<totfact> 0.16308827E+01</totfact>
</mgrwt>
</event>
<event>
12    4  0.4320235E-008  0.1716995E+04  0.7818608E-02  0.8751730E-01
         -2   -1    0    0    0  501 -0.00000000000E+00  0.00000000000E+00  0.53853050294E+03  0.53853050294E+03  0.00000000000E+00 0.  1.
          1   -1    0    0  501    0  0.00000000000E+00 -0.00000000000E+00 -0.13685722158E+04  0.13685722158E+04  0.00000000000E+00 0. -1.
        -24    2    1    2    0    0  0.58523561058E+03  0.13729776751E+03 -0.13509512623E+03  0.62201763589E+03  0.85462561191E+02 0.  0.
        254    2    1    2    0    0 -0.58523561058E+03 -0.13729776751E+03 -0.69494658664E+03  0.12850850829E+04  0.89841054928E+03 0.  0.
         23    2    4    4    0    0  0.22701088067E+03 -0.29669148771E+02 -0.87573282325E+02  0.26120208103E+03  0.90239952478E+02 0.  0.
         23    2    4    4    0    0 -0.81224649126E+03 -0.10762861874E+03 -0.60737330431E+03  0.10238830018E+04  0.90032152681E+02 0.  0.
          3    1    3    3  502    0  0.50446636427E+03  0.12038571759E+03 -0.14597275114E+03  0.53878295978E+03  0.00000000000E+00 0. -1.
         -4    1    3    3    0  502  0.80769246319E+02  0.16912049918E+02  0.10877624903E+02  0.83234676109E+02  0.00000000000E+00 0.  1.
         11    1    5    5    0    0  0.78504803967E+02 -0.51144618368E+02 -0.51338149136E+02  0.10683811020E+03  0.00000000000E+00 0. -1.
        -11    1    5    5    0    0  0.14850607671E+03  0.21475469598E+02 -0.36235133189E+02  0.15436397083E+03  0.00000000000E+00 0.  1.
          3    1    6    6  503    0 -0.38703916388E+03 -0.88646348531E+02 -0.32490464539E+03  0.51305021010E+03  0.00000000000E+00 0. -1.
         -3    1    6    6    0  503 -0.42520732737E+03 -0.18982270206E+02 -0.28246865892E+03  0.51083279173E+03  0.00000000000E+00 0.  1.
<mgrwt>
<rscale>  0 0.17169949E+04</rscale>
<asrwt>0</asrwt>
<pdfrwt beam="1">  1        1 0.21054957E+00 0.17169949E+04</pdfrwt>
<pdfrwt beam="2">  1       -2 0.82850847E-01 0.17169949E+04</pdfrwt>
<totfact> 0.86086741E+00</totfact>
</mgrwt>
</event>
<event>
12    4  0.4320235E-008  0.1256310E+04  0.7818608E-02  0.9064948E-01
         -2   -1    0    0    0  501 -0.00000000000E+00  0.00000000000E+00  0.64521219743E+03  0.64521219743E+03  0.00000000000E+00 0.  1.
          1   -1    0    0  501    0  0.00000000000E+00 -0.00000000000E+00 -0.61154857028E+03  0.61154857028E+03  0.00000000000E+00 0. -1.
        -24    2    1    2    0    0 -0.13095667784E+03 -0.11829727386E+03 -0.21369011669E+03  0.28922244925E+03  0.82717970861E+02 0.  0.
        254    2    1    2    0    0  0.13095667784E+03  0.11829727386E+03  0.24735374384E+03  0.96753831846E+03  0.91858729941E+03 0.  0.
         23    2    4    4    0    0  0.47202999269E+03  0.25599483010E+03  0.78363195538E+02  0.55070738947E+03  0.93766579179E+02 0.  0.
         23    2    4    4    0    0 -0.34107331484E+03 -0.13769755624E+03  0.16899054830E+03  0.41683092899E+03  0.99491682341E+02 0.  0.
          3    1    3    3  502    0 -0.39301232072E+02 -0.91217337767E+02 -0.10988748154E+03  0.14812308446E+03  0.00000000000E+00 0. -1.
         -4    1    3    3    0  502 -0.91655445769E+02 -0.27079936088E+02 -0.10380263515E+03  0.14109936478E+03  0.00000000000E+00 0.  1.
         11    1    5    5    0    0  0.87028363430E+02  0.90429697407E+02  0.28099570023E+02  0.12861202141E+03  0.00000000000E+00 0. -1.
        -11    1    5    5    0    0  0.38500162926E+03  0.16556513269E+03  0.50263625515E+02  0.42209536807E+03  0.00000000000E+00 0.  1.
          3    1    6    6  503    0 -0.99194107275E+02 -0.46827445895E+02  0.30206603498E+01  0.10973333585E+03  0.00000000000E+00 0. -1.
         -3    1    6    6    0  503 -0.24187920757E+03 -0.90870110347E+02  0.16596988795E+03  0.30709759315E+03  0.00000000000E+00 0.  1.
<mgrwt>
<rscale>  0 0.12563098E+04</rscale>
<asrwt>0</asrwt>
<pdfrwt beam="1">  1        1 0.94084395E-01 0.12563098E+04</pdfrwt>
<pdfrwt beam="2">  1       -2 0.99263415E-01 0.12563098E+04</pdfrwt>
<totfact> 0.24160540E+01</totfact>
</mgrwt>
</event>
<event>
12    4  0.4320235E-008  0.1975780E+04  0.7818608E-02  0.8618029E-01
          1   -1    0    0  501    0  0.00000000000E+00  0.00000000000E+00  0.13309018276E+04  0.13309018276E+04  0.00000000000E+00 0. -1.
         -2   -1    0    0    0  501 -0.00000000000E+00 -0.00000000000E+00 -0.73328185915E+03  0.73328185915E+03  0.00000000000E+00 0.  1.
        -24    2    1    2    0    0 -0.41756967378E+03 -0.64395937742E+03  0.35778231440E+03  0.85083965204E+03  0.82896421887E+02 0.  0.
        254    2    1    2    0    0  0.41756967378E+03  0.64395937742E+03  0.23983765405E+03  0.12133440347E+04  0.90864378829E+03 0.  0.
         23    2    4    4    0    0  0.41356820428E+03  0.24886636201E+03 -0.27088375155E+03  0.56059562396E+03  0.88973709727E+02 0.  0.
         23    2    4    4    0    0  0.40014695076E+01  0.39509301541E+03  0.51072140559E+03  0.65274841073E+03  0.95549102561E+02 0.  0.
          3    1    3    3  502    0 -0.19699417559E+03 -0.26151104860E+03  0.18994969209E+03  0.37851766046E+03  0.00000000000E+00 0. -1.
         -4    1    3    3    0  502 -0.22057549820E+03 -0.38244832882E+03  0.16783262231E+03  0.47232199159E+03  0.00000000000E+00 0.  1.
         11    1    5    5    0    0  0.10906150982E+03  0.10855592474E+03 -0.10687497843E+03  0.18735277616E+03  0.00000000000E+00 0. -1.
        -11    1    5    5    0    0  0.30450669445E+03  0.14031043728E+03 -0.16400877312E+03  0.37324284780E+03  0.00000000000E+00 0.  1.
          2    1    6    6  503    0  0.32173859532E+02  0.35862410324E+03  0.44377160074E+03  0.57147146760E+03  0.00000000000E+00 0. -1.
         -2    1    6    6    0  503 -0.28172390024E+02  0.36468912165E+02  0.66949804854E+02  0.81276943127E+02  0.00000000000E+00 0.  1.
<mgrwt>
<rscale>  0 0.19757795E+04</rscale>
<asrwt>0</asrwt>
<pdfrwt beam="1">  1        1 0.20475413E+00 0.19757795E+04</pdfrwt>
<pdfrwt beam="2">  1       -2 0.11281259E+00 0.19757795E+04</pdfrwt>
<totfact> 0.43335872E+00</totfact>
</mgrwt>
</event>
<event>
12    4  0.4320235E-008  0.2041853E+04  0.7818608E-02  0.8587299E-01
         -2   -1    0    0    0  501 -0.00000000000E+00  0.00000000000E+00  0.15855960872E+04  0.15855960872E+04  0.00000000000E+00 0.  1.
          1   -1    0    0  501    0  0.00000000000E+00 -0.00000000000E+00 -0.65734987659E+03  0.65734987659E+03  0.00000000000E+00 0. -1.
        -24    2    1    2    0    0 -0.56425094949E+02 -0.95474624519E+00 -0.51446904088E+03  0.52390838633E+03  0.81344332109E+02 0.  0.
        254    2    1    2    0    0  0.56425094949E+02  0.95474624519E+00  0.14427152515E+04  0.17190375775E+04  0.93299420843E+03 0.  0.
         23    2    4    4    0    0  0.38482878955E+03  0.27091322357E+03  0.93372531711E+03  0.10496210981E+04  0.91511254891E+02 0.  0.
         23    2    4    4    0    0 -0.32840369460E+03 -0.26995847733E+03  0.50898993441E+03  0.66941647940E+03  0.91220082513E+02 0.  0.
          3    1    3    3  502    0 -0.43038767711E+02  0.26476841541E+02 -0.44710824769E+03  0.44995460195E+03  0.00000000000E+00 0. -1.
         -4    1    3    3    0  502 -0.13386327238E+02 -0.27431587786E+02 -0.67360793188E+02  0.73953784381E+02  0.00000000000E+00 0.  1.
         11    1    5    5    0    0  0.58789660163E+02  0.40166980128E+02  0.22609487431E+03  0.23704114120E+03  0.00000000000E+00 0.  1.
        -11    1    5    5    0    0  0.32603912939E+03  0.23074624344E+03  0.70763044281E+03  0.81257995689E+03  0.00000000000E+00 0. -1.
          3    1    6    6  503    0 -0.29737251633E+03 -0.26584849739E+03  0.44138988836E+03  0.59492089439E+03  0.00000000000E+00 0. -1.
         -3    1    6    6    0  503 -0.31031178268E+02 -0.41099799319E+01  0.67600046053E+02  0.74495585011E+02  0.00000000000E+00 0.  1.
<mgrwt>
<rscale>  0 0.20418535E+04</rscale>
<asrwt>0</asrwt>
<pdfrwt beam="1">  1        1 0.10113075E+00 0.20418535E+04</pdfrwt>
<pdfrwt beam="2">  1       -2 0.24393786E+00 0.20418535E+04</pdfrwt>
<totfact> 0.16978106E+00</totfact>
</mgrwt>
</event>
<event>
12    4  0.4405918E-008  0.2306399E+04  0.7818608E-02  0.8475403E-01
         -2   -1    0    0    0  501 -0.00000000000E+00  0.00000000000E+00  0.69228202763E+03  0.69228202763E+03  0.00000000000E+00 0.  1.
          1   -1    0    0  501    0  0.00000000000E+00 -0.00000000000E+00 -0.19209925377E+04  0.19209925377E+04  0.00000000000E+00 0. -1.
        -24    2    1    2    0    0 -0.45075171948E+03 -0.52056127975E+02  0.45561858213E+03  0.64675237015E+03  0.69378547397E+02 0.  0.
        254    2    1    2    0    0  0.45075171948E+03  0.52056127975E+02 -0.16843290922E+04  0.19665221952E+04  0.90794168328E+03 0.  0.
         23    2    4    4    0    0  0.25186053837E+03 -0.31476699470E+03 -0.28140324609E+03  0.49995217903E+03  0.90842735908E+02 0.  0.
         23    2    4    4    0    0  0.19889118111E+03  0.36682312268E+03 -0.14029258461E+04  0.14665700161E+04  0.92248454381E+02 0.  0.
          1    1    3    3  502    0 -0.62584248357E+02  0.56223176589E+01  0.36840932218E+02  0.72839912719E+02  0.00000000000E+00 0. -1.
         -2    1    3    3    0  502 -0.38816747113E+03 -0.57678445634E+02  0.41877764991E+03  0.57391245743E+03  0.00000000000E+00 0.  1.
         11    1    5    5    0    0 -0.64178724510E+01 -0.10106436842E+02 -0.11431830617E+01  0.12026471634E+02  0.00000000000E+00 0. -1.
        -11    1    5    5    0    0  0.25827841082E+03 -0.30466055786E+03 -0.28026006303E+03  0.48792570740E+03  0.00000000000E+00 0.  1.
          1    1    6    6  503    0  0.10853098798E+03  0.13433430399E+03 -0.46465665403E+03  0.49571210063E+03  0.00000000000E+00 0. -1.
         -1    1    6    6    0  503  0.90360193136E+02  0.23248881869E+03 -0.93826919208E+03  0.97085791551E+03  0.00000000000E+00 0.  1.
<mgrwt>
<rscale>  0 0.23063986E+04</rscale>
<asrwt>0</asrwt>
<pdfrwt beam="1">  1        1 0.29553731E+00 0.23063986E+04</pdfrwt>
<pdfrwt beam="2">  1       -2 0.10650493E+00 0.23063986E+04</pdfrwt>
<totfact> 0.19006278E+00</totfact>
</mgrwt>
</event>
<event>
12    4  0.4320235E-008  0.2429329E+04  0.7818608E-02  0.8428604E-01
          1   -1    0    0  501    0  0.00000000000E+00  0.00000000000E+00  0.18994171998E+04  0.18994171998E+04  0.00000000000E+00 0. -1.
         -2   -1    0    0    0  501 -0.00000000000E+00 -0.00000000000E+00 -0.77676965467E+03  0.77676965467E+03  0.00000000000E+00 0.  1.
        -24    2    1    2    0    0 -0.29267573644E+03 -0.79475233044E+03  0.12472210644E+04  0.15096476593E+04  0.78646793440E+02 0.  0.
        254    2    1    2    0    0  0.29267573644E+03  0.79475233044E+03 -0.12457351931E+03  0.11665391952E+04  0.79246752538E+03 0.  0.
         23    2    4    4    0    0 -0.19302881122E+03  0.79660149506E+02 -0.18817497750E+03  0.29498057658E+03  0.89430738674E+02 0.  0.
         23    2    4    4    0    0  0.48570454766E+03  0.71509218094E+03  0.63601458194E+02  0.87155861862E+03  0.91123791403E+02 0.  0.
          3    1    3    3  502    0 -0.13828661324E+03 -0.42049271172E+03  0.58718574339E+03  0.73533965298E+03  0.00000000000E+00 0. -1.
         -4    1    3    3    0  502 -0.15438912320E+03 -0.37425961872E+03  0.66003532102E+03  0.77430800627E+03  0.00000000000E+00 0.  1.
         11    1    5    5    0    0 -0.18410570106E+03  0.88016901407E+02 -0.14559059179E+03  0.25067609482E+03  0.00000000000E+00 0. -1.
        -11    1    5    5    0    0 -0.89231101583E+01 -0.83567519014E+01 -0.42584385714E+02  0.44304481758E+02  0.00000000000E+00 0.  1.
          1    1    6    6  503    0  0.43574525344E+03  0.58315363381E+03  0.59866053064E+02  0.73042866239E+03  0.00000000000E+00 0. -1.
         -1    1    6    6    0  503  0.49959294214E+02  0.13193854713E+03  0.37354051305E+01  0.14112995624E+03  0.00000000000E+00 0.  1.
<mgrwt>
<rscale>  0 0.24293288E+04</rscale>
<asrwt>0</asrwt>
<pdfrwt beam="1">  1        1 0.29221803E+00 0.24293288E+04</pdfrwt>
<pdfrwt beam="2">  1       -2 0.11950302E+00 0.24293288E+04</pdfrwt>
<totfact> 0.14692888E+00</totfact>
</mgrwt>
</event>
<event>
12    4  0.4320235E-008  0.1244823E+04  0.7818608E-02  0.9074503E-01
          1   -1    0    0  501    0  0.00000000000E+00  0.00000000000E+00  0.14054766086E+04  0.14054766086E+04  0.00000000000E+00 0. -1.
         -2   -1    0    0    0  501 -0.00000000000E+00 -0.00000000000E+00 -0.27563341436E+03  0.27563341436E+03  0.00000000000E+00 0.  1.
        -24    2    1    2    0    0  0.23177759103E+03  0.17148925595E+03  0.26650297577E+03  0.40061362284E+03  0.79611695749E+02 0.  0.
        254    2    1    2    0    0 -0.23177759103E+03 -0.17148925595E+03  0.86334021850E+03  0.12804964002E+04  0.90065824892E+03 0.  0.
         23    2    4    4    0    0 -0.30493244580E+03  0.25587107302E+03  0.69576245938E+03  0.80672714809E+03  0.90936731082E+02 0.  0.
         23    2    4    4    0    0  0.73154854779E+02 -0.42736032897E+03  0.16757775912E+03  0.47376925208E+03  0.91577919350E+02 0.  0.
          3    1    3    3  502    0 -0.18528878431E+01  0.72451693294E+01  0.26612990826E+02  0.27643750699E+02  0.00000000000E+00 0. -1.
         -4    1    3    3    0  502  0.23363047887E+03  0.16424408662E+03  0.23988998495E+03  0.37296987214E+03  0.00000000000E+00 0.  1.
         11    1    5    5    0    0 -0.19861933118E+02  0.55837889545E+02  0.12000273523E+03  0.13383954109E+03  0.00000000000E+00 0.  1.
        -11    1    5    5    0    0 -0.28507051269E+03  0.20003318347E+03  0.57575972415E+03  0.67288760700E+03  0.00000000000E+00 0. -1.
          3    1    6    6  503    0  0.12297698909E+02 -0.24658042129E+03  0.13120039920E+03  0.27958305083E+03  0.00000000000E+00 0. -1.
         -3    1    6    6    0  503  0.60857155870E+02 -0.18077990768E+03  0.36377359918E+02  0.19418620125E+03  0.00000000000E+00 0.  1.
<mgrwt>
<rscale>  0 0.12448234E+04</rscale>
<asrwt>0</asrwt>
<pdfrwt beam="1">  1        1 0.21622717E+00 0.12448234E+04</pdfrwt>
<pdfrwt beam="2">  1       -2 0.42405142E-01 0.12448234E+04</pdfrwt>
<totfact> 0.34737873E+01</totfact>
</mgrwt>
</event>
<event>
12    4  0.4320235E-008  0.1830414E+04  0.7818608E-02  0.8690291E-01
          1   -1    0    0  501    0  0.00000000000E+00  0.00000000000E+00  0.10188311989E+04  0.10188311989E+04  0.00000000000E+00 0. -1.
         -2   -1    0    0    0  501 -0.00000000000E+00 -0.00000000000E+00 -0.82212247048E+03  0.82212247048E+03  0.00000000000E+00 0.  1.
        -24    2    1    2    0    0 -0.15088962329E+03  0.66865867870E+03 -0.21181417284E+02  0.69032283196E+03  0.78897736819E+02 0.  0.
        254    2    1    2    0    0  0.15088962329E+03 -0.66865867870E+03  0.21789014570E+03  0.11506308374E+04  0.89811085140E+03 0.  0.
         23    2    4    4    0    0 -0.34617116496E+03 -0.21927359863E+03 -0.52801978510E+02  0.42317492601E+03  0.91507281482E+02 0.  0.
         23    2    4    4    0    0  0.49706078824E+03 -0.44938508007E+03  0.27069212421E+03  0.72745591140E+03  0.83075264269E+02 0.  0.
          3    1    3    3  502    0 -0.15903690326E+03  0.64934678915E+03 -0.15992464017E+02  0.66872995153E+03  0.00000000000E+00 0. -1.
         -4    1    3    3    0  502  0.81472799783E+01  0.19311889553E+02 -0.51889532667E+01  0.21592880427E+02  0.00000000000E+00 0.  1.
         11    1    5    5    0    0 -0.34595468069E+02 -0.50636542199E+02  0.13361125693E+02  0.62764842839E+02  0.00000000000E+00 0. -1.
        -11    1    5    5    0    0 -0.31157569689E+03 -0.16863705643E+03 -0.66163104203E+02  0.36041008317E+03  0.00000000000E+00 0.  1.
          2    1    6    6  503    0  0.14026420134E+02 -0.36303704260E+02  0.23738867670E+02  0.45587643535E+02  0.00000000000E+00 0. -1.
         -2    1    6    6    0  503  0.48303436811E+03 -0.41308137581E+03  0.24695325654E+03  0.68186826787E+03  0.00000000000E+00 0.  1.
<mgrwt>
<rscale>  0 0.18304142E+04</rscale>
<asrwt>0</asrwt>
<pdfrwt beam="1">  1        1 0.15674326E+00 0.18304142E+04</pdfrwt>
<pdfrwt beam="2">  1       -2 0.12648038E+00 0.18304142E+04</pdfrwt>
<totfact> 0.56180508E+00</totfact>
</mgrwt>
</event>
<event>
12    4  0.4320235E-008  0.2776497E+04  0.7818608E-02  0.8310602E-01
          1   -1    0    0  501    0  0.00000000000E+00  0.00000000000E+00  0.17701531307E+04  0.17701531307E+04  0.00000000000E+00 0. -1.
         -2   -1    0    0    0  501 -0.00000000000E+00 -0.00000000000E+00 -0.10887385485E+04  0.10887385485E+04  0.00000000000E+00 0.  1.
        -24    2    1    2    0    0 -0.71014206028E+03  0.10162101392E+04  0.30278951476E+03  0.12786983345E+04  0.80019670525E+02 0.  0.
        254    2    1    2    0    0  0.71014206028E+03 -0.10162101392E+04  0.37862506742E+03  0.15801933446E+04  0.90369755552E+03 0.  0.
         23    2    4    4    0    0  0.14878648597E+03 -0.57141221529E+03  0.57779442835E+03  0.83127175168E+03  0.92287515516E+02 0.  0.
         23    2    4    4    0    0  0.56135557431E+03 -0.44479792392E+03 -0.19916936093E+03  0.74892159293E+03  0.90828652389E+02 0.  0.
          3    1    3    3  502    0 -0.49746361682E+03  0.73647738447E+03  0.18258775086E+03  0.90730770671E+03  0.00000000000E+00 0. -1.
         -2    1    3    3    0  502 -0.21267844346E+03  0.27973275474E+03  0.12020176390E+03  0.37139062782E+03  0.00000000000E+00 0.  1.
         11    1    5    5    0    0  0.13137592187E+03 -0.56127724969E+03  0.56630598693E+03  0.80808059914E+03  0.00000000000E+00 0. -1.
        -11    1    5    5    0    0  0.17410564101E+02 -0.10134965595E+02  0.11488441416E+02  0.23191152539E+02  0.00000000000E+00 0.  1.
          3    1    6    6  503    0  0.52634149273E+03 -0.38611659320E+03 -0.16951352211E+03  0.67443029640E+03  0.00000000000E+00 0. -1.
         -3    1    6    6    0  503  0.35014081575E+02 -0.58681330722E+02 -0.29655838816E+02  0.74491296537E+02  0.00000000000E+00 0.  1.
<mgrwt>
<rscale>  0 0.27764970E+04</rscale>
<asrwt>0</asrwt>
<pdfrwt beam="1">  1        1 0.27233125E+00 0.27764970E+04</pdfrwt>
<pdfrwt beam="2">  1       -2 0.16749824E+00 0.27764970E+04</pdfrwt>
<totfact> 0.72273914E-01</totfact>
</mgrwt>
</event>
<event>
12    4  0.4320235E-008  0.1599934E+04  0.7818608E-02  0.8820588E-01
          1   -1    0    0  501    0  0.00000000000E+00  0.00000000000E+00  0.39370983913E+04  0.39370983913E+04  0.00000000000E+00 0. -1.
         -2   -1    0    0    0  501 -0.00000000000E+00 -0.00000000000E+00 -0.16254292323E+03  0.16254292323E+03  0.00000000000E+00 0.  1.
        -24    2    1    2    0    0  0.36121847123E+03  0.35807979940E+03  0.91404708577E+03  0.10489434965E+04  0.78105423235E+02 0.  0.
        254    2    1    2    0    0 -0.36121847123E+03 -0.35807979940E+03  0.28605083823E+04  0.30506978180E+04  0.93034888354E+03 0.  0.
         23    2    4    4    0    0 -0.33217588534E+03  0.90231935708E+02  0.22958581634E+04  0.23233448204E+04  0.92107692490E+02 0.  0.
         23    2    4    4    0    0 -0.29042585886E+02 -0.44831173511E+03  0.56465021884E+03  0.72735299758E+03  0.91573084604E+02 0.  0.
          3    1    3    3  502    0  0.12159383666E+03  0.11529356639E+03  0.23009217694E+03  0.28464025972E+03  0.00000000000E+00 0. -1.
         -4    1    3    3    0  502  0.23962463457E+03  0.24278623302E+03  0.68395490883E+03  0.76430323677E+03  0.00000000000E+00 0.  1.
         11    1    5    5    0    0 -0.14532691366E+03 -0.59653171773E+01  0.86749662978E+03  0.87960553631E+03  0.00000000000E+00 0.  1.
        -11    1    5    5    0    0 -0.18684897169E+03  0.96197252886E+02  0.14283615337E+04  0.14437392841E+04  0.00000000000E+00 0. -1.
          4    1    6    6  503    0 -0.60493045291E+02 -0.26176865409E+03  0.31219642532E+03  0.41188450417E+03  0.00000000000E+00 0. -1.
         -4    1    6    6    0  503  0.31450459405E+02 -0.18654308102E+03  0.25245379353E+03  0.31546849342E+03  0.00000000000E+00 0.  1.
<mgrwt>
<rscale>  0 0.15999344E+04</rscale>
<asrwt>0</asrwt>
<pdfrwt beam="1">  1        1 0.60570737E+00 0.15999344E+04</pdfrwt>
<pdfrwt beam="2">  1       -2 0.25006606E-01 0.15999344E+04</pdfrwt>
<totfact> 0.13363125E+00</totfact>
</mgrwt>
</event>
<event>
12    4  0.4320235E-008  0.1247700E+04  0.7818608E-02  0.9072100E-01
         -2   -1    0    0    0  501 -0.00000000000E+00  0.00000000000E+00  0.35193961838E+03  0.35193961838E+03  0.00000000000E+00 0.  1.
          1   -1    0    0  501    0  0.00000000000E+00 -0.00000000000E+00 -0.11058401862E+04  0.11058401862E+04  0.00000000000E+00 0. -1.
        -24    2    1    2    0    0 -0.19817605629E+03  0.19302064087E+03 -0.87142908605E+02  0.30070774548E+03  0.79375969798E+02 0.  0.
        254    2    1    2    0    0  0.19817605629E+03 -0.19302064087E+03 -0.66675765923E+03  0.11570720591E+04  0.90427830714E+03 0.  0.
         23    2    4    4    0    0 -0.77121673115E+01  0.30091452903E+03 -0.49654451224E+03  0.58826732839E+03  0.94302522251E+02 0.  0.
         23    2    4    4    0    0  0.20588822360E+03 -0.49393516990E+03 -0.17021314699E+03  0.56880473073E+03  0.90578107816E+02 0.  0.
          3    1    3    3  502    0 -0.24176162208E+02  0.35333101737E+02 -0.45040250591E+02  0.62141283144E+02  0.00000000000E+00 0. -1.
         -2    1    3    3    0  502 -0.17399989408E+03  0.15768753913E+03 -0.42102658013E+02  0.23856646233E+03  0.00000000000E+00 0.  1.
         11    1    5    5    0    0 -0.41057900125E+02  0.20276239996E+03 -0.27944898657E+03  0.34769250508E+03  0.00000000000E+00 0. -1.
        -11    1    5    5    0    0  0.33345732814E+02  0.98152129077E+02 -0.21709552567E+03  0.24057482330E+03  0.00000000000E+00 0.  1.
          4    1    6    6  503    0  0.13575447494E+03 -0.22134811930E+03 -0.59805421358E+02  0.26646004542E+03  0.00000000000E+00 0. -1.
         -4    1    6    6    0  503  0.70133748665E+02 -0.27258705060E+03 -0.11040772563E+03  0.30234468531E+03  0.00000000000E+00 0.  1.
<mgrwt>
<rscale>  0 0.12477002E+04</rscale>
<asrwt>0</asrwt>
<pdfrwt beam="1">  1        1 0.17012926E+00 0.12477002E+04</pdfrwt>
<pdfrwt beam="2">  1       -2 0.54144557E-01 0.12477002E+04</pdfrwt>
<totfact> 0.34864156E+01</totfact>
</mgrwt>
</event>
<event>
12    4  0.4320235E-008  0.1183254E+04  0.7818608E-02  0.9127642E-01
          1   -1    0    0  501    0  0.00000000000E+00  0.00000000000E+00  0.15778153676E+04  0.15778153676E+04  0.00000000000E+00 0. -1.
         -2   -1    0    0    0  501 -0.00000000000E+00 -0.00000000000E+00 -0.22183978568E+03  0.22183978568E+03  0.00000000000E+00 0.  1.
        -24    2    1    2    0    0  0.12655606562E+03  0.92560083266E+02  0.10627804672E+02  0.17611404639E+03  0.79494656065E+02 0.  0.
        254    2    1    2    0    0 -0.12655606562E+03 -0.92560083266E+02  0.13453477773E+04  0.16235411069E+04  0.89517667378E+03 0.  0.
         23    2    4    4    0    0  0.35195734453E+03  0.43907180002E+02  0.79810147175E+03  0.87824820110E+03  0.92477730861E+02 0.  0.
         23    2    4    4    0    0 -0.47851341015E+03 -0.13646726327E+03  0.54724630550E+03  0.74529290580E+03  0.91567455519E+02 0.  0.
          3    1    3    3  502    0  0.55325229832E+02  0.88075630842E+02  0.38741498101E+00  0.10401128734E+03  0.00000000000E+00 0. -1.
         -4    1    3    3    0  502  0.71230835792E+02  0.44844524246E+01  0.10240389691E+02  0.72102759047E+02  0.00000000000E+00 0.  1.
         11    1    5    5    0    0  0.11333908715E+03 -0.25882045813E+02  0.21654448141E+03  0.24577864310E+03  0.00000000000E+00 0.  1.
        -11    1    5    5    0    0  0.23861825738E+03  0.69789225815E+02  0.58155699034E+03  0.63246955801E+03  0.00000000000E+00 0. -1.
          1    1    6    6  503    0 -0.35777415945E+03 -0.13681154733E+03  0.44433701981E+03  0.58664736924E+03  0.00000000000E+00 0. -1.
         -1    1    6    6    0  503 -0.12073925070E+03  0.34428405737E+00  0.10290928569E+03  0.15864553656E+03  0.00000000000E+00 0.  1.
<mgrwt>
<rscale>  0 0.11832535E+04</rscale>
<asrwt>0</asrwt>
<pdfrwt beam="1">  1        1 0.24274082E+00 0.11832535E+04</pdfrwt>
<pdfrwt beam="2">  1       -2 0.34129199E-01 0.11832535E+04</pdfrwt>
<totfact> 0.40403667E+01</totfact>
</mgrwt>
</event>
<event>
12    4  0.4320235E-008  0.1705762E+04  0.7818608E-02  0.8758085E-01
         -2   -1    0    0    0  501 -0.00000000000E+00  0.00000000000E+00  0.39742328945E+03  0.39742328945E+03  0.00000000000E+00 0.  1.
          1   -1    0    0  501    0  0.00000000000E+00 -0.00000000000E+00 -0.18303046905E+04  0.18303046905E+04  0.00000000000E+00 0. -1.
        -24    2    1    2    0    0 -0.21830605043E+03 -0.13514413710E+03 -0.12436972083E+04  0.12724427836E+04  0.80040127829E+02 0.  0.
        254    2    1    2    0    0  0.21830605043E+03  0.13514413710E+03 -0.18918419265E+03  0.95528519629E+03  0.90047636174E+03 0.  0.
         23    2    4    4    0    0  0.13506234273E+03  0.25455557415E+03 -0.50891926918E+03  0.59205954515E+03  0.92169982668E+02 0.  0.
         23    2    4    4    0    0  0.83243707694E+02 -0.11941143706E+03  0.31973507652E+03  0.36322565114E+03  0.92269975159E+02 0.  0.
          3    1    3    3  502    0 -0.20424236190E+03 -0.10043263905E+03 -0.97894795001E+03  0.10050575835E+04  0.00000000000E+00 0. -1.
         -2    1    3    3    0  502 -0.14063688530E+02 -0.34711498050E+02 -0.26474925834E+03  0.26738520008E+03  0.00000000000E+00 0.  1.
         11    1    5    5    0    0  0.10463124080E+03  0.23793472780E+03 -0.48393709289E+03  0.54932298433E+03  0.00000000000E+00 0. -1.
        -11    1    5    5    0    0  0.30431101928E+02  0.16620846352E+02 -0.24982176289E+02  0.42736560814E+02  0.00000000000E+00 0.  1.
          1    1    6    6  503    0  0.78434271811E+02 -0.96822938369E+02  0.31619435905E+03  0.33986098494E+03  0.00000000000E+00 0. -1.
         -1    1    6    6    0  503  0.48094358832E+01 -0.22588498687E+02  0.35407174740E+01  0.23364666201E+02  0.00000000000E+00 0.  1.
<mgrwt>
<rscale>  0 0.17057617E+04</rscale>
<asrwt>0</asrwt>
<pdfrwt beam="1">  1        1 0.28158534E+00 0.17057617E+04</pdfrwt>
<pdfrwt beam="2">  1       -2 0.61142044E-01 0.17057617E+04</pdfrwt>
<totfact> 0.80733872E+00</totfact>
</mgrwt>
</event>
<event>
12    4  0.4320235E-008  0.1831346E+04  0.7818608E-02  0.8689805E-01
         -2   -1    0    0    0  501 -0.00000000000E+00  0.00000000000E+00  0.47409368676E+03  0.47409368676E+03  0.00000000000E+00 0.  1.
          1   -1    0    0  501    0  0.00000000000E+00 -0.00000000000E+00 -0.17685476957E+04  0.17685476957E+04  0.00000000000E+00 0. -1.
        -24    2    1    2    0    0 -0.33994126308E+03  0.53468296845E+03 -0.15897859809E+03  0.65815317521E+03  0.80283673887E+02 0.  0.
        254    2    1    2    0    0  0.33994126308E+03 -0.53468296845E+03 -0.11354754109E+04  0.15844882073E+04  0.90545708414E+03 0.  0.
         23    2    4    4    0    0 -0.29183409182E+03 -0.27935532882E+03 -0.49238409918E+03  0.64332090162E+03  0.90626400388E+02 0.  0.
         23    2    4    4    0    0  0.63177535490E+03 -0.25532763963E+03 -0.64309131168E+03  0.94116730565E+03  0.88865963373E+02 0.  0.
          1    1    3    3  502    0 -0.65714161417E+02  0.14036284802E+03 -0.10122962418E+02  0.15531437307E+03  0.00000000000E+00 0. -1.
         -2    1    3    3    0  502 -0.27422710166E+03  0.39432012042E+03 -0.14885563567E+03  0.50283880213E+03  0.00000000000E+00 0.  1.
         11    1    5    5    0    0 -0.27755101891E+03 -0.28546445409E+03 -0.46851967487E+03  0.61484567851E+03  0.00000000000E+00 0. -1.
        -11    1    5    5    0    0 -0.14283072912E+02  0.61091252694E+01 -0.23864424308E+02  0.28475223106E+02  0.00000000000E+00 0.  1.
          2    1    6    6  503    0  0.41859746914E+03 -0.19418871586E+03 -0.48038876635E+03  0.66611295241E+03  0.00000000000E+00 0. -1.
         -2    1    6    6    0  503  0.21317788576E+03 -0.61138923769E+02 -0.16270254533E+03  0.27505435324E+03  0.00000000000E+00 0.  1.
<mgrwt>
<rscale>  0 0.18313463E+04</rscale>
<asrwt>0</asrwt>
<pdfrwt beam="1">  1        1 0.27208426E+00 0.18313463E+04</pdfrwt>
<pdfrwt beam="2">  1       -2 0.72937491E-01 0.18313463E+04</pdfrwt>
<totfact> 0.60053062E+00</totfact>
</mgrwt>
</event>
<event>
12    4  0.4320235E-008  0.2024304E+04  0.7818608E-02  0.8595342E-01
          1   -1    0    0  501    0  0.00000000000E+00  0.00000000000E+00  0.20835801029E+04  0.20835801029E+04  0.00000000000E+00 0. -1.
         -2   -1    0    0    0  501 -0.00000000000E+00 -0.00000000000E+00 -0.49167837024E+03  0.49167837024E+03  0.00000000000E+00 0.  1.
        -24    2    1    2    0    0 -0.78429498456E+03  0.98298270328E+02  0.40227813534E+03  0.89049342817E+03  0.79810241710E+02 0.  0.
        254    2    1    2    0    0  0.78429498456E+03 -0.98298270328E+02  0.11896235973E+04  0.16847650449E+04  0.89355905270E+03 0.  0.
         23    2    4    4    0    0  0.56163314968E+03 -0.47827353424E+03  0.75249234927E+03  0.10576510174E+04  0.90573564656E+02 0.  0.
         23    2    4    4    0    0  0.22266183488E+03  0.37997526391E+03  0.43713124802E+03  0.62711402750E+03  0.90712631921E+02 0.  0.
          3    1    3    3  502    0 -0.43000405894E+03  0.65481989475E+02  0.26368606984E+03  0.50864695524E+03  0.00000000000E+00 0. -1.
         -4    1    3    3    0  502 -0.35429092562E+03  0.32816280854E+02  0.13859206550E+03  0.38184647293E+03  0.00000000000E+00 0.  1.
         11    1    5    5    0    0  0.10430342314E+03 -0.11328351820E+03  0.11394467722E+03  0.19156134537E+03  0.00000000000E+00 0.  1.
        -11    1    5    5    0    0  0.45732972655E+03 -0.36499001604E+03  0.63854767205E+03  0.86608967208E+03  0.00000000000E+00 0. -1.
          3    1    6    6  503    0  0.21661666327E+03  0.35945119953E+03  0.38016632393E+03  0.56626352302E+03  0.00000000000E+00 0. -1.
         -3    1    6    6    0  503  0.60451716087E+01  0.20524064378E+02  0.56964924091E+02  0.60850504477E+02  0.00000000000E+00 0.  1.
<mgrwt>
<rscale>  0 0.20243036E+04</rscale>
<asrwt>0</asrwt>
<pdfrwt beam="1">  1        1 0.32055078E+00 0.20243036E+04</pdfrwt>
<pdfrwt beam="2">  1       -2 0.75642828E-01 0.20243036E+04</pdfrwt>
<totfact> 0.33310619E+00</totfact>
</mgrwt>
</event>
<event>
12    4  0.4320235E-008  0.1200599E+04  0.7818608E-02  0.9112332E-01
         -2   -1    0    0    0  501 -0.00000000000E+00  0.00000000000E+00  0.11941349043E+03  0.11941349043E+03  0.00000000000E+00 0.  1.
          1   -1    0    0  501    0  0.00000000000E+00 -0.00000000000E+00 -0.30177448990E+04  0.30177448990E+04  0.00000000000E+00 0. -1.
        -24    2    1    2    0    0 -0.49762302185E+02 -0.14856411021E+03 -0.11663415977E+03  0.21061349500E+03  0.78784106830E+02 0.  0.
        254    2    1    2    0    0  0.49762302185E+02  0.14856411021E+03 -0.27816972488E+04  0.29265448944E+04  0.89569964469E+03 0.  0.
         23    2    4    4    0    0  0.23611118923E+03 -0.60074206460E+02 -0.25194896708E+04  0.25328985700E+04  0.91594543287E+02 0.  0.
         23    2    4    4    0    0 -0.18634888705E+03  0.20863831667E+03 -0.26220757792E+03  0.39364632441E+03  0.89155818157E+02 0.  0.
          3    1    3    3  502    0 -0.38310180820E+02 -0.54607522745E+02 -0.90486199110E+02  0.11241620757E+03  0.00000000000E+00 0. -1.
         -4    1    3    3    0  502 -0.11452121366E+02 -0.93956587468E+02 -0.26147960661E+02  0.98197287433E+02  0.00000000000E+00 0.  1.
         11    1    5    5    0    0  0.23851975101E+03 -0.62120686116E+02 -0.25165205434E+04  0.25285621006E+04  0.00000000000E+00 0.  1.
        -11    1    5    5    0    0 -0.24085617830E+01  0.20464796561E+01 -0.29691274386E+01  0.43364693694E+01  0.00000000000E+00 0. -1.
          1    1    6    6  503    0 -0.16283738711E+03  0.12691178187E+03 -0.16346869325E+03  0.26333368317E+03  0.00000000000E+00 0. -1.
         -1    1    6    6    0  503 -0.23511499936E+02  0.81726534802E+02 -0.98738884673E+02  0.13031264124E+03  0.00000000000E+00 0.  1.
<mgrwt>
<rscale>  0 0.12005989E+04</rscale>
<asrwt>0</asrwt>
<pdfrwt beam="1">  1        1 0.46426836E+00 0.12005989E+04</pdfrwt>
<pdfrwt beam="2">  1       -2 0.18371310E-01 0.12005989E+04</pdfrwt>
<totfact> 0.12669859E+01</totfact>
</mgrwt>
</event>
<event>
12    4  0.4320235E-008  0.1436462E+04  0.7818608E-02  0.8927841E-01
          1   -1    0    0  501    0  0.00000000000E+00  0.00000000000E+00  0.17747537958E+04  0.17747537958E+04  0.00000000000E+00 0. -1.
         -2   -1    0    0    0  501 -0.00000000000E+00 -0.00000000000E+00 -0.29066311829E+03  0.29066311829E+03  0.00000000000E+00 0.  1.
        -24    2    1    2    0    0  0.11051734257E+03  0.27871931710E+02  0.10017708055E+04  0.10113392670E+04  0.79192415903E+02 0.  0.
        254    2    1    2    0    0 -0.11051734257E+03 -0.27871931710E+02  0.48231987200E+03  0.10540776470E+04  0.93029903765E+03 0.  0.
         23    2    4    4    0    0 -0.30171262235E+03 -0.11045492708E+02  0.68903327941E+03  0.75758536274E+03  0.89533302819E+02 0.  0.
         23    2    4    4    0    0  0.19119527978E+03 -0.16826439002E+02 -0.20671340741E+03  0.29649228428E+03  0.91315265844E+02 0.  0.
          1    1    3    3  502    0  0.12047498706E+03  0.13415018375E+02  0.87990483533E+03  0.88821546061E+03  0.00000000000E+00 0. -1.
         -2    1    3    3    0  502 -0.99576444931E+01  0.14456913335E+02  0.12186597016E+03  0.12312380643E+03  0.00000000000E+00 0.  1.
         11    1    5    5    0    0 -0.23915115776E+03 -0.17880816124E+02  0.61680013464E+03  0.66178199276E+03  0.00000000000E+00 0. -1.
        -11    1    5    5    0    0 -0.62561464585E+02  0.68353234165E+01  0.72233144769E+02  0.95803369985E+02  0.00000000000E+00 0.  1.
          3    1    6    6  503    0  0.10295685060E+03 -0.31856163417E+02 -0.16656658922E+03  0.19839192745E+03  0.00000000000E+00 0. -1.
         -3    1    6    6    0  503  0.88238429176E+02  0.15029724415E+02 -0.40146818192E+02  0.98100356831E+02  0.00000000000E+00 0.  1.
<mgrwt>
<rscale>  0 0.14364616E+04</rscale>
<asrwt>0</asrwt>
<pdfrwt beam="1">  1        1 0.27303904E+00 0.14364616E+04</pdfrwt>
<pdfrwt beam="2">  1       -2 0.44717404E-01 0.14364616E+04</pdfrwt>
<totfact> 0.17158423E+01</totfact>
</mgrwt>
</event>
<event>
12    4  0.4320235E-008  0.1156600E+04  0.7818608E-02  0.9151716E-01
         -2   -1    0    0    0  501 -0.00000000000E+00  0.00000000000E+00  0.32393972957E+03  0.32393972957E+03  0.00000000000E+00 0.  1.
          1   -1    0    0  501    0  0.00000000000E+00 -0.00000000000E+00 -0.10323869466E+04  0.10323869466E+04  0.00000000000E+00 0. -1.
        -24    2    1    2    0    0 -0.69912165127E+02 -0.14324400092E+03  0.76797552859E+01  0.18181041546E+03  0.87117701390E+02 0.  0.
        254    2    1    2    0    0  0.69912165127E+02  0.14324400092E+03 -0.71612697234E+03  0.11745162607E+04  0.91719357369E+03 0.  0.
         23    2    4    4    0    0  0.36640992257E+03  0.30653279028E+03 -0.65931338708E+03  0.81963716471E+03  0.94299292202E+02 0.  0.
         23    2    4    4    0    0 -0.29649775744E+03 -0.16328878936E+03 -0.56813585258E+02  0.35487909604E+03  0.90206654051E+02 0.  0.
          3    1    3    3  502    0 -0.57204438087E+02 -0.24519555060E+02  0.34232093607E+01  0.62331971568E+02  0.00000000000E+00 0. -1.
         -4    1    3    3    0  502 -0.12707727040E+02 -0.11872444586E+03  0.42565459252E+01  0.11947844389E+03  0.00000000000E+00 0.  1.
         11    1    5    5    0    0  0.33538059282E+03  0.26810696335E+03 -0.53581519416E+03  0.68662901783E+03  0.00000000000E+00 0. -1.
        -11    1    5    5    0    0  0.31029329748E+02  0.38425826933E+02 -0.12349819292E+03  0.13300814688E+03  0.00000000000E+00 0.  1.
          4    1    6    6  503    0 -0.20890842080E+03 -0.12541278355E+03 -0.80392271701E+02  0.25658139431E+03  0.00000000000E+00 0. -1.
         -4    1    6    6    0  503 -0.87589336643E+02 -0.37876005809E+02  0.23578686443E+02  0.98297701723E+02  0.00000000000E+00 0.  1.
<mgrwt>
<rscale>  0 0.11566004E+04</rscale>
<asrwt>0</asrwt>
<pdfrwt beam="1">  1        1 0.15882876E+00 0.11566004E+04</pdfrwt>
<pdfrwt beam="2">  1       -2 0.49836883E-01 0.11566004E+04</pdfrwt>
<totfact> 0.47336889E+01</totfact>
</mgrwt>
</event>
<event>
12    4  0.4320235E-008  0.1290881E+04  0.7818608E-02  0.9036828E-01
          1   -1    0    0  501    0  0.00000000000E+00  0.00000000000E+00  0.25425028989E+04  0.25425028989E+04  0.00000000000E+00 0. -1.
         -2   -1    0    0    0  501 -0.00000000000E+00 -0.00000000000E+00 -0.16385173288E+03  0.16385173288E+03  0.00000000000E+00 0.  1.
        -24    2    1    2    0    0  0.18168103039E+03 -0.26332041182E+03  0.50068503996E+03  0.59962876736E+03  0.80768269263E+02 0.  0.
        254    2    1    2    0    0 -0.18168103039E+03  0.26332041182E+03  0.18779661260E+04  0.21067258644E+04  0.89955069955E+03 0.  0.
         23    2    4    4    0    0  0.25794390283E+03 -0.10172875720E+03  0.27107063608E+03  0.39848119372E+03  0.91783304328E+02 0.  0.
         23    2    4    4    0    0 -0.43962493322E+03  0.36504916902E+03  0.16068954899E+04  0.17082446707E+04  0.97240740025E+02 0.  0.
          1    1    3    3  502    0 -0.50313196551E+01 -0.29850281139E+02  0.35343041341E+02  0.46534761553E+02  0.00000000000E+00 0. -1.
         -2    1    3    3    0  502  0.18671235005E+03 -0.23347013068E+03  0.46534199862E+03  0.55309400581E+03  0.00000000000E+00 0.  1.
         11    1    5    5    0    0  0.26074931357E+03 -0.11013774087E+03  0.26494010503E+03  0.38770321864E+03  0.00000000000E+00 0. -1.
        -11    1    5    5    0    0 -0.28054107407E+01  0.84089836703E+01  0.61305310496E+01  0.10777975076E+02  0.00000000000E+00 0.  1.
          1    1    6    6  503    0 -0.39737459579E+03  0.33909773445E+03  0.15302414592E+04  0.16169516896E+04  0.00000000000E+00 0. -1.
         -1    1    6    6    0  503 -0.42250337435E+02  0.25951434573E+02  0.76654030706E+02  0.91292981073E+02  0.00000000000E+00 0.  1.
<mgrwt>
<rscale>  0 0.12908811E+04</rscale>
<asrwt>0</asrwt>
<pdfrwt beam="1">  1        1 0.39115426E+00 0.12908811E+04</pdfrwt>
<pdfrwt beam="2">  1       -2 0.25207961E-01 0.12908811E+04</pdfrwt>
<totfact> 0.15519112E+01</totfact>
</mgrwt>
</event>
<event>
12    4  0.4320235E-008  0.3954648E+04  0.7818608E-02  0.8013758E-01
          1   -1    0    0  501    0  0.00000000000E+00  0.00000000000E+00  0.18820398479E+04  0.18820398479E+04  0.00000000000E+00 0. -1.
         -2   -1    0    0    0  501 -0.00000000000E+00 -0.00000000000E+00 -0.20774325704E+04  0.20774325704E+04  0.00000000000E+00 0.  1.
        -24    2    1    2    0    0 -0.53766785692E+03 -0.67053023904E+03 -0.17582541396E+04  0.19586876827E+04  0.79386984164E+02 0.  0.
        254    2    1    2    0    0  0.53766785692E+03  0.67053023904E+03  0.15628614170E+04  0.20007847355E+04  0.90659043850E+03 0.  0.
         23    2    4    4    0    0  0.54891683724E+03  0.86473215767E+03  0.12133889792E+04  0.15906110779E+04  0.93055829785E+02 0.  0.
         23    2    4    4    0    0 -0.11248980320E+02 -0.19420191863E+03  0.34947243782E+03  0.41017365765E+03  0.90942398652E+02 0.  0.
          1    1    3    3  502    0 -0.22450008192E+03 -0.34144322985E+03 -0.81081748620E+03  0.90796958204E+03  0.00000000000E+00 0. -1.
         -2    1    3    3    0  502 -0.31316777500E+03 -0.32908700919E+03 -0.94743665337E+03  0.10507181007E+04  0.00000000000E+00 0.  1.
         11    1    5    5    0    0  0.53689575955E+03  0.86125495026E+03  0.12054382143E+04  0.15757850217E+04  0.00000000000E+00 0.  1.
        -11    1    5    5    0    0  0.12021077681E+02  0.34772074101E+01  0.79507648806E+01  0.14826056191E+02  0.00000000000E+00 0. -1.
          2    1    6    6  503    0  0.26861780497E+02 -0.39520440641E+02  0.13356137507E+03  0.14185225198E+03  0.00000000000E+00 0. -1.
         -2    1    6    6    0  503 -0.38110760817E+02 -0.15468147799E+03  0.21591106275E+03  0.26832140567E+03  0.00000000000E+00 0.  1.
<mgrwt>
<rscale>  0 0.39546483E+04</rscale>
<asrwt>0</asrwt>
<pdfrwt beam="1">  1        1 0.28954459E+00 0.39546483E+04</pdfrwt>
<pdfrwt beam="2">  1       -2 0.31960501E+00 0.39546483E+04</pdfrwt>
<totfact> 0.59556271E-02</totfact>
</mgrwt>
</event>
<event>
12    4  0.4320235E-008  0.1407535E+04  0.7818608E-02  0.8948382E-01
         -2   -1    0    0    0  501 -0.00000000000E+00  0.00000000000E+00  0.33621914987E+03  0.33621914987E+03  0.00000000000E+00 0.  1.
          1   -1    0    0  501    0  0.00000000000E+00 -0.00000000000E+00 -0.14731135976E+04  0.14731135976E+04  0.00000000000E+00 0. -1.
        -24    2    1    2    0    0  0.35992420143E+03 -0.14798045940E+03 -0.49422554459E+03  0.63440343577E+03  0.82250734061E+02 0.  0.
        254    2    1    2    0    0 -0.35992420143E+03  0.14798045940E+03 -0.64266890312E+03  0.11749293117E+04  0.90332271158E+03 0.  0.
         23    2    4    4    0    0  0.14201685069E+03  0.23851320349E+03  0.63082879987E+02  0.29933010148E+03  0.92529594095E+02 0.  0.
         23    2    4    4    0    0 -0.50194105212E+03 -0.90532744097E+02 -0.70575178311E+03  0.87559921020E+03  0.91909738230E+02 0.  0.
          1    1    3    3  502    0  0.17010075103E+02 -0.16871771904E+02 -0.66746729356E+02  0.70916325497E+02  0.00000000000E+00 0. -1.
         -2    1    3    3    0  502  0.34291412633E+03 -0.13110868749E+03 -0.42747881523E+03  0.56348711027E+03  0.00000000000E+00 0.  1.
         11    1    5    5    0    0  0.11740468549E+03  0.12328487697E+03  0.62929544596E+02  0.18150247560E+03  0.00000000000E+00 0.  1.
        -11    1    5    5    0    0  0.24612165195E+02  0.11522832652E+03  0.15333539082E+00  0.11782762588E+03  0.00000000000E+00 0. -1.
          4    1    6    6  503    0 -0.47378120320E+03 -0.10030860980E+03 -0.68645530940E+03  0.84009007702E+03  0.00000000000E+00 0. -1.
         -4    1    6    6    0  503 -0.28159848918E+02  0.97758657053E+01 -0.19296473712E+02  0.35509133179E+02  0.00000000000E+00 0.  1.
<mgrwt>
<rscale>  0 0.14075354E+04</rscale>
<asrwt>0</asrwt>
<pdfrwt beam="1">  1        1 0.22663286E+00 0.14075354E+04</pdfrwt>
<pdfrwt beam="2">  1       -2 0.51726023E-01 0.14075354E+04</pdfrwt>
<totfact> 0.20611649E+01</totfact>
</mgrwt>
</event>
<event>
12    4  0.4320235E-008  0.1631464E+04  0.7818608E-02  0.8801448E-01
          1   -1    0    0  501    0  0.00000000000E+00  0.00000000000E+00  0.91845078809E+03  0.91845078809E+03  0.00000000000E+00 0. -1.
         -2   -1    0    0    0  501 -0.00000000000E+00 -0.00000000000E+00 -0.72450096950E+03  0.72450096950E+03  0.00000000000E+00 0.  1.
        -24    2    1    2    0    0  0.73067132335E+02 -0.33222363186E+03  0.53214173879E+03  0.63548953504E+03  0.70432745142E+02 0.  0.
        254    2    1    2    0    0 -0.73067132335E+02  0.33222363186E+03 -0.33819192020E+03  0.10074622226E+04  0.88594300470E+03 0.  0.
         23    2    4    4    0    0  0.32145359859E+03  0.22159726036E+03 -0.41944602210E+03  0.58036124986E+03  0.91904586579E+02 0.  0.
         23    2    4    4    0    0 -0.39452073093E+03  0.11062637150E+03  0.81254101897E+02  0.42710097269E+03  0.89040499748E+02 0.  0.
          3    1    3    3  502    0  0.72344212160E+02 -0.31383249919E+03  0.52465552521E+03  0.61561996614E+03  0.00000000000E+00 0. -1.
         -4    1    3    3    0  502  0.72292017497E+00 -0.18391132669E+02  0.74862135855E+01  0.19869568900E+02  0.00000000000E+00 0.  1.
         11    1    5    5    0    0  0.86603667054E+02  0.98267106173E+02 -0.18278544972E+03  0.22487138531E+03  0.00000000000E+00 0. -1.
        -11    1    5    5    0    0  0.23484993154E+03  0.12333015419E+03 -0.23666057238E+03  0.35548986454E+03  0.00000000000E+00 0.  1.
          2    1    6    6  503    0 -0.26183541315E+03  0.53710587564E+02  0.91106173891E+02  0.28238793479E+03  0.00000000000E+00 0. -1.
         -2    1    6    6    0  503 -0.13268531778E+03  0.56915783937E+02 -0.98520719944E+01  0.14471303790E+03  0.00000000000E+00 0.  1.
<mgrwt>
<rscale>  0 0.16314637E+04</rscale>
<asrwt>0</asrwt>
<pdfrwt beam="1">  1        1 0.14130012E+00 0.16314637E+04</pdfrwt>
<pdfrwt beam="2">  1       -2 0.11146169E+00 0.16314637E+04</pdfrwt>
<totfact> 0.93798624E+00</totfact>
</mgrwt>
</event>
<event>
12    4  0.4320235E-008  0.1520973E+04  0.7818608E-02  0.8870625E-01
         -2   -1    0    0    0  501 -0.00000000000E+00  0.00000000000E+00  0.41086107480E+03  0.41086107480E+03  0.00000000000E+00 0.  1.
          1   -1    0    0  501    0  0.00000000000E+00 -0.00000000000E+00 -0.14076277353E+04  0.14076277353E+04  0.00000000000E+00 0. -1.
        -24    2    1    2    0    0  0.15267545436E+03 -0.11364911524E+03  0.21116076370E+03  0.29517330052E+03  0.79451201723E+02 0.  0.
        254    2    1    2    0    0 -0.15267545436E+03  0.11364911524E+03 -0.12079274242E+04  0.15233155095E+04  0.90839174577E+03 0.  0.
         23    2    4    4    0    0  0.54779693911E+02 -0.36625171588E+03 -0.64769757279E+03  0.75162841166E+03  0.91060360023E+02 0.  0.
         23    2    4    4    0    0 -0.20745514827E+03  0.47990083112E+03 -0.56022985138E+03  0.77168709788E+03  0.91110067495E+02 0.  0.
          1    1    3    3  502    0 -0.81474067769E+01 -0.15517465025E+01  0.20516283372E+01  0.85438476830E+01  0.00000000000E+00 0. -1.
         -2    1    3    3    0  502  0.16082286113E+03 -0.11209736873E+03  0.20910913537E+03  0.28662945284E+03  0.00000000000E+00 0.  1.
         11    1    5    5    0    0  0.66490963195E+02 -0.35031511045E+03 -0.63457984246E+03  0.72789649075E+03  0.00000000000E+00 0. -1.
        -11    1    5    5    0    0 -0.11711269283E+02 -0.15936605436E+02 -0.13117730331E+02  0.23731920910E+02  0.00000000000E+00 0.  1.
          3    1    6    6  503    0 -0.14077594101E+03  0.21612707900E+03 -0.29243823700E+03  0.38993448463E+03  0.00000000000E+00 0. -1.
         -3    1    6    6    0  503 -0.66679207263E+02  0.26377375212E+03 -0.26779161438E+03  0.38175261325E+03  0.00000000000E+00 0.  1.
<mgrwt>
<rscale>  0 0.15209726E+04</rscale>
<asrwt>0</asrwt>
<pdfrwt beam="1">  1        1 0.21655811E+00 0.15209726E+04</pdfrwt>
<pdfrwt beam="2">  1       -2 0.63209396E-01 0.15209726E+04</pdfrwt>
<totfact> 0.14903694E+01</totfact>
</mgrwt>
</event>
<event>
12    4  0.4320235E-008  0.3622268E+04  0.7818608E-02  0.8085410E-01
          3   -1    0    0  501    0  0.00000000000E+00  0.00000000000E+00  0.26309257713E+04  0.26309257713E+04  0.00000000000E+00 0. -1.
         -4   -1    0    0    0  501 -0.00000000000E+00 -0.00000000000E+00 -0.12467876645E+04  0.12467876645E+04  0.00000000000E+00 0.  1.
        -24    2    1    2    0    0 -0.66874430583E+03 -0.67000356061E+03 -0.85901587828E+03  0.12809160135E+04  0.81938005652E+02 0.  0.
        254    2    1    2    0    0  0.66874430583E+03  0.67000356061E+03  0.22431539851E+04  0.25967974222E+04  0.90304669517E+03 0.  0.
         23    2    4    4    0    0  0.17699791972E+03  0.76825623425E+03  0.14674697084E+04  0.16682186590E+04  0.89108047290E+02 0.  0.
         23    2    4    4    0    0  0.49174638612E+03 -0.98252673633E+02  0.77568427671E+03  0.92857876330E+03  0.95416593809E+02 0.  0.
          3    1    3    3  502    0 -0.34964382102E+03 -0.40413235206E+03 -0.46395434908E+03  0.70769159780E+03  0.00000000000E+00 0. -1.
         -4    1    3    3    0  502 -0.31910048481E+03 -0.26587120855E+03 -0.39506152920E+03  0.57322441574E+03  0.00000000000E+00 0.  1.
         11    1    5    5    0    0  0.13690469553E+03  0.55824615312E+03  0.11472169379E+04  0.12831556280E+04  0.00000000000E+00 0.  1.
        -11    1    5    5    0    0  0.40093224186E+02  0.21001008112E+03  0.32025277044E+03  0.38506303091E+03  0.00000000000E+00 0. -1.
          2    1    6    6  503    0  0.44811146363E+03 -0.11633769916E+03  0.69492009171E+03  0.83501633394E+03  0.00000000000E+00 0.  1.
         -2    1    6    6    0  503  0.43634922484E+02  0.18085025522E+02  0.80764185003E+02  0.93562429359E+02  0.00000000000E+00 0. -1.
<mgrwt>
<rscale>  0 0.36222677E+04</rscale>
<asrwt>0</asrwt>
<pdfrwt beam="1">  1        3 0.40475781E+00 0.36222677E+04</pdfrwt>
<pdfrwt beam="2">  1       -4 0.19181349E+00 0.36222677E+04</pdfrwt>
<totfact> 0.28889479E-03</totfact>
</mgrwt>
</event>
<event>
12    4  0.4320235E-008  0.3986926E+04  0.7818608E-02  0.8007189E-01
          1   -1    0    0  501    0  0.00000000000E+00  0.00000000000E+00  0.16190206586E+04  0.16190206586E+04  0.00000000000E+00 0. -1.
         -2   -1    0    0    0  501 -0.00000000000E+00 -0.00000000000E+00 -0.24545049002E+04  0.24545049002E+04  0.00000000000E+00 0.  1.
        -24    2    1    2    0    0  0.74946972754E+03  0.15846740900E+04 -0.11178139574E+04  0.20804273179E+04  0.75979851526E+02 0.  0.
        254    2    1    2    0    0 -0.74946972754E+03 -0.15846740900E+04  0.28232971586E+03  0.19930982408E+04  0.90544667714E+03 0.  0.
         23    2    4    4    0    0 -0.74031393032E+03 -0.71828316981E+03 -0.10231492441E+03  0.10405129531E+04  0.90572812369E+02 0.  0.
         23    2    4    4    0    0 -0.91557972287E+01 -0.86639092019E+03  0.38464464027E+03  0.95258528774E+03  0.93542375041E+02 0.  0.
          3    1    3    3  502    0  0.45486422077E+02  0.67075906000E+02 -0.63824144299E+02  0.10315867949E+03  0.00000000000E+00 0. -1.
         -4    1    3    3    0  502  0.70398330547E+03  0.15175981840E+04 -0.10539898131E+04  0.19772686385E+04  0.00000000000E+00 0.  1.
         11    1    5    5    0    0 -0.36498356631E+03 -0.31103215196E+03 -0.80576675181E+02  0.48625775450E+03  0.00000000000E+00 0.  1.
        -11    1    5    5    0    0 -0.37533036401E+03 -0.40725101785E+03 -0.21738249230E+02  0.55425519859E+03  0.00000000000E+00 0. -1.
          2    1    6    6  503    0 -0.49779547053E+02 -0.47385311211E+03  0.22435963052E+03  0.52664221154E+03  0.00000000000E+00 0.  1.
         -2    1    6    6    0  503  0.40623749825E+02 -0.39253780807E+03  0.16028500975E+03  0.42594307621E+03  0.00000000000E+00 0. -1.
<mgrwt>
<rscale>  0 0.39869257E+04</rscale>
<asrwt>0</asrwt>
<pdfrwt beam="1">  1        1 0.24908010E+00 0.39869257E+04</pdfrwt>
<pdfrwt beam="2">  1       -2 0.37761613E+00 0.39869257E+04</pdfrwt>
<totfact> 0.38630386E-02</totfact>
</mgrwt>
</event>
<event>
12    4  0.4320235E-008  0.2538504E+04  0.7818608E-02  0.8389395E-01
          3   -1    0    0  501    0  0.00000000000E+00  0.00000000000E+00  0.17684145843E+04  0.17684145843E+04  0.00000000000E+00 0. -1.
         -4   -1    0    0    0  501 -0.00000000000E+00 -0.00000000000E+00 -0.91098578403E+03  0.91098578403E+03  0.00000000000E+00 0.  1.
        -24    2    1    2    0    0  0.29983281526E+03 -0.34358242471E+03 -0.68828141110E+03  0.82920778577E+03  0.76848236366E+02 0.  0.
        254    2    1    2    0    0 -0.29983281526E+03  0.34358242471E+03  0.15457102113E+04  0.18501925825E+04  0.90886959204E+03 0.  0.
         23    2    4    4    0    0 -0.15694796049E+03  0.47099556194E+03  0.30261771845E+03  0.58910373244E+03  0.94848523395E+02 0.  0.
         23    2    4    4    0    0 -0.14288485477E+03 -0.12741313723E+03  0.12430924929E+04  0.12610888501E+04  0.91738501611E+02 0.  0.
          3    1    3    3  502    0  0.14156069488E+03 -0.11097015154E+03 -0.29819439465E+03  0.34824373916E+03  0.00000000000E+00 0. -1.
         -4    1    3    3    0  502  0.15827212038E+03 -0.23261227317E+03 -0.39008701645E+03  0.48096404661E+03  0.00000000000E+00 0.  1.
         11    1    5    5    0    0  0.82852554849E+01  0.84676419708E+02  0.45091567188E+02  0.96291177916E+02  0.00000000000E+00 0. -1.
        -11    1    5    5    0    0 -0.16523321598E+03  0.38631914223E+03  0.25752615126E+03  0.49281255453E+03  0.00000000000E+00 0.  1.
          3    1    6    6  503    0 -0.19107051815E+02  0.11381666646E+02  0.73092124482E+02  0.76400788124E+02  0.00000000000E+00 0. -1.
         -3    1    6    6    0  503 -0.12377780296E+03 -0.13879480387E+03  0.11700003684E+04  0.11846880620E+04  0.00000000000E+00 0.  1.
<mgrwt>
<rscale>  0 0.25385039E+04</rscale>
<asrwt>0</asrwt>
<pdfrwt beam="1">  1        3 0.27206378E+00 0.25385039E+04</pdfrwt>
<pdfrwt beam="2">  1       -4 0.14015166E+00 0.25385039E+04</pdfrwt>
<totfact> 0.40050414E-02</totfact>
</mgrwt>
</event>
<event>
12    4  0.4320235E-008  0.1393927E+04  0.7818608E-02  0.8958227E-01
         -2   -1    0    0    0  501 -0.00000000000E+00  0.00000000000E+00  0.19846574735E+03  0.19846574735E+03  0.00000000000E+00 0.  1.
          1   -1    0    0  501    0  0.00000000000E+00 -0.00000000000E+00 -0.24475649873E+04  0.24475649873E+04  0.00000000000E+00 0. -1.
        -24    2    1    2    0    0 -0.31018031103E+03  0.53592206713E+02 -0.18565682135E+03  0.37388811442E+03  0.78993144163E+02 0.  0.
        254    2    1    2    0    0  0.31018031103E+03 -0.53592206713E+02 -0.20634424186E+04  0.22721426203E+04  0.89763774529E+03 0.  0.
         23    2    4    4    0    0 -0.55465342114E+02 -0.38632951902E+03 -0.12842817483E+04  0.13451100377E+04  0.87261119698E+02 0.  0.
         23    2    4    4    0    0  0.36564565314E+03  0.33273731231E+03 -0.77916067033E+03  0.92703258256E+03  0.88809888462E+02 0.  0.
          1    1    3    3  502    0 -0.16387763985E+03  0.21504742429E+02 -0.14192165192E+03  0.21785336829E+03  0.00000000000E+00 0. -1.
         -2    1    3    3    0  502 -0.14630267117E+03  0.32087464284E+02 -0.43735169429E+02  0.15603474614E+03  0.00000000000E+00 0.  1.
         11    1    5    5    0    0 -0.29419459866E+02 -0.41220180741E+02 -0.22871633117E+03  0.23425577488E+03  0.00000000000E+00 0.  1.
        -11    1    5    5    0    0 -0.26045882248E+02 -0.34510933828E+03 -0.10555654171E+04  0.11108542628E+04  0.00000000000E+00 0. -1.
          1    1    6    6  503    0  0.24473016417E+03  0.25877849085E+03 -0.60967195414E+03  0.70608714210E+03  0.00000000000E+00 0. -1.
         -1    1    6    6    0  503  0.12091548898E+03  0.73958821459E+02 -0.16948871618E+03  0.22094544046E+03  0.00000000000E+00 0.  1.
<mgrwt>
<rscale>  0 0.13939266E+04</rscale>
<asrwt>0</asrwt>
<pdfrwt beam="1">  1        1 0.37654846E+00 0.13939266E+04</pdfrwt>
<pdfrwt beam="2">  1       -2 0.30533192E-01 0.13939266E+04</pdfrwt>
<totfact> 0.12558348E+01</totfact>
</mgrwt>
</event>
<event>
12    4  0.4320235E-008  0.1436438E+04  0.7818608E-02  0.8927857E-01
         -2   -1    0    0    0  501 -0.00000000000E+00  0.00000000000E+00  0.24307515074E+03  0.24307515074E+03  0.00000000000E+00 0.  1.
          1   -1    0    0  501    0  0.00000000000E+00 -0.00000000000E+00 -0.21221346885E+04  0.21221346885E+04  0.00000000000E+00 0. -1.
        -24    2    1    2    0    0  0.28622060869E+03 -0.21027627132E+03 -0.16065625942E+03  0.39768734427E+03  0.78780981131E+02 0.  0.
        254    2    1    2    0    0 -0.28622060869E+03  0.21027627132E+03 -0.17184032784E+04  0.19675224950E+04  0.88999808658E+03 0.  0.
         23    2    4    4    0    0 -0.57379924574E+03  0.39815117244E+02 -0.12930751123E+04  0.14182622120E+04  0.92701876507E+02 0.  0.
         23    2    4    4    0    0  0.28757863705E+03  0.17046115408E+03 -0.42532816607E+03  0.54926028302E+03  0.94996484742E+02 0.  0.
          3    1    3    3  502    0  0.21531862474E+03 -0.16085407449E+03 -0.15682458276E+03  0.31117534157E+03  0.00000000000E+00 0. -1.
         -4    1    3    3    0  502  0.70901983943E+02 -0.49422196831E+02 -0.38316766620E+01  0.86512002709E+02  0.00000000000E+00 0.  1.
         11    1    5    5    0    0 -0.12598445882E+03 -0.25606929174E+02 -0.24600453998E+03  0.27757167071E+03  0.00000000000E+00 0.  1.
        -11    1    5    5    0    0 -0.44781478692E+03  0.65422046418E+02 -0.10470705723E+04  0.11406905413E+04  0.00000000000E+00 0. -1.
          1    1    6    6  503    0  0.20497160985E+03  0.13097064180E+03 -0.23580202623E+03  0.33877612878E+03  0.00000000000E+00 0. -1.
         -1    1    6    6    0  503  0.82607027200E+02  0.39490512281E+02 -0.18952613984E+03  0.21048415424E+03  0.00000000000E+00 0.  1.
<mgrwt>
<rscale>  0 0.14364376E+04</rscale>
<asrwt>0</asrwt>
<pdfrwt beam="1">  1        1 0.32648225E+00 0.14364376E+04</pdfrwt>
<pdfrwt beam="2">  1       -2 0.37396179E-01 0.14364376E+04</pdfrwt>
<totfact> 0.14186649E+01</totfact>
</mgrwt>
</event>
<event>
12    4  0.4320235E-008  0.1336691E+04  0.7818608E-02  0.9000964E-01
         -2   -1    0    0    0  501 -0.00000000000E+00  0.00000000000E+00  0.42349316758E+03  0.42349316758E+03  0.00000000000E+00 0.  1.
          1   -1    0    0  501    0  0.00000000000E+00 -0.00000000000E+00 -0.10547647328E+04  0.10547647328E+04  0.00000000000E+00 0. -1.
        -24    2    1    2    0    0  0.99146860220E+02 -0.16725802689E+03 -0.46038189284E+03  0.50699685298E+03  0.85375489605E+02 0.  0.
        254    2    1    2    0    0 -0.99146860220E+02  0.16725802689E+03 -0.17088967234E+03  0.97126104737E+03  0.93613000944E+03 0.  0.
         23    2    4    4    0    0 -0.19453504752E+03  0.31120608254E+03 -0.47730944530E+03  0.60885880093E+03  0.90507581834E+02 0.  0.
         23    2    4    4    0    0  0.95388187304E+02 -0.14394805565E+03  0.30641977296E+03  0.36240224643E+03  0.87306139275E+02 0.  0.
          3    1    3    3  502    0  0.81528201396E+02 -0.83878483735E+02 -0.33956977621E+03  0.35915189067E+03  0.00000000000E+00 0. -1.
         -4    1    3    3    0  502  0.17618658824E+02 -0.83379543159E+02 -0.12081211663E+03  0.14784496231E+03  0.00000000000E+00 0.  1.
         11    1    5    5    0    0 -0.11480824527E+03  0.17329483393E+03 -0.19670305212E+03  0.28618896443E+03  0.00000000000E+00 0. -1.
        -11    1    5    5    0    0 -0.79726802251E+02  0.13791124861E+03 -0.28060639318E+03  0.32266983650E+03  0.00000000000E+00 0.  1.
          3    1    6    6  503    0  0.56310246736E+02 -0.76724907517E+02  0.84557260415E+02  0.12730862347E+03  0.00000000000E+00 0. -1.
         -3    1    6    6    0  503  0.39077940568E+02 -0.67223148132E+02  0.22186251255E+03  0.23509362296E+03  0.00000000000E+00 0.  1.
<mgrwt>
<rscale>  0 0.13366909E+04</rscale>
<asrwt>0</asrwt>
<pdfrwt beam="1">  1        1 0.16227150E+00 0.13366909E+04</pdfrwt>
<pdfrwt beam="2">  1       -2 0.65152795E-01 0.13366909E+04</pdfrwt>
<totfact> 0.25609706E+01</totfact>
</mgrwt>
</event>
<event>
12    4  0.4320235E-008  0.2742819E+04  0.7818608E-02  0.8321244E-01
          1   -1    0    0  501    0  0.00000000000E+00  0.00000000000E+00  0.25677691354E+04  0.25677691354E+04  0.00000000000E+00 0. -1.
         -2   -1    0    0    0  501 -0.00000000000E+00 -0.00000000000E+00 -0.73245078189E+03  0.73245078189E+03  0.00000000000E+00 0.  1.
        -24    2    1    2    0    0  0.70875014418E+03 -0.56108620286E+03  0.18068496088E+04  0.20217433614E+04  0.74807864226E+02 0.  0.
        254    2    1    2    0    0 -0.70875014418E+03  0.56108620286E+03  0.28468744739E+02  0.12784765559E+04  0.90363009067E+03 0.  0.
         23    2    4    4    0    0  0.66143545439E+02 -0.15273279159E+03 -0.98392099908E+02  0.21305227291E+03  0.89487381449E+02 0.  0.
         23    2    4    4    0    0 -0.77489368962E+03  0.71381899445E+03  0.12686084465E+03  0.10654242830E+04  0.95065461264E+02 0.  0.
          3    1    3    3  502    0  0.61349554456E+03 -0.51608418562E+03  0.15954440090E+04  0.17855422862E+04  0.00000000000E+00 0. -1.
         -4    1    3    3    0  502  0.95254599617E+02 -0.45002017238E+02  0.21140559980E+03  0.23620107521E+03  0.00000000000E+00 0.  1.
         11    1    5    5    0    0  0.43517989139E+02 -0.10264831304E+02 -0.24005096902E+02  0.50748663211E+02  0.00000000000E+00 0. -1.
        -11    1    5    5    0    0  0.22625556300E+02 -0.14246796029E+03 -0.74387003006E+02  0.16230360970E+03  0.00000000000E+00 0.  1.
          1    1    6    6  503    0 -0.37380988418E+03  0.28132439004E+03  0.47082212178E+02  0.47020631285E+03  0.00000000000E+00 0. -1.
         -1    1    6    6    0  503 -0.40108380544E+03  0.43249460441E+03  0.79778632470E+02  0.59521797018E+03  0.00000000000E+00 0.  1.
<mgrwt>
<rscale>  0 0.27428194E+04</rscale>
<asrwt>0</asrwt>
<pdfrwt beam="1">  1        1 0.39504140E+00 0.27428194E+04</pdfrwt>
<pdfrwt beam="2">  1       -2 0.11268474E+00 0.27428194E+04</pdfrwt>
<totfact> 0.57597153E-01</totfact>
</mgrwt>
</event>
<event>
12    4  0.4320235E-008  0.1579060E+04  0.7818608E-02  0.8833516E-01
          1   -1    0    0  501    0  0.00000000000E+00  0.00000000000E+00  0.15290381725E+04  0.15290381725E+04  0.00000000000E+00 0. -1.
         -2   -1    0    0    0  501 -0.00000000000E+00 -0.00000000000E+00 -0.40767967646E+03  0.40767967646E+03  0.00000000000E+00 0.  1.
        -24    2    1    2    0    0  0.33696455522E+03  0.39332811958E+02 -0.12011201909E+03  0.36890540192E+03  0.81068593608E+02 0.  0.
        254    2    1    2    0    0 -0.33696455522E+03 -0.39332811958E+02  0.12414705151E+04  0.15678124470E+04  0.89537402663E+03 0.  0.
         23    2    4    4    0    0 -0.28332423822E+03  0.27069300121E+03  0.15184262730E+03  0.43000147010E+03  0.91092019150E+02 0.  0.
         23    2    4    4    0    0 -0.53640316996E+02 -0.31002581316E+03  0.10896278878E+04  0.11378109769E+04  0.91277581444E+02 0.  0.
          3    1    3    3  502    0  0.27190094049E+03  0.31435411712E+02 -0.60520091038E+02  0.28032300649E+03  0.00000000000E+00 0. -1.
         -4    1    3    3    0  502  0.65063614733E+02  0.78974002460E+01 -0.59591928051E+02  0.88582395439E+02  0.00000000000E+00 0.  1.
         11    1    5    5    0    0 -0.18783480494E+03  0.12593192727E+03  0.60978718454E+02  0.23422034146E+03  0.00000000000E+00 0. -1.
        -11    1    5    5    0    0 -0.95489433283E+02  0.14476107394E+03  0.90863908849E+02  0.19578112863E+03  0.00000000000E+00 0.  1.
          3    1    6    6  503    0 -0.74353204032E+01 -0.12665129813E+03  0.59248507060E+03  0.60591616102E+03  0.00000000000E+00 0. -1.
         -3    1    6    6    0  503 -0.46204996592E+02 -0.18337451503E+03  0.49714281722E+03  0.53189481590E+03  0.00000000000E+00 0.  1.
<mgrwt>
<rscale>  0 0.15790602E+04</rscale>
<asrwt>0</asrwt>
<pdfrwt beam="1">  1        1 0.23523664E+00 0.15790602E+04</pdfrwt>
<pdfrwt beam="2">  1       -2 0.62719951E-01 0.15790602E+04</pdfrwt>
<totfact> 0.12415361E+01</totfact>
</mgrwt>
</event>
<event>
12    4  0.4320235E-008  0.1096661E+04  0.7818608E-02  0.9208452E-01
          1   -1    0    0  501    0  0.00000000000E+00  0.00000000000E+00  0.51020718804E+03  0.51020718804E+03  0.00000000000E+00 0. -1.
         -2   -1    0    0    0  501 -0.00000000000E+00 -0.00000000000E+00 -0.58930290940E+03  0.58930290940E+03  0.00000000000E+00 0.  1.
        -24    2    1    2    0    0 -0.68483051638E+01  0.12621724397E+03 -0.96973756055E+02  0.17749432267E+03  0.78247257193E+02 0.  0.
        254    2    1    2    0    0  0.68483051638E+01 -0.12621724397E+03  0.17878034687E+02  0.92201577477E+03  0.91313513394E+03 0.  0.
         23    2    4    4    0    0 -0.81572005139E+02 -0.50601397090E+03  0.25707877824E+02  0.52178867985E+03  0.94331334499E+02 0.  0.
         23    2    4    4    0    0  0.88420310303E+02  0.37979672693E+03 -0.78298431365E+01  0.40022709492E+03  0.89759211213E+02 0.  0.
          1    1    3    3  502    0  0.13106044825E+02  0.16022660173E+02 -0.53500456455E+02  0.57365432892E+02  0.00000000000E+00 0. -1.
         -2    1    3    3    0  502 -0.19954349989E+02  0.11019458380E+03 -0.43473299601E+02  0.12012888978E+03  0.00000000000E+00 0.  1.
         11    1    5    5    0    0 -0.81953568103E+02 -0.50528269370E+03  0.16093144882E+02  0.51213863083E+03  0.00000000000E+00 0.  1.
        -11    1    5    5    0    0  0.38156296367E+00 -0.73127720781E+00  0.96147329422E+01  0.96500490257E+01  0.00000000000E+00 0. -1.
          1    1    6    6  503    0 -0.35854004649E+01 -0.28985868191E+01  0.44886162227E+01  0.64346388894E+01  0.00000000000E+00 0. -1.
         -1    1    6    6    0  503  0.92005710768E+02  0.38269531375E+03 -0.12318459359E+02  0.39379245603E+03  0.00000000000E+00 0.  1.
<mgrwt>
<rscale>  0 0.10966614E+04</rscale>
<asrwt>0</asrwt>
<pdfrwt beam="1">  1        1 0.78493414E-01 0.10966614E+04</pdfrwt>
<pdfrwt beam="2">  1       -2 0.90661986E-01 0.10966614E+04</pdfrwt>
<totfact> 0.39049567E+01</totfact>
</mgrwt>
</event>
<event>
12    4  0.4320235E-008  0.1970908E+04  0.7818608E-02  0.8620344E-01
         -4   -1    0    0    0  501 -0.00000000000E+00  0.00000000000E+00  0.83076531340E+03  0.83076531340E+03  0.00000000000E+00 0.  1.
          3   -1    0    0  501    0  0.00000000000E+00 -0.00000000000E+00 -0.11689456260E+04  0.11689456260E+04  0.00000000000E+00 0. -1.
        -24    2    1    2    0    0  0.30310592316E+03  0.32254734508E+03 -0.78504484181E+03  0.90478896861E+03  0.80235176816E+02 0.  0.
        254    2    1    2    0    0 -0.30310592316E+03 -0.32254734508E+03  0.44686452926E+03  0.10949219707E+04  0.89624562706E+03 0.  0.
         23    2    4    4    0    0 -0.27128377271E+03  0.65230956559E+02 -0.18424979415E+03  0.34707186165E+03  0.93064104136E+02 0.  0.
         23    2    4    4    0    0 -0.31822150455E+02 -0.38777830163E+03  0.63111432341E+03  0.74785010909E+03  0.97927707904E+02 0.  0.
          3    1    3    3  502    0  0.21475043767E+03  0.27165776549E+03 -0.57317052394E+03  0.66965673412E+03  0.00000000000E+00 0. -1.
         -4    1    3    3    0  502  0.88355485493E+02  0.50889579582E+02 -0.21187431787E+03  0.23513223450E+03  0.00000000000E+00 0.  1.
         11    1    5    5    0    0 -0.24532642765E+03  0.26061462901E+02 -0.16148019169E+03  0.29485608059E+03  0.00000000000E+00 0. -1.
        -11    1    5    5    0    0 -0.25957345057E+02  0.39169493658E+02 -0.22769602458E+02  0.52215781062E+02  0.00000000000E+00 0.  1.
          4    1    6    6  503    0  0.17422226566E+02 -0.24482110460E+03  0.33409954197E+03  0.41456412191E+03  0.00000000000E+00 0. -1.
         -4    1    6    6    0  503 -0.49244377021E+02 -0.14295719703E+03  0.29701478144E+03  0.33328598718E+03  0.00000000000E+00 0.  1.
<mgrwt>
<rscale>  0 0.19709079E+04</rscale>
<asrwt>0</asrwt>
<pdfrwt beam="1">  1        3 0.17983779E+00 0.19709079E+04</pdfrwt>
<pdfrwt beam="2">  1       -4 0.12781005E+00 0.19709079E+04</pdfrwt>
<totfact> 0.19166200E-01</totfact>
</mgrwt>
</event>
<event>
12    4  0.4320235E-008  0.2069658E+04  0.7818608E-02  0.8574728E-01
          1   -1    0    0  501    0  0.00000000000E+00  0.00000000000E+00  0.83710420640E+03  0.83710420640E+03  0.00000000000E+00 0. -1.
         -2   -1    0    0    0  501 -0.00000000000E+00 -0.00000000000E+00 -0.12792561941E+04  0.12792561941E+04  0.00000000000E+00 0.  1.
        -24    2    1    2    0    0  0.19831510009E+03 -0.77817086810E+03 -0.41257100449E+03  0.90688427875E+03  0.85705789917E+02 0.  0.
        254    2    1    2    0    0 -0.19831510009E+03  0.77817086810E+03 -0.29580983180E+02  0.12094761217E+04  0.90392404301E+03 0.  0.
         23    2    4    4    0    0 -0.22689011829E+03  0.63806290538E+03  0.36873394349E+03  0.77648193511E+03  0.91411582783E+02 0.  0.
         23    2    4    4    0    0  0.28575018202E+02  0.14010796272E+03 -0.39831492667E+03  0.43299418660E+03  0.91555512858E+02 0.  0.
          3    1    3    3  502    0  0.36342208555E+02 -0.27740504936E+03 -0.11696001283E+03  0.30323911709E+03  0.00000000000E+00 0. -1.
         -4    1    3    3    0  502  0.16197289153E+03 -0.50076581874E+03 -0.29561099166E+03  0.60364516166E+03  0.00000000000E+00 0.  1.
         11    1    5    5    0    0  0.58595076822E+01  0.31302393502E+02  0.29450097853E+02  0.43376052527E+02  0.00000000000E+00 0.  1.
        -11    1    5    5    0    0 -0.23274962597E+03  0.60676051187E+03  0.33928384564E+03  0.73310588258E+03  0.00000000000E+00 0. -1.
          1    1    6    6  503    0  0.34896055995E+02  0.15068002745E+03 -0.38473357329E+03  0.41465905008E+03  0.00000000000E+00 0. -1.
         -1    1    6    6    0  503 -0.63210377938E+01 -0.10572064730E+02 -0.13581353380E+02  0.18335136517E+02  0.00000000000E+00 0.  1.
<mgrwt>
<rscale>  0 0.20696577E+04</rscale>
<asrwt>0</asrwt>
<pdfrwt beam="1">  1        1 0.12878526E+00 0.20696577E+04</pdfrwt>
<pdfrwt beam="2">  1       -2 0.19680864E+00 0.20696577E+04</pdfrwt>
<totfact> 0.23160645E+00</totfact>
</mgrwt>
</event>
<event>
12    4  0.4320235E-008  0.1533344E+04  0.7818608E-02  0.8862577E-01
         -2   -1    0    0    0  501 -0.00000000000E+00  0.00000000000E+00  0.44665473359E+03  0.44665473359E+03  0.00000000000E+00 0.  1.
          1   -1    0    0  501    0  0.00000000000E+00 -0.00000000000E+00 -0.13159744883E+04  0.13159744883E+04  0.00000000000E+00 0. -1.
        -24    2    1    2    0    0 -0.10984665213E+03 -0.44280119148E+03 -0.49305257649E+03  0.67627357794E+03  0.78140430433E+02 0.  0.
        254    2    1    2    0    0  0.10984665213E+03  0.44280119148E+03 -0.37626717819E+03  0.10863556439E+04  0.91129161827E+03 0.  0.
         23    2    4    4    0    0 -0.18137876019E+03  0.59838124982E+03 -0.39053473883E+03  0.74283532862E+03  0.91260990667E+02 0.  0.
         23    2    4    4    0    0  0.29122541232E+03 -0.15558005834E+03  0.14267560637E+02  0.34352031531E+03  0.93729655961E+02 0.  0.
          1    1    3    3  502    0 -0.11479119728E+03 -0.43985421874E+03 -0.49289131668E+03  0.67051517714E+03  0.00000000000E+00 0. -1.
         -2    1    3    3    0  502  0.49445451484E+01 -0.29469727396E+01 -0.16125981867E+00  0.57584008007E+01  0.00000000000E+00 0.  1.
         11    1    5    5    0    0 -0.57065521936E+02  0.24866054090E+03 -0.20826669385E+03  0.32933805454E+03  0.00000000000E+00 0.  1.
        -11    1    5    5    0    0 -0.12431323825E+03  0.34972070892E+03 -0.18226804498E+03  0.41349727408E+03  0.00000000000E+00 0. -1.
          1    1    6    6  503    0  0.11733974465E+03 -0.68709637159E+02 -0.39948193446E+02  0.14172327992E+03  0.00000000000E+00 0. -1.
         -1    1    6    6    0  503  0.17388566767E+03 -0.86870421185E+02  0.54215754084E+02  0.20179703538E+03  0.00000000000E+00 0.  1.
<mgrwt>
<rscale>  0 0.15333444E+04</rscale>
<asrwt>0</asrwt>
<pdfrwt beam="1">  1        1 0.20245761E+00 0.15333444E+04</pdfrwt>
<pdfrwt beam="2">  1       -2 0.68716114E-01 0.15333444E+04</pdfrwt>
<totfact> 0.14432848E+01</totfact>
</mgrwt>
</event>
<event>
12    4  0.4320235E-008  0.2927620E+04  0.7818608E-02  0.8264707E-01
         -4   -1    0    0    0  501 -0.00000000000E+00  0.00000000000E+00  0.17287261770E+04  0.17287261770E+04  0.00000000000E+00 0.  1.
          3   -1    0    0  501    0  0.00000000000E+00 -0.00000000000E+00 -0.12394909374E+04  0.12394909374E+04  0.00000000000E+00 0. -1.
        -24    2    1    2    0    0  0.38580669758E+03  0.46458154610E+03 -0.97347728301E+03  0.11484563490E+04  0.81308942303E+02 0.  0.
        254    2    1    2    0    0 -0.38580669758E+03 -0.46458154610E+03  0.14627125227E+04  0.18197607655E+04  0.89850904205E+03 0.  0.
         23    2    4    4    0    0 -0.55909253115E+03 -0.30828239489E+03  0.14279652448E+04  0.15668404164E+04  0.91003608339E+02 0.  0.
         23    2    4    4    0    0  0.17328583357E+03 -0.15629915121E+03  0.34747277844E+02  0.25292034903E+03  0.91125873670E+02 0.  0.
          3    1    3    3  502    0  0.22792151166E+03  0.25310743222E+03 -0.61904981751E+03  0.70656511680E+03  0.00000000000E+00 0. -1.
         -4    1    3    3    0  502  0.15788518592E+03  0.21147411387E+03 -0.35442746550E+03  0.44189123218E+03  0.00000000000E+00 0.  1.
         11    1    5    5    0    0 -0.52105058094E+03 -0.28274298687E+03  0.13713931918E+04  0.14940403579E+04  0.00000000000E+00 0.  1.
        -11    1    5    5    0    0 -0.38041950205E+02 -0.25539408023E+02  0.56572053025E+02  0.72800058523E+02  0.00000000000E+00 0. -1.
          4    1    6    6  503    0  0.33404033932E+01 -0.32272079191E+02 -0.16469857493E+02  0.36385458579E+02  0.00000000000E+00 0. -1.
         -4    1    6    6    0  503  0.16994543018E+03 -0.12402707201E+03  0.51217135337E+02  0.21653489045E+03  0.00000000000E+00 0.  1.
<mgrwt>
<rscale>  0 0.29276205E+04</rscale>
<asrwt>0</asrwt>
<pdfrwt beam="1">  1        3 0.19069091E+00 0.29276205E+04</pdfrwt>
<pdfrwt beam="2">  1       -4 0.26595787E+00 0.29276205E+04</pdfrwt>
<totfact> 0.16590361E-02</totfact>
</mgrwt>
</event>
<event>
12    4  0.4320235E-008  0.2123997E+04  0.7818608E-02  0.8550746E-01
         -2   -1    0    0    0  501 -0.00000000000E+00  0.00000000000E+00  0.12123009175E+04  0.12123009175E+04  0.00000000000E+00 0.  1.
          1   -1    0    0  501    0  0.00000000000E+00 -0.00000000000E+00 -0.93033072341E+03  0.93033072341E+03  0.00000000000E+00 0. -1.
        -24    2    1    2    0    0 -0.36967661299E+03  0.60361964968E+03 -0.39219155607E+03  0.81310209131E+03  0.79393416424E+02 0.  0.
        254    2    1    2    0    0  0.36967661299E+03 -0.60361964968E+03  0.67416175014E+03  0.13295295496E+04  0.90118659456E+03 0.  0.
         23    2    4    4    0    0  0.31678959255E+03  0.43326240592E+02 -0.67859884716E+02  0.33952332952E+03  0.91860319300E+02 0.  0.
         23    2    4    4    0    0  0.52887020439E+02 -0.64694589027E+03  0.74202163486E+03  0.99000622007E+03  0.90444387954E+02 0.  0.
          3    1    3    3  502    0 -0.26217533070E+03  0.45457797801E+03 -0.32598864736E+03  0.61777474886E+03  0.00000000000E+00 0. -1.
         -4    1    3    3    0  502 -0.10750128229E+03  0.14904167166E+03 -0.66202908707E+02  0.19532734245E+03  0.00000000000E+00 0.  1.
         11    1    5    5    0    0  0.76530624137E+02  0.46650459679E+02  0.77334770234E+00  0.89631467051E+02  0.00000000000E+00 0.  1.
        -11    1    5    5    0    0  0.24025896841E+03 -0.33242190872E+01 -0.68633232418E+02  0.24989186247E+03  0.00000000000E+00 0. -1.
          4    1    6    6  503    0  0.61671039077E+02 -0.55085455486E+03  0.67019596923E+03  0.86971644508E+03  0.00000000000E+00 0. -1.
         -4    1    6    6    0  503 -0.87840186372E+01 -0.96091335412E+02  0.71825665631E+02  0.12028977499E+03  0.00000000000E+00 0.  1.
<mgrwt>
<rscale>  0 0.21239970E+04</rscale>
<asrwt>0</asrwt>
<pdfrwt beam="1">  1        1 0.14312780E+00 0.21239970E+04</pdfrwt>
<pdfrwt beam="2">  1       -2 0.18650783E+00 0.21239970E+04</pdfrwt>
<totfact> 0.22625037E+00</totfact>
</mgrwt>
</event>
<event>
12    4  0.4320235E-008  0.3301449E+04  0.7818608E-02  0.8162527E-01
         -2   -1    0    0    0  501 -0.00000000000E+00  0.00000000000E+00  0.18066246157E+04  0.18066246157E+04  0.00000000000E+00 0.  1.
          1   -1    0    0  501    0  0.00000000000E+00 -0.00000000000E+00 -0.15082777206E+04  0.15082777206E+04  0.00000000000E+00 0. -1.
        -24    2    1    2    0    0  0.96751353504E+02 -0.35798616624E+02  0.16736392392E+04  0.16787400768E+04  0.80359050817E+02 0.  0.
        254    2    1    2    0    0 -0.96751353504E+02  0.35798616624E+02 -0.13752923442E+04  0.16361622595E+04  0.88031559222E+03 0.  0.
         23    2    4    4    0    0  0.23651598987E+03 -0.18474670980E+03 -0.10965231760E+04  0.11406220551E+04  0.92652235762E+02 0.  0.
         23    2    4    4    0    0 -0.33326734338E+03  0.22054532642E+03 -0.27876916819E+03  0.49554020436E+03  0.90224618800E+02 0.  0.
          1    1    3    3  502    0 -0.13419558698E+02 -0.12105383877E+02  0.22673934445E+03  0.22745846917E+03  0.00000000000E+00 0. -1.
         -2    1    3    3    0  502  0.11017091220E+03 -0.23693232747E+02  0.14468998948E+04  0.14512816077E+04  0.00000000000E+00 0.  1.
         11    1    5    5    0    0  0.15185298895E+02 -0.50895786986E+02 -0.13975896820E+03  0.14951101507E+03  0.00000000000E+00 0.  1.
        -11    1    5    5    0    0  0.22133069098E+03 -0.13385092281E+03 -0.95676420783E+03  0.99111104004E+03  0.00000000000E+00 0. -1.
          4    1    6    6  503    0 -0.23944463842E+03  0.19618111843E+03 -0.18469903779E+03  0.36046428486E+03  0.00000000000E+00 0. -1.
         -4    1    6    6    0  503 -0.93822704962E+02  0.24364207989E+02 -0.94070130399E+02  0.13507591951E+03  0.00000000000E+00 0.  1.
<mgrwt>
<rscale>  0 0.33014492E+04</rscale>
<asrwt>0</asrwt>
<pdfrwt beam="1">  1        1 0.23204273E+00 0.33014492E+04</pdfrwt>
<pdfrwt beam="2">  1       -2 0.27794225E+00 0.33014492E+04</pdfrwt>
<totfact> 0.20388494E-01</totfact>
</mgrwt>
</event>
<event>
12    4  0.4320235E-008  0.1620847E+04  0.7818608E-02  0.8807842E-01
          1   -1    0    0  501    0  0.00000000000E+00  0.00000000000E+00  0.12178548712E+04  0.12178548712E+04  0.00000000000E+00 0. -1.
         -2   -1    0    0    0  501 -0.00000000000E+00 -0.00000000000E+00 -0.53929762813E+03  0.53929762813E+03  0.00000000000E+00 0.  1.
        -24    2    1    2    0    0  0.14140629912E+03 -0.50519620169E+03  0.43333798192E+03  0.68544421991E+03  0.82662134022E+02 0.  0.
        254    2    1    2    0    0 -0.14140629912E+03  0.50519620169E+03  0.24521926119E+03  0.10717082795E+04  0.90178002116E+03 0.  0.
         23    2    4    4    0    0 -0.28272078619E+03  0.65398419910E+03  0.37704247114E+03  0.81132341350E+03  0.91968911178E+02 0.  0.
         23    2    4    4    0    0  0.14131448707E+03 -0.14878799741E+03 -0.13182320996E+03  0.26038486596E+03  0.91188087537E+02 0.  0.
          3    1    3    3  502    0  0.12856765578E+03 -0.43835408924E+03  0.40900000290E+03  0.61315980954E+03  0.00000000000E+00 0. -1.
         -4    1    3    3    0  502  0.12838643334E+02 -0.66842112455E+02  0.24337979027E+02  0.72284410375E+02  0.00000000000E+00 0.  1.
         11    1    5    5    0    0 -0.13336378869E+02  0.71510091364E+01 -0.98836983244E+00  0.15164854366E+02  0.00000000000E+00 0.  1.
        -11    1    5    5    0    0 -0.26938440732E+03  0.64683318997E+03  0.37803084098E+03  0.79615855913E+03  0.00000000000E+00 0. -1.
          3    1    6    6  503    0  0.91181139611E+02 -0.14809721307E+03 -0.10938197833E+03  0.20545364908E+03  0.00000000000E+00 0. -1.
         -3    1    6    6    0  503  0.50133347460E+02 -0.69078434385E+00 -0.22441231627E+02  0.54931216877E+02  0.00000000000E+00 0.  1.
<mgrwt>
<rscale>  0 0.16208470E+04</rscale>
<asrwt>0</asrwt>
<pdfrwt beam="1">  1        1 0.18736229E+00 0.16208470E+04</pdfrwt>
<pdfrwt beam="2">  1       -2 0.82968866E-01 0.16208470E+04</pdfrwt>
<totfact> 0.11090799E+01</totfact>
</mgrwt>
</event>
<event>
12    4  0.4320235E-008  0.1467562E+04  0.7818608E-02  0.8906315E-01
         -2   -1    0    0    0  501 -0.00000000000E+00  0.00000000000E+00  0.31443163885E+03  0.31443163885E+03  0.00000000000E+00 0.  1.
          1   -1    0    0  501    0  0.00000000000E+00 -0.00000000000E+00 -0.17124055194E+04  0.17124055194E+04  0.00000000000E+00 0. -1.
        -24    2    1    2    0    0 -0.36550893793E+03  0.26635402360E+03 -0.43755519508E+03  0.63464890381E+03  0.82361597668E+02 0.  0.
        254    2    1    2    0    0  0.36550893793E+03 -0.26635402360E+03 -0.96041868550E+03  0.13921882545E+04  0.90069019916E+03 0.  0.
         23    2    4    4    0    0  0.15849023657E+03  0.99383779462E+02  0.11253522813E+03  0.23627211247E+03  0.90355093110E+02 0.  0.
         23    2    4    4    0    0  0.20701870136E+03 -0.36573780306E+03 -0.10729539136E+04  0.11559161420E+04  0.91055715346E+02 0.  0.
          3    1    3    3  502    0 -0.20014906369E+03  0.11246968506E+03 -0.26347176605E+03  0.34946594864E+03  0.00000000000E+00 0. -1.
         -4    1    3    3    0  502 -0.16535987424E+03  0.15388433854E+03 -0.17408342903E+03  0.28518295517E+03  0.00000000000E+00 0.  1.
         11    1    5    5    0    0  0.14976473779E+03  0.84774206391E+02  0.61954689035E+02  0.18290578517E+03  0.00000000000E+00 0. -1.
        -11    1    5    5    0    0  0.87254987800E+01  0.14609573070E+02  0.50580539092E+02  0.53366327297E+02  0.00000000000E+00 0.  1.
          2    1    6    6  503    0  0.16388233823E+03 -0.30788373545E+03 -0.96468662400E+03  0.10258021729E+04  0.00000000000E+00 0. -1.
         -2    1    6    6    0  503  0.43136363133E+02 -0.57854067609E+02 -0.10826728963E+03  0.13011396915E+03  0.00000000000E+00 0.  1.
<mgrwt>
<rscale>  0 0.14675619E+04</rscale>
<asrwt>0</asrwt>
<pdfrwt beam="1">  1        1 0.26344700E+00 0.14675619E+04</pdfrwt>
<pdfrwt beam="2">  1       -2 0.48374099E-01 0.14675619E+04</pdfrwt>
<totfact> 0.16107088E+01</totfact>
</mgrwt>
</event>
<event>
12    4  0.4320235E-008  0.1971434E+04  0.7818608E-02  0.8620094E-01
          1   -1    0    0  501    0  0.00000000000E+00  0.00000000000E+00  0.13372082481E+04  0.13372082481E+04  0.00000000000E+00 0. -1.
         -2   -1    0    0    0  501 -0.00000000000E+00 -0.00000000000E+00 -0.72661662076E+03  0.72661662076E+03  0.00000000000E+00 0.  1.
        -24    2    1    2    0    0 -0.17150397221E+03 -0.59389891698E+03 -0.23873869892E+03  0.66775321183E+03  0.82271802449E+02 0.  0.
        254    2    1    2    0    0  0.17150397221E+03  0.59389891698E+03  0.84933032627E+03  0.13960716570E+04  0.91952407929E+03 0.  0.
         23    2    4    4    0    0  0.28309657744E+02  0.76814105657E+03  0.85528163801E+03  0.11534420924E+04  0.89888045740E+02 0.  0.
         23    2    4    4    0    0  0.14319431447E+03 -0.17424213959E+03 -0.59513117353E+01  0.24262956461E+03  0.89267869949E+02 0.  0.
          1    1    3    3  502    0 -0.89488837380E+02 -0.20284831417E+03 -0.11319608913E+03  0.24893582541E+03  0.00000000000E+00 0. -1.
         -2    1    3    3    0  502 -0.82015134832E+02 -0.39105060281E+03 -0.12554260978E+03  0.41881738642E+03  0.00000000000E+00 0.  1.
         11    1    5    5    0    0  0.50397129510E+02  0.49265686895E+03  0.59087503628E+03  0.77096301447E+03  0.00000000000E+00 0.  1.
        -11    1    5    5    0    0 -0.22087471766E+02  0.27548418763E+03  0.26440660173E+03  0.38247907796E+03  0.00000000000E+00 0. -1.
          1    1    6    6  503    0  0.10406779196E+03 -0.16405826117E+03  0.18857991195E+02  0.19519437034E+03  0.00000000000E+00 0. -1.
         -1    1    6    6    0  503  0.39126522514E+02 -0.10183878427E+02 -0.24809302930E+02  0.47435194273E+02  0.00000000000E+00 0.  1.
<mgrwt>
<rscale>  0 0.19714337E+04</rscale>
<asrwt>0</asrwt>
<pdfrwt beam="1">  1        1 0.20572435E+00 0.19714337E+04</pdfrwt>
<pdfrwt beam="2">  1       -2 0.11178717E+00 0.19714337E+04</pdfrwt>
<totfact> 0.43871030E+00</totfact>
</mgrwt>
</event>
<event>
12    4  0.4320235E-008  0.1261485E+04  0.7818608E-02  0.9060678E-01
         -2   -1    0    0    0  501 -0.00000000000E+00  0.00000000000E+00  0.11102849818E+04  0.11102849818E+04  0.00000000000E+00 0.  1.
          1   -1    0    0  501    0  0.00000000000E+00 -0.00000000000E+00 -0.35831906628E+03  0.35831906628E+03  0.00000000000E+00 0. -1.
        -24    2    1    2    0    0 -0.13430399307E+03 -0.13290824164E+03  0.46416906260E+03  0.50753624062E+03  0.80236859463E+02 0.  0.
        254    2    1    2    0    0  0.13430399307E+03  0.13290824164E+03  0.28779685292E+03  0.96106780746E+03  0.89728598492E+03 0.  0.
         23    2    4    4    0    0  0.28981642914E+03 -0.54924211050E+02  0.52211945541E+03  0.60818402597E+03  0.10133534508E+03 0.  0.
         23    2    4    4    0    0 -0.15551243607E+03  0.18783245269E+03 -0.23432260249E+03  0.35288378149E+03  0.10077069588E+03 0.  0.
          3    1    3    3  502    0  0.26407896097E+01  0.74982077266E+01  0.96313404435E+01  0.12488378902E+02  0.00000000000E+00 0. -1.
         -4    1    3    3    0  502 -0.13694478268E+03 -0.14040644937E+03  0.45453772216E+03  0.49504786172E+03  0.00000000000E+00 0.  1.
         11    1    5    5    0    0  0.28324338352E+03 -0.59734818803E+02  0.52502297109E+03  0.59953664029E+03  0.00000000000E+00 0. -1.
        -11    1    5    5    0    0  0.65730456241E+01  0.48106077535E+01 -0.29035156752E+01  0.86473856749E+01  0.00000000000E+00 0.  1.
          1    1    6    6  503    0 -0.11904684753E+03  0.14611767076E+03 -0.22992781293E+03  0.29730342207E+03  0.00000000000E+00 0. -1.
         -1    1    6    6    0  503 -0.36465588536E+02  0.41714781927E+02 -0.43947895619E+01  0.55580359425E+02  0.00000000000E+00 0.  1.
<mgrwt>
<rscale>  0 0.12614853E+04</rscale>
<asrwt>0</asrwt>
<pdfrwt beam="1">  1        1 0.55126011E-01 0.12614853E+04</pdfrwt>
<pdfrwt beam="2">  1       -2 0.17081307E+00 0.12614853E+04</pdfrwt>
<totfact> 0.12552026E+01</totfact>
</mgrwt>
</event>
<event>
12    4  0.4320235E-008  0.3326429E+04  0.7818608E-02  0.8156203E-01
         -2   -1    0    0    0  501 -0.00000000000E+00  0.00000000000E+00  0.91211524270E+03  0.91211524270E+03  0.00000000000E+00 0.  1.
          1   -1    0    0  501    0  0.00000000000E+00 -0.00000000000E+00 -0.30328207122E+04  0.30328207122E+04  0.00000000000E+00 0. -1.
        -24    2    1    2    0    0 -0.83575824024E+03 -0.29833833394E+03 -0.25148642527E+04  0.26680109795E+04  0.79011262914E+02 0.  0.
        254    2    1    2    0    0  0.83575824024E+03  0.29833833394E+03  0.39415878323E+03  0.12769249754E+04  0.82926391981E+03 0.  0.
         23    2    4    4    0    0  0.35351668131E+03  0.17856750972E+03  0.60681171663E+03  0.73035617027E+03  0.91319639231E+02 0.  0.
         23    2    4    4    0    0  0.48224155893E+03  0.11977082423E+03 -0.21265293341E+03  0.54656880510E+03  0.81327837373E+02 0.  0.
          3    1    3    3  502    0 -0.73285974050E+03 -0.23355376927E+03 -0.21543654914E+04  0.22875579628E+04  0.00000000000E+00 0. -1.
         -4    1    3    3    0  502 -0.10289849974E+03 -0.64784564676E+02 -0.36049876130E+03  0.38045301677E+03  0.00000000000E+00 0.  1.
         11    1    5    5    0    0  0.34970141636E+03  0.18577023869E+03  0.57962199703E+03  0.70197102620E+03  0.00000000000E+00 0.  1.
        -11    1    5    5    0    0  0.38152649497E+01 -0.72027289720E+01  0.27189719609E+02  0.28385144066E+02  0.00000000000E+00 0. -1.
          1    1    6    6  503    0  0.20022336384E+03  0.11145313785E+02 -0.70226308270E+02  0.21247434626E+03  0.00000000000E+00 0. -1.
         -1    1    6    6    0  503  0.28201819509E+03  0.10862551044E+03 -0.14242662514E+03  0.33409445884E+03  0.00000000000E+00 0.  1.
<mgrwt>
<rscale>  0 0.33264287E+04</rscale>
<asrwt>0</asrwt>
<pdfrwt beam="1">  1        1 0.46658781E+00 0.33264287E+04</pdfrwt>
<pdfrwt beam="2">  1       -2 0.14032542E+00 0.33264287E+04</pdfrwt>
<totfact> 0.14703974E-01</totfact>
</mgrwt>
</event>
<event>
12    4  0.4320235E-008  0.2826594E+04  0.7818608E-02  0.8295059E-01
          1   -1    0    0  501    0  0.00000000000E+00  0.00000000000E+00  0.13563008041E+04  0.13563008041E+04  0.00000000000E+00 0. -1.
         -2   -1    0    0    0  501 -0.00000000000E+00 -0.00000000000E+00 -0.14726880232E+04  0.14726880232E+04  0.00000000000E+00 0.  1.
        -24    2    1    2    0    0 -0.51899248261E+03  0.39286787808E+03  0.10374721178E+04  0.12272944650E+04  0.78771453484E+02 0.  0.
        254    2    1    2    0    0  0.51899248261E+03 -0.39286787808E+03 -0.11538593369E+04  0.16016943623E+04  0.90018614426E+03 0.  0.
         23    2    4    4    0    0  0.32278618719E+03 -0.54249338377E+03 -0.11760099025E+04  0.13378083124E+04  0.90784336981E+02 0.  0.
         23    2    4    4    0    0  0.19620629542E+03  0.14962550569E+03  0.22150565560E+02  0.26388604996E+03  0.90887279059E+02 0.  0.
          1    1    3    3  502    0 -0.41620874157E+03  0.31840389740E+03  0.77220358510E+03  0.93322512572E+03  0.00000000000E+00 0. -1.
         -2    1    3    3    0  502 -0.10278374104E+03  0.74463980679E+02  0.26526853269E+03  0.29406933923E+03  0.00000000000E+00 0.  1.
         11    1    5    5    0    0  0.31021613010E+03 -0.46460063117E+03 -0.10414023489E+04  0.11817811329E+04  0.00000000000E+00 0. -1.
        -11    1    5    5    0    0  0.12570057086E+02 -0.77892752598E+02 -0.13460755360E+03  0.15602717945E+03  0.00000000000E+00 0.  1.
          1    1    6    6  503    0  0.15850800768E+03  0.12880402215E+03 -0.17963659020E+02  0.20503160162E+03  0.00000000000E+00 0.  1.
         -1    1    6    6    0  503  0.37698287740E+02  0.20821483547E+02  0.40114224580E+02  0.58854448339E+02  0.00000000000E+00 0. -1.
<mgrwt>
<rscale>  0 0.28265937E+04</rscale>
<asrwt>0</asrwt>
<pdfrwt beam="1">  1        1 0.20866166E+00 0.28265937E+04</pdfrwt>
<pdfrwt beam="2">  1       -2 0.22656739E+00 0.28265937E+04</pdfrwt>
<totfact> 0.56196059E-01</totfact>
</mgrwt>
</event>
<event>
12    4  0.4320235E-008  0.1725625E+04  0.7818608E-02  0.8746883E-01
         -4   -1    0    0    0  501 -0.00000000000E+00  0.00000000000E+00  0.59450612620E+03  0.59450612620E+03  0.00000000000E+00 0.  1.
          3   -1    0    0  501    0  0.00000000000E+00 -0.00000000000E+00 -0.12522076366E+04  0.12522076366E+04  0.00000000000E+00 0. -1.
        -24    2    1    2    0    0 -0.16235495402E+03 -0.34173301722E+03 -0.75242928806E+03  0.84591830333E+03  0.79292851099E+02 0.  0.
        254    2    1    2    0    0  0.16235495402E+03  0.34173301722E+03  0.94727777703E+02  0.10007954594E+04  0.92167109837E+03 0.  0.
         23    2    4    4    0    0  0.13268658658E+03 -0.29992289226E+03 -0.23423647225E+02  0.34113173809E+03  0.90899526516E+02 0.  0.
         23    2    4    4    0    0  0.29668367441E+02  0.64165590949E+03  0.11815142493E+03  0.65966372133E+03  0.92703548042E+02 0.  0.
          1    1    3    3  502    0 -0.11121825818E+03 -0.18536284688E+03 -0.49849656605E+03  0.54334861031E+03  0.00000000000E+00 0. -1.
         -2    1    3    3    0  502 -0.51136695840E+02 -0.15637017034E+03 -0.25393272201E+03  0.30256969303E+03  0.00000000000E+00 0.  1.
         11    1    5    5    0    0 -0.34652923174E+01 -0.85107935048E+00 -0.11792893732E+02  0.12320914312E+02  0.00000000000E+00 0. -1.
        -11    1    5    5    0    0  0.13615187890E+03 -0.29907181291E+03 -0.11630753493E+02  0.32881082378E+03  0.00000000000E+00 0.  1.
          3    1    6    6  503    0  0.35678733003E+01  0.89778702859E+01  0.15378999593E+02  0.18161649243E+02  0.00000000000E+00 0. -1.
         -3    1    6    6    0  503  0.26100494140E+02  0.63267803920E+03  0.10277242534E+03  0.64150207209E+03  0.00000000000E+00 0.  1.
<mgrwt>
<rscale>  0 0.17256247E+04</rscale>
<asrwt>0</asrwt>
<pdfrwt beam="1">  1        3 0.19264733E+00 0.17256247E+04</pdfrwt>
<pdfrwt beam="2">  1       -4 0.91462481E-01 0.17256247E+04</pdfrwt>
<totfact> 0.36392382E-01</totfact>
</mgrwt>
</event>
<event>
12    4  0.4320235E-008  0.2430657E+04  0.7818608E-02  0.8428114E-01
          1   -1    0    0  501    0  0.00000000000E+00  0.00000000000E+00  0.18965451010E+04  0.18965451010E+04  0.00000000000E+00 0. -1.
         -2   -1    0    0    0  501 -0.00000000000E+00 -0.00000000000E+00 -0.77879715101E+03  0.77879715101E+03  0.00000000000E+00 0.  1.
        -24    2    1    2    0    0  0.11323378555E+03  0.24742670072E+02  0.16225946093E+04  0.16286592869E+04  0.79269898266E+02 0.  0.
        254    2    1    2    0    0 -0.11323378555E+03 -0.24742670072E+02 -0.50484665937E+03  0.10466829651E+04  0.90952789399E+03 0.  0.
         23    2    4    4    0    0 -0.43019211316E+03 -0.26080544222E+03 -0.26617226369E+03  0.57647443208E+03  0.91598929907E+02 0.  0.
         23    2    4    4    0    0  0.31695832762E+03  0.23606277215E+03 -0.23867439568E+03  0.47020853297E+03  0.89120050983E+02 0.  0.
          1    1    3    3  502    0  0.87127421002E+02  0.47527238100E+02  0.94937915535E+03  0.95455267349E+03  0.00000000000E+00 0. -1.
         -2    1    3    3    0  502  0.26106364543E+02 -0.22784568028E+02  0.67321545396E+03  0.67410661342E+03  0.00000000000E+00 0.  1.
         11    1    5    5    0    0 -0.10687053900E+03 -0.43352506430E+02 -0.10086660687E+03  0.15321496109E+03  0.00000000000E+00 0. -1.
        -11    1    5    5    0    0 -0.32332157417E+03 -0.21745293579E+03 -0.16530565682E+03  0.42325947099E+03  0.00000000000E+00 0.  1.
          2    1    6    6  503    0  0.24626621787E+02  0.69993635000E+01  0.49086073544E+01  0.26068295230E+02  0.00000000000E+00 0. -1.
         -2    1    6    6    0  503  0.29233170583E+03  0.22906340865E+03 -0.24358300304E+03  0.44414023774E+03  0.00000000000E+00 0.  1.
<mgrwt>
<rscale>  0 0.24306575E+04</rscale>
<asrwt>0</asrwt>
<pdfrwt beam="1">  1        1 0.29177617E+00 0.24306575E+04</pdfrwt>
<pdfrwt beam="2">  1       -2 0.11981495E+00 0.24306575E+04</pdfrwt>
<totfact> 0.14661953E+00</totfact>
</mgrwt>
</event>
<event>
12    4  0.4320235E-008  0.1595363E+04  0.7818608E-02  0.8823401E-01
          1   -1    0    0  501    0  0.00000000000E+00  0.00000000000E+00  0.13493138676E+04  0.13493138676E+04  0.00000000000E+00 0. -1.
         -2   -1    0    0    0  501 -0.00000000000E+00 -0.00000000000E+00 -0.47157015801E+03  0.47157015801E+03  0.00000000000E+00 0.  1.
        -24    2    1    2    0    0 -0.20342555223E+03 -0.49748849988E+03  0.30032963607E+03  0.62089880402E+03  0.80253795611E+02 0.  0.
        254    2    1    2    0    0  0.20342555223E+03  0.49748849988E+03  0.57741407349E+03  0.11999852216E+04  0.90425701926E+03 0.  0.
         23    2    4    4    0    0  0.71173367389E+02  0.17404741248E+03  0.76508454492E+03  0.79327169996E+03  0.92560677767E+02 0.  0.
         23    2    4    4    0    0  0.13225218484E+03  0.32344108740E+03 -0.18767047143E+03  0.40671352160E+03  0.89949460188E+02 0.  0.
          3    1    3    3  502    0  0.54556715472E+01 -0.61612138985E+01 -0.21384945951E+00  0.82322925316E+01  0.00000000000E+00 0. -1.
         -4    1    3    3    0  502 -0.20888122378E+03 -0.49132728599E+03  0.30054348553E+03  0.61266651149E+03  0.00000000000E+00 0.  1.
         11    1    5    5    0    0  0.85110925329E+02  0.13933252262E+03  0.51104568378E+03  0.53649334794E+03  0.00000000000E+00 0. -1.
        -11    1    5    5    0    0 -0.13937557939E+02  0.34714889856E+02  0.25403886114E+03  0.25677835203E+03  0.00000000000E+00 0.  1.
          1    1    6    6  503    0  0.13727399650E+03  0.25035592399E+03 -0.16621810208E+03  0.33037962445E+03  0.00000000000E+00 0. -1.
         -1    1    6    6    0  503 -0.50218116572E+01  0.73085163414E+02 -0.21452369354E+02  0.76333897153E+02  0.00000000000E+00 0.  1.
<mgrwt>
<rscale>  0 0.15953635E+04</rscale>
<asrwt>0</asrwt>
<pdfrwt beam="1">  1        1 0.20758675E+00 0.15953635E+04</pdfrwt>
<pdfrwt beam="2">  1       -2 0.72549256E-01 0.15953635E+04</pdfrwt>
<totfact> 0.12073632E+01</totfact>
</mgrwt>
</event>
<event>
12    4  0.4320235E-008  0.1414641E+04  0.7818608E-02  0.8943289E-01
         -2   -1    0    0    0  501 -0.00000000000E+00  0.00000000000E+00  0.28566533319E+03  0.28566533319E+03  0.00000000000E+00 0.  1.
          1   -1    0    0  501    0  0.00000000000E+00 -0.00000000000E+00 -0.17513570478E+04  0.17513570478E+04  0.00000000000E+00 0. -1.
        -24    2    1    2    0    0  0.14410981900E+03 -0.37544562226E+03 -0.64967541998E+03  0.76852054084E+03  0.82574906380E+02 0.  0.
        254    2    1    2    0    0 -0.14410981900E+03  0.37544562226E+03 -0.81601629460E+03  0.12685018401E+04  0.88401768654E+03 0.  0.
         23    2    4    4    0    0  0.18319213793E+03  0.44480202719E+03 -0.77798993885E+03  0.91916124613E+03  0.90448043910E+02 0.  0.
         23    2    4    4    0    0 -0.32730195692E+03 -0.69356404930E+02 -0.38026355755E+02  0.34934059399E+03  0.93037438503E+02 0.  0.
          3    1    3    3  502    0  0.14126669399E+03 -0.30914821263E+03 -0.49769670735E+03  0.60268640992E+03  0.00000000000E+00 0. -1.
         -2    1    3    3    0  502  0.28431250087E+01 -0.66297409625E+02 -0.15197871264E+03  0.16583413092E+03  0.00000000000E+00 0.  1.
         11    1    5    5    0    0  0.13189451244E+03  0.39970796831E+03 -0.65845105239E+03  0.78148602722E+03  0.00000000000E+00 0. -1.
        -11    1    5    5    0    0  0.51297625488E+02  0.45094058879E+02 -0.11953888646E+03  0.13767521891E+03  0.00000000000E+00 0.  1.
          3    1    6    6  503    0 -0.22425233766E+03 -0.28080274704E+02  0.14629394527E+02  0.22647655940E+03  0.00000000000E+00 0. -1.
         -3    1    6    6    0  503 -0.10304961926E+03 -0.41276130226E+02 -0.52655750282E+02  0.12286403458E+03  0.00000000000E+00 0.  1.
<mgrwt>
<rscale>  0 0.14146406E+04</rscale>
<asrwt>0</asrwt>
<pdfrwt beam="1">  1        1 0.26943955E+00 0.14146406E+04</pdfrwt>
<pdfrwt beam="2">  1       -2 0.43948512E-01 0.14146406E+04</pdfrwt>
<totfact> 0.18457818E+01</totfact>
</mgrwt>
</event>
<event>
12    4  0.4320235E-008  0.1546080E+04  0.7818608E-02  0.8854376E-01
         -2   -1    0    0    0  501 -0.00000000000E+00  0.00000000000E+00  0.49518441149E+03  0.49518441149E+03  0.00000000000E+00 0.  1.
          1   -1    0    0  501    0  0.00000000000E+00 -0.00000000000E+00 -0.12068041335E+04  0.12068041335E+04  0.00000000000E+00 0. -1.
        -24    2    1    2    0    0  0.38668458018E+03  0.32486389248E+03 -0.24213885208E+03  0.56572503140E+03  0.79699901363E+02 0.  0.
        254    2    1    2    0    0 -0.38668458018E+03 -0.32486389248E+03 -0.46948086995E+03  0.11362635136E+04  0.90311736334E+03 0.  0.
         23    2    4    4    0    0  0.98687520171E+02 -0.49417665902E+03 -0.20809189120E+03  0.55261810181E+03  0.90192761933E+02 0.  0.
         23    2    4    4    0    0 -0.48537210035E+03  0.16931276654E+03 -0.26138897875E+03  0.58364541182E+03  0.89804675882E+02 0.  0.
          1    1    3    3  502    0  0.27977916978E+03  0.26973592119E+03 -0.16114716593E+03  0.42071636539E+03  0.00000000000E+00 0. -1.
         -2    1    3    3    0  502  0.10690541040E+03  0.55127971298E+02 -0.80991686150E+02  0.14500866601E+03  0.00000000000E+00 0.  1.
         11    1    5    5    0    0  0.88016225858E+02 -0.23872986099E+03 -0.12716462334E+03  0.28444620576E+03  0.00000000000E+00 0.  1.
        -11    1    5    5    0    0  0.10671294313E+02 -0.25544679803E+03 -0.80927267857E+02  0.26817189605E+03  0.00000000000E+00 0. -1.
          4    1    6    6  503    0 -0.25719211502E+03  0.13560209851E+03 -0.15754954712E+03  0.33069256561E+03  0.00000000000E+00 0. -1.
         -4    1    6    6    0  503 -0.22817998533E+03  0.33710668024E+02 -0.10383943163E+03  0.25295284621E+03  0.00000000000E+00 0.  1.
<mgrwt>
<rscale>  0 0.15460797E+04</rscale>
<asrwt>0</asrwt>
<pdfrwt beam="1">  1        1 0.18566217E+00 0.15460797E+04</pdfrwt>
<pdfrwt beam="2">  1       -2 0.76182218E-01 0.15460797E+04</pdfrwt>
<totfact> 0.13771518E+01</totfact>
</mgrwt>
</event>
<event>
12    4  0.4320235E-008  0.2228077E+04  0.7818608E-02  0.8506832E-01
         -2   -1    0    0    0  501 -0.00000000000E+00  0.00000000000E+00  0.70878848332E+03  0.70878848332E+03  0.00000000000E+00 0.  1.
          1   -1    0    0  501    0  0.00000000000E+00 -0.00000000000E+00 -0.17509898019E+04  0.17509898019E+04  0.00000000000E+00 0. -1.
        -24    2    1    2    0    0 -0.28855576233E+03 -0.43530862483E+03 -0.12820254433E+04  0.13867313131E+04  0.81709673572E+02 0.  0.
        254    2    1    2    0    0  0.28855576233E+03  0.43530862483E+03  0.23982412469E+03  0.10730469721E+04  0.90617667523E+03 0.  0.
         23    2    4    4    0    0 -0.25263447741E+03 -0.62778762230E+02 -0.44250357151E+02  0.27927959582E+03  0.90959586460E+02 0.  0.
         23    2    4    4    0    0  0.54119023974E+03  0.49808738706E+03  0.28407448184E+03  0.79376737628E+03  0.91599212174E+02 0.  0.
          1    1    3    3  502    0 -0.28882993575E+03 -0.42435431258E+03 -0.12176133206E+04  0.13213937766E+04  0.00000000000E+00 0. -1.
         -2    1    3    3    0  502  0.27417342171E+00 -0.10954312250E+02 -0.64412122691E+02  0.65337536512E+02  0.00000000000E+00 0.  1.
         11    1    5    5    0    0 -0.17876213617E+02 -0.27957451014E+02 -0.24272235301E+02  0.41113495193E+02  0.00000000000E+00 0.  1.
        -11    1    5    5    0    0 -0.23475826380E+03 -0.34821311216E+02 -0.19978121849E+02  0.23816610063E+03  0.00000000000E+00 0. -1.
          3    1    6    6  503    0  0.51844375817E+03  0.44550286818E+03  0.26841229014E+03  0.73437176786E+03  0.00000000000E+00 0. -1.
         -3    1    6    6    0  503  0.22746481578E+02  0.52584518884E+02  0.15662191695E+02  0.59395608417E+02  0.00000000000E+00 0.  1.
<mgrwt>
<rscale>  0 0.22280767E+04</rscale>
<asrwt>0</asrwt>
<pdfrwt beam="1">  1        1 0.26938304E+00 0.22280767E+04</pdfrwt>
<pdfrwt beam="2">  1       -2 0.10904438E+00 0.22280767E+04</pdfrwt>
<totfact> 0.23580009E+00</totfact>
</mgrwt>
</event>
<event>
12    4  0.4320235E-008  0.1098842E+04  0.7818608E-02  0.9206321E-01
         -2   -1    0    0    0  501 -0.00000000000E+00  0.00000000000E+00  0.31914796708E+03  0.31914796708E+03  0.00000000000E+00 0.  1.
          1   -1    0    0  501    0  0.00000000000E+00 -0.00000000000E+00 -0.94584163156E+03  0.94584163156E+03  0.00000000000E+00 0. -1.
        -24    2    1    2    0    0  0.39345943132E+02  0.13062080413E+03  0.12453135075E+02  0.15932291884E+03  0.81356094927E+02 0.  0.
        254    2    1    2    0    0 -0.39345943132E+02 -0.13062080413E+03 -0.63914679955E+03  0.11056666798E+04  0.89184094867E+03 0.  0.
         23    2    4    4    0    0 -0.33797126729E+03  0.18161231964E+03 -0.95085578550E+02  0.40547651565E+03  0.90345588357E+02 0.  0.
         23    2    4    4    0    0  0.29862532416E+03 -0.31223312377E+03 -0.54406122100E+03  0.70019016415E+03  0.87161034700E+02 0.  0.
          1    1    3    3  502    0  0.34214249689E+02  0.95688308367E+02 -0.28216090492E+02  0.10546570534E+03  0.00000000000E+00 0. -1.
         -2    1    3    3    0  502  0.51316934428E+01  0.34932495762E+02  0.40669225567E+02  0.53857213500E+02  0.00000000000E+00 0.  1.
         11    1    5    5    0    0 -0.15114555739E+03  0.12063275886E+03 -0.76894970200E+02  0.20811073607E+03  0.00000000000E+00 0. -1.
        -11    1    5    5    0    0 -0.18682570990E+03  0.60979560776E+02 -0.18190608349E+02  0.19736577957E+03  0.00000000000E+00 0.  1.
          2    1    6    6  503    0  0.21955161292E+03 -0.21272973047E+03 -0.44079374415E+03  0.53642890847E+03  0.00000000000E+00 0.  1.
         -2    1    6    6    0  503  0.79073711236E+02 -0.99503393295E+02 -0.10326747685E+03  0.16376125568E+03  0.00000000000E+00 0. -1.
<mgrwt>
<rscale>  0 0.10988420E+04</rscale>
<asrwt>0</asrwt>
<pdfrwt beam="1">  1        1 0.14551410E+00 0.10988420E+04</pdfrwt>
<pdfrwt beam="2">  1       -2 0.49099688E-01 0.10988420E+04</pdfrwt>
<totfact> 0.57290947E+01</totfact>
</mgrwt>
</event>
<event>
12    4  0.4320235E-008  0.1716646E+04  0.7818608E-02  0.8751927E-01
          1   -1    0    0  501    0  0.00000000000E+00  0.00000000000E+00  0.12555722128E+04  0.12555722128E+04  0.00000000000E+00 0. -1.
         -2   -1    0    0    0  501 -0.00000000000E+00 -0.00000000000E+00 -0.58675890960E+03  0.58675890960E+03  0.00000000000E+00 0.  1.
        -24    2    1    2    0    0  0.31942821779E+03  0.41976699800E+03 -0.93679863748E+02  0.54170123398E+03  0.80159784776E+02 0.  0.
        254    2    1    2    0    0 -0.31942821779E+03 -0.41976699800E+03  0.76249316692E+03  0.13006298884E+04  0.91214229048E+03 0.  0.
         23    2    4    4    0    0 -0.60687629056E+03 -0.40293418408E+03  0.42785040891E+03  0.84961511019E+03  0.90194646875E+02 0.  0.
         23    2    4    4    0    0  0.28744807277E+03 -0.16832813917E+02  0.33464275802E+03  0.45101477821E+03  0.92297435017E+02 0.  0.
          3    1    3    3  502    0  0.10607210538E+03  0.99896626650E+02 -0.53047083002E+02  0.15506327925E+03  0.00000000000E+00 0. -1.
         -4    1    3    3    0  502  0.21335611240E+03  0.31987037135E+03 -0.40632780746E+02  0.38663795473E+03  0.00000000000E+00 0.  1.
         11    1    5    5    0    0 -0.49336127203E+03 -0.28323176444E+03  0.33934678848E+03  0.66240608389E+03  0.00000000000E+00 0. -1.
        -11    1    5    5    0    0 -0.11351501852E+03 -0.11970241964E+03  0.88503620426E+02  0.18720902630E+03  0.00000000000E+00 0.  1.
          1    1    6    6  503    0  0.87467070483E+01  0.12910602634E+02  0.15258976462E+01  0.15668979169E+02  0.00000000000E+00 0.  1.
         -1    1    6    6    0  503  0.27870136572E+03 -0.29743416551E+02  0.33311686037E+03  0.43534579904E+03  0.00000000000E+00 0. -1.
<mgrwt>
<rscale>  0 0.17166458E+04</rscale>
<asrwt>0</asrwt>
<pdfrwt beam="1">  1        1 0.19316496E+00 0.17166458E+04</pdfrwt>
<pdfrwt beam="2">  1       -2 0.90270602E-01 0.17166458E+04</pdfrwt>
<totfact> 0.85178085E+00</totfact>
</mgrwt>
</event>
<event>
12    4  0.4320235E-008  0.2284533E+04  0.7818608E-02  0.8484045E-01
          1   -1    0    0  501    0  0.00000000000E+00  0.00000000000E+00  0.33862056375E+04  0.33862056375E+04  0.00000000000E+00 0. -1.
         -2   -1    0    0    0  501 -0.00000000000E+00 -0.00000000000E+00 -0.38532003757E+03  0.38532003757E+03  0.00000000000E+00 0.  1.
        -24    2    1    2    0    0  0.32139493611E+03  0.89578260304E+03  0.10062224431E+04  0.13871395978E+04  0.77145848086E+02 0.  0.
        254    2    1    2    0    0 -0.32139493611E+03 -0.89578260304E+03  0.19946631569E+04  0.23843860773E+04  0.89492719229E+03 0.  0.
         23    2    4    4    0    0 -0.14078914330E+03 -0.25512153175E+03  0.15475472031E+04  0.15773516241E+04  0.90704031667E+02 0.  0.
         23    2    4    4    0    0 -0.18060579280E+03 -0.64066107129E+03  0.44711595377E+03  0.80703445323E+03  0.91251695474E+02 0.  0.
          1    1    3    3  502    0  0.26156887015E+03  0.64270903106E+03  0.75786894741E+03  0.10275497622E+04  0.00000000000E+00 0. -1.
         -2    1    3    3    0  502  0.59826065954E+02  0.25307357198E+03  0.24835349569E+03  0.35958983553E+03  0.00000000000E+00 0.  1.
         11    1    5    5    0    0 -0.11186580038E+03 -0.13104965460E+03  0.10327615781E+04  0.10470360292E+04  0.00000000000E+00 0. -1.
        -11    1    5    5    0    0 -0.28923342925E+02 -0.12407187715E+03  0.51478562502E+03  0.53031559490E+03  0.00000000000E+00 0.  1.
          4    1    6    6  503    0 -0.14406536613E+03 -0.56312656047E+03  0.42003661582E+03  0.71714511185E+03  0.00000000000E+00 0. -1.
         -4    1    6    6    0  503 -0.36540426679E+02 -0.77534510818E+02  0.27079337950E+02  0.89889341378E+02  0.00000000000E+00 0.  1.
<mgrwt>
<rscale>  0 0.22845331E+04</rscale>
<asrwt>0</asrwt>
<pdfrwt beam="1">  1        1 0.52095469E+00 0.22845331E+04</pdfrwt>
<pdfrwt beam="2">  1       -2 0.59280008E-01 0.22845331E+04</pdfrwt>
<totfact> 0.64927319E-01</totfact>
</mgrwt>
</event>
<event>
12    4  0.4320235E-008  0.1440216E+04  0.7818608E-02  0.8925212E-01
          1   -1    0    0  501    0  0.00000000000E+00  0.00000000000E+00  0.70647486315E+03  0.70647486315E+03  0.00000000000E+00 0. -1.
         -2   -1    0    0    0  501 -0.00000000000E+00 -0.00000000000E+00 -0.73400432530E+03  0.73400432530E+03  0.00000000000E+00 0.  1.
        -24    2    1    2    0    0 -0.16641907789E+03  0.28405869483E+03 -0.29378105978E+03  0.44831958964E+03  0.79363037819E+02 0.  0.
        254    2    1    2    0    0  0.16641907789E+03 -0.28405869483E+03  0.26625159763E+03  0.99215959881E+03  0.89727705012E+03 0.  0.
         23    2    4    4    0    0  0.44756839074E+03 -0.42661982487E+03  0.20142504911E+03  0.65657881465E+03  0.90563514062E+02 0.  0.
         23    2    4    4    0    0 -0.28114931285E+03  0.14256113004E+03  0.64826548517E+02  0.33558078415E+03  0.95096631832E+02 0.  0.
          3    1    3    3  502    0 -0.29250999378E+01  0.20794909270E+02 -0.49322771212E+02  0.53607091147E+02  0.00000000000E+00 0. -1.
         -4    1    3    3    0  502 -0.16349397796E+03  0.26326378556E+03 -0.24445828857E+03  0.39471249849E+03  0.00000000000E+00 0.  1.
         11    1    5    5    0    0  0.12816329061E+03 -0.16533695136E+03  0.98786702417E+02  0.23134595116E+03  0.00000000000E+00 0. -1.
        -11    1    5    5    0    0  0.31940510014E+03 -0.26128287351E+03  0.10263834669E+03  0.42523286349E+03  0.00000000000E+00 0.  1.
          1    1    6    6  503    0 -0.24206110517E+03  0.15070359317E+03  0.38434518176E+02  0.28771924478E+03  0.00000000000E+00 0. -1.
         -1    1    6    6    0  503 -0.39088207682E+02 -0.81424631294E+01  0.26392030341E+02  0.47861539373E+02  0.00000000000E+00 0.  1.
<mgrwt>
<rscale>  0 0.14402161E+04</rscale>
<asrwt>0</asrwt>
<pdfrwt beam="1">  1        1 0.10868844E+00 0.14402161E+04</pdfrwt>
<pdfrwt beam="2">  1       -2 0.11292374E+00 0.14402161E+04</pdfrwt>
<totfact> 0.14093053E+01</totfact>
</mgrwt>
</event>
<event>
12    4  0.4320235E-008  0.2268708E+04  0.7818608E-02  0.8490362E-01
          1   -1    0    0  501    0  0.00000000000E+00  0.00000000000E+00  0.91717649045E+03  0.91717649045E+03  0.00000000000E+00 0. -1.
         -2   -1    0    0    0  501 -0.00000000000E+00 -0.00000000000E+00 -0.14029563913E+04  0.14029563913E+04  0.00000000000E+00 0.  1.
        -24    2    1    2    0    0  0.75228546024E+03  0.52248756122E+03  0.10550016737E+03  0.92536688148E+03  0.79037425955E+02 0.  0.
        254    2    1    2    0    0 -0.75228546024E+03 -0.52248756122E+03 -0.59128006825E+03  0.13947660003E+04  0.86996172970E+03 0.  0.
         23    2    4    4    0    0  0.18386521667E+03 -0.47402770416E+02 -0.11041896427E+03  0.23732361625E+03  0.89870521387E+02 0.  0.
         23    2    4    4    0    0 -0.93615067691E+03 -0.47508479081E+03 -0.48086110397E+03  0.11574423840E+04  0.79761035100E+02 0.  0.
          1    1    3    3  502    0  0.54983137881E+03  0.35866150045E+03  0.10574034048E+03  0.66493130218E+03  0.00000000000E+00 0. -1.
         -2    1    3    3    0  502  0.20245408143E+03  0.16382606078E+03 -0.24017310195E+00  0.26043557930E+03  0.00000000000E+00 0.  1.
         11    1    5    5    0    0  0.18241943068E+03 -0.25211174176E+02 -0.82928627486E+02  0.20196437619E+03  0.00000000000E+00 0.  1.
        -11    1    5    5    0    0  0.14457859886E+01 -0.22191596239E+02 -0.27490336789E+02  0.35359240059E+02  0.00000000000E+00 0. -1.
          2    1    6    6  503    0 -0.80221065996E+00 -0.62232605767E+01 -0.95043642276E+00  0.63463251998E+01  0.00000000000E+00 0. -1.
         -2    1    6    6    0  503 -0.93534846625E+03 -0.46886153023E+03 -0.47991066755E+03  0.11510960588E+04  0.00000000000E+00 0.  1.
<mgrwt>
<rscale>  0 0.22687077E+04</rscale>
<asrwt>0</asrwt>
<pdfrwt beam="1">  1        1 0.14110408E+00 0.22687077E+04</pdfrwt>
<pdfrwt beam="2">  1       -2 0.21583944E+00 0.22687077E+04</pdfrwt>
<totfact> 0.14701301E+00</totfact>
</mgrwt>
</event>
<event>
12    4  0.4320235E-008  0.2720163E+04  0.7818608E-02  0.8328492E-01
         -2   -1    0    0    0  501 -0.00000000000E+00  0.00000000000E+00  0.90403299643E+03  0.90403299643E+03  0.00000000000E+00 0.  1.
          1   -1    0    0  501    0  0.00000000000E+00 -0.00000000000E+00 -0.20461878615E+04  0.20461878615E+04  0.00000000000E+00 0. -1.
        -24    2    1    2    0    0  0.87207674692E+03 -0.78707019872E+03 -0.19462564402E+03  0.11933795868E+04  0.79236019126E+02 0.  0.
        254    2    1    2    0    0 -0.87207674692E+03  0.78707019872E+03 -0.94752922107E+03  0.17568412711E+04  0.89926763363E+03 0.  0.
         23    2    4    4    0    0 -0.33535416767E+03  0.20065575548E+03 -0.86375926714E+03  0.95233420686E+03  0.90195454502E+02 0.  0.
         23    2    4    4    0    0 -0.53672257925E+03  0.58641444324E+03 -0.83769953936E+02  0.80450706426E+03  0.90891060852E+02 0.  0.
          3    1    3    3  502    0  0.87038730105E+02 -0.49572758724E+02 -0.21257743863E+02  0.10239673149E+03  0.00000000000E+00 0. -1.
         -4    1    3    3    0  502  0.78503801681E+03 -0.73749744000E+03 -0.17336790016E+03  0.10909828553E+04  0.00000000000E+00 0.  1.
         11    1    5    5    0    0 -0.32182568592E+03  0.16237688689E+03 -0.77478329368E+03  0.85453330987E+03  0.00000000000E+00 0. -1.
        -11    1    5    5    0    0 -0.13528481744E+02  0.38278868597E+02 -0.88975973454E+02  0.97800896987E+02  0.00000000000E+00 0.  1.
          4    1    6    6  503    0 -0.46127967205E+03  0.52416819962E+03 -0.10001169613E+03  0.70536060047E+03  0.00000000000E+00 0. -1.
         -4    1    6    6    0  503 -0.75442907200E+02  0.62246243618E+02  0.16241742190E+02  0.99146463783E+02  0.00000000000E+00 0.  1.
<mgrwt>
<rscale>  0 0.27201627E+04</rscale>
<asrwt>0</asrwt>
<pdfrwt beam="1">  1        1 0.31479813E+00 0.27201627E+04</pdfrwt>
<pdfrwt beam="2">  1       -2 0.13908200E+00 0.27201627E+04</pdfrwt>
<totfact> 0.77604513E-01</totfact>
</mgrwt>
</event>
<event>
12    4  0.4320235E-008  0.1924614E+04  0.7818608E-02  0.8642700E-01
          1   -1    0    0  501    0  0.00000000000E+00  0.00000000000E+00  0.23502068031E+04  0.23502068031E+04  0.00000000000E+00 0. -1.
         -2   -1    0    0    0  501 -0.00000000000E+00 -0.00000000000E+00 -0.39402277129E+03  0.39402277129E+03  0.00000000000E+00 0.  1.
        -24    2    1    2    0    0  0.65351337056E+03  0.14478355960E+03  0.12453674553E+04  0.14161511979E+04  0.80635673947E+02 0.  0.
        254    2    1    2    0    0 -0.65351337056E+03 -0.14478355960E+03  0.71081657651E+03  0.13280783765E+04  0.90027216110E+03 0.  0.
         23    2    4    4    0    0 -0.41979137632E+03  0.12204394049E+03 -0.82438654340E+02  0.45476485894E+03  0.94315545645E+02 0.  0.
         23    2    4    4    0    0 -0.23372199424E+03 -0.26682750009E+03  0.79325523085E+03  0.87331351756E+03  0.87176563868E+02 0.  0.
          1    1    3    3  502    0  0.48036977633E+03  0.96631976944E+02  0.97978826466E+03  0.10954806728E+04  0.00000000000E+00 0. -1.
         -2    1    3    3    0  502  0.17314359423E+03  0.48151582657E+02  0.26557919060E+03  0.32067052502E+03  0.00000000000E+00 0.  1.
         11    1    5    5    0    0 -0.80066853844E+01  0.21340181198E+02  0.54549224554E+00  0.22799296177E+02  0.00000000000E+00 0. -1.
        -11    1    5    5    0    0 -0.41178469094E+03  0.10070375929E+03 -0.82984146585E+02  0.43196556276E+03  0.00000000000E+00 0.  1.
          1    1    6    6  503    0  0.17464026472E+01  0.13008958832E+01  0.37337499685E+02  0.37400950991E+02  0.00000000000E+00 0. -1.
         -1    1    6    6    0  503 -0.23546839689E+03 -0.26812839597E+03  0.75591773117E+03  0.83591256657E+03  0.00000000000E+00 0.  1.
<mgrwt>
<rscale>  0 0.19246142E+04</rscale>
<asrwt>0</asrwt>
<pdfrwt beam="1">  1        1 0.36157027E+00 0.19246142E+04</pdfrwt>
<pdfrwt beam="2">  1       -2 0.60618889E-01 0.19246142E+04</pdfrwt>
<totfact> 0.35742896E+00</totfact>
</mgrwt>
</event>
<event>
12    4  0.4320235E-008  0.2156304E+04  0.7818608E-02  0.8536839E-01
          1   -1    0    0  501    0  0.00000000000E+00  0.00000000000E+00  0.22323959039E+04  0.22323959039E+04  0.00000000000E+00 0. -1.
         -2   -1    0    0    0  501 -0.00000000000E+00 -0.00000000000E+00 -0.52070159377E+03  0.52070159377E+03  0.00000000000E+00 0.  1.
        -24    2    1    2    0    0 -0.22560192485E+03 -0.54350709832E+03  0.15561689040E+04  0.16656193672E+04  0.79561450278E+02 0.  0.
        254    2    1    2    0    0  0.22560192485E+03  0.54350709832E+03  0.15552540617E+03  0.10874781305E+04  0.90117941490E+03 0.  0.
         23    2    4    4    0    0 -0.60722200766E+02  0.16901309014E+03  0.47138872718E+03  0.51282684915E+03  0.92365766373E+02 0.  0.
         23    2    4    4    0    0  0.28632412562E+03  0.37449400818E+03 -0.31586332102E+03  0.57465128131E+03  0.90703861384E+02 0.  0.
          3    1    3    3  502    0 -0.12727093305E+03 -0.26888017115E+03  0.88953538187E+03  0.93795929146E+03  0.00000000000E+00 0. -1.
         -4    1    3    3    0  502 -0.98330991799E+02 -0.27462692717E+03  0.66663352212E+03  0.72766007578E+03  0.00000000000E+00 0.  1.
         11    1    5    5    0    0 -0.70949227245E+02  0.11037488835E+03  0.23593885749E+03  0.26996954142E+03  0.00000000000E+00 0. -1.
        -11    1    5    5    0    0  0.10227026479E+02  0.58638201790E+02  0.23544986969E+03  0.24285730773E+03  0.00000000000E+00 0.  1.
          4    1    6    6  503    0  0.29196427481E+03  0.36495665063E+03 -0.30024943956E+03  0.55550537401E+03  0.00000000000E+00 0. -1.
         -4    1    6    6    0  503 -0.56401491881E+01  0.95373575501E+01 -0.15613881458E+02  0.19145907294E+02  0.00000000000E+00 0.  1.
<mgrwt>
<rscale>  0 0.21563043E+04</rscale>
<asrwt>0</asrwt>
<pdfrwt beam="1">  1        1 0.34344552E+00 0.21563043E+04</pdfrwt>
<pdfrwt beam="2">  1       -2 0.80107939E-01 0.21563043E+04</pdfrwt>
<totfact> 0.22939944E+00</totfact>
</mgrwt>
</event>
<event>
12    4  0.4320235E-008  0.1730941E+04  0.7818608E-02  0.8743912E-01
          1   -1    0    0  501    0  0.00000000000E+00  0.00000000000E+00  0.95890961730E+03  0.95890961730E+03  0.00000000000E+00 0. -1.
         -4   -1    0    0    0  501 -0.00000000000E+00 -0.00000000000E+00 -0.78113632589E+03  0.78113632589E+03  0.00000000000E+00 0.  1.
        -24    2    1    2    0    0 -0.35510972629E+03  0.33244689654E+03 -0.34047144757E+03  0.59902333313E+03  0.79273515730E+02 0.  0.
        254    2    1    2    0    0  0.35510972629E+03 -0.33244689654E+03  0.51824473898E+03  0.11410226101E+04  0.89259796687E+03 0.  0.
         23    2    4    4    0    0 -0.58010131721E+01  0.26262933293E+03  0.29222015815E+03  0.40341116650E+03  0.91324313094E+02 0.  0.
         23    2    4    4    0    0  0.36091073946E+03 -0.59507622947E+03  0.22602458083E+03  0.73761144355E+03  0.92796819862E+02 0.  0.
          3    1    3    3  502    0 -0.56387907238E+02  0.39541841364E+02 -0.82705382106E+02  0.10762589619E+03  0.00000000000E+00 0. -1.
         -4    1    3    3    0  502 -0.29872181905E+03  0.29290505518E+03 -0.25776606547E+03  0.49139743694E+03  0.00000000000E+00 0.  1.
         11    1    5    5    0    0  0.29797336202E+02  0.18404573142E+03  0.23462094112E+03  0.29967932614E+03  0.00000000000E+00 0. -1.
        -11    1    5    5    0    0 -0.35598349374E+02  0.78583601510E+02  0.57599217024E+02  0.10373184037E+03  0.00000000000E+00 0.  1.
          2    1    6    6  503    0  0.82365509335E+02 -0.11300076808E+03  0.83612534525E+02  0.16292423590E+03  0.00000000000E+00 0.  1.
         -2    1    6    6    0  503  0.27854523012E+03 -0.48207546139E+03  0.14241204631E+03  0.57468720765E+03  0.00000000000E+00 0. -1.
<mgrwt>
<rscale>  0 0.17309409E+04</rscale>
<asrwt>0</asrwt>
<pdfrwt beam="1">  1        1 0.14752456E+00 0.17309409E+04</pdfrwt>
<pdfrwt beam="2">  1       -4 0.12017482E+00 0.17309409E+04</pdfrwt>
<totfact> 0.39608753E+00</totfact>
</mgrwt>
</event>
<event>
12    4  0.4320235E-008  0.1798343E+04  0.7818608E-02  0.8707181E-01
          1   -1    0    0  501    0  0.00000000000E+00  0.00000000000E+00  0.96854644365E+03  0.96854644365E+03  0.00000000000E+00 0. -1.
         -2   -1    0    0    0  501 -0.00000000000E+00 -0.00000000000E+00 -0.83476543801E+03  0.83476543801E+03  0.00000000000E+00 0.  1.
        -24    2    1    2    0    0  0.34358203564E+03  0.18953801014E+03 -0.50964821070E+03  0.64683803235E+03  0.68446102315E+02 0.  0.
        254    2    1    2    0    0 -0.34358203564E+03 -0.18953801014E+03  0.64342921634E+03  0.11564738493E+04  0.87718717227E+03 0.  0.
         23    2    4    4    0    0 -0.49724759619E+03  0.16872277827E+03  0.50124314446E+03  0.73208206783E+03  0.94746590176E+02 0.  0.
         23    2    4    4    0    0  0.15366556055E+03 -0.35826078841E+03  0.14218607188E+03  0.42439178148E+03  0.89037116661E+02 0.  0.
          1    1    3    3  502    0  0.13534504791E+03  0.10287590248E+03 -0.18187476070E+03  0.24895815288E+03  0.00000000000E+00 0. -1.
         -2    1    3    3    0  502  0.20823698773E+03  0.86662107653E+02 -0.32777345000E+03  0.39787987947E+03  0.00000000000E+00 0.  1.
         11    1    5    5    0    0 -0.39467994055E+03  0.14133361384E+03  0.44714118624E+03  0.61292959327E+03  0.00000000000E+00 0. -1.
        -11    1    5    5    0    0 -0.10256765563E+03  0.27389164430E+02  0.54101958223E+02  0.11915247456E+03  0.00000000000E+00 0.  1.
          1    1    6    6  503    0  0.85462289755E+02 -0.26923138169E+03  0.69990097737E+02  0.29101194759E+03  0.00000000000E+00 0. -1.
         -1    1    6    6    0  503  0.68203270790E+02 -0.89029406716E+02  0.72195974144E+02  0.13337983389E+03  0.00000000000E+00 0.  1.
<mgrwt>
<rscale>  0 0.17983427E+04</rscale>
<asrwt>0</asrwt>
<pdfrwt beam="1">  1        1 0.14900715E+00 0.17983427E+04</pdfrwt>
<pdfrwt beam="2">  1       -2 0.12842545E+00 0.17983427E+04</pdfrwt>
<totfact> 0.59352733E+00</totfact>
</mgrwt>
</event>
<event>
12    4  0.4320235E-008  0.1639423E+04  0.7818608E-02  0.8796689E-01
          1   -1    0    0  501    0  0.00000000000E+00  0.00000000000E+00  0.50793906714E+03  0.50793906714E+03  0.00000000000E+00 0. -1.
         -2   -1    0    0    0  501 -0.00000000000E+00 -0.00000000000E+00 -0.13228488589E+04  0.13228488589E+04  0.00000000000E+00 0.  1.
        -24    2    1    2    0    0  0.59231223378E+02 -0.45296318512E+03  0.89183779427E+02  0.47204334364E+03  0.78658673191E+02 0.  0.
        254    2    1    2    0    0 -0.59231223378E+02  0.45296318512E+03 -0.90409357117E+03  0.13587445824E+04  0.90560348380E+03 0.  0.
         23    2    4    4    0    0  0.36886676483E+03  0.20055929101E+03 -0.68335615894E+03  0.80717583493E+03  0.90942119698E+02 0.  0.
         23    2    4    4    0    0 -0.42809798820E+03  0.25240389411E+03 -0.22073741223E+03  0.55156874746E+03  0.92344272994E+02 0.  0.
          1    1    3    3  502    0 -0.11781865459E+02 -0.72731645128E+02  0.34619765604E+02  0.81407817359E+02  0.00000000000E+00 0. -1.
         -2    1    3    3    0  502  0.71013088838E+02 -0.38023153999E+03  0.54564013823E+02  0.39063552628E+03  0.00000000000E+00 0.  1.
         11    1    5    5    0    0  0.33837641566E+03  0.20928489970E+03 -0.63487171635E+03  0.74924019122E+03  0.00000000000E+00 0.  1.
        -11    1    5    5    0    0  0.30490349165E+02 -0.87256086900E+01 -0.48484442584E+02  0.57935643708E+02  0.00000000000E+00 0. -1.
          3    1    6    6  503    0 -0.27280355659E+03  0.19697770949E+03 -0.18050212735E+03  0.38184161180E+03  0.00000000000E+00 0. -1.
         -3    1    6    6    0  503 -0.15529443161E+03  0.55426184617E+02 -0.40235284885E+02  0.16972713566E+03  0.00000000000E+00 0.  1.
<mgrwt>
<rscale>  0 0.16394226E+04</rscale>
<asrwt>0</asrwt>
<pdfrwt beam="1">  1        1 0.78144472E-01 0.16394226E+04</pdfrwt>
<pdfrwt beam="2">  1       -2 0.20351521E+00 0.16394226E+04</pdfrwt>
<totfact> 0.45726876E+00</totfact>
</mgrwt>
</event>
<event>
12    4  0.4320235E-008  0.1434377E+04  0.7818608E-02  0.8929304E-01
         -2   -1    0    0    0  501 -0.00000000000E+00  0.00000000000E+00  0.25806344275E+03  0.25806344275E+03  0.00000000000E+00 0.  1.
          1   -1    0    0  501    0  0.00000000000E+00 -0.00000000000E+00 -0.19931497651E+04  0.19931497651E+04  0.00000000000E+00 0. -1.
        -24    2    1    2    0    0 -0.11669566208E+03  0.50115798840E+02  0.11484704984E+03  0.18837353232E+03  0.78519245920E+02 0.  0.
        254    2    1    2    0    0  0.11669566208E+03 -0.50115798840E+02 -0.18499333722E+04  0.20628396756E+04  0.90383879900E+03 0.  0.
         23    2    4    4    0    0  0.22930675863E+02 -0.40362743602E+03 -0.44574114544E+03  0.60895290784E+03  0.93260668125E+02 0.  0.
         23    2    4    4    0    0  0.93764986215E+02  0.35351163718E+03 -0.14041922268E+04  0.14538867677E+04  0.90931696087E+02 0.  0.
          3    1    3    3  502    0 -0.45835716200E+02 -0.19281797512E+02  0.31909780147E+02  0.59084132082E+02  0.00000000000E+00 0. -1.
         -4    1    3    3    0  502 -0.70859945878E+02  0.69397596352E+02  0.82937269690E+02  0.12928940023E+03  0.00000000000E+00 0.  1.
         11    1    5    5    0    0  0.10681927477E+02 -0.42052456280E+02 -0.13826681976E+02  0.45537784183E+02  0.00000000000E+00 0. -1.
        -11    1    5    5    0    0  0.12248748386E+02 -0.36157497974E+03 -0.43191446347E+03  0.56341512365E+03  0.00000000000E+00 0.  1.
          4    1    6    6  503    0  0.46169311594E+02  0.17921714122E+03 -0.88534933107E+03  0.90448539350E+03  0.00000000000E+00 0. -1.
         -4    1    6    6    0  503  0.47595674620E+02  0.17429449596E+03 -0.51884289572E+03  0.54940137423E+03  0.00000000000E+00 0.  1.
<mgrwt>
<rscale>  0 0.14343766E+04</rscale>
<asrwt>0</asrwt>
<pdfrwt beam="1">  1        1 0.30663843E+00 0.14343766E+04</pdfrwt>
<pdfrwt beam="2">  1       -2 0.39702068E-01 0.14343766E+04</pdfrwt>
<totfact> 0.15444188E+01</totfact>
</mgrwt>
</event>
<event>
12    4  0.4320235E-008  0.2720217E+04  0.7818608E-02  0.8328475E-01
         -2   -1    0    0    0  501 -0.00000000000E+00  0.00000000000E+00  0.12233057491E+04  0.12233057491E+04  0.00000000000E+00 0.  1.
          1   -1    0    0  501    0  0.00000000000E+00 -0.00000000000E+00 -0.15122095634E+04  0.15122095634E+04  0.00000000000E+00 0. -1.
        -24    2    1    2    0    0 -0.40047519655E+03 -0.11439614235E+04 -0.71146934426E+02  0.12167013540E+04  0.79197077568E+02 0.  0.
        254    2    1    2    0    0  0.40047519655E+03  0.11439614235E+04 -0.21775687991E+03  0.15188139585E+04  0.88901611920E+03 0.  0.
         23    2    4    4    0    0 -0.10408352129E+02  0.99664158379E+03  0.45821188390E+02  0.10018792827E+04  0.90883087231E+02 0.  0.
         23    2    4    4    0    0  0.41088354867E+03  0.14731983973E+03 -0.26357806830E+03  0.51693467575E+03  0.84968436189E+02 0.  0.
          1    1    3    3  502    0 -0.51626923908E+02 -0.17028784956E+03 -0.37636490506E+02  0.18187852099E+03  0.00000000000E+00 0. -1.
         -2    1    3    3    0  502 -0.34884827264E+03 -0.97367357396E+03 -0.33510443920E+02  0.10348228331E+04  0.00000000000E+00 0.  1.
         11    1    5    5    0    0 -0.22054297691E-01  0.58039030956E+03 -0.17815246969E+02  0.58066366766E+03  0.00000000000E+00 0.  1.
        -11    1    5    5    0    0 -0.10386297831E+02  0.41625127422E+03  0.63636435359E+02  0.42121561507E+03  0.00000000000E+00 0. -1.
          4    1    6    6  503    0  0.23026140581E+03  0.12322389077E+03 -0.17459905585E+03  0.31414848808E+03  0.00000000000E+00 0. -1.
         -4    1    6    6    0  503  0.18062214287E+03  0.24095948964E+02 -0.88979012457E+02  0.20278618767E+03  0.00000000000E+00 0.  1.
<mgrwt>
<rscale>  0 0.27202166E+04</rscale>
<asrwt>0</asrwt>
<pdfrwt beam="1">  1        1 0.23264762E+00 0.27202166E+04</pdfrwt>
<pdfrwt beam="2">  1       -2 0.18820089E+00 0.27202166E+04</pdfrwt>
<totfact> 0.78275457E-01</totfact>
</mgrwt>
</event>
<event>
12    4  0.4320235E-008  0.1297424E+04  0.7818608E-02  0.9031610E-01
         -2   -1    0    0    0  501 -0.00000000000E+00  0.00000000000E+00  0.65299766075E+03  0.65299766075E+03  0.00000000000E+00 0.  1.
          1   -1    0    0  501    0  0.00000000000E+00 -0.00000000000E+00 -0.64445447546E+03  0.64445447546E+03  0.00000000000E+00 0. -1.
        -24    2    1    2    0    0 -0.14752654729E+03  0.11383158869E+03  0.28474900418E+03  0.35146692520E+03  0.87893636784E+02 0.  0.
        254    2    1    2    0    0  0.14752654729E+03 -0.11383158869E+03 -0.27620581889E+03  0.94598521102E+03  0.88536808861E+03 0.  0.
         23    2    4    4    0    0  0.48404112235E+03  0.31118718982E+02 -0.28070211470E+02  0.49450785379E+03  0.92118933389E+02 0.  0.
         23    2    4    4    0    0 -0.33651457506E+03 -0.14495030768E+03 -0.24813560742E+03  0.45147735723E+03  0.89486722432E+02 0.  0.
          1    1    3    3  502    0 -0.11478843727E+02  0.14872977261E+02 -0.21210586303E+01  0.18906829339E+02  0.00000000000E+00 0. -1.
         -2    1    3    3    0  502 -0.13604770356E+03  0.98958611433E+02  0.28687006281E+03  0.33256009586E+03  0.00000000000E+00 0.  1.
         11    1    5    5    0    0  0.46686866367E+03  0.38240847697E+02 -0.99363126528E+01  0.46853755651E+03  0.00000000000E+00 0. -1.
        -11    1    5    5    0    0  0.17172458685E+02 -0.71221287151E+01 -0.18133898817E+02  0.25970297285E+02  0.00000000000E+00 0.  1.
          2    1    6    6  503    0 -0.31804647581E+03 -0.12207606542E+03 -0.24915666481E+03  0.42206062378E+03  0.00000000000E+00 0. -1.
         -2    1    6    6    0  503 -0.18468099248E+02 -0.22874242255E+02  0.10210573826E+01  0.29416733448E+02  0.00000000000E+00 0.  1.
<mgrwt>
<rscale>  0 0.12974240E+04</rscale>
<asrwt>0</asrwt>
<pdfrwt beam="1">  1        1 0.99146842E-01 0.12974240E+04</pdfrwt>
<pdfrwt beam="2">  1       -2 0.10046118E+00 0.12974240E+04</pdfrwt>
<totfact> 0.21681470E+01</totfact>
</mgrwt>
</event>
<event>
12    4  0.4320235E-008  0.1507464E+04  0.7818608E-02  0.8879504E-01
         -2   -1    0    0    0  501 -0.00000000000E+00  0.00000000000E+00  0.40592825852E+03  0.40592825852E+03  0.00000000000E+00 0.  1.
          1   -1    0    0  501    0  0.00000000000E+00 -0.00000000000E+00 -0.13995382970E+04  0.13995382970E+04  0.00000000000E+00 0. -1.
        -24    2    1    2    0    0 -0.38054484423E+02 -0.41048234195E+03 -0.11116293417E+02  0.42054829369E+03  0.82422075355E+02 0.  0.
        254    2    1    2    0    0  0.38054484423E+02  0.41048234195E+03 -0.98249374505E+03  0.13849182618E+04  0.88473766508E+03 0.  0.
         23    2    4    4    0    0  0.35720171943E+03  0.25309670080E+03 -0.14667018539E+03  0.47087556560E+03  0.92523762753E+02 0.  0.
         23    2    4    4    0    0 -0.31914723500E+03  0.15738564115E+03 -0.83582355966E+03  0.91404269622E+03  0.10123156612E+03 0.  0.
          1    1    3    3  502    0 -0.22069695947E+02 -0.25364544684E+02  0.82271771484E+01  0.34613841885E+02  0.00000000000E+00 0. -1.
         -2    1    3    3    0  502 -0.15984788477E+02 -0.38511779727E+03 -0.19343470565E+02  0.38593445180E+03  0.00000000000E+00 0.  1.
         11    1    5    5    0    0  0.16494179552E+03  0.17021148475E+03 -0.61642556384E+02  0.24490314454E+03  0.00000000000E+00 0. -1.
        -11    1    5    5    0    0  0.19225992391E+03  0.82885216050E+02 -0.85027629004E+02  0.22597242105E+03  0.00000000000E+00 0.  1.
          3    1    6    6  503    0 -0.91498341149E+02  0.75484719144E+02 -0.37873874206E+03  0.39687897902E+03  0.00000000000E+00 0. -1.
         -3    1    6    6    0  503 -0.22764889386E+03  0.81900922006E+02 -0.45708481761E+03  0.51716371720E+03  0.00000000000E+00 0.  1.
<mgrwt>
<rscale>  0 0.15074643E+04</rscale>
<asrwt>0</asrwt>
<pdfrwt beam="1">  1        1 0.21531359E+00 0.15074643E+04</pdfrwt>
<pdfrwt beam="2">  1       -2 0.62450501E-01 0.15074643E+04</pdfrwt>
<totfact> 0.15511736E+01</totfact>
</mgrwt>
</event>
<event>
12    4  0.4320235E-008  0.1573849E+04  0.7818608E-02  0.8836777E-01
          1   -1    0    0  501    0  0.00000000000E+00  0.00000000000E+00  0.34781479686E+04  0.34781479686E+04  0.00000000000E+00 0. -1.
         -2   -1    0    0    0  501 -0.00000000000E+00 -0.00000000000E+00 -0.17804019410E+03  0.17804019410E+03  0.00000000000E+00 0.  1.
        -24    2    1    2    0    0 -0.29437972098E+03 -0.27857127592E+03  0.18916194964E+04  0.19361947479E+04  0.79777232603E+02 0.  0.
        254    2    1    2    0    0  0.29437972098E+03  0.27857127592E+03  0.14084882781E+04  0.17199934148E+04  0.90015373212E+03 0.  0.
         23    2    4    4    0    0  0.22269078207E+03  0.38818420799E+03  0.19713762862E+03  0.49799737619E+03  0.94127457872E+02 0.  0.
         23    2    4    4    0    0  0.71688938908E+02 -0.10961293207E+03  0.12113506495E+04  0.12219960386E+04  0.93539422147E+02 0.  0.
          1    1    3    3  502    0 -0.10251829406E+03 -0.14893284414E+03  0.88607828367E+03  0.90433717024E+03  0.00000000000E+00 0. -1.
         -2    1    3    3    0  502 -0.19186142692E+03 -0.12963843178E+03  0.10055412127E+04  0.10318575777E+04  0.00000000000E+00 0.  1.
         11    1    5    5    0    0  0.21477247708E+03  0.37478240653E+03  0.16520647053E+03  0.46247405015E+03  0.00000000000E+00 0.  1.
        -11    1    5    5    0    0  0.79183049930E+01  0.13401801458E+02  0.31931158090E+02  0.35523326044E+02  0.00000000000E+00 0. -1.
          3    1    6    6  503    0  0.67946875364E+01 -0.93859651537E+02  0.69166094743E+03  0.69803342911E+03  0.00000000000E+00 0. -1.
         -3    1    6    6    0  503  0.64894251371E+02 -0.15753280529E+02  0.51968970204E+03  0.52396260947E+03  0.00000000000E+00 0.  1.
<mgrwt>
<rscale>  0 0.15738490E+04</rscale>
<asrwt>0</asrwt>
<pdfrwt beam="1">  1        1 0.53509964E+00 0.15738490E+04</pdfrwt>
<pdfrwt beam="2">  1       -2 0.27390802E-01 0.15738490E+04</pdfrwt>
<totfact> 0.26919968E+00</totfact>
</mgrwt>
</event>
<event>
12    4  0.4320235E-008  0.1747952E+04  0.7818608E-02  0.8734478E-01
          1   -1    0    0  501    0  0.00000000000E+00  0.00000000000E+00  0.11061802386E+04  0.11061802386E+04  0.00000000000E+00 0. -1.
         -2   -1    0    0    0  501 -0.00000000000E+00 -0.00000000000E+00 -0.69051512826E+03  0.69051512826E+03  0.00000000000E+00 0.  1.
        -24    2    1    2    0    0  0.23326721049E+03  0.39792912500E+03 -0.29015175345E+03  0.54735572812E+03  0.51469146745E+02 0.  0.
        254    2    1    2    0    0 -0.23326721049E+03 -0.39792912500E+03  0.70581686378E+03  0.12493396387E+04  0.92190612737E+03 0.  0.
         23    2    4    4    0    0 -0.17178675693E+03  0.26026853939E+03  0.39532301140E+03  0.51321484072E+03  0.99291424345E+02 0.  0.
         23    2    4    4    0    0 -0.61480453562E+02 -0.65819766439E+03  0.31049385238E+03  0.73612479800E+03  0.92028660140E+02 0.  0.
          3    1    3    3  502    0  0.25725729447E+02  0.31051014172E+02 -0.11030705138E+02  0.41804964927E+02  0.00000000000E+00 0. -1.
         -4    1    3    3    0  502  0.20754148104E+03  0.36687811082E+03 -0.27912104831E+03  0.50555076319E+03  0.00000000000E+00 0.  1.
         11    1    5    5    0    0 -0.15654590189E+03  0.23642064176E+03  0.29583728963E+03  0.40978169943E+03  0.00000000000E+00 0.  1.
        -11    1    5    5    0    0 -0.15240855037E+02  0.23847897632E+02  0.99485721765E+02  0.10343314130E+03  0.00000000000E+00 0. -1.
          1    1    6    6  503    0 -0.55683940373E+02 -0.16722931469E+03  0.74543726315E+02  0.19137165945E+03  0.00000000000E+00 0. -1.
         -1    1    6    6    0  503 -0.57965131885E+01 -0.49096834970E+03  0.23595012607E+03  0.54475313855E+03  0.00000000000E+00 0.  1.
<mgrwt>
<rscale>  0 0.17479522E+04</rscale>
<asrwt>0</asrwt>
<pdfrwt beam="1">  1        1 0.17018158E+00 0.17479522E+04</pdfrwt>
<pdfrwt beam="2">  1       -2 0.10623310E+00 0.17479522E+04</pdfrwt>
<totfact> 0.74513047E+00</totfact>
</mgrwt>
</event>
<event>
12    4  0.4320235E-008  0.1249246E+04  0.7818608E-02  0.9070811E-01
         -2   -1    0    0    0  501 -0.00000000000E+00  0.00000000000E+00  0.14940540110E+03  0.14940540110E+03  0.00000000000E+00 0.  1.
          1   -1    0    0  501    0  0.00000000000E+00 -0.00000000000E+00 -0.26113793330E+04  0.26113793330E+04  0.00000000000E+00 0. -1.
        -24    2    1    2    0    0 -0.15870636652E+03 -0.12603771528E+02 -0.54916465588E+02  0.18635574439E+03  0.79787714882E+02 0.  0.
        254    2    1    2    0    0  0.15870636652E+03  0.12603771528E+02 -0.24070574663E+04  0.25744289897E+04  0.89911757358E+03 0.  0.
         23    2    4    4    0    0  0.21483513810E+03 -0.41363015204E+03 -0.12593619878E+04  0.13459261274E+04  0.90997169982E+02 0.  0.
         23    2    4    4    0    0 -0.56128771581E+02  0.42623392357E+03 -0.11476954785E+04  0.12285028623E+04  0.84785462396E+02 0.  0.
          3    1    3    3  502    0 -0.66655776035E+02 -0.36525782099E+02  0.10268282152E+01  0.76014338206E+02  0.00000000000E+00 0. -1.
         -2    1    3    3    0  502 -0.92050590483E+02  0.23922010571E+02 -0.55943293803E+02  0.11034140619E+03  0.00000000000E+00 0.  1.
         11    1    5    5    0    0  0.10649216580E+03 -0.17974201442E+03 -0.68997471475E+03  0.72091114579E+03  0.00000000000E+00 0. -1.
        -11    1    5    5    0    0  0.10834297229E+03 -0.23388813763E+03 -0.56938727302E+03  0.62501498161E+03  0.00000000000E+00 0.  1.
          1    1    6    6  503    0 -0.71489330706E+02  0.24601789559E+03 -0.62879559522E+03  0.67898411611E+03  0.00000000000E+00 0. -1.
         -1    1    6    6    0  503  0.15360559125E+02  0.18021602799E+03 -0.51889988332E+03  0.54951874621E+03  0.00000000000E+00 0.  1.
<mgrwt>
<rscale>  0 0.12492465E+04</rscale>
<asrwt>0</asrwt>
<pdfrwt beam="1">  1        1 0.40175065E+00 0.12492465E+04</pdfrwt>
<pdfrwt beam="2">  1       -2 0.22985447E-01 0.12492465E+04</pdfrwt>
<totfact> 0.16484317E+01</totfact>
</mgrwt>
</event>
<event>
12    4  0.4320235E-008  0.1615499E+04  0.7818608E-02  0.8811083E-01
         -2   -1    0    0    0  501 -0.00000000000E+00  0.00000000000E+00  0.19195974905E+04  0.19195974905E+04  0.00000000000E+00 0.  1.
          1   -1    0    0  501    0  0.00000000000E+00 -0.00000000000E+00 -0.33989376270E+03  0.33989376270E+03  0.00000000000E+00 0. -1.
        -24    2    1    2    0    0  0.57500672473E+02  0.43122132470E+03  0.10610396783E+04  0.11494518338E+04  0.78588556014E+02 0.  0.
        254    2    1    2    0    0 -0.57500672473E+02 -0.43122132470E+03  0.51866404948E+03  0.11100394194E+04  0.87972550156E+03 0.  0.
         23    2    4    4    0    0 -0.30710789649E+03 -0.38605814995E+03  0.64039274627E+03  0.81396383024E+03  0.95279023055E+02 0.  0.
         23    2    4    4    0    0  0.24960722401E+03 -0.45163174743E+02 -0.12172869679E+03  0.29607558911E+03  0.92192191721E+02 0.  0.
          3    1    3    3  502    0  0.96763222560E+01  0.14241032776E+03  0.26014283077E+03  0.29672988569E+03  0.00000000000E+00 0. -1.
         -4    1    3    3    0  502  0.47824350217E+02  0.28881099694E+03  0.80089684752E+03  0.85272194812E+03  0.00000000000E+00 0.  1.
         11    1    5    5    0    0 -0.18716195006E+03 -0.29556691553E+03  0.41084260326E+03  0.53961193627E+03  0.00000000000E+00 0. -1.
        -11    1    5    5    0    0 -0.11994594643E+03 -0.90491234422E+02  0.22955014301E+03  0.27435189398E+03  0.00000000000E+00 0.  1.
          4    1    6    6  503    0  0.54082278607E+02  0.11353684853E+02  0.63122210452E+01  0.55620528167E+02  0.00000000000E+00 0. -1.
         -4    1    6    6    0  503  0.19552494541E+03 -0.56516859596E+02 -0.12804091783E+03  0.24045506095E+03  0.00000000000E+00 0.  1.
<mgrwt>
<rscale>  0 0.16154989E+04</rscale>
<asrwt>0</asrwt>
<pdfrwt beam="1">  1        1 0.52291349E-01 0.16154989E+04</pdfrwt>
<pdfrwt beam="2">  1       -2 0.29532268E+00 0.16154989E+04</pdfrwt>
<totfact> 0.21215723E+00</totfact>
</mgrwt>
</event>
<event>
12    4  0.4320235E-008  0.1422303E+04  0.7818608E-02  0.8937831E-01
         -2   -1    0    0    0  501 -0.00000000000E+00  0.00000000000E+00  0.14669536392E+03  0.14669536392E+03  0.00000000000E+00 0.  1.
          1   -1    0    0  501    0  0.00000000000E+00 -0.00000000000E+00 -0.34475265200E+04  0.34475265200E+04  0.00000000000E+00 0. -1.
        -24    2    1    2    0    0  0.14311525168E+03  0.17703543089E+03 -0.10231148253E+03  0.26214311251E+03  0.80173891790E+02 0.  0.
        254    2    1    2    0    0 -0.14311525168E+03 -0.17703543089E+03 -0.31985196736E+04  0.33320787714E+04  0.90575786924E+03 0.  0.
         23    2    4    4    0    0 -0.48300418603E+03 -0.26112771997E+03 -0.16299316174E+04  0.17222923892E+04  0.90184625331E+02 0.  0.
         23    2    4    4    0    0  0.33988893435E+03  0.84092289085E+02 -0.15685880562E+04  0.16097863822E+04  0.91365779331E+02 0.  0.
          1    1    3    3  502    0  0.56448068672E+02  0.29107408752E+02 -0.55694598890E+02  0.84471971959E+02  0.00000000000E+00 0. -1.
         -2    1    3    3    0  502  0.86667183010E+02  0.14792802214E+03 -0.46616883637E+02  0.17767114055E+03  0.00000000000E+00 0.  1.
         11    1    5    5    0    0 -0.36737200323E+03 -0.23497754863E+03 -0.13351508606E+04  0.14045655761E+04  0.00000000000E+00 0.  1.
        -11    1    5    5    0    0 -0.11563218280E+03 -0.26150171346E+02 -0.29478075684E+03  0.31772681310E+03  0.00000000000E+00 0. -1.
          3    1    6    6  503    0  0.13485883107E+03  0.41657533557E+02 -0.83738329098E+03  0.84919551955E+03  0.00000000000E+00 0. -1.
         -3    1    6    6    0  503  0.20503010328E+03  0.42434755527E+02 -0.73120476519E+03  0.76059086266E+03  0.00000000000E+00 0.  1.
<mgrwt>
<rscale>  0 0.14223026E+04</rscale>
<asrwt>0</asrwt>
<pdfrwt beam="1">  1        1 0.53038868E+00 0.14223026E+04</pdfrwt>
<pdfrwt beam="2">  1       -2 0.22568518E-01 0.14223026E+04</pdfrwt>
<totfact> 0.41046922E+00</totfact>
</mgrwt>
</event>
<event>
12    4  0.4320235E-008  0.1659431E+04  0.7818608E-02  0.8784847E-01
          1   -1    0    0  501    0  0.00000000000E+00  0.00000000000E+00  0.93193575335E+03  0.93193575335E+03  0.00000000000E+00 0. -1.
         -2   -1    0    0    0  501 -0.00000000000E+00 -0.00000000000E+00 -0.73870763592E+03  0.73870763592E+03  0.00000000000E+00 0.  1.
        -24    2    1    2    0    0  0.23085451954E+03 -0.18113012133E+03 -0.44245978454E+03  0.53644040840E+03  0.76783597105E+02 0.  0.
        254    2    1    2    0    0 -0.23085451954E+03  0.18113012133E+03  0.63568790196E+03  0.11342029809E+04  0.89230900650E+03 0.  0.
         23    2    4    4    0    0 -0.28364936883E+03 -0.54469560224E+02  0.78114973165E+03  0.83784736066E+03  0.91484419850E+02 0.  0.
         23    2    4    4    0    0  0.52794849282E+02  0.23559968155E+03 -0.14546182969E+03  0.29635562021E+03  0.91504118352E+02 0.  0.
          1    1    3    3  502    0  0.25289190821E+02 -0.27464343155E+02 -0.11176951120E+03  0.11783996331E+03  0.00000000000E+00 0. -1.
         -2    1    3    3    0  502  0.20556532872E+03 -0.15366577817E+03 -0.33069027333E+03  0.41860044509E+03  0.00000000000E+00 0.  1.
         11    1    5    5    0    0 -0.14516772615E+03 -0.19104437333E+02  0.27065206846E+03  0.30771933706E+03  0.00000000000E+00 0. -1.
        -11    1    5    5    0    0 -0.13848164268E+03 -0.35365122891E+02  0.51049766319E+03  0.53012802359E+03  0.00000000000E+00 0.  1.
          4    1    6    6  503    0  0.74624993308E+02  0.12619445111E+03 -0.84859318787E+02  0.16939608349E+03  0.00000000000E+00 0. -1.
         -4    1    6    6    0  503 -0.21830144026E+02  0.10940523044E+03 -0.60602510907E+02  0.12695953672E+03  0.00000000000E+00 0.  1.
<mgrwt>
<rscale>  0 0.16594313E+04</rscale>
<asrwt>0</asrwt>
<pdfrwt beam="1">  1        1 0.14337473E+00 0.16594313E+04</pdfrwt>
<pdfrwt beam="2">  1       -2 0.11364733E+00 0.16594313E+04</pdfrwt>
<totfact> 0.87045496E+00</totfact>
</mgrwt>
</event>
<event>
12    4  0.4320235E-008  0.2145348E+04  0.7818608E-02  0.8541526E-01
          1   -1    0    0  501    0  0.00000000000E+00  0.00000000000E+00  0.21391583082E+04  0.21391583082E+04  0.00000000000E+00 0. -1.
         -4   -1    0    0    0  501 -0.00000000000E+00 -0.00000000000E+00 -0.53788906819E+03  0.53788906819E+03  0.00000000000E+00 0.  1.
        -24    2    1    2    0    0  0.58474681509E+03 -0.71785567725E+03  0.88937813355E+03  0.12863311510E+04  0.80054696111E+02 0.  0.
        254    2    1    2    0    0 -0.58474681509E+03  0.71785567725E+03  0.71189110648E+03  0.13907162254E+04  0.75502123221E+03 0.  0.
         23    2    4    4    0    0  0.11151311966E+03  0.39429027723E+03  0.28594438778E+03  0.50791837472E+03  0.91196951143E+02 0.  0.
         23    2    4    4    0    0 -0.69625993475E+03  0.32356540002E+03  0.42594671870E+03  0.88279785073E+03  0.91809439842E+02 0.  0.
          3    1    3    3  502    0  0.26095167108E+03 -0.32461490404E+03  0.34540236856E+03  0.54108539693E+03  0.00000000000E+00 0. -1.
         -4    1    3    3    0  502  0.32379514401E+03 -0.39324077321E+03  0.54397576499E+03  0.74524575403E+03  0.00000000000E+00 0.  1.
         11    1    5    5    0    0  0.11753308969E+03  0.27980961556E+03  0.18694412195E+03  0.35644852765E+03  0.00000000000E+00 0. -1.
        -11    1    5    5    0    0 -0.60199700378E+01  0.11448066168E+03  0.99000265827E+02  0.15146984707E+03  0.00000000000E+00 0.  1.
          4    1    6    6  503    0 -0.36113188885E+03  0.16442540343E+03  0.27229286758E+03  0.48124355599E+03  0.00000000000E+00 0. -1.
         -4    1    6    6    0  503 -0.33512804590E+03  0.15913999659E+03  0.15365385112E+03  0.40155429474E+03  0.00000000000E+00 0.  1.
<mgrwt>
<rscale>  0 0.21453483E+04</rscale>
<asrwt>0</asrwt>
<pdfrwt beam="1">  1        1 0.32910127E+00 0.21453483E+04</pdfrwt>
<pdfrwt beam="2">  1       -4 0.82752165E-01 0.21453483E+04</pdfrwt>
<totfact> 0.13904493E+00</totfact>
</mgrwt>
</event>
<event>
12    4  0.4320235E-008  0.1582294E+04  0.7818608E-02  0.8831500E-01
          1   -1    0    0  501    0  0.00000000000E+00  0.00000000000E+00  0.26948186581E+04  0.26948186581E+04  0.00000000000E+00 0. -1.
         -2   -1    0    0    0  501 -0.00000000000E+00 -0.00000000000E+00 -0.23226556268E+03  0.23226556268E+03  0.00000000000E+00 0.  1.
        -24    2    1    2    0    0  0.46294110404E+03  0.24560804244E+03  0.71106305034E+03  0.88674396209E+03  0.77887203169E+02 0.  0.
        254    2    1    2    0    0 -0.46294110404E+03 -0.24560804244E+03  0.17514900450E+04  0.20403402586E+04  0.90588808186E+03 0.  0.
         23    2    4    4    0    0  0.25700501850E+03  0.19798697790E+02  0.48578937248E+03  0.55742844368E+03  0.91058154210E+02 0.  0.
         23    2    4    4    0    0 -0.71994612255E+03 -0.26540674023E+03  0.12657006726E+04  0.14829118150E+04  0.90918102129E+02 0.  0.
          1    1    3    3  502    0  0.42304305191E+03  0.20565731799E+03  0.60247037346E+03  0.76434998993E+03  0.00000000000E+00 0. -1.
         -2    1    3    3    0  502  0.39898052132E+02  0.39950724447E+02  0.10859267688E+03  0.12239397216E+03  0.00000000000E+00 0.  1.
         11    1    5    5    0    0  0.19783982859E+03 -0.21835683610E+02  0.32489673779E+03  0.38101874637E+03  0.00000000000E+00 0. -1.
        -11    1    5    5    0    0  0.59165189910E+02  0.41634381400E+02  0.16089263468E+03  0.17640969732E+03  0.00000000000E+00 0.  1.
          3    1    6    6  503    0 -0.70443962763E+03 -0.27026353570E+03  0.12205761877E+04  0.14349507998E+04  0.00000000000E+00 0. -1.
         -3    1    6    6    0  503 -0.15506494915E+02  0.48567954705E+01  0.45124484823E+02  0.47961015183E+02  0.00000000000E+00 0.  1.
<mgrwt>
<rscale>  0 0.15822940E+04</rscale>
<asrwt>0</asrwt>
<pdfrwt beam="1">  1        1 0.41458746E+00 0.15822940E+04</pdfrwt>
<pdfrwt beam="2">  1       -2 0.35733165E-01 0.15822940E+04</pdfrwt>
<totfact> 0.61675792E+00</totfact>
</mgrwt>
</event>
<event>
12    4  0.4320235E-008  0.1429925E+04  0.7818608E-02  0.8932437E-01
          1   -1    0    0  501    0  0.00000000000E+00  0.00000000000E+00  0.11346205625E+04  0.11346205625E+04  0.00000000000E+00 0. -1.
         -2   -1    0    0    0  501 -0.00000000000E+00 -0.00000000000E+00 -0.45052210577E+03  0.45052210577E+03  0.00000000000E+00 0.  1.
        -24    2    1    2    0    0  0.79989983933E+02 -0.17888707283E+03  0.64941634060E+03  0.68299287692E+03  0.79615979101E+02 0.  0.
        254    2    1    2    0    0 -0.79989983933E+02  0.17888707283E+03  0.34682116179E+02  0.90214979139E+03  0.87992750529E+03 0.  0.
         23    2    4    4    0    0  0.26496125841E+02  0.40294045050E+03 -0.27366378084E+03  0.49636205988E+03  0.91762618836E+02 0.  0.
         23    2    4    4    0    0 -0.10648610977E+03 -0.22405337766E+03  0.30834589702E+03  0.40578773150E+03  0.89706650875E+02 0.  0.
          3    1    3    3  502    0  0.70184037999E+02 -0.18139024847E+03  0.55613449509E+03  0.58916364286E+03  0.00000000000E+00 0. -1.
         -4    1    3    3    0  502  0.98059459333E+01  0.25031756372E+01  0.93281845506E+02  0.93829234063E+02  0.00000000000E+00 0.  1.
         11    1    5    5    0    0  0.59304644660E+02  0.20282926576E+03 -0.13903552383E+03  0.25295776093E+03  0.00000000000E+00 0.  1.
        -11    1    5    5    0    0 -0.32808518819E+02  0.20011118473E+03 -0.13462825702E+03  0.24340429896E+03  0.00000000000E+00 0. -1.
          4    1    6    6  503    0 -0.10934665790E+02 -0.12399814428E+02  0.74174267134E+02  0.75994369651E+02  0.00000000000E+00 0. -1.
         -4    1    6    6    0  503 -0.95551443984E+02 -0.21165356323E+03  0.23417162989E+03  0.32979336185E+03  0.00000000000E+00 0.  1.
<mgrwt>
<rscale>  0 0.14299254E+04</rscale>
<asrwt>0</asrwt>
<pdfrwt beam="1">  1        1 0.17455701E+00 0.14299254E+04</pdfrwt>
<pdfrwt beam="2">  1       -2 0.69311093E-01 0.14299254E+04</pdfrwt>
<totfact> 0.19352944E+01</totfact>
</mgrwt>
</event>
<event>
12    4  0.4320235E-008  0.2267698E+04  0.7818608E-02  0.8490767E-01
          1   -1    0    0  501    0  0.00000000000E+00  0.00000000000E+00  0.23707812639E+04  0.23707812639E+04  0.00000000000E+00 0. -1.
         -2   -1    0    0    0  501 -0.00000000000E+00 -0.00000000000E+00 -0.54227418013E+03  0.54227418013E+03  0.00000000000E+00 0.  1.
        -24    2    1    2    0    0 -0.51569983029E+03  0.69824981753E+03  0.12940356966E+04  0.15602671688E+04  0.80038311459E+02 0.  0.
        254    2    1    2    0    0  0.51569983029E+03 -0.69824981753E+03  0.53447138720E+03  0.13527882753E+04  0.88931284220E+03 0.  0.
         23    2    4    4    0    0  0.61678167555E+02  0.24884963047E+02  0.47990517039E+03  0.49291231049E+03  0.90719984136E+02 0.  0.
         23    2    4    4    0    0  0.45402166274E+03 -0.72313478058E+03  0.54566216807E+02  0.85987596477E+03  0.85729934457E+02 0.  0.
          1    1    3    3  502    0 -0.33761787510E+03  0.44116265194E+03  0.89317037378E+03  0.10518382155E+04  0.00000000000E+00 0. -1.
         -2    1    3    3    0  502 -0.17808195519E+03  0.25708716560E+03  0.40086532280E+03  0.50842895325E+03  0.00000000000E+00 0.  1.
         11    1    5    5    0    0  0.53253911050E+02  0.13433571808E+00  0.11133385997E+03  0.12341485107E+03  0.00000000000E+00 0.  1.
        -11    1    5    5    0    0  0.84242565045E+01  0.24750627329E+02  0.36857131043E+03  0.36949745942E+03  0.00000000000E+00 0. -1.
          3    1    6    6  503    0  0.38812211028E+03 -0.55435431421E+03  0.34813495311E+02  0.67761305892E+03  0.00000000000E+00 0. -1.
         -3    1    6    6    0  503  0.65899552461E+02 -0.16878046637E+03  0.19752721496E+02  0.18226290585E+03  0.00000000000E+00 0.  1.
<mgrwt>
<rscale>  0 0.22676979E+04</rscale>
<asrwt>0</asrwt>
<pdfrwt beam="1">  1        1 0.36473557E+00 0.22676979E+04</pdfrwt>
<pdfrwt beam="2">  1       -2 0.83426798E-01 0.22676979E+04</pdfrwt>
<totfact> 0.16662350E+00</totfact>
</mgrwt>
</event>
<event>
12    4  0.4320235E-008  0.1961691E+04  0.7818608E-02  0.8624744E-01
         -4   -1    0    0    0  501 -0.00000000000E+00  0.00000000000E+00  0.39708716590E+03  0.39708716590E+03  0.00000000000E+00 0.  1.
          3   -1    0    0  501    0  0.00000000000E+00 -0.00000000000E+00 -0.24227876354E+04  0.24227876354E+04  0.00000000000E+00 0. -1.
        -24    2    1    2    0    0 -0.36001577086E+02  0.72945877362E+03 -0.12060031940E+04  0.14121338343E+04  0.79196250882E+02 0.  0.
        254    2    1    2    0    0  0.36001577086E+02 -0.72945877362E+03 -0.81969727551E+03  0.14077409670E+04  0.88114969819E+03 0.  0.
         23    2    4    4    0    0  0.22485894618E+03 -0.43971019184E+03  0.11964898154E+02  0.50231234811E+03  0.90928201305E+02 0.  0.
         23    2    4    4    0    0 -0.18885736910E+03 -0.28974858179E+03 -0.83166217366E+03  0.90542861885E+03  0.92291203419E+02 0.  0.
          1    1    3    3  502    0 -0.46024283273E+02  0.62600824305E+03 -0.98650441436E+03  0.11692713605E+04  0.00000000000E+00 0. -1.
         -2    1    3    3    0  502  0.10022706186E+02  0.10345053057E+03 -0.21949877960E+03  0.24286247376E+03  0.00000000000E+00 0.  1.
         11    1    5    5    0    0  0.13045945819E+03 -0.21233118437E+03  0.47108699309E+02  0.25362064513E+03  0.00000000000E+00 0. -1.
        -11    1    5    5    0    0  0.94399487992E+02 -0.22737900747E+03 -0.35143801155E+02  0.24869170298E+03  0.00000000000E+00 0.  1.
          1    1    6    6  503    0 -0.12923195233E+03 -0.25570013618E+03 -0.62205475558E+03  0.68486172042E+03  0.00000000000E+00 0. -1.
         -1    1    6    6    0  503 -0.59625416770E+02 -0.34048445604E+02 -0.20960741808E+03  0.22056689844E+03  0.00000000000E+00 0.  1.
<mgrwt>
<rscale>  0 0.19616910E+04</rscale>
<asrwt>0</asrwt>
<pdfrwt beam="1">  1        3 0.37273656E+00 0.19616910E+04</pdfrwt>
<pdfrwt beam="2">  1       -4 0.61090334E-01 0.19616910E+04</pdfrwt>
<totfact> 0.84086235E-02</totfact>
</mgrwt>
</event>
<event>
12    4  0.4320235E-008  0.2254653E+04  0.7818608E-02  0.8496018E-01
          1   -1    0    0  501    0  0.00000000000E+00  0.00000000000E+00  0.12889507100E+04  0.12889507100E+04  0.00000000000E+00 0. -1.
         -2   -1    0    0    0  501 -0.00000000000E+00 -0.00000000000E+00 -0.98596896972E+03  0.98596896972E+03  0.00000000000E+00 0.  1.
        -24    2    1    2    0    0  0.34750551368E+03  0.19458432513E+03  0.99711517202E+03  0.10766368723E+04  0.79278918466E+02 0.  0.
        254    2    1    2    0    0 -0.34750551368E+03 -0.19458432513E+03 -0.69413343176E+03  0.11982828074E+04  0.89187293031E+03 0.  0.
         23    2    4    4    0    0 -0.33366391841E+03 -0.52207845785E+03 -0.36531634871E+03  0.72514783098E+03  0.92118486469E+02 0.  0.
         23    2    4    4    0    0 -0.13841595268E+02  0.32749413272E+03 -0.32881708305E+03  0.47313497642E+03  0.91060612135E+02 0.  0.
          1    1    3    3  502    0  0.13564500601E+03  0.10036926801E+03  0.33501621136E+03  0.37511254243E+03  0.00000000000E+00 0. -1.
         -2    1    3    3    0  502  0.21186050767E+03  0.94215057121E+02  0.66209896066E+03  0.70152432988E+03  0.00000000000E+00 0.  1.
         11    1    5    5    0    0 -0.65354098727E+02 -0.68811352071E+02 -0.90075836007E+02  0.13084271713E+03  0.00000000000E+00 0.  1.
        -11    1    5    5    0    0 -0.26830981968E+03 -0.45326710578E+03 -0.27524051270E+03  0.59430511385E+03  0.00000000000E+00 0. -1.
          4    1    6    6  503    0 -0.34495125960E+02  0.28733358154E+03 -0.31035324743E+03  0.42434613111E+03  0.00000000000E+00 0. -1.
         -4    1    6    6    0  503  0.20653530692E+02  0.40160551183E+02 -0.18463835617E+02  0.48788845315E+02  0.00000000000E+00 0.  1.
<mgrwt>
<rscale>  0 0.22546533E+04</rscale>
<asrwt>0</asrwt>
<pdfrwt beam="1">  1        1 0.19830011E+00 0.22546533E+04</pdfrwt>
<pdfrwt beam="2">  1       -2 0.15168753E+00 0.22546533E+04</pdfrwt>
<totfact> 0.21334579E+00</totfact>
</mgrwt>
</event>
<event>
12    4  0.5118541E-008  0.1676104E+04  0.7818608E-02  0.8775112E-01
          1   -1    0    0  501    0  0.00000000000E+00  0.00000000000E+00  0.16223580105E+04  0.16223580105E+04  0.00000000000E+00 0. -1.
         -2   -1    0    0    0  501 -0.00000000000E+00 -0.00000000000E+00 -0.43290752146E+03  0.43290752146E+03  0.00000000000E+00 0.  1.
        -24    2    1    2    0    0  0.61982668476E+02  0.45706886141E+03 -0.34606954295E+02  0.46932580512E+03  0.79468703283E+02 0.  0.
        254    2    1    2    0    0 -0.61982668476E+02 -0.45706886141E+03  0.12240574434E+04  0.15859397269E+04  0.89673541100E+03 0.  0.
         23    2    4    4    0    0  0.39319282755E+03 -0.34433080010E+03  0.63732650503E+03  0.82921064039E+03  0.90779472265E+02 0.  0.
         23    2    4    4    0    0 -0.45517549603E+03 -0.11273806131E+03  0.58673093836E+03  0.75672908649E+03  0.92147239077E+02 0.  0.
          3    1    3    3  502    0 -0.74136795167E+01  0.10607627102E+03 -0.33666838082E+02  0.11153741033E+03  0.00000000000E+00 0. -1.
         -4    1    3    3    0  502  0.69396347992E+02  0.35099259039E+03 -0.94011621230E+00  0.35778839479E+03  0.00000000000E+00 0.  1.
         11    1    5    5    0    0  0.14795922390E+02 -0.46784656895E+02  0.56155911313E+02  0.74573519533E+02  0.00000000000E+00 0. -1.
        -11    1    5    5    0    0  0.37839690516E+03 -0.29754614321E+03  0.58117059372E+03  0.75463712086E+03  0.00000000000E+00 0.  1.
          2    1    6    6  503    0 -0.39340774067E+01  0.91755663678E+01  0.17825908420E+02  0.20431128070E+02  0.00000000000E+00 0. -1.
         -2    1    6    6    0  503 -0.45124141862E+03 -0.12191362767E+03  0.56890502994E+03  0.73629795842E+03  0.00000000000E+00 0.  1.
<mgrwt>
<rscale>  0 0.16761038E+04</rscale>
<asrwt>0</asrwt>
<pdfrwt beam="1">  1        1 0.24959354E+00 0.16761038E+04</pdfrwt>
<pdfrwt beam="2">  1       -2 0.66601158E-01 0.16761038E+04</pdfrwt>
<totfact> 0.93371264E+00</totfact>
</mgrwt>
</event>
<event>
12    4  0.4320235E-008  0.1408719E+04  0.7818608E-02  0.8947531E-01
          1   -1    0    0  501    0  0.00000000000E+00  0.00000000000E+00  0.36976849013E+03  0.36976849013E+03  0.00000000000E+00 0. -1.
         -2   -1    0    0    0  501 -0.00000000000E+00 -0.00000000000E+00 -0.13417102973E+04  0.13417102973E+04  0.00000000000E+00 0.  1.
        -24    2    1    2    0    0 -0.33747531926E+03  0.34179303304E+03 -0.33663069977E+03  0.59276440765E+03  0.85658311926E+02 0.  0.
        254    2    1    2    0    0  0.33747531926E+03 -0.34179303304E+03 -0.63531110741E+03  0.11187143798E+04  0.78561414946E+03 0.  0.
         23    2    4    4    0    0 -0.18023660859E+03 -0.24144628065E+03 -0.45751100719E+03  0.55480607525E+03  0.87817526248E+02 0.  0.
         23    2    4    4    0    0  0.51771192784E+03 -0.10034675239E+03 -0.17780010022E+03  0.56390830455E+03  0.91019719619E+02 0.  0.
          1    1    3    3  502    0 -0.24838035459E+03  0.25597684312E+03 -0.20188418878E+03  0.40984652059E+03  0.00000000000E+00 0. -1.
         -2    1    3    3    0  502 -0.89094964664E+02  0.85816189920E+02 -0.13474651099E+03  0.18291788705E+03  0.00000000000E+00 0.  1.
         11    1    5    5    0    0 -0.73395415954E+02 -0.13002712084E+03 -0.15519333656E+03  0.21535763499E+03  0.00000000000E+00 0.  1.
        -11    1    5    5    0    0 -0.10684119263E+03 -0.11141915981E+03 -0.30231767063E+03  0.33944844026E+03  0.00000000000E+00 0. -1.
          3    1    6    6  503    0  0.50366100003E+03 -0.90317580880E+02 -0.18644214612E+03  0.54460292160E+03  0.00000000000E+00 0. -1.
         -3    1    6    6    0  503  0.14050927810E+02 -0.10029171511E+02  0.86420458980E+01  0.19305382949E+02  0.00000000000E+00 0.  1.
<mgrwt>
<rscale>  0 0.14087188E+04</rscale>
<asrwt>0</asrwt>
<pdfrwt beam="1">  1        1 0.56887459E-01 0.14087188E+04</pdfrwt>
<pdfrwt beam="2">  1       -2 0.20641697E+00 0.14087188E+04</pdfrwt>
<totfact> 0.68426158E+00</totfact>
</mgrwt>
</event>
<event>
12    4  0.4320235E-008  0.1614256E+04  0.7818608E-02  0.8811838E-01
         -2   -1    0    0    0  501 -0.00000000000E+00  0.00000000000E+00  0.93783809670E+03  0.93783809670E+03  0.00000000000E+00 0.  1.
          1   -1    0    0  501    0  0.00000000000E+00 -0.00000000000E+00 -0.69463534127E+03  0.69463534127E+03  0.00000000000E+00 0. -1.
        -24    2    1    2    0    0  0.42171896836E+03 -0.13148620493E+03 -0.29196761795E+03  0.53541650205E+03  0.79310972595E+02 0.  0.
        254    2    1    2    0    0 -0.42171896836E+03  0.13148620493E+03  0.53517037337E+03  0.10970569359E+04  0.84970058358E+03 0.  0.
         23    2    4    4    0    0 -0.24064085758E+02 -0.10606043329E+03  0.60273598080E+03  0.61919814812E+03  0.91037291015E+02 0.  0.
         23    2    4    4    0    0 -0.39765488261E+03  0.23754663823E+03 -0.67565607428E+02  0.47785878779E+03  0.96052583365E+02 0.  0.
          3    1    3    3  502    0  0.20276894884E+03 -0.40437039558E+02 -0.96789066749E+02  0.22829481866E+03  0.00000000000E+00 0. -1.
         -4    1    3    3    0  502  0.21895001952E+03 -0.91049165375E+02 -0.19517855120E+03  0.30712168340E+03  0.00000000000E+00 0.  1.
         11    1    5    5    0    0  0.20370562441E+02 -0.57688818139E+02  0.43116871935E+03  0.43548757055E+03  0.00000000000E+00 0.  1.
        -11    1    5    5    0    0 -0.44434648199E+02 -0.48371615154E+02  0.17156726145E+03  0.18371057758E+03  0.00000000000E+00 0. -1.
          3    1    6    6  503    0 -0.33574860610E+01  0.47064178340E+01 -0.16046265240E+02  0.17055958186E+02  0.00000000000E+00 0. -1.
         -3    1    6    6    0  503 -0.39429739655E+03  0.23284022039E+03 -0.51519342188E+02  0.46080282961E+03  0.00000000000E+00 0.  1.
<mgrwt>
<rscale>  0 0.16142558E+04</rscale>
<asrwt>0</asrwt>
<pdfrwt beam="1">  1        1 0.10686697E+00 0.16142558E+04</pdfrwt>
<pdfrwt beam="2">  1       -2 0.14428278E+00 0.16142558E+04</pdfrwt>
<totfact> 0.76752192E+00</totfact>
</mgrwt>
</event>
<event>
12    4  0.4320235E-008  0.1771322E+04  0.7818608E-02  0.8721700E-01
         -2   -1    0    0    0  501 -0.00000000000E+00  0.00000000000E+00  0.45809975641E+03  0.45809975641E+03  0.00000000000E+00 0.  1.
          1   -1    0    0  501    0  0.00000000000E+00 -0.00000000000E+00 -0.17122816874E+04  0.17122816874E+04  0.00000000000E+00 0. -1.
        -24    2    1    2    0    0 -0.45442189437E+03  0.45878058894E+03 -0.58921314062E+03  0.87770422666E+03  0.78827010228E+02 0.  0.
        254    2    1    2    0    0  0.45442189437E+03 -0.45878058894E+03 -0.66496879035E+03  0.12926772171E+04  0.90102830625E+03 0.  0.
         23    2    4    4    0    0  0.20414600653E+03 -0.36614364977E+02  0.19347355637E+03  0.29962877489E+03  0.96587690854E+02 0.  0.
         23    2    4    4    0    0  0.25027588785E+03 -0.42216622397E+03 -0.85844234672E+03  0.99304844224E+03  0.91430877122E+02 0.  0.
          1    1    3    3  502    0 -0.11458470892E+03  0.14203609803E+03 -0.12670942565E+03  0.22216927603E+03  0.00000000000E+00 0. -1.
         -2    1    3    3    0  502 -0.33983718546E+03  0.31674449091E+03 -0.46250371496E+03  0.65553495063E+03  0.00000000000E+00 0.  1.
         11    1    5    5    0    0  0.69826076974E+02  0.33257605431E+02  0.68169911473E+02  0.10309648963E+03  0.00000000000E+00 0. -1.
        -11    1    5    5    0    0  0.13431992955E+03 -0.69871970408E+02  0.12530364490E+03  0.19653228526E+03  0.00000000000E+00 0.  1.
          3    1    6    6  503    0  0.23758383826E+02 -0.90303433783E+02 -0.11659205139E+03  0.14937495574E+03  0.00000000000E+00 0. -1.
         -3    1    6    6    0  503  0.22651750402E+03 -0.33186279018E+03 -0.74185029533E+03  0.84367348650E+03  0.00000000000E+00 0.  1.
<mgrwt>
<rscale>  0 0.17713225E+04</rscale>
<asrwt>0</asrwt>
<pdfrwt beam="1">  1        1 0.26342795E+00 0.17713225E+04</pdfrwt>
<pdfrwt beam="2">  1       -2 0.70476886E-01 0.17713225E+04</pdfrwt>
<totfact> 0.71091351E+00</totfact>
</mgrwt>
</event>
<event>
12    4  0.4320235E-008  0.1277928E+04  0.7818608E-02  0.9047254E-01
          3   -1    0    0  501    0  0.00000000000E+00  0.00000000000E+00  0.42653559216E+03  0.42653559216E+03  0.00000000000E+00 0. -1.
         -4   -1    0    0    0  501 -0.00000000000E+00 -0.00000000000E+00 -0.95718833399E+03  0.95718833399E+03  0.00000000000E+00 0.  1.
        -24    2    1    2    0    0 -0.26426413898E+03 -0.23534695427E+02 -0.34606140616E+03  0.44338818843E+03  0.80281827168E+02 0.  0.
        254    2    1    2    0    0  0.26426413898E+03  0.23534695427E+02 -0.18459133568E+03  0.94033573772E+03  0.88304468822E+03 0.  0.
         23    2    4    4    0    0  0.53276009778E+03 -0.11057007192E+03  0.41788405057E+02  0.55318128337E+03  0.90577032838E+02 0.  0.
         23    2    4    4    0    0 -0.26849595881E+03  0.13410476735E+03 -0.22637974074E+03  0.38715445435E+03  0.92556015415E+02 0.  0.
          3    1    3    3  502    0 -0.61053058576E+02 -0.32821468041E+01 -0.32647297510E+02  0.69311575396E+02  0.00000000000E+00 0. -1.
         -4    1    3    3    0  502 -0.20321108040E+03 -0.20252548623E+02 -0.31341410865E+03  0.37407661304E+03  0.00000000000E+00 0.  1.
         11    1    5    5    0    0  0.60684208381E+02  0.10402756853E+02  0.22229341175E+02  0.65459408079E+02  0.00000000000E+00 0. -1.
        -11    1    5    5    0    0  0.47207588940E+03 -0.12097282877E+03  0.19559063882E+02  0.48772187529E+03  0.00000000000E+00 0.  1.
          3    1    6    6  503    0 -0.13456190663E+03  0.22529769645E+02 -0.12753422131E+03  0.18676047451E+03  0.00000000000E+00 0. -1.
         -3    1    6    6    0  503 -0.13393405218E+03  0.11157499770E+03 -0.98845519423E+02  0.20039397984E+03  0.00000000000E+00 0.  1.
<mgrwt>
<rscale>  0 0.12779278E+04</rscale>
<asrwt>0</asrwt>
<pdfrwt beam="1">  1        3 0.65620860E-01 0.12779278E+04</pdfrwt>
<pdfrwt beam="2">  1       -4 0.14725974E+00 0.12779278E+04</pdfrwt>
<totfact> 0.15758816E+00</totfact>
</mgrwt>
</event>
<event>
12    4  0.4320235E-008  0.1243245E+04  0.7818608E-02  0.9075824E-01
         -2   -1    0    0    0  501 -0.00000000000E+00  0.00000000000E+00  0.10351306937E+03  0.10351306937E+03  0.00000000000E+00 0.  1.
          1   -1    0    0  501    0  0.00000000000E+00 -0.00000000000E+00 -0.37330014495E+04  0.37330014495E+04  0.00000000000E+00 0. -1.
        -24    2    1    2    0    0  0.74908856803E+02  0.27858222917E+03 -0.97703111245E+03  0.10215271898E+04  0.75555340924E+02 0.  0.
        254    2    1    2    0    0 -0.74908856803E+02 -0.27858222917E+03 -0.26524572677E+04  0.28149873291E+04  0.89744343041E+03 0.  0.
         23    2    4    4    0    0  0.37763691593E+03 -0.25658925724E+03 -0.10855686581E+04  0.11812625791E+04  0.92055864619E+02 0.  0.
         23    2    4    4    0    0 -0.45254577273E+03 -0.21992971931E+02 -0.15668886097E+04  0.16337247500E+04  0.92926188518E+02 0.  0.
          3    1    3    3  502    0  0.68872780808E+02  0.23403214721E+03 -0.89858356277E+03  0.93111058696E+03  0.00000000000E+00 0. -1.
         -4    1    3    3    0  502  0.60360759943E+01  0.44550081966E+02 -0.78447549671E+02  0.90416602823E+02  0.00000000000E+00 0.  1.
         11    1    5    5    0    0  0.83423097381E+02 -0.88102743800E+02 -0.37108570301E+03  0.39041786027E+03  0.00000000000E+00 0. -1.
        -11    1    5    5    0    0  0.29421381855E+03 -0.16848651344E+03 -0.71448295505E+03  0.79084471883E+03  0.00000000000E+00 0.  1.
          4    1    6    6  503    0 -0.93746473173E+02 -0.35396345787E+02 -0.42825493934E+03  0.43982223181E+03  0.00000000000E+00 0. -1.
         -4    1    6    6    0  503 -0.35879929956E+03  0.13403373856E+02 -0.11386336703E+04  0.11939025182E+04  0.00000000000E+00 0.  1.
<mgrwt>
<rscale>  0 0.12432448E+04</rscale>
<asrwt>0</asrwt>
<pdfrwt beam="1">  1        1 0.57430789E+00 0.12432448E+04</pdfrwt>
<pdfrwt beam="2">  1       -2 0.15925088E-01 0.12432448E+04</pdfrwt>
<totfact> 0.45667614E+00</totfact>
</mgrwt>
</event>
<event>
12    4  0.4320235E-008  0.2277762E+04  0.7818608E-02  0.8486741E-01
         -2   -1    0    0    0  501 -0.00000000000E+00  0.00000000000E+00  0.76065931803E+03  0.76065931803E+03  0.00000000000E+00 0.  1.
          1   -1    0    0  501    0  0.00000000000E+00 -0.00000000000E+00 -0.17051649233E+04  0.17051649233E+04  0.00000000000E+00 0. -1.
        -24    2    1    2    0    0  0.42415836289E+03 -0.68922993457E+03 -0.96017280254E+03  0.12577277134E+04  0.70703399404E+02 0.  0.
        254    2    1    2    0    0 -0.42415836289E+03  0.68922993457E+03  0.15667197279E+02  0.12080965280E+04  0.89682971646E+03 0.  0.
         23    2    4    4    0    0  0.12955944403E+03  0.15388847605E+03  0.30698055095E+03  0.37855533532E+03  0.92734948308E+02 0.  0.
         23    2    4    4    0    0 -0.55371780691E+03  0.53534145852E+03 -0.29131335367E+03  0.82954119266E+03  0.10040534539E+03 0.  0.
          1    1    3    3  502    0  0.29660008334E+03 -0.52373613834E+03 -0.74566830752E+03  0.95827573113E+03  0.00000000000E+00 0. -1.
         -2    1    3    3    0  502  0.12755827955E+03 -0.16549379623E+03 -0.21450449502E+03  0.29945198222E+03  0.00000000000E+00 0.  1.
         11    1    5    5    0    0  0.31406985062E+02  0.28479100251E+02  0.13228773435E+02  0.44412366615E+02  0.00000000000E+00 0. -1.
        -11    1    5    5    0    0  0.98152458965E+02  0.12540937580E+03  0.29375177752E+03  0.33414296870E+03  0.00000000000E+00 0.  1.
          4    1    6    6  503    0 -0.14980993104E+03  0.16879549407E+03 -0.40870158963E+02  0.22935846213E+03  0.00000000000E+00 0. -1.
         -4    1    6    6    0  503 -0.40390787587E+03  0.36654596445E+03 -0.25044319471E+03  0.60018273053E+03  0.00000000000E+00 0.  1.
<mgrwt>
<rscale>  0 0.22777617E+04</rscale>
<asrwt>0</asrwt>
<pdfrwt beam="1">  1        1 0.26233306E+00 0.22777617E+04</pdfrwt>
<pdfrwt beam="2">  1       -2 0.11702451E+00 0.22777617E+04</pdfrwt>
<totfact> 0.21243415E+00</totfact>
</mgrwt>
</event>
<event>
12    4  0.4320235E-008  0.2978124E+04  0.7818608E-02  0.8250005E-01
         -2   -1    0    0    0  501 -0.00000000000E+00  0.00000000000E+00  0.21672896247E+04  0.21672896247E+04  0.00000000000E+00 0.  1.
          1   -1    0    0  501    0  0.00000000000E+00 -0.00000000000E+00 -0.10230778837E+04  0.10230778837E+04  0.00000000000E+00 0. -1.
        -24    2    1    2    0    0  0.57659539142E+03  0.88946706007E+03  0.14142443788E+04  0.17691966759E+04  0.79723389195E+02 0.  0.
        254    2    1    2    0    0 -0.57659539142E+03 -0.88946706007E+03 -0.27003263777E+03  0.14211708324E+04  0.90730094958E+03 0.  0.
         23    2    4    4    0    0 -0.75578671410E+03 -0.44048770783E+03 -0.50779622288E+02  0.88088146447E+03  0.90169875483E+02 0.  0.
         23    2    4    4    0    0  0.17919132267E+03 -0.44897935224E+03 -0.21925301548E+03  0.54028936796E+03  0.10074089275E+03 0.  0.
          3    1    3    3  502    0  0.87259839026E+02  0.18552569021E+03  0.24874511535E+03  0.32234793879E+03  0.00000000000E+00 0. -1.
         -4    1    3    3    0  502  0.48933555240E+03  0.70394136986E+03  0.11654992634E+04  0.14468487371E+04  0.00000000000E+00 0.  1.
         11    1    5    5    0    0 -0.73276031928E+03 -0.40965883047E+03 -0.58873048238E+02  0.84156050210E+03  0.00000000000E+00 0.  1.
        -11    1    5    5    0    0 -0.23026394821E+02 -0.30828877358E+02  0.80934259498E+01  0.39320962363E+02  0.00000000000E+00 0. -1.
          3    1    6    6  503    0  0.94431263057E+02 -0.17424560219E+03 -0.13805283915E+03  0.24153132244E+03  0.00000000000E+00 0. -1.
         -3    1    6    6    0  503  0.84760059615E+02 -0.27473375005E+03 -0.81200176336E+02  0.29875804551E+03  0.00000000000E+00 0.  1.
<mgrwt>
<rscale>  0 0.29781243E+04</rscale>
<asrwt>0</asrwt>
<pdfrwt beam="1">  1        1 0.15739660E+00 0.29781243E+04</pdfrwt>
<pdfrwt beam="2">  1       -2 0.33342917E+00 0.29781243E+04</pdfrwt>
<totfact> 0.21462188E-01</totfact>
</mgrwt>
</event>
<event>
12    4  0.4320235E-008  0.1361562E+04  0.7818608E-02  0.8982122E-01
         -2   -1    0    0    0  501 -0.00000000000E+00  0.00000000000E+00  0.26566359939E+03  0.26566359939E+03  0.00000000000E+00 0.  1.
          1   -1    0    0  501    0  0.00000000000E+00 -0.00000000000E+00 -0.17445464452E+04  0.17445464452E+04  0.00000000000E+00 0. -1.
        -24    2    1    2    0    0  0.21153166161E+02  0.20193282304E+03  0.46241366456E+02  0.22497327696E+03  0.85149221472E+02 0.  0.
        254    2    1    2    0    0 -0.21153166161E+02 -0.20193282304E+03 -0.15251242123E+04  0.17852367677E+04  0.90545134171E+03 0.  0.
         23    2    4    4    0    0 -0.31730944618E+02 -0.52782262980E+03 -0.12054827037E+04  0.13196723254E+04  0.93503562538E+02 0.  0.
         23    2    4    4    0    0  0.10577778457E+02  0.32588980676E+03 -0.31964150862E+03  0.46556444225E+03  0.90903796983E+02 0.  0.
          1    1    3    3  502    0  0.16896459942E+02  0.16482585993E+03  0.20345403262E+00  0.16568975785E+03  0.00000000000E+00 0. -1.
         -2    1    3    3    0  502  0.42567062187E+01  0.37106963104E+02  0.46037912424E+02  0.59283519117E+02  0.00000000000E+00 0.  1.
         11    1    5    5    0    0  0.30822694099E+02 -0.25176925981E+03 -0.59095612197E+03  0.64309170166E+03  0.00000000000E+00 0. -1.
        -11    1    5    5    0    0 -0.62553638717E+02 -0.27605336999E+03 -0.61452658172E+03  0.67658062376E+03  0.00000000000E+00 0.  1.
          3    1    6    6  503    0  0.11541260921E+02  0.20036440807E+03 -0.13346750036E+03  0.24102421118E+03  0.00000000000E+00 0. -1.
         -3    1    6    6    0  503 -0.96348246406E+00  0.12552539869E+03 -0.18617400826E+03  0.22454023107E+03  0.00000000000E+00 0.  1.
<mgrwt>
<rscale>  0 0.13615616E+04</rscale>
<asrwt>0</asrwt>
<pdfrwt beam="1">  1        1 0.26839177E+00 0.13615616E+04</pdfrwt>
<pdfrwt beam="2">  1       -2 0.40871322E-01 0.13615616E+04</pdfrwt>
<totfact> 0.21630954E+01</totfact>
</mgrwt>
</event>
<event>
12    4  0.4320235E-008  0.1812392E+04  0.7818608E-02  0.8699737E-01
         -2   -1    0    0    0  501 -0.00000000000E+00  0.00000000000E+00  0.57284599467E+03  0.57284599467E+03  0.00000000000E+00 0.  1.
          1   -1    0    0  501    0  0.00000000000E+00 -0.00000000000E+00 -0.14335281347E+04  0.14335281347E+04  0.00000000000E+00 0. -1.
        -24    2    1    2    0    0  0.32797212988E+03  0.52227668187E+03 -0.27407381845E+02  0.62244065629E+03  0.79640163388E+02 0.  0.
        254    2    1    2    0    0 -0.32797212988E+03 -0.52227668187E+03 -0.83327475814E+03  0.13839334730E+04  0.91683498233E+03 0.  0.
         23    2    4    4    0    0  0.93832542655E+02 -0.29260698127E+03 -0.83681063336E+03  0.89596208420E+03  0.89847808352E+02 0.  0.
         23    2    4    4    0    0 -0.42180467253E+03 -0.22966970059E+03  0.35358752182E+01  0.48797138884E+03  0.86233524608E+02 0.  0.
          1    1    3    3  502    0  0.32679673585E+03  0.50037666098E+03 -0.36377627028E+02  0.59874555628E+03  0.00000000000E+00 0. -1.
         -4    1    3    3    0  502  0.11753940318E+01  0.21900020887E+02  0.89702451831E+01  0.23695100013E+02  0.00000000000E+00 0.  1.
         11    1    5    5    0    0  0.59149447073E+02 -0.64201513929E+02 -0.27438908046E+03  0.28794072125E+03  0.00000000000E+00 0. -1.
        -11    1    5    5    0    0  0.34683095582E+02 -0.22840546734E+03 -0.56242155290E+03  0.60802136294E+03  0.00000000000E+00 0.  1.
          1    1    6    6  503    0 -0.20046983551E+03 -0.11748784842E+03 -0.40757628305E+02  0.23590831639E+03  0.00000000000E+00 0. -1.
         -1    1    6    6    0  503 -0.22133483702E+03 -0.11218185217E+03  0.44293503523E+02  0.25206307244E+03  0.00000000000E+00 0.  1.
<mgrwt>
<rscale>  0 0.18123916E+04</rscale>
<asrwt>0</asrwt>
<pdfrwt beam="1">  1        1 0.22054279E+00 0.18123916E+04</pdfrwt>
<pdfrwt beam="2">  1       -2 0.88130153E-01 0.18123916E+04</pdfrwt>
<totfact> 0.66771767E+00</totfact>
</mgrwt>
</event>
<event>
12    4  0.4320235E-008  0.1236650E+04  0.7818608E-02  0.9081368E-01
         -2   -1    0    0    0  501 -0.00000000000E+00  0.00000000000E+00  0.22622711676E+03  0.22622711676E+03  0.00000000000E+00 0.  1.
          1   -1    0    0  501    0  0.00000000000E+00 -0.00000000000E+00 -0.16900082046E+04  0.16900082046E+04  0.00000000000E+00 0. -1.
        -24    2    1    2    0    0  0.42222279745E+02  0.24354016479E+03 -0.55058826806E+03  0.60880035343E+03  0.79974349847E+02 0.  0.
        254    2    1    2    0    0 -0.42222279745E+02 -0.24354016479E+03 -0.91319281982E+03  0.13074349680E+04  0.90242480934E+03 0.  0.
         23    2    4    4    0    0  0.12161109946E+03 -0.14022454428E+03 -0.10388317238E+04  0.10589622243E+04  0.88189907886E+02 0.  0.
         23    2    4    4    0    0 -0.16383337920E+03 -0.10331562052E+03  0.12563890397E+03  0.24847274365E+03  0.91859003718E+02 0.  0.
          1    1    3    3  502    0  0.10806663342E+02  0.20339125334E+03 -0.48261721900E+03  0.52383601058E+03  0.00000000000E+00 0. -1.
         -2    1    3    3    0  502  0.31415616403E+02  0.40148911453E+02 -0.67971049067E+02  0.84964342851E+02  0.00000000000E+00 0.  1.
         11    1    5    5    0    0  0.98495969766E+02 -0.10592428633E+03 -0.56110322528E+03  0.57944649444E+03  0.00000000000E+00 0.  1.
        -11    1    5    5    0    0  0.23115129689E+02 -0.34300257942E+02 -0.47772849850E+03  0.47951572988E+03  0.00000000000E+00 0. -1.
          3    1    6    6  503    0 -0.16574186482E+03 -0.10309226665E+03  0.93766075750E+02  0.21654204709E+03  0.00000000000E+00 0. -1.
         -3    1    6    6    0  503  0.19084856181E+01 -0.22335386820E+00  0.31872828216E+02  0.31930696560E+02  0.00000000000E+00 0.  1.
<mgrwt>
<rscale>  0 0.12366498E+04</rscale>
<asrwt>0</asrwt>
<pdfrwt beam="1">  1        1 0.26000127E+00 0.12366498E+04</pdfrwt>
<pdfrwt beam="2">  1       -2 0.34804171E-01 0.12366498E+04</pdfrwt>
<totfact> 0.32489157E+01</totfact>
</mgrwt>
</event>
<event>
12    4  0.4320235E-008  0.1702149E+04  0.7818608E-02  0.8760140E-01
          1   -1    0    0  501    0  0.00000000000E+00  0.00000000000E+00  0.21004343110E+04  0.21004343110E+04  0.00000000000E+00 0. -1.
         -2   -1    0    0    0  501 -0.00000000000E+00 -0.00000000000E+00 -0.34484662960E+03  0.34484662960E+03  0.00000000000E+00 0.  1.
        -24    2    1    2    0    0  0.32402138137E+02 -0.61953253660E+03  0.49669151267E+03  0.79894769329E+03  0.82124876778E+02 0.  0.
        254    2    1    2    0    0 -0.32402138137E+02  0.61953253660E+03  0.12588961687E+04  0.16463332473E+04  0.86065273779E+03 0.  0.
         23    2    4    4    0    0 -0.16384559884E+03  0.45950882176E+03  0.15574332544E+03  0.52014670205E+03  0.91120089462E+02 0.  0.
         23    2    4    4    0    0  0.13144346070E+03  0.16002371484E+03  0.11031528433E+04  0.11261865452E+04  0.92005251913E+02 0.  0.
          3    1    3    3  502    0  0.34408267976E+02 -0.20659569147E+03  0.12865351306E+03  0.24579958312E+03  0.00000000000E+00 0. -1.
         -4    1    3    3    0  502 -0.20061298399E+01 -0.41293684514E+03  0.36803799962E+03  0.55314811017E+03  0.00000000000E+00 0.  1.
         11    1    5    5    0    0 -0.13389792219E+03  0.39894794170E+03  0.99948097843E+02  0.43252483862E+03  0.00000000000E+00 0. -1.
        -11    1    5    5    0    0 -0.29947676647E+02  0.60560880057E+02  0.55795227597E+02  0.87621863439E+02  0.00000000000E+00 0.  1.
          2    1    6    6  503    0  0.12458352567E+03  0.14526148029E+03  0.79897692348E+03  0.82157536281E+03  0.00000000000E+00 0. -1.
         -2    1    6    6    0  503  0.68599350316E+01  0.14762234554E+02  0.30417591979E+03  0.30461118242E+03  0.00000000000E+00 0.  1.
<mgrwt>
<rscale>  0 0.17021489E+04</rscale>
<asrwt>0</asrwt>
<pdfrwt beam="1">  1        1 0.32314373E+00 0.17021489E+04</pdfrwt>
<pdfrwt beam="2">  1       -2 0.53053329E-01 0.17021489E+04</pdfrwt>
<totfact> 0.71309825E+00</totfact>
</mgrwt>
</event>
<event>
12    4  0.4320235E-008  0.1606068E+04  0.7818608E-02  0.8816829E-01
         -2   -1    0    0    0  501 -0.00000000000E+00  0.00000000000E+00  0.59855078306E+03  0.59855078306E+03  0.00000000000E+00 0.  1.
          1   -1    0    0  501    0  0.00000000000E+00 -0.00000000000E+00 -0.10773743411E+04  0.10773743411E+04  0.00000000000E+00 0. -1.
        -24    2    1    2    0    0 -0.30147345893E+03  0.17837025446E+03  0.26356914155E+03  0.45105574738E+03  0.10620923099E+03 0.  0.
        254    2    1    2    0    0  0.30147345893E+03 -0.17837025446E+03 -0.74239269963E+03  0.12248693768E+04  0.90909618615E+03 0.  0.
         23    2    4    4    0    0 -0.27271780617E+02 -0.22098936900E+03  0.14082079334E+03  0.27712326587E+03  0.85946247270E+02 0.  0.
         23    2    4    4    0    0  0.32874523955E+03  0.42619114542E+02 -0.88321349297E+03  0.94774611094E+03  0.90921918129E+02 0.  0.
          3    1    3    3  502    0 -0.10649897287E+03  0.98611107854E+02  0.56747993507E+02  0.15584131860E+03  0.00000000000E+00 0. -1.
         -4    1    3    3    0  502 -0.19497448606E+03  0.79759146609E+02  0.20682114805E+03  0.29521442878E+03  0.00000000000E+00 0.  1.
         11    1    5    5    0    0 -0.45477212564E+02 -0.11687533531E+03  0.11054904058E+03  0.16717987690E+03  0.00000000000E+00 0. -1.
        -11    1    5    5    0    0  0.18205431947E+02 -0.10411403369E+03  0.30271752761E+02  0.10994338897E+03  0.00000000000E+00 0.  1.
          3    1    6    6  503    0  0.24595025822E+03 -0.73765811528E+01 -0.66479686248E+03  0.70887291656E+03  0.00000000000E+00 0. -1.
         -3    1    6    6    0  503  0.82794981330E+02  0.49995695694E+02 -0.21841663048E+03  0.23887319438E+03  0.00000000000E+00 0.  1.
<mgrwt>
<rscale>  0 0.16060676E+04</rscale>
<asrwt>0</asrwt>
<pdfrwt beam="1">  1        1 0.16574990E+00 0.16060676E+04</pdfrwt>
<pdfrwt beam="2">  1       -2 0.92084736E-01 0.16060676E+04</pdfrwt>
<totfact> 0.11115863E+01</totfact>
</mgrwt>
</event>
<event>
12    4  0.4320235E-008  0.1296090E+04  0.7818608E-02  0.9032671E-01
          1   -1    0    0  501    0  0.00000000000E+00  0.00000000000E+00  0.27874874731E+03  0.27874874731E+03  0.00000000000E+00 0. -1.
         -2   -1    0    0    0  501 -0.00000000000E+00 -0.00000000000E+00 -0.15065990511E+04  0.15065990511E+04  0.00000000000E+00 0.  1.
        -24    2    1    2    0    0 -0.25844986751E+02 -0.14658233295E+03 -0.74130565617E+03  0.76030052429E+03  0.79802679669E+02 0.  0.
        254    2    1    2    0    0  0.25844986751E+02  0.14658233295E+03 -0.48654464759E+03  0.10250472741E+04  0.88985497490E+03 0.  0.
         23    2    4    4    0    0 -0.17740304360E+03 -0.31890102068E+03 -0.28020482951E+03  0.46920497650E+03  0.92026423506E+02 0.  0.
         23    2    4    4    0    0  0.20324803036E+03  0.46548335363E+03 -0.20633981808E+03  0.55584229760E+03  0.91651649876E+02 0.  0.
          1    1    3    3  502    0 -0.42073158235E+01 -0.10509289793E+03 -0.64156380902E+03  0.65012794106E+03  0.00000000000E+00 0. -1.
         -2    1    3    3    0  502 -0.21637670927E+02 -0.41489435016E+02 -0.99741847147E+02  0.11017258322E+03  0.00000000000E+00 0.  1.
         11    1    5    5    0    0 -0.16131483156E+03 -0.21231805667E+03 -0.22034038589E+03  0.34590651588E+03  0.00000000000E+00 0. -1.
        -11    1    5    5    0    0 -0.16088212041E+02 -0.10658296400E+03 -0.59864443623E+02  0.12329846062E+03  0.00000000000E+00 0.  1.
          4    1    6    6  503    0  0.17392185134E+03  0.44205946726E+03 -0.20728512381E+03  0.51829769970E+03  0.00000000000E+00 0. -1.
         -4    1    6    6    0  503  0.29326179011E+02  0.23423886372E+02  0.94530572624E+00  0.37544597894E+02  0.00000000000E+00 0.  1.
<mgrwt>
<rscale>  0 0.12960904E+04</rscale>
<asrwt>0</asrwt>
<pdfrwt beam="1">  1        1 0.42884424E-01 0.12960904E+04</pdfrwt>
<pdfrwt beam="2">  1       -2 0.23178446E+00 0.12960904E+04</pdfrwt>
<totfact> 0.69010538E+00</totfact>
</mgrwt>
</event>
<event>
12    4  0.4320235E-008  0.2773780E+04  0.7818608E-02  0.8311455E-01
         -4   -1    0    0    0  501 -0.00000000000E+00  0.00000000000E+00  0.11246831818E+04  0.11246831818E+04  0.00000000000E+00 0.  1.
          1   -1    0    0  501    0  0.00000000000E+00 -0.00000000000E+00 -0.17102276290E+04  0.17102276290E+04  0.00000000000E+00 0. -1.
        -24    2    1    2    0    0  0.87571384499E+02  0.24902810770E+03  0.99315921077E+03  0.10309131489E+04  0.82054597073E+02 0.  0.
        254    2    1    2    0    0 -0.87571384499E+02 -0.24902810770E+03 -0.15787036579E+04  0.18039976618E+04  0.83211692604E+03 0.  0.
         23    2    4    4    0    0 -0.30538006283E+03  0.22226024436E+02 -0.19477599728E+03  0.37415682912E+03  0.91129933187E+02 0.  0.
         23    2    4    4    0    0  0.21780867833E+03 -0.27125413214E+03 -0.13839276606E+04  0.14298408327E+04  0.90385908625E+02 0.  0.
          3    1    3    3  502    0 -0.15322694249E+02  0.46729558860E+02  0.19580970279E+03  0.20189075348E+03  0.00000000000E+00 0. -1.
         -4    1    3    3    0  502  0.10289407875E+03  0.20229854884E+03  0.79734950798E+03  0.82902239546E+03  0.00000000000E+00 0.  1.
         11    1    5    5    0    0 -0.44478102503E+02  0.37220566988E+02 -0.39571484910E+02  0.70210929542E+02  0.00000000000E+00 0. -1.
        -11    1    5    5    0    0 -0.26090196033E+03 -0.14994542552E+02 -0.15520451237E+03  0.30394589958E+03  0.00000000000E+00 0.  1.
          1    1    6    6  503    0  0.32673079257E+01  0.71410724746E+01 -0.35692265624E+02  0.36545971632E+02  0.00000000000E+00 0. -1.
         -1    1    6    6    0  503  0.21454137041E+03 -0.27839520461E+03 -0.13482353950E+04  0.13932948611E+04  0.00000000000E+00 0.  1.
<mgrwt>
<rscale>  0 0.27737803E+04</rscale>
<asrwt>0</asrwt>
<pdfrwt beam="1">  1        1 0.26311194E+00 0.27737803E+04</pdfrwt>
<pdfrwt beam="2">  1       -4 0.17302818E+00 0.27737803E+04</pdfrwt>
<totfact> 0.39934468E-01</totfact>
</mgrwt>
</event>
<event>
12    4  0.4320235E-008  0.1630281E+04  0.7818608E-02  0.8802158E-01
         -2   -1    0    0    0  501 -0.00000000000E+00  0.00000000000E+00  0.70473900184E+03  0.70473900184E+03  0.00000000000E+00 0.  1.
          1   -1    0    0  501    0  0.00000000000E+00 -0.00000000000E+00 -0.94283662532E+03  0.94283662532E+03  0.00000000000E+00 0. -1.
        -24    2    1    2    0    0 -0.22314369757E+03  0.31229724940E+03 -0.50048255852E+03  0.63556025556E+03  0.78303035167E+02 0.  0.
        254    2    1    2    0    0  0.22314369757E+03 -0.31229724940E+03  0.26238493505E+03  0.10120153716E+04  0.89889186027E+03 0.  0.
         23    2    4    4    0    0 -0.95795998021E+02 -0.23025648525E+03  0.51964765077E+03  0.58343343042E+03  0.90365726568E+02 0.  0.
         23    2    4    4    0    0  0.31893969559E+03 -0.82040764146E+02 -0.25726271572E+03  0.42858194118E+03  0.95106040824E+02 0.  0.
          3    1    3    3  502    0 -0.22866343725E+03  0.30734889247E+03 -0.48230280275E+03  0.61592718951E+03  0.00000000000E+00 0. -1.
         -4    1    3    3    0  502  0.55197396873E+01  0.49483569298E+01 -0.18179755773E+02  0.19633066049E+02  0.00000000000E+00 0.  1.
         11    1    5    5    0    0 -0.68523165318E+02 -0.84598577579E+02  0.15132721637E+03  0.18641960714E+03  0.00000000000E+00 0. -1.
        -11    1    5    5    0    0 -0.27272832703E+02 -0.14565790767E+03  0.36832043441E+03  0.39701382328E+03  0.00000000000E+00 0.  1.
          3    1    6    6  503    0  0.18442173460E+03 -0.17084181917E+02 -0.95451252984E+02  0.20836071405E+03  0.00000000000E+00 0. -1.
         -3    1    6    6    0  503  0.13451796099E+03 -0.64956582230E+02 -0.16181146274E+03  0.22022122712E+03  0.00000000000E+00 0.  1.
<mgrwt>
<rscale>  0 0.16302806E+04</rscale>
<asrwt>0</asrwt>
<pdfrwt beam="1">  1        1 0.14505179E+00 0.16302806E+04</pdfrwt>
<pdfrwt beam="2">  1       -2 0.10842139E+00 0.16302806E+04</pdfrwt>
<totfact> 0.95869354E+00</totfact>
</mgrwt>
</event>
<event>
12    4  0.4320235E-008  0.1364494E+04  0.7818608E-02  0.8979928E-01
         -2   -1    0    0    0  501 -0.00000000000E+00  0.00000000000E+00  0.21764995138E+03  0.21764995138E+03  0.00000000000E+00 0.  1.
          1   -1    0    0  501    0  0.00000000000E+00 -0.00000000000E+00 -0.21385759458E+04  0.21385759458E+04  0.00000000000E+00 0. -1.
        -24    2    1    2    0    0  0.22576638513E+03  0.16199699750E+03 -0.10466733315E+04  0.10858330072E+04  0.79339578642E+02 0.  0.
        254    2    1    2    0    0 -0.22576638513E+03 -0.16199699750E+03 -0.87425266287E+03  0.12703928900E+04  0.87884406381E+03 0.  0.
         23    2    4    4    0    0  0.14786022154E+03  0.15835279333E+03 -0.70300675957E+03  0.74126149861E+03  0.91169364683E+02 0.  0.
         23    2    4    4    0    0 -0.37362660667E+03 -0.32034979083E+03 -0.17124590330E+03  0.52913139135E+03  0.91837030760E+02 0.  0.
          3    1    3    3  502    0  0.15798227026E+03  0.76797914075E+02 -0.73470653581E+03  0.75541380122E+03  0.00000000000E+00 0. -1.
         -4    1    3    3    0  502  0.67784114871E+02  0.85199083423E+02 -0.31196679572E+03  0.33041920598E+03  0.00000000000E+00 0.  1.
         11    1    5    5    0    0  0.24614420199E+02  0.84307184101E+02 -0.33049021946E+03  0.34196104476E+03  0.00000000000E+00 0. -1.
        -11    1    5    5    0    0  0.12324580134E+03  0.74045609231E+02 -0.37251654011E+03  0.39930045385E+03  0.00000000000E+00 0.  1.
          2    1    6    6  503    0 -0.35369099131E+03 -0.31779022986E+03 -0.14711354335E+03  0.49772516730E+03  0.00000000000E+00 0. -1.
         -2    1    6    6    0  503 -0.19935615362E+02 -0.25595609706E+01 -0.24132359955E+02  0.31406224053E+02  0.00000000000E+00 0.  1.
<mgrwt>
<rscale>  0 0.13644940E+04</rscale>
<asrwt>0</asrwt>
<pdfrwt beam="1">  1        1 0.32901168E+00 0.13644940E+04</pdfrwt>
<pdfrwt beam="2">  1       -2 0.33484608E-01 0.13644940E+04</pdfrwt>
<totfact> 0.17194548E+01</totfact>
</mgrwt>
</event>
<event>
12    4  0.4320235E-008  0.1508416E+04  0.7818608E-02  0.8878876E-01
          1   -1    0    0  501    0  0.00000000000E+00  0.00000000000E+00  0.93646444802E+03  0.93646444802E+03  0.00000000000E+00 0. -1.
         -2   -1    0    0    0  501 -0.00000000000E+00 -0.00000000000E+00 -0.60742245520E+03  0.60742245520E+03  0.00000000000E+00 0.  1.
        -24    2    1    2    0    0 -0.24397480669E+03 -0.35336109860E+03 -0.10666744109E+03  0.44876036983E+03  0.74967687979E+02 0.  0.
        254    2    1    2    0    0  0.24397480669E+03  0.35336109860E+03  0.43570943391E+03  0.10951265334E+04  0.90833454247E+03 0.  0.
         23    2    4    4    0    0  0.38528012177E+03 -0.20208118626E+02  0.54322927286E+03  0.67240779484E+03  0.90471318018E+02 0.  0.
         23    2    4    4    0    0 -0.14130531509E+03  0.37356921723E+03 -0.10751983895E+03  0.42271873855E+03  0.87232241889E+02 0.  0.
          1    1    3    3  502    0 -0.12494443024E+02 -0.55402439553E+02 -0.49036353510E+00  0.56795967034E+02  0.00000000000E+00 0. -1.
         -2    1    3    3    0  502 -0.23148036366E+03 -0.29795865905E+03 -0.10617707755E+03  0.39196440280E+03  0.00000000000E+00 0.  1.
         11    1    5    5    0    0  0.31075147801E+03  0.37860418142E+01  0.47974597587E+03  0.57160914667E+03  0.00000000000E+00 0.  1.
        -11    1    5    5    0    0  0.74528643759E+02 -0.23994160441E+02  0.63483296989E+02  0.10079864817E+03  0.00000000000E+00 0. -1.
          2    1    6    6  503    0  0.49655651663E+01  0.26944953469E+01  0.59537739891E+01  0.82075920530E+01  0.00000000000E+00 0. -1.
         -2    1    6    6    0  503 -0.14627088025E+03  0.37087472188E+03 -0.11347361294E+03  0.41451114650E+03  0.00000000000E+00 0.  1.
<mgrwt>
<rscale>  0 0.15084158E+04</rscale>
<asrwt>0</asrwt>
<pdfrwt beam="1">  1        1 0.14407145E+00 0.15084158E+04</pdfrwt>
<pdfrwt beam="2">  1       -2 0.93449608E-01 0.15084158E+04</pdfrwt>
<totfact> 0.13946919E+01</totfact>
</mgrwt>
</event>
<event>
12    4  0.4320235E-008  0.3588191E+04  0.7818608E-02  0.8093202E-01
          1   -1    0    0  501    0  0.00000000000E+00  0.00000000000E+00  0.21170429463E+04  0.21170429463E+04  0.00000000000E+00 0. -1.
         -2   -1    0    0    0  501 -0.00000000000E+00 -0.00000000000E+00 -0.15204124615E+04  0.15204124615E+04  0.00000000000E+00 0.  1.
        -24    2    1    2    0    0 -0.11398031205E+04  0.94527622681E+03  0.10993148301E+04  0.18459291185E+04  0.79138589888E+02 0.  0.
        254    2    1    2    0    0  0.11398031205E+04 -0.94527622681E+03 -0.50268434533E+03  0.17915262893E+04  0.87417194873E+03 0.  0.
         23    2    4    4    0    0  0.60083422748E+03  0.16035272691E+02 -0.10990456839E+03  0.61801031100E+03  0.92729884465E+02 0.  0.
         23    2    4    4    0    0  0.53896889298E+03 -0.96131149950E+03 -0.39277977695E+03  0.11735159783E+04  0.90865458490E+02 0.  0.
          3    1    3    3  502    0 -0.66322352205E+03  0.53573615353E+03  0.67937518896E+03  0.10901510509E+04  0.00000000000E+00 0. -1.
         -4    1    3    3    0  502 -0.47657959841E+03  0.40954007327E+03  0.41993964110E+03  0.75577806756E+03  0.00000000000E+00 0.  1.
         11    1    5    5    0    0  0.26131693322E+03  0.43294854340E+01 -0.94599592702E+02  0.27794669808E+03  0.00000000000E+00 0. -1.
        -11    1    5    5    0    0  0.33951729426E+03  0.11705787257E+02 -0.15304975683E+02  0.34006361293E+03  0.00000000000E+00 0.  1.
          2    1    6    6  503    0  0.23525511133E+03 -0.49301511033E+03 -0.16473770639E+03  0.57056759312E+03  0.00000000000E+00 0. -1.
         -2    1    6    6    0  503  0.30371378166E+03 -0.46829638917E+03 -0.22804207056E+03  0.60294838521E+03  0.00000000000E+00 0.  1.
<mgrwt>
<rscale>  0 0.35881909E+04</rscale>
<asrwt>0</asrwt>
<pdfrwt beam="1">  1        1 0.32569891E+00 0.35881909E+04</pdfrwt>
<pdfrwt beam="2">  1       -2 0.23390961E+00 0.35881909E+04</pdfrwt>
<totfact> 0.14282764E-01</totfact>
</mgrwt>
</event>
<event>
12    4  0.4320235E-008  0.3162471E+04  0.7818608E-02  0.8198799E-01
          1   -1    0    0  501    0  0.00000000000E+00  0.00000000000E+00  0.23147537483E+04  0.23147537483E+04  0.00000000000E+00 0. -1.
         -2   -1    0    0    0  501 -0.00000000000E+00 -0.00000000000E+00 -0.10801606987E+04  0.10801606987E+04  0.00000000000E+00 0.  1.
        -24    2    1    2    0    0 -0.31190175139E+03  0.43220481032E+03 -0.87139313048E+03  0.10246181820E+04  0.80204303856E+02 0.  0.
        254    2    1    2    0    0  0.31190175139E+03 -0.43220481032E+03  0.21059861801E+04  0.23702962650E+04  0.94817872385E+03 0.  0.
         23    2    4    4    0    0  0.33264119585E+03  0.23174940044E+03  0.86067751404E+03  0.95574928221E+03  0.91285034275E+02 0.  0.
         23    2    4    4    0    0 -0.20739444459E+02 -0.66395421076E+03  0.12453086661E+04  0.14145469828E+04  0.94255897052E+02 0.  0.
          3    1    3    3  502    0 -0.10489620128E+02  0.10951361781E+02 -0.60773652550E+02  0.62637060112E+02  0.00000000000E+00 0. -1.
         -2    1    3    3    0  502 -0.30141213126E+03  0.42125344854E+03 -0.81061947793E+03  0.96198112184E+03  0.00000000000E+00 0.  1.
         11    1    5    5    0    0  0.20300105051E+03  0.18066105368E+03  0.63222371248E+03  0.68815308286E+03  0.00000000000E+00 0. -1.
        -11    1    5    5    0    0  0.12964014534E+03  0.51088346768E+02  0.22845380156E+03  0.26759619935E+03  0.00000000000E+00 0.  1.
          2    1    6    6  503    0 -0.11030692828E+01 -0.55439150186E+03  0.96446104304E+03  0.11124460695E+04  0.00000000000E+00 0. -1.
         -2    1    6    6    0  503 -0.19636375177E+02 -0.10956270890E+03  0.28084762303E+03  0.30210091322E+03  0.00000000000E+00 0.  1.
<mgrwt>
<rscale>  0 0.31624712E+04</rscale>
<asrwt>0</asrwt>
<pdfrwt beam="1">  1        1 0.35611596E+00 0.31624712E+04</pdfrwt>
<pdfrwt beam="2">  1       -2 0.16617857E+00 0.31624712E+04</pdfrwt>
<totfact> 0.30472380E-01</totfact>
</mgrwt>
</event>
<event>
12    4  0.4320235E-008  0.2981333E+04  0.7818608E-02  0.8249082E-01
          1   -1    0    0  501    0  0.00000000000E+00  0.00000000000E+00  0.23869245512E+04  0.23869245512E+04  0.00000000000E+00 0. -1.
         -2   -1    0    0    0  501 -0.00000000000E+00 -0.00000000000E+00 -0.93094105803E+03  0.93094105803E+03  0.00000000000E+00 0.  1.
        -24    2    1    2    0    0  0.10588660965E+03 -0.12362369524E+04  0.69162518352E+02  0.12452544226E+04  0.79883329076E+02 0.  0.
        254    2    1    2    0    0 -0.10588660965E+03  0.12362369524E+04  0.13868209748E+04  0.20726111867E+04  0.91266145874E+03 0.  0.
         23    2    4    4    0    0  0.26973737194E+02  0.95857671707E+03  0.41540567846E+03  0.10494453032E+04  0.95794894258E+02 0.  0.
         23    2    4    4    0    0 -0.13286034684E+03  0.27766023537E+03  0.97141529637E+03  0.10231658835E+04  0.92052533825E+02 0.  0.
          3    1    3    3  502    0  0.38920994704E+02 -0.45868740689E+03  0.64350073257E+02  0.46481169628E+03  0.00000000000E+00 0. -1.
         -4    1    3    3    0  502  0.66965614946E+02 -0.77754954555E+03  0.48124450946E+01  0.78044272627E+03  0.00000000000E+00 0.  1.
         11    1    5    5    0    0 -0.10808854448E+02  0.35197545131E+02  0.32489525169E+02  0.49104661321E+02  0.00000000000E+00 0. -1.
        -11    1    5    5    0    0  0.37782591642E+02  0.92337917194E+03  0.38291615329E+03  0.10003406419E+04  0.00000000000E+00 0.  1.
          3    1    6    6  503    0 -0.30471444777E+02  0.96328427168E+02  0.46028478580E+03  0.47124278124E+03  0.00000000000E+00 0. -1.
         -3    1    6    6    0  503 -0.10238890207E+03  0.18133180820E+03  0.51113051057E+03  0.55192310222E+03  0.00000000000E+00 0.  1.
<mgrwt>
<rscale>  0 0.29813326E+04</rscale>
<asrwt>0</asrwt>
<pdfrwt beam="1">  1        1 0.36721916E+00 0.29813326E+04</pdfrwt>
<pdfrwt beam="2">  1       -2 0.14322170E+00 0.29813326E+04</pdfrwt>
<totfact> 0.41152913E-01</totfact>
</mgrwt>
</event>
<event>
12    4  0.4320235E-008  0.3839814E+04  0.7818608E-02  0.8037665E-01
         -2   -1    0    0    0  501 -0.00000000000E+00  0.00000000000E+00  0.13134390387E+04  0.13134390387E+04  0.00000000000E+00 0.  1.
          1   -1    0    0  501    0  0.00000000000E+00 -0.00000000000E+00 -0.28064050637E+04  0.28064050637E+04  0.00000000000E+00 0. -1.
        -24    2    1    2    0    0  0.66566583693E+03 -0.68631350046E+03  0.94829177365E+03  0.13509339394E+04  0.10783317294E+03 0.  0.
        254    2    1    2    0    0 -0.66566583693E+03  0.68631350046E+03 -0.24412577987E+04  0.27689101631E+04  0.89049796437E+03 0.  0.
         23    2    4    4    0    0 -0.54764124590E+03  0.87095656872E+03 -0.16874420335E+04  0.19784354783E+04  0.90939795756E+02 0.  0.
         23    2    4    4    0    0 -0.11802459103E+03 -0.18464306826E+03 -0.75381576517E+03  0.79047468486E+03  0.92677682507E+02 0.  0.
          3    1    3    3  502    0  0.27162491571E+03 -0.26052615479E+03  0.30284096990E+03  0.48308035068E+03  0.00000000000E+00 0. -1.
         -4    1    3    3    0  502  0.39404092121E+03 -0.42578734567E+03  0.64545080376E+03  0.86785358868E+03  0.00000000000E+00 0.  1.
         11    1    5    5    0    0 -0.53854268179E+03  0.82054997169E+03 -0.16100943649E+04  0.18856654899E+04  0.00000000000E+00 0. -1.
        -11    1    5    5    0    0 -0.90985641066E+01  0.50406597030E+02 -0.77347668613E+02  0.92769988319E+02  0.00000000000E+00 0.  1.
          2    1    6    6  503    0 -0.23407929410E+02 -0.11304180534E+03 -0.44259066140E+03  0.45739793885E+03  0.00000000000E+00 0. -1.
         -2    1    6    6    0  503 -0.94616661617E+02 -0.71601262926E+02 -0.31122510378E+03  0.33307674601E+03  0.00000000000E+00 0.  1.
<mgrwt>
<rscale>  0 0.38398135E+04</rscale>
<asrwt>0</asrwt>
<pdfrwt beam="1">  1        1 0.43175462E+00 0.38398135E+04</pdfrwt>
<pdfrwt beam="2">  1       -2 0.20206754E+00 0.38398135E+04</pdfrwt>
<totfact> 0.74195666E-02</totfact>
</mgrwt>
</event>
<event>
12    4  0.4320235E-008  0.1594095E+04  0.7818608E-02  0.8824184E-01
          1   -1    0    0  501    0  0.00000000000E+00  0.00000000000E+00  0.14905441467E+04  0.14905441467E+04  0.00000000000E+00 0. -1.
         -2   -1    0    0    0  501 -0.00000000000E+00 -0.00000000000E+00 -0.42620978495E+03  0.42620978495E+03  0.00000000000E+00 0.  1.
        -24    2    1    2    0    0 -0.16102437457E+03  0.59846965590E+02  0.99060504791E+03  0.10086725246E+04  0.81310469632E+02 0.  0.
        254    2    1    2    0    0  0.16102437457E+03 -0.59846965590E+02  0.73729313828E+02  0.90808140703E+03  0.88863115047E+03 0.  0.
         23    2    4    4    0    0  0.44863426201E+03  0.15714603735E+03  0.18772746388E+03  0.51939710842E+03  0.92542841052E+02 0.  0.
         23    2    4    4    0    0 -0.28760988744E+03 -0.21699300294E+03 -0.11399815005E+03  0.38868429861E+03  0.90964251756E+02 0.  0.
          1    1    3    3  502    0 -0.61584289852E+02  0.57454227096E+02  0.58591454075E+03  0.59193704228E+03  0.00000000000E+00 0. -1.
         -2    1    3    3    0  502 -0.99440084722E+02  0.23927384938E+01  0.40469050716E+03  0.41673548233E+03  0.00000000000E+00 0.  1.
         11    1    5    5    0    0  0.16145258144E+03  0.34329715588E+02  0.24166271429E+02  0.16682168354E+03  0.00000000000E+00 0. -1.
        -11    1    5    5    0    0  0.28718168058E+03  0.12281632176E+03  0.16356119245E+03  0.35257542487E+03  0.00000000000E+00 0.  1.
          3    1    6    6  503    0 -0.13566391190E+03 -0.48903916448E+02 -0.31999028721E+02  0.14771671494E+03  0.00000000000E+00 0. -1.
         -3    1    6    6    0  503 -0.15194597554E+03 -0.16808908649E+03 -0.81999121332E+02  0.24096758367E+03  0.00000000000E+00 0.  1.
<mgrwt>
<rscale>  0 0.15940947E+04</rscale>
<asrwt>0</asrwt>
<pdfrwt beam="1">  1        1 0.22931448E+00 0.15940947E+04</pdfrwt>
<pdfrwt beam="2">  1       -2 0.65570737E-01 0.15940947E+04</pdfrwt>
<totfact> 0.11985408E+01</totfact>
</mgrwt>
</event>
<event>
12    4  0.4320235E-008  0.1769097E+04  0.7818608E-02  0.8722908E-01
          1   -1    0    0  501    0  0.00000000000E+00  0.00000000000E+00  0.91381582624E+03  0.91381582624E+03  0.00000000000E+00 0. -1.
         -2   -1    0    0    0  501 -0.00000000000E+00 -0.00000000000E+00 -0.85621875421E+03  0.85621875421E+03  0.00000000000E+00 0.  1.
        -24    2    1    2    0    0  0.47505997417E+03  0.39064494936E+03  0.24005569705E+03  0.66500964807E+03  0.79533884802E+02 0.  0.
        254    2    1    2    0    0 -0.47505997417E+03 -0.39064494936E+03 -0.18245862502E+03  0.11050249324E+04  0.89972412205E+03 0.  0.
         23    2    4    4    0    0  0.43817040780E+02 -0.26027944761E+03  0.27776534613E+03  0.39380048175E+03  0.90884036014E+02 0.  0.
         23    2    4    4    0    0 -0.51887701495E+03 -0.13036550174E+03 -0.46022397115E+03  0.71122445062E+03  0.88349277590E+02 0.  0.
          1    1    3    3  502    0  0.13912177054E+03  0.10844423331E+03  0.10798760265E+03  0.20682442095E+03  0.00000000000E+00 0. -1.
         -2    1    3    3    0  502  0.33593820363E+03  0.28220071605E+03  0.13206809440E+03  0.45818522712E+03  0.00000000000E+00 0.  1.
         11    1    5    5    0    0  0.51851893029E+02 -0.21543968346E+03  0.26703045316E+03  0.34699875927E+03  0.00000000000E+00 0.  1.
        -11    1    5    5    0    0 -0.80348522486E+01 -0.44839764151E+02  0.10734892970E+02  0.46801722477E+02  0.00000000000E+00 0. -1.
          2    1    6    6  503    0 -0.14639308934E+03  0.66557293418E+00 -0.14401303214E+03  0.20535611269E+03  0.00000000000E+00 0. -1.
         -2    1    6    6    0  503 -0.37248392560E+03 -0.13103107468E+03 -0.31621093902E+03  0.50586833793E+03  0.00000000000E+00 0.  1.
<mgrwt>
<rscale>  0 0.17690972E+04</rscale>
<asrwt>0</asrwt>
<pdfrwt beam="1">  1        1 0.14058705E+00 0.17690972E+04</pdfrwt>
<pdfrwt beam="2">  1       -2 0.13172596E+00 0.17690972E+04</pdfrwt>
<totfact> 0.61730208E+00</totfact>
</mgrwt>
</event>
<event>
12    4  0.4320235E-008  0.1522293E+04  0.7818608E-02  0.8869762E-01
          1   -1    0    0  501    0  0.00000000000E+00  0.00000000000E+00  0.27115926910E+04  0.27115926910E+04  0.00000000000E+00 0. -1.
         -2   -1    0    0    0  501 -0.00000000000E+00 -0.00000000000E+00 -0.21365452554E+03  0.21365452554E+03  0.00000000000E+00 0.  1.
        -24    2    1    2    0    0  0.13658138664E+03  0.89438792017E+02  0.16711178549E+04  0.16809480965E+04  0.79358967158E+02 0.  0.
        254    2    1    2    0    0 -0.13658138664E+03 -0.89438792017E+02  0.82682031059E+03  0.12442991200E+04  0.91542050522E+03 0.  0.
         23    2    4    4    0    0 -0.42904093579E+03  0.14803451372E+03  0.69312698423E+03  0.83344067174E+03  0.90597986846E+02 0.  0.
         23    2    4    4    0    0  0.29245954915E+03 -0.23747330573E+03  0.13369332636E+03  0.41085844828E+03  0.94892571783E+02 0.  0.
          3    1    3    3  502    0  0.99090625242E+02  0.51980998158E+02  0.74940451909E+03  0.75771241867E+03  0.00000000000E+00 0. -1.
         -4    1    3    3    0  502  0.37490761393E+02  0.37457793859E+02  0.92171333579E+03  0.92323567786E+03  0.00000000000E+00 0.  1.
         11    1    5    5    0    0 -0.49009543180E+02 -0.39806887755E+01  0.43665553364E+02  0.65760639872E+02  0.00000000000E+00 0.  1.
        -11    1    5    5    0    0 -0.38003139261E+03  0.15201520249E+03  0.64946143086E+03  0.76768003187E+03  0.00000000000E+00 0. -1.
          4    1    6    6  503    0  0.18037181591E+03 -0.19005267060E+03  0.60757597427E+02  0.26897117917E+03  0.00000000000E+00 0. -1.
         -4    1    6    6    0  503  0.11208773324E+03 -0.47420635133E+02  0.72935728937E+02  0.14188726911E+03  0.00000000000E+00 0.  1.
<mgrwt>
<rscale>  0 0.15222931E+04</rscale>
<asrwt>0</asrwt>
<pdfrwt beam="1">  1        1 0.41716808E+00 0.15222931E+04</pdfrwt>
<pdfrwt beam="2">  1       -2 0.32869929E-01 0.15222931E+04</pdfrwt>
<totfact> 0.70772121E+00</totfact>
</mgrwt>
</event>
<event>
12    4  0.4320235E-008  0.1335178E+04  0.7818608E-02  0.9002125E-01
         -2   -1    0    0    0  501 -0.00000000000E+00  0.00000000000E+00  0.23012660605E+03  0.23012660605E+03  0.00000000000E+00 0.  1.
          1   -1    0    0  501    0  0.00000000000E+00 -0.00000000000E+00 -0.19366512492E+04  0.19366512492E+04  0.00000000000E+00 0. -1.
        -24    2    1    2    0    0 -0.67658303620E+02 -0.29571030317E+03 -0.76828382178E+03  0.82999853450E+03  0.81334537652E+02 0.  0.
        254    2    1    2    0    0  0.67658303620E+02  0.29571030317E+03 -0.93824082134E+03  0.13367793207E+04  0.90258566575E+03 0.  0.
         23    2    4    4    0    0 -0.40164928350E+03  0.11976346726E+03 -0.31753273385E+03  0.53418068182E+03  0.94109132026E+02 0.  0.
         23    2    4    4    0    0  0.46930758712E+03  0.17594683590E+03 -0.62070808748E+03  0.80259863890E+03  0.87630730298E+02 0.  0.
          1    1    3    3  502    0 -0.70649274748E+02 -0.25704607063E+03 -0.72185056752E+03  0.76950129583E+03  0.00000000000E+00 0. -1.
         -2    1    3    3    0  502  0.29909711279E+01 -0.38664232538E+02 -0.46433254260E+02  0.60497238675E+02  0.00000000000E+00 0.  1.
         11    1    5    5    0    0 -0.12524876357E+02  0.26586482787E+02 -0.19771113612E+02  0.35420481762E+02  0.00000000000E+00 0. -1.
        -11    1    5    5    0    0 -0.38912440715E+03  0.93176984475E+02 -0.29776162024E+03  0.49876020006E+03  0.00000000000E+00 0.  1.
          3    1    6    6  503    0  0.15683250321E+02  0.25715309244E+02 -0.26791212441E+02  0.40311419402E+02  0.00000000000E+00 0. -1.
         -3    1    6    6    0  503  0.45362433680E+03  0.15023152666E+03 -0.59391687504E+03  0.76228721949E+03  0.00000000000E+00 0.  1.
<mgrwt>
<rscale>  0 0.13351779E+04</rscale>
<asrwt>0</asrwt>
<pdfrwt beam="1">  1        1 0.29794635E+00 0.13351779E+04</pdfrwt>
<pdfrwt beam="2">  1       -2 0.35404093E-01 0.13351779E+04</pdfrwt>
<totfact> 0.21228673E+01</totfact>
</mgrwt>
</event>
<event>
12    4  0.4320235E-008  0.1828275E+04  0.7818608E-02  0.8691406E-01
          1   -1    0    0  501    0  0.00000000000E+00  0.00000000000E+00  0.64229124680E+03  0.64229124680E+03  0.00000000000E+00 0. -1.
         -2   -1    0    0    0  501 -0.00000000000E+00 -0.00000000000E+00 -0.13010417177E+04  0.13010417177E+04  0.00000000000E+00 0.  1.
        -24    2    1    2    0    0 -0.58344480037E+03 -0.39935034314E+02  0.13880007430E+03  0.60630520129E+03  0.79610893954E+02 0.  0.
        254    2    1    2    0    0  0.58344480037E+03  0.39935034314E+02 -0.79755054521E+03  0.13370277632E+04  0.89975203550E+03 0.  0.
         23    2    4    4    0    0  0.80466131953E+03  0.77769996719E+02 -0.70203879225E+03  0.10744579542E+04  0.89852200949E+02 0.  0.
         23    2    4    4    0    0 -0.22121651916E+03 -0.37834962404E+02 -0.95511752957E+02  0.26256980899E+03  0.97222306648E+02 0.  0.
          3    1    3    3  502    0 -0.51920449898E+03 -0.40997716965E+02  0.97335978652E+02  0.52983810480E+03  0.00000000000E+00 0. -1.
         -4    1    3    3    0  502 -0.64240301392E+02  0.10626826507E+01  0.41464095650E+02  0.76467096489E+02  0.00000000000E+00 0.  1.
         11    1    5    5    0    0  0.73716022643E+02 -0.61690177416E+01 -0.96338855282E+02  0.12146309650E+03  0.00000000000E+00 0. -1.
        -11    1    5    5    0    0  0.73094529689E+03  0.83939014460E+02 -0.60569993697E+03  0.95299485772E+03  0.00000000000E+00 0.  1.
          3    1    6    6  503    0 -0.84163677407E+02  0.32057046720E+02 -0.25928393004E+02  0.93720117386E+02  0.00000000000E+00 0. -1.
         -3    1    6    6    0  503 -0.13705284176E+03 -0.69892009124E+02 -0.69583359953E+02  0.16884969160E+03  0.00000000000E+00 0.  1.
<mgrwt>
<rscale>  0 0.18282754E+04</rscale>
<asrwt>0</asrwt>
<pdfrwt beam="1">  1        1 0.98814039E-01 0.18282754E+04</pdfrwt>
<pdfrwt beam="2">  1       -2 0.20016026E+00 0.18282754E+04</pdfrwt>
<totfact> 0.33874977E+00</totfact>
</mgrwt>
</event>
<event>
12    4  0.4320235E-008  0.1717161E+04  0.7818608E-02  0.8751637E-01
         -2   -1    0    0    0  501 -0.00000000000E+00  0.00000000000E+00  0.15155726657E+04  0.15155726657E+04  0.00000000000E+00 0.  1.
          1   -1    0    0  501    0  0.00000000000E+00 -0.00000000000E+00 -0.48639092482E+03  0.48639092482E+03  0.00000000000E+00 0. -1.
        -24    2    1    2    0    0  0.24259153095E+03 -0.33302981505E+03 -0.16453315629E+03  0.45004356855E+03  0.75554916958E+02 0.  0.
        254    2    1    2    0    0 -0.24259153095E+03  0.33302981505E+03  0.11937148971E+04  0.15519200219E+04  0.90207593374E+03 0.  0.
         23    2    4    4    0    0 -0.38068622089E+03  0.27413107960E+02  0.10041395939E+03  0.40487076741E+03  0.90354290419E+02 0.  0.
         23    2    4    4    0    0  0.13809468993E+03  0.30561670709E+03  0.10933009377E+04  0.11470492545E+04  0.89125399339E+02 0.  0.
          1    1    3    3  502    0  0.22539167733E+03 -0.29463497166E+03 -0.12272988401E+03  0.39073494746E+03  0.00000000000E+00 0. -1.
         -2    1    3    3    0  502  0.17199853619E+02 -0.38394843393E+02 -0.41803272271E+02  0.59308621095E+02  0.00000000000E+00 0.  1.
         11    1    5    5    0    0 -0.36740523374E+03  0.43304009299E+02  0.10295031057E+03  0.38400600184E+03  0.00000000000E+00 0.  1.
        -11    1    5    5    0    0 -0.13280987147E+02 -0.15890901339E+02 -0.25363511737E+01  0.20864765568E+02  0.00000000000E+00 0. -1.
          3    1    6    6  503    0  0.15575840820E+02 -0.13094803045E+01  0.69328734136E+02  0.71068944926E+02  0.00000000000E+00 0. -1.
         -3    1    6    6    0  503  0.12251884911E+03  0.30692618739E+03  0.10239722036E+04  0.10759803096E+04  0.00000000000E+00 0.  1.
<mgrwt>
<rscale>  0 0.17171614E+04</rscale>
<asrwt>0</asrwt>
<pdfrwt beam="1">  1        1 0.74829374E-01 0.17171614E+04</pdfrwt>
<pdfrwt beam="2">  1       -2 0.23316502E+00 0.17171614E+04</pdfrwt>
<totfact> 0.31255687E+00</totfact>
</mgrwt>
</event>
<event>
12    4  0.4320235E-008  0.1914891E+04  0.7818608E-02  0.8647479E-01
          1   -1    0    0  501    0  0.00000000000E+00  0.00000000000E+00  0.12596943454E+04  0.12596943454E+04  0.00000000000E+00 0. -1.
         -2   -1    0    0    0  501 -0.00000000000E+00 -0.00000000000E+00 -0.72771789827E+03  0.72771789827E+03  0.00000000000E+00 0.  1.
        -24    2    1    2    0    0  0.28144072426E+03  0.62955698826E+03 -0.85741098307E+02  0.69949264248E+03  0.79922075834E+02 0.  0.
        254    2    1    2    0    0 -0.28144072426E+03 -0.62955698826E+03  0.61771754545E+03  0.12879196012E+04  0.89532734263E+03 0.  0.
         23    2    4    4    0    0 -0.15381253321E+03 -0.26722494471E+03  0.79298252215E+03  0.85566879315E+03  0.90996355326E+02 0.  0.
         23    2    4    4    0    0 -0.12762819105E+03 -0.36233204355E+03 -0.17526497670E+03  0.43225080806E+03  0.92463420205E+02 0.  0.
          3    1    3    3  502    0  0.23211766898E+03  0.51438861141E+03 -0.38678568512E+02  0.56565916191E+03  0.00000000000E+00 0. -1.
         -4    1    3    3    0  502  0.49323055284E+02  0.11516837685E+03 -0.47062529795E+02  0.13383348057E+03  0.00000000000E+00 0.  1.
         11    1    5    5    0    0 -0.84338762303E+02 -0.13450168342E+03  0.52708331405E+03  0.55047302352E+03  0.00000000000E+00 0. -1.
        -11    1    5    5    0    0 -0.69473770911E+02 -0.13272326129E+03  0.26589920810E+03  0.30519576963E+03  0.00000000000E+00 0.  1.
          2    1    6    6  503    0 -0.53069562149E+02 -0.19104323794E+03 -0.41733527976E+02  0.20262177708E+03  0.00000000000E+00 0. -1.
         -2    1    6    6    0  503 -0.74558628898E+02 -0.17128880561E+03 -0.13353144872E+03  0.22962903098E+03  0.00000000000E+00 0.  1.
<mgrwt>
<rscale>  0 0.19148912E+04</rscale>
<asrwt>0</asrwt>
<pdfrwt beam="1">  1        1 0.19379913E+00 0.19148912E+04</pdfrwt>
<pdfrwt beam="2">  1       -2 0.11195660E+00 0.19148912E+04</pdfrwt>
<totfact> 0.49899524E+00</totfact>
</mgrwt>
</event>
<event>
12    4  0.4320235E-008  0.2111774E+04  0.7818608E-02  0.8556074E-01
         -2   -1    0    0    0  501 -0.00000000000E+00  0.00000000000E+00  0.13268839958E+04  0.13268839958E+04  0.00000000000E+00 0.  1.
          1   -1    0    0  501    0  0.00000000000E+00 -0.00000000000E+00 -0.84023740359E+03  0.84023740359E+03  0.00000000000E+00 0. -1.
        -24    2    1    2    0    0 -0.32732987613E+03  0.38209793432E+03  0.91239226533E+03  0.10450399312E+04  0.80654403720E+02 0.  0.
        254    2    1    2    0    0  0.32732987613E+03 -0.38209793432E+03 -0.42574567314E+03  0.11220814681E+04  0.90810999537E+03 0.  0.
         23    2    4    4    0    0  0.43620943667E+03 -0.60732034509E+03 -0.21803760107E+03  0.78488151686E+03  0.96860341898E+02 0.  0.
         23    2    4    4    0    0 -0.10887956054E+03  0.22522241077E+03 -0.20770807207E+03  0.33719995127E+03  0.89337958978E+02 0.  0.
          1    1    3    3  502    0 -0.51901181065E+01  0.14802199188E+02  0.92061697559E+01  0.18187797786E+02  0.00000000000E+00 0. -1.
         -2    1    3    3    0  502 -0.32213975802E+03  0.36729573513E+03  0.90318609557E+03  0.10268521335E+04  0.00000000000E+00 0.  1.
         11    1    5    5    0    0  0.11917018011E+03 -0.11451411452E+03 -0.76131112471E+02  0.18196417378E+03  0.00000000000E+00 0. -1.
        -11    1    5    5    0    0  0.31703925656E+03 -0.49280623057E+03 -0.14190648860E+03  0.60291734308E+03  0.00000000000E+00 0.  1.
          3    1    6    6  503    0 -0.53791921501E+01  0.27194580820E+02  0.56053795241E+01  0.28282524884E+02  0.00000000000E+00 0. -1.
         -3    1    6    6    0  503 -0.10350036839E+03  0.19802782995E+03 -0.21331345160E+03  0.30891742638E+03  0.00000000000E+00 0.  1.
<mgrwt>
<rscale>  0 0.21117742E+04</rscale>
<asrwt>0</asrwt>
<pdfrwt beam="1">  1        1 0.12926729E+00 0.21117742E+04</pdfrwt>
<pdfrwt beam="2">  1       -2 0.20413600E+00 0.21117742E+04</pdfrwt>
<totfact> 0.20531781E+00</totfact>
</mgrwt>
</event>
<event>
12    4  0.4320235E-008  0.1590404E+04  0.7818608E-02  0.8826465E-01
         -2   -1    0    0    0  501 -0.00000000000E+00  0.00000000000E+00  0.13282913872E+04  0.13282913872E+04  0.00000000000E+00 0.  1.
          1   -1    0    0  501    0  0.00000000000E+00 -0.00000000000E+00 -0.47605958004E+03  0.47605958004E+03  0.00000000000E+00 0. -1.
        -24    2    1    2    0    0 -0.19863568055E+03 -0.49874397256E+03  0.38804611431E+03  0.66715733670E+03  0.79482333445E+02 0.  0.
        254    2    1    2    0    0  0.19863568055E+03  0.49874397256E+03  0.46418569287E+03  0.11371936306E+04  0.88856024679E+03 0.  0.
         23    2    4    4    0    0  0.13191798036E+03 -0.23973195773E+03  0.11801455898E+03  0.31259494989E+03  0.94416108103E+02 0.  0.
         23    2    4    4    0    0  0.66717700192E+02  0.73847593029E+03  0.34617113389E+03  0.82459868067E+03  0.10163945634E+03 0.  0.
          1    1    3    3  502    0 -0.50634436369E+02 -0.18937582524E+03  0.10432013271E+03  0.22205796410E+03  0.00000000000E+00 0. -1.
         -2    1    3    3    0  502 -0.14800124418E+03 -0.30936814732E+03  0.28372598160E+03  0.44509937260E+03  0.00000000000E+00 0.  1.
         11    1    5    5    0    0  0.13461288387E+03 -0.24643113030E+03  0.11958700644E+03  0.30520482073E+03  0.00000000000E+00 0. -1.
        -11    1    5    5    0    0 -0.26949035138E+01  0.66991725702E+01 -0.15724474631E+01  0.73901291666E+01  0.00000000000E+00 0.  1.
          4    1    6    6  503    0  0.52076734122E+02  0.60922162827E+03  0.32613390771E+03  0.69298362487E+03  0.00000000000E+00 0. -1.
         -4    1    6    6    0  503  0.14640966070E+02  0.12925430202E+03  0.20037226180E+02  0.13161505579E+03  0.00000000000E+00 0.  1.
<mgrwt>
<rscale>  0 0.15904035E+04</rscale>
<asrwt>0</asrwt>
<pdfrwt beam="1">  1        1 0.73239936E-01 0.15904035E+04</pdfrwt>
<pdfrwt beam="2">  1       -2 0.20435252E+00 0.15904035E+04</pdfrwt>
<totfact> 0.49565253E+00</totfact>
</mgrwt>
</event>
<event>
12    4  0.4320235E-008  0.1892709E+04  0.7818608E-02  0.8658494E-01
          1   -1    0    0  501    0  0.00000000000E+00  0.00000000000E+00  0.26701668578E+04  0.26701668578E+04  0.00000000000E+00 0. -1.
         -2   -1    0    0    0  501 -0.00000000000E+00 -0.00000000000E+00 -0.33540469339E+03  0.33540469339E+03  0.00000000000E+00 0.  1.
        -24    2    1    2    0    0  0.49647151262E+03  0.37243145833E+03  0.29069623253E+03  0.69004800841E+03  0.80453715377E+02 0.  0.
        254    2    1    2    0    0 -0.49647151262E+03 -0.37243145833E+03  0.20440659319E+04  0.23155235428E+04  0.89345094400E+03 0.  0.
         23    2    4    4    0    0 -0.43395366374E+02 -0.10875910529E+03  0.16422356178E+04  0.16488808955E+04  0.90325426203E+02 0.  0.
         23    2    4    4    0    0 -0.45307614624E+03 -0.26367235304E+03  0.40183031412E+03  0.66664264725E+03  0.90242527316E+02 0.  0.
          3    1    3    3  502    0  0.87486624518E+02  0.58071855381E+02  0.83472185084E+02  0.13414117764E+03  0.00000000000E+00 0. -1.
         -4    1    3    3    0  502  0.40898488810E+03  0.31435960295E+03  0.20722404745E+03  0.55590683077E+03  0.00000000000E+00 0.  1.
         11    1    5    5    0    0 -0.70140355748E+02 -0.90432193402E+02  0.11929804850E+04  0.11984573787E+04  0.00000000000E+00 0.  1.
        -11    1    5    5    0    0  0.26744989373E+02 -0.18326911887E+02  0.44925513278E+03  0.45042351680E+03  0.00000000000E+00 0. -1.
          1    1    6    6  503    0 -0.37869735147E+03 -0.18783579778E+03  0.34810959510E+03  0.54760776212E+03  0.00000000000E+00 0. -1.
         -1    1    6    6    0  503 -0.74378794772E+02 -0.75836555255E+02  0.53720719023E+02  0.11903488513E+03  0.00000000000E+00 0.  1.
<mgrwt>
<rscale>  0 0.18927086E+04</rscale>
<asrwt>0</asrwt>
<pdfrwt beam="1">  1        1 0.41079489E+00 0.18927086E+04</pdfrwt>
<pdfrwt beam="2">  1       -2 0.51600724E-01 0.18927086E+04</pdfrwt>
<totfact> 0.30089498E+00</totfact>
</mgrwt>
</event>
<event>
12    4  0.4320235E-008  0.1042440E+04  0.7818608E-02  0.9263184E-01
          1   -1    0    0  501    0  0.00000000000E+00  0.00000000000E+00  0.53899603483E+03  0.53899603483E+03  0.00000000000E+00 0. -1.
         -2   -1    0    0    0  501 -0.00000000000E+00 -0.00000000000E+00 -0.50403061358E+03  0.50403061358E+03  0.00000000000E+00 0.  1.
        -24    2    1    2    0    0  0.47267111365E+02 -0.52297060495E+02 -0.74341016200E+02  0.13144618412E+03  0.82355025808E+02 0.  0.
        254    2    1    2    0    0 -0.47267111365E+02  0.52297060495E+02  0.10930643745E+03  0.91158046430E+03  0.90225377986E+03 0.  0.
         23    2    4    4    0    0  0.11728558549E+03 -0.18866235834E+03  0.41475634322E+03  0.47942446865E+03  0.92063037528E+02 0.  0.
         23    2    4    4    0    0 -0.16455269686E+03  0.24095941883E+03 -0.30544990577E+03  0.43215599565E+03  0.91214736072E+02 0.  0.
          3    1    3    3  502    0  0.47457529419E+02 -0.69639210831E+02 -0.40673990598E+02  0.93574624204E+02  0.00000000000E+00 0. -1.
         -4    1    3    3    0  502 -0.19041805361E+00  0.17342150336E+02 -0.33667025602E+02  0.37871559912E+02  0.00000000000E+00 0.  1.
         11    1    5    5    0    0  0.39987435714E+02 -0.47793907049E+02  0.46859521150E+02  0.77968373642E+02  0.00000000000E+00 0. -1.
        -11    1    5    5    0    0  0.77298149779E+02 -0.14086845129E+03  0.36789682207E+03  0.40145609501E+03  0.00000000000E+00 0.  1.
          3    1    6    6  503    0 -0.25822042354E+02  0.16809097113E+02 -0.30089448632E+01  0.30957670556E+02  0.00000000000E+00 0. -1.
         -3    1    6    6    0  503 -0.13873065450E+03  0.22415032172E+03 -0.30244096091E+03  0.40119832510E+03  0.00000000000E+00 0.  1.
<mgrwt>
<rscale>  0 0.10424404E+04</rscale>
<asrwt>0</asrwt>
<pdfrwt beam="1">  1        1 0.82922467E-01 0.10424404E+04</pdfrwt>
<pdfrwt beam="2">  1       -2 0.77543171E-01 0.10424404E+04</pdfrwt>
<totfact> 0.51800477E+01</totfact>
</mgrwt>
</event>
<event>
12    4  0.4320235E-008  0.1157920E+04  0.7818608E-02  0.9150508E-01
         -2   -1    0    0    0  501 -0.00000000000E+00  0.00000000000E+00  0.86844207044E+03  0.86844207044E+03  0.00000000000E+00 0.  1.
          1   -1    0    0  501    0  0.00000000000E+00 -0.00000000000E+00 -0.38597236437E+03  0.38597236437E+03  0.00000000000E+00 0. -1.
        -24    2    1    2    0    0 -0.48465269176E+02  0.53673269514E+01  0.30525510431E+03  0.32073085608E+03  0.85498028166E+02 0.  0.
        254    2    1    2    0    0  0.48465269176E+02 -0.53673269514E+01  0.17721460177E+03  0.93368357873E+03  0.91541374230E+03 0.  0.
         23    2    4    4    0    0 -0.22985632647E+03  0.36422561360E+03  0.34130614887E+02  0.44104017382E+03  0.88641455437E+02 0.  0.
         23    2    4    4    0    0  0.27832159565E+03 -0.36959294056E+03  0.14308398688E+03  0.49264340491E+03  0.90347356275E+02 0.  0.
          1    1    3    3  502    0 -0.24461931727E+02  0.54750616063E+01  0.14444003495E+02  0.28930807807E+02  0.00000000000E+00 0. -1.
         -2    1    3    3    0  502 -0.24003337449E+02 -0.10773465489E+00  0.29081110081E+03  0.29180004827E+03  0.00000000000E+00 0.  1.
         11    1    5    5    0    0 -0.20779506234E+03  0.28729525722E+03  0.13852117299E+01  0.35456913511E+03  0.00000000000E+00 0.  1.
        -11    1    5    5    0    0 -0.22061264130E+02  0.76930356380E+02  0.32745403157E+02  0.86471038710E+02  0.00000000000E+00 0. -1.
          1    1    6    6  503    0  0.22150692641E+02 -0.71784247768E+02  0.16874066064E+01  0.75143055255E+02  0.00000000000E+00 0. -1.
         -1    1    6    6    0  503  0.25617090301E+03 -0.29780869279E+03  0.14139658027E+03  0.41750034965E+03  0.00000000000E+00 0.  1.
<mgrwt>
<rscale>  0 0.11579199E+04</rscale>
<asrwt>0</asrwt>
<pdfrwt beam="1">  1        1 0.59380364E-01 0.11579199E+04</pdfrwt>
<pdfrwt beam="2">  1       -2 0.13360647E+00 0.11579199E+04</pdfrwt>
<totfact> 0.22085066E+01</totfact>
</mgrwt>
</event>
<event>
12    4  0.4320235E-008  0.2122288E+04  0.7818608E-02  0.8551489E-01
         -2   -1    0    0    0  501 -0.00000000000E+00  0.00000000000E+00  0.16473487244E+04  0.16473487244E+04  0.00000000000E+00 0.  1.
          1   -1    0    0  501    0  0.00000000000E+00 -0.00000000000E+00 -0.68353839224E+03  0.68353839224E+03  0.00000000000E+00 0. -1.
        -24    2    1    2    0    0 -0.72840690257E+03 -0.42149553878E+03  0.63961010363E+03  0.10602353901E+04  0.82236810061E+02 0.  0.
        254    2    1    2    0    0  0.72840690257E+03  0.42149553878E+03  0.32420022851E+03  0.12706517265E+04  0.89510609254E+03 0.  0.
         23    2    4    4    0    0  0.82375543214E+02 -0.21356757397E+03  0.25981048729E+03  0.35781965276E+03  0.90202970160E+02 0.  0.
         23    2    4    4    0    0  0.64603135936E+03  0.63506311275E+03  0.64389741216E+02  0.91283207371E+03  0.91949342414E+02 0.  0.
          1    1    3    3  502    0 -0.41479111704E+03 -0.22604213042E+03  0.30966160198E+03  0.56483362439E+03  0.00000000000E+00 0. -1.
         -2    1    3    3    0  502 -0.31361578553E+03 -0.19545340837E+03  0.32994850165E+03  0.49540176576E+03  0.00000000000E+00 0.  1.
         11    1    5    5    0    0  0.30777167916E+02 -0.83733523334E+02  0.16925881888E+03  0.19132978013E+03  0.00000000000E+00 0.  1.
        -11    1    5    5    0    0  0.51598375298E+02 -0.12983405064E+03  0.90551668408E+02  0.16648987263E+03  0.00000000000E+00 0. -1.
          2    1    6    6  503    0  0.14222354014E+03  0.15355379375E+03  0.52695126671E+02  0.21583113612E+03  0.00000000000E+00 0. -1.
         -2    1    6    6    0  503  0.50380781922E+03  0.48150931901E+03  0.11694614545E+02  0.69700093759E+03  0.00000000000E+00 0.  1.
<mgrwt>
<rscale>  0 0.21222875E+04</rscale>
<asrwt>0</asrwt>
<pdfrwt beam="1">  1        1 0.10515975E+00 0.21222875E+04</pdfrwt>
<pdfrwt beam="2">  1       -2 0.25343826E+00 0.21222875E+04</pdfrwt>
<totfact> 0.13900674E+00</totfact>
</mgrwt>
</event>
<event>
12    4  0.4320235E-008  0.1450333E+04  0.7818608E-02  0.8918170E-01
          1   -1    0    0  501    0  0.00000000000E+00  0.00000000000E+00  0.10242285756E+04  0.10242285756E+04  0.00000000000E+00 0. -1.
         -2   -1    0    0    0  501 -0.00000000000E+00 -0.00000000000E+00 -0.51342690771E+03  0.51342690771E+03  0.00000000000E+00 0.  1.
        -24    2    1    2    0    0 -0.91506475938E+02  0.34752554727E+03  0.44440938108E+03  0.57730627058E+03  0.81457908843E+02 0.  0.
        254    2    1    2    0    0  0.91506475938E+02 -0.34752554727E+03  0.66392286808E+02  0.96034921272E+03  0.88809641001E+03 0.  0.
         23    2    4    4    0    0 -0.11313800743E+03  0.16734675113E+03 -0.23552853310E+03  0.32291144109E+03  0.89403383859E+02 0.  0.
         23    2    4    4    0    0  0.20464448337E+03 -0.51487229840E+03  0.30192081991E+03  0.63743777163E+03  0.90542161261E+02 0.  0.
          1    1    3    3  502    0 -0.28620901419E+02  0.13929480278E+03  0.23912443828E+03  0.27821339842E+03  0.00000000000E+00 0. -1.
         -2    1    3    3    0  502 -0.62885574519E+02  0.20823074449E+03  0.20528494280E+03  0.29909287215E+03  0.00000000000E+00 0.  1.
         11    1    5    5    0    0 -0.65302212618E+02  0.42403955705E+02 -0.13393487130E+03  0.15492263935E+03  0.00000000000E+00 0.  1.
        -11    1    5    5    0    0 -0.47835794811E+02  0.12494279543E+03 -0.10159366180E+03  0.16798880175E+03  0.00000000000E+00 0. -1.
          1    1    6    6  503    0  0.18811772537E+03 -0.49610814327E+03  0.26560020969E+03  0.59334226194E+03  0.00000000000E+00 0. -1.
         -1    1    6    6    0  503  0.16526757995E+02 -0.18764155136E+02  0.36320610223E+02  0.44095509689E+02  0.00000000000E+00 0.  1.
<mgrwt>
<rscale>  0 0.14503331E+04</rscale>
<asrwt>0</asrwt>
<pdfrwt beam="1">  1        1 0.15757363E+00 0.14503331E+04</pdfrwt>
<pdfrwt beam="2">  1       -2 0.78988755E-01 0.14503331E+04</pdfrwt>
<totfact> 0.17547219E+01</totfact>
</mgrwt>
</event>
<event>
12    4  0.4320235E-008  0.1955484E+04  0.7818608E-02  0.8627721E-01
          1   -1    0    0  501    0  0.00000000000E+00  0.00000000000E+00  0.14800317076E+04  0.14800317076E+04  0.00000000000E+00 0. -1.
         -2   -1    0    0    0  501 -0.00000000000E+00 -0.00000000000E+00 -0.64591792675E+03  0.64591792675E+03  0.00000000000E+00 0.  1.
        -24    2    1    2    0    0 -0.70862411229E+03 -0.47135569256E+01  0.66884025968E+03  0.97778611747E+03  0.80920012420E+02 0.  0.
        254    2    1    2    0    0  0.70862411229E+03  0.47135569256E+01  0.16527352113E+03  0.11481635169E+04  0.88814062766E+03 0.  0.
         23    2    4    4    0    0 -0.90884872905E+02  0.25055979627E+03 -0.33055085994E+02  0.28376460018E+03  0.91593875221E+02 0.  0.
         23    2    4    4    0    0  0.79950898519E+03 -0.24584623934E+03  0.19832860712E+03  0.86439891667E+03  0.90533197930E+02 0.  0.
          3    1    3    3  502    0 -0.37162696164E+03 -0.11512807271E+02  0.40460515325E+03  0.54949474373E+03  0.00000000000E+00 0. -1.
         -4    1    3    3    0  502 -0.33699715065E+03  0.67992503454E+01  0.26423510643E+03  0.42829137374E+03  0.00000000000E+00 0.  1.
         11    1    5    5    0    0  0.17709767217E+02  0.58082723997E+02 -0.10420575116E+02  0.61610283781E+02  0.00000000000E+00 0. -1.
        -11    1    5    5    0    0 -0.10859464012E+03  0.19247707227E+03 -0.22634510878E+02  0.22215431640E+03  0.00000000000E+00 0.  1.
          3    1    6    6  503    0  0.47296176139E+03 -0.18293048553E+03  0.14640289826E+03  0.52781644432E+03  0.00000000000E+00 0. -1.
         -3    1    6    6    0  503  0.32654722381E+03 -0.62915753813E+02  0.51925708864E+02  0.33658247235E+03  0.00000000000E+00 0.  1.
<mgrwt>
<rscale>  0 0.19554836E+04</rscale>
<asrwt>0</asrwt>
<pdfrwt beam="1">  1        1 0.22769718E+00 0.19554836E+04</pdfrwt>
<pdfrwt beam="2">  1       -2 0.99371989E-01 0.19554836E+04</pdfrwt>
<totfact> 0.46280763E+00</totfact>
</mgrwt>
</event>
<event>
12    4  0.4320235E-008  0.2603924E+04  0.7818608E-02  0.8366870E-01
          1   -1    0    0  501    0  0.00000000000E+00  0.00000000000E+00  0.22294819364E+04  0.22294819364E+04  0.00000000000E+00 0. -1.
         -2   -1    0    0    0  501 -0.00000000000E+00 -0.00000000000E+00 -0.76031326734E+03  0.76031326734E+03  0.00000000000E+00 0.  1.
        -24    2    1    2    0    0 -0.32952831063E+03 -0.66655899439E+03 -0.35224322410E+03  0.82658646118E+03  0.79247008549E+02 0.  0.
        254    2    1    2    0    0  0.32952831063E+03  0.66655899439E+03  0.18214118931E+04  0.21632087426E+04  0.89946705267E+03 0.  0.
         23    2    4    4    0    0 -0.15192029409E+03  0.58315240581E+03  0.13380063288E+04  0.14701131673E+04  0.88460638404E+02 0.  0.
         23    2    4    4    0    0  0.48144860472E+03  0.83406588582E+02  0.48340556434E+03  0.69309557526E+03  0.89169046251E+02 0.  0.
          1    1    3    3  502    0 -0.58357364844E+02 -0.76966009301E+02 -0.24937000073E+02  0.99755714583E+02  0.00000000000E+00 0. -1.
         -2    1    3    3    0  502 -0.27117094579E+03 -0.58959298509E+03 -0.32730622403E+03  0.72683074659E+03  0.00000000000E+00 0.  1.
         11    1    5    5    0    0 -0.16170436242E+03  0.52331858984E+03  0.12247650227E+04  0.13416631500E+04  0.00000000000E+00 0.  1.
        -11    1    5    5    0    0  0.97840683325E+01  0.59833815968E+02  0.11324130610E+03  0.12845001726E+03  0.00000000000E+00 0. -1.
          4    1    6    6  503    0  0.11870371927E+03 -0.10509437743E+02  0.86456335327E+02  0.14722676104E+03  0.00000000000E+00 0. -1.
         -4    1    6    6    0  503  0.36274488545E+03  0.93916026325E+02  0.39694922901E+03  0.54586881422E+03  0.00000000000E+00 0.  1.
<mgrwt>
<rscale>  0 0.26039237E+04</rscale>
<asrwt>0</asrwt>
<pdfrwt beam="1">  1        1 0.34299722E+00 0.26039237E+04</pdfrwt>
<pdfrwt beam="2">  1       -2 0.11697127E+00 0.26039237E+04</pdfrwt>
<totfact> 0.91038963E-01</totfact>
</mgrwt>
</event>
<event>
12    4  0.4320235E-008  0.1571641E+04  0.7818608E-02  0.8838162E-01
          1   -1    0    0  501    0  0.00000000000E+00  0.00000000000E+00  0.41526603389E+03  0.41526603389E+03  0.00000000000E+00 0. -1.
         -2   -1    0    0    0  501 -0.00000000000E+00 -0.00000000000E+00 -0.14870313074E+04  0.14870313074E+04  0.00000000000E+00 0.  1.
        -24    2    1    2    0    0  0.38910845877E+03 -0.30278963352E+03 -0.14876417547E+03  0.52176061855E+03  0.83764003706E+02 0.  0.
        254    2    1    2    0    0 -0.38910845877E+03  0.30278963352E+03 -0.92300109806E+03  0.13805367228E+04  0.90047968386E+03 0.  0.
         23    2    4    4    0    0 -0.30740136801E+03 -0.13839199375E+02 -0.98434791083E+03  0.10358048097E+04  0.96247959700E+02 0.  0.
         23    2    4    4    0    0 -0.81707090763E+02  0.31662883289E+03  0.61346812767E+02  0.34473191307E+03  0.90259592035E+02 0.  0.
          3    1    3    3  502    0  0.28275588257E+03 -0.20813037468E+03 -0.14348701002E+03  0.37928572876E+03  0.00000000000E+00 0. -1.
         -4    1    3    3    0  502  0.10635257619E+03 -0.94659258836E+02 -0.52771654521E+01  0.14247488979E+03  0.00000000000E+00 0.  1.
         11    1    5    5    0    0 -0.31309385286E+03 -0.20343542005E+02 -0.95622223872E+03  0.10063809369E+04  0.00000000000E+00 0. -1.
        -11    1    5    5    0    0  0.56924848528E+01  0.65043426299E+01 -0.28125672105E+02  0.29423872760E+02  0.00000000000E+00 0.  1.
          2    1    6    6  503    0 -0.90010295741E+02  0.30242913033E+03  0.40425741279E+02  0.31811864574E+03  0.00000000000E+00 0. -1.
         -2    1    6    6    0  503  0.83032049782E+01  0.14199702564E+02  0.20921071488E+02  0.26613267331E+02  0.00000000000E+00 0.  1.
<mgrwt>
<rscale>  0 0.15716407E+04</rscale>
<asrwt>0</asrwt>
<pdfrwt beam="1">  1        1 0.63887083E-01 0.15716407E+04</pdfrwt>
<pdfrwt beam="2">  1       -2 0.22877404E+00 0.15716407E+04</pdfrwt>
<totfact> 0.41739304E+00</totfact>
</mgrwt>
</event>
<event>
12    4  0.4320235E-008  0.1549331E+04  0.7818608E-02  0.8852295E-01
         -4   -1    0    0    0  501 -0.00000000000E+00  0.00000000000E+00  0.89446639276E+03  0.89446639276E+03  0.00000000000E+00 0.  1.
          3   -1    0    0  501    0  0.00000000000E+00 -0.00000000000E+00 -0.67091019505E+03  0.67091019505E+03  0.00000000000E+00 0. -1.
        -24    2    1    2    0    0  0.48311188736E+03  0.15616352761E+03  0.16722007355E+03  0.54043991877E+03  0.79552559527E+02 0.  0.
        254    2    1    2    0    0 -0.48311188736E+03 -0.15616352761E+03  0.56336124163E+02  0.10249366690E+04  0.88855909967E+03 0.  0.
         23    2    4    4    0    0  0.68335711658E+01  0.23327629217E+03 -0.22018867399E+03  0.33360962207E+03  0.91366304499E+02 0.  0.
         23    2    4    4    0    0 -0.48994545853E+03 -0.38943981979E+03  0.27652479815E+03  0.69132704698E+03  0.98778521545E+02 0.  0.
          3    1    3    3  502    0  0.88470119128E+02  0.55447197855E+02  0.54809110503E+02  0.11792112755E+03  0.00000000000E+00 0. -1.
         -4    1    3    3    0  502  0.39464176824E+03  0.10071632976E+03  0.11241096305E+03  0.42251879122E+03  0.00000000000E+00 0.  1.
         11    1    5    5    0    0 -0.56334910123E+01  0.17001369563E+03 -0.10028341591E+03  0.19746684894E+03  0.00000000000E+00 0.  1.
        -11    1    5    5    0    0  0.12467062178E+02  0.63262596545E+02 -0.11990525808E+03  0.13614277313E+03  0.00000000000E+00 0. -1.
          3    1    6    6  503    0 -0.45200706042E+02 -0.76709825340E+02  0.26444462862E+02  0.92880626325E+02  0.00000000000E+00 0. -1.
         -3    1    6    6    0  503 -0.44474475249E+03 -0.31272999445E+03  0.25008033529E+03  0.59844642065E+03  0.00000000000E+00 0.  1.
<mgrwt>
<rscale>  0 0.15493310E+04</rscale>
<asrwt>0</asrwt>
<pdfrwt beam="1">  1        3 0.10321695E+00 0.15493310E+04</pdfrwt>
<pdfrwt beam="2">  1       -4 0.13761021E+00 0.15493310E+04</pdfrwt>
<totfact> 0.66888180E-01</totfact>
</mgrwt>
</event>
<event>
12    4  0.4320235E-008  0.1905677E+04  0.7818608E-02  0.8652036E-01
          1   -1    0    0  501    0  0.00000000000E+00  0.00000000000E+00  0.58753329400E+03  0.58753329400E+03  0.00000000000E+00 0. -1.
         -2   -1    0    0    0  501 -0.00000000000E+00 -0.00000000000E+00 -0.15452760528E+04  0.15452760528E+04  0.00000000000E+00 0.  1.
        -24    2    1    2    0    0  0.41661098473E+02 -0.38371570768E+03  0.32758165851E+03  0.51250770746E+03  0.79881260423E+02 0.  0.
        254    2    1    2    0    0 -0.41661098473E+02  0.38371570768E+03 -0.12853244173E+04  0.16203016393E+04  0.90793455341E+03 0.  0.
         23    2    4    4    0    0 -0.38510130192E+03  0.14305332900E+03 -0.10463873364E+04  0.11280308775E+04  0.93594524905E+02 0.  0.
         23    2    4    4    0    0  0.34344020345E+03  0.24066237867E+03 -0.23893708087E+03  0.49227076182E+03  0.96798866102E+02 0.  0.
          3    1    3    3  502    0  0.23569087316E+02 -0.30976202935E+03  0.29903899835E+03  0.43119872360E+03  0.00000000000E+00 0. -1.
         -4    1    3    3    0  502  0.18092011157E+02 -0.73953678330E+02  0.28542660155E+02  0.81308983851E+02  0.00000000000E+00 0.  1.
         11    1    5    5    0    0 -0.97472633802E+01 -0.11625116856E+02 -0.44527992920E+02  0.47041414082E+02  0.00000000000E+00 0.  1.
        -11    1    5    5    0    0 -0.37535403854E+03  0.15467844586E+03 -0.10018593435E+04  0.10809894634E+04  0.00000000000E+00 0. -1.
          2    1    6    6  503    0  0.19810770534E+03  0.99684283756E+02 -0.16615206525E+03  0.27711031761E+03  0.00000000000E+00 0. -1.
         -2    1    6    6    0  503  0.14533249811E+03  0.14097809492E+03 -0.72785015623E+02  0.21516044421E+03  0.00000000000E+00 0.  1.
<mgrwt>
<rscale>  0 0.19056769E+04</rscale>
<asrwt>0</asrwt>
<pdfrwt beam="1">  1        1 0.90389739E-01 0.19056769E+04</pdfrwt>
<pdfrwt beam="2">  1       -2 0.23773477E+00 0.19056769E+04</pdfrwt>
<totfact> 0.22106850E+00</totfact>
</mgrwt>
</event>
<event>
12    4  0.4320235E-008  0.2583195E+04  0.7818608E-02  0.8373932E-01
         -2   -1    0    0    0  501 -0.00000000000E+00  0.00000000000E+00  0.17561841132E+04  0.17561841132E+04  0.00000000000E+00 0.  1.
          1   -1    0    0  501    0  0.00000000000E+00 -0.00000000000E+00 -0.94991391387E+03  0.94991391387E+03  0.00000000000E+00 0. -1.
        -24    2    1    2    0    0  0.27861260719E+03 -0.10773348331E+04  0.21041784667E+03  0.11353873522E+04  0.80953331425E+02 0.  0.
        254    2    1    2    0    0 -0.27861260719E+03  0.10773348331E+04  0.59585235265E+03  0.15707106749E+04  0.93478161652E+03 0.  0.
         23    2    4    4    0    0  0.13849598229E+03 -0.34434235864E+02  0.29884851266E+03  0.34315068603E+03  0.89861594090E+02 0.  0.
         23    2    4    4    0    0 -0.41710858948E+03  0.11117690689E+04  0.29700383999E+03  0.12275599889E+04  0.93178362313E+02 0.  0.
          1    1    3    3  502    0  0.14439497340E+03 -0.55779839712E+03  0.67768404578E+02  0.58015645892E+03  0.00000000000E+00 0. -1.
         -2    1    3    3    0  502  0.13421763379E+03 -0.51953643596E+03  0.14264944209E+03  0.55523089326E+03  0.00000000000E+00 0.  1.
         11    1    5    5    0    0  0.95751098869E+02 -0.63046014124E+02  0.17692397202E+03  0.21082021892E+03  0.00000000000E+00 0.  1.
        -11    1    5    5    0    0  0.42744883424E+02  0.28611778260E+02  0.12192454064E+03  0.13233046711E+03  0.00000000000E+00 0. -1.
          1    1    6    6  503    0 -0.12863679505E+03  0.36902519285E+03  0.53896714857E+02  0.39450205814E+03  0.00000000000E+00 0. -1.
         -1    1    6    6    0  503 -0.28847179443E+03  0.74274387608E+03  0.24310712514E+03  0.83305793072E+03  0.00000000000E+00 0.  1.
<mgrwt>
<rscale>  0 0.25831947E+04</rscale>
<asrwt>0</asrwt>
<pdfrwt beam="1">  1        1 0.14614060E+00 0.25831947E+04</pdfrwt>
<pdfrwt beam="2">  1       -2 0.27018217E+00 0.25831947E+04</pdfrwt>
<totfact> 0.61995214E-01</totfact>
</mgrwt>
</event>
<event>
12    4  0.4320235E-008  0.1500232E+04  0.7818608E-02  0.8884298E-01
         -2   -1    0    0    0  501 -0.00000000000E+00  0.00000000000E+00  0.62784008555E+03  0.62784008555E+03  0.00000000000E+00 0.  1.
          1   -1    0    0  501    0  0.00000000000E+00 -0.00000000000E+00 -0.89620632286E+03  0.89620632286E+03  0.00000000000E+00 0. -1.
        -24    2    1    2    0    0 -0.25564911465E+02 -0.48072682472E+03 -0.86725659806E+02  0.49539723836E+03  0.78391574810E+02 0.  0.
        254    2    1    2    0    0  0.25564911465E+02  0.48072682472E+03 -0.18164057750E+03  0.10286491700E+04  0.89071542646E+03 0.  0.
         23    2    4    4    0    0  0.36578081468E+03  0.53683212509E+03 -0.11665618831E+03  0.66608190863E+03  0.89844909745E+02 0.  0.
         23    2    4    4    0    0 -0.34021590322E+03 -0.56105300371E+02 -0.64984389192E+02  0.36256726142E+03  0.91309269426E+02 0.  0.
          1    1    3    3  502    0 -0.34552635312E+02 -0.17603201866E+03 -0.61032097770E+02  0.18948897899E+03  0.00000000000E+00 0. -1.
         -2    1    3    3    0  502  0.89877238470E+01 -0.30469480606E+03 -0.25693562036E+02  0.30590825937E+03  0.00000000000E+00 0.  1.
         11    1    5    5    0    0  0.10348704412E+03  0.20461314306E+03 -0.72598999295E+02  0.24051345349E+03  0.00000000000E+00 0.  1.
        -11    1    5    5    0    0  0.26229377057E+03  0.33221898203E+03 -0.44057189017E+02  0.42556845513E+03  0.00000000000E+00 0. -1.
          2    1    6    6  503    0  0.33876250837E+01  0.50255172602E+00 -0.92967064462E+01  0.99074372414E+01  0.00000000000E+00 0. -1.
         -2    1    6    6    0  503 -0.34360352830E+03 -0.56607852097E+02 -0.55687682746E+02  0.35265982418E+03  0.00000000000E+00 0.  1.
<mgrwt>
<rscale>  0 0.15002323E+04</rscale>
<asrwt>0</asrwt>
<pdfrwt beam="1">  1        1 0.13787790E+00 0.15002323E+04</pdfrwt>
<pdfrwt beam="2">  1       -2 0.96590783E-01 0.15002323E+04</pdfrwt>
<totfact> 0.13928474E+01</totfact>
</mgrwt>
</event>
<event>
12    4  0.4320235E-008  0.1621761E+04  0.7818608E-02  0.8807290E-01
         -2   -1    0    0    0  501 -0.00000000000E+00  0.00000000000E+00  0.27085978795E+03  0.27085978795E+03  0.00000000000E+00 0.  1.
          1   -1    0    0  501    0  0.00000000000E+00 -0.00000000000E+00 -0.24275555935E+04  0.24275555935E+04  0.00000000000E+00 0. -1.
        -24    2    1    2    0    0 -0.34359976261E+03 -0.39800852304E+03 -0.10347219293E+04  0.11632509539E+04  0.77664210383E+02 0.  0.
        254    2    1    2    0    0  0.34359976261E+03  0.39800852304E+03 -0.11219738762E+04  0.15351644275E+04  0.90632933264E+03 0.  0.
         23    2    4    4    0    0 -0.11252050422E+03  0.15242640655E+03 -0.96336667601E+03  0.98602004038E+03  0.90914763950E+02 0.  0.
         23    2    4    4    0    0  0.45612026683E+03  0.24558211649E+03 -0.15860720020E+03  0.54914438709E+03  0.89705296189E+02 0.  0.
          1    1    3    3  502    0 -0.32723761358E+03 -0.37945482271E+03 -0.10137391582E+04  0.11308127604E+04  0.00000000000E+00 0. -1.
         -4    1    3    3    0  502 -0.16362149036E+02 -0.18553700330E+02 -0.20982771122E+02  0.32438193553E+02  0.00000000000E+00 0.  1.
         11    1    5    5    0    0  0.21376854594E+01  0.47915197435E+02 -0.35306983263E+03  0.35631270334E+03  0.00000000000E+00 0. -1.
        -11    1    5    5    0    0 -0.11465818968E+03  0.10451120911E+03 -0.61029684338E+03  0.62970733705E+03  0.00000000000E+00 0.  1.
          3    1    6    6  503    0  0.63914397407E+02  0.48545362841E+02  0.57431405787E+01  0.80465434275E+02  0.00000000000E+00 0. -1.
         -3    1    6    6    0  503  0.39220586942E+03  0.19703675365E+03 -0.16435034078E+03  0.46867895282E+03  0.00000000000E+00 0.  1.
<mgrwt>
<rscale>  0 0.16217610E+04</rscale>
<asrwt>0</asrwt>
<pdfrwt beam="1">  1        1 0.37347009E+00 0.16217610E+04</pdfrwt>
<pdfrwt beam="2">  1       -2 0.41670737E-01 0.16217610E+04</pdfrwt>
<totfact> 0.69902435E+00</totfact>
</mgrwt>
</event>
<event>
12    4  0.4320235E-008  0.2280790E+04  0.7818608E-02  0.8485534E-01
         -2   -1    0    0    0  501 -0.00000000000E+00  0.00000000000E+00  0.15496996733E+04  0.15496996733E+04  0.00000000000E+00 0.  1.
          1   -1    0    0  501    0  0.00000000000E+00 -0.00000000000E+00 -0.83919528562E+03  0.83919528562E+03  0.00000000000E+00 0. -1.
        -24    2    1    2    0    0  0.86172458050E+03 -0.20604483035E+03 -0.86121013522E+02  0.89376430043E+03  0.79837779234E+02 0.  0.
        254    2    1    2    0    0 -0.86172458050E+03  0.20604483035E+03  0.79662540120E+03  0.14951306585E+04  0.90320536501E+03 0.  0.
         23    2    4    4    0    0 -0.17517311727E+03  0.27711387698E+03  0.71747686552E+03  0.79416143593E+03  0.91878245184E+02 0.  0.
         23    2    4    4    0    0 -0.68655146323E+03 -0.71069046630E+02  0.79148535679E+02  0.70096922256E+03  0.93218234421E+02 0.  0.
          1    1    3    3  502    0  0.50897423205E+03 -0.11049678854E+03 -0.88494140238E+02  0.52829491955E+03  0.00000000000E+00 0. -1.
         -2    1    3    3    0  502  0.35275034846E+03 -0.95548041806E+02  0.23731267161E+01  0.36546938088E+03  0.00000000000E+00 0.  1.
         11    1    5    5    0    0 -0.26045601766E+02  0.11285456627E+03  0.29615480676E+03  0.31799716361E+03  0.00000000000E+00 0.  1.
        -11    1    5    5    0    0 -0.14912751551E+03  0.16425931071E+03  0.42132205876E+03  0.47616427232E+03  0.00000000000E+00 0. -1.
          4    1    6    6  503    0 -0.88884805259E+02 -0.84188851314E+01 -0.21053271620E+02  0.91731273177E+02  0.00000000000E+00 0. -1.
         -4    1    6    6    0  503 -0.59766665797E+03 -0.62650161499E+02  0.10020180730E+03  0.60923794938E+03  0.00000000000E+00 0.  1.
<mgrwt>
<rscale>  0 0.22807899E+04</rscale>
<asrwt>0</asrwt>
<pdfrwt beam="1">  1        1 0.12910697E+00 0.22807899E+04</pdfrwt>
<pdfrwt beam="2">  1       -2 0.23841533E+00 0.22807899E+04</pdfrwt>
<totfact> 0.12297741E+00</totfact>
</mgrwt>
</event>
<event>
12    4  0.4320235E-008  0.1133032E+04  0.7818608E-02  0.9173582E-01
         -2   -1    0    0    0  501 -0.00000000000E+00  0.00000000000E+00  0.37102488186E+03  0.37102488186E+03  0.00000000000E+00 0.  1.
          1   -1    0    0  501    0  0.00000000000E+00 -0.00000000000E+00 -0.86501008071E+03  0.86501008071E+03  0.00000000000E+00 0. -1.
        -24    2    1    2    0    0  0.11054083223E+03 -0.36084626246E+02 -0.25191670683E+03  0.29205600033E+03  0.91177323417E+02 0.  0.
        254    2    1    2    0    0 -0.11054083223E+03  0.36084626246E+02 -0.24206849201E+03  0.94397896224E+03  0.90497389492E+03 0.  0.
         23    2    4    4    0    0  0.24853585289E+03 -0.12389871344E+02  0.22301678008E+03  0.34729833931E+03  0.94636532088E+02 0.  0.
         23    2    4    4    0    0 -0.35907668512E+03  0.48474497589E+02 -0.46508527209E+03  0.59668062293E+03  0.91856479037E+02 0.  0.
          1    1    3    3  502    0  0.64062773082E+02  0.19457634841E+02 -0.73088184443E+02  0.99118722519E+02  0.00000000000E+00 0. -1.
         -2    1    3    3    0  502  0.46478059148E+02 -0.55542261087E+02 -0.17882852239E+03  0.19293727781E+03  0.00000000000E+00 0.  1.
         11    1    5    5    0    0  0.16613391810E+03 -0.52953737967E+02  0.14800246567E+03  0.22871227984E+03  0.00000000000E+00 0.  1.
        -11    1    5    5    0    0  0.82401934797E+02  0.40563866623E+02  0.75014314410E+02  0.11858605947E+03  0.00000000000E+00 0. -1.
          4    1    6    6  503    0 -0.16215232873E+03 -0.12265518848E+02 -0.25466066449E+03  0.30215207215E+03  0.00000000000E+00 0. -1.
         -4    1    6    6    0  503 -0.19692435640E+03  0.60740016437E+02 -0.21042460760E+03  0.29452855078E+03  0.00000000000E+00 0.  1.
<mgrwt>
<rscale>  0 0.11330318E+04</rscale>
<asrwt>0</asrwt>
<pdfrwt beam="1">  1        1 0.13307847E+00 0.11330318E+04</pdfrwt>
<pdfrwt beam="2">  1       -2 0.57080752E-01 0.11330318E+04</pdfrwt>
<totfact> 0.48771670E+01</totfact>
</mgrwt>
</event>
<event>
12    4  0.4320235E-008  0.2268478E+04  0.7818608E-02  0.8490455E-01
          1   -1    0    0  501    0  0.00000000000E+00  0.00000000000E+00  0.19640042733E+04  0.19640042733E+04  0.00000000000E+00 0. -1.
         -2   -1    0    0    0  501 -0.00000000000E+00 -0.00000000000E+00 -0.65503820300E+03  0.65503820300E+03  0.00000000000E+00 0.  1.
        -24    2    1    2    0    0 -0.73618651500E+03  0.19947020892E+03 -0.10763510960E+03  0.77395043110E+03  0.75199759725E+02 0.  0.
        254    2    1    2    0    0  0.73618651500E+03 -0.19947020892E+03  0.14166011799E+04  0.18450920452E+04  0.90324238344E+03 0.  0.
         23    2    4    4    0    0  0.26062365596E+03 -0.45572748736E+03  0.32554435347E+03  0.62448374215E+03  0.91589220728E+02 0.  0.
         23    2    4    4    0    0  0.47556285904E+03  0.25625727844E+03  0.10910568264E+04  0.12206083030E+04  0.87474598154E+02 0.  0.
          1    1    3    3  502    0 -0.76049455183E+02  0.42012710094E+02 -0.45895963151E+00  0.86883819478E+02  0.00000000000E+00 0. -1.
         -2    1    3    3    0  502 -0.66013705982E+03  0.15745749883E+03 -0.10717614997E+03  0.68706661162E+03  0.00000000000E+00 0.  1.
         11    1    5    5    0    0  0.10432837573E+03 -0.21883528131E+03  0.10116343444E+03  0.26269246429E+03  0.00000000000E+00 0. -1.
        -11    1    5    5    0    0  0.15629528023E+03 -0.23689220605E+03  0.22438091903E+03  0.36179127786E+03  0.00000000000E+00 0.  1.
          4    1    6    6  503    0  0.38174607146E+03  0.17290307002E+03  0.78591017601E+03  0.89066286520E+03  0.00000000000E+00 0. -1.
         -4    1    6    6    0  503  0.93816787586E+02  0.83354208422E+02  0.30514665041E+03  0.32994543783E+03  0.00000000000E+00 0.  1.
<mgrwt>
<rscale>  0 0.22684778E+04</rscale>
<asrwt>0</asrwt>
<pdfrwt beam="1">  1        1 0.30215450E+00 0.22684778E+04</pdfrwt>
<pdfrwt beam="2">  1       -2 0.10077511E+00 0.22684778E+04</pdfrwt>
<totfact> 0.20354489E+00</totfact>
</mgrwt>
</event>
<event>
12    4  0.4320235E-008  0.1287478E+04  0.7818608E-02  0.9039555E-01
          1   -1    0    0  501    0  0.00000000000E+00  0.00000000000E+00  0.19573859003E+04  0.19573859003E+04  0.00000000000E+00 0. -1.
         -2   -1    0    0    0  501 -0.00000000000E+00 -0.00000000000E+00 -0.21171078922E+03  0.21171078922E+03  0.00000000000E+00 0.  1.
        -24    2    1    2    0    0 -0.11310132612E+03  0.28773361658E+03  0.59533131914E+03  0.67563491104E+03  0.80502232232E+02 0.  0.
        254    2    1    2    0    0  0.11310132612E+03 -0.28773361658E+03  0.11503437919E+04  0.14934617784E+04  0.90086330817E+03 0.  0.
         23    2    4    4    0    0  0.21609671844E+03  0.14289253551E+03  0.96738000954E+03  0.10055916317E+04  0.90963611148E+02 0.  0.
         23    2    4    4    0    0 -0.10299539233E+03 -0.43062615209E+03  0.18296378235E+03  0.48787014668E+03  0.92166157950E+02 0.  0.
          3    1    3    3  502    0 -0.10839832116E+03  0.24598529232E+03  0.44826876686E+03  0.52268905423E+03  0.00000000000E+00 0. -1.
         -4    1    3    3    0  502 -0.47030049537E+01  0.41748324258E+02  0.14706255227E+03  0.15294585681E+03  0.00000000000E+00 0.  1.
         11    1    5    5    0    0  0.21512843378E+03  0.14714961880E+03  0.87218628383E+03  0.91029784523E+03  0.00000000000E+00 0. -1.
        -11    1    5    5    0    0  0.96828466032E+00 -0.42570832922E+01  0.95193725708E+02  0.95293786511E+02  0.00000000000E+00 0.  1.
          1    1    6    6  503    0 -0.89673320334E+02 -0.40351546106E+03  0.14220169355E+03  0.43713539475E+03  0.00000000000E+00 0. -1.
         -1    1    6    6    0  503 -0.13322071991E+02 -0.27110691025E+02  0.40762088806E+02  0.50734751934E+02  0.00000000000E+00 0.  1.
<mgrwt>
<rscale>  0 0.12874777E+04</rscale>
<asrwt>0</asrwt>
<pdfrwt beam="1">  1        1 0.30113628E+00 0.12874777E+04</pdfrwt>
<pdfrwt beam="2">  1       -2 0.32570892E-01 0.12874777E+04</pdfrwt>
<totfact> 0.24185936E+01</totfact>
</mgrwt>
</event>
<event>
12    4  0.4320235E-008  0.1219957E+04  0.7818608E-02  0.9095565E-01
          1   -1    0    0  501    0  0.00000000000E+00  0.00000000000E+00  0.15974388646E+04  0.15974388646E+04  0.00000000000E+00 0. -1.
         -2   -1    0    0    0  501 -0.00000000000E+00 -0.00000000000E+00 -0.23291896923E+03  0.23291896923E+03  0.00000000000E+00 0.  1.
        -24    2    1    2    0    0 -0.21952024794E+03 -0.43024311498E+02  0.51781020733E+03  0.56946960662E+03  0.78281488351E+02 0.  0.
        254    2    1    2    0    0  0.21952024794E+03  0.43024311498E+02  0.84670968806E+03  0.12608882272E+04  0.90712821314E+03 0.  0.
         23    2    4    4    0    0 -0.26998336207E+03 -0.22931180024E+03  0.30842933384E+03  0.47824260098E+03  0.90068939650E+02 0.  0.
         23    2    4    4    0    0  0.48950361001E+03  0.27233611174E+03  0.53828035422E+03  0.78264562626E+03  0.94908875225E+02 0.  0.
          3    1    3    3  502    0 -0.14244480983E+03 -0.46047467317E+02  0.41329969455E+03  0.43957653556E+03  0.00000000000E+00 0. -1.
         -2    1    3    3    0  502 -0.77075438105E+02  0.30231558196E+01  0.10451051278E+03  0.12989307107E+03  0.00000000000E+00 0.  1.
         11    1    5    5    0    0 -0.15884909519E+03 -0.88219416775E+02  0.19118811433E+03  0.26375859341E+03  0.00000000000E+00 0.  1.
        -11    1    5    5    0    0 -0.11113426687E+03 -0.14109238347E+03  0.11724121952E+03  0.21448400756E+03  0.00000000000E+00 0. -1.
          2    1    6    6  503    0  0.14860992838E+02 -0.57046306523E+01  0.28616638401E+02  0.32746051860E+02  0.00000000000E+00 0. -1.
         -2    1    6    6    0  503  0.47464261717E+03  0.27804074239E+03  0.50966371582E+03  0.74989957440E+03  0.00000000000E+00 0.  1.
<mgrwt>
<rscale>  0 0.12199571E+04</rscale>
<asrwt>0</asrwt>
<pdfrwt beam="1">  1        1 0.24575982E+00 0.12199571E+04</pdfrwt>
<pdfrwt beam="2">  1       -2 0.35833689E-01 0.12199571E+04</pdfrwt>
<totfact> 0.35584602E+01</totfact>
</mgrwt>
</event>
<event>
12    4  0.4320235E-008  0.2357366E+04  0.7818608E-02  0.8455640E-01
          1   -1    0    0  501    0  0.00000000000E+00  0.00000000000E+00  0.35883290323E+04  0.35883290323E+04  0.00000000000E+00 0. -1.
         -2   -1    0    0    0  501 -0.00000000000E+00 -0.00000000000E+00 -0.38717005719E+03  0.38717005719E+03  0.00000000000E+00 0.  1.
        -24    2    1    2    0    0 -0.41680346920E+03  0.68654905264E+03  0.35470762396E+03  0.88163750257E+03  0.79952822552E+02 0.  0.
        254    2    1    2    0    0  0.41680346920E+03 -0.68654905264E+03  0.28464513512E+04  0.30938615870E+04  0.90808561873E+03 0.  0.
         23    2    4    4    0    0  0.59011139070E+03 -0.28082868100E+03  0.10401681723E+04  0.12322470152E+04  0.96884870520E+02 0.  0.
         23    2    4    4    0    0 -0.17330792150E+03 -0.40572037164E+03  0.18062831789E+04  0.18616145718E+04  0.91133067969E+02 0.  0.
          3    1    3    3  502    0 -0.93482380902E+02  0.11790664434E+03  0.39763574395E+02  0.15563442475E+03  0.00000000000E+00 0. -1.
         -4    1    3    3    0  502 -0.32332108830E+03  0.56864240829E+03  0.31494404957E+03  0.72600307782E+03  0.00000000000E+00 0.  1.
         11    1    5    5    0    0  0.93139375669E+02 -0.61397010461E+02  0.24519958711E+03  0.26938332115E+03  0.00000000000E+00 0.  1.
        -11    1    5    5    0    0  0.49697201503E+03 -0.21943167054E+03  0.79496858521E+03  0.96286369400E+03  0.00000000000E+00 0. -1.
          2    1    6    6  503    0 -0.67764610842E+02 -0.26377033619E+03  0.11623730925E+04  0.11938500906E+04  0.00000000000E+00 0. -1.
         -2    1    6    6    0  503 -0.10554331066E+03 -0.14195003545E+03  0.64391008637E+03  0.66776448117E+03  0.00000000000E+00 0.  1.
<mgrwt>
<rscale>  0 0.23573660E+04</rscale>
<asrwt>0</asrwt>
<pdfrwt beam="1">  1        1 0.55205060E+00 0.23573660E+04</pdfrwt>
<pdfrwt beam="2">  1       -2 0.59564626E-01 0.23573660E+04</pdfrwt>
<totfact> 0.44293524E-01</totfact>
</mgrwt>
</event>
<event>
12    4  0.4320235E-008  0.1473641E+04  0.7818608E-02  0.8902173E-01
          1   -1    0    0  501    0  0.00000000000E+00  0.00000000000E+00  0.30978097632E+04  0.30978097632E+04  0.00000000000E+00 0. -1.
         -2   -1    0    0    0  501 -0.00000000000E+00 -0.00000000000E+00 -0.17525433003E+03  0.17525433003E+03  0.00000000000E+00 0.  1.
        -24    2    1    2    0    0 -0.27670500634E+02  0.37420663573E+03  0.15031683892E+04  0.15513184735E+04  0.79230909911E+02 0.  0.
        254    2    1    2    0    0  0.27670500634E+02 -0.37420663573E+03  0.14193870440E+04  0.17217456198E+04  0.89941766477E+03 0.  0.
         23    2    4    4    0    0 -0.33414940916E+03 -0.11274298333E+03  0.11179215768E+04  0.11759317557E+04  0.93273973360E+02 0.  0.
         23    2    4    4    0    0  0.36181990979E+03 -0.26146365240E+03  0.30146546721E+03  0.54581386414E+03  0.88059398855E+02 0.  0.
          1    1    3    3  502    0 -0.30747343952E+02  0.32370463533E+03  0.13870915460E+04  0.14246940188E+04  0.00000000000E+00 0. -1.
         -2    1    3    3    0  502  0.30768433178E+01  0.50502000403E+02  0.11607684311E+03  0.12662445466E+03  0.00000000000E+00 0.  1.
         11    1    5    5    0    0 -0.56622815145E+02 -0.15818886542E+02  0.96018785714E+02  0.11258768839E+03  0.00000000000E+00 0. -1.
        -11    1    5    5    0    0 -0.27752659401E+03 -0.96924096791E+02  0.10219027911E+04  0.10633440673E+04  0.00000000000E+00 0.  1.
          1    1    6    6  503    0  0.18291715019E+03 -0.13112073633E+03  0.20474328611E+03  0.30425506493E+03  0.00000000000E+00 0. -1.
         -1    1    6    6    0  503  0.17890275960E+03 -0.13034291606E+03  0.96722181104E+02  0.24155879921E+03  0.00000000000E+00 0.  1.
<mgrwt>
<rscale>  0 0.14736412E+04</rscale>
<asrwt>0</asrwt>
<pdfrwt beam="1">  1        1 0.47658608E+00 0.14736412E+04</pdfrwt>
<pdfrwt beam="2">  1       -2 0.26962207E-01 0.14736412E+04</pdfrwt>
<totfact> 0.54300542E+00</totfact>
</mgrwt>
</event>
<event>
12    4  0.4320235E-008  0.1423131E+04  0.7818608E-02  0.8937244E-01
         -2   -1    0    0    0  501 -0.00000000000E+00  0.00000000000E+00  0.25693101200E+03  0.25693101200E+03  0.00000000000E+00 0.  1.
          1   -1    0    0  501    0  0.00000000000E+00 -0.00000000000E+00 -0.19706660197E+04  0.19706660197E+04  0.00000000000E+00 0. -1.
        -24    2    1    2    0    0 -0.18410224949E+03  0.61500979474E+02 -0.10696470203E+04  0.10899326995E+04  0.78310488421E+02 0.  0.
        254    2    1    2    0    0  0.18410224949E+03 -0.61500979474E+02 -0.64408798740E+03  0.11376643322E+04  0.91747195520E+03 0.  0.
         23    2    4    4    0    0  0.28166079458E+03 -0.39944204702E+03 -0.58850785820E+03  0.77026030938E+03  0.89848165885E+02 0.  0.
         23    2    4    4    0    0 -0.97558545092E+02  0.33794106755E+03 -0.55580129205E+02  0.36740402285E+03  0.90414215637E+02 0.  0.
          3    1    3    3  502    0 -0.17489627284E+03  0.56356336762E+02 -0.10594367378E+04  0.10752538977E+04  0.00000000000E+00 0. -1.
         -4    1    3    3    0  502 -0.92059766527E+01  0.51446427117E+01 -0.10210282463E+02  0.14678801815E+02  0.00000000000E+00 0.  1.
         11    1    5    5    0    0  0.25237573614E+03 -0.31380880012E+03 -0.51443827214E+03  0.65331172580E+03  0.00000000000E+00 0. -1.
        -11    1    5    5    0    0  0.29285058439E+02 -0.85633246902E+02 -0.74069586063E+02  0.11694858358E+03  0.00000000000E+00 0.  1.
          2    1    6    6  503    0 -0.78072464828E+02  0.11322145478E+03 -0.24868390826E+02  0.13975995295E+03  0.00000000000E+00 0. -1.
         -2    1    6    6    0  503 -0.19486080264E+02  0.22471961276E+03 -0.30711738379E+02  0.22764406990E+03  0.00000000000E+00 0.  1.
<mgrwt>
<rscale>  0 0.14231307E+04</rscale>
<asrwt>0</asrwt>
<pdfrwt beam="1">  1        1 0.30317939E+00 0.14231307E+04</pdfrwt>
<pdfrwt beam="2">  1       -2 0.39527848E-01 0.14231307E+04</pdfrwt>
<totfact> 0.16148265E+01</totfact>
</mgrwt>
</event>
<event>
12    4  0.4320235E-008  0.1909718E+04  0.7818608E-02  0.8650034E-01
          1   -1    0    0  501    0  0.00000000000E+00  0.00000000000E+00  0.11431467742E+04  0.11431467742E+04  0.00000000000E+00 0. -1.
         -2   -1    0    0    0  501 -0.00000000000E+00 -0.00000000000E+00 -0.79758391729E+03  0.79758391729E+03  0.00000000000E+00 0.  1.
        -24    2    1    2    0    0  0.20575375022E+03 -0.30783437225E+03  0.78671602854E+03  0.87436355001E+03  0.92156939800E+02 0.  0.
        254    2    1    2    0    0 -0.20575375022E+03  0.30783437225E+03 -0.44115317162E+03  0.10663671415E+04  0.89745537669E+03 0.  0.
         23    2    4    4    0    0 -0.16644153329E+03  0.39275282419E+03 -0.67225775010E+03  0.80110224337E+03  0.88751094956E+02 0.  0.
         23    2    4    4    0    0 -0.39312216930E+02 -0.84918451936E+02  0.23110457848E+03  0.26526489812E+03  0.90551345099E+02 0.  0.
          3    1    3    3  502    0  0.12354641251E+03 -0.22913302428E+03  0.46214545117E+03  0.53041877502E+03  0.00000000000E+00 0. -1.
         -4    1    3    3    0  502  0.82207337713E+02 -0.78701347976E+02  0.32457057738E+03  0.34394477500E+03  0.00000000000E+00 0.  1.
         11    1    5    5    0    0 -0.98324677267E+02  0.25671782890E+03 -0.50520296652E+03  0.57515373877E+03  0.00000000000E+00 0. -1.
        -11    1    5    5    0    0 -0.68116856023E+02  0.13603499529E+03 -0.16705478358E+03  0.22594850460E+03  0.00000000000E+00 0.  1.
          1    1    6    6  503    0  0.17641301779E+02 -0.63891922533E+02  0.91078609574E+02  0.11264415837E+03  0.00000000000E+00 0. -1.
         -1    1    6    6    0  503 -0.56953518709E+02 -0.21026529403E+02  0.14002596891E+03  0.15262073975E+03  0.00000000000E+00 0.  1.
<mgrwt>
<rscale>  0 0.19097178E+04</rscale>
<asrwt>0</asrwt>
<pdfrwt beam="1">  1        1 0.17586874E+00 0.19097178E+04</pdfrwt>
<pdfrwt beam="2">  1       -2 0.12270522E+00 0.19097178E+04</pdfrwt>
<totfact> 0.48468440E+00</totfact>
</mgrwt>
</event>
<event>
12    4  0.4320235E-008  0.2320567E+04  0.7818608E-02  0.8469856E-01
          1   -1    0    0  501    0  0.00000000000E+00  0.00000000000E+00  0.11589532522E+04  0.11589532522E+04  0.00000000000E+00 0. -1.
         -2   -1    0    0    0  501 -0.00000000000E+00 -0.00000000000E+00 -0.11616156899E+04  0.11616156899E+04  0.00000000000E+00 0.  1.
        -24    2    1    2    0    0  0.68591336985E+03 -0.20294270211E+03 -0.65777507015E+03  0.97565077902E+03  0.86968433420E+02 0.  0.
        254    2    1    2    0    0 -0.68591336985E+03  0.20294270211E+03  0.65511263242E+03  0.13449181631E+04  0.93164876053E+03 0.  0.
         23    2    4    4    0    0 -0.79547755138E+03 -0.13125457260E+03  0.44536542180E+03  0.92536864125E+03  0.89131732199E+02 0.  0.
         23    2    4    4    0    0  0.10956418154E+03  0.33419727471E+03  0.20974721062E+03  0.41954952185E+03  0.91300496274E+02 0.  0.
          1    1    3    3  502    0  0.24452923548E+03 -0.80138698922E+02 -0.18224387528E+03  0.31532457587E+03  0.00000000000E+00 0. -1.
         -2    1    3    3    0  502  0.44138413436E+03 -0.12280400319E+03 -0.47553119487E+03  0.66032620315E+03  0.00000000000E+00 0.  1.
         11    1    5    5    0    0 -0.44499757436E+03 -0.11296192750E+03  0.22871312795E+03  0.51292585542E+03  0.00000000000E+00 0. -1.
        -11    1    5    5    0    0 -0.35047997702E+03 -0.18292645101E+02  0.21665229384E+03  0.41244278583E+03  0.00000000000E+00 0.  1.
          4    1    6    6  503    0  0.12081957515E+03  0.26265203421E+03  0.18394784045E+03  0.34266641040E+03  0.00000000000E+00 0.  1.
         -4    1    6    6    0  503 -0.11255393612E+02  0.71545240507E+02  0.25799370167E+02  0.76883111445E+02  0.00000000000E+00 0. -1.
<mgrwt>
<rscale>  0 0.23205674E+04</rscale>
<asrwt>0</asrwt>
<pdfrwt beam="1">  1        1 0.17830050E+00 0.23205674E+04</pdfrwt>
<pdfrwt beam="2">  1       -2 0.17871010E+00 0.23205674E+04</pdfrwt>
<totfact> 0.16783383E+00</totfact>
</mgrwt>
</event>
<event>
12    4  0.4320235E-008  0.2201903E+04  0.7818608E-02  0.8517637E-01
          1   -1    0    0  501    0  0.00000000000E+00  0.00000000000E+00  0.43131554442E+03  0.43131554442E+03  0.00000000000E+00 0. -1.
         -2   -1    0    0    0  501 -0.00000000000E+00 -0.00000000000E+00 -0.28102258402E+04  0.28102258402E+04  0.00000000000E+00 0.  1.
        -24    2    1    2    0    0  0.58992272135E+03 -0.65143233668E+03 -0.61136054974E+03  0.10736640479E+04  0.81362518787E+02 0.  0.
        254    2    1    2    0    0 -0.58992272135E+03  0.65143233668E+03 -0.17675497460E+04  0.21678773367E+04  0.89615129081E+03 0.  0.
         23    2    4    4    0    0 -0.68674803759E+03  0.21552989234E+03 -0.70419113095E+03  0.10109015501E+04  0.89223278883E+02 0.  0.
         23    2    4    4    0    0  0.96825316232E+02  0.43590244434E+03 -0.10633586151E+04  0.11569757866E+04  0.92061630086E+02 0.  0.
          3    1    3    3  502    0  0.58189468142E+03 -0.63337905517E+03 -0.60876004911E+03  0.10537358517E+04  0.00000000000E+00 0. -1.
         -2    1    3    3    0  502  0.80280399380E+01 -0.18053281516E+02 -0.26005006331E+01  0.19928196162E+02  0.00000000000E+00 0.  1.
         11    1    5    5    0    0 -0.13840145969E+03  0.78977849605E+02 -0.13518811263E+03  0.20896959245E+03  0.00000000000E+00 0. -1.
        -11    1    5    5    0    0 -0.54834657789E+03  0.13655204274E+03 -0.56900301832E+03  0.80193195766E+03  0.00000000000E+00 0.  1.
          3    1    6    6  503    0  0.74633426348E+02  0.33292664545E+03 -0.70110383254E+03  0.77971589927E+03  0.00000000000E+00 0. -1.
         -3    1    6    6    0  503  0.22191889884E+02  0.10297579889E+03 -0.36225478254E+03  0.37725988735E+03  0.00000000000E+00 0.  1.
<mgrwt>
<rscale>  0 0.22019029E+04</rscale>
<asrwt>0</asrwt>
<pdfrwt beam="1">  1        1 0.66356241E-01 0.22019029E+04</pdfrwt>
<pdfrwt beam="2">  1       -2 0.43234241E+00 0.22019029E+04</pdfrwt>
<totfact> 0.19680222E-01</totfact>
</mgrwt>
</event>
<event>
12    4  0.4320235E-008  0.1931281E+04  0.7818608E-02  0.8639441E-01
          1   -1    0    0  501    0  0.00000000000E+00  0.00000000000E+00  0.61176090724E+03  0.61176090724E+03  0.00000000000E+00 0. -1.
         -2   -1    0    0    0  501 -0.00000000000E+00 -0.00000000000E+00 -0.15242250983E+04  0.15242250983E+04  0.00000000000E+00 0.  1.
        -24    2    1    2    0    0 -0.27131865819E+02  0.70389361629E+03 -0.56187724991E+02  0.71111082319E+03  0.79493277831E+02 0.  0.
        254    2    1    2    0    0  0.27131865819E+02 -0.70389361629E+03 -0.85627646605E+03  0.14248751823E+04  0.89490644077E+03 0.  0.
         23    2    4    4    0    0  0.37975786542E+03 -0.54631454214E+03 -0.76528998740E+03  0.10180153835E+04  0.89503859390E+02 0.  0.
         23    2    4    4    0    0 -0.35262599961E+03 -0.15757907414E+03 -0.90986478645E+02  0.40685979887E+03  0.89889356619E+02 0.  0.
          1    1    3    3  502    0  0.74265977921E+01  0.44275964269E+03 -0.54354176524E+01  0.44285528032E+03  0.00000000000E+00 0. -1.
         -2    1    3    3    0  502 -0.34558463611E+02  0.26113397360E+03 -0.50752307339E+02  0.26825554286E+03  0.00000000000E+00 0.  1.
         11    1    5    5    0    0  0.11337627872E+03 -0.13131930452E+03 -0.14881336416E+03  0.22857024668E+03  0.00000000000E+00 0. -1.
        -11    1    5    5    0    0  0.26638158670E+03 -0.41499523763E+03 -0.61647662324E+03  0.78944513679E+03  0.00000000000E+00 0.  1.
          4    1    6    6  503    0 -0.16847304412E+03 -0.10272206833E+03 -0.84357940611E+02  0.21459555461E+03  0.00000000000E+00 0. -1.
         -4    1    6    6    0  503 -0.18415295549E+03 -0.54857005812E+02 -0.66285380346E+01  0.19226424425E+03  0.00000000000E+00 0.  1.
<mgrwt>
<rscale>  0 0.19312807E+04</rscale>
<asrwt>0</asrwt>
<pdfrwt beam="1">  1        1 0.94117065E-01 0.19312807E+04</pdfrwt>
<pdfrwt beam="2">  1       -2 0.23449616E+00 0.19312807E+04</pdfrwt>
<totfact> 0.21794356E+00</totfact>
</mgrwt>
</event>
<event>
12    4  0.4320235E-008  0.2395133E+04  0.7818608E-02  0.8441328E-01
         -4   -1    0    0    0  501 -0.00000000000E+00  0.00000000000E+00  0.12537764855E+04  0.12537764855E+04  0.00000000000E+00 0.  1.
          1   -1    0    0  501    0  0.00000000000E+00 -0.00000000000E+00 -0.11438765788E+04  0.11438765788E+04  0.00000000000E+00 0. -1.
        -24    2    1    2    0    0  0.23066753503E+03  0.59365001358E+03  0.85525324408E+03  0.10693710730E+04  0.80427171340E+02 0.  0.
        254    2    1    2    0    0 -0.23066753503E+03 -0.59365001358E+03 -0.74535333732E+03  0.13282819913E+04  0.89618837345E+03 0.  0.
         23    2    4    4    0    0 -0.23078779854E+03 -0.67241760764E+03 -0.88832172349E+03  0.11413813615E+04  0.90705462503E+02 0.  0.
         23    2    4    4    0    0  0.12026350361E+00  0.78767594055E+02  0.14296838617E+03  0.18690062984E+03  0.91035914080E+02 0.  0.
          1    1    3    3  502    0  0.12457864094E+03  0.40461403316E+03  0.52677644859E+03  0.67581490098E+03  0.00000000000E+00 0. -1.
         -2    1    3    3    0  502  0.10608889409E+03  0.18903598043E+03  0.32847679550E+03  0.39355617201E+03  0.00000000000E+00 0.  1.
         11    1    5    5    0    0 -0.41287912773E+02 -0.53716075693E+02 -0.61859870757E+02  0.91742858791E+02  0.00000000000E+00 0.  1.
        -11    1    5    5    0    0 -0.18949988576E+03 -0.61870153194E+03 -0.82646185274E+03  0.10496385027E+04  0.00000000000E+00 0. -1.
          1    1    6    6  503    0  0.16631630198E+02  0.72234305585E+02  0.15038228633E+03  0.16765809872E+03  0.00000000000E+00 0. -1.
         -1    1    6    6    0  503 -0.16511366695E+02  0.65332884697E+01 -0.74139001510E+01  0.19242531117E+02  0.00000000000E+00 0.  1.
<mgrwt>
<rscale>  0 0.23951330E+04</rscale>
<asrwt>0</asrwt>
<pdfrwt beam="1">  1        1 0.17598101E+00 0.23951330E+04</pdfrwt>
<pdfrwt beam="2">  1       -4 0.19288869E+00 0.23951330E+04</pdfrwt>
<totfact> 0.74879695E-01</totfact>
</mgrwt>
</event>
<event>
12    4  0.4320235E-008  0.1938330E+04  0.7818608E-02  0.8636009E-01
         -2   -1    0    0    0  501 -0.00000000000E+00  0.00000000000E+00  0.29562064322E+03  0.29562064322E+03  0.00000000000E+00 0.  1.
          1   -1    0    0  501    0  0.00000000000E+00 -0.00000000000E+00 -0.31773164629E+04  0.31773164629E+04  0.00000000000E+00 0. -1.
        -24    2    1    2    0    0  0.42481521939E+03  0.15613618789E+03 -0.22220065735E+04  0.22692458579E+04  0.85539879913E+02 0.  0.
        254    2    1    2    0    0 -0.42481521939E+03 -0.15613618789E+03 -0.65968924624E+03  0.12036912483E+04  0.89935323418E+03 0.  0.
         23    2    4    4    0    0 -0.15827578575E+03 -0.41351178646E+03 -0.12181189074E+02  0.45215423262E+03  0.90839676404E+02 0.  0.
         23    2    4    4    0    0 -0.26653943363E+03  0.25737559857E+03 -0.64750805717E+03  0.75153701567E+03  0.90861066516E+02 0.  0.
          3    1    3    3  502    0  0.41258579051E+03  0.16458801895E+03 -0.21094868728E+04  0.21557483890E+04  0.00000000000E+00 0. -1.
         -4    1    3    3    0  502  0.12229428880E+02 -0.84518310614E+01 -0.11251970071E+03  0.11349746882E+03  0.00000000000E+00 0.  1.
         11    1    5    5    0    0 -0.96188955734E+02 -0.35061075686E+03 -0.12257980312E+02  0.36377256097E+03  0.00000000000E+00 0. -1.
        -11    1    5    5    0    0 -0.62086830021E+02 -0.62901029599E+02  0.76791238372E-01  0.88381671649E+02  0.00000000000E+00 0.  1.
          4    1    6    6  503    0 -0.63255722748E+02  0.11541317120E+03 -0.26158118155E+03  0.29282452268E+03  0.00000000000E+00 0.  1.
         -4    1    6    6    0  503 -0.20328371088E+03  0.14196242737E+03 -0.38592687562E+03  0.45871249299E+03  0.00000000000E+00 0. -1.
<mgrwt>
<rscale>  0 0.19383295E+04</rscale>
<asrwt>0</asrwt>
<pdfrwt beam="1">  1        1 0.48881794E+00 0.19383295E+04</pdfrwt>
<pdfrwt beam="2">  1       -2 0.45480097E-01 0.19383295E+04</pdfrwt>
<totfact> 0.16654491E+00</totfact>
</mgrwt>
</event>
<event>
12    4  0.4320235E-008  0.2117949E+04  0.7818608E-02  0.8553378E-01
         -2   -1    0    0    0  501 -0.00000000000E+00  0.00000000000E+00  0.46688108638E+03  0.46688108638E+03  0.00000000000E+00 0.  1.
          1   -1    0    0  501    0  0.00000000000E+00 -0.00000000000E+00 -0.24019542271E+04  0.24019542271E+04  0.00000000000E+00 0. -1.
        -24    2    1    2    0    0 -0.73759891607E+03 -0.45523340278E+03 -0.70468459077E+03  0.11199479465E+04  0.80083821482E+02 0.  0.
        254    2    1    2    0    0  0.73759891607E+03  0.45523340278E+03 -0.12303885499E+04  0.17488873669E+04  0.89076451795E+03 0.  0.
         23    2    4    4    0    0  0.29444208968E+03 -0.10858280798E+03 -0.89197516860E+03  0.95030161324E+03  0.94694690225E+02 0.  0.
         23    2    4    4    0    0  0.44315682639E+03  0.56381621076E+03 -0.33841338134E+03  0.79858575371E+03  0.94545740591E+02 0.  0.
          3    1    3    3  502    0 -0.22431705520E+02 -0.21726926475E+02 -0.45043624902E+02  0.54810299132E+02  0.00000000000E+00 0. -1.
         -4    1    3    3    0  502 -0.71516721055E+03 -0.43350647630E+03 -0.65964096587E+03  0.10651376474E+04  0.00000000000E+00 0.  1.
         11    1    5    5    0    0  0.26899861975E+03 -0.94518866240E+02 -0.69529801525E+03  0.75148746065E+03  0.00000000000E+00 0.  1.
        -11    1    5    5    0    0  0.25443469933E+02 -0.14063941738E+02 -0.19667715335E+03  0.19881415259E+03  0.00000000000E+00 0. -1.
          2    1    6    6  503    0 -0.15582223193E+01  0.63601585023E+01 -0.13371432742E+02  0.14888750335E+02  0.00000000000E+00 0. -1.
         -2    1    6    6    0  503  0.44471504871E+03  0.55745605225E+03 -0.32504194860E+03  0.78369700337E+03  0.00000000000E+00 0.  1.
<mgrwt>
<rscale>  0 0.21179490E+04</rscale>
<asrwt>0</asrwt>
<pdfrwt beam="1">  1        1 0.36953143E+00 0.21179490E+04</pdfrwt>
<pdfrwt beam="2">  1       -2 0.71827858E-01 0.21179490E+04</pdfrwt>
<totfact> 0.22449154E+00</totfact>
</mgrwt>
</event>
<event>
12    4  0.4320235E-008  0.1933417E+04  0.7818608E-02  0.8638399E-01
          1   -1    0    0  501    0  0.00000000000E+00  0.00000000000E+00  0.90926068581E+03  0.90926068581E+03  0.00000000000E+00 0. -1.
         -2   -1    0    0    0  501 -0.00000000000E+00 -0.00000000000E+00 -0.10277862278E+04  0.10277862278E+04  0.00000000000E+00 0.  1.
        -24    2    1    2    0    0  0.44843041431E+03 -0.60334596194E+03 -0.12348914225E+03  0.76593186638E+03  0.79283474993E+02 0.  0.
        254    2    1    2    0    0 -0.44843041431E+03  0.60334596194E+03  0.49636002627E+01  0.11711150472E+04  0.89798086297E+03 0.  0.
         23    2    4    4    0    0 -0.69829000766E+03  0.45325016370E+03  0.11703861582E+03  0.84548861208E+03  0.90046154138E+02 0.  0.
         23    2    4    4    0    0  0.24985959334E+03  0.15009579825E+03 -0.11207501556E+03  0.32562643516E+03  0.92267009953E+02 0.  0.
          3    1    3    3  502    0  0.10123131259E+02 -0.27806833289E+02 -0.18548796028E+02  0.34924999615E+02  0.00000000000E+00 0. -1.
         -4    1    3    3    0  502  0.43830728305E+03 -0.57553912866E+03 -0.10494034622E+03  0.73100686676E+03  0.00000000000E+00 0.  1.
         11    1    5    5    0    0 -0.67395295941E+03  0.44280069252E+03  0.96873852870E+02  0.81220046058E+03  0.00000000000E+00 0. -1.
        -11    1    5    5    0    0 -0.24337048243E+02  0.10449471177E+02  0.20164762954E+02  0.33288151496E+02  0.00000000000E+00 0.  1.
          2    1    6    6  503    0  0.13275630966E+03  0.72014455449E+02 -0.10643356705E+03  0.18476586195E+03  0.00000000000E+00 0.  1.
         -2    1    6    6    0  503  0.11710328369E+03  0.78081342796E+02 -0.56414485068E+01  0.14086057321E+03  0.00000000000E+00 0. -1.
<mgrwt>
<rscale>  0 0.19334173E+04</rscale>
<asrwt>0</asrwt>
<pdfrwt beam="1">  1        1 0.13988626E+00 0.19334173E+04</pdfrwt>
<pdfrwt beam="2">  1       -2 0.15812096E+00 0.19334173E+04</pdfrwt>
<totfact> 0.38021612E+00</totfact>
</mgrwt>
</event>
<event>
12    4  0.4519255E-008  0.2420370E+04  0.7818608E-02  0.8431916E-01
          1   -1    0    0  501    0  0.00000000000E+00  0.00000000000E+00  0.16739865525E+04  0.16739865525E+04  0.00000000000E+00 0. -1.
         -2   -1    0    0    0  501 -0.00000000000E+00 -0.00000000000E+00 -0.87488642129E+03  0.87488642129E+03  0.00000000000E+00 0.  1.
        -24    2    1    2    0    0  0.36082541624E+03  0.60397355757E+03 -0.45512228873E+03  0.84186434860E+03  0.81364884970E+02 0.  0.
        254    2    1    2    0    0 -0.36082541624E+03 -0.60397355757E+03  0.12542224199E+04  0.17070086251E+04  0.91968773423E+03 0.  0.
         23    2    4    4    0    0  0.21923290794E+03 -0.46270054177E+03  0.37939869352E+03  0.64376802153E+03  0.91318331262E+02 0.  0.
         23    2    4    4    0    0 -0.58005832418E+03 -0.14127301580E+03  0.87482372637E+03  0.10632406036E+04  0.93478898651E+02 0.  0.
          3    1    3    3  502    0  0.23732976730E+02  0.15173949065E+02 -0.30295938203E+02  0.41368427409E+02  0.00000000000E+00 0. -1.
         -4    1    3    3    0  502  0.33709243951E+03  0.58879960850E+03 -0.42482635053E+03  0.80049592120E+03  0.00000000000E+00 0.  1.
         11    1    5    5    0    0 -0.62820032359E+01 -0.16687247733E+02  0.29574541575E+01  0.18074134465E+02  0.00000000000E+00 0. -1.
        -11    1    5    5    0    0  0.22551491118E+03 -0.44601329403E+03  0.37644123937E+03  0.62569388707E+03  0.00000000000E+00 0.  1.
          1    1    6    6  503    0 -0.32128308228E+02 -0.31753228990E+02  0.56355782101E+02  0.72225133555E+02  0.00000000000E+00 0. -1.
         -1    1    6    6    0  503 -0.54793001596E+03 -0.10951978681E+03  0.81846794427E+03  0.99101547006E+03  0.00000000000E+00 0.  1.
<mgrwt>
<rscale>  0 0.24203703E+04</rscale>
<asrwt>0</asrwt>
<pdfrwt beam="1">  1        1 0.25753639E+00 0.24203703E+04</pdfrwt>
<pdfrwt beam="2">  1       -2 0.13459791E+00 0.24203703E+04</pdfrwt>
<totfact> 0.15508302E+00</totfact>
</mgrwt>
</event>
<event>
12    4  0.4320235E-008  0.2356303E+04  0.7818608E-02  0.8456046E-01
          1   -1    0    0  501    0  0.00000000000E+00  0.00000000000E+00  0.61182212938E+03  0.61182212938E+03  0.00000000000E+00 0. -1.
         -2   -1    0    0    0  501 -0.00000000000E+00 -0.00000000000E+00 -0.22687009367E+04  0.22687009367E+04  0.00000000000E+00 0.  1.
        -24    2    1    2    0    0 -0.78439617229E+02  0.81273211123E+03 -0.14265560017E+04  0.16460739165E+04  0.88380169472E+02 0.  0.
        254    2    1    2    0    0  0.78439617229E+02 -0.81273211123E+03 -0.23032280559E+03  0.12344491496E+04  0.89673287545E+03 0.  0.
         23    2    4    4    0    0  0.22092524576E+03  0.92303072657E+02 -0.18054635381E+03  0.31253997730E+03  0.88070597272E+02 0.  0.
         23    2    4    4    0    0 -0.14248562853E+03 -0.90503518389E+03 -0.49776451778E+02  0.92190917226E+03  0.89710580943E+02 0.  0.
          1    1    3    3  502    0 -0.50090856873E+02  0.22827408238E+03 -0.46610634986E+03  0.52141469102E+03  0.00000000000E+00 0. -1.
         -2    1    3    3    0  502 -0.28348760356E+02  0.58445802885E+03 -0.96044965188E+03  0.11246592255E+04  0.00000000000E+00 0.  1.
         11    1    5    5    0    0  0.13854794100E+03  0.54172367104E+02 -0.57173297562E+02  0.15937052195E+03  0.00000000000E+00 0.  1.
        -11    1    5    5    0    0  0.82377304761E+02  0.38130705553E+02 -0.12337305625E+03  0.15316945536E+03  0.00000000000E+00 0. -1.
          2    1    6    6  503    0 -0.12286054733E+03 -0.74447913579E+03 -0.74747110515E+02  0.75824206441E+03  0.00000000000E+00 0.  1.
         -2    1    6    6    0  503 -0.19625081202E+02 -0.16055604810E+03  0.24970658737E+02  0.16366710785E+03  0.00000000000E+00 0. -1.
<mgrwt>
<rscale>  0 0.23563034E+04</rscale>
<asrwt>0</asrwt>
<pdfrwt beam="1">  1        1 0.94126482E-01 0.23563034E+04</pdfrwt>
<pdfrwt beam="2">  1       -2 0.34903091E+00 0.23563034E+04</pdfrwt>
<totfact> 0.41438562E-01</totfact>
</mgrwt>
</event>
<event>
12    4  0.4320235E-008  0.1943450E+04  0.7818608E-02  0.8633526E-01
         -2   -1    0    0    0  501 -0.00000000000E+00  0.00000000000E+00  0.60749870892E+03  0.60749870892E+03  0.00000000000E+00 0.  1.
          1   -1    0    0  501    0  0.00000000000E+00 -0.00000000000E+00 -0.15543232417E+04  0.15543232417E+04  0.00000000000E+00 0. -1.
        -24    2    1    2    0    0  0.13437119302E+03  0.26018602779E+03  0.40073236609E+03  0.50289935168E+03  0.81049010576E+02 0.  0.
        254    2    1    2    0    0 -0.13437119302E+03 -0.26018602779E+03 -0.13475568989E+04  0.16589225990E+04  0.92215085915E+03 0.  0.
         23    2    4    4    0    0 -0.16697513334E+03 -0.14223883108E+03  0.57808555251E+02  0.24518066137E+03  0.93054540069E+02 0.  0.
         23    2    4    4    0    0  0.32603940325E+02 -0.11794719671E+03 -0.14053654541E+04  0.14137419376E+04  0.92949708380E+02 0.  0.
          3    1    3    3  502    0  0.14233332149E+02  0.87111508051E+02  0.79803555956E+02  0.11899416003E+03  0.00000000000E+00 0. -1.
         -4    1    3    3    0  502  0.12013786087E+03  0.17307451974E+03  0.32092881013E+03  0.38390519164E+03  0.00000000000E+00 0.  1.
         11    1    5    5    0    0 -0.40470250565E+02 -0.29401808590E+02 -0.25669629624E+02  0.56224882518E+02  0.00000000000E+00 0. -1.
        -11    1    5    5    0    0 -0.12650488278E+03 -0.11283702249E+03  0.83478184875E+02  0.18895577885E+03  0.00000000000E+00 0.  1.
          4    1    6    6  503    0  0.13009081655E+02  0.72132982297E+01 -0.42037071701E+03  0.42063381652E+03  0.00000000000E+00 0. -1.
         -4    1    6    6    0  503  0.19594858670E+02 -0.12516049494E+03 -0.98499473712E+03  0.99310812107E+03  0.00000000000E+00 0.  1.
<mgrwt>
<rscale>  0 0.19434499E+04</rscale>
<asrwt>0</asrwt>
<pdfrwt beam="1">  1        1 0.23912665E+00 0.19434499E+04</pdfrwt>
<pdfrwt beam="2">  1       -2 0.93461339E-01 0.19434499E+04</pdfrwt>
<totfact> 0.47526099E+00</totfact>
</mgrwt>
</event>
<event>
12    4  0.4320235E-008  0.1236965E+04  0.7818608E-02  0.9081102E-01
          1   -1    0    0  501    0  0.00000000000E+00  0.00000000000E+00  0.20602385982E+04  0.20602385982E+04  0.00000000000E+00 0. -1.
         -2   -1    0    0    0  501 -0.00000000000E+00 -0.00000000000E+00 -0.18566813193E+03  0.18566813193E+03  0.00000000000E+00 0.  1.
        -24    2    1    2    0    0  0.24040059150E+03  0.14429065547E+03  0.50081448196E+03  0.57952904066E+03  0.80165615983E+02 0.  0.
        254    2    1    2    0    0 -0.24040059150E+03 -0.14429065547E+03  0.13737559843E+04  0.16663776895E+04  0.90055364188E+03 0.  0.
         23    2    4    4    0    0 -0.52198772807E+03 -0.29640962634E+03  0.82141565966E+03  0.10216069321E+04  0.92882629802E+02 0.  0.
         23    2    4    4    0    0  0.28158713658E+03  0.15211897087E+03  0.55234032465E+03  0.64477075738E+03  0.90653177323E+02 0.  0.
          1    1    3    3  502    0  0.24580911309E+03  0.14594188043E+03  0.48895834845E+03  0.56639334306E+03  0.00000000000E+00 0. -1.
         -2    1    3    3    0  502 -0.54085215981E+01 -0.16512249635E+01  0.11856133504E+02  0.13135697599E+02  0.00000000000E+00 0.  1.
         11    1    5    5    0    0 -0.47011555941E+03 -0.23668903646E+03  0.68424475069E+03  0.86326196373E+03  0.00000000000E+00 0.  1.
        -11    1    5    5    0    0 -0.51872168662E+02 -0.59720589873E+02  0.13717090898E+03  0.15834496836E+03  0.00000000000E+00 0. -1.
          3    1    6    6  503    0  0.55692520248E+02  0.19513947122E+02  0.46492521219E+02  0.75126596310E+02  0.00000000000E+00 0. -1.
         -3    1    6    6    0  503  0.22589461633E+03  0.13260502375E+03  0.50584780343E+03  0.56964416107E+03  0.00000000000E+00 0.  1.
<mgrwt>
<rscale>  0 0.12369651E+04</rscale>
<asrwt>0</asrwt>
<pdfrwt beam="1">  1        1 0.31695977E+00 0.12369651E+04</pdfrwt>
<pdfrwt beam="2">  1       -2 0.28564329E-01 0.12369651E+04</pdfrwt>
<totfact> 0.26455303E+01</totfact>
</mgrwt>
</event>
<event>
12    4  0.4320235E-008  0.1965952E+04  0.7818608E-02  0.8622707E-01
         -2   -1    0    0    0  501 -0.00000000000E+00  0.00000000000E+00  0.15950135623E+04  0.15950135623E+04  0.00000000000E+00 0.  1.
          1   -1    0    0  501    0  0.00000000000E+00 -0.00000000000E+00 -0.60578899820E+03  0.60578899820E+03  0.00000000000E+00 0. -1.
        -24    2    1    2    0    0  0.56456805679E+02 -0.77395489867E+03  0.43384854769E+03  0.89264839905E+03  0.80019034688E+02 0.  0.
        254    2    1    2    0    0 -0.56456805679E+02  0.77395489867E+03  0.55537601638E+03  0.13081541614E+04  0.89477999217E+03 0.  0.
         23    2    4    4    0    0  0.18889662046E+03 -0.88737900337E+02  0.28930503448E+03  0.36829704730E+03  0.91591287249E+02 0.  0.
         23    2    4    4    0    0 -0.24535342613E+03  0.86269279901E+03  0.26607098191E+03  0.93985711412E+03  0.90002546513E+02 0.  0.
          3    1    3    3  502    0  0.14544748280E+02 -0.42560064793E+03  0.27917799573E+03  0.50920311716E+03  0.00000000000E+00 0. -1.
         -4    1    3    3    0  502  0.41912057399E+02 -0.34835425074E+03  0.15467055196E+03  0.38344528189E+03  0.00000000000E+00 0.  1.
         11    1    5    5    0    0  0.19729138308E+03 -0.81625313977E+02  0.28580555601E+03  0.35675117038E+03  0.00000000000E+00 0.  1.
        -11    1    5    5    0    0 -0.83947626264E+01 -0.71125863603E+01  0.34994784633E+01  0.11545876918E+02  0.00000000000E+00 0. -1.
          1    1    6    6  503    0 -0.84182413897E+01  0.12008446267E+02  0.16768393757E+02  0.22276637965E+02  0.00000000000E+00 0. -1.
         -1    1    6    6    0  503 -0.23693518474E+03  0.85068435274E+03  0.24930258815E+03  0.91758047616E+03  0.00000000000E+00 0.  1.
<mgrwt>
<rscale>  0 0.19659518E+04</rscale>
<asrwt>0</asrwt>
<pdfrwt beam="1">  1        1 0.93198308E-01 0.19659518E+04</pdfrwt>
<pdfrwt beam="2">  1       -2 0.24538670E+00 0.19659518E+04</pdfrwt>
<totfact> 0.18873437E+00</totfact>
</mgrwt>
</event>
<event>
12    4  0.4320235E-008  0.1073542E+04  0.7818608E-02  0.9231370E-01
          1   -1    0    0  501    0  0.00000000000E+00  0.00000000000E+00  0.15123573999E+03  0.15123573999E+03  0.00000000000E+00 0. -1.
         -2   -1    0    0    0  501 -0.00000000000E+00 -0.00000000000E+00 -0.19051266768E+04  0.19051266768E+04  0.00000000000E+00 0.  1.
        -24    2    1    2    0    0  0.13194099188E+03  0.86467381151E+02 -0.26550044745E+03  0.31849209876E+03  0.77856894584E+02 0.  0.
        254    2    1    2    0    0 -0.13194099188E+03 -0.86467381151E+02 -0.14883904894E+04  0.17378703180E+04  0.88317719633E+03 0.  0.
         23    2    4    4    0    0 -0.47177365228E+03 -0.11836459279E+03 -0.57484198989E+03  0.75786698513E+03  0.85665033663E+02 0.  0.
         23    2    4    4    0    0  0.33983266040E+03  0.31897211643E+02 -0.91354849947E+03  0.98000333290E+03  0.96602289991E+02 0.  0.
          1    1    3    3  502    0  0.86861260845E+02  0.49658859612E+02 -0.93612467604E+02  0.13701888579E+03  0.00000000000E+00 0. -1.
         -2    1    3    3    0  502  0.45079731039E+02  0.36808521539E+02 -0.17188797985E+03  0.18147321297E+03  0.00000000000E+00 0.  1.
         11    1    5    5    0    0 -0.27883178088E+03 -0.74188031044E+02 -0.40365778338E+03  0.49617600916E+03  0.00000000000E+00 0. -1.
        -11    1    5    5    0    0 -0.19294187139E+03 -0.44176561750E+02 -0.17118420652E+03  0.26169097598E+03  0.00000000000E+00 0.  1.
          3    1    6    6  503    0  0.71135973943E+01  0.17219102143E+02 -0.25674654769E+02  0.31722052960E+02  0.00000000000E+00 0. -1.
         -3    1    6    6    0  503  0.33271906300E+03  0.14678109500E+02 -0.88787384470E+03  0.94828127994E+03  0.00000000000E+00 0.  1.
<mgrwt>
<rscale>  0 0.10735423E+04</rscale>
<asrwt>0</asrwt>
<pdfrwt beam="1">  1        1 0.23267035E-01 0.10735423E+04</pdfrwt>
<pdfrwt beam="2">  1       -2 0.29309644E+00 0.10735423E+04</pdfrwt>
<totfact> 0.66078984E+00</totfact>
</mgrwt>
</event>
<event>
12    4  0.4320235E-008  0.2331711E+04  0.7818608E-02  0.8465522E-01
         -4   -1    0    0    0  501 -0.00000000000E+00  0.00000000000E+00  0.58219866618E+03  0.58219866618E+03  0.00000000000E+00 0.  1.
          3   -1    0    0  501    0  0.00000000000E+00 -0.00000000000E+00 -0.23346310771E+04  0.23346310771E+04  0.00000000000E+00 0. -1.
        -24    2    1    2    0    0 -0.10871614512E+03 -0.89157098218E+03 -0.22577903128E+03  0.92950357861E+03  0.79263580622E+02 0.  0.
        254    2    1    2    0    0  0.10871614512E+03  0.89157098218E+03 -0.15266533797E+04  0.19873261647E+04  0.90115299855E+03 0.  0.
         23    2    4    4    0    0  0.34159053105E+03  0.17375006358E+02 -0.32642220359E+03  0.48145144853E+03  0.90873871649E+02 0.  0.
         23    2    4    4    0    0 -0.23287438593E+03  0.87419597582E+03 -0.12002311761E+04  0.15058747162E+04  0.93030645600E+02 0.  0.
          3    1    3    3  502    0 -0.10845146295E+02 -0.36184934663E+03 -0.11189069485E+03  0.37890908467E+03  0.00000000000E+00 0. -1.
         -4    1    3    3    0  502 -0.97870998826E+02 -0.52972163555E+03 -0.11388833644E+03  0.55059449394E+03  0.00000000000E+00 0.  1.
         11    1    5    5    0    0  0.27189795314E+03  0.62812347502E+01 -0.30285728153E+03  0.40705095972E+03  0.00000000000E+00 0.  1.
        -11    1    5    5    0    0  0.69692577906E+02  0.11093771608E+02 -0.23564922059E+02  0.74400488811E+02  0.00000000000E+00 0. -1.
          3    1    6    6  503    0 -0.52879137480E+01  0.14152970997E+01 -0.18284584974E+02  0.19086412585E+02  0.00000000000E+00 0. -1.
         -3    1    6    6    0  503 -0.22758647218E+03  0.87278067872E+03 -0.11819465911E+04  0.14867883036E+04  0.00000000000E+00 0.  1.
<mgrwt>
<rscale>  0 0.23317110E+04</rscale>
<asrwt>0</asrwt>
<pdfrwt beam="1">  1        3 0.35917401E+00 0.23317110E+04</pdfrwt>
<pdfrwt beam="2">  1       -4 0.89569027E-01 0.23317110E+04</pdfrwt>
<totfact> 0.40811869E-02</totfact>
</mgrwt>
</event>
<event>
12    4  0.4320235E-008  0.1979149E+04  0.7818608E-02  0.8616431E-01
         -2   -1    0    0    0  501 -0.00000000000E+00  0.00000000000E+00  0.10221875686E+04  0.10221875686E+04  0.00000000000E+00 0.  1.
          1   -1    0    0  501    0  0.00000000000E+00 -0.00000000000E+00 -0.95800236537E+03  0.95800236537E+03  0.00000000000E+00 0. -1.
        -24    2    1    2    0    0  0.38910586771E+03 -0.68260905058E+03  0.74724880010E+02  0.79333913750E+03  0.80278809014E+02 0.  0.
        254    2    1    2    0    0 -0.38910586771E+03  0.68260905058E+03 -0.10539676785E+02  0.11868507965E+04  0.88946345403E+03 0.  0.
         23    2    4    4    0    0 -0.17101259933E+03 -0.19454862898E+03 -0.40248076385E+02  0.27777952547E+03  0.91907991758E+02 0.  0.
         23    2    4    4    0    0 -0.21809326838E+03  0.87715767956E+03  0.29708399601E+02  0.90907127099E+03  0.92507935933E+02 0.  0.
          1    1    3    3  502    0  0.85131705204E+01 -0.45706116886E+02  0.15571509541E+02  0.49030552745E+02  0.00000000000E+00 0. -1.
         -2    1    3    3    0  502  0.38059269719E+03 -0.63690293369E+03  0.59153370470E+02  0.74430858475E+03  0.00000000000E+00 0.  1.
         11    1    5    5    0    0 -0.41382387657E+02 -0.10149724756E+03 -0.44137520499E+02  0.11816223587E+03  0.00000000000E+00 0. -1.
        -11    1    5    5    0    0 -0.12963021167E+03 -0.93051381422E+02  0.38894441135E+01  0.15961728960E+03  0.00000000000E+00 0.  1.
          1    1    6    6  503    0 -0.18929945270E+03  0.65158492480E+03  0.52359091477E+02  0.68054292405E+03  0.00000000000E+00 0. -1.
         -1    1    6    6    0  503 -0.28793815680E+02  0.22557275476E+03 -0.22650691876E+02  0.22852834694E+03  0.00000000000E+00 0.  1.
<mgrwt>
<rscale>  0 0.19791494E+04</rscale>
<asrwt>0</asrwt>
<pdfrwt beam="1">  1        1 0.14738498E+00 0.19791494E+04</pdfrwt>
<pdfrwt beam="2">  1       -2 0.15725963E+00 0.19791494E+04</pdfrwt>
<totfact> 0.35116783E+00</totfact>
</mgrwt>
</event>
<event>
12    4  0.4320235E-008  0.1587860E+04  0.7818608E-02  0.8828041E-01
          1   -1    0    0  501    0  0.00000000000E+00  0.00000000000E+00  0.28213052736E+04  0.28213052736E+04  0.00000000000E+00 0. -1.
         -2   -1    0    0    0  501 -0.00000000000E+00 -0.00000000000E+00 -0.22341609282E+03  0.22341609282E+03  0.00000000000E+00 0.  1.
        -24    2    1    2    0    0  0.24419845145E+03 -0.20071087842E+03  0.57077056334E+02  0.33074729336E+03  0.78855826026E+02 0.  0.
        254    2    1    2    0    0 -0.24419845145E+03  0.20071087842E+03  0.25408121245E+04  0.27139740731E+04  0.90000626503E+03 0.  0.
         23    2    4    4    0    0 -0.55983565255E+03  0.25104791571E+03  0.15920871662E+04  0.17086541742E+04  0.91195000596E+02 0.  0.
         23    2    4    4    0    0  0.31563720110E+03 -0.50337037293E+02  0.94872495826E+03  0.10053198989E+04  0.91806278349E+02 0.  0.
          1    1    3    3  502    0  0.25904614987E+02 -0.46457039992E+01  0.23738195328E+02  0.35441974559E+02  0.00000000000E+00 0. -1.
         -2    1    3    3    0  502  0.21829383646E+03 -0.19606517442E+03  0.33338861006E+02  0.29530531880E+03  0.00000000000E+00 0.  1.
         11    1    5    5    0    0 -0.17382499855E+02  0.23433969837E+02  0.46453647883E+02  0.54856573400E+02  0.00000000000E+00 0. -1.
        -11    1    5    5    0    0 -0.54245315269E+03  0.22761394587E+03  0.15456335183E+04  0.16537976008E+04  0.00000000000E+00 0.  1.
          1    1    6    6  503    0  0.97172418497E+02 -0.45506422270E+02  0.22409947392E+03  0.24846305077E+03  0.00000000000E+00 0. -1.
         -1    1    6    6    0  503  0.21846478260E+03 -0.48306150229E+01  0.72462548433E+03  0.75685684817E+03  0.00000000000E+00 0.  1.
<mgrwt>
<rscale>  0 0.15878602E+04</rscale>
<asrwt>0</asrwt>
<pdfrwt beam="1">  1        1 0.43404694E+00 0.15878602E+04</pdfrwt>
<pdfrwt beam="2">  1       -2 0.34371709E-01 0.15878602E+04</pdfrwt>
<totfact> 0.54038790E+00</totfact>
</mgrwt>
</event>
<event>
12    4  0.4320235E-008  0.1539059E+04  0.7818608E-02  0.8858887E-01
          1   -1    0    0  501    0  0.00000000000E+00  0.00000000000E+00  0.18872174962E+04  0.18872174962E+04  0.00000000000E+00 0. -1.
         -2   -1    0    0    0  501 -0.00000000000E+00 -0.00000000000E+00 -0.31378250958E+03  0.31378250958E+03  0.00000000000E+00 0.  1.
        -24    2    1    2    0    0 -0.26602336919E+03  0.18394048343E+03  0.99774673719E+03  0.10521836362E+04  0.83602142831E+02 0.  0.
        254    2    1    2    0    0  0.26602336919E+03 -0.18394048343E+03  0.57568824945E+03  0.11488163696E+04  0.94008486646E+03 0.  0.
         23    2    4    4    0    0 -0.22551728430E+03  0.11734813221E+03  0.48896263650E+03  0.55808319365E+03  0.87998644831E+02 0.  0.
         23    2    4    4    0    0  0.49154065349E+03 -0.30128861564E+03  0.86725612952E+02  0.59073317597E+03  0.95169897044E+02 0.  0.
          3    1    3    3  502    0 -0.25209837836E+03  0.19250833866E+03  0.96008135469E+03  0.10111227722E+04  0.00000000000E+00 0. -1.
         -4    1    3    3    0  502 -0.13924990828E+02 -0.85678552337E+01  0.37665382497E+02  0.41060863989E+02  0.00000000000E+00 0.  1.
         11    1    5    5    0    0 -0.17383448698E+03  0.97952295100E+02  0.44439838299E+03  0.48713756146E+03  0.00000000000E+00 0.  1.
        -11    1    5    5    0    0 -0.51682797326E+02  0.19395837108E+02  0.44564253506E+02  0.70945632192E+02  0.00000000000E+00 0. -1.
          2    1    6    6  503    0  0.29843844036E+03 -0.19524779202E+03  0.77964443409E+01  0.35671835882E+03  0.00000000000E+00 0.  1.
         -2    1    6    6    0  503  0.19310221313E+03 -0.10604082362E+03  0.78929168611E+02  0.23401481715E+03  0.00000000000E+00 0. -1.
<mgrwt>
<rscale>  0 0.15390592E+04</rscale>
<asrwt>0</asrwt>
<pdfrwt beam="1">  1        1 0.29034115E+00 0.15390592E+04</pdfrwt>
<pdfrwt beam="2">  1       -2 0.48274233E-01 0.15390592E+04</pdfrwt>
<totfact> 0.12234115E+01</totfact>
</mgrwt>
</event>
<event>
12    4  0.4320235E-008  0.1254089E+04  0.7818608E-02  0.9066787E-01
          1   -1    0    0  501    0  0.00000000000E+00  0.00000000000E+00  0.47225817021E+03  0.47225817021E+03  0.00000000000E+00 0. -1.
         -2   -1    0    0    0  501 -0.00000000000E+00 -0.00000000000E+00 -0.83256264151E+03  0.83256264151E+03  0.00000000000E+00 0.  1.
        -24    2    1    2    0    0 -0.73326033639E+02 -0.29138552269E+03 -0.64420923228E+02  0.31765713150E+03  0.80459727843E+02 0.  0.
        254    2    1    2    0    0  0.73326033639E+02  0.29138552269E+03 -0.29588354807E+03  0.98716368021E+03  0.89255970527E+03 0.  0.
         23    2    4    4    0    0 -0.11414493310E+03  0.77647248062E+02  0.28728285398E+03  0.33148227412E+03  0.91054373778E+02 0.  0.
         23    2    4    4    0    0  0.18747096674E+03  0.21373827462E+03 -0.58316640205E+03  0.65568140609E+03  0.94898052688E+02 0.  0.
          1    1    3    3  502    0 -0.11799224159E+02 -0.18721125719E+02 -0.28130097409E+02  0.35791124866E+02  0.00000000000E+00 0. -1.
         -2    1    3    3    0  502 -0.61526809480E+02 -0.27266439697E+03 -0.36290825818E+02  0.28186600664E+03  0.00000000000E+00 0.  1.
         11    1    5    5    0    0 -0.12574229376E+03  0.81049745285E+02  0.27975658712E+03  0.31724428078E+03  0.00000000000E+00 0. -1.
        -11    1    5    5    0    0  0.11597360658E+02 -0.34024972223E+01  0.75262668530E+01  0.14237993339E+02  0.00000000000E+00 0.  1.
          1    1    6    6  503    0  0.13605630104E+03  0.20452837811E+03 -0.50632135416E+03  0.56276503817E+03  0.00000000000E+00 0. -1.
         -1    1    6    6    0  503  0.51414665700E+02  0.92098965118E+01 -0.76845047890E+02  0.92916367924E+02  0.00000000000E+00 0.  1.
<mgrwt>
<rscale>  0 0.12540885E+04</rscale>
<asrwt>0</asrwt>
<pdfrwt beam="1">  1        1 0.72655103E-01 0.12540885E+04</pdfrwt>
<pdfrwt beam="2">  1       -2 0.12808656E+00 0.12540885E+04</pdfrwt>
<totfact> 0.18623423E+01</totfact>
</mgrwt>
</event>
<event>
12    4  0.4320235E-008  0.1541928E+04  0.7818608E-02  0.8857040E-01
          1   -1    0    0  501    0  0.00000000000E+00  0.00000000000E+00  0.96441582198E+03  0.96441582198E+03  0.00000000000E+00 0. -1.
         -2   -1    0    0    0  501 -0.00000000000E+00 -0.00000000000E+00 -0.61631695460E+03  0.61631695460E+03  0.00000000000E+00 0.  1.
        -24    2    1    2    0    0  0.30131821521E+03 -0.37960806733E+03  0.25902499457E+03  0.55500013472E+03  0.77693308083E+02 0.  0.
        254    2    1    2    0    0 -0.30131821521E+03  0.37960806733E+03  0.89073872811E+02  0.10257326419E+04  0.89961010787E+03 0.  0.
         23    2    4    4    0    0 -0.58792651265E+03  0.40527727079E+03  0.63783629416E+02  0.72275257142E+03  0.91627930387E+02 0.  0.
         23    2    4    4    0    0  0.28660829744E+03 -0.25669203458E+02  0.25290243395E+02  0.30298007044E+03  0.91400779583E+02 0.  0.
          1    1    3    3  502    0  0.25014820993E+03 -0.26545855294E+03  0.17713741023E+03  0.40548740099E+03  0.00000000000E+00 0. -1.
         -2    1    3    3    0  502  0.51170005279E+02 -0.11414951439E+03  0.81887584339E+02  0.14951273372E+03  0.00000000000E+00 0.  1.
         11    1    5    5    0    0 -0.57472471168E+03  0.39502988254E+03  0.46856331084E+02  0.69896539119E+03  0.00000000000E+00 0. -1.
        -11    1    5    5    0    0 -0.13201800962E+02  0.10247388245E+02  0.16927298332E+02  0.23787180230E+02  0.00000000000E+00 0.  1.
          1    1    6    6  503    0  0.18407267271E+03  0.25245597675E+02  0.30965669414E+02  0.18835859875E+03  0.00000000000E+00 0. -1.
         -1    1    6    6    0  503  0.10253562472E+03 -0.50914801133E+02 -0.56754260189E+01  0.11462147169E+03  0.00000000000E+00 0.  1.
<mgrwt>
<rscale>  0 0.15419284E+04</rscale>
<asrwt>0</asrwt>
<pdfrwt beam="1">  1        1 0.14837167E+00 0.15419284E+04</pdfrwt>
<pdfrwt beam="2">  1       -2 0.94817993E-01 0.15419284E+04</pdfrwt>
<totfact> 0.12770826E+01</totfact>
</mgrwt>
</event>
<event>
12    4  0.4320235E-008  0.1781805E+04  0.7818608E-02  0.8716036E-01
         -2   -1    0    0    0  501 -0.00000000000E+00  0.00000000000E+00  0.17674083325E+04  0.17674083325E+04  0.00000000000E+00 0.  1.
          1   -1    0    0  501    0  0.00000000000E+00 -0.00000000000E+00 -0.44907968196E+03  0.44907968196E+03  0.00000000000E+00 0. -1.
        -24    2    1    2    0    0  0.63575161119E+03  0.95753062275E+02  0.64862133210E+03  0.91707142076E+03  0.83436192724E+02 0.  0.
        254    2    1    2    0    0 -0.63575161119E+03 -0.95753062275E+02  0.66970731841E+03  0.12994165937E+04  0.90919020644E+03 0.  0.
         23    2    4    4    0    0 -0.75611588926E+03 -0.11124156811E+03  0.18595156424E+03  0.79260418554E+03  0.97762396777E+02 0.  0.
         23    2    4    4    0    0  0.12036427807E+03  0.15488505838E+02  0.48375575417E+03  0.50681240812E+03  0.90065165762E+02 0.  0.
          1    1    3    3  502    0  0.39271658911E+02  0.26455139700E+02  0.56918300928E+02  0.74039385402E+02  0.00000000000E+00 0. -1.
         -2    1    3    3    0  502  0.59647995228E+03  0.69297922575E+02  0.59170303118E+03  0.84303203536E+03  0.00000000000E+00 0.  1.
         11    1    5    5    0    0 -0.27063445084E+03 -0.46035761872E+02  0.19335306262E+02  0.27520201929E+03  0.00000000000E+00 0. -1.
        -11    1    5    5    0    0 -0.48548143842E+03 -0.65205806241E+02  0.16661625798E+03  0.51740216625E+03  0.00000000000E+00 0.  1.
          1    1    6    6  503    0  0.34247421791E+02  0.17520687464E+02  0.31502422042E+03  0.31736433297E+03  0.00000000000E+00 0. -1.
         -1    1    6    6    0  503  0.86116856280E+02 -0.20321816260E+01  0.16873153375E+03  0.18944807515E+03  0.00000000000E+00 0.  1.
<mgrwt>
<rscale>  0 0.17818049E+04</rscale>
<asrwt>0</asrwt>
<pdfrwt beam="1">  1        1 0.69089183E-01 0.17818049E+04</pdfrwt>
<pdfrwt beam="2">  1       -2 0.27190897E+00 0.17818049E+04</pdfrwt>
<totfact> 0.20043231E+00</totfact>
</mgrwt>
</event>
<event>
12    4  0.1082776E-007  0.1586202E+04  0.7818608E-02  0.8829070E-01
         -2   -1    0    0    0  501 -0.00000000000E+00  0.00000000000E+00  0.72110461327E+03  0.72110461327E+03  0.00000000000E+00 0.  1.
          1   -1    0    0  501    0  0.00000000000E+00 -0.00000000000E+00 -0.87228517556E+03  0.87228517556E+03  0.00000000000E+00 0. -1.
        -24    2    1    2    0    0 -0.21854412106E+03 -0.28209632481E+03  0.20297838527E+03  0.41902436383E+03  0.83912593066E+02 0.  0.
        254    2    1    2    0    0  0.21854412106E+03  0.28209632481E+03 -0.35415894755E+03  0.11743654250E+04  0.10613037840E+04 0.  0.
         23    2    4    4    0    0 -0.35770875243E+03  0.51862261434E+02  0.11616380638E+03  0.39000649136E+03  0.89251261441E+02 0.  0.
         23    2    4    4    0    0  0.57625287348E+03  0.23023406338E+03 -0.47032275393E+03  0.78435893364E+03  0.94553401703E+02 0.  0.
          3    1    3    3  502    0 -0.20950361408E+02 -0.34998141634E+01  0.28329375316E+02  0.35407906576E+02  0.00000000000E+00 0. -1.
         -4    1    3    3    0  502 -0.19759375965E+03 -0.27859651065E+03  0.17464900995E+03  0.38361645725E+03  0.00000000000E+00 0.  1.
         11    1    5    5    0    0  0.40103626072E+01 -0.38685503441E+01  0.50601325499E+01  0.75268606623E+01  0.00000000000E+00 0. -1.
        -11    1    5    5    0    0 -0.36171911503E+03  0.55730811778E+02  0.11110367383E+03  0.38247963070E+03  0.00000000000E+00 0.  1.
          2    1    6    6  503    0  0.22311230057E+02 -0.45027967077E+01 -0.38656582356E+01  0.23086998039E+02  0.00000000000E+00 0. -1.
         -2    1    6    6    0  503  0.55394164343E+03  0.23473686008E+03 -0.46645709570E+03  0.76127193560E+03  0.00000000000E+00 0.  1.
<mgrwt>
<rscale>  0 0.15862016E+04</rscale>
<asrwt>0</asrwt>
<pdfrwt beam="1">  1        1 0.13419772E+00 0.15862016E+04</pdfrwt>
<pdfrwt beam="2">  1       -2 0.11093917E+00 0.15862016E+04</pdfrwt>
<totfact> 0.10392284E+01</totfact>
</mgrwt>
</event>
<event>
12    4  0.4320235E-008  0.1200381E+04  0.7818608E-02  0.9112523E-01
          1   -1    0    0  501    0  0.00000000000E+00  0.00000000000E+00  0.87613676772E+03  0.87613676772E+03  0.00000000000E+00 0. -1.
         -4   -1    0    0    0  501 -0.00000000000E+00 -0.00000000000E+00 -0.41115584181E+03  0.41115584181E+03  0.00000000000E+00 0.  1.
        -24    2    1    2    0    0  0.12169438062E+03  0.17141332442E+03  0.27747117622E+03  0.35715169144E+03  0.79843766190E+02 0.  0.
        254    2    1    2    0    0 -0.12169438062E+03 -0.17141332442E+03  0.18750974969E+03  0.93014091809E+03  0.88645934549E+03 0.  0.
         23    2    4    4    0    0 -0.81960690453E+02 -0.52389238276E+03  0.16554240669E+03  0.56307908391E+03  0.92048806803E+02 0.  0.
         23    2    4    4    0    0 -0.39733690172E+02  0.35247905834E+03  0.21967342996E+02  0.36706183418E+03  0.91823598525E+02 0.  0.
          3    1    3    3  502    0  0.93450209150E+02  0.15571873494E+03  0.26752575843E+03  0.32334393055E+03  0.00000000000E+00 0. -1.
         -4    1    3    3    0  502  0.28244171475E+02  0.15694589473E+02  0.99454177962E+01  0.33807760887E+02  0.00000000000E+00 0.  1.
         11    1    5    5    0    0 -0.85711533267E+01 -0.16870386072E+02 -0.10163677854E+02  0.21479640199E+02  0.00000000000E+00 0.  1.
        -11    1    5    5    0    0 -0.73389537126E+02 -0.50702199669E+03  0.17570608455E+03  0.54159944371E+03  0.00000000000E+00 0. -1.
          3    1    6    6  503    0 -0.66602071618E+02  0.18906288828E+03  0.19926443536E+02  0.20143901018E+03  0.00000000000E+00 0. -1.
         -3    1    6    6    0  503  0.26868381446E+02  0.16341617006E+03  0.20408994598E+01  0.16562282400E+03  0.00000000000E+00 0.  1.
<mgrwt>
<rscale>  0 0.12003812E+04</rscale>
<asrwt>0</asrwt>
<pdfrwt beam="1">  1        1 0.13479027E+00 0.12003812E+04</pdfrwt>
<pdfrwt beam="2">  1       -4 0.63254745E-01 0.12003812E+04</pdfrwt>
<totfact> 0.21422466E+01</totfact>
</mgrwt>
</event>
<event>
12    4  0.4320235E-008  0.1162693E+04  0.7818608E-02  0.9146153E-01
         -2   -1    0    0    0  501 -0.00000000000E+00  0.00000000000E+00  0.81109334909E+02  0.81109334909E+02  0.00000000000E+00 0.  1.
          1   -1    0    0  501    0  0.00000000000E+00 -0.00000000000E+00 -0.41667655448E+04  0.41667655448E+04  0.00000000000E+00 0. -1.
        -24    2    1    2    0    0 -0.14401719099E+03  0.82762690747E+02 -0.30180839185E+03  0.35356454595E+03  0.79554814336E+02 0.  0.
        254    2    1    2    0    0  0.14401719099E+03 -0.82762690747E+02 -0.37838478180E+04  0.38943103337E+04  0.90584659364E+03 0.  0.
         23    2    4    4    0    0  0.33816730925E+03  0.29261274337E+03 -0.24502230230E+04  0.24923680163E+04  0.91247573547E+02 0.  0.
         23    2    4    4    0    0 -0.19415011827E+03 -0.37537543412E+03 -0.13336247950E+04  0.14019423174E+04  0.91028470906E+02 0.  0.
          1    1    3    3  502    0 -0.75722500287E+01  0.58448579928E+01 -0.88018853621E+02  0.88537110458E+02  0.00000000000E+00 0. -1.
         -2    1    3    3    0  502 -0.13644494096E+03  0.76917832755E+02 -0.21378953823E+03  0.26502743549E+03  0.00000000000E+00 0.  1.
         11    1    5    5    0    0  0.13521720777E+03  0.11606132332E+03 -0.12304333837E+04  0.12432699770E+04  0.00000000000E+00 0. -1.
        -11    1    5    5    0    0  0.20295010148E+03  0.17655142005E+03 -0.12197896393E+04  0.12490980393E+04  0.00000000000E+00 0.  1.
          1    1    6    6  503    0  0.45342628048E+01  0.50517041361E+00 -0.39608933140E+02  0.39870820418E+02  0.00000000000E+00 0. -1.
         -1    1    6    6    0  503 -0.19868438107E+03 -0.37588060453E+03 -0.12940158619E+04  0.13620714970E+04  0.00000000000E+00 0.  1.
<mgrwt>
<rscale>  0 0.11626927E+04</rscale>
<asrwt>0</asrwt>
<pdfrwt beam="1">  1        1 0.64104103E+00 0.11626927E+04</pdfrwt>
<pdfrwt beam="2">  1       -2 0.12478356E-01 0.11626927E+04</pdfrwt>
<totfact> 0.29500794E+00</totfact>
</mgrwt>
</event>
<event>
12    4  0.4320235E-008  0.1370559E+04  0.7818608E-02  0.8975409E-01
          1   -1    0    0  501    0  0.00000000000E+00  0.00000000000E+00  0.17834479283E+04  0.17834479283E+04  0.00000000000E+00 0. -1.
         -2   -1    0    0    0  501 -0.00000000000E+00 -0.00000000000E+00 -0.26331482829E+03  0.26331482829E+03  0.00000000000E+00 0.  1.
        -24    2    1    2    0    0 -0.34523070376E+03 -0.90701857238E+02  0.63994779640E+03  0.73713320201E+03  0.80131826774E+02 0.  0.
        254    2    1    2    0    0  0.34523070376E+03  0.90701857238E+02  0.88018530362E+03  0.13096295546E+04  0.90166087629E+03 0.  0.
         23    2    4    4    0    0  0.60756589466E+03 -0.70171208605E+02  0.72558559558E+03  0.95331880691E+03  0.91005363655E+02 0.  0.
         23    2    4    4    0    0 -0.26233519091E+03  0.16087306584E+03  0.15459970805E+03  0.35631074769E+03  0.91413256632E+02 0.  0.
          1    1    3    3  502    0 -0.11481876870E+03 -0.58491327688E+02  0.17611243673E+03  0.21822047436E+03  0.00000000000E+00 0. -1.
         -2    1    3    3    0  502 -0.23041193506E+03 -0.32210529550E+02  0.46383535967E+03  0.51891272765E+03  0.00000000000E+00 0.  1.
         11    1    5    5    0    0  0.15868077736E+03 -0.42872590452E+02  0.14701228865E+03  0.22052269980E+03  0.00000000000E+00 0. -1.
        -11    1    5    5    0    0  0.44888511730E+03 -0.27298618153E+02  0.57857330693E+03  0.73279610710E+03  0.00000000000E+00 0.  1.
          1    1    6    6  503    0 -0.11529778885E+03  0.56170408738E+02  0.11332141377E+03  0.17114449378E+03  0.00000000000E+00 0. -1.
         -1    1    6    6    0  503 -0.14703740206E+03  0.10470265710E+03  0.41278294274E+02  0.18516625391E+03  0.00000000000E+00 0.  1.
<mgrwt>
<rscale>  0 0.13705594E+04</rscale>
<asrwt>0</asrwt>
<pdfrwt beam="1">  1        1 0.27437660E+00 0.13705594E+04</pdfrwt>
<pdfrwt beam="2">  1       -2 0.40509975E-01 0.13705594E+04</pdfrwt>
<totfact> 0.20697664E+01</totfact>
</mgrwt>
</event>
<event>
12    4  0.4320235E-008  0.1848484E+04  0.7818608E-02  0.8680933E-01
         -2   -1    0    0    0  501 -0.00000000000E+00  0.00000000000E+00  0.12417889445E+04  0.12417889445E+04  0.00000000000E+00 0.  1.
          1   -1    0    0  501    0  0.00000000000E+00 -0.00000000000E+00 -0.68789705433E+03  0.68789705433E+03  0.00000000000E+00 0. -1.
        -24    2    1    2    0    0  0.70125760632E+03  0.61652492811E+02  0.27526966764E+03  0.76003854577E+03  0.79510633607E+02 0.  0.
        254    2    1    2    0    0 -0.70125760632E+03 -0.61652492811E+02  0.27862222253E+03  0.11696474531E+04  0.89156130540E+03 0.  0.
         23    2    4    4    0    0 -0.21706150809E+03  0.39779299684E+03  0.12279300860E+03  0.47814720243E+03  0.90507776509E+02 0.  0.
         23    2    4    4    0    0 -0.48419609823E+03 -0.45944548965E+03  0.15582921393E+03  0.69150025063E+03  0.91399306358E+02 0.  0.
          1    1    3    3  502    0  0.36791004123E+03  0.57166627808E+02  0.11185682288E+03  0.38876441529E+03  0.00000000000E+00 0. -1.
         -2    1    3    3    0  502  0.33334756508E+03  0.44858650029E+01  0.16341284476E+03  0.37127413048E+03  0.00000000000E+00 0.  1.
         11    1    5    5    0    0 -0.52876972518E+02  0.74328186457E+02 -0.10204811993E+02  0.91786664132E+02  0.00000000000E+00 0.  1.
        -11    1    5    5    0    0 -0.16418453557E+03  0.32346481038E+03  0.13299782059E+03  0.38636053830E+03  0.00000000000E+00 0. -1.
          1    1    6    6  503    0 -0.40089396856E+03 -0.36044756886E+03  0.90825570945E+02  0.54670623580E+03  0.00000000000E+00 0. -1.
         -1    1    6    6    0  503 -0.83302129669E+02 -0.98997920785E+02  0.65003642989E+02  0.14479401483E+03  0.00000000000E+00 0.  1.
<mgrwt>
<rscale>  0 0.18484837E+04</rscale>
<asrwt>0</asrwt>
<pdfrwt beam="1">  1        1 0.10583032E+00 0.18484837E+04</pdfrwt>
<pdfrwt beam="2">  1       -2 0.19104445E+00 0.18484837E+04</pdfrwt>
<totfact> 0.35089722E+00</totfact>
</mgrwt>
</event>
<event>
12    4  0.4320235E-008  0.1450981E+04  0.7818608E-02  0.8917721E-01
          1   -1    0    0  501    0  0.00000000000E+00  0.00000000000E+00  0.38245873568E+04  0.38245873568E+04  0.00000000000E+00 0. -1.
         -2   -1    0    0    0  501 -0.00000000000E+00 -0.00000000000E+00 -0.13761915942E+03  0.13761915942E+03  0.00000000000E+00 0.  1.
        -24    2    1    2    0    0 -0.60274446412E+02  0.23151346406E+03  0.13344915113E+03  0.28943178809E+03  0.93437632086E+02 0.  0.
        254    2    1    2    0    0  0.60274446412E+02 -0.23151346406E+03  0.35535190462E+04  0.36727747281E+04  0.89696437974E+03 0.  0.
         23    2    4    4    0    0 -0.21740377609E+03 -0.29382939608E+03  0.31447482103E+04  0.31670430620E+04  0.84382072298E+02 0.  0.
         23    2    4    4    0    0  0.27767822251E+03  0.62315932027E+02  0.40877083589E+03  0.50573166612E+03  0.87649593296E+02 0.  0.
          3    1    3    3  502    0  0.10087529275E+02  0.56872470229E+02 -0.15041238634E+01  0.57779741306E+02  0.00000000000E+00 0. -1.
         -4    1    3    3    0  502 -0.70361975686E+02  0.17464099383E+03  0.13495327499E+03  0.23165204678E+03  0.00000000000E+00 0.  1.
         11    1    5    5    0    0 -0.22026454809E+03 -0.26071550082E+03  0.28112040734E+04  0.28318469920E+04  0.00000000000E+00 0. -1.
        -11    1    5    5    0    0  0.28607719908E+01 -0.33113895263E+02  0.33354413693E+03  0.33519607002E+03  0.00000000000E+00 0.  1.
          1    1    6    6  503    0  0.23906515914E+03  0.63078126520E+02  0.29133705253E+03  0.38211029629E+03  0.00000000000E+00 0. -1.
         -1    1    6    6    0  503  0.38613063372E+02 -0.76219449342E+00  0.11743378336E+03  0.12362136983E+03  0.00000000000E+00 0.  1.
<mgrwt>
<rscale>  0 0.14509810E+04</rscale>
<asrwt>0</asrwt>
<pdfrwt beam="1">  1        1 0.58839797E+00 0.14509810E+04</pdfrwt>
<pdfrwt beam="2">  1       -2 0.21172181E-01 0.14509810E+04</pdfrwt>
<totfact> 0.22811765E+00</totfact>
</mgrwt>
</event>
<event>
12    4  0.4320235E-008  0.4434866E+04  0.7818608E-02  0.7922140E-01
         -2   -1    0    0    0  501 -0.00000000000E+00  0.00000000000E+00  0.15003539622E+04  0.15003539622E+04  0.00000000000E+00 0.  1.
          1   -1    0    0  501    0  0.00000000000E+00 -0.00000000000E+00 -0.32772325170E+04  0.32772325170E+04  0.00000000000E+00 0. -1.
        -24    2    1    2    0    0 -0.60154852446E+03 -0.35977923233E+03 -0.30136261528E+04  0.30952178865E+04  0.84436086998E+02 0.  0.
        254    2    1    2    0    0  0.60154852446E+03  0.35977923233E+03  0.12367475980E+04  0.16823685927E+04  0.89973203629E+03 0.  0.
         23    2    4    4    0    0  0.78969654335E+03  0.44731558655E+03  0.10162742244E+04  0.13656139708E+04  0.91522421289E+02 0.  0.
         23    2    4    4    0    0 -0.18814801889E+03 -0.87536354223E+02  0.22047337365E+03  0.31675462187E+03  0.93073581995E+02 0.  0.
          1    1    3    3  502    0 -0.18017649744E+03 -0.86169006320E+02 -0.71823642879E+03  0.74548791776E+03  0.00000000000E+00 0. -1.
         -2    1    3    3    0  502 -0.42137202702E+03 -0.27361022601E+03 -0.22953897240E+04  0.23497299687E+04  0.00000000000E+00 0.  1.
         11    1    5    5    0    0  0.16655104054E+03  0.64346910160E+02  0.16304478659E+03  0.24179201059E+03  0.00000000000E+00 0. -1.
        -11    1    5    5    0    0  0.62314550280E+03  0.38296867639E+03  0.85322943779E+03  0.11238219602E+04  0.00000000000E+00 0.  1.
          2    1    6    6  503    0 -0.23637988449E+02  0.19917059985E+02  0.28305786459E+02  0.41912543748E+02  0.00000000000E+00 0. -1.
         -2    1    6    6    0  503 -0.16451003044E+03 -0.10745341421E+03  0.19216758719E+03  0.27484207812E+03  0.00000000000E+00 0.  1.
<mgrwt>
<rscale>  0 0.44348659E+04</rscale>
<asrwt>0</asrwt>
<pdfrwt beam="1">  1        1 0.50418962E+00 0.44348659E+04</pdfrwt>
<pdfrwt beam="2">  1       -2 0.23082369E+00 0.44348659E+04</pdfrwt>
<totfact> 0.20874366E-02</totfact>
</mgrwt>
</event>
<event>
12    4  0.4320235E-008  0.1946314E+04  0.7818608E-02  0.8632140E-01
          1   -1    0    0  501    0  0.00000000000E+00  0.00000000000E+00  0.45415751183E+03  0.45415751183E+03  0.00000000000E+00 0. -1.
         -2   -1    0    0    0  501 -0.00000000000E+00 -0.00000000000E+00 -0.20852566894E+04  0.20852566894E+04  0.00000000000E+00 0.  1.
        -24    2    1    2    0    0 -0.48647192289E+03 -0.30332996328E+03 -0.12935935003E+04  0.14170209022E+04  0.76812074534E+02 0.  0.
        254    2    1    2    0    0  0.48647192289E+03  0.30332996328E+03 -0.33750567725E+03  0.11223932990E+04  0.90398707797E+03 0.  0.
         23    2    4    4    0    0  0.69701386604E+03  0.41333828971E+03 -0.24011519507E+03  0.85020287909E+03  0.92264605973E+02 0.  0.
         23    2    4    4    0    0 -0.21054194315E+03 -0.11000832643E+03 -0.97390482177E+02  0.27219041994E+03  0.90404518570E+02 0.  0.
          1    1    3    3  502    0 -0.15636513117E+02 -0.84796312936E+01 -0.85304461810E+02  0.87139290186E+02  0.00000000000E+00 0. -1.
         -2    1    3    3    0  502 -0.47083540978E+03 -0.29485033199E+03 -0.12082890385E+04  0.13298816120E+04  0.00000000000E+00 0.  1.
         11    1    5    5    0    0  0.40026714970E+03  0.26454189080E+03 -0.10118683516E+03  0.49034169589E+03  0.00000000000E+00 0. -1.
        -11    1    5    5    0    0  0.29674671634E+03  0.14879639891E+03 -0.13892835991E+03  0.35986118320E+03  0.00000000000E+00 0.  1.
          1    1    6    6  503    0 -0.20336013558E+03 -0.12320299893E+03 -0.97956587339E+02  0.25715718285E+03  0.00000000000E+00 0. -1.
         -1    1    6    6    0  503 -0.71818075708E+01  0.13194672498E+02  0.56610516120E+00  0.15033237089E+02  0.00000000000E+00 0.  1.
<mgrwt>
<rscale>  0 0.19463145E+04</rscale>
<asrwt>0</asrwt>
<pdfrwt beam="1">  1        1 0.69870387E-01 0.19463145E+04</pdfrwt>
<pdfrwt beam="2">  1       -2 0.32080872E+00 0.19463145E+04</pdfrwt>
<totfact> 0.97796049E-01</totfact>
</mgrwt>
</event>
<event>
12    4  0.4320235E-008  0.1804756E+04  0.7818608E-02  0.8703775E-01
          1   -1    0    0  501    0  0.00000000000E+00  0.00000000000E+00  0.19467497309E+04  0.19467497309E+04  0.00000000000E+00 0. -1.
         -2   -1    0    0    0  501 -0.00000000000E+00 -0.00000000000E+00 -0.41827959722E+03  0.41827959722E+03  0.00000000000E+00 0.  1.
        -24    2    1    2    0    0  0.14995835558E+03  0.46151006488E+03  0.11854988652E+04  0.12832739604E+04  0.76846922591E+02 0.  0.
        254    2    1    2    0    0 -0.14995835558E+03 -0.46151006488E+03  0.34297126841E+03  0.10817553677E+04  0.90392828045E+03 0.  0.
         23    2    4    4    0    0 -0.98095023824E+02  0.20890831937E+03  0.31641393805E+03  0.40266149306E+03  0.93558421331E+02 0.  0.
         23    2    4    4    0    0 -0.51863331759E+02 -0.67041838425E+03  0.26557330354E+02  0.67909387463E+03  0.91173371400E+02 0.  0.
          1    1    3    3  502    0  0.14183559133E+03  0.34811284059E+03  0.86259387541E+03  0.94093999736E+03  0.00000000000E+00 0. -1.
         -2    1    3    3    0  502  0.81227642574E+01  0.11339722429E+03  0.32290498982E+03  0.34233396301E+03  0.00000000000E+00 0.  1.
         11    1    5    5    0    0 -0.91834233549E+02  0.21880216539E+03  0.30008975879E+03  0.38257257790E+03  0.00000000000E+00 0. -1.
        -11    1    5    5    0    0 -0.62607902753E+01 -0.98938460185E+01  0.16324179260E+02  0.20088915163E+02  0.00000000000E+00 0.  1.
          1    1    6    6  503    0 -0.29921598952E+02 -0.61044217444E+03  0.44396206289E+02  0.61278542211E+03  0.00000000000E+00 0. -1.
         -1    1    6    6    0  503 -0.21941732807E+02 -0.59976209807E+02 -0.17838875935E+02  0.66308452523E+02  0.00000000000E+00 0.  1.
<mgrwt>
<rscale>  0 0.18047556E+04</rscale>
<asrwt>0</asrwt>
<pdfrwt beam="1">  1        1 0.29949995E+00 0.18047556E+04</pdfrwt>
<pdfrwt beam="2">  1       -2 0.64350708E-01 0.18047556E+04</pdfrwt>
<totfact> 0.59837634E+00</totfact>
</mgrwt>
</event>
<event>
12    4  0.4320235E-008  0.1536972E+04  0.7818608E-02  0.8860233E-01
          1   -1    0    0  501    0  0.00000000000E+00  0.00000000000E+00  0.10840826331E+04  0.10840826331E+04  0.00000000000E+00 0. -1.
         -2   -1    0    0    0  501 -0.00000000000E+00 -0.00000000000E+00 -0.54476526779E+03  0.54476526779E+03  0.00000000000E+00 0.  1.
        -24    2    1    2    0    0 -0.14253154454E+03 -0.30899436064E+03 -0.21188047538E+03  0.40804010372E+03  0.76227516636E+02 0.  0.
        254    2    1    2    0    0  0.14253154454E+03  0.30899436064E+03  0.75119784067E+03  0.12208077971E+04  0.90015594518E+03 0.  0.
         23    2    4    4    0    0  0.87845926737E+02  0.49360774081E+03  0.79015280682E+02  0.51555177586E+03  0.90469389192E+02 0.  0.
         23    2    4    4    0    0  0.54685617807E+02 -0.18461338017E+03  0.67218255999E+03  0.70525602128E+03  0.92108874018E+02 0.  0.
          1    1    3    3  502    0 -0.78353367959E+02 -0.85951083358E+02 -0.62567909281E+02  0.13206658273E+03  0.00000000000E+00 0. -1.
         -2    1    3    3    0  502 -0.64178176585E+02 -0.22304327729E+03 -0.14931256610E+03  0.27597352099E+03  0.00000000000E+00 0.  1.
         11    1    5    5    0    0  0.51976464249E+02  0.36888569676E+03  0.95913874282E+02  0.38467867291E+03  0.00000000000E+00 0. -1.
        -11    1    5    5    0    0  0.35869462488E+02  0.12472204405E+03 -0.16898593600E+02  0.13087310296E+03  0.00000000000E+00 0.  1.
          4    1    6    6  503    0  0.69882047505E+02 -0.10902554773E+03  0.33010835975E+03  0.35460062013E+03  0.00000000000E+00 0. -1.
         -4    1    6    6    0  503 -0.15196429698E+02 -0.75587832437E+02  0.34207420023E+03  0.35065540115E+03  0.00000000000E+00 0.  1.
<mgrwt>
<rscale>  0 0.15369718E+04</rscale>
<asrwt>0</asrwt>
<pdfrwt beam="1">  1        1 0.16678194E+00 0.15369718E+04</pdfrwt>
<pdfrwt beam="2">  1       -2 0.83810041E-01 0.15369718E+04</pdfrwt>
<totfact> 0.13715946E+01</totfact>
</mgrwt>
</event>
<event>
12    4  0.4320235E-008  0.2118653E+04  0.7818608E-02  0.8553071E-01
         -2   -1    0    0    0  501 -0.00000000000E+00  0.00000000000E+00  0.11004895242E+04  0.11004895242E+04  0.00000000000E+00 0.  1.
          1   -1    0    0  501    0  0.00000000000E+00 -0.00000000000E+00 -0.10197030986E+04  0.10197030986E+04  0.00000000000E+00 0. -1.
        -24    2    1    2    0    0  0.29078666913E+03 -0.81343679086E+03  0.10532752675E+03  0.87438935264E+03  0.85009131588E+02 0.  0.
        254    2    1    2    0    0 -0.29078666913E+03  0.81343679086E+03 -0.24541101205E+02  0.12458032701E+04  0.89732225123E+03 0.  0.
         23    2    4    4    0    0 -0.41326419400E+03  0.90355270045E+03  0.13523073266E+03  0.10065014506E+04  0.86965754749E+02 0.  0.
         23    2    4    4    0    0  0.12247752487E+03 -0.90115909582E+02 -0.15977183387E+03  0.23930181952E+03  0.92826185253E+02 0.  0.
          3    1    3    3  502    0  0.51430304299E+02 -0.24327073531E+03  0.49288266477E+02  0.25348581828E+03  0.00000000000E+00 0. -1.
         -4    1    3    3    0  502  0.23935636483E+03 -0.57016605556E+03  0.56039260270E+02  0.62090353436E+03  0.00000000000E+00 0.  1.
         11    1    5    5    0    0 -0.77365661873E+02  0.11916489261E+03 -0.29233090381E+01  0.14210651992E+03  0.00000000000E+00 0. -1.
        -11    1    5    5    0    0 -0.33589853213E+03  0.78438780783E+03  0.13815404170E+03  0.86439493069E+03  0.00000000000E+00 0.  1.
          3    1    6    6  503    0  0.28787192660E+02 -0.53163128829E+01  0.69628749505E+01  0.30090650899E+02  0.00000000000E+00 0. -1.
         -3    1    6    6    0  503  0.93690332212E+02 -0.84799596699E+02 -0.16673470882E+03  0.20921116862E+03  0.00000000000E+00 0.  1.
<mgrwt>
<rscale>  0 0.21186529E+04</rscale>
<asrwt>0</asrwt>
<pdfrwt beam="1">  1        1 0.15687740E+00 0.21186529E+04</pdfrwt>
<pdfrwt beam="2">  1       -2 0.16930608E+00 0.21186529E+04</pdfrwt>
<totfact> 0.25343950E+00</totfact>
</mgrwt>
</event>
<event>
12    4  0.4320235E-008  0.2098182E+04  0.7818608E-02  0.8562044E-01
         -2   -1    0    0    0  501 -0.00000000000E+00  0.00000000000E+00  0.15441818891E+04  0.15441818891E+04  0.00000000000E+00 0.  1.
          1   -1    0    0  501    0  0.00000000000E+00 -0.00000000000E+00 -0.71273497172E+03  0.71273497172E+03  0.00000000000E+00 0. -1.
        -24    2    1    2    0    0 -0.41207310707E+03  0.61347647499E+03 -0.78060027703E+02  0.74738855495E+03  0.79615659273E+02 0.  0.
        254    2    1    2    0    0  0.41207310707E+03 -0.61347647499E+03  0.90950694506E+03  0.15095283059E+04  0.95148052641E+03 0.  0.
         23    2    4    4    0    0  0.28313682960E+03  0.10283144506E+03  0.66537205553E+03  0.73614580318E+03  0.91923342429E+02 0.  0.
         23    2    4    4    0    0  0.12893627747E+03 -0.71630792006E+03  0.24413488953E+03  0.77338250268E+03  0.93792596627E+02 0.  0.
          1    1    3    3  502    0 -0.27829932078E+03  0.47301905570E+03 -0.45393642238E+02  0.55068877032E+03  0.00000000000E+00 0. -1.
         -2    1    3    3    0  502 -0.13377378629E+03  0.14045741929E+03 -0.32666385465E+02  0.19669978462E+03  0.00000000000E+00 0.  1.
         11    1    5    5    0    0  0.28779256709E+02  0.32947276482E+02  0.48918153858E+02  0.65625867013E+02  0.00000000000E+00 0.  1.
        -11    1    5    5    0    0  0.25435757289E+03  0.69884168582E+02  0.61645390168E+03  0.67051993617E+03  0.00000000000E+00 0. -1.
          1    1    6    6  503    0  0.11138595220E+03 -0.50563062471E+03  0.13309093841E+03  0.53458615477E+03  0.00000000000E+00 0. -1.
         -1    1    6    6    0  503  0.17550325270E+02 -0.21067729535E+03  0.11104395112E+03  0.23879634791E+03  0.00000000000E+00 0.  1.
<mgrwt>
<rscale>  0 0.20981825E+04</rscale>
<asrwt>0</asrwt>
<pdfrwt beam="1">  1        1 0.10965153E+00 0.20981825E+04</pdfrwt>
<pdfrwt beam="2">  1       -2 0.23756644E+00 0.20981825E+04</pdfrwt>
<totfact> 0.16375533E+00</totfact>
</mgrwt>
</event>
<event>
12    4  0.4320235E-008  0.1485028E+04  0.7818608E-02  0.8894471E-01
          1   -1    0    0  501    0  0.00000000000E+00  0.00000000000E+00  0.65280406739E+03  0.65280406739E+03  0.00000000000E+00 0. -1.
         -2   -1    0    0    0  501 -0.00000000000E+00 -0.00000000000E+00 -0.84455168647E+03  0.84455168647E+03  0.00000000000E+00 0.  1.
        -24    2    1    2    0    0 -0.79667185781E+02 -0.93173356419E+02 -0.53103800875E+03  0.55076599800E+03  0.79458687268E+02 0.  0.
        254    2    1    2    0    0  0.79667185781E+02  0.93173356419E+02  0.33929038968E+03  0.94658975585E+03  0.87514916587E+03 0.  0.
         23    2    4    4    0    0  0.23721778489E+02  0.19393914287E+03  0.60523569020E+03  0.64234101649E+03  0.90092324118E+02 0.  0.
         23    2    4    4    0    0  0.55945407292E+02 -0.10076578645E+03 -0.26594530052E+03  0.30424873936E+03  0.92502757880E+02 0.  0.
          3    1    3    3  502    0 -0.12017444597E+02 -0.56222408723E+01 -0.66653394132E+01  0.14847737759E+02  0.00000000000E+00 0. -1.
         -4    1    3    3    0  502 -0.67649741184E+02 -0.87551115547E+02 -0.52437266934E+03  0.53591826025E+03  0.00000000000E+00 0.  1.
         11    1    5    5    0    0  0.24555497016E+02  0.46969095282E+02  0.28637754200E+03  0.29124073360E+03  0.00000000000E+00 0.  1.
        -11    1    5    5    0    0 -0.83371852694E+00  0.14697004759E+03  0.31885814820E+03  0.35110028290E+03  0.00000000000E+00 0. -1.
          4    1    6    6  503    0  0.46450784528E+02 -0.77153172037E+02 -0.93061900235E+02  0.12950214135E+03  0.00000000000E+00 0. -1.
         -4    1    6    6    0  503  0.94946227638E+01 -0.23612614412E+02 -0.17288340029E+03  0.17474659801E+03  0.00000000000E+00 0.  1.
<mgrwt>
<rscale>  0 0.14850276E+04</rscale>
<asrwt>0</asrwt>
<pdfrwt beam="1">  1        1 0.10043140E+00 0.14850276E+04</pdfrwt>
<pdfrwt beam="2">  1       -2 0.12993103E+00 0.14850276E+04</pdfrwt>
<totfact> 0.11153646E+01</totfact>
</mgrwt>
</event>
<event>
12    4  0.4320235E-008  0.1566978E+04  0.7818608E-02  0.8841095E-01
          1   -1    0    0  501    0  0.00000000000E+00  0.00000000000E+00  0.22683798676E+03  0.22683798676E+03  0.00000000000E+00 0. -1.
         -2   -1    0    0    0  501 -0.00000000000E+00 -0.00000000000E+00 -0.27061386486E+04  0.27061386486E+04  0.00000000000E+00 0.  1.
        -24    2    1    2    0    0  0.11213169638E+03  0.18170112230E+03  0.57379017871E+02  0.23515661764E+03  0.80109100281E+02 0.  0.
        254    2    1    2    0    0 -0.11213169638E+03 -0.18170112230E+03 -0.25366796797E+04  0.26978200177E+04  0.89325261566E+03 0.  0.
         23    2    4    4    0    0 -0.40417559378E+03 -0.11223444333E+03 -0.61079287632E+03  0.74655529447E+03  0.91227128995E+02 0.  0.
         23    2    4    4    0    0  0.29204389740E+03 -0.69466678970E+02 -0.19258868034E+04  0.19512647232E+04  0.90987819154E+02 0.  0.
          1    1    3    3  502    0  0.10835266891E+03  0.14991123930E+03  0.73834567228E+02  0.19916130107E+03  0.00000000000E+00 0. -1.
         -2    1    3    3    0  502  0.37790274761E+01  0.31789883002E+02 -0.16455549357E+02  0.35995316565E+02  0.00000000000E+00 0.  1.
         11    1    5    5    0    0 -0.38565607426E+03 -0.11392611708E+03 -0.60610981561E+03  0.72737808349E+03  0.00000000000E+00 0.  1.
        -11    1    5    5    0    0 -0.18519519518E+02  0.16916737446E+01 -0.46830607054E+01  0.19177210976E+02  0.00000000000E+00 0. -1.
          2    1    6    6  503    0  0.12523375070E+01  0.11678482862E+02 -0.77571833292E+02  0.78456004432E+02  0.00000000000E+00 0. -1.
         -2    1    6    6    0  503  0.29079155989E+03 -0.81145161832E+02 -0.18483149701E+04  0.18728087188E+04  0.00000000000E+00 0.  1.
<mgrwt>
<rscale>  0 0.15669780E+04</rscale>
<asrwt>0</asrwt>
<pdfrwt beam="1">  1        1 0.34898155E-01 0.15669780E+04</pdfrwt>
<pdfrwt beam="2">  1       -2 0.41632898E+00 0.15669780E+04</pdfrwt>
<totfact> 0.61967184E-01</totfact>
</mgrwt>
</event>
<event>
12    4  0.4320235E-008  0.4029382E+04  0.7818608E-02  0.7998645E-01
          1   -1    0    0  501    0  0.00000000000E+00  0.00000000000E+00  0.17787037722E+04  0.17787037722E+04  0.00000000000E+00 0. -1.
         -2   -1    0    0    0  501 -0.00000000000E+00 -0.00000000000E+00 -0.22819875088E+04  0.22819875088E+04  0.00000000000E+00 0.  1.
        -24    2    1    2    0    0  0.11502774926E+04 -0.15365861550E+03 -0.17746723426E+04  0.21218928745E+04  0.78855356329E+02 0.  0.
        254    2    1    2    0    0 -0.11502774926E+04  0.15365861550E+03  0.12713886060E+04  0.19387984065E+04  0.89205436683E+03 0.  0.
         23    2    4    4    0    0 -0.72788180530E+02  0.33004017463E+03  0.18414511619E+03  0.39552614254E+03  0.91142029387E+02 0.  0.
         23    2    4    4    0    0 -0.10774893120E+04 -0.17638155913E+03  0.10872434899E+04  0.15432722640E+04  0.86586387296E+02 0.  0.
          3    1    3    3  502    0  0.39106118637E+02 -0.77631116838E+01 -0.90813455128E+02  0.99179826830E+02  0.00000000000E+00 0. -1.
         -4    1    3    3    0  502  0.11111713739E+04 -0.14589550382E+03 -0.16838588875E+04  0.20227130477E+04  0.00000000000E+00 0.  1.
         11    1    5    5    0    0  0.61611523549E+01  0.17293696821E+03  0.75165775627E+02  0.18866650100E+03  0.00000000000E+00 0.  1.
        -11    1    5    5    0    0 -0.78949332885E+02  0.15710320642E+03  0.10897934056E+03  0.20685964154E+03  0.00000000000E+00 0. -1.
          4    1    6    6  503    0 -0.22370317495E+03 -0.50288926725E+01  0.20061294250E+03  0.30052279937E+03  0.00000000000E+00 0. -1.
         -4    1    6    6    0  503 -0.85378613710E+03 -0.17135266645E+03  0.88663054736E+03  0.12427494646E+04  0.00000000000E+00 0.  1.
<mgrwt>
<rscale>  0 0.40293820E+04</rscale>
<asrwt>0</asrwt>
<pdfrwt beam="1">  1        1 0.27364674E+00 0.40293820E+04</pdfrwt>
<pdfrwt beam="2">  1       -2 0.35107500E+00 0.40293820E+04</pdfrwt>
<totfact> 0.44242200E-02</totfact>
</mgrwt>
</event>
<event>
12    4  0.4320235E-008  0.4161917E+04  0.7818608E-02  0.7972656E-01
         -2   -1    0    0    0  501 -0.00000000000E+00  0.00000000000E+00  0.34124045948E+04  0.34124045948E+04  0.00000000000E+00 0.  1.
          1   -1    0    0  501    0  0.00000000000E+00 -0.00000000000E+00 -0.12690138841E+04  0.12690138841E+04  0.00000000000E+00 0. -1.
        -24    2    1    2    0    0  0.28917155834E+03 -0.17582257503E+04  0.20053522320E+04  0.26836789762E+04  0.75612789419E+02 0.  0.
        254    2    1    2    0    0 -0.28917155834E+03  0.17582257503E+04  0.13803847878E+03  0.19977395027E+04  0.89270965048E+03 0.  0.
         23    2    4    4    0    0  0.27751460423E+03  0.27785074259E+03  0.66542451433E+02  0.40841777340E+03  0.90342620431E+02 0.  0.
         23    2    4    4    0    0 -0.56668616258E+03  0.14803750077E+04  0.71496027345E+02  0.15893217293E+04  0.90490370539E+02 0.  0.
          3    1    3    3  502    0  0.97290770628E+02 -0.43341226820E+03  0.46948706961E+03  0.64632019681E+03  0.00000000000E+00 0. -1.
         -4    1    3    3    0  502  0.19188078772E+03 -0.13248134821E+04  0.15358651624E+04  0.20373587794E+04  0.00000000000E+00 0.  1.
         11    1    5    5    0    0  0.20959417868E+03  0.25738676422E+03  0.58176232298E+02  0.33698982201E+03  0.00000000000E+00 0.  1.
        -11    1    5    5    0    0  0.67920425552E+02  0.20463978376E+02  0.83662191351E+01  0.71427951396E+02  0.00000000000E+00 0. -1.
          2    1    6    6  503    0 -0.49715465668E+03  0.12652175962E+04  0.90585604717E+02  0.13624037838E+04  0.00000000000E+00 0.  1.
         -2    1    6    6    0  503 -0.69531505895E+02  0.21515741146E+03 -0.19089577373E+02  0.22691794548E+03  0.00000000000E+00 0. -1.
<mgrwt>
<rscale>  0 0.41619173E+04</rscale>
<asrwt>0</asrwt>
<pdfrwt beam="1">  1        1 0.19523291E+00 0.41619173E+04</pdfrwt>
<pdfrwt beam="2">  1       -2 0.52498532E+00 0.41619173E+04</pdfrwt>
<totfact> 0.75617120E-03</totfact>
</mgrwt>
</event>
<event>
12    4  0.4320235E-008  0.1134450E+04  0.7818608E-02  0.9172250E-01
          1   -1    0    0  501    0  0.00000000000E+00  0.00000000000E+00  0.10263277971E+04  0.10263277971E+04  0.00000000000E+00 0. -1.
         -2   -1    0    0    0  501 -0.00000000000E+00 -0.00000000000E+00 -0.31349081745E+03  0.31349081745E+03  0.00000000000E+00 0.  1.
        -24    2    1    2    0    0 -0.16688574664E+03  0.13328483471E+03  0.15559348746E+03  0.27557937310E+03  0.78223768387E+02 0.  0.
        254    2    1    2    0    0  0.16688574664E+03 -0.13328483471E+03  0.55724349215E+03  0.10642392414E+04  0.88117487130E+03 0.  0.
         23    2    4    4    0    0 -0.35455875118E+03 -0.72125782510E+02  0.25089019212E+03  0.44969110716E+03  0.91444884057E+02 0.  0.
         23    2    4    4    0    0  0.52144449782E+03 -0.61159052197E+02  0.30635330004E+03  0.61454813425E+03  0.90400613332E+02 0.  0.
          3    1    3    3  502    0 -0.10653843424E+02 -0.99907896116E+01  0.16510876138E+02  0.22043803837E+02  0.00000000000E+00 0. -1.
         -4    1    3    3    0  502 -0.15623190322E+03  0.14327562432E+03  0.13908261133E+03  0.25353556926E+03  0.00000000000E+00 0.  1.
         11    1    5    5    0    0 -0.29202411391E+03 -0.61034915936E+02  0.24475216331E+03  0.38588465313E+03  0.00000000000E+00 0.  1.
        -11    1    5    5    0    0 -0.62534637263E+02 -0.11090866574E+02  0.61380288018E+01  0.63806454035E+02  0.00000000000E+00 0. -1.
          4    1    6    6  503    0  0.20845757536E+03  0.19929495932E+02  0.12276778344E+03  0.24274199098E+03  0.00000000000E+00 0. -1.
         -4    1    6    6    0  503  0.31298692246E+03 -0.81088548130E+02  0.18358551659E+03  0.37180614327E+03  0.00000000000E+00 0.  1.
<mgrwt>
<rscale>  0 0.11344502E+04</rscale>
<asrwt>0</asrwt>
<pdfrwt beam="1">  1        1 0.15789658E+00 0.11344502E+04</pdfrwt>
<pdfrwt beam="2">  1       -2 0.48229357E-01 0.11344502E+04</pdfrwt>
<totfact> 0.51227297E+01</totfact>
</mgrwt>
</event>
<event>
12    4  0.4320235E-008  0.1893455E+04  0.7818608E-02  0.8658121E-01
         -2   -1    0    0    0  501 -0.00000000000E+00  0.00000000000E+00  0.67986576356E+03  0.67986576356E+03  0.00000000000E+00 0.  1.
          1   -1    0    0  501    0  0.00000000000E+00 -0.00000000000E+00 -0.13183376874E+04  0.13183376874E+04  0.00000000000E+00 0. -1.
        -24    2    1    2    0    0  0.77147378225E+02 -0.35537232864E+02  0.51830164735E+03  0.53204961259E+03  0.85003410074E+02 0.  0.
        254    2    1    2    0    0 -0.77147378225E+02  0.35537232864E+02 -0.11567735711E+04  0.14661538383E+04  0.89680955050E+03 0.  0.
         23    2    4    4    0    0 -0.22175719070E+03  0.37236198008E+03 -0.91691778295E+03  0.10181791355E+04  0.90115678310E+02 0.  0.
         23    2    4    4    0    0  0.14460981247E+03 -0.33682474721E+03 -0.23985578819E+03  0.44797470281E+03  0.93742343850E+02 0.  0.
          3    1    3    3  502    0  0.80404127559E+02 -0.37099679667E+02  0.27888306440E+03  0.29260378256E+03  0.00000000000E+00 0. -1.
         -4    1    3    3    0  502 -0.32567493343E+01  0.15624468030E+01  0.23941858294E+03  0.23944583002E+03  0.00000000000E+00 0.  1.
         11    1    5    5    0    0 -0.11139277121E+02 -0.26198537102E+01 -0.14145262391E+02  0.18194383099E+02  0.00000000000E+00 0.  1.
        -11    1    5    5    0    0 -0.21061791358E+03  0.37498183379E+03 -0.90277252056E+03  0.99998475242E+03  0.00000000000E+00 0. -1.
          1    1    6    6  503    0  0.48953228839E+02 -0.14582885921E+03 -0.48781471093E+02  0.16137566952E+03  0.00000000000E+00 0. -1.
         -1    1    6    6    0  503  0.95656583633E+02 -0.19099588801E+03 -0.19107431710E+03  0.28659903329E+03  0.00000000000E+00 0.  1.
<mgrwt>
<rscale>  0 0.18934547E+04</rscale>
<asrwt>0</asrwt>
<pdfrwt beam="1">  1        1 0.20282118E+00 0.18934547E+04</pdfrwt>
<pdfrwt beam="2">  1       -2 0.10459473E+00 0.18934547E+04</pdfrwt>
<totfact> 0.53487084E+00</totfact>
</mgrwt>
</event>
<event>
12    4  0.4320235E-008  0.1726436E+04  0.7818608E-02  0.8746429E-01
         -4   -1    0    0    0  501 -0.00000000000E+00  0.00000000000E+00  0.11175714344E+04  0.11175714344E+04  0.00000000000E+00 0.  1.
          1   -1    0    0  501    0  0.00000000000E+00 -0.00000000000E+00 -0.66675433293E+03  0.66675433293E+03  0.00000000000E+00 0. -1.
        -24    2    1    2    0    0  0.41210591761E+01 -0.50534240053E+03  0.53980728594E+03  0.74333415107E+03  0.75933058043E+02 0.  0.
        254    2    1    2    0    0 -0.41210591761E+01  0.50534240053E+03 -0.88990184472E+02  0.10409916163E+04  0.90573526335E+03 0.  0.
         23    2    4    4    0    0  0.17622925449E+03 -0.19890789073E+03 -0.12867154517E+03  0.30746764997E+03  0.85783973511E+02 0.  0.
         23    2    4    4    0    0 -0.18035031367E+03  0.70425029126E+03  0.39681360696E+02  0.73352396628E+03  0.89376117304E+02 0.  0.
          3    1    3    3  502    0  0.18105897656E+01 -0.13602218937E+03  0.98932021062E+02  0.16820481274E+03  0.00000000000E+00 0. -1.
         -4    1    3    3    0  502  0.23104694105E+01 -0.36932021115E+03  0.44087526487E+03  0.57512933833E+03  0.00000000000E+00 0.  1.
         11    1    5    5    0    0  0.94826905923E+02 -0.14048864630E+03 -0.11838226067E+03  0.20674516069E+03  0.00000000000E+00 0. -1.
        -11    1    5    5    0    0  0.81402348567E+02 -0.58419244427E+02 -0.10289284493E+02  0.10072248928E+03  0.00000000000E+00 0.  1.
          2    1    6    6  503    0 -0.99943552863E+02  0.42594886286E+03 -0.19109788929E+02  0.43793416351E+03  0.00000000000E+00 0.  1.
         -2    1    6    6    0  503 -0.80406760803E+02  0.27830142839E+03  0.58791149625E+02  0.29558980277E+03  0.00000000000E+00 0. -1.
<mgrwt>
<rscale>  0 0.17264363E+04</rscale>
<asrwt>0</asrwt>
<pdfrwt beam="1">  1        1 0.10257759E+00 0.17264363E+04</pdfrwt>
<pdfrwt beam="2">  1       -4 0.17193407E+00 0.17264363E+04</pdfrwt>
<totfact> 0.27429221E+00</totfact>
</mgrwt>
</event>
<event>
12    4  0.4320235E-008  0.1607591E+04  0.7818608E-02  0.8815898E-01
          1   -1    0    0  501    0  0.00000000000E+00  0.00000000000E+00  0.81394456895E+03  0.81394456895E+03  0.00000000000E+00 0. -1.
         -2   -1    0    0    0  501 -0.00000000000E+00 -0.00000000000E+00 -0.79377325724E+03  0.79377325724E+03  0.00000000000E+00 0.  1.
        -24    2    1    2    0    0  0.19688179650E+03  0.56204080245E+02  0.52084492479E+03  0.56443213208E+03  0.73367946761E+02 0.  0.
        254    2    1    2    0    0 -0.19688179650E+03 -0.56204080245E+02 -0.50067361308E+03  0.10432856941E+04  0.89210404791E+03 0.  0.
         23    2    4    4    0    0 -0.50976871782E+03 -0.20449069880E+03 -0.31951824783E+03  0.64238158017E+03  0.94242200083E+02 0.  0.
         23    2    4    4    0    0  0.31288692132E+03  0.14828661856E+03 -0.18115536524E+03  0.40090411395E+03  0.89552752324E+02 0.  0.
          3    1    3    3  502    0  0.19552431239E+03  0.66942507920E+02  0.49409327785E+03  0.53557373285E+03  0.00000000000E+00 0. -1.
         -4    1    3    3    0  502  0.13574841158E+01 -0.10738427675E+02  0.26751646934E+02  0.28858399223E+02  0.00000000000E+00 0.  1.
         11    1    5    5    0    0 -0.51230028180E+03 -0.19791763736E+03 -0.31036647724E+03  0.63083303663E+03  0.00000000000E+00 0.  1.
        -11    1    5    5    0    0  0.25315639778E+01 -0.65730614386E+01 -0.91517705943E+01  0.11548543539E+02  0.00000000000E+00 0. -1.
          3    1    6    6  503    0  0.13262520630E+03  0.81621251574E+02 -0.12776173503E+03  0.20143121653E+03  0.00000000000E+00 0. -1.
         -3    1    6    6    0  503  0.18026171502E+03  0.66665366983E+02 -0.53393630211E+02  0.19947289742E+03  0.00000000000E+00 0.  1.
<mgrwt>
<rscale>  0 0.16075913E+04</rscale>
<asrwt>0</asrwt>
<pdfrwt beam="1">  1        1 0.12522224E+00 0.16075913E+04</pdfrwt>
<pdfrwt beam="2">  1       -2 0.12211896E+00 0.16075913E+04</pdfrwt>
<totfact> 0.91800773E+00</totfact>
</mgrwt>
</event>
<event>
12    4  0.4320235E-008  0.1667614E+04  0.7818608E-02  0.8780054E-01
         -2   -1    0    0    0  501 -0.00000000000E+00  0.00000000000E+00  0.12519892342E+04  0.12519892342E+04  0.00000000000E+00 0.  1.
          1   -1    0    0  501    0  0.00000000000E+00 -0.00000000000E+00 -0.55530337797E+03  0.55530337797E+03  0.00000000000E+00 0. -1.
        -24    2    1    2    0    0  0.34333439173E+03  0.46661278307E+03  0.40976360156E+03  0.71381118464E+03  0.77551301036E+02 0.  0.
        254    2    1    2    0    0 -0.34333439173E+03 -0.46661278307E+03  0.28692225470E+03  0.10934814276E+04  0.88191340749E+03 0.  0.
         23    2    4    4    0    0 -0.37786182140E+03  0.82899615835E+01  0.43666235062E+03  0.58614998717E+03  0.10024729161E+03 0.  0.
         23    2    4    4    0    0  0.34527429671E+02 -0.47490274465E+03 -0.14974009593E+03  0.50733144038E+03  0.90765267578E+02 0.  0.
          1    1    3    3  502    0  0.49847393310E+02  0.11482314397E+03  0.69862533257E+02  0.14335233017E+03  0.00000000000E+00 0. -1.
         -2    1    3    3    0  502  0.29348699842E+03  0.35178963909E+03  0.33990106830E+03  0.57045885447E+03  0.00000000000E+00 0.  1.
         11    1    5    5    0    0 -0.13482976335E+03 -0.39532173227E+02  0.12510585206E+03  0.18813115644E+03  0.00000000000E+00 0. -1.
        -11    1    5    5    0    0 -0.24303205805E+03  0.47822134811E+02  0.31155649857E+03  0.39801883073E+03  0.00000000000E+00 0.  1.
          1    1    6    6  503    0  0.13113432275E+02 -0.17738935047E+02 -0.24231359524E+02  0.32768745887E+02  0.00000000000E+00 0. -1.
         -1    1    6    6    0  503  0.21413997397E+02 -0.45716380960E+03 -0.12550873640E+03  0.47456269450E+03  0.00000000000E+00 0.  1.
<mgrwt>
<rscale>  0 0.16676137E+04</rscale>
<asrwt>0</asrwt>
<pdfrwt beam="1">  1        1 0.85431289E-01 0.16676137E+04</pdfrwt>
<pdfrwt beam="2">  1       -2 0.19261373E+00 0.16676137E+04</pdfrwt>
<totfact> 0.47525935E+00</totfact>
</mgrwt>
</event>
<event>
12    4  0.4320235E-008  0.1460049E+04  0.7818608E-02  0.8911463E-01
          1   -1    0    0  501    0  0.00000000000E+00  0.00000000000E+00  0.81680685849E+03  0.81680685849E+03  0.00000000000E+00 0. -1.
         -2   -1    0    0    0  501 -0.00000000000E+00 -0.00000000000E+00 -0.65246268341E+03  0.65246268341E+03  0.00000000000E+00 0.  1.
        -24    2    1    2    0    0  0.17759066407E+03  0.31559154959E+03  0.31720406087E+03  0.48750380735E+03  0.76844491085E+02 0.  0.
        254    2    1    2    0    0 -0.17759066407E+03 -0.31559154959E+03 -0.15285988579E+03  0.98176573454E+03  0.89964512042E+03 0.  0.
         23    2    4    4    0    0  0.23251765526E+03 -0.44056575626E+03 -0.19596716791E+03  0.54139628218E+03  0.80895969405E+02 0.  0.
         23    2    4    4    0    0 -0.41010831933E+03  0.12497420667E+03  0.43107282117E+02  0.44036945236E+03  0.90882511424E+02 0.  0.
          1    1    3    3  502    0  0.48434995095E+02  0.10231521247E+03  0.14734362943E+03  0.18580768710E+03  0.00000000000E+00 0. -1.
         -2    1    3    3    0  502  0.12915566897E+03  0.21327633712E+03  0.16986043144E+03  0.30169612025E+03  0.00000000000E+00 0.  1.
         11    1    5    5    0    0  0.14444022484E+03 -0.21389925562E+03 -0.69475175423E+02  0.26728761683E+03  0.00000000000E+00 0.  1.
        -11    1    5    5    0    0  0.88077430416E+02 -0.22666650064E+03 -0.12649199249E+03  0.27410866536E+03  0.00000000000E+00 0. -1.
          1    1    6    6  503    0 -0.18690003065E+03  0.39331694028E+02  0.61336586976E+02  0.20060104814E+03  0.00000000000E+00 0. -1.
         -1    1    6    6    0  503 -0.22320828867E+03  0.85642512642E+02 -0.18229304859E+02  0.23976840422E+03  0.00000000000E+00 0.  1.
<mgrwt>
<rscale>  0 0.14600493E+04</rscale>
<asrwt>0</asrwt>
<pdfrwt beam="1">  1        1 0.12566259E+00 0.14600493E+04</pdfrwt>
<pdfrwt beam="2">  1       -2 0.10037887E+00 0.14600493E+04</pdfrwt>
<totfact> 0.14880133E+01</totfact>
</mgrwt>
</event>
<event>
12    4  0.4320235E-008  0.3069410E+04  0.7818608E-02  0.8224184E-01
          1   -1    0    0  501    0  0.00000000000E+00  0.00000000000E+00  0.36810800318E+04  0.36810800318E+04  0.00000000000E+00 0. -1.
         -2   -1    0    0    0  501 -0.00000000000E+00 -0.00000000000E+00 -0.63984450615E+03  0.63984450615E+03  0.00000000000E+00 0.  1.
        -24    2    1    2    0    0 -0.13691782281E+04 -0.31259881098E+03  0.13335602548E+04  0.19383019137E+04  0.79147448826E+02 0.  0.
        254    2    1    2    0    0  0.13691782281E+04  0.31259881098E+03  0.17076752709E+04  0.23826226242E+04  0.88790129064E+03 0.  0.
         23    2    4    4    0    0  0.28182994598E+03  0.94452342477E+02  0.10388207553E+04  0.10843568485E+04  0.91278966282E+02 0.  0.
         23    2    4    4    0    0  0.10873482821E+04  0.21814646850E+03  0.66885451554E+03  0.12982657758E+04  0.90628324769E+02 0.  0.
          3    1    3    3  502    0 -0.43668279868E+03 -0.96865900063E+02  0.37480966731E+03  0.58357275122E+03  0.00000000000E+00 0. -1.
         -4    1    3    3    0  502 -0.93249542942E+03 -0.21573291092E+03  0.95875058745E+03  0.13547291625E+04  0.00000000000E+00 0.  1.
         11    1    5    5    0    0  0.98244076026E+02  0.59989187932E+02  0.52938250224E+03  0.54175311242E+03  0.00000000000E+00 0.  1.
        -11    1    5    5    0    0  0.18358586996E+03  0.34463154545E+02  0.50943825309E+03  0.54260373606E+03  0.00000000000E+00 0. -1.
          1    1    6    6  503    0  0.77791360593E+03  0.13736033536E+03  0.51822144266E+03  0.94475970683E+03  0.00000000000E+00 0. -1.
         -1    1    6    6    0  503  0.30943467618E+03  0.80786133145E+02  0.15063307288E+03  0.35350606894E+03  0.00000000000E+00 0.  1.
<mgrwt>
<rscale>  0 0.30694096E+04</rscale>
<asrwt>0</asrwt>
<pdfrwt beam="1">  1        1 0.56631999E+00 0.30694096E+04</pdfrwt>
<pdfrwt beam="2">  1       -2 0.98437619E-01 0.30694096E+04</pdfrwt>
<totfact> 0.11405653E-01</totfact>
</mgrwt>
</event>
<event>
12    4  0.4320235E-008  0.1713482E+04  0.7818608E-02  0.8753712E-01
         -2   -1    0    0    0  501 -0.00000000000E+00  0.00000000000E+00  0.80316914084E+03  0.80316914084E+03  0.00000000000E+00 0.  1.
          1   -1    0    0  501    0  0.00000000000E+00 -0.00000000000E+00 -0.91388638771E+03  0.91388638771E+03  0.00000000000E+00 0. -1.
        -24    2    1    2    0    0 -0.40049120254E+03  0.11633665287E+02  0.41543190708E+03  0.58262688527E+03  0.79635874708E+02 0.  0.
        254    2    1    2    0    0  0.40049120254E+03 -0.11633665287E+02 -0.52614915395E+03  0.11344286433E+04  0.92171951754E+03 0.  0.
         23    2    4    4    0    0  0.16823393033E+02 -0.39750362869E+03 -0.56693922258E+02  0.40975333605E+03  0.79946445874E+02 0.  0.
         23    2    4    4    0    0  0.38366780951E+03  0.38586996340E+03 -0.46945523169E+03  0.72467530723E+03  0.93109986802E+02 0.  0.
          3    1    3    3  502    0  0.20948375671E+00  0.32803944855E+01  0.17633456500E+02  0.17937214376E+02  0.00000000000E+00 0. -1.
         -4    1    3    3    0  502 -0.40070068630E+03  0.83532708017E+01  0.39779845058E+03  0.56468967089E+03  0.00000000000E+00 0.  1.
         11    1    5    5    0    0  0.29226730157E+01 -0.95287893052E+02  0.20528759901E+02  0.97517970461E+02  0.00000000000E+00 0. -1.
        -11    1    5    5    0    0  0.13900720017E+02 -0.30221573564E+03 -0.77222682159E+02  0.31223536559E+03  0.00000000000E+00 0.  1.
          2    1    6    6  503    0  0.17170968514E+03  0.11223415884E+03 -0.19366036582E+03  0.28210824105E+03  0.00000000000E+00 0. -1.
         -2    1    6    6    0  503  0.21195812437E+03  0.27363580457E+03 -0.27579486587E+03  0.44256706618E+03  0.00000000000E+00 0.  1.
<mgrwt>
<rscale>  0 0.17134822E+04</rscale>
<asrwt>0</asrwt>
<pdfrwt beam="1">  1        1 0.14059791E+00 0.17134822E+04</pdfrwt>
<pdfrwt beam="2">  1       -2 0.12356448E+00 0.17134822E+04</pdfrwt>
<totfact> 0.72878252E+00</totfact>
</mgrwt>
</event>
<event>
12    4  0.4607755E-008  0.1568587E+04  0.7818608E-02  0.8840082E-01
         -2   -1    0    0    0  501 -0.00000000000E+00  0.00000000000E+00  0.62238223924E+03  0.62238223924E+03  0.00000000000E+00 0.  1.
          1   -1    0    0  501    0  0.00000000000E+00 -0.00000000000E+00 -0.98832576215E+03  0.98832576215E+03  0.00000000000E+00 0. -1.
        -24    2    1    2    0    0 -0.19623431729E+03  0.18542667717E+03 -0.58157521981E+03  0.64603599918E+03  0.79005164671E+02 0.  0.
        254    2    1    2    0    0  0.19623431729E+03 -0.18542667717E+03  0.21563169691E+03  0.96467200221E+03  0.90066868673E+03 0.  0.
         23    2    4    4    0    0  0.25469360556E+02  0.88622282655E+02 -0.31293352213E+03  0.33854527009E+03  0.90459456750E+02 0.  0.
         23    2    4    4    0    0  0.17076495674E+03 -0.27404895982E+03  0.52856521904E+03  0.62612673213E+03  0.91596894459E+02 0.  0.
          3    1    3    3  502    0 -0.17613923398E+03  0.13530079770E+03 -0.41180213459E+03  0.46788068315E+03  0.00000000000E+00 0. -1.
         -4    1    3    3    0  502 -0.20095083314E+02  0.50125879462E+02 -0.16977308522E+03  0.17815531603E+03  0.00000000000E+00 0.  1.
         11    1    5    5    0    0  0.45062230947E+02  0.94576953923E+02 -0.28685948613E+03  0.30539117481E+03  0.00000000000E+00 0. -1.
        -11    1    5    5    0    0 -0.19592870391E+02 -0.59546712686E+01 -0.26074036003E+02  0.33154095276E+02  0.00000000000E+00 0.  1.
          3    1    6    6  503    0  0.13901696013E+03 -0.26660631769E+03  0.45159013663E+03  0.54252953407E+03  0.00000000000E+00 0. -1.
         -3    1    6    6    0  503  0.31747996609E+02 -0.74426421276E+01  0.76975082412E+02  0.83597198056E+02  0.00000000000E+00 0.  1.
<mgrwt>
<rscale>  0 0.15685871E+04</rscale>
<asrwt>0</asrwt>
<pdfrwt beam="1">  1        1 0.15205012E+00 0.15685871E+04</pdfrwt>
<pdfrwt beam="2">  1       -2 0.95751115E-01 0.15685871E+04</pdfrwt>
<totfact> 0.11924463E+01</totfact>
</mgrwt>
</event>
<event>
12    4  0.4320235E-008  0.1830291E+04  0.7818608E-02  0.8690355E-01
         -2   -1    0    0    0  501 -0.00000000000E+00  0.00000000000E+00  0.46374126068E+03  0.46374126068E+03  0.00000000000E+00 0.  1.
          1   -1    0    0  501    0  0.00000000000E+00 -0.00000000000E+00 -0.18059442808E+04  0.18059442808E+04  0.00000000000E+00 0. -1.
        -24    2    1    2    0    0  0.25041882004E+03 -0.49366503370E+02  0.28771827896E+03  0.39243490549E+03  0.77953254665E+02 0.  0.
        254    2    1    2    0    0 -0.25041882004E+03  0.49366503370E+02 -0.16299212991E+04  0.18772506360E+04  0.89570077151E+03 0.  0.
         23    2    4    4    0    0  0.27384134121E+03 -0.81200164254E+00 -0.10441619247E+04  0.10830309904E+04  0.87705540257E+02 0.  0.
         23    2    4    4    0    0 -0.52426016125E+03  0.50178505013E+02 -0.58575937442E+03  0.79421964558E+03  0.10150961369E+03 0.  0.
          3    1    3    3  502    0  0.60240328698E+02  0.17675291344E+02  0.47046317919E+02  0.78451699506E+02  0.00000000000E+00 0. -1.
         -4    1    3    3    0  502  0.19017849134E+03 -0.67041794714E+02  0.24067196104E+03  0.31398320598E+03  0.00000000000E+00 0.  1.
         11    1    5    5    0    0  0.24629595929E+03  0.20871440650E+02 -0.97004448952E+03  0.10010412720E+04  0.00000000000E+00 0. -1.
        -11    1    5    5    0    0  0.27545381918E+02 -0.21683442293E+02 -0.74117435163E+02  0.81989718440E+02  0.00000000000E+00 0.  1.
          4    1    6    6  503    0 -0.11171586459E+03  0.28067455014E+02 -0.75708363536E+02  0.13784038864E+03  0.00000000000E+00 0. -1.
         -4    1    6    6    0  503 -0.41254429666E+03  0.22111049999E+02 -0.51005101088E+03  0.65637925694E+03  0.00000000000E+00 0.  1.
<mgrwt>
<rscale>  0 0.18302906E+04</rscale>
<asrwt>0</asrwt>
<pdfrwt beam="1">  1        1 0.27783758E+00 0.18302906E+04</pdfrwt>
<pdfrwt beam="2">  1       -2 0.71344811E-01 0.18302906E+04</pdfrwt>
<totfact> 0.59464143E+00</totfact>
</mgrwt>
</event>
<event>
12    4  0.4320235E-008  0.1000542E+04  0.7818608E-02  0.9307950E-01
         -2   -1    0    0    0  501 -0.00000000000E+00  0.00000000000E+00  0.21430930882E+03  0.21430930882E+03  0.00000000000E+00 0.  1.
          1   -1    0    0  501    0  0.00000000000E+00 -0.00000000000E+00 -0.11678035175E+04  0.11678035175E+04  0.00000000000E+00 0. -1.
        -24    2    1    2    0    0 -0.53384331563E+01  0.28642888209E+02 -0.19865584773E+02  0.87154209005E+02  0.79701322294E+02 0.  0.
        254    2    1    2    0    0  0.53384331563E+01 -0.28642888209E+02 -0.93362862390E+03  0.12949586173E+04  0.89688711624E+03 0.  0.
         23    2    4    4    0    0 -0.16669242937E+03  0.35323130916E+03 -0.70053101697E+03  0.80705272440E+03  0.89619587362E+02 0.  0.
         23    2    4    4    0    0  0.17203086253E+03 -0.38187419737E+03 -0.23309760692E+03  0.48790589291E+03  0.91077690513E+02 0.  0.
          1    1    3    3  502    0  0.33681328607E+01  0.24449020824E+02 -0.49864112711E+02  0.55637475452E+02  0.00000000000E+00 0. -1.
         -2    1    3    3    0  502 -0.87065660170E+01  0.41938673846E+01  0.29998527937E+02  0.31516733553E+02  0.00000000000E+00 0.  1.
         11    1    5    5    0    0 -0.99619780389E+02  0.23373416837E+03 -0.36603490156E+03  0.44557525882E+03  0.00000000000E+00 0. -1.
        -11    1    5    5    0    0 -0.67072648983E+02  0.11949714079E+03 -0.33449611541E+03  0.36147746558E+03  0.00000000000E+00 0.  1.
          1    1    6    6  503    0  0.71465899171E+02 -0.24526418231E+03 -0.17028622273E+03  0.30701676097E+03  0.00000000000E+00 0. -1.
         -1    1    6    6    0  503  0.10056496336E+03 -0.13661001506E+03 -0.62811384195E+02  0.18088913194E+03  0.00000000000E+00 0.  1.
<mgrwt>
<rscale>  0 0.10005422E+04</rscale>
<asrwt>0</asrwt>
<pdfrwt beam="1">  1        1 0.17966208E+00 0.10005422E+04</pdfrwt>
<pdfrwt beam="2">  1       -2 0.32970664E-01 0.10005422E+04</pdfrwt>
<totfact> 0.85119066E+01</totfact>
</mgrwt>
</event>
<event>
12    4  0.4320235E-008  0.2560046E+04  0.7818608E-02  0.8381901E-01
         -2   -1    0    0    0  501 -0.00000000000E+00  0.00000000000E+00  0.20195724587E+04  0.20195724587E+04  0.00000000000E+00 0.  1.
          1   -1    0    0  501    0  0.00000000000E+00 -0.00000000000E+00 -0.81128976360E+03  0.81128976360E+03  0.00000000000E+00 0. -1.
        -24    2    1    2    0    0  0.48086065191E+02 -0.34647651030E+03  0.16186746847E+04  0.16580159355E+04  0.80937419146E+02 0.  0.
        254    2    1    2    0    0 -0.48086065191E+02  0.34647651030E+03 -0.41039198959E+03  0.11728462868E+04  0.10415318456E+04 0.  0.
         23    2    4    4    0    0 -0.88226819115E+02 -0.25096167152E+03  0.17611249379E+03  0.32973985790E+03  0.83348852613E+02 0.  0.
         23    2    4    4    0    0  0.40140753924E+02  0.59743818183E+03 -0.58650448338E+03  0.84310642887E+03  0.91089407412E+02 0.  0.
          3    1    3    3  502    0  0.19170289044E+02 -0.49862690855E+02  0.14544621116E+03  0.15494640448E+03  0.00000000000E+00 0. -1.
         -4    1    3    3    0  502  0.28915776147E+02 -0.29661381945E+03  0.14732284735E+04  0.15030695310E+04  0.00000000000E+00 0.  1.
         11    1    5    5    0    0 -0.34069688635E+02 -0.17743999827E+03  0.81381128658E+02  0.19816302574E+03  0.00000000000E+00 0. -1.
        -11    1    5    5    0    0 -0.54157130480E+02 -0.73521673253E+02  0.94731365136E+02  0.13157683216E+03  0.00000000000E+00 0.  1.
          1    1    6    6  503    0  0.20118462133E+02  0.28687348497E+03 -0.21860087789E+03  0.36123052572E+03  0.00000000000E+00 0. -1.
         -1    1    6    6    0  503  0.20022291791E+02  0.31056469686E+03 -0.36790360549E+03  0.48187590315E+03  0.00000000000E+00 0.  1.
<mgrwt>
<rscale>  0 0.25600457E+04</rscale>
<asrwt>0</asrwt>
<pdfrwt beam="1">  1        1 0.12481381E+00 0.25600457E+04</pdfrwt>
<pdfrwt beam="2">  1       -2 0.31070345E+00 0.25600457E+04</pdfrwt>
<totfact> 0.45774225E-01</totfact>
</mgrwt>
</event>
<event>
12    4  0.4320235E-008  0.1712312E+04  0.7818608E-02  0.8754373E-01
          1   -1    0    0  501    0  0.00000000000E+00  0.00000000000E+00  0.10030870085E+04  0.10030870085E+04  0.00000000000E+00 0. -1.
         -2   -1    0    0    0  501 -0.00000000000E+00 -0.00000000000E+00 -0.73074749843E+03  0.73074749843E+03  0.00000000000E+00 0.  1.
        -24    2    1    2    0    0 -0.56220707017E+03  0.15070145972E+03  0.30888884731E+03  0.66379261763E+03  0.80128643536E+02 0.  0.
        254    2    1    2    0    0  0.56220707017E+03 -0.15070145972E+03 -0.36549337286E+02  0.10700418893E+04  0.89714328343E+03 0.  0.
         23    2    4    4    0    0  0.11937230857E+03 -0.15136148709E+03  0.39357312216E+03  0.44582855492E+03  0.81873378219E+02 0.  0.
         23    2    4    4    0    0  0.44283476160E+03  0.66002737256E+00 -0.43012245945E+03  0.62421333434E+03  0.92379082754E+02 0.  0.
          3    1    3    3  502    0 -0.98289303953E+01  0.10615774979E+02 -0.20588798370E+01  0.14613060504E+02  0.00000000000E+00 0. -1.
         -4    1    3    3    0  502 -0.55237813978E+03  0.14008568474E+03  0.31094772714E+03  0.64917955712E+03  0.00000000000E+00 0.  1.
         11    1    5    5    0    0  0.10343509676E+03 -0.15584321377E+03  0.32216828404E+03  0.37252963608E+03  0.00000000000E+00 0. -1.
        -11    1    5    5    0    0  0.15937211819E+02  0.44817266815E+01  0.71404838123E+02  0.73298918833E+02  0.00000000000E+00 0.  1.
          4    1    6    6  503    0  0.40741286413E+03  0.21912556201E+02 -0.40942868147E+03  0.57801145939E+03  0.00000000000E+00 0. -1.
         -4    1    6    6    0  503  0.35421897465E+02 -0.21252528829E+02 -0.20693777983E+02  0.46201874950E+02  0.00000000000E+00 0.  1.
<mgrwt>
<rscale>  0 0.17123123E+04</rscale>
<asrwt>0</asrwt>
<pdfrwt beam="1">  1        1 0.15432108E+00 0.17123123E+04</pdfrwt>
<pdfrwt beam="2">  1       -2 0.11242269E+00 0.17123123E+04</pdfrwt>
<totfact> 0.78141398E+00</totfact>
</mgrwt>
</event>
<event>
12    4  0.4320235E-008  0.1458130E+04  0.7818608E-02  0.8912783E-01
         -2   -1    0    0    0  501 -0.00000000000E+00  0.00000000000E+00  0.13528387621E+04  0.13528387621E+04  0.00000000000E+00 0.  1.
          1   -1    0    0  501    0  0.00000000000E+00 -0.00000000000E+00 -0.39290416769E+03  0.39290416769E+03  0.00000000000E+00 0. -1.
        -24    2    1    2    0    0 -0.10855562872E+03  0.29814366670E+03  0.73533077668E+03  0.80486757082E+03  0.80165359700E+02 0.  0.
        254    2    1    2    0    0  0.10855562872E+03 -0.29814366670E+03  0.22460381775E+03  0.94087535899E+03  0.85681129526E+03 0.  0.
         23    2    4    4    0    0  0.37068851010E+03 -0.41690097530E+03  0.28449427041E+03  0.63274153732E+03  0.90600598379E+02 0.  0.
         23    2    4    4    0    0 -0.26213288138E+03  0.11875730860E+03 -0.59890452659E+02  0.30813382167E+03  0.92426402570E+02 0.  0.
          1    1    3    3  502    0 -0.46605647578E+02  0.92255415260E+02  0.15803982964E+03  0.18883785580E+03  0.00000000000E+00 0. -1.
         -2    1    3    3    0  502 -0.61949981138E+02  0.20588825144E+03  0.57729094705E+03  0.61602971502E+03  0.00000000000E+00 0.  1.
         11    1    5    5    0    0  0.23555983643E+03 -0.31236102293E+03  0.22790351104E+03  0.45276688873E+03  0.00000000000E+00 0.  1.
        -11    1    5    5    0    0  0.13512867367E+03 -0.10453995237E+03  0.56590759369E+02  0.17997464859E+03  0.00000000000E+00 0. -1.
          4    1    6    6  503    0 -0.61280691588E+02 -0.12684804716E+01 -0.40251085345E+02  0.73328589757E+02  0.00000000000E+00 0. -1.
         -4    1    6    6    0  503 -0.20085218979E+03  0.12002578907E+03 -0.19639367314E+02  0.23480523192E+03  0.00000000000E+00 0.  1.
<mgrwt>
<rscale>  0 0.14581303E+04</rscale>
<asrwt>0</asrwt>
<pdfrwt beam="1">  1        1 0.60446796E-01 0.14581303E+04</pdfrwt>
<pdfrwt beam="2">  1       -2 0.20812904E+00 0.14581303E+04</pdfrwt>
<totfact> 0.61315020E+00</totfact>
</mgrwt>
</event>
<event>
12    4  0.4320235E-008  0.2184025E+04  0.7818608E-02  0.8525107E-01
         -2   -1    0    0    0  501 -0.00000000000E+00  0.00000000000E+00  0.13982839231E+04  0.13982839231E+04  0.00000000000E+00 0.  1.
          1   -1    0    0  501    0  0.00000000000E+00 -0.00000000000E+00 -0.85282455638E+03  0.85282455638E+03  0.00000000000E+00 0. -1.
        -24    2    1    2    0    0 -0.26055958985E+03  0.78642935760E+03 -0.14782966116E+03  0.84522408052E+03  0.78661955408E+02 0.  0.
        254    2    1    2    0    0  0.26055958985E+03 -0.78642935760E+03  0.69328902792E+03  0.14058843990E+04  0.89972153065E+03 0.  0.
         23    2    4    4    0    0  0.39177523786E+03 -0.88728746129E+03  0.38929943966E+03  0.10490880164E+04  0.90910595816E+02 0.  0.
         23    2    4    4    0    0 -0.13121564801E+03  0.10085810370E+03  0.30398958826E+03  0.35679638260E+03  0.86626124807E+02 0.  0.
          3    1    3    3  502    0 -0.24800779415E+03  0.72190860993E+03 -0.15565241314E+03  0.77902989722E+03  0.00000000000E+00 0. -1.
         -4    1    3    3    0  502 -0.12551795698E+02  0.64520747664E+02  0.78227519754E+01  0.66194183301E+02  0.00000000000E+00 0.  1.
         11    1    5    5    0    0  0.20758759008E+02 -0.43132901647E+02 -0.79979382153E+00  0.47874972065E+02  0.00000000000E+00 0.  1.
        -11    1    5    5    0    0  0.37101647885E+03 -0.84415455965E+03  0.39009923348E+03  0.10012130443E+04  0.00000000000E+00 0. -1.
          4    1    6    6  503    0 -0.99611049658E+02  0.41177231897E+02  0.12260572331E+03  0.16324854986E+03  0.00000000000E+00 0.  1.
         -4    1    6    6    0  503 -0.31604598355E+02  0.59680871802E+02  0.18138386495E+03  0.19354783274E+03  0.00000000000E+00 0. -1.
<mgrwt>
<rscale>  0 0.21840246E+04</rscale>
<asrwt>0</asrwt>
<pdfrwt beam="1">  1        1 0.13120378E+00 0.21840246E+04</pdfrwt>
<pdfrwt beam="2">  1       -2 0.21512060E+00 0.21840246E+04</pdfrwt>
<totfact> 0.16915802E+00</totfact>
</mgrwt>
</event>
<event>
12    4  0.4320235E-008  0.1863062E+04  0.7818608E-02  0.8673464E-01
          1   -1    0    0  501    0  0.00000000000E+00  0.00000000000E+00  0.13301844482E+04  0.13301844482E+04  0.00000000000E+00 0. -1.
         -2   -1    0    0    0  501 -0.00000000000E+00 -0.00000000000E+00 -0.65235312423E+03  0.65235312423E+03  0.00000000000E+00 0.  1.
        -24    2    1    2    0    0 -0.21414678234E+03 -0.54815505726E+03  0.67959441411E+03  0.90264954224E+03  0.81208480091E+02 0.  0.
        254    2    1    2    0    0  0.21414678234E+03  0.54815505726E+03 -0.17630901495E+01  0.10798880302E+04  0.90544035587E+03 0.  0.
         23    2    4    4    0    0  0.13607163528E+03  0.52265259539E+03  0.38795685649E+03  0.67125720948E+03  0.91621467950E+02 0.  0.
         23    2    4    4    0    0  0.78075147060E+02  0.25502461874E+02 -0.38971994664E+03  0.40863082069E+03  0.91386030971E+02 0.  0.
          3    1    3    3  502    0 -0.12049125391E+03 -0.39996861582E+03  0.45369983403E+03  0.61671433850E+03  0.00000000000E+00 0. -1.
         -4    1    3    3    0  502 -0.93655528434E+02 -0.14818644144E+03  0.22589458008E+03  0.28593520375E+03  0.00000000000E+00 0.  1.
         11    1    5    5    0    0  0.16682632128E+02  0.23994983324E+03  0.15803033093E+03  0.28779822477E+03  0.00000000000E+00 0. -1.
        -11    1    5    5    0    0  0.11938900316E+03  0.28270276215E+03  0.22992652556E+03  0.38345898472E+03  0.00000000000E+00 0.  1.
          3    1    6    6  503    0  0.51701376323E+02  0.34585283550E+02 -0.10135696534E+03  0.11892185911E+03  0.00000000000E+00 0. -1.
         -3    1    6    6    0  503  0.26373770738E+02 -0.90828216757E+01 -0.28836298130E+03  0.28970896158E+03  0.00000000000E+00 0.  1.
<mgrwt>
<rscale>  0 0.18630620E+04</rscale>
<asrwt>0</asrwt>
<pdfrwt beam="1">  1        1 0.20464376E+00 0.18630620E+04</pdfrwt>
<pdfrwt beam="2">  1       -2 0.10036202E+00 0.18630620E+04</pdfrwt>
<totfact> 0.58052051E+00</totfact>
</mgrwt>
</event>
<event>
12    4  0.4320235E-008  0.1622390E+04  0.7818608E-02  0.8806910E-01
          1   -1    0    0  501    0  0.00000000000E+00  0.00000000000E+00  0.11142112524E+04  0.11142112524E+04  0.00000000000E+00 0. -1.
         -4   -1    0    0    0  501 -0.00000000000E+00 -0.00000000000E+00 -0.59058566227E+03  0.59058566227E+03  0.00000000000E+00 0.  1.
        -24    2    1    2    0    0 -0.54508802721E+03  0.19939536198E+02  0.19171163757E+03  0.58340989232E+03  0.78071812904E+02 0.  0.
        254    2    1    2    0    0  0.54508802721E+03 -0.19939536198E+02  0.33191395260E+03  0.11213870224E+04  0.92185868740E+03 0.  0.
         23    2    4    4    0    0  0.25331956568E+03  0.31881164891E+02 -0.30767679735E+03  0.40962451451E+03  0.89106791139E+02 0.  0.
         23    2    4    4    0    0  0.29176846153E+03 -0.51820701088E+02  0.63959074995E+03  0.71176250788E+03  0.98566322813E+02 0.  0.
          3    1    3    3  502    0 -0.50750620190E+03  0.24566653154E+01  0.16322110271E+03  0.53311322301E+03  0.00000000000E+00 0. -1.
         -4    1    3    3    0  502 -0.37581825306E+02  0.17482870882E+02  0.28490534864E+02  0.50296669317E+02  0.00000000000E+00 0.  1.
         11    1    5    5    0    0  0.16237452672E+03 -0.21117625620E+02 -0.20738066528E+03  0.26423130278E+03  0.00000000000E+00 0. -1.
        -11    1    5    5    0    0  0.90945038954E+02  0.52998790511E+02 -0.10029613207E+03  0.14539321172E+03  0.00000000000E+00 0.  1.
          3    1    6    6  503    0  0.18496675705E+03  0.10959813618E+02  0.43123785279E+03  0.46936010099E+03  0.00000000000E+00 0. -1.
         -3    1    6    6    0  503  0.10680170449E+03 -0.62780514707E+02  0.20835289716E+03  0.24240240689E+03  0.00000000000E+00 0.  1.
<mgrwt>
<rscale>  0 0.16223898E+04</rscale>
<asrwt>0</asrwt>
<pdfrwt beam="1">  1        1 0.17141711E+00 0.16223898E+04</pdfrwt>
<pdfrwt beam="2">  1       -4 0.90859333E-01 0.16223898E+04</pdfrwt>
<totfact> 0.59762530E+00</totfact>
</mgrwt>
</event>
<event>
12    4  0.4320235E-008  0.2151443E+04  0.7818608E-02  0.8538915E-01
          1   -1    0    0  501    0  0.00000000000E+00  0.00000000000E+00  0.16451611607E+04  0.16451611607E+04  0.00000000000E+00 0. -1.
         -2   -1    0    0    0  501 -0.00000000000E+00 -0.00000000000E+00 -0.70338192398E+03  0.70338192398E+03  0.00000000000E+00 0.  1.
        -24    2    1    2    0    0 -0.64927770101E+03 -0.51740555159E+03  0.78671665153E+03  0.11461505782E+04  0.73946063602E+02 0.  0.
        254    2    1    2    0    0  0.64927770101E+03  0.51740555159E+03  0.15506258519E+03  0.12023925064E+04  0.85582316888E+03 0.  0.
         23    2    4    4    0    0  0.22344425849E+03  0.34033351588E+03  0.47511473747E+03  0.63343031478E+03  0.98720368913E+02 0.  0.
         23    2    4    4    0    0  0.42583344252E+03  0.17707203571E+03 -0.32005215228E+03  0.56896219167E+03  0.92714447504E+02 0.  0.
          1    1    3    3  502    0 -0.51391603725E+03 -0.42768223018E+03  0.59618808588E+03  0.89580244312E+03  0.00000000000E+00 0. -1.
         -2    1    3    3    0  502 -0.13536166376E+03 -0.89723321407E+02  0.19052856565E+03  0.25034813510E+03  0.00000000000E+00 0.  1.
         11    1    5    5    0    0  0.21892822988E+03  0.30967740259E+03  0.39527543515E+03  0.54778858435E+03  0.00000000000E+00 0. -1.
        -11    1    5    5    0    0  0.45160286136E+01  0.30656113297E+02  0.79839302314E+02  0.85641730429E+02  0.00000000000E+00 0.  1.
          4    1    6    6  503    0  0.43150485909E+02  0.32554896828E+01 -0.62506542257E+02  0.76023880933E+02  0.00000000000E+00 0. -1.
         -4    1    6    6    0  503  0.38268295661E+03  0.17381654602E+03 -0.25754561002E+03  0.49293831074E+03  0.00000000000E+00 0.  1.
<mgrwt>
<rscale>  0 0.21514429E+04</rscale>
<asrwt>0</asrwt>
<pdfrwt beam="1">  1        1 0.25310172E+00 0.21514429E+04</pdfrwt>
<pdfrwt beam="2">  1       -2 0.10821260E+00 0.21514429E+04</pdfrwt>
<totfact> 0.28554026E+00</totfact>
</mgrwt>
</event>
<event>
12    4  0.4320235E-008  0.2693858E+04  0.7818608E-02  0.8337001E-01
          1   -1    0    0  501    0  0.00000000000E+00  0.00000000000E+00  0.14857112375E+04  0.14857112375E+04  0.00000000000E+00 0. -1.
         -2   -1    0    0    0  501 -0.00000000000E+00 -0.00000000000E+00 -0.12211103327E+04  0.12211103327E+04  0.00000000000E+00 0.  1.
        -24    2    1    2    0    0 -0.23402434873E+03 -0.11728829491E+04  0.24548336742E+03  0.12234655696E+04  0.78639100960E+02 0.  0.
        254    2    1    2    0    0  0.23402434873E+03  0.11728829491E+04  0.19117537442E+02  0.14833560006E+04  0.87724439924E+03 0.  0.
         23    2    4    4    0    0  0.24545258510E+03 -0.10697354208E+02 -0.11951525643E+03  0.28790898594E+03  0.90809045511E+02 0.  0.
         23    2    4    4    0    0 -0.11428236372E+02  0.11835803033E+04  0.13863279387E+03  0.11954470146E+04  0.94242104105E+02 0.  0.
          1    1    3    3  502    0 -0.23073800177E+03 -0.10484810690E+04  0.20837454992E+03  0.10936052901E+04  0.00000000000E+00 0. -1.
         -2    1    3    3    0  502 -0.32863469597E+01 -0.12440188017E+03  0.37108817498E+02  0.12986027954E+03  0.00000000000E+00 0.  1.
         11    1    5    5    0    0  0.69556961610E+01  0.11210392869E+02 -0.29025938865E+02  0.31883534063E+02  0.00000000000E+00 0.  1.
        -11    1    5    5    0    0  0.23849688894E+03 -0.21907747077E+02 -0.90489317563E+02  0.25602545188E+03  0.00000000000E+00 0. -1.
          1    1    6    6  503    0  0.79438374275E+00  0.11207055995E+04  0.14898051380E+03  0.11305648435E+04  0.00000000000E+00 0. -1.
         -1    1    6    6    0  503 -0.12222620115E+02  0.62874703854E+02 -0.10347719932E+02  0.64882171165E+02  0.00000000000E+00 0.  1.
<mgrwt>
<rscale>  0 0.26938577E+04</rscale>
<asrwt>0</asrwt>
<pdfrwt beam="1">  1        1 0.22857096E+00 0.26938577E+04</pdfrwt>
<pdfrwt beam="2">  1       -2 0.18786313E+00 0.26938577E+04</pdfrwt>
<totfact> 0.82270599E-01</totfact>
</mgrwt>
</event>
<event>
12    4  0.4320235E-008  0.1547087E+04  0.7818608E-02  0.8853731E-01
          1   -1    0    0  501    0  0.00000000000E+00  0.00000000000E+00  0.20623201675E+04  0.20623201675E+04  0.00000000000E+00 0. -1.
         -2   -1    0    0    0  501 -0.00000000000E+00 -0.00000000000E+00 -0.29014369829E+03  0.29014369829E+03  0.00000000000E+00 0.  1.
        -24    2    1    2    0    0  0.20635063312E+03 -0.40153343760E+03  0.96764348143E+03  0.10711097549E+04  0.84454216158E+02 0.  0.
        254    2    1    2    0    0 -0.20635063312E+03  0.40153343760E+03  0.80453298778E+03  0.12813541109E+04  0.88926112236E+03 0.  0.
         23    2    4    4    0    0  0.33137783746E+03  0.26516359810E+03  0.35920492574E+03  0.56479856531E+03  0.99228200555E+02 0.  0.
         23    2    4    4    0    0 -0.53772847058E+03  0.13636983950E+03  0.44532806204E+03  0.71655554556E+03  0.85942572919E+02 0.  0.
          1    1    3    3  502    0  0.33407886416E+01 -0.40792571412E+02  0.13787709236E+03  0.14382380661E+03  0.00000000000E+00 0. -1.
         -2    1    3    3    0  502  0.20300984448E+03 -0.36074086619E+03  0.82976638908E+03  0.92728594831E+03  0.00000000000E+00 0.  1.
         11    1    5    5    0    0  0.14053721410E+03  0.16866267878E+03  0.21190939869E+03  0.30512849918E+03  0.00000000000E+00 0.  1.
        -11    1    5    5    0    0  0.19084062336E+03  0.96500919318E+02  0.14729552705E+03  0.25967006613E+03  0.00000000000E+00 0. -1.
          2    1    6    6  503    0 -0.49213584777E+03  0.10093976773E+03  0.41320709163E+03  0.65048184443E+03  0.00000000000E+00 0.  1.
         -2    1    6    6    0  503 -0.45592622813E+02  0.35430071772E+02  0.32120970409E+02  0.66073701128E+02  0.00000000000E+00 0. -1.
<mgrwt>
<rscale>  0 0.15470866E+04</rscale>
<asrwt>0</asrwt>
<pdfrwt beam="1">  1        1 0.31728002E+00 0.15470866E+04</pdfrwt>
<pdfrwt beam="2">  1       -2 0.44637493E-01 0.15470866E+04</pdfrwt>
<totfact> 0.10893128E+01</totfact>
</mgrwt>
</event>
<event>
12    4  0.4320235E-008  0.1787896E+04  0.7818608E-02  0.8712763E-01
         -2   -1    0    0    0  501 -0.00000000000E+00  0.00000000000E+00  0.11128884847E+04  0.11128884847E+04  0.00000000000E+00 0.  1.
          1   -1    0    0  501    0  0.00000000000E+00 -0.00000000000E+00 -0.71808019759E+03  0.71808019759E+03  0.00000000000E+00 0. -1.
        -24    2    1    2    0    0 -0.55814427777E+03  0.36527416349E+03  0.13635762924E+03  0.68543179209E+03  0.79202836011E+02 0.  0.
        254    2    1    2    0    0  0.55814427777E+03 -0.36527416349E+03  0.25845065784E+03  0.11455368902E+04  0.89471100076E+03 0.  0.
         23    2    4    4    0    0  0.33273152533E+03 -0.62587247893E+03  0.32109655397E+03  0.78367102393E+03  0.92793582413E+02 0.  0.
         23    2    4    4    0    0  0.22541275244E+03  0.26059831544E+03 -0.62645896124E+02  0.36186586625E+03  0.91104368064E+02 0.  0.
          1    1    3    3  502    0 -0.41565016316E+02  0.24973163211E+02 -0.10567520664E+02  0.49628438975E+02  0.00000000000E+00 0. -1.
         -2    1    3    3    0  502 -0.51657926146E+03  0.34030100028E+03  0.14692514991E+03  0.63580335312E+03  0.00000000000E+00 0.  1.
         11    1    5    5    0    0  0.27567081548E+03 -0.48617017708E+03  0.21325438362E+03  0.59819166805E+03  0.00000000000E+00 0.  1.
        -11    1    5    5    0    0  0.57060709851E+02 -0.13970230185E+03  0.10784217035E+03  0.18547935588E+03  0.00000000000E+00 0. -1.
          4    1    6    6  503    0  0.14121950452E+03  0.13874156906E+03  0.72191797673E+01  0.19810171125E+03  0.00000000000E+00 0. -1.
         -4    1    6    6    0  503  0.84193247920E+02  0.12185674638E+03 -0.69865075891E+02  0.16376415500E+03  0.00000000000E+00 0.  1.
<mgrwt>
<rscale>  0 0.17878962E+04</rscale>
<asrwt>0</asrwt>
<pdfrwt beam="1">  1        1 0.11047388E+00 0.17878962E+04</pdfrwt>
<pdfrwt beam="2">  1       -2 0.17121361E+00 0.17878962E+04</pdfrwt>
<totfact> 0.45259807E+00</totfact>
</mgrwt>
</event>
<event>
12    4  0.4320235E-008  0.1462897E+04  0.7818608E-02  0.8909508E-01
          3   -1    0    0  501    0  0.00000000000E+00  0.00000000000E+00  0.64039989624E+03  0.64039989624E+03  0.00000000000E+00 0. -1.
         -4   -1    0    0    0  501 -0.00000000000E+00 -0.00000000000E+00 -0.83544229925E+03  0.83544229925E+03  0.00000000000E+00 0.  1.
        -24    2    1    2    0    0  0.14727782191E+03  0.17843734360E+03 -0.44176244154E+03  0.50508983783E+03  0.80193809632E+02 0.  0.
        254    2    1    2    0    0 -0.14727782191E+03 -0.17843734360E+03  0.24672003853E+03  0.97075235766E+03  0.90992237035E+03 0.  0.
         23    2    4    4    0    0  0.90975672496E+02 -0.50461627886E+03  0.93699879544E+02  0.52942210307E+03  0.92703473020E+02 0.  0.
         23    2    4    4    0    0 -0.23825349441E+03  0.32617893526E+03  0.15302015899E+03  0.44133025459E+03  0.90552742384E+02 0.  0.
          1    1    3    3  502    0  0.39591683824E+02  0.30154660648E+02 -0.41243607431E+02  0.64636213849E+02  0.00000000000E+00 0. -1.
         -2    1    3    3    0  502  0.10768613809E+03  0.14828268295E+03 -0.40051883411E+03  0.44045362398E+03  0.00000000000E+00 0.  1.
         11    1    5    5    0    0  0.10423762773E+03 -0.34877254468E+03  0.53452193051E+02  0.36791970305E+03  0.00000000000E+00 0. -1.
        -11    1    5    5    0    0 -0.13261955230E+02 -0.15584373419E+03  0.40247686493E+02  0.16150240001E+03  0.00000000000E+00 0.  1.
          1    1    6    6  503    0 -0.21868390286E+03  0.30341777285E+03  0.16528235608E+03  0.40890494187E+03  0.00000000000E+00 0. -1.
         -1    1    6    6    0  503 -0.19569591542E+02  0.22761162410E+02 -0.12262197092E+02  0.32425312719E+02  0.00000000000E+00 0.  1.
<mgrwt>
<rscale>  0 0.14628973E+04</rscale>
<asrwt>0</asrwt>
<pdfrwt beam="1">  1        3 0.98523061E-01 0.14628973E+04</pdfrwt>
<pdfrwt beam="2">  1       -4 0.12852958E+00 0.14628973E+04</pdfrwt>
<totfact> 0.89433589E-01</totfact>
</mgrwt>
</event>
<event>
12    4  0.4320235E-008  0.1900473E+04  0.7818608E-02  0.8654621E-01
          1   -1    0    0  501    0  0.00000000000E+00  0.00000000000E+00  0.87894003479E+03  0.87894003479E+03  0.00000000000E+00 0. -1.
         -2   -1    0    0    0  501 -0.00000000000E+00 -0.00000000000E+00 -0.10273163382E+04  0.10273163382E+04  0.00000000000E+00 0.  1.
        -24    2    1    2    0    0  0.44439691980E+03 -0.36129797495E+03  0.40129331169E+03  0.70394502017E+03  0.80482422831E+02 0.  0.
        254    2    1    2    0    0 -0.44439691980E+03  0.36129797495E+03 -0.54966961505E+03  0.12023113528E+04  0.90299006323E+03 0.  0.
         23    2    4    4    0    0 -0.24093173748E+03  0.32170758029E+03 -0.77898658829E+03  0.88122471324E+03  0.90515308885E+02 0.  0.
         23    2    4    4    0    0 -0.20346518232E+03  0.39590394661E+02  0.22931697324E+03  0.32108663955E+03  0.86861246318E+02 0.  0.
          3    1    3    3  502    0  0.17415948797E+03 -0.19143074496E+03  0.16717833459E+03  0.30810039422E+03  0.00000000000E+00 0. -1.
         -2    1    3    3    0  502  0.27023743184E+03 -0.16986722999E+03  0.23411497709E+03  0.39584462595E+03  0.00000000000E+00 0.  1.
         11    1    5    5    0    0 -0.19062583342E+03  0.30024407990E+03 -0.69978452314E+03  0.78497330827E+03  0.00000000000E+00 0. -1.
        -11    1    5    5    0    0 -0.50305904065E+02  0.21463500386E+02 -0.79202065153E+02  0.96251404962E+02  0.00000000000E+00 0.  1.
          1    1    6    6  503    0 -0.16878729870E+03  0.34526185895E+02  0.13017344570E+03  0.21593132168E+03  0.00000000000E+00 0. -1.
         -1    1    6    6    0  503 -0.34677883620E+02  0.50642087657E+01  0.99143527543E+02  0.10515531787E+03  0.00000000000E+00 0.  1.
<mgrwt>
<rscale>  0 0.19004731E+04</rscale>
<asrwt>0</asrwt>
<pdfrwt beam="1">  1        1 0.13522154E+00 0.19004731E+04</pdfrwt>
<pdfrwt beam="2">  1       -2 0.15804867E+00 0.19004731E+04</pdfrwt>
<totfact> 0.40430391E+00</totfact>
</mgrwt>
</event>
<event>
12    4  0.4320235E-008  0.1108411E+04  0.7818608E-02  0.9197033E-01
         -2   -1    0    0    0  501 -0.00000000000E+00  0.00000000000E+00  0.10551024229E+03  0.10551024229E+03  0.00000000000E+00 0.  1.
          1   -1    0    0  501    0  0.00000000000E+00 -0.00000000000E+00 -0.29110318045E+04  0.29110318045E+04  0.00000000000E+00 0. -1.
        -24    2    1    2    0    0  0.14133322262E+03 -0.30227434997E+02 -0.22307576592E+03  0.27719477284E+03  0.78647104874E+02 0.  0.
        254    2    1    2    0    0 -0.14133322262E+03  0.30227434997E+02 -0.25824457963E+04  0.27393472740E+04  0.90227956806E+03 0.  0.
         23    2    4    4    0    0 -0.35104730137E+01  0.15620099140E+03 -0.36819132700E+02  0.18529413014E+03  0.92559132421E+02 0.  0.
         23    2    4    4    0    0 -0.13782274961E+03 -0.12597355640E+03 -0.25456266636E+04  0.25540531438E+04  0.90043899739E+02 0.  0.
          3    1    3    3  502    0  0.12387376026E+03 -0.22065032569E+02 -0.22503493226E+03  0.25782221565E+03  0.00000000000E+00 0. -1.
         -4    1    3    3    0  502  0.17459462357E+02 -0.81624024283E+01  0.19591663443E+01  0.19372557187E+02  0.00000000000E+00 0.  1.
         11    1    5    5    0    0 -0.20662237971E+02  0.66218255341E+02  0.26153669605E+02  0.74133662072E+02  0.00000000000E+00 0.  1.
        -11    1    5    5    0    0  0.17151764957E+02  0.89982736060E+02 -0.62972802305E+02  0.11116046806E+03  0.00000000000E+00 0. -1.
          4    1    6    6  503    0 -0.65117506393E+02 -0.41056438790E+01 -0.75836364654E+03  0.76116526875E+03  0.00000000000E+00 0.  1.
         -4    1    6    6    0  503 -0.72705243215E+02 -0.12186791252E+03 -0.17872630171E+04  0.17928878751E+04  0.00000000000E+00 0. -1.
<mgrwt>
<rscale>  0 0.11084109E+04</rscale>
<asrwt>0</asrwt>
<pdfrwt beam="1">  1        1 0.44785108E+00 0.11084109E+04</pdfrwt>
<pdfrwt beam="2">  1       -2 0.16232344E-01 0.11084109E+04</pdfrwt>
<totfact> 0.18905357E+01</totfact>
</mgrwt>
</event>
<event>
12    4  0.4320235E-008  0.2038638E+04  0.7818608E-02  0.8588766E-01
          3   -1    0    0  501    0  0.00000000000E+00  0.00000000000E+00  0.10277439887E+04  0.10277439887E+04  0.00000000000E+00 0. -1.
         -4   -1    0    0    0  501 -0.00000000000E+00 -0.00000000000E+00 -0.10109632028E+04  0.10109632028E+04  0.00000000000E+00 0.  1.
        -24    2    1    2    0    0  0.82893522467E+03 -0.22021638304E+03  0.16475812182E+03  0.87709688210E+03  0.80776480623E+02 0.  0.
        254    2    1    2    0    0 -0.82893522467E+03  0.22021638304E+03 -0.14797733599E+03  0.11616103094E+04  0.76929341402E+03 0.  0.
         23    2    4    4    0    0 -0.44795290239E+03  0.21802337560E+03  0.28219198149E+03  0.57983673466E+03  0.91555062047E+02 0.  0.
         23    2    4    4    0    0 -0.38098232228E+03  0.21930074383E+01 -0.43016931747E+03  0.58177357472E+03  0.90898357382E+02 0.  0.
          1    1    3    3  502    0  0.75952342927E+03 -0.20685781606E+03  0.12834258653E+03  0.79758248175E+03  0.00000000000E+00 0. -1.
         -2    1    3    3    0  502  0.69411795397E+02 -0.13358566980E+02  0.36415535289E+02  0.79514400346E+02  0.00000000000E+00 0.  1.
         11    1    5    5    0    0 -0.37997140632E+03  0.20729800059E+03  0.21362115368E+03  0.48268491583E+03  0.00000000000E+00 0. -1.
        -11    1    5    5    0    0 -0.67981496061E+02  0.10725375006E+02  0.68570827808E+02  0.97151818830E+02  0.00000000000E+00 0.  1.
          3    1    6    6  503    0 -0.30469742092E+03  0.11893908098E+02 -0.28443759816E+03  0.41699727890E+03  0.00000000000E+00 0. -1.
         -3    1    6    6    0  503 -0.76284901362E+02 -0.97009006594E+01 -0.14573171931E+03  0.16477629582E+03  0.00000000000E+00 0.  1.
<mgrwt>
<rscale>  0 0.20386381E+04</rscale>
<asrwt>0</asrwt>
<pdfrwt beam="1">  1        3 0.15811446E+00 0.20386381E+04</pdfrwt>
<pdfrwt beam="2">  1       -4 0.15553280E+00 0.20386381E+04</pdfrwt>
<totfact> 0.16139510E-01</totfact>
</mgrwt>
</event>
<event>
12    4  0.4320235E-008  0.1560455E+04  0.7818608E-02  0.8845217E-01
         -2   -1    0    0    0  501 -0.00000000000E+00  0.00000000000E+00  0.54214632043E+03  0.54214632043E+03  0.00000000000E+00 0.  1.
          1   -1    0    0  501    0  0.00000000000E+00 -0.00000000000E+00 -0.11228616269E+04  0.11228616269E+04  0.00000000000E+00 0. -1.
        -24    2    1    2    0    0 -0.10668778608E+03 -0.27131585981E+03  0.25728900592E+03  0.39654390297E+03  0.77812948410E+02 0.  0.
        254    2    1    2    0    0  0.10668778608E+03  0.27131585981E+03 -0.83800431239E+03  0.12684640444E+04  0.90650715648E+03 0.  0.
         23    2    4    4    0    0  0.32161227059E+03  0.10305492436E+03 -0.90725610245E+03  0.97239784575E+03  0.91592384808E+02 0.  0.
         23    2    4    4    0    0 -0.21492448451E+03  0.16826093545E+03  0.69251790067E+02  0.29606619860E+03  0.91406274866E+02 0.  0.
          3    1    3    3  502    0 -0.19231860560E+02 -0.13737782020E+03  0.91564288356E+02  0.16621236069E+03  0.00000000000E+00 0. -1.
         -4    1    3    3    0  502 -0.87455925518E+02 -0.13393803961E+03  0.16572471756E+03  0.23033154229E+03  0.00000000000E+00 0.  1.
         11    1    5    5    0    0  0.28134295022E+03  0.11104276618E+03 -0.72477051147E+03  0.78535128818E+03  0.00000000000E+00 0. -1.
        -11    1    5    5    0    0  0.40269320371E+02 -0.79878418277E+01 -0.18248559099E+03  0.18704655757E+03  0.00000000000E+00 0.  1.
          3    1    6    6  503    0 -0.19306213595E+03  0.10582812138E+03  0.40141815988E+02  0.22379442577E+03  0.00000000000E+00 0. -1.
         -3    1    6    6    0  503 -0.21862348558E+02  0.62432814074E+02  0.29109974079E+02  0.72271772834E+02  0.00000000000E+00 0.  1.
<mgrwt>
<rscale>  0 0.15604554E+04</rscale>
<asrwt>0</asrwt>
<pdfrwt beam="1">  1        1 0.17274794E+00 0.15604554E+04</pdfrwt>
<pdfrwt beam="2">  1       -2 0.83407128E-01 0.15604554E+04</pdfrwt>
<totfact> 0.12941254E+01</totfact>
</mgrwt>
</event>
<event>
12    4  0.4320235E-008  0.1087593E+04  0.7818608E-02  0.9217370E-01
         -4   -1    0    0    0  501 -0.00000000000E+00  0.00000000000E+00  0.11315378369E+03  0.11315378369E+03  0.00000000000E+00 0.  1.
          1   -1    0    0  501    0  0.00000000000E+00 -0.00000000000E+00 -0.26133857051E+04  0.26133857051E+04  0.00000000000E+00 0. -1.
        -24    2    1    2    0    0  0.25982586788E+02 -0.58365847903E+02 -0.72747061442E+03  0.73696508389E+03  0.99107885740E+02 0.  0.
        254    2    1    2    0    0 -0.25982586788E+02  0.58365847903E+02 -0.17727613070E+04  0.19895744049E+04  0.90091175707E+03 0.  0.
         23    2    4    4    0    0 -0.10252292369E+03  0.44235156279E+03 -0.65745730899E+03  0.80391471045E+03  0.88560112691E+02 0.  0.
         23    2    4    4    0    0  0.76540336903E+02 -0.38398571488E+03 -0.11153039980E+04  0.11856596945E+04  0.92641516871E+02 0.  0.
          1    1    3    3  502    0 -0.72247619523E+01 -0.52990758308E+02 -0.65372900067E+03  0.65591296982E+03  0.00000000000E+00 0. -1.
         -2    1    3    3    0  502  0.33207348740E+02 -0.53750895951E+01 -0.73741613748E+02  0.81052114078E+02  0.00000000000E+00 0.  1.
         11    1    5    5    0    0 -0.33824542606E+02  0.31011064028E+03 -0.47594400949E+03  0.56906538206E+03  0.00000000000E+00 0. -1.
        -11    1    5    5    0    0 -0.68698381085E+02  0.13224092251E+03 -0.18151329950E+03  0.23484932839E+03  0.00000000000E+00 0.  1.
          3    1    6    6  503    0  0.24897081881E+02 -0.27611152317E+03 -0.86317087501E+03  0.90659880729E+03  0.00000000000E+00 0. -1.
         -3    1    6    6    0  503  0.51643255022E+02 -0.10787419171E+03 -0.25213312302E+03  0.27906088718E+03  0.00000000000E+00 0.  1.
<mgrwt>
<rscale>  0 0.10875927E+04</rscale>
<asrwt>0</asrwt>
<pdfrwt beam="1">  1        1 0.40205928E+00 0.10875927E+04</pdfrwt>
<pdfrwt beam="2">  1       -4 0.17408277E-01 0.10875927E+04</pdfrwt>
<totfact> 0.16974144E+01</totfact>
</mgrwt>
</event>
<event>
12    4  0.4320235E-008  0.1476803E+04  0.7818608E-02  0.8900027E-01
          1   -1    0    0  501    0  0.00000000000E+00  0.00000000000E+00  0.23926017915E+04  0.23926017915E+04  0.00000000000E+00 0. -1.
         -2   -1    0    0    0  501 -0.00000000000E+00 -0.00000000000E+00 -0.22788450177E+03  0.22788450177E+03  0.00000000000E+00 0.  1.
        -24    2    1    2    0    0 -0.20024958575E+03  0.19385212176E+03  0.13433317165E+04  0.13741798924E+04  0.78432992930E+02 0.  0.
        254    2    1    2    0    0  0.20024958575E+03 -0.19385212176E+03  0.82138557322E+03  0.12463064009E+04  0.89494516216E+03 0.  0.
         23    2    4    4    0    0  0.70975474032E+02  0.22615732650E+03 -0.56144901058E+02  0.26064491836E+03  0.92730088477E+02 0.  0.
         23    2    4    4    0    0  0.12927411172E+03 -0.42000944825E+03  0.87753047428E+03  0.98566148252E+03  0.91373367339E+02 0.  0.
          3    1    3    3  502    0 -0.13052609280E+03  0.13307287211E+03  0.10560616802E+04  0.10723859952E+04  0.00000000000E+00 0. -1.
         -4    1    3    3    0  502 -0.69723492948E+02  0.60779249647E+02  0.28727003630E+03  0.30179389724E+03  0.00000000000E+00 0.  1.
         11    1    5    5    0    0  0.25231762126E+02  0.17569578771E+03 -0.88375122233E+01  0.17771818495E+03  0.00000000000E+00 0.  1.
        -11    1    5    5    0    0  0.45743711906E+02  0.50461538786E+02 -0.47307388835E+02  0.82926733409E+02  0.00000000000E+00 0. -1.
          1    1    6    6  503    0  0.68954031938E+02 -0.26867024381E+03  0.64113047845E+03  0.69856041172E+03  0.00000000000E+00 0. -1.
         -1    1    6    6    0  503  0.60320079780E+02 -0.15133920445E+03  0.23639999583E+03  0.28710107080E+03  0.00000000000E+00 0.  1.
<mgrwt>
<rscale>  0 0.14768031E+04</rscale>
<asrwt>0</asrwt>
<pdfrwt beam="1">  1        1 0.36809256E+00 0.14768031E+04</pdfrwt>
<pdfrwt beam="2">  1       -2 0.35059156E-01 0.14768031E+04</pdfrwt>
<totfact> 0.10468675E+01</totfact>
</mgrwt>
</event>
<event>
12    4  0.4320235E-008  0.1462445E+04  0.7818608E-02  0.8909818E-01
         -2   -1    0    0    0  501 -0.00000000000E+00  0.00000000000E+00  0.13455535921E+04  0.13455535921E+04  0.00000000000E+00 0.  1.
          1   -1    0    0  501    0  0.00000000000E+00 -0.00000000000E+00 -0.39737278803E+03  0.39737278803E+03  0.00000000000E+00 0. -1.
        -24    2    1    2    0    0 -0.26089366330E+03  0.10130699910E+03  0.70848264288E+03  0.76598454703E+03  0.80349607457E+02 0.  0.
        254    2    1    2    0    0  0.26089366330E+03 -0.10130699910E+03  0.23969816121E+03  0.97694183312E+03  0.90478258449E+03 0.  0.
         23    2    4    4    0    0  0.31907857094E+03  0.15511431290E+03  0.48347656641E+03  0.60659344098E+03  0.91293087715E+02 0.  0.
         23    2    4    4    0    0 -0.58184907648E+02 -0.25642131199E+03 -0.24377840520E+03  0.37034839215E+03  0.92696537173E+02 0.  0.
          1    1    3    3  502    0 -0.33282354075E+02 -0.13801780979E+02  0.93940987817E+02  0.10061368417E+03  0.00000000000E+00 0. -1.
         -2    1    3    3    0  502 -0.22761130922E+03  0.11510878007E+03  0.61454165506E+03  0.66537086286E+03  0.00000000000E+00 0.  1.
         11    1    5    5    0    0  0.17462885451E+03  0.44056985018E+02  0.19548106067E+03  0.26579898389E+03  0.00000000000E+00 0.  1.
        -11    1    5    5    0    0  0.14444971644E+03  0.11105732788E+03  0.28799550574E+03  0.34079445709E+03  0.00000000000E+00 0. -1.
          4    1    6    6  503    0 -0.77455700419E+01 -0.10808123405E+03 -0.45216484150E+02  0.11741412798E+03  0.00000000000E+00 0.  1.
         -4    1    6    6    0  503 -0.50439337606E+02 -0.14834007794E+03 -0.19856192105E+03  0.25293426417E+03  0.00000000000E+00 0. -1.
<mgrwt>
<rscale>  0 0.14624451E+04</rscale>
<asrwt>0</asrwt>
<pdfrwt beam="1">  1        1 0.61134276E-01 0.14624451E+04</pdfrwt>
<pdfrwt beam="2">  1       -2 0.20700824E+00 0.14624451E+04</pdfrwt>
<totfact> 0.61393580E+00</totfact>
</mgrwt>
</event>
<event>
12    4  0.4320235E-008  0.1459474E+04  0.7818608E-02  0.8911858E-01
          1   -1    0    0  501    0  0.00000000000E+00  0.00000000000E+00  0.59420436926E+03  0.59420436926E+03  0.00000000000E+00 0. -1.
         -2   -1    0    0    0  501 -0.00000000000E+00 -0.00000000000E+00 -0.89618374621E+03  0.89618374621E+03  0.00000000000E+00 0.  1.
        -24    2    1    2    0    0  0.24036741862E+03 -0.24535388292E+03 -0.38927209239E+03  0.52512635373E+03  0.79056319575E+02 0.  0.
        254    2    1    2    0    0 -0.24036741862E+03  0.24535388292E+03  0.87292715444E+02  0.96526176174E+03  0.89785033647E+03 0.  0.
         23    2    4    4    0    0  0.20231776915E+03  0.68834413407E+02 -0.27503809122E+03  0.36004765429E+03  0.91201455895E+02 0.  0.
         23    2    4    4    0    0 -0.44268518776E+03  0.17651946951E+03  0.36233080666E+03  0.60521410745E+03  0.88719805092E+02 0.  0.
          3    1    3    3  502    0  0.76424676103E+01  0.61233493230E+01 -0.11832929576E+02  0.15359718112E+02  0.00000000000E+00 0. -1.
         -4    1    3    3    0  502  0.23272495101E+03 -0.25147723224E+03 -0.37743916282E+03  0.50976663562E+03  0.00000000000E+00 0.  1.
         11    1    5    5    0    0  0.18656506782E+03  0.42134948973E+02 -0.19025801716E+03  0.26977767059E+03  0.00000000000E+00 0.  1.
        -11    1    5    5    0    0  0.15752701330E+02  0.26699464434E+02 -0.84780074058E+02  0.90269983701E+02  0.00000000000E+00 0. -1.
          3    1    6    6  503    0 -0.82473520653E+02  0.67320966961E+01  0.92901912236E+02  0.12441048200E+03  0.00000000000E+00 0. -1.
         -3    1    6    6    0  503 -0.36021166711E+03  0.16978737282E+03  0.26942889442E+03  0.48080362544E+03  0.00000000000E+00 0.  1.
<mgrwt>
<rscale>  0 0.14594743E+04</rscale>
<asrwt>0</asrwt>
<pdfrwt beam="1">  1        1 0.91416057E-01 0.14594743E+04</pdfrwt>
<pdfrwt beam="2">  1       -2 0.13787442E+00 0.14594743E+04</pdfrwt>
<totfact> 0.11017169E+01</totfact>
</mgrwt>
</event>
<event>
12    4  0.4320235E-008  0.1245206E+04  0.7818608E-02  0.9074183E-01
          1   -1    0    0  501    0  0.00000000000E+00  0.00000000000E+00  0.12086368044E+04  0.12086368044E+04  0.00000000000E+00 0. -1.
         -2   -1    0    0    0  501 -0.00000000000E+00 -0.00000000000E+00 -0.32072017579E+03  0.32072017579E+03  0.00000000000E+00 0.  1.
        -24    2    1    2    0    0 -0.16260930606E+03 -0.43037192847E+02 -0.75630659021E+02  0.20086074957E+03  0.79567944239E+02 0.  0.
        254    2    1    2    0    0  0.16260930606E+03  0.43037192847E+02  0.96354728766E+03  0.13284962306E+04  0.89899103049E+03 0.  0.
         23    2    4    4    0    0  0.11587200419E+02  0.27101906747E+03  0.99862384112E+03  0.10388505687E+04  0.91516828906E+02 0.  0.
         23    2    4    4    0    0  0.15102210564E+03 -0.22798187462E+03 -0.35076553456E+02  0.28964566191E+03  0.88774057639E+02 0.  0.
          3    1    3    3  502    0 -0.93512062300E+02 -0.58110109732E+02 -0.22419515724E+02  0.11235624297E+03  0.00000000000E+00 0. -1.
         -2    1    3    3    0  502 -0.69097243757E+02  0.15072916886E+02 -0.53211143297E+02  0.88504506604E+02  0.00000000000E+00 0.  1.
         11    1    5    5    0    0 -0.12799136003E+02  0.45232975850E+02  0.82057524884E+02  0.94568902800E+02  0.00000000000E+00 0. -1.
        -11    1    5    5    0    0  0.24386336422E+02  0.22578609162E+03  0.91656631624E+03  0.94428166594E+03  0.00000000000E+00 0.  1.
          4    1    6    6  503    0  0.95075636259E+02 -0.19542153530E+03 -0.50476881077E+02  0.22310730287E+03  0.00000000000E+00 0.  1.
         -4    1    6    6    0  503  0.55946469378E+02 -0.32560339327E+02  0.15400327621E+02  0.66538359041E+02  0.00000000000E+00 0. -1.
<mgrwt>
<rscale>  0 0.12452055E+04</rscale>
<asrwt>0</asrwt>
<pdfrwt beam="1">  1        1 0.18594412E+00 0.12452055E+04</pdfrwt>
<pdfrwt beam="2">  1       -2 0.49341566E-01 0.12452055E+04</pdfrwt>
<totfact> 0.35422395E+01</totfact>
</mgrwt>
</event>
<event>
12    4  0.4320235E-008  0.2050295E+04  0.7818608E-02  0.8583460E-01
          1   -1    0    0  501    0  0.00000000000E+00  0.00000000000E+00  0.93412314185E+03  0.93412314185E+03  0.00000000000E+00 0. -1.
         -2   -1    0    0    0  501 -0.00000000000E+00 -0.00000000000E+00 -0.11250417346E+04  0.11250417346E+04  0.00000000000E+00 0.  1.
        -24    2    1    2    0    0  0.60671562116E+03  0.44294007072E+03  0.31178364034E+03  0.81750733989E+03  0.82519459364E+02 0.  0.
        254    2    1    2    0    0 -0.60671562116E+03 -0.44294007072E+03 -0.50270223313E+03  0.12416575366E+04  0.85129557253E+03 0.  0.
         23    2    4    4    0    0 -0.63535292627E+02 -0.52902418278E+03 -0.40564597904E+03  0.67584680854E+03  0.91197197994E+02 0.  0.
         23    2    4    4    0    0 -0.54318032854E+03  0.86084112064E+02 -0.97056254091E+02  0.56581072807E+03  0.90920404127E+02 0.  0.
          1    1    3    3  502    0  0.34685415865E+03  0.20403921986E+03  0.15438882876E+03  0.43101707746E+03  0.00000000000E+00 0. -1.
         -2    1    3    3    0  502  0.25986146251E+03  0.23890085086E+03  0.15739481158E+03  0.38649026242E+03  0.00000000000E+00 0.  1.
         11    1    5    5    0    0 -0.45610648920E+02 -0.21062627019E+03 -0.11452657611E+03  0.24404936719E+03  0.00000000000E+00 0. -1.
        -11    1    5    5    0    0 -0.17924643707E+02 -0.31839791259E+03 -0.29111940293E+03  0.43179744135E+03  0.00000000000E+00 0.  1.
          3    1    6    6  503    0 -0.42556914042E+03  0.93051379468E+02 -0.48260756360E+02  0.43828843597E+03  0.00000000000E+00 0. -1.
         -3    1    6    6    0  503 -0.11761118812E+03 -0.69672674035E+01 -0.48795497731E+02  0.12752229211E+03  0.00000000000E+00 0.  1.
<mgrwt>
<rscale>  0 0.20502951E+04</rscale>
<asrwt>0</asrwt>
<pdfrwt beam="1">  1        1 0.14371125E+00 0.20502951E+04</pdfrwt>
<pdfrwt beam="2">  1       -2 0.17308334E+00 0.20502951E+04</pdfrwt>
<totfact> 0.28002079E+00</totfact>
</mgrwt>
</event>
<event>
12    4  0.4320235E-008  0.2462716E+04  0.7818608E-02  0.8416390E-01
         -4   -1    0    0    0  501 -0.00000000000E+00  0.00000000000E+00  0.15782022874E+04  0.15782022874E+04  0.00000000000E+00 0.  1.
          3   -1    0    0  501    0  0.00000000000E+00 -0.00000000000E+00 -0.96074011465E+03  0.96074011465E+03  0.00000000000E+00 0. -1.
        -24    2    1    2    0    0  0.62084567916E+03  0.14965526736E+03  0.11569626580E+04  0.13237625092E+04  0.77061873827E+02 0.  0.
        254    2    1    2    0    0 -0.62084567916E+03 -0.14965526736E+03 -0.53950048525E+03  0.12151798928E+04  0.88190438370E+03 0.  0.
         23    2    4    4    0    0  0.13738684729E+03 -0.53743164475E+02  0.11489444613E+03  0.20497779340E+03  0.83974332390E+02 0.  0.
         23    2    4    4    0    0 -0.75823252645E+03 -0.95912102884E+02 -0.65439493137E+03  0.10102020994E+04  0.90331942617E+02 0.  0.
          1    1    3    3  502    0  0.12027320638E+01  0.44724078241E+01  0.19666000690E+01  0.50315516487E+01  0.00000000000E+00 0. -1.
         -2    1    3    3    0  502  0.61964294709E+03  0.14518285954E+03  0.11549960579E+04  0.13187309575E+04  0.00000000000E+00 0.  1.
         11    1    5    5    0    0  0.90348362181E+02 -0.91971854959E+01  0.25039820106E+02  0.94204072952E+02  0.00000000000E+00 0. -1.
        -11    1    5    5    0    0  0.47038485109E+02 -0.44545978979E+02  0.89854626020E+02  0.11077372045E+03  0.00000000000E+00 0.  1.
          1    1    6    6  503    0 -0.59388127956E+03 -0.62240299355E+02 -0.46239805867E+03  0.75523558824E+03  0.00000000000E+00 0. -1.
         -1    1    6    6    0  503 -0.16435124688E+03 -0.33671803530E+02 -0.19199687270E+03  0.25496651120E+03  0.00000000000E+00 0.  1.
<mgrwt>
<rscale>  0 0.24627158E+04</rscale>
<asrwt>0</asrwt>
<pdfrwt beam="1">  1        3 0.14780617E+00 0.24627158E+04</pdfrwt>
<pdfrwt beam="2">  1       -4 0.24280035E+00 0.24627158E+04</pdfrwt>
<totfact> 0.47963466E-02</totfact>
</mgrwt>
</event>
<event>
12    4  0.4320235E-008  0.2712114E+04  0.7818608E-02  0.8331085E-01
         -2   -1    0    0    0  501 -0.00000000000E+00  0.00000000000E+00  0.16521911138E+04  0.16521911138E+04  0.00000000000E+00 0.  1.
          1   -1    0    0  501    0  0.00000000000E+00 -0.00000000000E+00 -0.11130013799E+04  0.11130013799E+04  0.00000000000E+00 0. -1.
        -24    2    1    2    0    0 -0.43708156371E+03 -0.43826263537E+03 -0.81356858082E+03  0.10255103688E+04  0.81628732532E+02 0.  0.
        254    2    1    2    0    0  0.43708156371E+03  0.43826263537E+03  0.13527583148E+04  0.17396821249E+04  0.90190044152E+03 0.  0.
         23    2    4    4    0    0  0.76397993990E+01  0.26961058267E+03  0.12180781756E+04  0.12508960182E+04  0.90984469375E+02 0.  0.
         23    2    4    4    0    0  0.42944176431E+03  0.16865205271E+03  0.13468013924E+03  0.48878610669E+03  0.88934663513E+02 0.  0.
          3    1    3    3  502    0 -0.28607150563E+03 -0.28719568488E+03 -0.59445565138E+03  0.71951079854E+03  0.00000000000E+00 0. -1.
         -4    1    3    3    0  502 -0.15101005808E+03 -0.15106695049E+03 -0.21911292943E+03  0.30599957029E+03  0.00000000000E+00 0.  1.
         11    1    5    5    0    0  0.51672262419E+01  0.26008610348E+03  0.12113695988E+04  0.12389865965E+04  0.00000000000E+00 0.  1.
        -11    1    5    5    0    0  0.24725731571E+01  0.95244791879E+01  0.67085767528E+01  0.11909421643E+02  0.00000000000E+00 0. -1.
          1    1    6    6  503    0  0.57933739917E+02  0.15048738723E+02  0.49912388259E+02  0.77936058790E+02  0.00000000000E+00 0. -1.
         -1    1    6    6    0  503  0.37150802439E+03  0.15360331399E+03  0.84767750976E+02  0.41085004790E+03  0.00000000000E+00 0.  1.
<mgrwt>
<rscale>  0 0.27121143E+04</rscale>
<asrwt>0</asrwt>
<pdfrwt beam="1">  1        1 0.17123098E+00 0.27121143E+04</pdfrwt>
<pdfrwt beam="2">  1       -2 0.25418325E+00 0.27121143E+04</pdfrwt>
<totfact> 0.57461001E-01</totfact>
</mgrwt>
</event>
<event>
12    4  0.4320235E-008  0.1346270E+04  0.7818608E-02  0.8993657E-01
         -2   -1    0    0    0  501 -0.00000000000E+00  0.00000000000E+00  0.94807635094E+03  0.94807635094E+03  0.00000000000E+00 0.  1.
          1   -1    0    0  501    0  0.00000000000E+00 -0.00000000000E+00 -0.47792627295E+03  0.47792627295E+03  0.00000000000E+00 0. -1.
        -24    2    1    2    0    0  0.16750693179E+03 -0.31338373566E+03  0.18460152742E+03  0.41005161599E+03  0.88298730925E+02 0.  0.
        254    2    1    2    0    0 -0.16750693179E+03  0.31338373566E+03  0.28554855056E+03  0.10159510079E+04  0.90793751864E+03 0.  0.
         23    2    4    4    0    0  0.26895051931E+03 -0.14551802661E+03  0.98301737107E+01  0.31920050483E+03  0.91007978009E+02 0.  0.
         23    2    4    4    0    0 -0.43645745110E+03  0.45890176227E+03  0.27571837685E+03  0.69675050307E+03  0.91404081737E+02 0.  0.
          1    1    3    3  502    0  0.13835355433E+03 -0.25278535914E+03  0.10706595673E+03  0.30741708294E+03  0.00000000000E+00 0. -1.
         -2    1    3    3    0  502  0.29153377457E+02 -0.60598376514E+02  0.77535570687E+02  0.10263453305E+03  0.00000000000E+00 0.  1.
         11    1    5    5    0    0  0.26337895355E+03 -0.15599774994E+03  0.43845742821E+01  0.30614211676E+03  0.00000000000E+00 0.  1.
        -11    1    5    5    0    0  0.55715657585E+01  0.10479723324E+02  0.54455994287E+01  0.13058388074E+02  0.00000000000E+00 0. -1.
          3    1    6    6  503    0 -0.43454654646E+02  0.69287037797E+02  0.65450560946E+02  0.10475102169E+03  0.00000000000E+00 0. -1.
         -3    1    6    6    0  503 -0.39300279645E+03  0.38961472447E+03  0.21026781591E+03  0.59199948138E+03  0.00000000000E+00 0.  1.
<mgrwt>
<rscale>  0 0.13462698E+04</rscale>
<asrwt>0</asrwt>
<pdfrwt beam="1">  1        1 0.73527119E-01 0.13462698E+04</pdfrwt>
<pdfrwt beam="2">  1       -2 0.14585790E+00 0.13462698E+04</pdfrwt>
<totfact> 0.13016608E+01</totfact>
</mgrwt>
</event>
<event>
12    4  0.4320235E-008  0.1995347E+04  0.7818608E-02  0.8608799E-01
         -2   -1    0    0    0  501 -0.00000000000E+00  0.00000000000E+00  0.21488806235E+04  0.21488806235E+04  0.00000000000E+00 0.  1.
          1   -1    0    0  501    0  0.00000000000E+00 -0.00000000000E+00 -0.46319574272E+03  0.46319574272E+03  0.00000000000E+00 0. -1.
        -24    2    1    2    0    0 -0.74447106498E+03 -0.18011170026E+03  0.90096219877E+03  0.11852170001E+04  0.79555406095E+02 0.  0.
        254    2    1    2    0    0  0.74447106498E+03  0.18011170026E+03  0.78472268205E+03  0.14268593661E+04  0.91294061789E+03 0.  0.
         23    2    4    4    0    0  0.89754895643E+03  0.24275757257E+03  0.43809504073E+03  0.10319300513E+04  0.91798680836E+02 0.  0.
         23    2    4    4    0    0 -0.15307789145E+03 -0.62645872308E+02  0.34662764132E+03  0.39492931484E+03  0.91984215068E+02 0.  0.
          1    1    3    3  502    0 -0.44952370021E+03 -0.14143928709E+03  0.51782685908E+03  0.70015804285E+03  0.00000000000E+00 0. -1.
         -2    1    3    3    0  502 -0.29494736477E+03 -0.38672413170E+02  0.38313533969E+03  0.48505895729E+03  0.00000000000E+00 0.  1.
         11    1    5    5    0    0  0.12004939179E+03  0.59270609850E+02  0.42353400489E+02  0.14042318966E+03  0.00000000000E+00 0. -1.
        -11    1    5    5    0    0  0.77749956464E+03  0.18348696272E+03  0.39574164024E+03  0.89150686162E+03  0.00000000000E+00 0.  1.
          1    1    6    6  503    0 -0.13141683606E+02 -0.22284923308E+02  0.92787184960E+01  0.27484837125E+02  0.00000000000E+00 0. -1.
         -1    1    6    6    0  503 -0.13993620785E+03 -0.40360949000E+02  0.33734892283E+03  0.36744447771E+03  0.00000000000E+00 0.  1.
<mgrwt>
<rscale>  0 0.19953469E+04</rscale>
<asrwt>0</asrwt>
<pdfrwt beam="1">  1        1 0.71260885E-01 0.19953469E+04</pdfrwt>
<pdfrwt beam="2">  1       -2 0.33059701E+00 0.19953469E+04</pdfrwt>
<totfact> 0.82455580E-01</totfact>
</mgrwt>
</event>
<event>
12    4  0.4320235E-008  0.1077134E+04  0.7818608E-02  0.9227770E-01
         -2   -1    0    0    0  501 -0.00000000000E+00  0.00000000000E+00  0.10467157921E+03  0.10467157921E+03  0.00000000000E+00 0.  1.
          1   -1    0    0  501    0  0.00000000000E+00 -0.00000000000E+00 -0.27710879593E+04  0.27710879593E+04  0.00000000000E+00 0. -1.
        -24    2    1    2    0    0 -0.95911016702E+02  0.72647908371E+02 -0.70929105861E+03  0.72387372349E+03  0.80141874354E+02 0.  0.
        254    2    1    2    0    0  0.95911016702E+02 -0.72647908371E+02 -0.19571253215E+04  0.21518858150E+04  0.88645157521E+03 0.  0.
         23    2    4    4    0    0 -0.20834170563E+03  0.21851537967E+03 -0.14659963594E+04  0.14996002471E+04  0.92197277749E+02 0.  0.
         23    2    4    4    0    0  0.30425272233E+03 -0.29116328805E+03 -0.49112896212E+03  0.65228556791E+03  0.83204719321E+02 0.  0.
          1    1    3    3  502    0  0.80333268418E+01  0.24153344652E+02 -0.21219525668E+03  0.21371650698E+03  0.00000000000E+00 0. -1.
         -2    1    3    3    0  502 -0.10394434354E+03  0.48494563719E+02 -0.49709580193E+03  0.51015721651E+03  0.00000000000E+00 0.  1.
         11    1    5    5    0    0 -0.31495669528E+02 -0.31661416873E+01 -0.12478364547E+03  0.12873600829E+03  0.00000000000E+00 0.  1.
        -11    1    5    5    0    0 -0.17684603610E+03  0.22168152136E+03 -0.13412127139E+04  0.13708642388E+04  0.00000000000E+00 0. -1.
          3    1    6    6  503    0  0.29271683539E+03 -0.29602537531E+03 -0.48131202552E+03  0.63637680226E+03  0.00000000000E+00 0. -1.
         -3    1    6    6    0  503  0.11535886948E+02  0.48620872658E+01 -0.98169366040E+01  0.15908765651E+02  0.00000000000E+00 0.  1.
<mgrwt>
<rscale>  0 0.10771335E+04</rscale>
<asrwt>0</asrwt>
<pdfrwt beam="1">  1        1 0.42632130E+00 0.10771335E+04</pdfrwt>
<pdfrwt beam="2">  1       -2 0.16103317E-01 0.10771335E+04</pdfrwt>
<totfact> 0.24164416E+01</totfact>
</mgrwt>
</event>
<event>
12    4  0.4320235E-008  0.1465069E+04  0.7818608E-02  0.8908020E-01
          1   -1    0    0  501    0  0.00000000000E+00  0.00000000000E+00  0.39420766798E+03  0.39420766798E+03  0.00000000000E+00 0. -1.
         -4   -1    0    0    0  501 -0.00000000000E+00 -0.00000000000E+00 -0.13612284470E+04  0.13612284470E+04  0.00000000000E+00 0.  1.
        -24    2    1    2    0    0  0.33772202645E+03  0.58394982339E+02  0.71547205025E+02  0.35890706823E+03  0.78924900771E+02 0.  0.
        254    2    1    2    0    0 -0.33772202645E+03 -0.58394982339E+02 -0.10385679840E+04  0.13965290468E+04  0.86844906577E+03 0.  0.
         23    2    4    4    0    0 -0.11712281368E+03 -0.42748792471E+03 -0.73498818066E+03  0.86331484219E+03  0.92958118396E+02 0.  0.
         23    2    4    4    0    0 -0.22059921277E+03  0.36909294237E+03 -0.30357980338E+03  0.53321420457E+03  0.85223694731E+02 0.  0.
          3    1    3    3  502    0  0.30950054221E+03  0.75666913876E+02  0.64704028072E+02  0.32511948378E+03  0.00000000000E+00 0. -1.
         -4    1    3    3    0  502  0.28221484239E+02 -0.17271931538E+02  0.68431769527E+01  0.33787584443E+02  0.00000000000E+00 0.  1.
         11    1    5    5    0    0 -0.52053835299E+02 -0.62776471570E+02 -0.15402024723E+03  0.17427772006E+03  0.00000000000E+00 0. -1.
        -11    1    5    5    0    0 -0.65068978385E+02 -0.36471145314E+03 -0.58096793343E+03  0.68903712213E+03  0.00000000000E+00 0.  1.
          2    1    6    6  503    0 -0.10932371875E+03  0.26195375330E+03 -0.19982958140E+03  0.34713586094E+03  0.00000000000E+00 0. -1.
         -2    1    6    6    0  503 -0.11127549402E+03  0.10713918908E+03 -0.10375022198E+03  0.18607834362E+03  0.00000000000E+00 0.  1.
<mgrwt>
<rscale>  0 0.14650689E+04</rscale>
<asrwt>0</asrwt>
<pdfrwt beam="1">  1        1 0.60647333E-01 0.14650689E+04</pdfrwt>
<pdfrwt beam="2">  1       -4 0.20941976E+00 0.14650689E+04</pdfrwt>
<totfact> 0.32274290E+00</totfact>
</mgrwt>
</event>
<event>
12    4  0.4320235E-008  0.1939969E+04  0.7818608E-02  0.8635213E-01
          1   -1    0    0  501    0  0.00000000000E+00  0.00000000000E+00  0.11052088405E+04  0.11052088405E+04  0.00000000000E+00 0. -1.
         -2   -1    0    0    0  501 -0.00000000000E+00 -0.00000000000E+00 -0.85130497624E+03  0.85130497624E+03  0.00000000000E+00 0.  1.
        -24    2    1    2    0    0 -0.53449202006E+03  0.27239692973E+03 -0.35158244169E+03  0.70079947970E+03  0.87337795952E+02 0.  0.
        254    2    1    2    0    0  0.53449202006E+03 -0.27239692973E+03  0.60548630599E+03  0.12557143371E+04  0.92212961278E+03 0.  0.
         23    2    4    4    0    0  0.76064766804E+03 -0.35100074426E+03  0.43696396106E+03  0.94918437507E+03  0.90703237251E+02 0.  0.
         23    2    4    4    0    0 -0.22615564798E+03  0.78603814535E+02  0.16852234494E+03  0.30652996201E+03  0.90751860018E+02 0.  0.
          3    1    3    3  502    0 -0.41840605302E+03  0.23505047395E+03 -0.31274349951E+03  0.57281833682E+03  0.00000000000E+00 0. -1.
         -4    1    3    3    0  502 -0.11608596704E+03  0.37346455776E+02 -0.38838942187E+02  0.12798114288E+03  0.00000000000E+00 0.  1.
         11    1    5    5    0    0  0.65264181354E+02 -0.60392015694E+02  0.43344903938E+02  0.98921128303E+02  0.00000000000E+00 0. -1.
        -11    1    5    5    0    0  0.69538348668E+03 -0.29060872857E+03  0.39361905712E+03  0.85026324676E+03  0.00000000000E+00 0.  1.
          3    1    6    6  503    0 -0.16832624276E+03  0.24800894316E+02  0.80381613624E+02  0.18817548238E+03  0.00000000000E+00 0. -1.
         -3    1    6    6    0  503 -0.57829405212E+02  0.53802920219E+02  0.88140731313E+02  0.11835447963E+03  0.00000000000E+00 0.  1.
<mgrwt>
<rscale>  0 0.19399689E+04</rscale>
<asrwt>0</asrwt>
<pdfrwt beam="1">  1        1 0.17003213E+00 0.19399689E+04</pdfrwt>
<pdfrwt beam="2">  1       -2 0.13097000E+00 0.19399689E+04</pdfrwt>
<totfact> 0.43785862E+00</totfact>
</mgrwt>
</event>
<event>
12    4  0.4320235E-008  0.1476624E+04  0.7818608E-02  0.8900148E-01
          1   -1    0    0  501    0  0.00000000000E+00  0.00000000000E+00  0.27144985442E+03  0.27144985442E+03  0.00000000000E+00 0. -1.
         -2   -1    0    0    0  501 -0.00000000000E+00 -0.00000000000E+00 -0.20081227613E+04  0.20081227613E+04  0.00000000000E+00 0.  1.
        -24    2    1    2    0    0  0.17158296735E+03 -0.30858115247E+03 -0.98445323183E+03  0.10490338472E+04  0.81613752128E+02 0.  0.
        254    2    1    2    0    0 -0.17158296735E+03  0.30858115247E+03 -0.75221967503E+03  0.12305387685E+04  0.90759472176E+03 0.  0.
         23    2    4    4    0    0 -0.84916451546E+02 -0.26366697756E+03 -0.52881734080E+03  0.60413945559E+03  0.92766497535E+02 0.  0.
         23    2    4    4    0    0 -0.86666515799E+02  0.57224813003E+03 -0.22340233423E+03  0.62639931293E+03  0.86536056122E+02 0.  0.
          3    1    3    3  502    0  0.44491434565E+01  0.35120186795E+01 -0.49885773975E+01  0.75508315537E+01  0.00000000000E+00 0. -1.
         -4    1    3    3    0  502  0.16713382389E+03 -0.31209317115E+03 -0.97946465444E+03  0.10414830156E+04  0.00000000000E+00 0.  1.
         11    1    5    5    0    0 -0.36924911044E+02 -0.17839232645E+02 -0.89253999035E+02  0.98224048077E+02  0.00000000000E+00 0. -1.
        -11    1    5    5    0    0 -0.47991540502E+02 -0.24582774492E+03 -0.43956334176E+03  0.50591540751E+03  0.00000000000E+00 0.  1.
          1    1    6    6  503    0 -0.55920184475E+02  0.32883013221E+03 -0.83030712994E+02  0.34373015897E+03  0.00000000000E+00 0. -1.
         -1    1    6    6    0  503 -0.30746331324E+02  0.24341799782E+03 -0.14037162123E+03  0.28266915396E+03  0.00000000000E+00 0.  1.
<mgrwt>
<rscale>  0 0.14766240E+04</rscale>
<asrwt>0</asrwt>
<pdfrwt beam="1">  1        1 0.41761515E-01 0.14766240E+04</pdfrwt>
<pdfrwt beam="2">  1       -2 0.30894197E+00 0.14766240E+04</pdfrwt>
<totfact> 0.23785756E+00</totfact>
</mgrwt>
</event>
<event>
12    4  0.4320235E-008  0.2900808E+04  0.7818608E-02  0.8272637E-01
          1   -1    0    0  501    0  0.00000000000E+00  0.00000000000E+00  0.18989948075E+04  0.18989948075E+04  0.00000000000E+00 0. -1.
         -2   -1    0    0    0  501 -0.00000000000E+00 -0.00000000000E+00 -0.11077815104E+04  0.11077815104E+04  0.00000000000E+00 0.  1.
        -24    2    1    2    0    0  0.74617897371E+03 -0.45575409531E+03  0.13704339431E+04  0.16275376962E+04  0.79340430007E+02 0.  0.
        254    2    1    2    0    0 -0.74617897371E+03  0.45575409531E+03 -0.57922064602E+03  0.13792386217E+04  0.89571634050E+03 0.  0.
         23    2    4    4    0    0 -0.40559760549E+03  0.21553979814E+03 -0.77863650190E+03  0.90846402336E+03  0.89806778534E+02 0.  0.
         23    2    4    4    0    0 -0.34058136821E+03  0.24021429716E+03  0.19941585588E+03  0.47077459835E+03  0.90351878457E+02 0.  0.
          3    1    3    3  502    0  0.45108991457E+03 -0.27635197198E+03  0.89987953235E+03  0.10438561664E+04  0.00000000000E+00 0. -1.
         -4    1    3    3    0  502  0.29508905914E+03 -0.17940212332E+03  0.47055441074E+03  0.58368152973E+03  0.00000000000E+00 0.  1.
         11    1    5    5    0    0 -0.23716858357E+03  0.16372582372E+03 -0.42717224588E+03  0.51529720554E+03  0.00000000000E+00 0. -1.
        -11    1    5    5    0    0 -0.16842902192E+03  0.51813974429E+02 -0.35146425603E+03  0.39316681782E+03  0.00000000000E+00 0.  1.
          4    1    6    6  503    0 -0.24070276635E+03  0.19004323275E+03  0.10406568834E+03  0.32385786934E+03  0.00000000000E+00 0.  1.
         -4    1    6    6    0  503 -0.99878601860E+02  0.50171064416E+02  0.95350167537E+02  0.14691672901E+03  0.00000000000E+00 0. -1.
<mgrwt>
<rscale>  0 0.29008077E+04</rscale>
<asrwt>0</asrwt>
<pdfrwt beam="1">  1        1 0.29215305E+00 0.29008077E+04</pdfrwt>
<pdfrwt beam="2">  1       -2 0.17042793E+00 0.29008077E+04</pdfrwt>
<totfact> 0.55717600E-01</totfact>
</mgrwt>
</event>
<event>
12    4  0.4320235E-008  0.1399553E+04  0.7818608E-02  0.8954142E-01
         -2   -1    0    0    0  501 -0.00000000000E+00  0.00000000000E+00  0.26511004146E+03  0.26511004146E+03  0.00000000000E+00 0.  1.
          1   -1    0    0  501    0  0.00000000000E+00 -0.00000000000E+00 -0.18471096773E+04  0.18471096773E+04  0.00000000000E+00 0. -1.
        -24    2    1    2    0    0 -0.22660304347E+03  0.33023320946E+03 -0.35470919822E+03  0.54077734385E+03  0.78858153553E+02 0.  0.
        254    2    1    2    0    0  0.22660304347E+03 -0.33023320946E+03 -0.12272904376E+04  0.15714423749E+04  0.89598348613E+03 0.  0.
         23    2    4    4    0    0  0.33638229452E+03 -0.55241811478E+03 -0.10955051450E+04  0.12755171348E+04  0.92160820348E+02 0.  0.
         23    2    4    4    0    0 -0.10977925105E+03  0.22218490532E+03 -0.13178529258E+03  0.29592524008E+03  0.93737763262E+02 0.  0.
          1    1    3    3  502    0 -0.16865013456E+03  0.28528223624E+03 -0.31569739795E+03  0.45770478398E+03  0.00000000000E+00 0. -1.
         -4    1    3    3    0  502 -0.57952908902E+02  0.44950973216E+02 -0.39011800269E+02  0.83072559871E+02  0.00000000000E+00 0.  1.
         11    1    5    5    0    0  0.31208359898E+03 -0.53982686581E+03 -0.10680889595E+04  0.12367793834E+04  0.00000000000E+00 0.  1.
        -11    1    5    5    0    0  0.24298695541E+02 -0.12591248970E+02 -0.27416185559E+02  0.38737751435E+02  0.00000000000E+00 0. -1.
          1    1    6    6  503    0 -0.12260301004E+02  0.12893391625E+03 -0.55311432256E+02  0.14083190078E+03  0.00000000000E+00 0. -1.
         -1    1    6    6    0  503 -0.97518950049E+02  0.93250989076E+02 -0.76473860322E+02  0.15509333930E+03  0.00000000000E+00 0.  1.
<mgrwt>
<rscale>  0 0.13995532E+04</rscale>
<asrwt>0</asrwt>
<pdfrwt beam="1">  1        1 0.28417072E+00 0.13995532E+04</pdfrwt>
<pdfrwt beam="2">  1       -2 0.40786160E-01 0.13995532E+04</pdfrwt>
<totfact> 0.18447470E+01</totfact>
</mgrwt>
</event>
<event>
12    4  0.4320235E-008  0.5050623E+04  0.7818608E-02  0.7820745E-01
         -2   -1    0    0    0  501 -0.00000000000E+00  0.00000000000E+00  0.19946237582E+04  0.19946237582E+04  0.00000000000E+00 0.  1.
          1   -1    0    0  501    0  0.00000000000E+00 -0.00000000000E+00 -0.31971932676E+04  0.31971932676E+04  0.00000000000E+00 0. -1.
        -24    2    1    2    0    0 -0.71912436655E+03  0.19994895231E+04 -0.18268114218E+04  0.28033394608E+04  0.79837046475E+02 0.  0.
        254    2    1    2    0    0  0.71912436655E+03 -0.19994895231E+04  0.62424191239E+03  0.23884775650E+04  0.89445452985E+03 0.  0.
         23    2    4    4    0    0  0.78541369762E+03 -0.19942622471E+04  0.69419741174E+03  0.22550418214E+04  0.96679796401E+02 0.  0.
         23    2    4    4    0    0 -0.66289331070E+02 -0.52272759583E+01 -0.69955499351E+02  0.13343574364E+03  0.92139708938E+02 0.  0.
          3    1    3    3  502    0 -0.66623184758E+03  0.18382110237E+04 -0.17077318425E+04  0.25960032142E+04  0.00000000000E+00 0. -1.
         -4    1    3    3    0  502 -0.52892518966E+02  0.16127849938E+03 -0.11907957938E+03  0.20733624658E+03  0.00000000000E+00 0.  1.
         11    1    5    5    0    0  0.68918190022E+03 -0.17341761261E+04  0.57027457856E+03  0.19512948580E+04  0.00000000000E+00 0. -1.
        -11    1    5    5    0    0  0.96231797397E+02 -0.26008612098E+03  0.12392283318E+03  0.30374696335E+03  0.00000000000E+00 0.  1.
          3    1    6    6  503    0 -0.55605141403E+02  0.20703104412E+02 -0.83385217549E+02  0.10234082660E+03  0.00000000000E+00 0. -1.
         -3    1    6    6    0  503 -0.10684189667E+02 -0.25930380370E+02  0.13429718197E+02  0.31094917042E+02  0.00000000000E+00 0.  1.
<mgrwt>
<rscale>  0 0.50506228E+04</rscale>
<asrwt>0</asrwt>
<pdfrwt beam="1">  1        1 0.49187588E+00 0.50506228E+04</pdfrwt>
<pdfrwt beam="2">  1       -2 0.30686520E+00 0.50506228E+04</pdfrwt>
<totfact> 0.77941249E-03</totfact>
</mgrwt>
</event>
<event>
12    4  0.4320235E-008  0.1226507E+04  0.7818608E-02  0.9089966E-01
          1   -1    0    0  501    0  0.00000000000E+00  0.00000000000E+00  0.95825775358E+03  0.95825775358E+03  0.00000000000E+00 0. -1.
         -2   -1    0    0    0  501 -0.00000000000E+00 -0.00000000000E+00 -0.39246200624E+03  0.39246200624E+03  0.00000000000E+00 0.  1.
        -24    2    1    2    0    0  0.14020317387E+03  0.11486183947E+03 -0.90337577315E+02  0.21815472938E+03  0.81119886243E+02 0.  0.
        254    2    1    2    0    0 -0.14020317387E+03 -0.11486183947E+03  0.65613332465E+03  0.11325650304E+04  0.90517536220E+03 0.  0.
         23    2    4    4    0    0  0.79406478211E+01  0.14963895626E+02 -0.21524241042E+03  0.23453638537E+03  0.91602667838E+02 0.  0.
         23    2    4    4    0    0 -0.14814382169E+03 -0.12982573510E+03  0.87137573508E+03  0.89802864508E+03  0.91424626363E+02 0.  0.
          3    1    3    3  502    0  0.51811005097E+02  0.20362546044E+02  0.71760872711E+01  0.56129401913E+02  0.00000000000E+00 0. -1.
         -4    1    3    3    0  502  0.88392168776E+02  0.94499293426E+02 -0.97513664586E+02  0.16202532746E+03  0.00000000000E+00 0.  1.
         11    1    5    5    0    0 -0.20259663676E+02 -0.32091897208E+02 -0.78244319720E+02  0.86962735738E+02  0.00000000000E+00 0. -1.
        -11    1    5    5    0    0  0.28200311497E+02  0.47055792834E+02 -0.13699809070E+03  0.14757364963E+03  0.00000000000E+00 0.  1.
          4    1    6    6  503    0 -0.31060503165E+02 -0.87024778371E+02  0.38447756100E+03  0.39542516589E+03  0.00000000000E+00 0. -1.
         -4    1    6    6    0  503 -0.11708331853E+03 -0.42800956725E+02  0.48689817407E+03  0.50260347919E+03  0.00000000000E+00 0.  1.
<mgrwt>
<rscale>  0 0.12265068E+04</rscale>
<asrwt>0</asrwt>
<pdfrwt beam="1">  1        1 0.14742427E+00 0.12265068E+04</pdfrwt>
<pdfrwt beam="2">  1       -2 0.60378771E-01 0.12265068E+04</pdfrwt>
<totfact> 0.36129194E+01</totfact>
</mgrwt>
</event>
<event>
12    4  0.4320235E-008  0.2971699E+04  0.7818608E-02  0.8251859E-01
          1   -1    0    0  501    0  0.00000000000E+00  0.00000000000E+00  0.19754692591E+04  0.19754692591E+04  0.00000000000E+00 0. -1.
         -2   -1    0    0    0  501 -0.00000000000E+00 -0.00000000000E+00 -0.11175822829E+04  0.11175822829E+04  0.00000000000E+00 0.  1.
        -24    2    1    2    0    0 -0.66200293033E+03 -0.76565462919E+03 -0.53444878830E+03  0.11473744985E+04  0.79736074625E+02 0.  0.
        254    2    1    2    0    0  0.66200293033E+03  0.76565462919E+03  0.13923357644E+04  0.19456770435E+04  0.90696493079E+03 0.  0.
         23    2    4    4    0    0 -0.17933407200E+03  0.17351871845E+03  0.55744888107E+03  0.61759883525E+03  0.91703932658E+02 0.  0.
         23    2    4    4    0    0  0.84133700233E+03  0.59213591075E+03  0.83488688335E+03  0.13280782082E+04  0.91009509950E+02 0.  0.
          3    1    3    3  502    0 -0.23279101681E+03 -0.26574031751E+03 -0.14415007238E+03  0.38156102687E+03  0.00000000000E+00 0. -1.
         -2    1    3    3    0  502 -0.42921191352E+03 -0.49991431168E+03 -0.39029871592E+03  0.76581347166E+03  0.00000000000E+00 0.  1.
         11    1    5    5    0    0 -0.14673052430E+03  0.17346026502E+03  0.43344079328E+03  0.48937637007E+03  0.00000000000E+00 0.  1.
        -11    1    5    5    0    0 -0.32603547698E+02  0.58453421605E-01  0.12400808780E+03  0.12822246518E+03  0.00000000000E+00 0. -1.
          3    1    6    6  503    0  0.16873955971E+02  0.12007993388E+02  0.37080697521E+02  0.42472348934E+02  0.00000000000E+00 0. -1.
         -3    1    6    6    0  503  0.82446304636E+03  0.58012791736E+03  0.79780618583E+03  0.12856058593E+04  0.00000000000E+00 0.  1.
<mgrwt>
<rscale>  0 0.29716995E+04</rscale>
<asrwt>0</asrwt>
<pdfrwt beam="1">  1        1 0.30391835E+00 0.29716995E+04</pdfrwt>
<pdfrwt beam="2">  1       -2 0.17193574E+00 0.29716995E+04</pdfrwt>
<totfact> 0.47954762E-01</totfact>
</mgrwt>
</event>
<event>
12    4  0.4320235E-008  0.1555225E+04  0.7818608E-02  0.8848537E-01
         -2   -1    0    0    0  501 -0.00000000000E+00  0.00000000000E+00  0.71275309108E+03  0.71275309108E+03  0.00000000000E+00 0.  1.
          1   -1    0    0  501    0  0.00000000000E+00 -0.00000000000E+00 -0.84837350622E+03  0.84837350622E+03  0.00000000000E+00 0. -1.
        -24    2    1    2    0    0  0.49059085382E+03 -0.12671367181E+03 -0.11156069862E+03  0.52513488346E+03  0.81148726923E+02 0.  0.
        254    2    1    2    0    0 -0.49059085382E+03  0.12671367181E+03 -0.24059716521E+02  0.10359917138E+04  0.90330737887E+03 0.  0.
         23    2    4    4    0    0 -0.16594628312E+03 -0.94153241016E+02 -0.42028614073E+03  0.47073847000E+03  0.92473052160E+02 0.  0.
         23    2    4    4    0    0 -0.32464457070E+03  0.22086691283E+03  0.39622642421E+03  0.56525324384E+03  0.91321191170E+02 0.  0.
          3    1    3    3  502    0  0.26318479642E+02 -0.25836128851E+02  0.93667104971E+00  0.36892347138E+02  0.00000000000E+00 0. -1.
         -2    1    3    3    0  502  0.46427237417E+03 -0.10087754296E+03 -0.11249736967E+03  0.48824253633E+03  0.00000000000E+00 0.  1.
         11    1    5    5    0    0 -0.17332265452E+03 -0.73965802141E+02 -0.35368529822E+03  0.40075550231E+03  0.00000000000E+00 0.  1.
        -11    1    5    5    0    0  0.73763714064E+01 -0.20187438875E+02 -0.66600842513E+02  0.69982967691E+02  0.00000000000E+00 0. -1.
          1    1    6    6  503    0 -0.91960183118E+02  0.73119491177E+02  0.17992067522E+03  0.21488272299E+03  0.00000000000E+00 0. -1.
         -1    1    6    6    0  503 -0.23268438758E+03  0.14774742165E+03  0.21630574899E+03  0.35037052084E+03  0.00000000000E+00 0.  1.
<mgrwt>
<rscale>  0 0.15552245E+04</rscale>
<asrwt>0</asrwt>
<pdfrwt beam="1">  1        1 0.13051900E+00 0.15552245E+04</pdfrwt>
<pdfrwt beam="2">  1       -2 0.10965432E+00 0.15552245E+04</pdfrwt>
<totfact> 0.11223351E+01</totfact>
</mgrwt>
</event>
<event>
12    4  0.4320235E-008  0.2475168E+04  0.7818608E-02  0.8411886E-01
         -2   -1    0    0    0  501 -0.00000000000E+00  0.00000000000E+00  0.40142479246E+03  0.40142479246E+03  0.00000000000E+00 0.  1.
          1   -1    0    0  501    0  0.00000000000E+00 -0.00000000000E+00 -0.38154462538E+04  0.38154462538E+04  0.00000000000E+00 0. -1.
        -24    2    1    2    0    0 -0.15583960129E+03  0.92465779176E+03 -0.23863709402E+04  0.25652976241E+04  0.81900078104E+02 0.  0.
        254    2    1    2    0    0  0.15583960129E+03 -0.92465779176E+03 -0.10276505211E+04  0.16515734221E+04  0.89014109100E+03 0.  0.
         23    2    4    4    0    0  0.24278139323E+03 -0.97239510515E+03 -0.53723981926E+03  0.11411584165E+04  0.95503207877E+02 0.  0.
         23    2    4    4    0    0 -0.86941791940E+02  0.47737313390E+02 -0.49041070180E+03  0.51041500558E+03  0.10091132348E+03 0.  0.
          1    1    3    3  502    0 -0.25039545324E+02  0.38158493053E+03 -0.99950482112E+03  0.10701607008E+04  0.00000000000E+00 0. -1.
         -2    1    3    3    0  502 -0.13080005597E+03  0.54307286123E+03 -0.13868661191E+04  0.14951369234E+04  0.00000000000E+00 0.  1.
         11    1    5    5    0    0  0.21952096129E+03 -0.83404289078E+03 -0.49611649993E+03  0.99496159605E+03  0.00000000000E+00 0. -1.
        -11    1    5    5    0    0  0.23260431938E+02 -0.13835221437E+03 -0.41123319325E+02  0.14619682045E+03  0.00000000000E+00 0.  1.
          2    1    6    6  503    0  0.55302320431E+01  0.39767081519E+02 -0.24044235692E+03  0.24377147339E+03  0.00000000000E+00 0. -1.
         -2    1    6    6    0  503 -0.92472023983E+02  0.79702318714E+01 -0.24996834488E+03  0.26664353219E+03  0.00000000000E+00 0.  1.
<mgrwt>
<rscale>  0 0.24751685E+04</rscale>
<asrwt>0</asrwt>
<pdfrwt beam="1">  1        1 0.58699173E+00 0.24751685E+04</pdfrwt>
<pdfrwt beam="2">  1       -2 0.61757660E-01 0.24751685E+04</pdfrwt>
<totfact> 0.26432443E-01</totfact>
</mgrwt>
</event>
<event>
12    4  0.4320235E-008  0.2362450E+04  0.7818608E-02  0.8453697E-01
         -2   -1    0    0    0  501 -0.00000000000E+00  0.00000000000E+00  0.15452136345E+04  0.15452136345E+04  0.00000000000E+00 0.  1.
          1   -1    0    0  501    0  0.00000000000E+00 -0.00000000000E+00 -0.90297706366E+03  0.90297706366E+03  0.00000000000E+00 0. -1.
        -24    2    1    2    0    0  0.68672988334E+03 -0.42506324633E+03 -0.35463117698E+03  0.88568818664E+03  0.80022473240E+02 0.  0.
        254    2    1    2    0    0 -0.68672988334E+03  0.42506324633E+03  0.99686774780E+03  0.15625025115E+04  0.89184757431E+03 0.  0.
         23    2    4    4    0    0 -0.11413763971E+03  0.41183432552E+03  0.86337070161E+03  0.96758972759E+03  0.90476516596E+02 0.  0.
         23    2    4    4    0    0 -0.57259224363E+03  0.13228920809E+02  0.13349704619E+03  0.59491278392E+03  0.89793526060E+02 0.  0.
          3    1    3    3  502    0  0.65522135983E+03 -0.42122176806E+03 -0.33218337022E+03  0.84681084058E+03  0.00000000000E+00 0. -1.
         -4    1    3    3    0  502  0.31508523510E+02 -0.38414782687E+01 -0.22447806758E+02  0.38877346068E+02  0.00000000000E+00 0.  1.
         11    1    5    5    0    0 -0.12382281917E+03  0.37635578295E+03  0.74731047625E+03  0.84584201469E+03  0.00000000000E+00 0.  1.
        -11    1    5    5    0    0  0.96851794548E+01  0.35478542569E+02  0.11606022536E+03  0.12174771290E+03  0.00000000000E+00 0. -1.
          3    1    6    6  503    0 -0.12782417072E+03  0.40364621691E+02  0.26224098232E+02  0.13658705881E+03  0.00000000000E+00 0. -1.
         -3    1    6    6    0  503 -0.44476807290E+03 -0.27135700883E+02  0.10727294796E+03  0.45832572511E+03  0.00000000000E+00 0.  1.
<mgrwt>
<rscale>  0 0.23624500E+04</rscale>
<asrwt>0</asrwt>
<pdfrwt beam="1">  1        1 0.13891955E+00 0.23624500E+04</pdfrwt>
<pdfrwt beam="2">  1       -2 0.23772517E+00 0.23624500E+04</pdfrwt>
<totfact> 0.10912406E+00</totfact>
</mgrwt>
</event>
<event>
12    4  0.4320235E-008  0.2218772E+04  0.7818608E-02  0.8510655E-01
          1   -1    0    0  501    0  0.00000000000E+00  0.00000000000E+00  0.11511075447E+04  0.11511075447E+04  0.00000000000E+00 0. -1.
         -2   -1    0    0    0  501 -0.00000000000E+00 -0.00000000000E+00 -0.10691763869E+04  0.10691763869E+04  0.00000000000E+00 0.  1.
        -24    2    1    2    0    0  0.36320795885E+03 -0.38248880308E+03 -0.72487427568E+03  0.90017393481E+03  0.81564033269E+02 0.  0.
        254    2    1    2    0    0 -0.36320795885E+03  0.38248880308E+03  0.80680543345E+03  0.13201099968E+04  0.90196324221E+03 0.  0.
         23    2    4    4    0    0 -0.31964479400E+03  0.28864294434E+02 -0.91868950920E+02  0.34904801124E+03  0.10192481630E+03 0.  0.
         23    2    4    4    0    0 -0.43563164844E+02  0.35362450865E+03  0.89867438437E+03  0.97106198554E+03  0.91638901109E+02 0.  0.
          1    1    3    3  502    0  0.10295184525E+03 -0.15604735150E+03 -0.22014462425E+03  0.28881397809E+03  0.00000000000E+00 0. -1.
         -2    1    3    3    0  502  0.26025611360E+03 -0.22644145157E+03 -0.50472965143E+03  0.61135995673E+03  0.00000000000E+00 0.  1.
         11    1    5    5    0    0 -0.25263416551E+03 -0.80306752273E+01 -0.38269089504E+02  0.25564239973E+03  0.00000000000E+00 0. -1.
        -11    1    5    5    0    0 -0.67010628497E+02  0.36894969661E+02 -0.53599861416E+02  0.93405611511E+02  0.00000000000E+00 0.  1.
          1    1    6    6  503    0 -0.61627213793E+02  0.30313850340E+03  0.81445318415E+03  0.87122032511E+03  0.00000000000E+00 0. -1.
         -1    1    6    6    0  503  0.18064048949E+02  0.50486005249E+02  0.84221200223E+02  0.99841660430E+02  0.00000000000E+00 0.  1.
<mgrwt>
<rscale>  0 0.22187717E+04</rscale>
<asrwt>0</asrwt>
<pdfrwt beam="1">  1        1 0.17709347E+00 0.22187717E+04</pdfrwt>
<pdfrwt beam="2">  1       -2 0.16448867E+00 0.22187717E+04</pdfrwt>
<totfact> 0.21645612E+00</totfact>
</mgrwt>
</event>
<event>
12    4  0.4320235E-008  0.2381108E+04  0.7818608E-02  0.8446610E-01
         -2   -1    0    0    0  501 -0.00000000000E+00  0.00000000000E+00  0.95340295760E+03  0.95340295760E+03  0.00000000000E+00 0.  1.
          1   -1    0    0  501    0  0.00000000000E+00 -0.00000000000E+00 -0.14866945693E+04  0.14866945693E+04  0.00000000000E+00 0. -1.
        -24    2    1    2    0    0 -0.24021544081E+01 -0.81078320058E+03 -0.86265279514E+03  0.11861448713E+04  0.73448227423E+02 0.  0.
        254    2    1    2    0    0  0.24021544081E+01  0.81078320058E+03  0.32936118348E+03  0.12539526555E+04  0.89807756039E+03 0.  0.
         23    2    4    4    0    0 -0.25437854189E+03  0.68147300880E+03  0.51778716818E+03  0.89760146051E+03  0.92037634038E+02 0.  0.
         23    2    4    4    0    0  0.25678069630E+03  0.12931019178E+03 -0.18842598470E+03  0.35635119504E+03  0.93938122181E+02 0.  0.
          3    1    3    3  502    0  0.15690040234E+02 -0.76058101098E+03 -0.80659756432E+03  0.11087512266E+04  0.00000000000E+00 0. -1.
         -4    1    3    3    0  502 -0.18092194642E+02 -0.50202189601E+02 -0.56055230819E+02  0.77393644765E+02  0.00000000000E+00 0.  1.
         11    1    5    5    0    0 -0.21983466841E+03  0.65082839749E+03  0.48209786792E+03  0.83923967892E+03  0.00000000000E+00 0.  1.
        -11    1    5    5    0    0 -0.34543873484E+02  0.30644611305E+02  0.35689300261E+02  0.58361781591E+02  0.00000000000E+00 0. -1.
          2    1    6    6  503    0  0.22247787101E+02  0.47755035855E+02 -0.20199581876E+02  0.56422784302E+02  0.00000000000E+00 0. -1.
         -2    1    6    6    0  503  0.23453290920E+03  0.81555155930E+02 -0.16822640283E+03  0.29992841073E+03  0.00000000000E+00 0.  1.
<mgrwt>
<rscale>  0 0.23811081E+04</rscale>
<asrwt>0</asrwt>
<pdfrwt beam="1">  1        1 0.22872224E+00 0.23811081E+04</pdfrwt>
<pdfrwt beam="2">  1       -2 0.14667738E+00 0.23811081E+04</pdfrwt>
<totfact> 0.16741948E+00</totfact>
</mgrwt>
</event>
<event>
12    4  0.4320235E-008  0.2230823E+04  0.7818608E-02  0.8505707E-01
         -2   -1    0    0    0  501 -0.00000000000E+00  0.00000000000E+00  0.10270755053E+04  0.10270755053E+04  0.00000000000E+00 0.  1.
          1   -1    0    0  501    0  0.00000000000E+00 -0.00000000000E+00 -0.12113450618E+04  0.12113450618E+04  0.00000000000E+00 0. -1.
        -24    2    1    2    0    0 -0.84161847786E+03 -0.32431041095E+03 -0.30572487005E+03  0.95569994866E+03  0.79973688115E+02 0.  0.
        254    2    1    2    0    0  0.84161847786E+03  0.32431041095E+03  0.12145531358E+03  0.12827206184E+04  0.90394794475E+03 0.  0.
         23    2    4    4    0    0  0.39836071017E+03  0.30635323119E+03 -0.35766866638E+03  0.62351713535E+03  0.91121816752E+02 0.  0.
         23    2    4    4    0    0  0.44325776768E+03  0.17957179752E+02  0.47912397996E+03  0.65920348308E+03  0.90496049699E+02 0.  0.
          1    1    3    3  502    0 -0.83008430468E+03 -0.32901208128E+03 -0.29970804185E+03  0.94186719492E+03  0.00000000000E+00 0. -1.
         -2    1    3    3    0  502 -0.11534173172E+02  0.47016703311E+01 -0.60168281932E+01  0.13832753745E+02  0.00000000000E+00 0.  1.
         11    1    5    5    0    0  0.26427634178E+03  0.24145784866E+03 -0.28609480987E+03  0.45825115138E+03  0.00000000000E+00 0.  1.
        -11    1    5    5    0    0  0.13408436839E+03  0.64895382537E+02 -0.71573856505E+02  0.16526598397E+03  0.00000000000E+00 0. -1.
          1    1    6    6  503    0  0.18441223661E+03  0.32449867430E+02  0.25591952755E+03  0.31710514264E+03  0.00000000000E+00 0. -1.
         -1    1    6    6    0  503  0.25884553107E+03 -0.14492687678E+02  0.22320445241E+03  0.34209834044E+03  0.00000000000E+00 0.  1.
<mgrwt>
<rscale>  0 0.22308230E+04</rscale>
<asrwt>0</asrwt>
<pdfrwt beam="1">  1        1 0.18636078E+00 0.22308230E+04</pdfrwt>
<pdfrwt beam="2">  1       -2 0.15801162E+00 0.22308230E+04</pdfrwt>
<totfact> 0.21794832E+00</totfact>
</mgrwt>
</event>
<event>
12    4  0.4320235E-008  0.1879229E+04  0.7818608E-02  0.8665265E-01
          1   -1    0    0  501    0  0.00000000000E+00  0.00000000000E+00  0.61467075192E+03  0.61467075192E+03  0.00000000000E+00 0. -1.
         -2   -1    0    0    0  501 -0.00000000000E+00 -0.00000000000E+00 -0.14363389597E+04  0.14363389597E+04  0.00000000000E+00 0.  1.
        -24    2    1    2    0    0 -0.62859695264E+03  0.33141081847E+02 -0.70244934842E+03  0.94648500223E+03  0.78525869410E+02 0.  0.
        254    2    1    2    0    0  0.62859695264E+03 -0.33141081847E+02 -0.11921885933E+03  0.11045247094E+04  0.89973842699E+03 0.  0.
         23    2    4    4    0    0  0.21892839865E+03 -0.79453510369E+02  0.37743728182E+03  0.45269913195E+03  0.90747442444E+02 0.  0.
         23    2    4    4    0    0  0.40966855399E+03  0.46312428521E+02 -0.49665614116E+03  0.65182557741E+03  0.90752937467E+02 0.  0.
          1    1    3    3  502    0 -0.37203789491E+03  0.48987727489E+02 -0.45382499947E+03  0.58887105791E+03  0.00000000000E+00 0. -1.
         -2    1    3    3    0  502 -0.25655905773E+03 -0.15846645642E+02 -0.24862434895E+03  0.35761394432E+03  0.00000000000E+00 0.  1.
         11    1    5    5    0    0  0.20564725190E+03 -0.41565399520E+02  0.31635250687E+03  0.37960161124E+03  0.00000000000E+00 0.  1.
        -11    1    5    5    0    0  0.13281146749E+02 -0.37888110849E+02  0.61084774957E+02  0.73097520712E+02  0.00000000000E+00 0. -1.
          2    1    6    6  503    0  0.56753582832E+02 -0.19052765147E+02 -0.10279981820E+03  0.11896125271E+03  0.00000000000E+00 0. -1.
         -2    1    6    6    0  503  0.35291497116E+03  0.65365193668E+02 -0.39385632295E+03  0.53286432470E+03  0.00000000000E+00 0.  1.
<mgrwt>
<rscale>  0 0.18792291E+04</rscale>
<asrwt>0</asrwt>
<pdfrwt beam="1">  1        1 0.94564732E-01 0.18792291E+04</pdfrwt>
<pdfrwt beam="2">  1       -2 0.22097522E+00 0.18792291E+04</pdfrwt>
<totfact> 0.26425329E+00</totfact>
</mgrwt>
</event>
<event>
12    4  0.4320235E-008  0.1771749E+04  0.7818608E-02  0.8721469E-01
          1   -1    0    0  501    0  0.00000000000E+00  0.00000000000E+00  0.14565882978E+04  0.14565882978E+04  0.00000000000E+00 0. -1.
         -2   -1    0    0    0  501 -0.00000000000E+00 -0.00000000000E+00 -0.53877510073E+03  0.53877510073E+03  0.00000000000E+00 0.  1.
        -24    2    1    2    0    0 -0.18150491559E+03 -0.45265776997E+03  0.82577471458E+03  0.96224572432E+03  0.78548479577E+02 0.  0.
        254    2    1    2    0    0  0.18150491559E+03  0.45265776997E+03  0.92038482500E+02  0.10331176742E+04  0.90610041133E+03 0.  0.
         23    2    4    4    0    0 -0.74555151253E+02 -0.10088989234E+03 -0.27347145938E+03  0.31686140113E+03  0.99384442846E+02 0.  0.
         23    2    4    4    0    0  0.25606006684E+03  0.55354766231E+03  0.36550994188E+03  0.71625627308E+03  0.86277220880E+02 0.  0.
          1    1    3    3  502    0 -0.92118931557E+02 -0.32174448206E+03  0.53454327124E+03  0.63066783501E+03  0.00000000000E+00 0. -1.
         -2    1    3    3    0  502 -0.89385984030E+02 -0.13091328791E+03  0.29123144334E+03  0.33157788931E+03  0.00000000000E+00 0.  1.
         11    1    5    5    0    0  0.58904647764E+01  0.11010786492E+02 -0.23266611014E+01  0.12702296892E+02  0.00000000000E+00 0.  1.
        -11    1    5    5    0    0 -0.80445616029E+02 -0.11190067883E+03 -0.27114479827E+03  0.30415910424E+03  0.00000000000E+00 0. -1.
          1    1    6    6  503    0  0.26089383213E+03  0.51773333429E+03  0.34678928858E+03  0.67555622101E+03  0.00000000000E+00 0. -1.
         -1    1    6    6    0  503 -0.48337652949E+01  0.35814328017E+02  0.18720653300E+02  0.40700052066E+02  0.00000000000E+00 0.  1.
<mgrwt>
<rscale>  0 0.17717489E+04</rscale>
<asrwt>0</asrwt>
<pdfrwt beam="1">  1        1 0.22409051E+00 0.17717489E+04</pdfrwt>
<pdfrwt beam="2">  1       -2 0.82888478E-01 0.17717489E+04</pdfrwt>
<totfact> 0.74261602E+00</totfact>
</mgrwt>
</event>
<event>
12    4  0.4320235E-008  0.1841914E+04  0.7818608E-02  0.8684322E-01
         -2   -1    0    0    0  501 -0.00000000000E+00  0.00000000000E+00  0.91633094699E+03  0.91633094699E+03  0.00000000000E+00 0.  1.
          1   -1    0    0  501    0  0.00000000000E+00 -0.00000000000E+00 -0.92560623885E+03  0.92560623885E+03  0.00000000000E+00 0. -1.
        -24    2    1    2    0    0 -0.42868382022E+03 -0.26228829368E+03  0.48340156884E+03  0.70189968276E+03  0.80131898644E+02 0.  0.
        254    2    1    2    0    0  0.42868382022E+03  0.26228829368E+03 -0.49267686071E+03  0.11400375031E+04  0.89687794746E+03 0.  0.
         23    2    4    4    0    0 -0.27317778303E+02  0.52294745538E+02 -0.60705946777E+03  0.61675170351E+03  0.91544879409E+02 0.  0.
         23    2    4    4    0    0  0.45600159852E+03  0.20999354815E+03  0.11438260706E+03  0.52328579957E+03  0.93326840296E+02 0.  0.
          1    1    3    3  502    0 -0.36532640725E+02 -0.42863012402E+02  0.31165608062E+02  0.64367435838E+02  0.00000000000E+00 0. -1.
         -2    1    3    3    0  502 -0.39215117949E+03 -0.21942528128E+03  0.45223596078E+03  0.63753224692E+03  0.00000000000E+00 0.  1.
         11    1    5    5    0    0 -0.49800988049E+02  0.45239264662E+02 -0.56094421051E+03  0.56496472172E+03  0.00000000000E+00 0. -1.
        -11    1    5    5    0    0  0.22483209746E+02  0.70554808760E+01 -0.46115257260E+02  0.51786981791E+02  0.00000000000E+00 0.  1.
          2    1    6    6  503    0  0.32527679463E+03  0.14824418040E+03  0.12407554065E+03  0.37838613867E+03  0.00000000000E+00 0. -1.
         -2    1    6    6    0  503  0.13072480389E+03  0.61749367748E+02 -0.96929335871E+01  0.14489966091E+03  0.00000000000E+00 0.  1.
<mgrwt>
<rscale>  0 0.18419138E+04</rscale>
<asrwt>0</asrwt>
<pdfrwt beam="1">  1        1 0.14240096E+00 0.18419138E+04</pdfrwt>
<pdfrwt beam="2">  1       -2 0.14097399E+00 0.18419138E+04</pdfrwt>
<totfact> 0.50399910E+00</totfact>
</mgrwt>
</event>
<event>
12    4  0.4320235E-008  0.1731546E+04  0.7818608E-02  0.8743574E-01
          3   -1    0    0  501    0  0.00000000000E+00  0.00000000000E+00  0.22350453490E+04  0.22350453490E+04  0.00000000000E+00 0. -1.
         -4   -1    0    0    0  501 -0.00000000000E+00 -0.00000000000E+00 -0.33536810496E+03  0.33536810496E+03  0.00000000000E+00 0.  1.
        -24    2    1    2    0    0 -0.46831116144E+03 -0.42548008686E+03  0.10216858750E+04  0.12043454569E+04  0.79103123451E+02 0.  0.
        254    2    1    2    0    0  0.46831116144E+03  0.42548008686E+03  0.87799136907E+03  0.13660679971E+04  0.83362118511E+03 0.  0.
         23    2    4    4    0    0  0.10659458787E+03  0.84397357260E+02 -0.14917672307E+03  0.22121164477E+03  0.90529426143E+02 0.  0.
         23    2    4    4    0    0  0.36171657357E+03  0.34108272960E+03  0.10271680921E+04  0.11448563523E+04  0.91899237771E+02 0.  0.
          1    1    3    3  502    0 -0.42194893493E+03 -0.38088341713E+03  0.95720185043E+03  0.11132602856E+04  0.00000000000E+00 0. -1.
         -2    1    3    3    0  502 -0.46362226518E+02 -0.44596669733E+02  0.64484024597E+02  0.91085171280E+02  0.00000000000E+00 0.  1.
         11    1    5    5    0    0 -0.75153044454E+01  0.12622624098E+02 -0.54590184892E+02  0.56532280394E+02  0.00000000000E+00 0.  1.
        -11    1    5    5    0    0  0.11410989232E+03  0.71774733162E+02 -0.94586538182E+02  0.16467936437E+03  0.00000000000E+00 0. -1.
          1    1    6    6  503    0  0.33705811732E+03  0.31272704295E+03  0.87893092242E+03  0.99193041300E+03  0.00000000000E+00 0. -1.
         -1    1    6    6    0  503  0.24658456247E+02  0.28355686655E+02  0.14823716972E+03  0.15292593932E+03  0.00000000000E+00 0.  1.
<mgrwt>
<rscale>  0 0.17315460E+04</rscale>
<asrwt>0</asrwt>
<pdfrwt beam="1">  1        3 0.34385312E+00 0.17315460E+04</pdfrwt>
<pdfrwt beam="2">  1       -4 0.51595094E-01 0.17315460E+04</pdfrwt>
<totfact> 0.17596967E-01</totfact>
</mgrwt>
</event>
<event>
12    4  0.4320235E-008  0.1101426E+04  0.7818608E-02  0.9203803E-01
          1   -1    0    0  501    0  0.00000000000E+00  0.00000000000E+00  0.32974534696E+04  0.32974534696E+04  0.00000000000E+00 0. -1.
         -2   -1    0    0    0  501 -0.00000000000E+00 -0.00000000000E+00 -0.91975454091E+02  0.91975454091E+02  0.00000000000E+00 0.  1.
        -24    2    1    2    0    0  0.19454006479E+02 -0.66038318677E+02  0.99839813852E+03  0.10039428409E+04  0.79767580244E+02 0.  0.
        254    2    1    2    0    0 -0.19454006479E+02  0.66038318677E+02  0.22070798769E+04  0.23854860828E+04  0.90255346099E+03 0.  0.
         23    2    4    4    0    0 -0.25490461501E+03  0.36619049151E+03  0.15855744409E+04  0.16496452446E+04  0.90616148798E+02 0.  0.
         23    2    4    4    0    0  0.23545060853E+03 -0.30015217284E+03  0.62150543603E+03  0.73584083819E+03  0.98307762793E+02 0.  0.
          1    1    3    3  502    0  0.14174505196E+02 -0.62891116689E+02  0.37409008442E+03  0.37960453161E+03  0.00000000000E+00 0. -1.
         -2    1    3    3    0  502  0.52795012827E+01 -0.31472019881E+01  0.62430805410E+03  0.62433830927E+03  0.00000000000E+00 0.  1.
         11    1    5    5    0    0 -0.36390818709E+02  0.10654513446E+03  0.31437044043E+03  0.33392354092E+03  0.00000000000E+00 0. -1.
        -11    1    5    5    0    0 -0.21851379630E+03  0.25964535706E+03  0.12712040005E+04  0.13157217037E+04  0.00000000000E+00 0.  1.
          4    1    6    6  503    0  0.11188557379E+03 -0.18825366956E+03  0.42537695283E+03  0.47843847852E+03  0.00000000000E+00 0. -1.
         -4    1    6    6    0  503  0.12356503474E+03 -0.11189850327E+03  0.19612848319E+03  0.25740235967E+03  0.00000000000E+00 0.  1.
<mgrwt>
<rscale>  0 0.11014259E+04</rscale>
<asrwt>0</asrwt>
<pdfrwt beam="1">  1        1 0.50730044E+00 0.11014259E+04</pdfrwt>
<pdfrwt beam="2">  1       -2 0.14150072E-01 0.11014259E+04</pdfrwt>
<totfact> 0.12449295E+01</totfact>
</mgrwt>
</event>
<event>
12    4  0.4320235E-008  0.1977747E+04  0.7818608E-02  0.8617096E-01
          1   -1    0    0  501    0  0.00000000000E+00  0.00000000000E+00  0.55618429602E+03  0.55618429602E+03  0.00000000000E+00 0. -1.
         -2   -1    0    0    0  501 -0.00000000000E+00 -0.00000000000E+00 -0.17581768117E+04  0.17581768117E+04  0.00000000000E+00 0.  1.
        -24    2    1    2    0    0 -0.15890068875E+03 -0.64418827898E+03 -0.92661044711E+03  0.11424541136E+04  0.79790434438E+02 0.  0.
        254    2    1    2    0    0  0.15890068875E+03  0.64418827898E+03 -0.27538206853E+03  0.11719069940E+04  0.92590644849E+03 0.  0.
         23    2    4    4    0    0  0.28751895008E+03  0.75250880061E+03  0.29684589430E+02  0.81180559786E+03  0.95971413562E+02 0.  0.
         23    2    4    4    0    0 -0.12861826133E+03 -0.10832052163E+03 -0.30506665796E+03  0.36010139618E+03  0.91276268424E+02 0.  0.
          1    1    3    3  502    0 -0.14296000594E+02 -0.91299687287E+01 -0.23233372391E+02  0.28766674376E+02  0.00000000000E+00 0. -1.
         -2    1    3    3    0  502 -0.14460468816E+03 -0.63505831025E+03 -0.90337707472E+03  0.11136874393E+04  0.00000000000E+00 0.  1.
         11    1    5    5    0    0  0.17054599938E+02  0.98679906931E+01  0.76603703111E+01  0.21140432651E+02  0.00000000000E+00 0.  1.
        -11    1    5    5    0    0  0.27046435015E+03  0.74264080992E+03  0.22024219119E+02  0.79066516521E+03  0.00000000000E+00 0. -1.
          2    1    6    6  503    0 -0.13844433029E+03 -0.11446851727E+03 -0.28923552997E+03  0.34048063944E+03  0.00000000000E+00 0. -1.
         -2    1    6    6    0  503  0.98260689606E+01  0.61479956409E+01 -0.15831127995E+02  0.19620756744E+02  0.00000000000E+00 0.  1.
<mgrwt>
<rscale>  0 0.19777465E+04</rscale>
<asrwt>0</asrwt>
<pdfrwt beam="1">  1        1 0.85566816E-01 0.19777465E+04</pdfrwt>
<pdfrwt beam="2">  1       -2 0.27048874E+00 0.19777465E+04</pdfrwt>
<totfact> 0.14959177E+00</totfact>
</mgrwt>
</event>
<event>
12    4  0.4320235E-008  0.1411005E+04  0.7818608E-02  0.8945891E-01
          1   -1    0    0  501    0  0.00000000000E+00  0.00000000000E+00  0.19654881189E+04  0.19654881189E+04  0.00000000000E+00 0. -1.
         -2   -1    0    0    0  501 -0.00000000000E+00 -0.00000000000E+00 -0.25323682010E+03  0.25323682010E+03  0.00000000000E+00 0.  1.
        -24    2    1    2    0    0 -0.21993169541E+03 -0.26674738440E+03  0.86222319044E+03  0.93232338814E+03  0.79208283735E+02 0.  0.
        254    2    1    2    0    0  0.21993169541E+03  0.26674738440E+03  0.85002810839E+03  0.12864015509E+04  0.90153039182E+03 0.  0.
         23    2    4    4    0    0  0.98785571895E+02  0.39049050918E+03  0.97170543986E+03  0.10556111074E+04  0.88667475819E+02 0.  0.
         23    2    4    4    0    0  0.12114612351E+03 -0.12374312478E+03 -0.12167733147E+03  0.23079044348E+03  0.92033209408E+02 0.  0.
          1    1    3    3  502    0 -0.16018556426E+03 -0.24097781545E+03  0.71717425848E+03  0.77334897657E+03  0.00000000000E+00 0. -1.
         -2    1    3    3    0  502 -0.59746131150E+02 -0.25769568945E+02  0.14504893196E+03  0.15897441157E+03  0.00000000000E+00 0.  1.
         11    1    5    5    0    0 -0.54479074076E+01  0.76647660625E+02  0.12645252124E+03  0.14796886059E+03  0.00000000000E+00 0. -1.
        -11    1    5    5    0    0  0.10423347930E+03  0.31384284856E+03  0.84525291862E+03  0.90764224683E+03  0.00000000000E+00 0.  1.
          4    1    6    6  503    0  0.45013267220E+02 -0.79592490210E+02 -0.15273535365E+02  0.92706200474E+02  0.00000000000E+00 0. -1.
         -4    1    6    6    0  503  0.76132856291E+02 -0.44150634574E+02 -0.10640379611E+03  0.13808424301E+03  0.00000000000E+00 0.  1.
<mgrwt>
<rscale>  0 0.14110053E+04</rscale>
<asrwt>0</asrwt>
<pdfrwt beam="1">  1        1 0.30238278E+00 0.14110053E+04</pdfrwt>
<pdfrwt beam="2">  1       -2 0.38959512E-01 0.14110053E+04</pdfrwt>
<totfact> 0.16762814E+01</totfact>
</mgrwt>
</event>
<event>
12    4  0.4320235E-008  0.1388475E+04  0.7818608E-02  0.8962203E-01
         -2   -1    0    0    0  501 -0.00000000000E+00  0.00000000000E+00  0.93051657603E+03  0.93051657603E+03  0.00000000000E+00 0.  1.
          1   -1    0    0  501    0  0.00000000000E+00 -0.00000000000E+00 -0.51795518910E+03  0.51795518910E+03  0.00000000000E+00 0. -1.
        -24    2    1    2    0    0  0.19594054873E+03 -0.20283447482E+03 -0.17073650259E+03  0.33883478002E+03  0.78253000096E+02 0.  0.
        254    2    1    2    0    0 -0.19594054873E+03  0.20283447482E+03  0.58329788952E+03  0.11096369851E+04  0.90084587360E+03 0.  0.
         23    2    4    4    0    0 -0.18061889545E+03  0.44401076332E+03  0.18306733998E+02  0.48836688008E+03  0.91642401278E+02 0.  0.
         23    2    4    4    0    0 -0.15321653284E+02 -0.24117628849E+03  0.56499115552E+03  0.62127010503E+03  0.91437313988E+02 0.  0.
          3    1    3    3  502    0  0.99327369712E+02 -0.10705441151E+03 -0.13332032817E+03  0.19773943284E+03  0.00000000000E+00 0. -1.
         -4    1    3    3    0  502  0.96613179017E+02 -0.95780063311E+02 -0.37416174420E+02  0.14109534718E+03  0.00000000000E+00 0.  1.
         11    1    5    5    0    0 -0.13051262852E+03  0.39552834691E+03  0.90444288279E+00  0.41650574718E+03  0.00000000000E+00 0.  1.
        -11    1    5    5    0    0 -0.50106266921E+02  0.48482416402E+02  0.17402291115E+02  0.71861132895E+02  0.00000000000E+00 0. -1.
          4    1    6    6  503    0  0.23736698220E+02 -0.70930875052E+02  0.10245764187E+03  0.12685498909E+03  0.00000000000E+00 0. -1.
         -4    1    6    6    0  503 -0.39058351505E+02 -0.17024541344E+03  0.46253351365E+03  0.49441511594E+03  0.00000000000E+00 0.  1.
<mgrwt>
<rscale>  0 0.13884753E+04</rscale>
<asrwt>0</asrwt>
<pdfrwt beam="1">  1        1 0.79685414E-01 0.13884753E+04</pdfrwt>
<pdfrwt beam="2">  1       -2 0.14315640E+00 0.13884753E+04</pdfrwt>
<totfact> 0.12197923E+01</totfact>
</mgrwt>
</event>
<event>
12    4  0.4320235E-008  0.1867661E+04  0.7818608E-02  0.8671123E-01
         -2   -1    0    0    0  501 -0.00000000000E+00  0.00000000000E+00  0.12027435754E+04  0.12027435754E+04  0.00000000000E+00 0.  1.
          1   -1    0    0  501    0  0.00000000000E+00 -0.00000000000E+00 -0.72504179283E+03  0.72504179283E+03  0.00000000000E+00 0. -1.
        -24    2    1    2    0    0 -0.63888639224E+03  0.27811352675E+03  0.22719140447E+02  0.70163678908E+03  0.79088990945E+02 0.  0.
        254    2    1    2    0    0  0.63888639224E+03 -0.27811352675E+03  0.45498264208E+03  0.12261485791E+04  0.90050440170E+03 0.  0.
         23    2    4    4    0    0  0.45836642565E+03  0.16123950521E+03  0.54317020370E+03  0.73470637927E+03  0.93067907226E+02 0.  0.
         23    2    4    4    0    0  0.18051996660E+03 -0.43935303195E+03 -0.88187561617E+02  0.49144219983E+03  0.90110181028E+02 0.  0.
          1    1    3    3  502    0 -0.63717003021E+02  0.42408573492E+01  0.86096915831E+01  0.64435767506E+02  0.00000000000E+00 0. -1.
         -2    1    3    3    0  502 -0.57516938922E+03  0.27387266940E+03  0.14109448864E+02  0.63720102157E+03  0.00000000000E+00 0.  1.
         11    1    5    5    0    0  0.31439171862E+03  0.64328425590E+02  0.36409769475E+03  0.48533228864E+03  0.00000000000E+00 0. -1.
        -11    1    5    5    0    0  0.14397470703E+03  0.96911079617E+02  0.17907250895E+03  0.24937409063E+03  0.00000000000E+00 0.  1.
          3    1    6    6  503    0  0.89824792896E+02 -0.24888652561E+03 -0.92893399171E+02  0.28043213022E+03  0.00000000000E+00 0. -1.
         -3    1    6    6    0  503  0.90695173703E+02 -0.19046650635E+03  0.47058375543E+01  0.21101006962E+03  0.00000000000E+00 0.  1.
<mgrwt>
<rscale>  0 0.18676610E+04</rscale>
<asrwt>0</asrwt>
<pdfrwt beam="1">  1        1 0.11154489E+00 0.18676610E+04</pdfrwt>
<pdfrwt beam="2">  1       -2 0.18503747E+00 0.18676610E+04</pdfrwt>
<totfact> 0.35499378E+00</totfact>
</mgrwt>
</event>
<event>
12    4  0.4320235E-008  0.3108230E+04  0.7818608E-02  0.8213483E-01
          1   -1    0    0  501    0  0.00000000000E+00  0.00000000000E+00  0.21360164965E+04  0.21360164965E+04  0.00000000000E+00 0. -1.
         -2   -1    0    0    0  501 -0.00000000000E+00 -0.00000000000E+00 -0.11307370291E+04  0.11307370291E+04  0.00000000000E+00 0.  1.
        -24    2    1    2    0    0 -0.10638374272E+04  0.96916214571E+03  0.40513684494E+03  0.14970919403E+04  0.78250100569E+02 0.  0.
        254    2    1    2    0    0  0.10638374272E+04 -0.96916214571E+03  0.60014262245E+03  0.17696615853E+04  0.83696213957E+03 0.  0.
         23    2    4    4    0    0  0.10361588065E+04 -0.70317817338E+03  0.18774488425E+03  0.12697857332E+04  0.94989740870E+02 0.  0.
         23    2    4    4    0    0  0.27678620722E+02 -0.26598397233E+03  0.41239773820E+03  0.49987585213E+03  0.91051597925E+02 0.  0.
          1    1    3    3  502    0 -0.86837502104E+03  0.76694230118E+03  0.35212139752E+03  0.12108943592E+04  0.00000000000E+00 0. -1.
         -4    1    3    3    0  502 -0.19546240620E+03  0.20221984454E+03  0.53015447416E+02  0.28619758110E+03  0.00000000000E+00 0.  1.
         11    1    5    5    0    0  0.39079054284E+03 -0.24164107702E+03  0.27084422673E+02  0.46026212578E+03  0.00000000000E+00 0.  1.
        -11    1    5    5    0    0  0.64536826368E+03 -0.46153709636E+03  0.16066046157E+03  0.80952360743E+03  0.00000000000E+00 0. -1.
          3    1    6    6  503    0 -0.15958365109E+02 -0.62010469127E+02  0.48089768325E+02  0.80078670792E+02  0.00000000000E+00 0. -1.
         -3    1    6    6    0  503  0.43636985832E+02 -0.20397350321E+03  0.36430796987E+03  0.41979718133E+03  0.00000000000E+00 0.  1.
<mgrwt>
<rscale>  0 0.31082297E+04</rscale>
<asrwt>0</asrwt>
<pdfrwt beam="1">  1        1 0.32861792E+00 0.31082297E+04</pdfrwt>
<pdfrwt beam="2">  1       -2 0.17395954E+00 0.31082297E+04</pdfrwt>
<totfact> 0.35687835E-01</totfact>
</mgrwt>
</event>
<event>
12    4  0.4320235E-008  0.1028585E+04  0.7818608E-02  0.9277737E-01
         -2   -1    0    0    0  501 -0.00000000000E+00  0.00000000000E+00  0.15734646266E+03  0.15734646266E+03  0.00000000000E+00 0.  1.
          1   -1    0    0  501    0  0.00000000000E+00 -0.00000000000E+00 -0.16809845295E+04  0.16809845295E+04  0.00000000000E+00 0. -1.
        -24    2    1    2    0    0  0.84464590753E+02  0.82742936800E+02 -0.10842695453E+03  0.17846331392E+03  0.78179852045E+02 0.  0.
        254    2    1    2    0    0 -0.84464590753E+02 -0.82742936800E+02 -0.14152111123E+04  0.16598676782E+04  0.85927734532E+03 0.  0.
         23    2    4    4    0    0  0.37079639410E+03 -0.11258852159E+03 -0.57734357652E+03  0.70135978358E+03  0.91726765967E+02 0.  0.
         23    2    4    4    0    0 -0.45526098486E+03  0.29845584791E+02 -0.83786753574E+03  0.95850789462E+03  0.92531364062E+02 0.  0.
          3    1    3    3  502    0  0.34337143162E+02  0.30530515927E+02  0.24949481196E+01  0.46014960278E+02  0.00000000000E+00 0. -1.
         -4    1    3    3    0  502  0.50127447592E+02  0.52212420873E+02 -0.11092190265E+03  0.13244835364E+03  0.00000000000E+00 0.  1.
         11    1    5    5    0    0  0.11732196700E+03 -0.80922121497E+02 -0.21885352940E+03  0.26116987004E+03  0.00000000000E+00 0. -1.
        -11    1    5    5    0    0  0.25347442711E+03 -0.31666400093E+02 -0.35849004712E+03  0.44018991354E+03  0.00000000000E+00 0.  1.
          4    1    6    6  503    0 -0.54832471708E+02 -0.25799485717E+02 -0.92985809961E+02  0.11098907275E+03  0.00000000000E+00 0. -1.
         -4    1    6    6    0  503 -0.40042851315E+03  0.55645070507E+02 -0.74488172578E+03  0.84751882186E+03  0.00000000000E+00 0.  1.
<mgrwt>
<rscale>  0 0.10285854E+04</rscale>
<asrwt>0</asrwt>
<pdfrwt beam="1">  1        1 0.25861300E+00 0.10285854E+04</pdfrwt>
<pdfrwt beam="2">  1       -2 0.24207148E-01 0.10285854E+04</pdfrwt>
<totfact> 0.65681559E+01</totfact>
</mgrwt>
</event>
<event>
12    4  0.4320235E-008  0.1871793E+04  0.7818608E-02  0.8669026E-01
         -2   -1    0    0    0  501 -0.00000000000E+00  0.00000000000E+00  0.67027540217E+03  0.67027540217E+03  0.00000000000E+00 0.  1.
          1   -1    0    0  501    0  0.00000000000E+00 -0.00000000000E+00 -0.13067795164E+04  0.13067795164E+04  0.00000000000E+00 0. -1.
        -24    2    1    2    0    0 -0.21133074368E+03  0.72316968798E+02  0.47362185554E+03  0.52958630493E+03  0.79079486090E+02 0.  0.
        254    2    1    2    0    0  0.21133074368E+03 -0.72316968798E+02 -0.11101259697E+04  0.14474686136E+04  0.90160706049E+03 0.  0.
         23    2    4    4    0    0  0.46156132363E+03 -0.31780493600E+03 -0.66130443566E+03  0.87140823795E+03  0.89386395676E+02 0.  0.
         23    2    4    4    0    0 -0.25023057994E+03  0.24548796720E+03 -0.44882153406E+03  0.57606037565E+03  0.86747344528E+02 0.  0.
          3    1    3    3  502    0 -0.46524596714E+02  0.33071548234E+02  0.61014617728E+02  0.83552671881E+02  0.00000000000E+00 0. -1.
         -4    1    3    3    0  502 -0.16480614697E+03  0.39245420564E+02  0.41260723781E+03  0.44603363304E+03  0.00000000000E+00 0.  1.
         11    1    5    5    0    0  0.29201738999E+03 -0.21492921257E+03 -0.36195656400E+03  0.51232926590E+03  0.00000000000E+00 0.  1.
        -11    1    5    5    0    0  0.16954393364E+03 -0.10287572343E+03 -0.29934787166E+03  0.35907897205E+03  0.00000000000E+00 0. -1.
          3    1    6    6  503    0 -0.12258682851E+03  0.11386983606E+03 -0.14599744649E+03  0.22205657943E+03  0.00000000000E+00 0. -1.
         -3    1    6    6    0  503 -0.12764375144E+03  0.13161813114E+03 -0.30282408757E+03  0.35400379622E+03  0.00000000000E+00 0.  1.
<mgrwt>
<rscale>  0 0.18717929E+04</rscale>
<asrwt>0</asrwt>
<pdfrwt beam="1">  1        1 0.20104300E+00 0.18717929E+04</pdfrwt>
<pdfrwt beam="2">  1       -2 0.10311929E+00 0.18717929E+04</pdfrwt>
<totfact> 0.56503629E+00</totfact>
</mgrwt>
</event>
<event>
12    4  0.4320235E-008  0.1413739E+04  0.7818608E-02  0.8943933E-01
         -2   -1    0    0    0  501 -0.00000000000E+00  0.00000000000E+00  0.53831554852E+03  0.53831554852E+03  0.00000000000E+00 0.  1.
          1   -1    0    0  501    0  0.00000000000E+00 -0.00000000000E+00 -0.92819946907E+03  0.92819946907E+03  0.00000000000E+00 0. -1.
        -24    2    1    2    0    0  0.13540554682E+03 -0.90117014718E+01  0.29435105440E+03  0.33399826093E+03  0.80600385904E+02 0.  0.
        254    2    1    2    0    0 -0.13540554682E+03  0.90117014718E+01 -0.68423497494E+03  0.11325167567E+04  0.89218878625E+03 0.  0.
         23    2    4    4    0    0  0.35169645922E+03  0.13195735408E+03 -0.35007835866E+03  0.52214143765E+03  0.94729514804E+02 0.  0.
         23    2    4    4    0    0 -0.48710200604E+03 -0.12294565261E+03 -0.33415661628E+03  0.61037531901E+03  0.92268023015E+02 0.  0.
          1    1    3    3  502    0  0.65967131376E+02 -0.44426853501E+02  0.15985302142E+03  0.17854522170E+03  0.00000000000E+00 0. -1.
         -2    1    3    3    0  502  0.69438415441E+02  0.35415152029E+02  0.13449803298E+03  0.15545303924E+03  0.00000000000E+00 0.  1.
         11    1    5    5    0    0  0.33352302949E+03  0.13122977698E+03 -0.35375163751E+03  0.50358622559E+03  0.00000000000E+00 0.  1.
        -11    1    5    5    0    0  0.18173429738E+02  0.72757710634E+00  0.36732788487E+01  0.18555212054E+02  0.00000000000E+00 0. -1.
          3    1    6    6  503    0 -0.15302463636E+03  0.44848457932E+01 -0.10664198738E+03  0.18657214863E+03  0.00000000000E+00 0. -1.
         -3    1    6    6    0  503 -0.33407736969E+03 -0.12743049841E+03 -0.22751462890E+03  0.42380317038E+03  0.00000000000E+00 0.  1.
<mgrwt>
<rscale>  0 0.14137386E+04</rscale>
<asrwt>0</asrwt>
<pdfrwt beam="1">  1        1 0.14279992E+00 0.14137386E+04</pdfrwt>
<pdfrwt beam="2">  1       -2 0.82817778E-01 0.14137386E+04</pdfrwt>
<totfact> 0.18835179E+01</totfact>
</mgrwt>
</event>
<event>
12    4  0.4320235E-008  0.1329871E+04  0.7818608E-02  0.9006207E-01
         -2   -1    0    0    0  501 -0.00000000000E+00  0.00000000000E+00  0.22787077987E+03  0.22787077987E+03  0.00000000000E+00 0.  1.
          1   -1    0    0  501    0  0.00000000000E+00 -0.00000000000E+00 -0.19403074719E+04  0.19403074719E+04  0.00000000000E+00 0. -1.
        -24    2    1    2    0    0  0.10072375936E+03  0.37980002310E+03 -0.62574329792E+03  0.74361606710E+03  0.83766622904E+02 0.  0.
        254    2    1    2    0    0 -0.10072375936E+03 -0.37980002310E+03 -0.10866933942E+04  0.14245621847E+04  0.83311556940E+03 0.  0.
         23    2    4    4    0    0 -0.74831441098E+02  0.21329206586E+03 -0.88692531977E+02  0.26018170452E+03  0.93460709397E+02 0.  0.
         23    2    4    4    0    0 -0.25892318260E+02 -0.59309208897E+03 -0.99800086218E+03  0.11643804802E+04  0.85717813846E+02 0.  0.
          1    1    3    3  502    0  0.38070066647E+02  0.45458637488E+02 -0.12382608481E+03  0.13729062960E+03  0.00000000000E+00 0. -1.
         -2    1    3    3    0  502  0.62653692712E+02  0.33434138562E+03 -0.50191721310E+03  0.60632543750E+03  0.00000000000E+00 0.  1.
         11    1    5    5    0    0 -0.44139274061E+01 -0.96919075869E+01 -0.54934386742E+01  0.11983058720E+02  0.00000000000E+00 0.  1.
        -11    1    5    5    0    0 -0.70417513692E+02  0.22298397345E+03 -0.83199093303E+02  0.24819864580E+03  0.00000000000E+00 0. -1.
          3    1    6    6  503    0 -0.25786147235E+02 -0.56877944296E+03 -0.91312645437E+03  0.10760924225E+04  0.00000000000E+00 0. -1.
         -3    1    6    6    0  503 -0.10617102491E+00 -0.24312646007E+02 -0.84874407810E+02  0.88288057682E+02  0.00000000000E+00 0.  1.
<mgrwt>
<rscale>  0 0.13298712E+04</rscale>
<asrwt>0</asrwt>
<pdfrwt beam="1">  1        1 0.29850885E+00 0.13298712E+04</pdfrwt>
<pdfrwt beam="2">  1       -2 0.35057042E-01 0.13298712E+04</pdfrwt>
<totfact> 0.21519624E+01</totfact>
</mgrwt>
</event>
<event>
12    4  0.4320235E-008  0.3831170E+04  0.7818608E-02  0.8039499E-01
         -2   -1    0    0    0  501 -0.00000000000E+00  0.00000000000E+00  0.13731685619E+04  0.13731685619E+04  0.00000000000E+00 0.  1.
          1   -1    0    0  501    0  0.00000000000E+00 -0.00000000000E+00 -0.26722622546E+04  0.26722622546E+04  0.00000000000E+00 0. -1.
        -24    2    1    2    0    0 -0.12100930301E+04 -0.25966688208E+03  0.77932317653E+03  0.14647219733E+04  0.79459515936E+02 0.  0.
        254    2    1    2    0    0  0.12100930301E+04  0.25966688208E+03 -0.20784168691E+04  0.25807088432E+04  0.89916039734E+03 0.  0.
         23    2    4    4    0    0  0.86623554284E+03  0.32129505454E+03 -0.20078477696E+04  0.22120506653E+04  0.90116324213E+02 0.  0.
         23    2    4    4    0    0  0.34385748722E+03 -0.61628172466E+02 -0.70569099499E+02  0.36865817789E+03  0.94301914928E+02 0.  0.
          3    1    3    3  502    0 -0.45702774364E+02 -0.19960683278E+02  0.17956886355E+02  0.53005869760E+02  0.00000000000E+00 0. -1.
         -4    1    3    3    0  502 -0.11643902557E+04 -0.23970619880E+03  0.76136629017E+03  0.14117161036E+04  0.00000000000E+00 0.  1.
         11    1    5    5    0    0  0.55186557868E+03  0.24096824045E+03 -0.12411090223E+04  0.13794828433E+04  0.00000000000E+00 0.  1.
        -11    1    5    5    0    0  0.31436996416E+03  0.80326814097E+02 -0.76673874734E+03  0.83256782192E+03  0.00000000000E+00 0. -1.
          3    1    6    6  503    0  0.30879820162E+03 -0.42272114385E+02 -0.32439209412E+02  0.31336171318E+03  0.00000000000E+00 0. -1.
         -3    1    6    6    0  503  0.35059285602E+02 -0.19356058081E+02 -0.38129890087E+02  0.55296464709E+02  0.00000000000E+00 0.  1.
<mgrwt>
<rscale>  0 0.38311703E+04</rscale>
<asrwt>0</asrwt>
<pdfrwt beam="1">  1        1 0.41111726E+00 0.38311703E+04</pdfrwt>
<pdfrwt beam="2">  1       -2 0.21125671E+00 0.38311703E+04</pdfrwt>
<totfact> 0.80583134E-02</totfact>
</mgrwt>
</event>
<event>
12    4  0.4320235E-008  0.3560244E+04  0.7818608E-02  0.8099659E-01
          1   -1    0    0  501    0  0.00000000000E+00  0.00000000000E+00  0.33089066939E+04  0.33089066939E+04  0.00000000000E+00 0. -1.
         -2   -1    0    0    0  501 -0.00000000000E+00 -0.00000000000E+00 -0.95766799982E+03  0.95766799982E+03  0.00000000000E+00 0.  1.
        -24    2    1    2    0    0 -0.10103462204E+04 -0.13168644089E+04  0.12755538703E+04  0.20950592357E+04  0.85464427936E+02 0.  0.
        254    2    1    2    0    0  0.10103462204E+04  0.13168644089E+04  0.10756848238E+04  0.21715154581E+04  0.89635382955E+03 0.  0.
         23    2    4    4    0    0  0.30831799663E+03  0.95980272200E+03  0.91095189361E+03  0.13616843671E+04  0.89831569631E+02 0.  0.
         23    2    4    4    0    0  0.70202822377E+03  0.35706168694E+03  0.16473293022E+03  0.80983109096E+03  0.91393557462E+02 0.  0.
          3    1    3    3  502    0 -0.53468025451E+02 -0.10561961036E+03  0.92302591769E+02  0.15011362458E+03  0.00000000000E+00 0. -1.
         -4    1    3    3    0  502 -0.95687819495E+03 -0.12112447986E+04  0.11832512785E+04  0.19449456111E+04  0.00000000000E+00 0.  1.
         11    1    5    5    0    0  0.31903618624E+01 -0.14003028049E+01  0.46408303508E+01  0.58031511357E+01  0.00000000000E+00 0. -1.
        -11    1    5    5    0    0  0.30512763476E+03  0.96120302481E+03  0.90631106325E+03  0.13558812160E+04  0.00000000000E+00 0.  1.
          1    1    6    6  503    0  0.27081001362E+02  0.19227856005E+02 -0.10779195338E+02  0.34918220651E+02  0.00000000000E+00 0. -1.
         -1    1    6    6    0  503  0.67494722241E+03  0.33783383093E+03  0.17551212556E+03  0.77491287031E+03  0.00000000000E+00 0.  1.
<mgrwt>
<rscale>  0 0.35602438E+04</rscale>
<asrwt>0</asrwt>
<pdfrwt beam="1">  1        1 0.50906256E+00 0.35602438E+04</pdfrwt>
<pdfrwt beam="2">  1       -2 0.14733354E+00 0.35602438E+04</pdfrwt>
<totfact> 0.78887063E-02</totfact>
</mgrwt>
</event>
<event>
12    4  0.4320235E-008  0.1592469E+04  0.7818608E-02  0.8825188E-01
         -2   -1    0    0    0  501 -0.00000000000E+00  0.00000000000E+00  0.16883575705E+04  0.16883575705E+04  0.00000000000E+00 0.  1.
          1   -1    0    0  501    0  0.00000000000E+00 -0.00000000000E+00 -0.37550665055E+03  0.37550665055E+03  0.00000000000E+00 0. -1.
        -24    2    1    2    0    0 -0.10521689379E+03  0.80864375642E+02  0.11192189659E+04  0.11293995445E+04  0.72681465293E+02 0.  0.
        254    2    1    2    0    0  0.10521689379E+03 -0.80864375642E+02  0.19363195406E+03  0.93446467661E+03  0.90450055623E+03 0.  0.
         23    2    4    4    0    0 -0.13228031817E+02 -0.41210377284E+03 -0.13718099723E+03  0.44263633004E+03  0.84284009533E+02 0.  0.
         23    2    4    4    0    0  0.11844492561E+03  0.33123939719E+03  0.33081295129E+03  0.49182834657E+03  0.93322961195E+02 0.  0.
          3    1    3    3  502    0 -0.73898227511E+01 -0.12588270669E+02  0.16383342665E+03  0.16448241769E+03  0.00000000000E+00 0. -1.
         -4    1    3    3    0  502 -0.97827071038E+02  0.93452646310E+02  0.95538553926E+03  0.96491712678E+03  0.00000000000E+00 0.  1.
         11    1    5    5    0    0  0.17704336418E+02 -0.23001223151E+03 -0.40700688114E+02  0.23425545070E+03  0.00000000000E+00 0. -1.
        -11    1    5    5    0    0 -0.30932368234E+02 -0.18209154133E+03 -0.96480309119E+02  0.20838087934E+03  0.00000000000E+00 0.  1.
          1    1    6    6  503    0  0.30121546261E+02  0.21440479634E+03  0.21480451372E+03  0.30498803806E+03  0.00000000000E+00 0. -1.
         -1    1    6    6    0  503  0.88323379344E+02  0.11683460085E+03  0.11600843757E+03  0.18684030851E+03  0.00000000000E+00 0.  1.
<mgrwt>
<rscale>  0 0.15924691E+04</rscale>
<asrwt>0</asrwt>
<pdfrwt beam="1">  1        1 0.57770255E-01 0.15924691E+04</pdfrwt>
<pdfrwt beam="2">  1       -2 0.25974731E+00 0.15924691E+04</pdfrwt>
<totfact> 0.30687480E+00</totfact>
</mgrwt>
</event>
<event>
12    4  0.4320235E-008  0.1516859E+04  0.7818608E-02  0.8873319E-01
         -2   -1    0    0    0  501 -0.00000000000E+00  0.00000000000E+00  0.16995151900E+03  0.16995151900E+03  0.00000000000E+00 0.  1.
          1   -1    0    0  501    0  0.00000000000E+00 -0.00000000000E+00 -0.33845825804E+04  0.33845825804E+04  0.00000000000E+00 0. -1.
        -24    2    1    2    0    0  0.14288131731E+03  0.46696957705E+03 -0.10916400901E+04  0.11986094348E+04  0.80689740054E+02 0.  0.
        254    2    1    2    0    0 -0.14288131731E+03 -0.46696957705E+03 -0.21229909713E+04  0.23559246646E+04  0.89711465508E+03 0.  0.
         23    2    4    4    0    0 -0.19493768249E+03 -0.12227089716E+03 -0.51112064191E+02  0.25279662358E+03  0.91339024759E+02 0.  0.
         23    2    4    4    0    0  0.52056365182E+02 -0.34469867989E+03 -0.20718789071E+04  0.21031280410E+04  0.94542615548E+02 0.  0.
          3    1    3    3  502    0  0.12732559577E+03  0.28732107616E+03 -0.67108606636E+03  0.74102747359E+03  0.00000000000E+00 0. -1.
         -4    1    3    3    0  502  0.15555721531E+02  0.17964850089E+03 -0.42055402376E+03  0.45758196123E+03  0.00000000000E+00 0.  1.
         11    1    5    5    0    0 -0.14500096668E+03 -0.38547253007E+02 -0.28414333901E+02  0.15270411070E+03  0.00000000000E+00 0.  1.
        -11    1    5    5    0    0 -0.49936715804E+02 -0.83723644149E+02 -0.22697730290E+02  0.10009251288E+03  0.00000000000E+00 0. -1.
          2    1    6    6  503    0 -0.23956002426E+02 -0.38458211025E+02 -0.29273384265E+03  0.29621955823E+03  0.00000000000E+00 0. -1.
         -2    1    6    6    0  503  0.76012367607E+02 -0.30624046887E+03 -0.17791450644E+04  0.18069084828E+04  0.00000000000E+00 0.  1.
<mgrwt>
<rscale>  0 0.15168585E+04</rscale>
<asrwt>0</asrwt>
<pdfrwt beam="1">  1        1 0.52070504E+00 0.15168585E+04</pdfrwt>
<pdfrwt beam="2">  1       -2 0.26146386E-01 0.15168585E+04</pdfrwt>
<totfact> 0.34836236E+00</totfact>
</mgrwt>
</event>
<event>
12    4  0.4320235E-008  0.1364944E+04  0.7818608E-02  0.8979592E-01
          1   -1    0    0  501    0  0.00000000000E+00  0.00000000000E+00  0.26679403793E+04  0.26679403793E+04  0.00000000000E+00 0. -1.
         -2   -1    0    0    0  501 -0.00000000000E+00 -0.00000000000E+00 -0.17457971064E+03  0.17457971064E+03  0.00000000000E+00 0.  1.
        -24    2    1    2    0    0 -0.28911586972E+03 -0.67198794870E+02  0.29067836130E+03  0.42303945515E+03  0.79779738861E+02 0.  0.
        254    2    1    2    0    0  0.28911586972E+03  0.67198794870E+02  0.22026823073E+04  0.24194806348E+04  0.95601962885E+03 0.  0.
         23    2    4    4    0    0 -0.21151844060E+03  0.21126163167E+03  0.26145837499E+03  0.40752419244E+03  0.91345267218E+02 0.  0.
         23    2    4    4    0    0  0.50063431031E+03 -0.14406283680E+03  0.19412239323E+04  0.20119564423E+04  0.90716903903E+02 0.  0.
          3    1    3    3  502    0 -0.21722198068E+02  0.47975892413E+01  0.55287852318E+02  0.59595447522E+02  0.00000000000E+00 0. -1.
         -4    1    3    3    0  502 -0.26739367165E+03 -0.71996384111E+02  0.23539050898E+03  0.36344400763E+03  0.00000000000E+00 0.  1.
         11    1    5    5    0    0 -0.11044439933E+03  0.73408215531E+02  0.16345448851E+03  0.21048539442E+03  0.00000000000E+00 0. -1.
        -11    1    5    5    0    0 -0.10107404127E+03  0.13785341614E+03  0.98003886480E+02  0.19703879802E+03  0.00000000000E+00 0.  1.
          4    1    6    6  503    0  0.52823711686E+02  0.12127738774E+02  0.17865058400E+03  0.18669080783E+03  0.00000000000E+00 0. -1.
         -4    1    6    6    0  503  0.44781059863E+03 -0.15619057558E+03  0.17625733483E+04  0.18252656345E+04  0.00000000000E+00 0.  1.
<mgrwt>
<rscale>  0 0.13649443E+04</rscale>
<asrwt>0</asrwt>
<pdfrwt beam="1">  1        1 0.41045234E+00 0.13649443E+04</pdfrwt>
<pdfrwt beam="2">  1       -2 0.26858419E-01 0.13649443E+04</pdfrwt>
<totfact> 0.11229003E+01</totfact>
</mgrwt>
</event>
<event>
12    4  0.4320235E-008  0.2754245E+04  0.7818608E-02  0.8317616E-01
         -2   -1    0    0    0  501 -0.00000000000E+00  0.00000000000E+00  0.20688050788E+04  0.20688050788E+04  0.00000000000E+00 0.  1.
          1   -1    0    0  501    0  0.00000000000E+00 -0.00000000000E+00 -0.91669626168E+03  0.91669626168E+03  0.00000000000E+00 0. -1.
        -24    2    1    2    0    0  0.45496282696E+03 -0.97541052296E+03  0.11500629747E+04  0.15771607043E+04  0.79838458118E+02 0.  0.
        254    2    1    2    0    0 -0.45496282696E+03  0.97541052296E+03  0.20458424535E+01  0.14083406361E+04  0.90829637219E+03 0.  0.
         23    2    4    4    0    0 -0.25715244314E+03  0.65947730896E+03 -0.42837284583E+03  0.83240729952E+03  0.91438051146E+02 0.  0.
         23    2    4    4    0    0 -0.19781038383E+03  0.31593321400E+03  0.43041868829E+03  0.57593333663E+03  0.86580698522E+02 0.  0.
          3    1    3    3  502    0  0.33700917564E+03 -0.72337645527E+03  0.80007950505E+03  0.11300335813E+04  0.00000000000E+00 0. -1.
         -4    1    3    3    0  502  0.11795365132E+03 -0.25203406769E+03  0.34998346962E+03  0.44712712303E+03  0.00000000000E+00 0.  1.
         11    1    5    5    0    0 -0.72093234075E+02  0.29497693843E+03 -0.20728777417E+03  0.36766431690E+03  0.00000000000E+00 0. -1.
        -11    1    5    5    0    0 -0.18505920906E+03  0.36450037053E+03 -0.22108507167E+03  0.46474298261E+03  0.00000000000E+00 0.  1.
          3    1    6    6  503    0 -0.10916827092E+03  0.13650255841E+03  0.14369534775E+03  0.22627198853E+03  0.00000000000E+00 0. -1.
         -3    1    6    6    0  503 -0.88642112907E+02  0.17943065559E+03  0.28672334054E+03  0.34966134810E+03  0.00000000000E+00 0.  1.
<mgrwt>
<rscale>  0 0.27542446E+04</rscale>
<asrwt>0</asrwt>
<pdfrwt beam="1">  1        1 0.14103019E+00 0.27542446E+04</pdfrwt>
<pdfrwt beam="2">  1       -2 0.31827770E+00 0.27542446E+04</pdfrwt>
<totfact> 0.32987730E-01</totfact>
</mgrwt>
</event>
<event>
12    4  0.4320235E-008  0.1233956E+04  0.7818608E-02  0.9083643E-01
         -2   -1    0    0    0  501 -0.00000000000E+00  0.00000000000E+00  0.16834979262E+04  0.16834979262E+04  0.00000000000E+00 0.  1.
          1   -1    0    0  501    0  0.00000000000E+00 -0.00000000000E+00 -0.22611374318E+03  0.22611374318E+03  0.00000000000E+00 0. -1.
        -24    2    1    2    0    0  0.25299820584E+02 -0.26682462654E+03  0.44571794671E+03  0.52620352898E+03  0.79938749313E+02 0.  0.
        254    2    1    2    0    0 -0.25299820584E+02  0.26682462654E+03  0.10116662363E+04  0.13834081404E+04  0.90471766149E+03 0.  0.
         23    2    4    4    0    0 -0.42947364455E+03  0.29360362181E+03  0.55767004372E+03  0.76833168242E+03  0.93204068829E+02 0.  0.
         23    2    4    4    0    0  0.40417382397E+03 -0.26778995276E+02  0.45399619259E+03  0.61507645799E+03  0.90182657521E+02 0.  0.
          3    1    3    3  502    0 -0.28617575032E+02 -0.93747841013E+02  0.14335733356E+03  0.17366331904E+03  0.00000000000E+00 0. -1.
         -4    1    3    3    0  502  0.53917395617E+02 -0.17307678552E+03  0.30236061315E+03  0.35254020994E+03  0.00000000000E+00 0.  1.
         11    1    5    5    0    0 -0.13722247607E+03  0.13858402206E+03  0.24487846419E+03  0.31305111617E+03  0.00000000000E+00 0.  1.
        -11    1    5    5    0    0 -0.29225116848E+03  0.15501959976E+03  0.31279157952E+03  0.45528056625E+03  0.00000000000E+00 0. -1.
          2    1    6    6  503    0  0.80333224388E+02  0.12830598275E+02  0.14200350596E+03  0.16365526847E+03  0.00000000000E+00 0. -1.
         -2    1    6    6    0  503  0.32384059958E+03 -0.39609593551E+02  0.31199268663E+03  0.45142118952E+03  0.00000000000E+00 0.  1.
<mgrwt>
<rscale>  0 0.12339563E+04</rscale>
<asrwt>0</asrwt>
<pdfrwt beam="1">  1        1 0.34786731E-01 0.12339563E+04</pdfrwt>
<pdfrwt beam="2">  1       -2 0.25899967E+00 0.12339563E+04</pdfrwt>
<totfact> 0.61952284E+00</totfact>
</mgrwt>
</event>
<event>
12    4  0.4320235E-008  0.1660030E+04  0.7818608E-02  0.8784495E-01
         -2   -1    0    0    0  501 -0.00000000000E+00  0.00000000000E+00  0.66352024819E+03  0.66352024819E+03  0.00000000000E+00 0.  1.
          1   -1    0    0  501    0  0.00000000000E+00 -0.00000000000E+00 -0.10382871440E+04  0.10382871440E+04  0.00000000000E+00 0. -1.
        -24    2    1    2    0    0 -0.33686745679E+03 -0.47736061364E+03 -0.13927698919E+03  0.60603734200E+03  0.80810527099E+02 0.  0.
        254    2    1    2    0    0  0.33686745679E+03  0.47736061364E+03 -0.23548990662E+03  0.10957700502E+04  0.89660675209E+03 0.  0.
         23    2    4    4    0    0  0.75368288712E+02  0.67807100885E+03 -0.29426255177E+03  0.74847398347E+03  0.90344798223E+02 0.  0.
         23    2    4    4    0    0  0.26149916808E+03 -0.20071039521E+03  0.58772645155E+02  0.34729606673E+03  0.92162120739E+02 0.  0.
          3    1    3    3  502    0 -0.19790808113E+03 -0.32532022211E+03 -0.11956857638E+03  0.39912090893E+03  0.00000000000E+00 0. -1.
         -4    1    3    3    0  502 -0.13895937566E+03 -0.15204039153E+03 -0.19708412812E+02  0.20691643307E+03  0.00000000000E+00 0.  1.
         11    1    5    5    0    0  0.64108932317E+01  0.66734047887E+00 -0.68202021387E+01  0.93840317857E+01  0.00000000000E+00 0. -1.
        -11    1    5    5    0    0  0.68957395481E+02  0.67740366837E+03 -0.28744234964E+03  0.73908995168E+03  0.00000000000E+00 0.  1.
          1    1    6    6  503    0  0.16708985979E+02  0.96605581012E+01  0.62277366490E+01  0.20280564564E+02  0.00000000000E+00 0. -1.
         -1    1    6    6    0  503  0.24479018210E+03 -0.21037095331E+03  0.52544908506E+02  0.32701550217E+03  0.00000000000E+00 0.  1.
<mgrwt>
<rscale>  0 0.16600296E+04</rscale>
<asrwt>0</asrwt>
<pdfrwt beam="1">  1        1 0.15973648E+00 0.16600296E+04</pdfrwt>
<pdfrwt beam="2">  1       -2 0.10208004E+00 0.16600296E+04</pdfrwt>
<totfact> 0.93022840E+00</totfact>
</mgrwt>
</event>
<event>
12    4  0.4320235E-008  0.1249366E+04  0.7818608E-02  0.9070711E-01
         -2   -1    0    0    0  501 -0.00000000000E+00  0.00000000000E+00  0.98756467747E+02  0.98756467747E+02  0.00000000000E+00 0.  1.
          1   -1    0    0  501    0  0.00000000000E+00 -0.00000000000E+00 -0.39514245526E+04  0.39514245526E+04  0.00000000000E+00 0. -1.
        -24    2    1    2    0    0  0.13466580865E+03 -0.11958437985E+03 -0.17541007579E+04  0.17650671053E+04  0.78467276194E+02 0.  0.
        254    2    1    2    0    0 -0.13466580865E+03  0.11958437985E+03 -0.20985673269E+04  0.22851139150E+04  0.88618591448E+03 0.  0.
         23    2    4    4    0    0  0.18252730381E+03 -0.26951711987E+03 -0.47318361857E+03  0.58152488964E+03  0.91174370546E+02 0.  0.
         23    2    4    4    0    0 -0.31719311246E+03  0.38910149973E+03 -0.16253837083E+04  0.17035890254E+04  0.91279353218E+02 0.  0.
          1    1    3    3  502    0  0.11585980591E+03 -0.12559505742E+03 -0.13953574497E+04  0.14057809308E+04  0.00000000000E+00 0. -1.
         -2    1    3    3    0  502  0.18806002743E+02  0.60106775631E+01 -0.35874330823E+03  0.35928617449E+03  0.00000000000E+00 0.  1.
         11    1    5    5    0    0  0.13049674672E+03 -0.25007341514E+03 -0.40565626865E+03  0.49408817245E+03  0.00000000000E+00 0.  1.
        -11    1    5    5    0    0  0.52030557088E+02 -0.19443704735E+02 -0.67527349924E+02  0.87436717187E+02  0.00000000000E+00 0. -1.
          1    1    6    6  503    0 -0.26830646049E+03  0.29124424750E+03 -0.11678577093E+04  0.12331679519E+04  0.00000000000E+00 0.  1.
         -1    1    6    6    0  503 -0.48886651968E+02  0.97857252224E+02 -0.45752599902E+03  0.47042107344E+03  0.00000000000E+00 0. -1.
<mgrwt>
<rscale>  0 0.12493658E+04</rscale>
<asrwt>0</asrwt>
<pdfrwt beam="1">  1        1 0.60791138E+00 0.12493658E+04</pdfrwt>
<pdfrwt beam="2">  1       -2 0.15193305E-01 0.12493658E+04</pdfrwt>
<totfact> 0.32446060E+00</totfact>
</mgrwt>
</event>
<event>
12    4  0.4320235E-008  0.3558429E+04  0.7818608E-02  0.8100081E-01
          1   -1    0    0  501    0  0.00000000000E+00  0.00000000000E+00  0.28989972096E+04  0.28989972096E+04  0.00000000000E+00 0. -1.
         -2   -1    0    0    0  501 -0.00000000000E+00 -0.00000000000E+00 -0.10919655367E+04  0.10919655367E+04  0.00000000000E+00 0.  1.
        -24    2    1    2    0    0  0.13190811883E+04 -0.48948625551E+03  0.18451289575E+04  0.23217626684E+04  0.80678638268E+02 0.  0.
        254    2    1    2    0    0 -0.13190811883E+04  0.48948625551E+03 -0.38097284657E+02  0.16692000779E+04  0.89733244747E+03 0.  0.
         23    2    4    4    0    0 -0.66962844056E+03  0.45169413800E+03 -0.41400695269E+03  0.91229530502E+03  0.91929994995E+02 0.  0.
         23    2    4    4    0    0 -0.64945274775E+03  0.37792117503E+02  0.37590966804E+03  0.75690477288E+03  0.91540378938E+02 0.  0.
          1    1    3    3  502    0  0.87487865138E+03 -0.32996575407E+03  0.11629798774E+04  0.14922507326E+04  0.00000000000E+00 0. -1.
         -2    1    3    3    0  502  0.44420253693E+03 -0.15952050143E+03  0.68214908009E+03  0.82951193581E+03  0.00000000000E+00 0.  1.
         11    1    5    5    0    0 -0.27393780574E+03  0.21220982785E+03 -0.22182680385E+03  0.41143901535E+03  0.00000000000E+00 0. -1.
        -11    1    5    5    0    0 -0.39569063482E+03  0.23948431016E+03 -0.19218014884E+03  0.50085628967E+03  0.00000000000E+00 0.  1.
          3    1    6    6  503    0 -0.36368054502E+03 -0.12479635106E+02  0.17362855410E+03  0.40319493414E+03  0.00000000000E+00 0. -1.
         -3    1    6    6    0  503 -0.28577220274E+03  0.50271752609E+02  0.20228111394E+03  0.35370983874E+03  0.00000000000E+00 0.  1.
<mgrwt>
<rscale>  0 0.35584295E+04</rscale>
<asrwt>0</asrwt>
<pdfrwt beam="1">  1        1 0.44599957E+00 0.35584295E+04</pdfrwt>
<pdfrwt beam="2">  1       -2 0.16799470E+00 0.35584295E+04</pdfrwt>
<totfact> 0.11136668E-01</totfact>
</mgrwt>
</event>
<event>
12    4  0.4320235E-008  0.1268620E+04  0.7818608E-02  0.9054826E-01
          1   -1    0    0  501    0  0.00000000000E+00  0.00000000000E+00  0.49570854942E+03  0.49570854942E+03  0.00000000000E+00 0. -1.
         -2   -1    0    0    0  501 -0.00000000000E+00 -0.00000000000E+00 -0.81166514455E+03  0.81166514455E+03  0.00000000000E+00 0.  1.
        -24    2    1    2    0    0  0.18842394031E+03 -0.83590479887E+02 -0.31620784947E+03  0.38588105290E+03  0.80161295558E+02 0.  0.
        254    2    1    2    0    0 -0.18842394031E+03  0.83590479887E+02  0.25125434428E+00  0.92149264107E+03  0.89814123322E+03 0.  0.
         23    2    4    4    0    0  0.33912755981E+03  0.66111227828E+01 -0.11311959582E+03  0.36925935971E+03  0.92223765958E+02 0.  0.
         23    2    4    4    0    0 -0.52755150013E+03  0.76979357104E+02  0.11337085017E+03  0.55223328135E+03  0.88725648278E+02 0.  0.
          1    1    3    3  502    0  0.11913604830E+02 -0.20515281791E+02 -0.77876350904E+01  0.24969141501E+02  0.00000000000E+00 0. -1.
         -2    1    3    3    0  502  0.17651033548E+03 -0.63075198095E+02 -0.30842021438E+03  0.36091191140E+03  0.00000000000E+00 0.  1.
         11    1    5    5    0    0  0.24697856833E+03 -0.35947590456E+02 -0.72146777000E+02  0.25979953792E+03  0.00000000000E+00 0.  1.
        -11    1    5    5    0    0  0.92148991483E+02  0.42558713239E+02 -0.40972818824E+02  0.10945982179E+03  0.00000000000E+00 0. -1.
          2    1    6    6  503    0 -0.43120764878E+03  0.49540462054E+02  0.12422728285E+03  0.45147171733E+03  0.00000000000E+00 0.  1.
         -2    1    6    6    0  503 -0.96343851345E+02  0.27438895050E+02 -0.10856432680E+02  0.10076156402E+03  0.00000000000E+00 0. -1.
<mgrwt>
<rscale>  0 0.12686203E+04</rscale>
<asrwt>0</asrwt>
<pdfrwt beam="1">  1        1 0.76262853E-01 0.12686203E+04</pdfrwt>
<pdfrwt beam="2">  1       -2 0.12487156E+00 0.12686203E+04</pdfrwt>
<totfact> 0.18560609E+01</totfact>
</mgrwt>
</event>
<event>
12    4  0.4320235E-008  0.1933222E+04  0.7818608E-02  0.8638494E-01
         -2   -1    0    0    0  501 -0.00000000000E+00  0.00000000000E+00  0.90909502799E+03  0.90909502799E+03  0.00000000000E+00 0.  1.
          1   -1    0    0  501    0  0.00000000000E+00 -0.00000000000E+00 -0.10277655079E+04  0.10277655079E+04  0.00000000000E+00 0. -1.
        -24    2    1    2    0    0 -0.48892169760E+03  0.44910135526E+02 -0.62632000411E+03  0.79979466171E+03  0.79582703479E+02 0.  0.
        254    2    1    2    0    0  0.48892169760E+03 -0.44910135526E+02  0.50764952423E+03  0.11370658741E+04  0.89115061356E+03 0.  0.
         23    2    4    4    0    0  0.41618920192E+03 -0.38412722607E+03  0.52618075660E+03  0.77836312709E+03  0.90641002865E+02 0.  0.
         23    2    4    4    0    0  0.72732495678E+02  0.33921709054E+03 -0.18531232362E+02  0.35870274706E+03  0.89252471838E+02 0.  0.
          3    1    3    3  502    0 -0.30735220305E+03  0.17159474448E+02 -0.33104064769E+03  0.45204837651E+03  0.00000000000E+00 0. -1.
         -4    1    3    3    0  502 -0.18156949455E+03  0.27750661079E+02 -0.29527935642E+03  0.34774628520E+03  0.00000000000E+00 0.  1.
         11    1    5    5    0    0  0.19834440810E+03 -0.24009972082E+03  0.26335609913E+03  0.40785391393E+03  0.00000000000E+00 0.  1.
        -11    1    5    5    0    0  0.21784479382E+03 -0.14402750526E+03  0.26282465746E+03  0.37050921316E+03  0.00000000000E+00 0. -1.
          4    1    6    6  503    0  0.64226085475E+02  0.10798372960E+03  0.74380793797E+01  0.12586024368E+03  0.00000000000E+00 0.  1.
         -4    1    6    6    0  503  0.85064102036E+01  0.23123336094E+03 -0.25969311742E+02  0.23284250338E+03  0.00000000000E+00 0. -1.
<mgrwt>
<rscale>  0 0.19332217E+04</rscale>
<asrwt>0</asrwt>
<pdfrwt beam="1">  1        1 0.15811777E+00 0.19332217E+04</pdfrwt>
<pdfrwt beam="2">  1       -2 0.13986077E+00 0.19332217E+04</pdfrwt>
<totfact> 0.42400113E+00</totfact>
</mgrwt>
</event>
<event>
12    4  0.4320235E-008  0.1779717E+04  0.7818608E-02  0.8717161E-01
         -2   -1    0    0    0  501 -0.00000000000E+00  0.00000000000E+00  0.56437126534E+03  0.56437126534E+03  0.00000000000E+00 0.  1.
          1   -1    0    0  501    0  0.00000000000E+00 -0.00000000000E+00 -0.14030626085E+04  0.14030626085E+04  0.00000000000E+00 0. -1.
        -24    2    1    2    0    0  0.59406726465E+03  0.13224202596E+02 -0.34813911126E+02  0.60034399962E+03  0.78167224629E+02 0.  0.
        254    2    1    2    0    0 -0.59406726465E+03 -0.13224202596E+02 -0.80387743208E+03  0.13670898743E+04  0.93253686472E+03 0.  0.
         23    2    4    4    0    0 -0.90310357031E+02  0.23968386367E+02  0.19826147361E+03  0.24111133338E+03  0.10048193388E+03 0.  0.
         23    2    4    4    0    0 -0.50375690762E+03 -0.37192588963E+02 -0.10021389057E+04  0.11259785409E+04  0.91602279432E+02 0.  0.
          1    1    3    3  502    0  0.11117747369E+03 -0.19778219027E+02  0.14376911467E+02  0.11383454743E+03  0.00000000000E+00 0. -1.
         -2    1    3    3    0  502  0.48288979096E+03  0.33002421623E+02 -0.49190822592E+02  0.48650945219E+03  0.00000000000E+00 0.  1.
         11    1    5    5    0    0 -0.43661539935E+02 -0.37442880263E+02  0.62230761811E+02  0.84740586896E+02  0.00000000000E+00 0. -1.
        -11    1    5    5    0    0 -0.46648817096E+02  0.61411266630E+02  0.13603071180E+03  0.15637074649E+03  0.00000000000E+00 0.  1.
          3    1    6    6  503    0 -0.21754095560E+03 -0.12029614970E+02 -0.33522393421E+03  0.39980478370E+03  0.00000000000E+00 0. -1.
         -3    1    6    6    0  503 -0.28621595202E+03 -0.25162973992E+02 -0.66691497147E+03  0.72617375719E+03  0.00000000000E+00 0.  1.
<mgrwt>
<rscale>  0 0.17797171E+04</rscale>
<asrwt>0</asrwt>
<pdfrwt beam="1">  1        1 0.21585578E+00 0.17797171E+04</pdfrwt>
<pdfrwt beam="2">  1       -2 0.86826349E-01 0.17797171E+04</pdfrwt>
<totfact> 0.72776181E+00</totfact>
</mgrwt>
</event>
<event>
12    4  0.4320235E-008  0.1556556E+04  0.7818608E-02  0.8847691E-01
         -2   -1    0    0    0  501 -0.00000000000E+00  0.00000000000E+00  0.24239309275E+03  0.24239309275E+03  0.00000000000E+00 0.  1.
          1   -1    0    0  501    0  0.00000000000E+00 -0.00000000000E+00 -0.24989031907E+04  0.24989031907E+04  0.00000000000E+00 0. -1.
        -24    2    1    2    0    0  0.23237432860E+03 -0.45076175827E+03 -0.84065451158E+03  0.98513618151E+03  0.81297582789E+02 0.  0.
        254    2    1    2    0    0 -0.23237432860E+03  0.45076175827E+03 -0.14158555863E+04  0.17561601019E+04  0.90678954054E+03 0.  0.
         23    2    4    4    0    0 -0.46140896671E+03  0.11832990581E+03 -0.11892657822E+04  0.12844557247E+04  0.92591613804E+02 0.  0.
         23    2    4    4    0    0  0.22903463811E+03  0.33243185246E+03 -0.22658980416E+03  0.47170437718E+03  0.90522252018E+02 0.  0.
          3    1    3    3  502    0  0.16910724491E+03 -0.35693806256E+03 -0.70846537260E+03  0.81112589957E+03  0.00000000000E+00 0. -1.
         -4    1    3    3    0  502  0.63267083686E+02 -0.93823695714E+02 -0.13218913899E+03  0.17401028194E+03  0.00000000000E+00 0.  1.
         11    1    5    5    0    0 -0.16331672770E+03  0.63258602136E+02 -0.54473071372E+03  0.57219363397E+03  0.00000000000E+00 0.  1.
        -11    1    5    5    0    0 -0.29809223901E+03  0.55071303669E+02 -0.64453506846E+03  0.71226209075E+03  0.00000000000E+00 0. -1.
          2    1    6    6  503    0  0.71603711587E+02  0.17079703736E+03 -0.12997156710E+03  0.22625500600E+03  0.00000000000E+00 0. -1.
         -2    1    6    6    0  503  0.15743092653E+03  0.16163481510E+03 -0.96618237065E+02  0.24544937118E+03  0.00000000000E+00 0.  1.
<mgrwt>
<rscale>  0 0.15565563E+04</rscale>
<asrwt>0</asrwt>
<pdfrwt beam="1">  1        1 0.38444663E+00 0.15565563E+04</pdfrwt>
<pdfrwt beam="2">  1       -2 0.37291246E-01 0.15565563E+04</pdfrwt>
<totfact> 0.77978408E+00</totfact>
</mgrwt>
</event>
<event>
12    4  0.4320235E-008  0.1533227E+04  0.7818608E-02  0.8862653E-01
         -2   -1    0    0    0  501 -0.00000000000E+00  0.00000000000E+00  0.84925700871E+03  0.84925700871E+03  0.00000000000E+00 0.  1.
          1   -1    0    0  501    0  0.00000000000E+00 -0.00000000000E+00 -0.69201206597E+03  0.69201206597E+03  0.00000000000E+00 0. -1.
        -24    2    1    2    0    0 -0.42526842330E+03  0.11049580762E+03 -0.18913031850E+03  0.48495060634E+03  0.79650849676E+02 0.  0.
        254    2    1    2    0    0  0.42526842330E+03 -0.11049580762E+03  0.34637526124E+03  0.10563184683E+04  0.89597451392E+03 0.  0.
         23    2    4    4    0    0 -0.12956098092E+02 -0.18039194119E+03 -0.24073144480E+03  0.31465547686E+03  0.91363710940E+02 0.  0.
         23    2    4    4    0    0  0.43822452140E+03  0.69896133564E+02  0.58710670605E+03  0.74166299149E+03  0.91888563023E+02 0.  0.
          1    1    3    3  502    0 -0.34352259172E+03  0.55512839073E+02 -0.15052250201E+03  0.37913911686E+03  0.00000000000E+00 0. -1.
         -2    1    3    3    0  502 -0.81745831586E+02  0.54982968549E+02 -0.38607816493E+02  0.10581148948E+03  0.00000000000E+00 0.  1.
         11    1    5    5    0    0 -0.35717884351E+02 -0.11699340600E+03 -0.20417623545E+03  0.23801504035E+03  0.00000000000E+00 0.  1.
        -11    1    5    5    0    0  0.22761786259E+02 -0.63398535181E+02 -0.36555209352E+02  0.76640436504E+02  0.00000000000E+00 0. -1.
          3    1    6    6  503    0  0.41308813617E+02  0.52723100601E+01  0.11038367763E+03  0.11797784378E+03  0.00000000000E+00 0. -1.
         -3    1    6    6    0  503  0.39691570778E+03  0.64623823504E+02  0.47672302842E+03  0.62368514771E+03  0.00000000000E+00 0.  1.
<mgrwt>
<rscale>  0 0.15332268E+04</rscale>
<asrwt>0</asrwt>
<pdfrwt beam="1">  1        1 0.10646339E+00 0.15332268E+04</pdfrwt>
<pdfrwt beam="2">  1       -2 0.13065493E+00 0.15332268E+04</pdfrwt>
<totfact> 0.10038310E+01</totfact>
</mgrwt>
</event>
<event>
12    4  0.4320235E-008  0.1193433E+04  0.7818608E-02  0.9118624E-01
         -2   -1    0    0    0  501 -0.00000000000E+00  0.00000000000E+00  0.55118993688E+03  0.55118993688E+03  0.00000000000E+00 0.  1.
          1   -1    0    0  501    0  0.00000000000E+00 -0.00000000000E+00 -0.64600329658E+03  0.64600329658E+03  0.00000000000E+00 0. -1.
        -24    2    1    2    0    0  0.49250331492E+02 -0.50077660591E+01  0.22293497092E+03  0.24066997276E+03  0.75969478458E+02 0.  0.
        254    2    1    2    0    0 -0.49250331492E+02  0.50077660591E+01 -0.31774833062E+03  0.95652326069E+03  0.90084519967E+03 0.  0.
         23    2    4    4    0    0 -0.43000234289E+03 -0.14307554456E+03 -0.26859110449E+03  0.53482103279E+03  0.92302380029E+02 0.  0.
         23    2    4    4    0    0  0.38075201140E+03  0.14808331062E+03 -0.49157226131E+02  0.42170222791E+03  0.92279873618E+02 0.  0.
          1    1    3    3  502    0  0.61607265232E+01 -0.25946524160E+02  0.23445881912E+02  0.35508957263E+02  0.00000000000E+00 0. -1.
         -2    1    3    3    0  502  0.43089604969E+02  0.20938758101E+02  0.19948908901E+03  0.20516101550E+03  0.00000000000E+00 0.  1.
         11    1    5    5    0    0 -0.48465949938E+02  0.13052419907E+02 -0.26797437776E+02  0.56898300855E+02  0.00000000000E+00 0.  1.
        -11    1    5    5    0    0 -0.38153639295E+03 -0.15612796446E+03 -0.24179366671E+03  0.47792273193E+03  0.00000000000E+00 0. -1.
          1    1    6    6  503    0  0.43243858554E+02  0.47853340837E+02 -0.23671745835E+02  0.68704621990E+02  0.00000000000E+00 0. -1.
         -1    1    6    6    0  503  0.33750815284E+03  0.10022996978E+03 -0.25485480296E+02  0.35299760592E+03  0.00000000000E+00 0.  1.
<mgrwt>
<rscale>  0 0.11934329E+04</rscale>
<asrwt>0</asrwt>
<pdfrwt beam="1">  1        1 0.99385123E-01 0.11934329E+04</pdfrwt>
<pdfrwt beam="2">  1       -2 0.84798451E-01 0.11934329E+04</pdfrwt>
<totfact> 0.32286544E+01</totfact>
</mgrwt>
</event>
<event>
12    4  0.4320235E-008  0.1982022E+04  0.7818608E-02  0.8615072E-01
         -2   -1    0    0    0  501 -0.00000000000E+00  0.00000000000E+00  0.83714051472E+03  0.83714051472E+03  0.00000000000E+00 0.  1.
          1   -1    0    0  501    0  0.00000000000E+00 -0.00000000000E+00 -0.11731641385E+04  0.11731641385E+04  0.00000000000E+00 0. -1.
        -24    2    1    2    0    0 -0.33826461131E+03  0.60489831558E+03  0.23924871572E+03  0.73996969285E+03  0.99951382660E+02 0.  0.
        254    2    1    2    0    0  0.33826461131E+03 -0.60489831558E+03 -0.57527233953E+03  0.12703349604E+04  0.89581679349E+03 0.  0.
         23    2    4    4    0    0 -0.26182953889E+03 -0.35597627462E+03 -0.10706884859E+03  0.46388736923E+03  0.91945296032E+02 0.  0.
         23    2    4    4    0    0  0.60009415020E+03 -0.24892204096E+03 -0.46820349094E+03  0.80644759116E+03  0.95226240038E+02 0.  0.
          1    1    3    3  502    0 -0.51006241145E+02  0.94894552923E+02  0.29208174873E+00  0.10773438691E+03  0.00000000000E+00 0. -1.
         -2    1    3    3    0  502 -0.28725837017E+03  0.51000376266E+03  0.23895663397E+03  0.63223530594E+03  0.00000000000E+00 0.  1.
         11    1    5    5    0    0 -0.24943081843E+03 -0.32006994182E+03 -0.71868918381E+02  0.41209906851E+03  0.00000000000E+00 0.  1.
        -11    1    5    5    0    0 -0.12398720454E+02 -0.35906332805E+02 -0.35199930206E+02  0.51788300714E+02  0.00000000000E+00 0. -1.
          3    1    6    6  503    0  0.14971444378E+03 -0.40206682519E+02 -0.15664062199E+03  0.22037984585E+03  0.00000000000E+00 0. -1.
         -3    1    6    6    0  503  0.45037970641E+03 -0.20871535844E+03 -0.31156286895E+03  0.58606774532E+03  0.00000000000E+00 0.  1.
<mgrwt>
<rscale>  0 0.19820224E+04</rscale>
<asrwt>0</asrwt>
<pdfrwt beam="1">  1        1 0.18048679E+00 0.19820224E+04</pdfrwt>
<pdfrwt beam="2">  1       -2 0.12879085E+00 0.19820224E+04</pdfrwt>
<totfact> 0.40523570E+00</totfact>
</mgrwt>
</event>
<event>
12    4  0.4320235E-008  0.2965654E+04  0.7818608E-02  0.8253607E-01
         -2   -1    0    0    0  501 -0.00000000000E+00  0.00000000000E+00  0.12466577184E+04  0.12466577184E+04  0.00000000000E+00 0.  1.
          1   -1    0    0  501    0  0.00000000000E+00 -0.00000000000E+00 -0.17637366071E+04  0.17637366071E+04  0.00000000000E+00 0. -1.
        -24    2    1    2    0    0 -0.30921559946E+03  0.94118894996E+03  0.68305162995E+03  0.12059326605E+04  0.79139914056E+02 0.  0.
        254    2    1    2    0    0  0.30921559946E+03 -0.94118894996E+03 -0.12001305187E+04  0.18044616650E+04  0.91340993645E+03 0.  0.
         23    2    4    4    0    0  0.39748434934E+03 -0.70375566748E+03 -0.12861965636E+04  0.15217908176E+04  0.90993652547E+02 0.  0.
         23    2    4    4    0    0 -0.88268749881E+02 -0.23743328248E+03  0.86066044907E+02  0.28267084739E+03  0.91266138537E+02 0.  0.
          1    1    3    3  502    0 -0.11986220458E+02  0.93910137582E+02  0.47944176178E+02  0.10611987303E+03  0.00000000000E+00 0. -1.
         -2    1    3    3    0  502 -0.29722937900E+03  0.84727881238E+03  0.63510745377E+03  0.10998127875E+04  0.00000000000E+00 0.  1.
         11    1    5    5    0    0  0.17767023112E+03 -0.26896614054E+03 -0.44134882851E+03  0.54653296717E+03  0.00000000000E+00 0. -1.
        -11    1    5    5    0    0  0.21981411822E+03 -0.43478952694E+03 -0.84484773510E+03  0.97525785042E+03  0.00000000000E+00 0.  1.
          1    1    6    6  503    0 -0.90168880744E+02 -0.16835566894E+03  0.29249112145E+02  0.19320861492E+03  0.00000000000E+00 0. -1.
         -1    1    6    6    0  503  0.19001308630E+01 -0.69077613540E+02  0.56816932762E+02  0.89462232467E+02  0.00000000000E+00 0.  1.
<mgrwt>
<rscale>  0 0.29656540E+04</rscale>
<asrwt>0</asrwt>
<pdfrwt beam="1">  1        1 0.27134409E+00 0.29656540E+04</pdfrwt>
<pdfrwt beam="2">  1       -2 0.19179350E+00 0.29656540E+04</pdfrwt>
<totfact> 0.48768175E-01</totfact>
</mgrwt>
</event>
<event>
12    4  0.4320235E-008  0.1742350E+04  0.7818608E-02  0.8737573E-01
          1   -1    0    0  501    0  0.00000000000E+00  0.00000000000E+00  0.96771281253E+03  0.96771281253E+03  0.00000000000E+00 0. -1.
         -2   -1    0    0    0  501 -0.00000000000E+00 -0.00000000000E+00 -0.78426756459E+03  0.78426756459E+03  0.00000000000E+00 0.  1.
        -24    2    1    2    0    0 -0.18953807898E+03 -0.43076646283E+03 -0.34207987944E+03  0.58749838534E+03  0.81555379822E+02 0.  0.
        254    2    1    2    0    0  0.18953807898E+03  0.43076646283E+03  0.52552512739E+03  0.11644819918E+04  0.92647569897E+03 0.  0.
         23    2    4    4    0    0 -0.29572886459E+03 -0.72979923710E+02  0.62990951391E+02  0.32121326778E+03  0.80177757637E+02 0.  0.
         23    2    4    4    0    0  0.48526694358E+03  0.50374638654E+03  0.46253417600E+03  0.84326872400E+03  0.88993530275E+02 0.  0.
          1    1    3    3  502    0 -0.11608361117E+02 -0.17912288603E+02 -0.41617011359E+02  0.46771570053E+02  0.00000000000E+00 0. -1.
         -2    1    3    3    0  502 -0.17792971787E+03 -0.41285417423E+03 -0.30046286808E+03  0.54072681529E+03  0.00000000000E+00 0.  1.
         11    1    5    5    0    0 -0.18436488202E+03 -0.22610009954E+02  0.70696599514E+02  0.19874514197E+03  0.00000000000E+00 0.  1.
        -11    1    5    5    0    0 -0.11136398257E+03 -0.50369913755E+02 -0.77056481229E+01  0.12246812581E+03  0.00000000000E+00 0. -1.
          3    1    6    6  503    0  0.28893429962E+03  0.32671158432E+03  0.33382558545E+03  0.54923857324E+03  0.00000000000E+00 0. -1.
         -3    1    6    6    0  503  0.19633264395E+03  0.17703480222E+03  0.12870859055E+03  0.29403015077E+03  0.00000000000E+00 0.  1.
<mgrwt>
<rscale>  0 0.17423499E+04</rscale>
<asrwt>0</asrwt>
<pdfrwt beam="1">  1        1 0.14887889E+00 0.17423499E+04</pdfrwt>
<pdfrwt beam="2">  1       -2 0.12065655E+00 0.17423499E+04</pdfrwt>
<totfact> 0.69852303E+00</totfact>
</mgrwt>
</event>
<event>
12    4  0.4320235E-008  0.2679830E+04  0.7818608E-02  0.8341579E-01
         -2   -1    0    0    0  501 -0.00000000000E+00  0.00000000000E+00  0.10016538751E+04  0.10016538751E+04  0.00000000000E+00 0.  1.
          1   -1    0    0  501    0  0.00000000000E+00 -0.00000000000E+00 -0.17924077027E+04  0.17924077027E+04  0.00000000000E+00 0. -1.
        -24    2    1    2    0    0 -0.75098288901E+03 -0.11592591667E+03 -0.13235056142E+04  0.15282020959E+04  0.79501052424E+02 0.  0.
        254    2    1    2    0    0  0.75098288901E+03  0.11592591667E+03  0.53275178666E+03  0.12658594819E+04  0.86090745375E+03 0.  0.
         23    2    4    4    0    0  0.40808011247E+03 -0.35232454057E+03  0.15732910817E+03  0.56867273641E+03  0.89298783714E+02 0.  0.
         23    2    4    4    0    0  0.34290277654E+03  0.46825045723E+03  0.37542267849E+03  0.69718674547E+03  0.91029476969E+02 0.  0.
          1    1    3    3  502    0 -0.28392832545E+03 -0.14088411910E+02 -0.44475507777E+03  0.52784548548E+03  0.00000000000E+00 0. -1.
         -2    1    3    3    0  502 -0.46705456356E+03 -0.10183750476E+03 -0.87875053645E+03  0.10003566104E+04  0.00000000000E+00 0.  1.
         11    1    5    5    0    0  0.29822221087E+03 -0.25005388089E+03  0.15399405123E+03  0.41854222991E+03  0.00000000000E+00 0. -1.
        -11    1    5    5    0    0  0.10985790160E+03 -0.10227065968E+03  0.33350569343E+01  0.15013050649E+03  0.00000000000E+00 0.  1.
          3    1    6    6  503    0  0.27835990772E+03  0.32063751339E+03  0.29575088386E+03  0.51745650882E+03  0.00000000000E+00 0. -1.
         -3    1    6    6    0  503  0.64542868815E+02  0.14761294385E+03  0.79671794635E+02  0.17973023665E+03  0.00000000000E+00 0.  1.
<mgrwt>
<rscale>  0 0.26798299E+04</rscale>
<asrwt>0</asrwt>
<pdfrwt beam="1">  1        1 0.27575503E+00 0.26798299E+04</pdfrwt>
<pdfrwt beam="2">  1       -2 0.15410060E+00 0.26798299E+04</pdfrwt>
<totfact> 0.88352613E-01</totfact>
</mgrwt>
</event>
<event>
12    4  0.4320235E-008  0.2008070E+04  0.7818608E-02  0.8602857E-01
         -2   -1    0    0    0  501 -0.00000000000E+00  0.00000000000E+00  0.17294405768E+04  0.17294405768E+04  0.00000000000E+00 0.  1.
          1   -1    0    0  501    0  0.00000000000E+00 -0.00000000000E+00 -0.58289713114E+03  0.58289713114E+03  0.00000000000E+00 0. -1.
        -24    2    1    2    0    0  0.48035840432E+03  0.33889489088E+03  0.10884205752E+04  0.12396254645E+04  0.80112420858E+02 0.  0.
        254    2    1    2    0    0 -0.48035840432E+03 -0.33889489088E+03  0.58122870410E+02  0.10727122434E+04  0.89539898674E+03 0.  0.
         23    2    4    4    0    0  0.53495710751E+02  0.15103739063E+03  0.25656455601E+03  0.31561957451E+03  0.90090287932E+02 0.  0.
         23    2    4    4    0    0 -0.53385411507E+03 -0.48993228151E+03 -0.19844168560E+03  0.75709266891E+03  0.93682175923E+02 0.  0.
          1    1    3    3  502    0  0.60412303120E+02  0.15259284612E+02  0.95699139353E+02  0.11419639840E+03  0.00000000000E+00 0. -1.
         -2    1    3    3    0  502  0.41994610120E+03  0.32363560627E+03  0.99272143587E+03  0.11254290661E+04  0.00000000000E+00 0.  1.
         11    1    5    5    0    0 -0.58126045763E+01 -0.10124360948E+02  0.22078236268E+02  0.24974738703E+02  0.00000000000E+00 0. -1.
        -11    1    5    5    0    0  0.59308315328E+02  0.16116175158E+03  0.23448631974E+03  0.29064483581E+03  0.00000000000E+00 0.  1.
          1    1    6    6  503    0 -0.18053934939E+03 -0.14656066513E+03 -0.10709052159E+03  0.25601340796E+03  0.00000000000E+00 0. -1.
         -1    1    6    6    0  503 -0.35331476568E+03 -0.34337161638E+03 -0.91351164006E+02  0.50107926095E+03  0.00000000000E+00 0.  1.
<mgrwt>
<rscale>  0 0.20080697E+04</rscale>
<asrwt>0</asrwt>
<pdfrwt beam="1">  1        1 0.89676483E-01 0.20080697E+04</pdfrwt>
<pdfrwt beam="2">  1       -2 0.26606778E+00 0.20080697E+04</pdfrwt>
<totfact> 0.14849309E+00</totfact>
</mgrwt>
</event>
<event>
12    4  0.4320235E-008  0.2225739E+04  0.7818608E-02  0.8507791E-01
          1   -1    0    0  501    0  0.00000000000E+00  0.00000000000E+00  0.15653032586E+04  0.15653032586E+04  0.00000000000E+00 0. -1.
         -2   -1    0    0    0  501 -0.00000000000E+00 -0.00000000000E+00 -0.79120653698E+03  0.79120653698E+03  0.00000000000E+00 0.  1.
        -24    2    1    2    0    0  0.39120060840E+03  0.84175018642E+03  0.25672585627E+03  0.96632653796E+03  0.79356917385E+02 0.  0.
        254    2    1    2    0    0 -0.39120060840E+03 -0.84175018642E+03  0.51737086533E+03  0.13901832576E+04  0.89630105714E+03 0.  0.
         23    2    4    4    0    0  0.22051568486E+03 -0.22004075299E+03 -0.72575462562E+02  0.33373565558E+03  0.95221792639E+02 0.  0.
         23    2    4    4    0    0 -0.61171629326E+03 -0.62170943343E+03  0.58994632789E+03  0.10564476020E+04  0.85588684601E+02 0.  0.
          1    1    3    3  502    0  0.20813582075E+03  0.39115611044E+03  0.89610488885E+02  0.45205493287E+03  0.00000000000E+00 0. -1.
         -2    1    3    3    0  502  0.18306478765E+03  0.45059407598E+03  0.16711536738E+03  0.51427160509E+03  0.00000000000E+00 0.  1.
         11    1    5    5    0    0  0.19980118441E+03 -0.15438205182E+03 -0.33883439138E+02  0.25475953105E+03  0.00000000000E+00 0. -1.
        -11    1    5    5    0    0  0.20714500452E+02 -0.65658701171E+02 -0.38692023424E+02  0.78976124526E+02  0.00000000000E+00 0.  1.
          3    1    6    6  503    0 -0.56387076874E+03 -0.59738211602E+03  0.53951898758E+03  0.98280027184E+03  0.00000000000E+00 0. -1.
         -3    1    6    6    0  503 -0.47845524523E+02 -0.24327317420E+02  0.50427340311E+02  0.73647330166E+02  0.00000000000E+00 0.  1.
<mgrwt>
<rscale>  0 0.22257387E+04</rscale>
<asrwt>0</asrwt>
<pdfrwt beam="1">  1        1 0.24081589E+00 0.22257387E+04</pdfrwt>
<pdfrwt beam="2">  1       -2 0.12172408E+00 0.22257387E+04</pdfrwt>
<totfact> 0.24131286E+00</totfact>
</mgrwt>
</event>
<event>
12    4  0.4320235E-008  0.1457800E+04  0.7818608E-02  0.8913010E-01
          1   -1    0    0  501    0  0.00000000000E+00  0.00000000000E+00  0.53778883142E+03  0.53778883142E+03  0.00000000000E+00 0. -1.
         -2   -1    0    0    0  501 -0.00000000000E+00 -0.00000000000E+00 -0.98792597718E+03  0.98792597718E+03  0.00000000000E+00 0.  1.
        -24    2    1    2    0    0  0.28457761687E+03 -0.15554807824E+01 -0.49441256780E+03  0.57616394649E+03  0.80834809963E+02 0.  0.
        254    2    1    2    0    0 -0.28457761687E+03  0.15554807824E+01  0.44275422040E+02  0.94955086211E+03  0.90482025131E+03 0.  0.
         23    2    4    4    0    0 -0.27168461769E+03 -0.77231896301E+02 -0.39483988128E+03  0.49394583351E+03  0.91140865118E+02 0.  0.
         23    2    4    4    0    0 -0.12892999180E+02  0.78787377083E+02  0.43911530332E+03  0.45560502860E+03  0.91542406881E+02 0.  0.
          1    1    3    3  502    0  0.26794960270E+03  0.77626874612E+01 -0.41166009069E+03  0.49124462253E+03  0.00000000000E+00 0. -1.
         -2    1    3    3    0  502  0.16628014174E+02 -0.93181682436E+01 -0.82752477105E+02  0.84919323960E+02  0.00000000000E+00 0.  1.
         11    1    5    5    0    0 -0.16713463425E+03 -0.78038176180E+02 -0.19507129221E+03  0.26847113802E+03  0.00000000000E+00 0.  1.
        -11    1    5    5    0    0 -0.10454998344E+03  0.80627987977E+00 -0.19976858907E+03  0.22547469549E+03  0.00000000000E+00 0. -1.
          3    1    6    6  503    0 -0.87137481090E+01  0.19171471785E+02  0.33419792826E+03  0.33486076209E+03  0.00000000000E+00 0. -1.
         -3    1    6    6    0  503 -0.41792510712E+01  0.59615905298E+02  0.10491737506E+03  0.12074426650E+03  0.00000000000E+00 0.  1.
<mgrwt>
<rscale>  0 0.14578005E+04</rscale>
<asrwt>0</asrwt>
<pdfrwt beam="1">  1        1 0.82736745E-01 0.14578005E+04</pdfrwt>
<pdfrwt beam="2">  1       -2 0.15198861E+00 0.14578005E+04</pdfrwt>
<totfact> 0.98275534E+00</totfact>
</mgrwt>
</event>
<event>
12    4  0.4320235E-008  0.1420595E+04  0.7818608E-02  0.8939044E-01
          1   -1    0    0  501    0  0.00000000000E+00  0.00000000000E+00  0.10958932703E+04  0.10958932703E+04  0.00000000000E+00 0. -1.
         -2   -1    0    0    0  501 -0.00000000000E+00 -0.00000000000E+00 -0.46037545831E+03  0.46037545831E+03  0.00000000000E+00 0.  1.
        -24    2    1    2    0    0 -0.14427214227E+03 -0.35393174639E+03 -0.16266223083E+01  0.39053609192E+03  0.80210105664E+02 0.  0.
        254    2    1    2    0    0  0.14427214227E+03  0.35393174639E+03  0.63714443432E+03  0.11657326367E+04  0.89827468961E+03 0.  0.
         23    2    4    4    0    0 -0.24812493079E+03 -0.48181581459E+02 -0.50809399130E+02  0.27265896207E+03  0.88734821162E+02 0.  0.
         23    2    4    4    0    0  0.39239707306E+03  0.40211332785E+03  0.68795383345E+03  0.89307367465E+03  0.92895209872E+02 0.  0.
          1    1    3    3  502    0 -0.30965664729E+02 -0.34424234891E+02  0.20866969044E+02  0.50787111919E+02  0.00000000000E+00 0. -1.
         -2    1    3    3    0  502 -0.11330647754E+03 -0.31950751150E+03 -0.22493591353E+02  0.33974898000E+03  0.00000000000E+00 0.  1.
         11    1    5    5    0    0 -0.10660355383E+03  0.27737127902E+01  0.16431785871E+02  0.10789816847E+03  0.00000000000E+00 0.  1.
        -11    1    5    5    0    0 -0.14152137696E+03 -0.50955294249E+02 -0.67241185001E+02  0.16476079360E+03  0.00000000000E+00 0. -1.
          1    1    6    6  503    0  0.38983109501E+03  0.40712783529E+03  0.67874826109E+03  0.88228145103E+03  0.00000000000E+00 0. -1.
         -1    1    6    6    0  503  0.25659780469E+01 -0.50145074361E+01  0.92055723635E+01  0.10792223622E+02  0.00000000000E+00 0.  1.
<mgrwt>
<rscale>  0 0.14205948E+04</rscale>
<asrwt>0</asrwt>
<pdfrwt beam="1">  1        1 0.16859896E+00 0.14205948E+04</pdfrwt>
<pdfrwt beam="2">  1       -2 0.70826994E-01 0.14205948E+04</pdfrwt>
<totfact> 0.19749190E+01</totfact>
</mgrwt>
</event>
<event>
12    4  0.4320235E-008  0.2279630E+04  0.7818608E-02  0.8485996E-01
         -2   -1    0    0    0  501 -0.00000000000E+00  0.00000000000E+00  0.12426846445E+04  0.12426846445E+04  0.00000000000E+00 0.  1.
          1   -1    0    0  501    0  0.00000000000E+00 -0.00000000000E+00 -0.10454612942E+04  0.10454612942E+04  0.00000000000E+00 0. -1.
        -24    2    1    2    0    0 -0.91745873079E+03  0.27106332441E+03  0.24423460294E+02  0.96058314117E+03  0.83172213720E+02 0.  0.
        254    2    1    2    0    0  0.91745873079E+03 -0.27106332441E+03  0.17279989000E+03  0.13275627975E+04  0.90407816624E+03 0.  0.
         23    2    4    4    0    0  0.55269307915E+03 -0.32875438630E+03 -0.30426919414E+03  0.71740754976E+03  0.92437891041E+02 0.  0.
         23    2    4    4    0    0  0.36476565164E+03  0.57691061896E+02  0.47706908414E+03  0.61015524770E+03  0.91171684263E+02 0.  0.
          3    1    3    3  502    0 -0.12969720143E+03  0.40032532092E+02 -0.25567278305E+02  0.13812187880E+03  0.00000000000E+00 0. -1.
         -4    1    3    3    0  502 -0.78776152937E+03  0.23103079231E+03  0.49990738599E+02  0.82246126237E+03  0.00000000000E+00 0.  1.
         11    1    5    5    0    0  0.39957448416E+03 -0.24027475609E+03 -0.17359048998E+03  0.49751923080E+03  0.00000000000E+00 0. -1.
        -11    1    5    5    0    0  0.15311859499E+03 -0.88479630215E+02 -0.13067870416E+03  0.21988831896E+03  0.00000000000E+00 0.  1.
          1    1    6    6  503    0  0.24833042851E+03  0.60997804997E+02  0.38256956343E+03  0.46016106398E+03  0.00000000000E+00 0. -1.
         -1    1    6    6    0  503  0.11643522313E+03 -0.33067431005E+01  0.94499520713E+02  0.14999418372E+03  0.00000000000E+00 0.  1.
<mgrwt>
<rscale>  0 0.22796304E+04</rscale>
<asrwt>0</asrwt>
<pdfrwt beam="1">  1        1 0.16084020E+00 0.22796304E+04</pdfrwt>
<pdfrwt beam="2">  1       -2 0.19118225E+00 0.22796304E+04</pdfrwt>
<totfact> 0.16858073E+00</totfact>
</mgrwt>
</event>
<event>
12    4  0.4320235E-008  0.2003506E+04  0.7818608E-02  0.8604983E-01
          3   -1    0    0  501    0  0.00000000000E+00  0.00000000000E+00  0.14393057264E+04  0.14393057264E+04  0.00000000000E+00 0. -1.
         -4   -1    0    0    0  501 -0.00000000000E+00 -0.00000000000E+00 -0.69721758590E+03  0.69721758590E+03  0.00000000000E+00 0.  1.
        -24    2    1    2    0    0  0.63999571413E+03  0.43758257774E+03  0.48951600415E+03  0.92039484264E+03  0.80173072696E+02 0.  0.
        254    2    1    2    0    0 -0.63999571413E+03 -0.43758257774E+03  0.25257213638E+03  0.12161284697E+04  0.90227642344E+03 0.  0.
         23    2    4    4    0    0  0.16192912064E+02  0.10813933952E+03  0.32669771008E+03  0.35531678422E+03  0.86961464009E+02 0.  0.
         23    2    4    4    0    0 -0.65618862619E+03 -0.54572191726E+03 -0.74125573707E+02  0.86081168548E+03  0.84298476019E+02 0.  0.
          3    1    3    3  502    0  0.13974405277E+03  0.92088234705E+02  0.14602690787E+03  0.22210920980E+03  0.00000000000E+00 0. -1.
         -4    1    3    3    0  502  0.50025166136E+03  0.34549434304E+03  0.34348909628E+03  0.69828563284E+03  0.00000000000E+00 0.  1.
         11    1    5    5    0    0  0.18446533717E+02  0.11661893084E+03  0.32575563289E+03  0.34649239818E+03  0.00000000000E+00 0. -1.
        -11    1    5    5    0    0 -0.22536216526E+01 -0.84795913199E+01  0.94207718835E+00  0.88243860372E+01  0.00000000000E+00 0.  1.
          3    1    6    6  503    0 -0.52174399497E+03 -0.40219741716E+03 -0.82843877146E+02  0.66395983813E+03  0.00000000000E+00 0. -1.
         -3    1    6    6    0  503 -0.13444463122E+03 -0.14352450010E+03  0.87183034396E+01  0.19685184735E+03  0.00000000000E+00 0.  1.
<mgrwt>
<rscale>  0 0.20035062E+04</rscale>
<asrwt>0</asrwt>
<pdfrwt beam="1">  1        3 0.22143165E+00 0.20035062E+04</pdfrwt>
<pdfrwt beam="2">  1       -4 0.10726424E+00 0.20035062E+04</pdfrwt>
<totfact> 0.16125153E-01</totfact>
</mgrwt>
</event>
<event>
12    4  0.4320235E-008  0.2364677E+04  0.7818608E-02  0.8452847E-01
         -2   -1    0    0    0  501 -0.00000000000E+00  0.00000000000E+00  0.11841732125E+04  0.11841732125E+04  0.00000000000E+00 0.  1.
          1   -1    0    0  501    0  0.00000000000E+00 -0.00000000000E+00 -0.11805068521E+04  0.11805068521E+04  0.00000000000E+00 0. -1.
        -24    2    1    2    0    0 -0.74712758042E+03  0.58275450211E+03  0.35523815759E+03  0.10150555408E+04  0.79631471061E+02 0.  0.
        254    2    1    2    0    0  0.74712758042E+03 -0.58275450211E+03 -0.35157179714E+03  0.13496245238E+04  0.89447257957E+03 0.  0.
         23    2    4    4    0    0  0.85722620667E+03 -0.55629400143E+03 -0.50046671058E+03  0.11415453850E+04  0.91428399719E+02 0.  0.
         23    2    4    4    0    0 -0.11009862625E+03 -0.26460500689E+02  0.14889491345E+03  0.20807913878E+03  0.91133787073E+02 0.  0.
          1    1    3    3  502    0 -0.17799773530E+03  0.97725652505E+02  0.79344796487E+02  0.21801168239E+03  0.00000000000E+00 0. -1.
         -2    1    3    3    0  502 -0.56912984513E+03  0.48502884961E+03  0.27589336110E+03  0.79704385843E+03  0.00000000000E+00 0.  1.
         11    1    5    5    0    0  0.81373291210E+03 -0.50188204075E+03 -0.47301831955E+03  0.10666738797E+04  0.00000000000E+00 0. -1.
        -11    1    5    5    0    0  0.43493294570E+02 -0.54411960677E+02 -0.27448391032E+02  0.74871505310E+02  0.00000000000E+00 0.  1.
          1    1    6    6  503    0 -0.88922921812E+02 -0.52420792213E+02  0.13902026053E+03  0.17315270231E+03  0.00000000000E+00 0. -1.
         -1    1    6    6    0  503 -0.21175704438E+02  0.25960291524E+02  0.98746529234E+01  0.34926436474E+02  0.00000000000E+00 0.  1.
<mgrwt>
<rscale>  0 0.23646772E+04</rscale>
<asrwt>0</asrwt>
<pdfrwt beam="1">  1        1 0.18161644E+00 0.23646772E+04</pdfrwt>
<pdfrwt beam="2">  1       -2 0.18218049E+00 0.23646772E+04</pdfrwt>
<totfact> 0.15254098E+00</totfact>
</mgrwt>
</event>
<event>
12    4  0.4320235E-008  0.1960930E+04  0.7818608E-02  0.8625108E-01
         -4   -1    0    0    0  501 -0.00000000000E+00  0.00000000000E+00  0.11847444877E+04  0.11847444877E+04  0.00000000000E+00 0.  1.
          3   -1    0    0  501    0  0.00000000000E+00 -0.00000000000E+00 -0.81140852845E+03  0.81140852845E+03  0.00000000000E+00 0. -1.
        -24    2    1    2    0    0 -0.20278947540E+03 -0.63186597793E+03 -0.26402245590E+03  0.71864715254E+03  0.79797789599E+02 0.  0.
        254    2    1    2    0    0  0.20278947540E+03  0.63186597793E+03  0.63735841511E+03  0.12775058636E+04  0.88623772023E+03 0.  0.
         23    2    4    4    0    0  0.34393886350E+03 -0.86302783198E+02  0.15680254619E+03  0.39815153960E+03  0.90528988623E+02 0.  0.
         23    2    4    4    0    0 -0.14114938810E+03  0.71816876113E+03  0.48055586892E+03  0.87935432398E+03  0.81489660187E+02 0.  0.
          3    1    3    3  502    0 -0.19041050749E+03 -0.56687581128E+03 -0.26083919892E+03  0.65241201282E+03  0.00000000000E+00 0. -1.
         -4    1    3    3    0  502 -0.12378967908E+02 -0.64990166658E+02 -0.31832569794E+01  0.66235139720E+02  0.00000000000E+00 0.  1.
         11    1    5    5    0    0  0.74688851905E+02 -0.87613302359E+01 -0.36120317060E+01  0.75287663528E+02  0.00000000000E+00 0.  1.
        -11    1    5    5    0    0  0.26925001159E+03 -0.77541452962E+02  0.16041457789E+03  0.32286387607E+03  0.00000000000E+00 0. -1.
          3    1    6    6  503    0 -0.91279677789E+02  0.46394910040E+03  0.26304257727E+03  0.54108423078E+03  0.00000000000E+00 0. -1.
         -3    1    6    6    0  503 -0.49869710310E+02  0.25421966073E+03  0.21751329165E+03  0.33827009320E+03  0.00000000000E+00 0.  1.
<mgrwt>
<rscale>  0 0.19609302E+04</rscale>
<asrwt>0</asrwt>
<pdfrwt beam="1">  1        3 0.12483208E+00 0.19609302E+04</pdfrwt>
<pdfrwt beam="2">  1       -4 0.18226838E+00 0.19609302E+04</pdfrwt>
<totfact> 0.18992679E-01</totfact>
</mgrwt>
</event>
<event>
12    4  0.4320235E-008  0.1777641E+04  0.7818608E-02  0.8718281E-01
          1   -1    0    0  501    0  0.00000000000E+00  0.00000000000E+00  0.25987762758E+04  0.25987762758E+04  0.00000000000E+00 0. -1.
         -2   -1    0    0    0  501 -0.00000000000E+00 -0.00000000000E+00 -0.30398993061E+03  0.30398993061E+03  0.00000000000E+00 0.  1.
        -24    2    1    2    0    0 -0.73804309746E+02  0.58503193108E+03  0.40674668807E+03  0.72051800878E+03  0.77420257074E+02 0.  0.
        254    2    1    2    0    0  0.73804309746E+02 -0.58503193108E+03  0.18880396571E+04  0.21822481976E+04  0.92184815055E+03 0.  0.
         23    2    4    4    0    0 -0.34702967890E+03  0.20604052469E+01  0.75317443286E+03  0.83409667352E+03  0.89508050714E+02 0.  0.
         23    2    4    4    0    0  0.42083398865E+03 -0.58709233632E+03  0.11348652242E+04  0.13481515241E+04  0.88401342505E+02 0.  0.
          3    1    3    3  502    0  0.78044409808E+01  0.22145949360E+03  0.16625388866E+03  0.27702991192E+03  0.00000000000E+00 0. -1.
         -4    1    3    3    0  502 -0.81608750727E+02  0.36357243748E+03  0.24049279940E+03  0.44348809686E+03  0.00000000000E+00 0.  1.
         11    1    5    5    0    0 -0.77644410350E+02 -0.20464973704E+02  0.10800413615E+03  0.13458217948E+03  0.00000000000E+00 0. -1.
        -11    1    5    5    0    0 -0.26938526855E+03  0.22525378951E+02  0.64517029671E+03  0.69951449404E+03  0.00000000000E+00 0.  1.
          2    1    6    6  503    0  0.46449894355E+02 -0.11373041594E+03  0.22430054859E+03  0.25573997790E+03  0.00000000000E+00 0. -1.
         -2    1    6    6    0  503  0.37438409430E+03 -0.47336192039E+03  0.91056467563E+03  0.10924115462E+04  0.00000000000E+00 0.  1.
<mgrwt>
<rscale>  0 0.17776409E+04</rscale>
<asrwt>0</asrwt>
<pdfrwt beam="1">  1        1 0.39981172E+00 0.17776409E+04</pdfrwt>
<pdfrwt beam="2">  1       -2 0.46767683E-01 0.17776409E+04</pdfrwt>
<totfact> 0.41669333E+00</totfact>
</mgrwt>
</event>
<event>
12    4  0.4320235E-008  0.1551353E+04  0.7818608E-02  0.8851004E-01
          1   -1    0    0  501    0  0.00000000000E+00  0.00000000000E+00  0.12110012593E+04  0.12110012593E+04  0.00000000000E+00 0. -1.
         -2   -1    0    0    0  501 -0.00000000000E+00 -0.00000000000E+00 -0.49684002266E+03  0.49684002266E+03  0.00000000000E+00 0.  1.
        -24    2    1    2    0    0 -0.11100492751E+03  0.22721345202E+03  0.72916765615E+03  0.77591225430E+03  0.80039420801E+02 0.  0.
        254    2    1    2    0    0  0.11100492751E+03 -0.22721345202E+03 -0.15006419472E+02  0.93192902770E+03  0.89683804186E+03 0.  0.
         23    2    4    4    0    0  0.97272905901E+02  0.26438333769E+03 -0.24238828061E+03  0.38253768372E+03  0.90677634649E+02 0.  0.
         23    2    4    4    0    0  0.13732021609E+02 -0.49159678970E+03  0.22738186113E+03  0.54939134398E+03  0.90952548072E+02 0.  0.
          1    1    3    3  502    0 -0.11309130271E+03  0.15905920324E+03  0.57849015766E+03  0.61052463947E+03  0.00000000000E+00 0. -1.
         -2    1    3    3    0  502  0.20863752041E+01  0.68154248781E+02  0.15067749849E+03  0.16538761483E+03  0.00000000000E+00 0.  1.
         11    1    5    5    0    0  0.96125356619E+02  0.21492500055E+03 -0.23475664022E+03  0.33248085685E+03  0.00000000000E+00 0.  1.
        -11    1    5    5    0    0  0.11475492829E+01  0.49458337135E+02 -0.76316403886E+01  0.50056826872E+02  0.00000000000E+00 0. -1.
          3    1    6    6  503    0  0.38970004317E+02 -0.94381828763E+02  0.45845539409E+02  0.11193035478E+03  0.00000000000E+00 0. -1.
         -3    1    6    6    0  503 -0.25237982708E+02 -0.39721496094E+03  0.18153632172E+03  0.43746098920E+03  0.00000000000E+00 0.  1.
<mgrwt>
<rscale>  0 0.15513528E+04</rscale>
<asrwt>0</asrwt>
<pdfrwt beam="1">  1        1 0.18630789E+00 0.15513528E+04</pdfrwt>
<pdfrwt beam="2">  1       -2 0.76436927E-01 0.15513528E+04</pdfrwt>
<totfact> 0.13567626E+01</totfact>
</mgrwt>
</event>
<event>
12    4  0.4320235E-008  0.1045942E+04  0.7818608E-02  0.9259544E-01
          1   -1    0    0  501    0  0.00000000000E+00  0.00000000000E+00  0.66591698847E+03  0.66591698847E+03  0.00000000000E+00 0. -1.
         -2   -1    0    0    0  501 -0.00000000000E+00 -0.00000000000E+00 -0.41070978422E+03  0.41070978422E+03  0.00000000000E+00 0.  1.
        -24    2    1    2    0    0  0.37260182346E+02  0.88443101625E+02 -0.24516236604E+02  0.12732323087E+03  0.79997849023E+02 0.  0.
        254    2    1    2    0    0 -0.37260182346E+02 -0.88443101625E+02  0.27972344085E+03  0.94930354183E+03  0.90206513498E+03 0.  0.
         23    2    4    4    0    0  0.11284473576E+03  0.23253652168E+03  0.46477623417E+03  0.53970134919E+03  0.91942537326E+02 0.  0.
         23    2    4    4    0    0 -0.15010491811E+03 -0.32097962331E+03 -0.18505279331E+03  0.40960219263E+03  0.89274939807E+02 0.  0.
          3    1    3    3  502    0  0.31727633883E+02  0.98145063852E+02 -0.31266873314E+01  0.10319337423E+03  0.00000000000E+00 0. -1.
         -4    1    3    3    0  502  0.55325484632E+01 -0.97019622275E+01 -0.21389549273E+02  0.24129856644E+02  0.00000000000E+00 0.  1.
         11    1    5    5    0    0  0.86970694800E+01  0.18188864759E+02  0.34446472204E+01  0.20453347238E+02  0.00000000000E+00 0.  1.
        -11    1    5    5    0    0  0.10414766628E+03  0.21434765692E+03  0.46133158695E+03  0.51924800196E+03  0.00000000000E+00 0. -1.
          2    1    6    6  503    0 -0.10480196172E+03 -0.26766033333E+03 -0.18064536176E+03  0.33949705734E+03  0.00000000000E+00 0. -1.
         -2    1    6    6    0  503 -0.45302956388E+02 -0.53319289976E+02 -0.44074315546E+01  0.70105135289E+02  0.00000000000E+00 0.  1.
<mgrwt>
<rscale>  0 0.10459419E+04</rscale>
<asrwt>0</asrwt>
<pdfrwt beam="1">  1        1 0.10244877E+00 0.10459419E+04</pdfrwt>
<pdfrwt beam="2">  1       -2 0.63186121E-01 0.10459419E+04</pdfrwt>
<totfact> 0.59693518E+01</totfact>
</mgrwt>
</event>
<event>
12    4  0.4320235E-008  0.1313435E+04  0.7818608E-02  0.9018979E-01
         -2   -1    0    0    0  501 -0.00000000000E+00  0.00000000000E+00  0.25434249356E+03  0.25434249356E+03  0.00000000000E+00 0.  1.
          1   -1    0    0  501    0  0.00000000000E+00 -0.00000000000E+00 -0.16956570717E+04  0.16956570717E+04  0.00000000000E+00 0. -1.
        -24    2    1    2    0    0 -0.21250016316E+03 -0.27115926958E+03 -0.40309845136E+03  0.53637019515E+03  0.80752436024E+02 0.  0.
        254    2    1    2    0    0  0.21250016316E+03  0.27115926958E+03 -0.10382161267E+04  0.14136293701E+04  0.89541699855E+03 0.  0.
         23    2    4    4    0    0 -0.13378975918E+03  0.50377936796E+03 -0.51631900251E+03  0.73928215828E+03  0.90881494010E+02 0.  0.
         23    2    4    4    0    0  0.34628992235E+03 -0.23262009838E+03 -0.52189712424E+03  0.67434721180E+03  0.91316664929E+02 0.  0.
          3    1    3    3  502    0  0.12655396477E+01 -0.22532225700E+02 -0.48008669826E+02  0.53048422824E+02  0.00000000000E+00 0. -1.
         -4    1    3    3    0  502 -0.21376570281E+03 -0.24862704388E+03 -0.35508978154E+03  0.48332177232E+03  0.00000000000E+00 0.  1.
         11    1    5    5    0    0 -0.23171317559E+02  0.49247667332E+02 -0.22002333030E+02  0.58705581965E+02  0.00000000000E+00 0. -1.
        -11    1    5    5    0    0 -0.11061844162E+03  0.45453170063E+03 -0.49431666948E+03  0.68057657631E+03  0.00000000000E+00 0.  1.
          3    1    6    6  503    0  0.15531755149E+01 -0.34289216172E+01  0.37145349258E+01  0.52884428097E+01  0.00000000000E+00 0. -1.
         -3    1    6    6    0  503  0.34473674683E+03 -0.22919117676E+03 -0.52561165916E+03  0.66905876900E+03  0.00000000000E+00 0.  1.
<mgrwt>
<rscale>  0 0.13134347E+04</rscale>
<asrwt>0</asrwt>
<pdfrwt beam="1">  1        1 0.26087032E+00 0.13134347E+04</pdfrwt>
<pdfrwt beam="2">  1       -2 0.39129614E-01 0.13134347E+04</pdfrwt>
<totfact> 0.25529527E+01</totfact>
</mgrwt>
</event>
<event>
12    4  0.4320235E-008  0.1412393E+04  0.7818608E-02  0.8944897E-01
         -2   -1    0    0    0  501 -0.00000000000E+00  0.00000000000E+00  0.28824496394E+03  0.28824496394E+03  0.00000000000E+00 0.  1.
          1   -1    0    0  501    0  0.00000000000E+00 -0.00000000000E+00 -0.17301719455E+04  0.17301719455E+04  0.00000000000E+00 0. -1.
        -24    2    1    2    0    0 -0.30668979926E+03  0.26406415837E+03 -0.32618249793E+03  0.52641124754E+03  0.83218188356E+02 0.  0.
        254    2    1    2    0    0  0.30668979926E+03 -0.26406415837E+03 -0.11157444836E+04  0.14920056619E+04  0.90410543061E+03 0.  0.
         23    2    4    4    0    0  0.10553039738E+03 -0.57410499447E+03 -0.81885508595E+03  0.10096755888E+04  0.90487199998E+02 0.  0.
         23    2    4    4    0    0  0.20115940188E+03  0.31004083611E+03 -0.29688939763E+03  0.48233007306E+03  0.88930084531E+02 0.  0.
          3    1    3    3  502    0 -0.13774963404E+02  0.50542373544E+01 -0.37840872575E+02  0.40586039093E+02  0.00000000000E+00 0. -1.
         -2    1    3    3    0  502 -0.29291483585E+03  0.25900992101E+03 -0.28834162536E+03  0.48582520845E+03  0.00000000000E+00 0.  1.
         11    1    5    5    0    0  0.56200969012E+02 -0.43119359096E+03 -0.66005070134E+03  0.79041342989E+03  0.00000000000E+00 0.  1.
        -11    1    5    5    0    0  0.49329428365E+02 -0.14291140351E+03 -0.15880438461E+03  0.21926215891E+03  0.00000000000E+00 0. -1.
          1    1    6    6  503    0  0.11196296044E+03  0.14977985356E+03 -0.20398929370E+03  0.27673333913E+03  0.00000000000E+00 0. -1.
         -1    1    6    6    0  503  0.89196441441E+02  0.16026098254E+03 -0.92900103932E+02  0.20559673393E+03  0.00000000000E+00 0.  1.
<mgrwt>
<rscale>  0 0.14123928E+04</rscale>
<asrwt>0</asrwt>
<pdfrwt beam="1">  1        1 0.26618030E+00 0.14123928E+04</pdfrwt>
<pdfrwt beam="2">  1       -2 0.44345379E-01 0.14123928E+04</pdfrwt>
<totfact> 0.18744688E+01</totfact>
</mgrwt>
</event>
<event>
12    4  0.4320235E-008  0.1963394E+04  0.7818608E-02  0.8623929E-01
          1   -1    0    0  501    0  0.00000000000E+00  0.00000000000E+00  0.15937691584E+04  0.15937691584E+04  0.00000000000E+00 0. -1.
         -2   -1    0    0    0  501 -0.00000000000E+00 -0.00000000000E+00 -0.60468528189E+03  0.60468528189E+03  0.00000000000E+00 0.  1.
        -24    2    1    2    0    0  0.70325201266E+03  0.26493768329E+03  0.19417027958E+03  0.78084564755E+03  0.85220059235E+02 0.  0.
        254    2    1    2    0    0 -0.70325201266E+03 -0.26493768329E+03  0.79491359697E+03  0.14176087928E+04  0.90164942932E+03 0.  0.
         23    2    4    4    0    0 -0.76439219339E+03  0.16176693370E+02  0.80860069800E+03  0.11165617846E+04  0.91203175973E+02 0.  0.
         23    2    4    4    0    0  0.61140180733E+02 -0.28111437666E+03 -0.13687101032E+02  0.30104700818E+03  0.87627335520E+02 0.  0.
          3    1    3    3  502    0  0.10125354940E+03  0.29122059881E+02  0.57473764064E+02  0.12001503737E+03  0.00000000000E+00 0. -1.
         -4    1    3    3    0  502  0.60199846325E+03  0.23581562341E+03  0.13669651551E+03  0.66083061019E+03  0.00000000000E+00 0.  1.
         11    1    5    5    0    0 -0.51975423510E+03  0.16370532274E+02  0.48663128223E+03  0.71219552377E+03  0.00000000000E+00 0. -1.
        -11    1    5    5    0    0 -0.24463795829E+03 -0.19383890433E+00  0.32196941577E+03  0.40436626083E+03  0.00000000000E+00 0.  1.
          1    1    6    6  503    0  0.74093997907E+02 -0.16530080715E+03  0.12594572197E+02  0.18158441734E+03  0.00000000000E+00 0. -1.
         -1    1    6    6    0  503 -0.12953817173E+02 -0.11581356951E+03 -0.26281673229E+02  0.11946259084E+03  0.00000000000E+00 0.  1.
<mgrwt>
<rscale>  0 0.19633937E+04</rscale>
<asrwt>0</asrwt>
<pdfrwt beam="1">  1        1 0.24519525E+00 0.19633937E+04</pdfrwt>
<pdfrwt beam="2">  1       -2 0.93028505E-01 0.19633937E+04</pdfrwt>
<totfact> 0.45054957E+00</totfact>
</mgrwt>
</event>
<event>
12    4  0.4320235E-008  0.1396806E+04  0.7818608E-02  0.8956134E-01
          1   -1    0    0  501    0  0.00000000000E+00  0.00000000000E+00  0.34487657278E+03  0.34487657278E+03  0.00000000000E+00 0. -1.
         -2   -1    0    0    0  501 -0.00000000000E+00 -0.00000000000E+00 -0.14143224615E+04  0.14143224615E+04  0.00000000000E+00 0.  1.
        -24    2    1    2    0    0 -0.28089446133E+03 -0.21536614452E+03 -0.55114064482E+03  0.65974011793E+03  0.78846294899E+02 0.  0.
        254    2    1    2    0    0  0.28089446133E+03  0.21536614452E+03 -0.51830524387E+03  0.10994589163E+04  0.90270998013E+03 0.  0.
         23    2    4    4    0    0 -0.23869224163E+03 -0.94076687899E+02 -0.38968694066E+03  0.47465306098E+03  0.87265154303E+02 0.  0.
         23    2    4    4    0    0  0.51958670296E+03  0.30944283242E+03 -0.12861830321E+03  0.62480585533E+03  0.90080411324E+02 0.  0.
          3    1    3    3  502    0 -0.33171229549E+02 -0.17763576389E+02 -0.11240142175E+03  0.11853250494E+03  0.00000000000E+00 0. -1.
         -4    1    3    3    0  502 -0.24772323178E+03 -0.19760256813E+03 -0.43873922307E+03  0.54120761299E+03  0.00000000000E+00 0.  1.
         11    1    5    5    0    0 -0.13090804313E+02 -0.92624039737E+01  0.48381198238E+00  0.16043545711E+02  0.00000000000E+00 0. -1.
        -11    1    5    5    0    0 -0.22560143732E+03 -0.84814283925E+02 -0.39017075264E+03  0.45860951527E+03  0.00000000000E+00 0.  1.
          2    1    6    6  503    0  0.41229020983E+03  0.24832234156E+03 -0.64294190335E+02  0.48557280129E+03  0.00000000000E+00 0.  1.
         -2    1    6    6    0  503  0.10729649313E+03  0.61120490861E+02 -0.64324112871E+02  0.13923305404E+03  0.00000000000E+00 0. -1.
<mgrwt>
<rscale>  0 0.13968059E+04</rscale>
<asrwt>0</asrwt>
<pdfrwt beam="1">  1        1 0.53057934E-01 0.13968059E+04</pdfrwt>
<pdfrwt beam="2">  1       -2 0.21758807E+00 0.13968059E+04</pdfrwt>
<totfact> 0.63665031E+00</totfact>
</mgrwt>
</event>
<event>
12    4  0.4320235E-008  0.1284474E+04  0.7818608E-02  0.9041969E-01
         -4   -1    0    0    0  501 -0.00000000000E+00  0.00000000000E+00  0.10636557366E+04  0.10636557366E+04  0.00000000000E+00 0.  1.
          3   -1    0    0  501    0  0.00000000000E+00 -0.00000000000E+00 -0.38778363412E+03  0.38778363412E+03  0.00000000000E+00 0. -1.
        -24    2    1    2    0    0 -0.55806628454E+02 -0.11675891085E+02  0.52596390311E+03  0.53494301755E+03  0.79216781303E+02 0.  0.
        254    2    1    2    0    0  0.55806628454E+02  0.11675891085E+02  0.14990819934E+03  0.91649635314E+03  0.90235380582E+03 0.  0.
         23    2    4    4    0    0  0.35839053898E+03 -0.13617024582E+03  0.33849144253E+03  0.51939601426E+03  0.90607111654E+02 0.  0.
         23    2    4    4    0    0 -0.30258391053E+03  0.14784613690E+03 -0.18858324319E+03  0.39710033888E+03  0.93324897112E+02 0.  0.
          3    1    3    3  502    0 -0.63933915458E+02 -0.12320443405E+02  0.23467167801E+03  0.24353672276E+03  0.00000000000E+00 0. -1.
         -4    1    3    3    0  502  0.81272870034E+01  0.64455231947E+00  0.29129222510E+03  0.29140629479E+03  0.00000000000E+00 0.  1.
         11    1    5    5    0    0  0.34297999663E+03 -0.10481208461E+03  0.31460357208E+03  0.47707049660E+03  0.00000000000E+00 0.  1.
        -11    1    5    5    0    0  0.15410542356E+02 -0.31358161204E+02  0.23887870455E+02  0.42325517654E+02  0.00000000000E+00 0. -1.
          2    1    6    6  503    0 -0.11929107689E+02  0.94687166070E+01 -0.39512255755E+02  0.42345939112E+02  0.00000000000E+00 0. -1.
         -2    1    6    6    0  503 -0.29065480284E+03  0.13837742029E+03 -0.14907098743E+03  0.35475439977E+03  0.00000000000E+00 0.  1.
<mgrwt>
<rscale>  0 0.12844739E+04</rscale>
<asrwt>0</asrwt>
<pdfrwt beam="1">  1        3 0.59659021E-01 0.12844739E+04</pdfrwt>
<pdfrwt beam="2">  1       -4 0.16363934E+00 0.12844739E+04</pdfrwt>
<totfact> 0.14502391E+00</totfact>
</mgrwt>
</event>
<event>
12    4  0.4320235E-008  0.2280190E+04  0.7818608E-02  0.8485773E-01
         -2   -1    0    0    0  501 -0.00000000000E+00  0.00000000000E+00  0.12652607292E+04  0.12652607292E+04  0.00000000000E+00 0.  1.
          1   -1    0    0  501    0  0.00000000000E+00 -0.00000000000E+00 -0.10273109093E+04  0.10273109093E+04  0.00000000000E+00 0. -1.
        -24    2    1    2    0    0  0.81125187765E+03  0.55632161105E+02 -0.42111130813E+03  0.91920273272E+03  0.79839737348E+02 0.  0.
        254    2    1    2    0    0 -0.81125187765E+03 -0.55632161105E+02  0.65906112806E+03  0.13733689058E+04  0.88913218064E+03 0.  0.
         23    2    4    4    0    0 -0.48318986937E+03  0.34135369233E+03  0.59888297760E+03  0.84676954463E+03  0.91449700497E+02 0.  0.
         23    2    4    4    0    0 -0.32806200828E+03 -0.39698585344E+03  0.60178150456E+02  0.52659936120E+03  0.91994718973E+02 0.  0.
          3    1    3    3  502    0  0.12898078209E+03 -0.81994006915E+00 -0.36910472413E+02  0.13416071491E+03  0.00000000000E+00 0. -1.
         -4    1    3    3    0  502  0.68227109556E+03  0.56452101174E+02 -0.38420083571E+03  0.78504201781E+03  0.00000000000E+00 0.  1.
         11    1    5    5    0    0 -0.19747611546E+03  0.87788463147E+02  0.19966105652E+03  0.29422468953E+03  0.00000000000E+00 0. -1.
        -11    1    5    5    0    0 -0.28571375392E+03  0.25356522919E+03  0.39922192108E+03  0.55254485510E+03  0.00000000000E+00 0.  1.
          3    1    6    6  503    0 -0.34535342750E+02 -0.43531505252E+02  0.36628503910E+02  0.66553205385E+02  0.00000000000E+00 0. -1.
         -3    1    6    6    0  503 -0.29352666553E+03 -0.35345434819E+03  0.23549646546E+02  0.46004615582E+03  0.00000000000E+00 0.  1.
<mgrwt>
<rscale>  0 0.22801896E+04</rscale>
<asrwt>0</asrwt>
<pdfrwt beam="1">  1        1 0.15804783E+00 0.22801896E+04</pdfrwt>
<pdfrwt beam="2">  1       -2 0.19465550E+00 0.22801896E+04</pdfrwt>
<totfact> 0.16502843E+00</totfact>
</mgrwt>
</event>
<event>
12    4  0.4320235E-008  0.2186306E+04  0.7818608E-02  0.8524150E-01
         -2   -1    0    0    0  501 -0.00000000000E+00  0.00000000000E+00  0.12474114526E+04  0.12474114526E+04  0.00000000000E+00 0.  1.
          1   -1    0    0  501    0  0.00000000000E+00 -0.00000000000E+00 -0.95797027881E+03  0.95797027881E+03  0.00000000000E+00 0. -1.
        -24    2    1    2    0    0 -0.35271025400E+03 -0.31562617930E+03  0.90460014037E+03  0.10240468662E+04  0.79662800733E+02 0.  0.
        254    2    1    2    0    0  0.35271025400E+03  0.31562617930E+03 -0.61515896653E+03  0.11813348653E+04  0.89056560764E+03 0.  0.
         23    2    4    4    0    0  0.59862148301E+03  0.88848628231E+02 -0.56203255331E+03  0.83095963791E+03  0.91496285173E+02 0.  0.
         23    2    4    4    0    0 -0.24591122901E+03  0.22677755107E+03 -0.53126413219E+02  0.35037522738E+03  0.89666013396E+02 0.  0.
          1    1    3    3  502    0 -0.80321281806E+02 -0.62458517600E+02  0.26972410025E+03  0.28827706289E+03  0.00000000000E+00 0. -1.
         -2    1    3    3    0  502 -0.27238897220E+03 -0.25316766170E+03  0.63487604011E+03  0.73576980328E+03  0.00000000000E+00 0.  1.
         11    1    5    5    0    0  0.42421405892E+03  0.74225771967E+02 -0.45152397405E+03  0.62397190013E+03  0.00000000000E+00 0. -1.
        -11    1    5    5    0    0  0.17440742408E+03  0.14622856263E+02 -0.11050857926E+03  0.20698773778E+03  0.00000000000E+00 0.  1.
          1    1    6    6  503    0 -0.10454919102E+03  0.51284093048E+02  0.84821403715E+01  0.11675846114E+03  0.00000000000E+00 0. -1.
         -1    1    6    6    0  503 -0.14136203799E+03  0.17549345802E+03 -0.61608553590E+02  0.23361676624E+03  0.00000000000E+00 0.  1.
<mgrwt>
<rscale>  0 0.21863056E+04</rscale>
<asrwt>0</asrwt>
<pdfrwt beam="1">  1        1 0.14738004E+00 0.21863056E+04</pdfrwt>
<pdfrwt beam="2">  1       -2 0.19190945E+00 0.21863056E+04</pdfrwt>
<totfact> 0.19667710E+00</totfact>
</mgrwt>
</event>
<event>
12    4  0.4320235E-008  0.1776000E+04  0.7818608E-02  0.8719168E-01
         -2   -1    0    0    0  501 -0.00000000000E+00  0.00000000000E+00  0.52013495212E+03  0.52013495212E+03  0.00000000000E+00 0.  1.
          1   -1    0    0  501    0  0.00000000000E+00 -0.00000000000E+00 -0.15160373194E+04  0.15160373194E+04  0.00000000000E+00 0. -1.
        -24    2    1    2    0    0 -0.19316571464E+03 -0.63875118350E+03 -0.32651656635E+03  0.74717430585E+03  0.79626047819E+02 0.  0.
        254    2    1    2    0    0  0.19316571464E+03  0.63875118350E+03 -0.66938580091E+03  0.12889979656E+04  0.87642588805E+03 0.  0.
         23    2    4    4    0    0  0.11323011539E+03  0.76447306311E+03 -0.22245350486E+03  0.80936558701E+03  0.91361744490E+02 0.  0.
         23    2    4    4    0    0  0.79935599250E+02 -0.12572187961E+03 -0.44693229605E+03  0.47963237864E+03  0.90016944762E+02 0.  0.
          1    1    3    3  502    0 -0.13885901109E+03 -0.46405366095E+03 -0.27550003382E+03  0.55725029730E+03  0.00000000000E+00 0. -1.
         -2    1    3    3    0  502 -0.54306703550E+02 -0.17469752255E+03 -0.51016532536E+02  0.18992400856E+03  0.00000000000E+00 0.  1.
         11    1    5    5    0    0 -0.19925189531E+01  0.23604262467E+02 -0.24109124513E+02  0.33799130509E+02  0.00000000000E+00 0. -1.
        -11    1    5    5    0    0  0.11522263434E+03  0.74086880064E+03 -0.19834438035E+03  0.77556645650E+03  0.00000000000E+00 0.  1.
          2    1    6    6  503    0  0.60641457582E+02 -0.11594892282E+03 -0.43636428721E+03  0.45556045727E+03  0.00000000000E+00 0.  1.
         -2    1    6    6    0  503  0.19294141668E+02 -0.97729567955E+01 -0.10568008839E+02  0.24071921362E+02  0.00000000000E+00 0. -1.
<mgrwt>
<rscale>  0 0.17760000E+04</rscale>
<asrwt>0</asrwt>
<pdfrwt beam="1">  1        1 0.23323650E+00 0.17760000E+04</pdfrwt>
<pdfrwt beam="2">  1       -2 0.80020764E-01 0.17760000E+04</pdfrwt>
<totfact> 0.73093297E+00</totfact>
</mgrwt>
</event>
<event>
12    4  0.4320235E-008  0.1691059E+04  0.7818608E-02  0.8766480E-01
         -4   -1    0    0    0  501 -0.00000000000E+00  0.00000000000E+00  0.60748196872E+03  0.60748196872E+03  0.00000000000E+00 0.  1.
          3   -1    0    0  501    0  0.00000000000E+00 -0.00000000000E+00 -0.11768577008E+04  0.11768577008E+04  0.00000000000E+00 0. -1.
        -24    2    1    2    0    0  0.19038013539E+02  0.23945150623E+03 -0.79420595765E+03  0.83369311406E+03  0.81127279398E+02 0.  0.
        254    2    1    2    0    0 -0.19038013539E+02 -0.23945150623E+03  0.22483022558E+03  0.95064655545E+03  0.89189728852E+03 0.  0.
         23    2    4    4    0    0  0.18480456453E+03 -0.33557907864E+03 -0.21414358431E+03  0.44864456749E+03  0.93050675129E+02 0.  0.
         23    2    4    4    0    0 -0.20384257807E+03  0.96127572415E+02  0.43897380989E+03  0.50200198796E+03  0.92280460219E+02 0.  0.
          3    1    3    3  502    0  0.42064367593E+02  0.18094135190E+03 -0.65714608832E+03  0.68289835645E+03  0.00000000000E+00 0. -1.
         -4    1    3    3    0  502 -0.23026354054E+02  0.58510154327E+02 -0.13705986933E+03  0.15079475761E+03  0.00000000000E+00 0.  1.
         11    1    5    5    0    0  0.11715878723E+02  0.32566012507E+01 -0.25806224773E+00  0.12162806505E+02  0.00000000000E+00 0. -1.
        -11    1    5    5    0    0  0.17308868580E+03 -0.33883567989E+03 -0.21388552206E+03  0.43648176098E+03  0.00000000000E+00 0.  1.
          4    1    6    6  503    0 -0.12777793260E+02  0.59937182574E+01 -0.78073399751E+00  0.14135282266E+02  0.00000000000E+00 0. -1.
         -4    1    6    6    0  503 -0.19106478481E+03  0.90133854157E+02  0.43975454389E+03  0.48786670570E+03  0.00000000000E+00 0.  1.
<mgrwt>
<rscale>  0 0.16910586E+04</rscale>
<asrwt>0</asrwt>
<pdfrwt beam="1">  1        3 0.18105503E+00 0.16910586E+04</pdfrwt>
<pdfrwt beam="2">  1       -4 0.93458765E-01 0.16910586E+04</pdfrwt>
<totfact> 0.41306216E-01</totfact>
</mgrwt>
</event>
<event>
12    4  0.4320235E-008  0.2460997E+04  0.7818608E-02  0.8417014E-01
         -2   -1    0    0    0  501 -0.00000000000E+00  0.00000000000E+00  0.96155459723E+03  0.96155459723E+03  0.00000000000E+00 0.  1.
          1   -1    0    0  501    0  0.00000000000E+00 -0.00000000000E+00 -0.15746651478E+04  0.15746651478E+04  0.00000000000E+00 0. -1.
        -24    2    1    2    0    0  0.21312844920E+03  0.25878705330E+03  0.78049547568E+03  0.85311935906E+03  0.79025175901E+02 0.  0.
        254    2    1    2    0    0 -0.21312844920E+03 -0.25878705330E+03 -0.13936060262E+04  0.16831003859E+04  0.88221010991E+03 0.  0.
         23    2    4    4    0    0 -0.99729419931E+02  0.12674970386E+03 -0.12229684050E+04  0.12370031332E+04  0.92269102270E+02 0.  0.
         23    2    4    4    0    0 -0.11339902927E+03 -0.38553675716E+03 -0.17063762120E+03  0.44609725275E+03  0.91584006132E+02 0.  0.
          1    1    3    3  502    0  0.77905407960E+02  0.64160850592E+02  0.16309388359E+03  0.19179541758E+03  0.00000000000E+00 0. -1.
         -2    1    3    3    0  502  0.13522304124E+03  0.19462620271E+03  0.61740159209E+03  0.66132394148E+03  0.00000000000E+00 0.  1.
         11    1    5    5    0    0 -0.86023564751E+02  0.14054594903E+03 -0.10355611710E+04  0.10485896034E+04  0.00000000000E+00 0.  1.
        -11    1    5    5    0    0 -0.13705855180E+02 -0.13796245164E+02 -0.18740723403E+03  0.18841352980E+03  0.00000000000E+00 0. -1.
          3    1    6    6  503    0 -0.12982610165E+02  0.54659416675E+00 -0.27560988328E+01  0.13283185335E+02  0.00000000000E+00 0. -1.
         -3    1    6    6    0  503 -0.10041641911E+03 -0.38608335133E+03 -0.16788152237E+03  0.43281406741E+03  0.00000000000E+00 0.  1.
<mgrwt>
<rscale>  0 0.24609970E+04</rscale>
<asrwt>0</asrwt>
<pdfrwt beam="1">  1        1 0.24225618E+00 0.24609970E+04</pdfrwt>
<pdfrwt beam="2">  1       -2 0.14793148E+00 0.24609970E+04</pdfrwt>
<totfact> 0.14134931E+00</totfact>
</mgrwt>
</event>
<event>
12    4  0.4320235E-008  0.1505804E+04  0.7818608E-02  0.8880602E-01
         -2   -1    0    0    0  501 -0.00000000000E+00  0.00000000000E+00  0.23546481978E+03  0.23546481978E+03  0.00000000000E+00 0.  1.
          1   -1    0    0  501    0  0.00000000000E+00 -0.00000000000E+00 -0.24074153686E+04  0.24074153686E+04  0.00000000000E+00 0. -1.
        -24    2    1    2    0    0 -0.42603674525E+03 -0.23235658443E+03 -0.74340322842E+03  0.89133278154E+03  0.79554238108E+02 0.  0.
        254    2    1    2    0    0  0.42603674525E+03  0.23235658443E+03 -0.14285473204E+04  0.17515474069E+04  0.88976063137E+03 0.  0.
         23    2    4    4    0    0  0.20835622585E+03  0.31787583698E+03 -0.10466613555E+03  0.40456264072E+03  0.90876651273E+02 0.  0.
         23    2    4    4    0    0  0.21768051941E+03 -0.85519252550E+02 -0.13238811849E+04  0.13469847661E+04  0.83715097015E+02 0.  0.
          3    1    3    3  502    0 -0.38607901485E+03 -0.18168805636E+03 -0.65921831989E+03  0.78526196190E+03  0.00000000000E+00 0. -1.
         -4    1    3    3    0  502 -0.39957730402E+02 -0.50668528072E+02 -0.84184908525E+02  0.10607081964E+03  0.00000000000E+00 0.  1.
         11    1    5    5    0    0  0.11233859559E+03  0.99886157965E+02 -0.61827924809E+02  0.16254198504E+03  0.00000000000E+00 0.  1.
        -11    1    5    5    0    0  0.96017630253E+02  0.21798967901E+03 -0.42838210745E+02  0.24202065568E+03  0.00000000000E+00 0. -1.
          3    1    6    6  503    0  0.21696238728E+03 -0.76217432221E+02 -0.13113586904E+04  0.13313689907E+04  0.00000000000E+00 0. -1.
         -3    1    6    6    0  503  0.71813212550E+00 -0.93018203292E+01 -0.12522494460E+02  0.15615775443E+02  0.00000000000E+00 0.  1.
<mgrwt>
<rscale>  0 0.15058043E+04</rscale>
<asrwt>0</asrwt>
<pdfrwt beam="1">  1        1 0.37037159E+00 0.15058043E+04</pdfrwt>
<pdfrwt beam="2">  1       -2 0.36225357E-01 0.15058043E+04</pdfrwt>
<totfact> 0.95788097E+00</totfact>
</mgrwt>
</event>
<event>
12    4  0.4320235E-008  0.2124979E+04  0.7818608E-02  0.8550319E-01
          1   -1    0    0  501    0  0.00000000000E+00  0.00000000000E+00  0.81842071583E+03  0.81842071583E+03  0.00000000000E+00 0. -1.
         -2   -1    0    0    0  501 -0.00000000000E+00 -0.00000000000E+00 -0.13793447287E+04  0.13793447287E+04  0.00000000000E+00 0.  1.
        -24    2    1    2    0    0 -0.12578487490E+03  0.55888206686E+03 -0.91459454559E+03  0.10823106194E+04  0.82110259199E+02 0.  0.
        254    2    1    2    0    0  0.12578487490E+03 -0.55888206686E+03  0.35367053273E+03  0.11154548251E+04  0.88937372443E+03 0.  0.
         23    2    4    4    0    0  0.48475099704E+03 -0.19301288572E+03  0.24215522603E+03  0.58270014758E+03  0.93074192521E+02 0.  0.
         23    2    4    4    0    0 -0.35896612215E+03 -0.36586918114E+03  0.11151530670E+03  0.53275467752E+03  0.93139402137E+02 0.  0.
          1    1    3    3  502    0 -0.26849835974E+02  0.10391106974E+03 -0.23698075756E+03  0.26015054019E+03  0.00000000000E+00 0. -1.
         -2    1    3    3    0  502 -0.98935038922E+02  0.45497099711E+03 -0.67761378803E+03  0.82216007922E+03  0.00000000000E+00 0.  1.
         11    1    5    5    0    0  0.47416428380E+03 -0.16993684724E+03  0.22278605015E+03  0.55076666949E+03  0.00000000000E+00 0.  1.
        -11    1    5    5    0    0  0.10586713246E+02 -0.23076038474E+02  0.19369175872E+02  0.31933478090E+02  0.00000000000E+00 0. -1.
          4    1    6    6  503    0 -0.20774739853E+03 -0.14527687491E+03  0.54881876460E+02  0.25937689247E+03  0.00000000000E+00 0. -1.
         -4    1    6    6    0  503 -0.15121872361E+03 -0.22059230623E+03  0.56633430243E+02  0.27337778505E+03  0.00000000000E+00 0.  1.
<mgrwt>
<rscale>  0 0.21249793E+04</rscale>
<asrwt>0</asrwt>
<pdfrwt beam="1">  1        1 0.12591088E+00 0.21249793E+04</pdfrwt>
<pdfrwt beam="2">  1       -2 0.21220688E+00 0.21249793E+04</pdfrwt>
<totfact> 0.18986255E+00</totfact>
</mgrwt>
</event>
<event>
12    4  0.4320235E-008  0.2399050E+04  0.7818608E-02  0.8439859E-01
         -2   -1    0    0    0  501 -0.00000000000E+00  0.00000000000E+00  0.39853915490E+03  0.39853915490E+03  0.00000000000E+00 0.  1.
          1   -1    0    0  501    0  0.00000000000E+00 -0.00000000000E+00 -0.36103347096E+04  0.36103347096E+04  0.00000000000E+00 0. -1.
        -24    2    1    2    0    0 -0.96249979937E+03  0.93929890017E+02 -0.17903346948E+04  0.20368150383E+04  0.89936049480E+02 0.  0.
        254    2    1    2    0    0  0.96249979937E+03 -0.93929890017E+02 -0.14214608599E+04  0.19720588261E+04  0.96604158790E+03 0.  0.
         23    2    4    4    0    0 -0.15905121480E+03 -0.11478847959E+03 -0.38634884835E+03  0.44294244163E+03  0.91972224056E+02 0.  0.
         23    2    4    4    0    0  0.11215510142E+04  0.20858589574E+02 -0.10351120115E+04  0.15291163845E+04  0.91805679645E+02 0.  0.
          1    1    3    3  502    0 -0.75223247124E+03  0.10883771273E+03 -0.13775759346E+04  0.15733450970E+04  0.00000000000E+00 0. -1.
         -2    1    3    3    0  502 -0.21026732812E+03 -0.14907822711E+02 -0.41275876018E+03  0.46346994138E+03  0.00000000000E+00 0.  1.
         11    1    5    5    0    0 -0.61773994445E+02 -0.20999050428E+02 -0.55843318039E+02  0.85880513961E+02  0.00000000000E+00 0.  1.
        -11    1    5    5    0    0 -0.97277220353E+02 -0.93789429163E+02 -0.33050553032E+03  0.35706192767E+03  0.00000000000E+00 0. -1.
          1    1    6    6  503    0  0.99024827700E+03  0.94544200084E+01 -0.87270938086E+03  0.13199631433E+04  0.00000000000E+00 0. -1.
         -1    1    6    6    0  503  0.13130273717E+03  0.11404169566E+02 -0.16240263064E+03  0.20915324122E+03  0.00000000000E+00 0.  1.
<mgrwt>
<rscale>  0 0.23990496E+04</rscale>
<asrwt>0</asrwt>
<pdfrwt beam="1">  1        1 0.55543611E+00 0.23990496E+04</pdfrwt>
<pdfrwt beam="2">  1       -2 0.61313716E-01 0.23990496E+04</pdfrwt>
<totfact> 0.39845998E-01</totfact>
</mgrwt>
</event>
<event>
12    4  0.4320235E-008  0.1540528E+04  0.7818608E-02  0.8857941E-01
          1   -1    0    0  501    0  0.00000000000E+00  0.00000000000E+00  0.11520658115E+04  0.11520658115E+04  0.00000000000E+00 0. -1.
         -2   -1    0    0    0  501 -0.00000000000E+00 -0.00000000000E+00 -0.51499381730E+03  0.51499381730E+03  0.00000000000E+00 0.  1.
        -24    2    1    2    0    0  0.13990554512E+03  0.18192494985E+03 -0.28013652936E+03  0.36905495115E+03  0.71097348389E+02 0.  0.
        254    2    1    2    0    0 -0.13990554512E+03 -0.18192494985E+03  0.91720852357E+03  0.12980046777E+04  0.88931120456E+03 0.  0.
         23    2    4    4    0    0  0.11968709610E+03 -0.94306633769E+02  0.98607453222E+03  0.10016047756E+04  0.87466572262E+02 0.  0.
         23    2    4    4    0    0 -0.25959264122E+03 -0.87618316086E+02 -0.68866008654E+02  0.29639990205E+03  0.89694292432E+02 0.  0.
          1    1    3    3  502    0  0.54976004623E+00  0.38327338891E+02 -0.63276483539E+02  0.73981082119E+02  0.00000000000E+00 0. -1.
         -2    1    3    3    0  502  0.13935578508E+03  0.14359761096E+03 -0.21686004583E+03  0.29507386903E+03  0.00000000000E+00 0.  1.
         11    1    5    5    0    0  0.84805894062E+02 -0.77761063773E+02  0.89928603149E+03  0.90661689216E+03  0.00000000000E+00 0.  1.
        -11    1    5    5    0    0  0.34881202041E+02 -0.16545569996E+02  0.86788500730E+02  0.94987883445E+02  0.00000000000E+00 0. -1.
          3    1    6    6  503    0 -0.25292779521E+03 -0.60548691925E+02 -0.57891780594E+02  0.26643962157E+03  0.00000000000E+00 0. -1.
         -3    1    6    6    0  503 -0.66648460130E+01 -0.27069624161E+02 -0.10974228060E+02  0.29960280474E+02  0.00000000000E+00 0.  1.
<mgrwt>
<rscale>  0 0.15405282E+04</rscale>
<asrwt>0</asrwt>
<pdfrwt beam="1">  1        1 0.17724089E+00 0.15405282E+04</pdfrwt>
<pdfrwt beam="2">  1       -2 0.79229819E-01 0.15405282E+04</pdfrwt>
<totfact> 0.13846566E+01</totfact>
</mgrwt>
</event>
<event>
12    4  0.4320235E-008  0.1538097E+04  0.7818608E-02  0.8859506E-01
          1   -1    0    0  501    0  0.00000000000E+00  0.00000000000E+00  0.78781183433E+03  0.78781183433E+03  0.00000000000E+00 0. -1.
         -2   -1    0    0    0  501 -0.00000000000E+00 -0.00000000000E+00 -0.75073250960E+03  0.75073250960E+03  0.00000000000E+00 0.  1.
        -24    2    1    2    0    0 -0.32000113487E+03 -0.30727794108E+03 -0.15904434777E+03  0.47796887170E+03  0.79615817300E+02 0.  0.
        254    2    1    2    0    0  0.32000113487E+03  0.30727794108E+03  0.19612367250E+03  0.10605754722E+04  0.94315183189E+03 0.  0.
         23    2    4    4    0    0  0.58784508706E+03 -0.10523663181E+02  0.22199912128E+03  0.63465496959E+03  0.88491393430E+02 0.  0.
         23    2    4    4    0    0 -0.26784395219E+03  0.31780160426E+03 -0.25875448777E+02  0.42592050265E+03  0.89445476842E+02 0.  0.
          3    1    3    3  502    0 -0.31374219750E+03 -0.29024264455E+03 -0.13576219717E+03  0.44844880799E+03  0.00000000000E+00 0. -1.
         -4    1    3    3    0  502 -0.62589373661E+01 -0.17035296537E+02 -0.23282150598E+02  0.29520063711E+02  0.00000000000E+00 0.  1.
         11    1    5    5    0    0  0.33916652754E+03 -0.41482748429E+02  0.10057037839E+03  0.35618696331E+03  0.00000000000E+00 0.  1.
        -11    1    5    5    0    0  0.24867855952E+03  0.30959085248E+02  0.12142874289E+03  0.27846800628E+03  0.00000000000E+00 0. -1.
          2    1    6    6  503    0 -0.20300678744E+03  0.20331202088E+03 -0.51457659575E+02  0.29188255226E+03  0.00000000000E+00 0. -1.
         -2    1    6    6    0  503 -0.64837164748E+02  0.11448958338E+03  0.25582210798E+02  0.13403795039E+03  0.00000000000E+00 0.  1.
<mgrwt>
<rscale>  0 0.15380975E+04</rscale>
<asrwt>0</asrwt>
<pdfrwt beam="1">  1        1 0.12120182E+00 0.15380975E+04</pdfrwt>
<pdfrwt beam="2">  1       -2 0.11549731E+00 0.15380975E+04</pdfrwt>
<totfact> 0.11167724E+01</totfact>
</mgrwt>
</event>
<event>
12    4  0.7200639E-008  0.1619217E+04  0.7818608E-02  0.8808828E-01
         -2   -1    0    0    0  501 -0.00000000000E+00  0.00000000000E+00  0.48340246434E+03  0.48340246434E+03  0.00000000000E+00 0.  1.
          1   -1    0    0  501    0  0.00000000000E+00 -0.00000000000E+00 -0.13559425572E+04  0.13559425572E+04  0.00000000000E+00 0. -1.
        -24    2    1    2    0    0  0.21660574633E+03 -0.11626944100E+03  0.23104687228E+03  0.34628645886E+03  0.78070622808E+02 0.  0.
        254    2    1    2    0    0 -0.21660574633E+03  0.11626944100E+03 -0.11035869652E+04  0.14930585627E+04  0.97513232423E+03 0.  0.
         23    2    4    4    0    0 -0.49363586435E+03  0.23100972120E+02 -0.20327344486E+03  0.54209094167E+03  0.91282387003E+02 0.  0.
         23    2    4    4    0    0  0.27703011801E+03  0.93168468878E+02 -0.90031352029E+03  0.95096762104E+03  0.91372487943E+02 0.  0.
          3    1    3    3  502    0 -0.84464246173E+00 -0.99170007276E+01  0.30037010214E+02  0.31643045159E+02  0.00000000000E+00 0. -1.
         -4    1    3    3    0  502  0.21745038879E+03 -0.10635244027E+03  0.20100986206E+03  0.31464341370E+03  0.00000000000E+00 0.  1.
         11    1    5    5    0    0 -0.13796920207E+02  0.17466933837E+02 -0.46619063510E+01  0.22741639249E+02  0.00000000000E+00 0. -1.
        -11    1    5    5    0    0 -0.47983894414E+03  0.56340382830E+01 -0.19861153851E+03  0.51934930243E+03  0.00000000000E+00 0.  1.
          3    1    6    6  503    0  0.22962814361E+02  0.16345582386E+01 -0.21145929510E+02  0.31258806101E+02  0.00000000000E+00 0. -1.
         -3    1    6    6    0  503  0.25406730365E+03  0.91533910640E+02 -0.87916759078E+03  0.91970881493E+03  0.00000000000E+00 0.  1.
<mgrwt>
<rscale>  0 0.16192171E+04</rscale>
<asrwt>0</asrwt>
<pdfrwt beam="1">  1        1 0.20860654E+00 0.16192171E+04</pdfrwt>
<pdfrwt beam="2">  1       -2 0.74369612E-01 0.16192171E+04</pdfrwt>
<totfact> 0.11285449E+01</totfact>
</mgrwt>
</event>
<event>
12    4  0.4320235E-008  0.1441487E+04  0.7818608E-02  0.8924324E-01
         -2   -1    0    0    0  501 -0.00000000000E+00  0.00000000000E+00  0.60507124835E+03  0.60507124835E+03  0.00000000000E+00 0.  1.
          1   -1    0    0  501    0  0.00000000000E+00 -0.00000000000E+00 -0.85852869495E+03  0.85852869495E+03  0.00000000000E+00 0. -1.
        -24    2    1    2    0    0 -0.40933230401E+03 -0.10571515933E+03 -0.18704025367E+03  0.46935391931E+03  0.81119757510E+02 0.  0.
        254    2    1    2    0    0  0.40933230401E+03  0.10571515933E+03 -0.66417192938E+02  0.99424602399E+03  0.89743260620E+03 0.  0.
         23    2    4    4    0    0  0.59436969498E+03 -0.15558654645E+03 -0.17254482179E+03  0.64463354348E+03  0.91094358240E+02 0.  0.
         23    2    4    4    0    0 -0.18503739096E+03  0.26130170578E+03  0.10612762885E+03  0.34961248051E+03  0.91915153407E+02 0.  0.
          1    1    3    3  502    0 -0.21642565932E+03 -0.72828272963E+02 -0.14081819097E+03  0.26827930644E+03  0.00000000000E+00 0. -1.
         -2    1    3    3    0  502 -0.19290664469E+03 -0.32886886367E+02 -0.46222062701E+02  0.20107461287E+03  0.00000000000E+00 0.  1.
         11    1    5    5    0    0  0.24160166979E+02  0.11719299660E+02 -0.82924802001E+01  0.28103752078E+02  0.00000000000E+00 0.  1.
        -11    1    5    5    0    0  0.57020952800E+03 -0.16730584611E+03 -0.16425234159E+03  0.61652979140E+03  0.00000000000E+00 0. -1.
          2    1    6    6  503    0 -0.62185242614E+02  0.14250062599E+03  0.85602140401E+02  0.17748565927E+03  0.00000000000E+00 0. -1.
         -2    1    6    6    0  503 -0.12285214835E+03  0.11880107979E+03  0.20525488450E+02  0.17212682124E+03  0.00000000000E+00 0.  1.
<mgrwt>
<rscale>  0 0.14414868E+04</rscale>
<asrwt>0</asrwt>
<pdfrwt beam="1">  1        1 0.13208134E+00 0.14414868E+04</pdfrwt>
<pdfrwt beam="2">  1       -2 0.93087885E-01 0.14414868E+04</pdfrwt>
<totfact> 0.16396271E+01</totfact>
</mgrwt>
</event>
<event>
12    4  0.4320235E-008  0.2746548E+04  0.7818608E-02  0.8320058E-01
         -2   -1    0    0    0  501 -0.00000000000E+00  0.00000000000E+00  0.68287061945E+03  0.68287061945E+03  0.00000000000E+00 0.  1.
          1   -1    0    0  501    0  0.00000000000E+00 -0.00000000000E+00 -0.27616960070E+04  0.27616960070E+04  0.00000000000E+00 0. -1.
        -24    2    1    2    0    0  0.79299994547E+03 -0.77803813356E+02 -0.21037792692E+04  0.22511041381E+04  0.81732979051E+02 0.  0.
        254    2    1    2    0    0 -0.79299994547E+03  0.77803813356E+02  0.24953881695E+02  0.11934624884E+04  0.88815970865E+03 0.  0.
         23    2    4    4    0    0 -0.32917971206E+03  0.17894438304E+03 -0.39534465367E+03  0.55245708086E+03  0.92363715543E+02 0.  0.
         23    2    4    4    0    0 -0.46382023341E+03 -0.10114056969E+03  0.42029853537E+03  0.64100540752E+03  0.94225526677E+02 0.  0.
          1    1    3    3  502    0  0.75358176896E+03 -0.88826910980E+02 -0.19651549938E+04  0.21065635172E+04  0.00000000000E+00 0. -1.
         -2    1    3    3    0  502  0.39418176506E+02  0.11023097624E+02 -0.13862427547E+03  0.14454062083E+03  0.00000000000E+00 0.  1.
         11    1    5    5    0    0 -0.68780256556E+01 -0.40098248695E+01 -0.33734490894E+02  0.34661243606E+02  0.00000000000E+00 0. -1.
        -11    1    5    5    0    0 -0.32230168640E+03  0.18295420791E+03 -0.36161016278E+03  0.51779583725E+03  0.00000000000E+00 0.  1.
          4    1    6    6  503    0 -0.66181790863E+02 -0.31560955747E+02  0.29141475503E+02  0.78900880629E+02  0.00000000000E+00 0. -1.
         -4    1    6    6    0  503 -0.39763844255E+03 -0.69579613939E+02  0.39115705986E+03  0.56210452689E+03  0.00000000000E+00 0.  1.
<mgrwt>
<rscale>  0 0.27465477E+04</rscale>
<asrwt>0</asrwt>
<pdfrwt beam="1">  1        1 0.42487631E+00 0.27465477E+04</pdfrwt>
<pdfrwt beam="2">  1       -2 0.10505702E+00 0.27465477E+04</pdfrwt>
<totfact> 0.49815351E-01</totfact>
</mgrwt>
</event>
<event>
12    4  0.4320235E-008  0.1411187E+04  0.7818608E-02  0.8945761E-01
         -2   -1    0    0    0  501 -0.00000000000E+00  0.00000000000E+00  0.78141366126E+03  0.78141366126E+03  0.00000000000E+00 0.  1.
          1   -1    0    0  501    0  0.00000000000E+00 -0.00000000000E+00 -0.63712998050E+03  0.63712998050E+03  0.00000000000E+00 0. -1.
        -24    2    1    2    0    0 -0.35820899790E+02 -0.95296616977E+02 -0.35987704488E+03  0.38240774966E+03  0.79747209997E+02 0.  0.
        254    2    1    2    0    0  0.35820899790E+02  0.95296616977E+02  0.50416072565E+03  0.10361358921E+04  0.89946371107E+03 0.  0.
         23    2    4    4    0    0  0.22131566484E+03 -0.15485047981E+03 -0.13821795401E+03  0.31656760930E+03  0.90285955973E+02 0.  0.
         23    2    4    4    0    0 -0.18549476505E+03  0.25014709679E+03  0.64237867966E+03  0.71956828279E+03  0.90256676382E+02 0.  0.
          1    1    3    3  502    0  0.10573363545E+02 -0.78182097533E+02 -0.24344957311E+03  0.25591391334E+03  0.00000000000E+00 0. -1.
         -2    1    3    3    0  502 -0.46394263335E+02 -0.17114519444E+02 -0.11642747177E+03  0.12649383633E+03  0.00000000000E+00 0.  1.
         11    1    5    5    0    0  0.16592805259E+03 -0.11487119492E+03 -0.55524896267E+02  0.20930963706E+03  0.00000000000E+00 0.  1.
        -11    1    5    5    0    0  0.55387612245E+02 -0.39979284895E+02 -0.82693057741E+02  0.10725797224E+03  0.00000000000E+00 0. -1.
          3    1    6    6  503    0 -0.96027361165E+02  0.83020711613E+02  0.33724168142E+03  0.36034101117E+03  0.00000000000E+00 0. -1.
         -3    1    6    6    0  503 -0.89467403883E+02  0.16712638518E+03  0.30513699824E+03  0.35922727162E+03  0.00000000000E+00 0.  1.
<mgrwt>
<rscale>  0 0.14111868E+04</rscale>
<asrwt>0</asrwt>
<pdfrwt beam="1">  1        1 0.98019998E-01 0.14111868E+04</pdfrwt>
<pdfrwt beam="2">  1       -2 0.12021749E+00 0.14111868E+04</pdfrwt>
<totfact> 0.14137403E+01</totfact>
</mgrwt>
</event>
<event>
12    4  0.4320235E-008  0.1917072E+04  0.7818608E-02  0.8646405E-01
         -4   -1    0    0    0  501 -0.00000000000E+00  0.00000000000E+00  0.98187650001E+03  0.98187650001E+03  0.00000000000E+00 0.  1.
          3   -1    0    0  501    0  0.00000000000E+00 -0.00000000000E+00 -0.93575008744E+03  0.93575008744E+03  0.00000000000E+00 0. -1.
        -24    2    1    2    0    0 -0.24483458688E+03 -0.46638557310E+03  0.53795759448E+03  0.75746293271E+03  0.83019535291E+02 0.  0.
        254    2    1    2    0    0  0.24483458688E+03  0.46638557310E+03 -0.49183118191E+03  0.11601636547E+04  0.90918772350E+03 0.  0.
         23    2    4    4    0    0 -0.17326603832E+03 -0.12740959199E+03  0.62932483263E+02  0.24170924362E+03  0.90600975913E+02 0.  0.
         23    2    4    4    0    0  0.41810062520E+03  0.59379516509E+03 -0.55476366517E+03  0.91845441112E+03  0.91623961042E+02 0.  0.
          3    1    3    3  502    0 -0.62444927361E+02 -0.19657101014E+03  0.18295434459E+03  0.27570241781E+03  0.00000000000E+00 0. -1.
         -4    1    3    3    0  502 -0.18238965952E+03 -0.26981456296E+03  0.35500324989E+03  0.48176051490E+03  0.00000000000E+00 0.  1.
         11    1    5    5    0    0  0.78174418723E+01 -0.35746775458E+01 -0.73907009696E+01  0.11336365282E+02  0.00000000000E+00 0. -1.
        -11    1    5    5    0    0 -0.18108348019E+03 -0.12383491444E+03  0.70323184233E+02  0.23037287834E+03  0.00000000000E+00 0.  1.
          1    1    6    6  503    0  0.25894241433E+03  0.43231822041E+03 -0.35675686734E+03  0.61743475771E+03  0.00000000000E+00 0. -1.
         -1    1    6    6    0  503  0.15915821087E+03  0.16147694468E+03 -0.19800679783E+03  0.30101965341E+03  0.00000000000E+00 0.  1.
<mgrwt>
<rscale>  0 0.19170717E+04</rscale>
<asrwt>0</asrwt>
<pdfrwt beam="1">  1        3 0.14396155E+00 0.19170717E+04</pdfrwt>
<pdfrwt beam="2">  1       -4 0.15105792E+00 0.19170717E+04</pdfrwt>
<totfact> 0.22497978E-01</totfact>
</mgrwt>
</event>
<event>
12    4  0.4320235E-008  0.1890852E+04  0.7818608E-02  0.8659423E-01
          1   -1    0    0  501    0  0.00000000000E+00  0.00000000000E+00  0.26871485197E+03  0.26871485197E+03  0.00000000000E+00 0. -1.
         -2   -1    0    0    0  501 -0.00000000000E+00 -0.00000000000E+00 -0.33263148669E+04  0.33263148669E+04  0.00000000000E+00 0.  1.
        -24    2    1    2    0    0 -0.51064139670E+03 -0.25580748878E+03 -0.20524482535E+04  0.21318951278E+04  0.78999337666E+02 0.  0.
        254    2    1    2    0    0  0.51064139670E+03  0.25580748878E+03 -0.10051517614E+04  0.14631345910E+04  0.89679465912E+03 0.  0.
         23    2    4    4    0    0  0.56038524457E+03  0.38438644798E+03 -0.10827499634E+04  0.12816240171E+04  0.91804543684E+02 0.  0.
         23    2    4    4    0    0 -0.49743847867E+02 -0.12857895920E+03  0.77598202050E+02  0.18151057387E+03  0.88980943561E+02 0.  0.
          3    1    3    3  502    0 -0.98451090860E+02 -0.73187221705E+02 -0.35503451926E+03  0.37563079823E+03  0.00000000000E+00 0. -1.
         -2    1    3    3    0  502 -0.41219030584E+03 -0.18262026708E+03 -0.16974137343E+04  0.17562643296E+04  0.00000000000E+00 0.  1.
         11    1    5    5    0    0  0.42290125197E+03  0.33537828006E+03 -0.84841835319E+03  0.10055534604E+04  0.00000000000E+00 0. -1.
        -11    1    5    5    0    0  0.13748399260E+03  0.49008167927E+02 -0.23433161024E+03  0.27607055674E+03  0.00000000000E+00 0.  1.
          4    1    6    6  503    0 -0.35729119894E+02 -0.12189912886E+03  0.28730507666E+02  0.13023597697E+03  0.00000000000E+00 0. -1.
         -4    1    6    6    0  503 -0.14014727973E+02 -0.66798303376E+01  0.48867694384E+02  0.51274596906E+02  0.00000000000E+00 0.  1.
<mgrwt>
<rscale>  0 0.18908519E+04</rscale>
<asrwt>0</asrwt>
<pdfrwt beam="1">  1        1 0.41340747E-01 0.18908519E+04</pdfrwt>
<pdfrwt beam="2">  1       -2 0.51174074E+00 0.18908519E+04</pdfrwt>
<totfact> 0.11529798E-01</totfact>
</mgrwt>
</event>
<event>
12    4  0.4320235E-008  0.1706900E+04  0.7818608E-02  0.8757439E-01
          1   -1    0    0  501    0  0.00000000000E+00  0.00000000000E+00  0.69231790051E+03  0.69231790051E+03  0.00000000000E+00 0. -1.
         -2   -1    0    0    0  501 -0.00000000000E+00 -0.00000000000E+00 -0.10520843288E+04  0.10520843288E+04  0.00000000000E+00 0.  1.
        -24    2    1    2    0    0 -0.59371720762E+03  0.13866186019E+03 -0.51023678199E+02  0.61700663253E+03  0.79790568083E+02 0.  0.
        254    2    1    2    0    0  0.59371720762E+03 -0.13866186019E+03 -0.30874275012E+03  0.11273955968E+04  0.89664458503E+03 0.  0.
         23    2    4    4    0    0 -0.28059704913E+02  0.77230909694E+02  0.23787591282E+03  0.26712978121E+03  0.89562322762E+02 0.  0.
         23    2    4    4    0    0  0.62177691254E+03 -0.21589276988E+03 -0.54661866294E+03  0.86026581560E+03  0.89716741834E+02 0.  0.
          1    1    3    3  502    0 -0.22056434254E+03  0.66605656656E+02  0.16567647500E+02  0.23099660094E+03  0.00000000000E+00 0. -1.
         -2    1    3    3    0  502 -0.37315286508E+03  0.72056203535E+02 -0.67591325699E+02  0.38601003160E+03  0.00000000000E+00 0.  1.
         11    1    5    5    0    0 -0.30364246866E+02  0.56048889232E+02  0.58585900055E+02  0.86578133250E+02  0.00000000000E+00 0. -1.
        -11    1    5    5    0    0  0.23045419528E+01  0.21182020462E+02  0.17929001277E+03  0.18055164796E+03  0.00000000000E+00 0.  1.
          2    1    6    6  503    0  0.75444563276E+02 -0.81498642397E-01 -0.81033001245E+02  0.11071691858E+03  0.00000000000E+00 0. -1.
         -2    1    6    6    0  503  0.54633234926E+03 -0.21581127124E+03 -0.46558566170E+03  0.74954889702E+03  0.00000000000E+00 0.  1.
<mgrwt>
<rscale>  0 0.17068999E+04</rscale>
<asrwt>0</asrwt>
<pdfrwt beam="1">  1        1 0.10651045E+00 0.17068999E+04</pdfrwt>
<pdfrwt beam="2">  1       -2 0.16185913E+00 0.17068999E+04</pdfrwt>
<totfact> 0.56275947E+00</totfact>
</mgrwt>
</event>
<event>
12    4  0.4320235E-008  0.1741602E+04  0.7818608E-02  0.8737987E-01
         -2   -1    0    0    0  501 -0.00000000000E+00  0.00000000000E+00  0.90150934742E+03  0.90150934742E+03  0.00000000000E+00 0.  1.
          1   -1    0    0  501    0  0.00000000000E+00 -0.00000000000E+00 -0.84113874427E+03  0.84113874427E+03  0.00000000000E+00 0. -1.
        -24    2    1    2    0    0  0.57491680792E+03 -0.16132259536E+03 -0.22863220105E+03  0.64411071759E+03  0.77792142004E+02 0.  0.
        254    2    1    2    0    0 -0.57491680792E+03  0.16132259536E+03  0.28900280420E+03  0.10985373741E+04  0.87561831049E+03 0.  0.
         23    2    4    4    0    0  0.28602011341E+02 -0.17004941420E+03  0.35054443093E+03  0.40136181619E+03  0.92059932214E+02 0.  0.
         23    2    4    4    0    0 -0.60351881926E+03  0.33137200955E+03 -0.61541626726E+02  0.69717555791E+03  0.90686343030E+02 0.  0.
          3    1    3    3  502    0  0.41795522398E+03 -0.14136497980E+03 -0.14076976181E+03  0.46312714519E+03  0.00000000000E+00 0. -1.
         -4    1    3    3    0  502  0.15696158394E+03 -0.19957615552E+02 -0.87862439244E+02  0.18098357241E+03  0.00000000000E+00 0.  1.
         11    1    5    5    0    0 -0.77844022479E+01 -0.14830792540E+03  0.30444873680E+03  0.33874012310E+03  0.00000000000E+00 0. -1.
        -11    1    5    5    0    0  0.36386413589E+02 -0.21741488794E+02  0.46095694127E+02  0.62621693094E+02  0.00000000000E+00 0.  1.
          3    1    6    6  503    0 -0.27655331211E+03  0.18888540809E+03 -0.61554921512E+02  0.34051202650E+03  0.00000000000E+00 0. -1.
         -3    1    6    6    0  503 -0.32696550715E+03  0.14248660146E+03  0.13294786387E-01  0.35666353141E+03  0.00000000000E+00 0.  1.
<mgrwt>
<rscale>  0 0.17416021E+04</rscale>
<asrwt>0</asrwt>
<pdfrwt beam="1">  1        1 0.12940596E+00 0.17416021E+04</pdfrwt>
<pdfrwt beam="2">  1       -2 0.13869375E+00 0.17416021E+04</pdfrwt>
<totfact> 0.62289239E+00</totfact>
</mgrwt>
</event>
<event>
12    4  0.4320235E-008  0.1258070E+04  0.7818608E-02  0.9063493E-01
          1   -1    0    0  501    0  0.00000000000E+00  0.00000000000E+00  0.19441432824E+04  0.19441432824E+04  0.00000000000E+00 0. -1.
         -2   -1    0    0    0  501 -0.00000000000E+00 -0.00000000000E+00 -0.20352669363E+03  0.20352669363E+03  0.00000000000E+00 0.  1.
        -24    2    1    2    0    0 -0.16306884762E+03  0.23126540655E+03  0.59144199060E+03  0.66043339130E+03  0.79331574902E+02 0.  0.
        254    2    1    2    0    0  0.16306884762E+03 -0.23126540655E+03  0.11491745981E+04  0.14872365847E+04  0.90066379104E+03 0.  0.
         23    2    4    4    0    0 -0.33873241903E+03 -0.11240330587E+03  0.24643380877E+03  0.44339005555E+03  0.92146429004E+02 0.  0.
         23    2    4    4    0    0  0.50180126665E+03 -0.11886210069E+03  0.90274078935E+03  0.10438465291E+04  0.93498307033E+02 0.  0.
          1    1    3    3  502    0 -0.12187585017E+03  0.16876239181E+03  0.50416980947E+03  0.54545546521E+03  0.00000000000E+00 0. -1.
         -2    1    3    3    0  502 -0.41192997443E+02  0.62503014745E+02  0.87272181126E+02  0.11497792609E+03  0.00000000000E+00 0.  1.
         11    1    5    5    0    0 -0.51492543802E+02  0.95650732761E+01  0.13808446226E+02  0.54163141352E+02  0.00000000000E+00 0. -1.
        -11    1    5    5    0    0 -0.28723987523E+03 -0.12196837914E+03  0.23262536255E+03  0.38922691420E+03  0.00000000000E+00 0.  1.
          2    1    6    6  503    0  0.68263584179E+02 -0.51112620991E+02  0.14387965986E+03  0.16725362020E+03  0.00000000000E+00 0. -1.
         -2    1    6    6    0  503  0.43353768247E+03 -0.67749479698E+02  0.75886112950E+03  0.87659290893E+03  0.00000000000E+00 0.  1.
<mgrwt>
<rscale>  0 0.12580700E+04</rscale>
<asrwt>0</asrwt>
<pdfrwt beam="1">  1        1 0.29909895E+00 0.12580700E+04</pdfrwt>
<pdfrwt beam="2">  1       -2 0.31311800E-01 0.12580700E+04</pdfrwt>
<totfact> 0.26657759E+01</totfact>
</mgrwt>
</event>
<event>
12    4  0.4320235E-008  0.1962558E+04  0.7818608E-02  0.8624329E-01
         -4   -1    0    0    0  501 -0.00000000000E+00  0.00000000000E+00  0.10432385576E+04  0.10432385576E+04  0.00000000000E+00 0.  1.
          1   -1    0    0  501    0  0.00000000000E+00 -0.00000000000E+00 -0.92299949722E+03  0.92299949722E+03  0.00000000000E+00 0. -1.
        -24    2    1    2    0    0  0.63385064032E+03  0.42729960379E+03  0.14167916282E+03  0.78144052443E+03  0.78896910051E+02 0.  0.
        254    2    1    2    0    0 -0.63385064032E+03 -0.42729960379E+03 -0.21440102442E+02  0.11847975304E+04  0.90494968059E+03 0.  0.
         23    2    4    4    0    0  0.11020014920E+02 -0.43938260926E+03  0.20617707929E+03  0.49455583305E+03  0.94329030146E+02 0.  0.
         23    2    4    4    0    0 -0.64487065524E+03  0.12083005470E+02 -0.22761718174E+03  0.69024169734E+03  0.92843192110E+02 0.  0.
          3    1    3    3  502    0  0.83023521197E+02  0.88215466539E+02  0.32897948022E+02  0.12552748142E+03  0.00000000000E+00 0. -1.
         -4    1    3    3    0  502  0.55082711912E+03  0.33908413725E+03  0.10878121480E+03  0.65591304301E+03  0.00000000000E+00 0.  1.
         11    1    5    5    0    0  0.11763828224E+02 -0.14473950998E+03  0.11766681966E+03  0.18690477215E+03  0.00000000000E+00 0. -1.
        -11    1    5    5    0    0 -0.74381330372E+00 -0.29464309929E+03  0.88510259635E+02  0.30765106091E+03  0.00000000000E+00 0.  1.
          2    1    6    6  503    0 -0.31626444373E+03 -0.38875292144E+02 -0.12425022148E+03  0.34201257907E+03  0.00000000000E+00 0. -1.
         -2    1    6    6    0  503 -0.32860621151E+03  0.50958297615E+02 -0.10336696025E+03  0.34822911827E+03  0.00000000000E+00 0.  1.
<mgrwt>
<rscale>  0 0.19625582E+04</rscale>
<asrwt>0</asrwt>
<pdfrwt beam="1">  1        1 0.14199992E+00 0.19625582E+04</pdfrwt>
<pdfrwt beam="2">  1       -4 0.16049824E+00 0.19625582E+04</pdfrwt>
<totfact> 0.19458755E+00</totfact>
</mgrwt>
</event>
<event>
12    4  0.4320235E-008  0.2593596E+04  0.7818608E-02  0.8370380E-01
         -4   -1    0    0    0  501 -0.00000000000E+00  0.00000000000E+00  0.13237809716E+04  0.13237809716E+04  0.00000000000E+00 0.  1.
          3   -1    0    0  501    0  0.00000000000E+00 -0.00000000000E+00 -0.12703646658E+04  0.12703646658E+04  0.00000000000E+00 0. -1.
        -24    2    1    2    0    0 -0.79998337044E+03 -0.32903427004E+03  0.76481204209E+03  0.11573969594E+04  0.79958226732E+02 0.  0.
        254    2    1    2    0    0  0.79998337044E+03  0.32903427004E+03 -0.71139573630E+03  0.14367486779E+04  0.89995884687E+03 0.  0.
         23    2    4    4    0    0  0.53982126468E+03  0.58550563147E+03 -0.69350168834E+03  0.10597662528E+04  0.89084659618E+02 0.  0.
         23    2    4    4    0    0  0.26016210577E+03 -0.25647136143E+03 -0.17894047960E+02  0.37698242512E+03  0.91288944511E+02 0.  0.
          3    1    3    3  502    0 -0.41145824289E+02 -0.18141763215E+02  0.66653678447E+02  0.80404075018E+02  0.00000000000E+00 0. -1.
         -4    1    3    3    0  502 -0.75883754615E+03 -0.31089250683E+03  0.69815836364E+03  0.10769928844E+04  0.00000000000E+00 0.  1.
         11    1    5    5    0    0  0.47496792125E+03  0.49275251160E+03 -0.62878515752E+03  0.92939245651E+03  0.00000000000E+00 0. -1.
        -11    1    5    5    0    0  0.64853343429E+02  0.92753119865E+02 -0.64716530819E+02  0.13037379629E+03  0.00000000000E+00 0.  1.
          3    1    6    6  503    0  0.26730557931E+03 -0.24346152798E+03 -0.19293347117E+02  0.36207460775E+03  0.00000000000E+00 0. -1.
         -3    1    6    6    0  503 -0.71434735438E+01 -0.13009833446E+02  0.13992991570E+01  0.14907817369E+02  0.00000000000E+00 0.  1.
<mgrwt>
<rscale>  0 0.25935956E+04</rscale>
<asrwt>0</asrwt>
<pdfrwt beam="1">  1        3 0.19544072E+00 0.25935956E+04</pdfrwt>
<pdfrwt beam="2">  1       -4 0.20365861E+00 0.25935956E+04</pdfrwt>
<totfact> 0.39512819E-02</totfact>
</mgrwt>
</event>
<event>
12    4  0.4320235E-008  0.1719448E+04  0.7818608E-02  0.8750350E-01
         -2   -1    0    0    0  501 -0.00000000000E+00  0.00000000000E+00  0.12601880510E+04  0.12601880510E+04  0.00000000000E+00 0.  1.
          1   -1    0    0  501    0  0.00000000000E+00 -0.00000000000E+00 -0.58651971810E+03  0.58651971810E+03  0.00000000000E+00 0. -1.
        -24    2    1    2    0    0  0.34537740515E+03  0.49868979474E+03  0.37220777745E+03  0.71605433018E+03  0.78854998637E+02 0.  0.
        254    2    1    2    0    0 -0.34537740515E+03 -0.49868979474E+03  0.30146055541E+03  0.11306534389E+04  0.90527436117E+03 0.  0.
         23    2    4    4    0    0 -0.23967540180E+03 -0.75219454530E+03  0.24759656817E+03  0.83237263374E+03  0.91099992389E+02 0.  0.
         23    2    4    4    0    0 -0.10570200336E+03  0.25350475056E+03  0.53863987242E+02  0.29828080514E+03  0.10311419651E+03 0.  0.
          1    1    3    3  502    0  0.10688433607E+03  0.14802174032E+03  0.15543065388E+03  0.23977778268E+03  0.00000000000E+00 0. -1.
         -2    1    3    3    0  502  0.23849306909E+03  0.35066805442E+03  0.21677712357E+03  0.47627654750E+03  0.00000000000E+00 0.  1.
         11    1    5    5    0    0 -0.68018312839E+02 -0.15472071558E+03  0.19198723057E+02  0.17009874096E+03  0.00000000000E+00 0. -1.
        -11    1    5    5    0    0 -0.17165708896E+03 -0.59747382973E+03  0.22839784511E+03  0.66227389277E+03  0.00000000000E+00 0.  1.
          4    1    6    6  503    0 -0.92991617869E+02  0.17214911702E+03 -0.71599039284E+01  0.19579076513E+03  0.00000000000E+00 0.  1.
         -4    1    6    6    0  503 -0.12710385488E+02  0.81355633536E+02  0.61023891171E+02  0.10249004001E+03  0.00000000000E+00 0. -1.
<mgrwt>
<rscale>  0 0.17194477E+04</rscale>
<asrwt>0</asrwt>
<pdfrwt beam="1">  1        1 0.90233803E-01 0.17194477E+04</pdfrwt>
<pdfrwt beam="2">  1       -2 0.19387508E+00 0.17194477E+04</pdfrwt>
<totfact> 0.42934171E+00</totfact>
</mgrwt>
</event>
<event>
12    4  0.4320235E-008  0.1590786E+04  0.7818608E-02  0.8826229E-01
          3   -1    0    0  501    0  0.00000000000E+00  0.00000000000E+00  0.13173887901E+04  0.13173887901E+04  0.00000000000E+00 0. -1.
         -4   -1    0    0    0  501 -0.00000000000E+00 -0.00000000000E+00 -0.48023009976E+03  0.48023009976E+03  0.00000000000E+00 0.  1.
        -24    2    1    2    0    0 -0.12105425331E+03  0.49252601438E+03  0.46445493869E+03  0.69324458724E+03  0.87370822229E+02 0.  0.
        254    2    1    2    0    0  0.12105425331E+03 -0.49252601438E+03  0.37270375162E+03  0.11043743026E+04  0.90746818493E+03 0.  0.
         23    2    4    4    0    0  0.38108592501E+03  0.48204366776E+02  0.41258873824E+01  0.39391789777E+03  0.87201743230E+02 0.  0.
         23    2    4    4    0    0 -0.26003167170E+03 -0.54073038116E+03  0.36857786424E+03  0.71045640482E+03  0.94301886259E+02 0.  0.
          3    1    3    3  502    0 -0.73267207149E+02  0.41588026115E+03  0.35781913074E+03  0.55349706918E+03  0.00000000000E+00 0. -1.
         -2    1    3    3    0  502 -0.47787046158E+02  0.76645753228E+02  0.10663580795E+03  0.13974751807E+03  0.00000000000E+00 0.  1.
         11    1    5    5    0    0  0.27823035998E+03  0.40897801507E+02 -0.35498684988E+02  0.28345179488E+03  0.00000000000E+00 0. -1.
        -11    1    5    5    0    0  0.10285556502E+03  0.73065652698E+01  0.39624572370E+02  0.11046610289E+03  0.00000000000E+00 0.  1.
          1    1    6    6  503    0 -0.19065430684E+03 -0.40677853011E+03  0.32149291467E+03  0.55242694672E+03  0.00000000000E+00 0. -1.
         -1    1    6    6    0  503 -0.69377364858E+02 -0.13395185104E+03  0.47084949574E+02  0.15802945811E+03  0.00000000000E+00 0.  1.
<mgrwt>
<rscale>  0 0.15907857E+04</rscale>
<asrwt>0</asrwt>
<pdfrwt beam="1">  1        3 0.20267520E+00 0.15907857E+04</pdfrwt>
<pdfrwt beam="2">  1       -4 0.73881555E-01 0.15907857E+04</pdfrwt>
<totfact> 0.51759571E-01</totfact>
</mgrwt>
</event>
<event>
12    4  0.4320235E-008  0.1172988E+04  0.7818608E-02  0.9136835E-01
          3   -1    0    0  501    0  0.00000000000E+00  0.00000000000E+00  0.25089657901E+03  0.25089657901E+03  0.00000000000E+00 0. -1.
         -2   -1    0    0    0  501 -0.00000000000E+00 -0.00000000000E+00 -0.13709832878E+04  0.13709832878E+04  0.00000000000E+00 0.  1.
        -24    2    1    2    0    0 -0.16502877474E+03 -0.12447042300E+03 -0.31194931579E+02  0.22351040160E+03  0.79097365135E+02 0.  0.
        254    2    1    2    0    0  0.16502877474E+03  0.12447042300E+03 -0.10888917772E+04  0.13983694652E+04  0.85265730283E+03 0.  0.
         23    2    4    4    0    0  0.34485423323E+03 -0.24400529581E+03 -0.72451664285E+03  0.84242497431E+03  0.79324933118E+02 0.  0.
         23    2    4    4    0    0 -0.17982545849E+03  0.36847571881E+03 -0.36437513436E+03  0.55594449090E+03  0.90517885243E+02 0.  0.
          3    1    3    3  502    0 -0.11120863403E+03 -0.56395470973E+02  0.14333894223E+02  0.12551203111E+03  0.00000000000E+00 0. -1.
         -4    1    3    3    0  502 -0.53820140710E+02 -0.68074952029E+02 -0.45528825802E+02  0.97998370490E+02  0.00000000000E+00 0.  1.
         11    1    5    5    0    0  0.16557446703E+03 -0.79544798871E+02 -0.26437121537E+03  0.32192300116E+03  0.00000000000E+00 0. -1.
        -11    1    5    5    0    0  0.17927976620E+03 -0.16446049694E+03 -0.46014542748E+03  0.52050197315E+03  0.00000000000E+00 0.  1.
          3    1    6    6  503    0 -0.56407824791E+00 -0.43325374767E+01  0.44036722942E+00  0.43912399790E+01  0.00000000000E+00 0. -1.
         -3    1    6    6    0  503 -0.17926138024E+03  0.37280825629E+03 -0.36481550159E+03  0.55155325093E+03  0.00000000000E+00 0.  1.
<mgrwt>
<rscale>  0 0.11729877E+04</rscale>
<asrwt>0</asrwt>
<pdfrwt beam="1">  1        3 0.38599474E-01 0.11729877E+04</pdfrwt>
<pdfrwt beam="2">  1       -2 0.21092051E+00 0.11729877E+04</pdfrwt>
<totfact> 0.31397841E+00</totfact>
</mgrwt>
</event>
<event>
12    4  0.4320235E-008  0.1321612E+04  0.7818608E-02  0.9012600E-01
         -2   -1    0    0    0  501 -0.00000000000E+00  0.00000000000E+00  0.18426453823E+04  0.18426453823E+04  0.00000000000E+00 0.  1.
          1   -1    0    0  501    0  0.00000000000E+00 -0.00000000000E+00 -0.23697687572E+03  0.23697687572E+03  0.00000000000E+00 0. -1.
        -24    2    1    2    0    0 -0.27260342074E+03 -0.45474714484E+01  0.91073196230E+02  0.29838340952E+03  0.80031415786E+02 0.  0.
        254    2    1    2    0    0  0.27260342074E+03  0.45474714484E+01  0.15145953103E+04  0.17812388485E+04  0.89692785481E+03 0.  0.
         23    2    4    4    0    0 -0.47340474511E+02  0.36302024533E+03  0.33903370041E+03  0.50787823898E+03  0.94718723430E+02 0.  0.
         23    2    4    4    0    0  0.31994389525E+03 -0.35847277388E+03  0.11755616099E+04  0.12733606095E+04  0.92926408374E+02 0.  0.
          3    1    3    3  502    0 -0.67357430148E+02 -0.18617631861E+02 -0.74536733287E+01  0.70279419878E+02  0.00000000000E+00 0. -1.
         -4    1    3    3    0  502 -0.20524599059E+03  0.14070160413E+02  0.98526869558E+02  0.22810398964E+03  0.00000000000E+00 0.  1.
         11    1    5    5    0    0  0.34449141700E+01  0.12655323162E+03  0.64773226225E+02  0.14220815273E+03  0.00000000000E+00 0. -1.
        -11    1    5    5    0    0 -0.50785388681E+02  0.23646701370E+03  0.27426047419E+03  0.36567008624E+03  0.00000000000E+00 0.  1.
          4    1    6    6  503    0  0.46696101558E+02 -0.27962682906E+02  0.79065088902E+02  0.95988154577E+02  0.00000000000E+00 0. -1.
         -4    1    6    6    0  503  0.27324779369E+03 -0.33051009097E+03  0.10964965210E+04  0.11773724549E+04  0.00000000000E+00 0.  1.
<mgrwt>
<rscale>  0 0.13216117E+04</rscale>
<asrwt>0</asrwt>
<pdfrwt beam="1">  1        1 0.36457982E-01 0.13216117E+04</pdfrwt>
<pdfrwt beam="2">  1       -2 0.28348390E+00 0.13216117E+04</pdfrwt>
<totfact> 0.41096173E+00</totfact>
</mgrwt>
</event>
<event>
12    4  0.4320235E-008  0.2379394E+04  0.7818608E-02  0.8447259E-01
          1   -1    0    0  501    0  0.00000000000E+00  0.00000000000E+00  0.14735110772E+04  0.14735110772E+04  0.00000000000E+00 0. -1.
         -2   -1    0    0    0  501 -0.00000000000E+00 -0.00000000000E+00 -0.96054824585E+03  0.96054824585E+03  0.00000000000E+00 0.  1.
        -24    2    1    2    0    0 -0.20908801814E+03 -0.55917706113E+03 -0.62251868140E+03  0.86603405371E+03  0.78030048446E+02 0.  0.
        254    2    1    2    0    0  0.20908801814E+03  0.55917706113E+03  0.11354815127E+04  0.15680252693E+04  0.90165857975E+03 0.  0.
         23    2    4    4    0    0  0.42306058229E+03  0.62940028998E+03  0.57147166728E+03  0.95372159430E+03  0.88769542128E+02 0.  0.
         23    2    4    4    0    0 -0.21397256415E+03 -0.70223228851E+02  0.56400984546E+03  0.61430367503E+03  0.92446413105E+02 0.  0.
          1    1    3    3  502    0 -0.40124349751E+02 -0.70771806631E+02 -0.53588159437E+02  0.97418185616E+02  0.00000000000E+00 0. -1.
         -2    1    3    3    0  502 -0.16896366839E+03 -0.48840525450E+03 -0.56893052197E+03  0.76861586809E+03  0.00000000000E+00 0.  1.
         11    1    5    5    0    0  0.22334095213E+03  0.25354350680E+03  0.25770695823E+03  0.42494513418E+03  0.00000000000E+00 0. -1.
        -11    1    5    5    0    0  0.19971963016E+03  0.37585678318E+03  0.31376470905E+03  0.52877646012E+03  0.00000000000E+00 0.  1.
          4    1    6    6  503    0 -0.22035743329E+03 -0.69881243750E+02  0.56185887015E+03  0.60755755003E+03  0.00000000000E+00 0. -1.
         -4    1    6    6    0  503  0.63848691367E+01 -0.34198510052E+00  0.21509753131E+01  0.67461249988E+01  0.00000000000E+00 0.  1.
<mgrwt>
<rscale>  0 0.23793936E+04</rscale>
<asrwt>0</asrwt>
<pdfrwt beam="1">  1        1 0.22669401E+00 0.23793936E+04</pdfrwt>
<pdfrwt beam="2">  1       -2 0.14777665E+00 0.23793936E+04</pdfrwt>
<totfact> 0.16767561E+00</totfact>
</mgrwt>
</event>
<event>
12    4  0.4320235E-008  0.1161880E+04  0.7818608E-02  0.9146893E-01
         -2   -1    0    0    0  501 -0.00000000000E+00  0.00000000000E+00  0.33811830751E+03  0.33811830751E+03  0.00000000000E+00 0.  1.
          1   -1    0    0  501    0  0.00000000000E+00 -0.00000000000E+00 -0.99814542575E+03  0.99814542575E+03  0.00000000000E+00 0. -1.
        -24    2    1    2    0    0  0.20793852989E+03  0.63104786610E+02 -0.53741168004E+02  0.23768708933E+03  0.79914910946E+02 0.  0.
        254    2    1    2    0    0 -0.20793852989E+03 -0.63104786610E+02 -0.60628595024E+03  0.10985766439E+04  0.88998165308E+03 0.  0.
         23    2    4    4    0    0 -0.20685905366E+03  0.17830122809E+03 -0.75008313942E+03  0.80315598772E+03  0.88616186683E+02 0.  0.
         23    2    4    4    0    0 -0.10794762315E+01 -0.24140601470E+03  0.14379718918E+03  0.29542065621E+03  0.91201443489E+02 0.  0.
          3    1    3    3  502    0  0.36347930837E+02  0.16565725614E+02 -0.44295775102E+02  0.59646550891E+02  0.00000000000E+00 0. -1.
         -4    1    3    3    0  502  0.17159059905E+03  0.46539060996E+02 -0.94453929011E+01  0.17804053844E+03  0.00000000000E+00 0.  1.
         11    1    5    5    0    0 -0.40569656136E+02 -0.18203177714E+01 -0.81742343262E+02  0.91274428170E+02  0.00000000000E+00 0. -1.
        -11    1    5    5    0    0 -0.16628939752E+03  0.18012154586E+03 -0.66834079616E+03  0.71188155955E+03  0.00000000000E+00 0.  1.
          2    1    6    6  503    0  0.57779814114E+01 -0.17457595339E+02  0.48635454600E+02  0.51995770486E+02  0.00000000000E+00 0. -1.
         -2    1    6    6    0  503 -0.68574576428E+01 -0.22394841936E+03  0.95161734582E+02  0.24342488572E+03  0.00000000000E+00 0.  1.
<mgrwt>
<rscale>  0 0.11618799E+04</rscale>
<asrwt>0</asrwt>
<pdfrwt beam="1">  1        1 0.15356083E+00 0.11618799E+04</pdfrwt>
<pdfrwt beam="2">  1       -2 0.52018201E-01 0.11618799E+04</pdfrwt>
<totfact> 0.46081786E+01</totfact>
</mgrwt>
</event>
<event>
12    4  0.4320235E-008  0.1396458E+04  0.7818608E-02  0.8956386E-01
          1   -1    0    0  501    0  0.00000000000E+00  0.00000000000E+00  0.60293858096E+03  0.60293858096E+03  0.00000000000E+00 0. -1.
         -2   -1    0    0    0  501 -0.00000000000E+00 -0.00000000000E+00 -0.80857985689E+03  0.80857985689E+03  0.00000000000E+00 0.  1.
        -24    2    1    2    0    0  0.21147588116E+03 -0.16899144582E+03  0.18022554888E+03  0.33544332074E+03  0.82224180667E+02 0.  0.
        254    2    1    2    0    0 -0.21147588116E+03  0.16899144582E+03 -0.38586682481E+03  0.10760751171E+04  0.96734910664E+03 0.  0.
         23    2    4    4    0    0 -0.18065052040E+03  0.49832327621E+03  0.28629648627E+02  0.53825451963E+03  0.89093058001E+02 0.  0.
         23    2    4    4    0    0 -0.30825360762E+02 -0.32933183039E+03 -0.41449647344E+03  0.53782059749E+03  0.89632645907E+02 0.  0.
          3    1    3    3  502    0  0.74154493170E+02 -0.27818053142E+02  0.86670536035E+02  0.11740747316E+03  0.00000000000E+00 0. -1.
         -4    1    3    3    0  502  0.13732138799E+03 -0.14117339268E+03  0.93555012847E+02  0.21803584757E+03  0.00000000000E+00 0.  1.
         11    1    5    5    0    0 -0.17973485466E+03  0.49404080701E+03  0.17184583609E+02  0.52600023468E+03  0.00000000000E+00 0. -1.
        -11    1    5    5    0    0 -0.91566573546E+00  0.42824691976E+01  0.11445065017E+02  0.12254284941E+02  0.00000000000E+00 0.  1.
          4    1    6    6  503    0  0.28018600073E+02 -0.17366784003E+03 -0.22551168947E+03  0.28600888570E+03  0.00000000000E+00 0.  1.
         -4    1    6    6    0  503 -0.58843960834E+02 -0.15566399036E+03 -0.18898478397E+03  0.25181171179E+03  0.00000000000E+00 0. -1.
<mgrwt>
<rscale>  0 0.13964584E+04</rscale>
<asrwt>0</asrwt>
<pdfrwt beam="1">  1        1 0.92759782E-01 0.13964584E+04</pdfrwt>
<pdfrwt beam="2">  1       -2 0.12439690E+00 0.13964584E+04</pdfrwt>
<totfact> 0.14082514E+01</totfact>
</mgrwt>
</event>
<event>
12    4  0.4320235E-008  0.1730309E+04  0.7818608E-02  0.8744264E-01
          1   -1    0    0  501    0  0.00000000000E+00  0.00000000000E+00  0.24747714555E+04  0.24747714555E+04  0.00000000000E+00 0. -1.
         -2   -1    0    0    0  501 -0.00000000000E+00 -0.00000000000E+00 -0.30244919880E+03  0.30244919880E+03  0.00000000000E+00 0.  1.
        -24    2    1    2    0    0 -0.10772387161E+03 -0.84775871553E+02 -0.17476667042E+03  0.23654468782E+03  0.81354897406E+02 0.  0.
        254    2    1    2    0    0  0.10772387161E+03  0.84775871553E+02  0.23470889272E+04  0.25406759665E+04  0.96302469017E+03 0.  0.
         23    2    4    4    0    0  0.38374586342E+03 -0.20719271489E+03  0.18091692278E+04  0.18630432115E+04  0.87447151904E+02 0.  0.
         23    2    4    4    0    0 -0.27602199180E+03  0.29196858644E+03  0.53791969934E+03  0.67763275496E+03  0.91622880541E+02 0.  0.
          1    1    3    3  502    0  0.11045807374E+02 -0.19893309127E+02 -0.36906700099E+02  0.43357330646E+02  0.00000000000E+00 0. -1.
         -2    1    3    3    0  502 -0.11876967899E+03 -0.64882562426E+02 -0.13785997032E+03  0.19318735717E+03  0.00000000000E+00 0.  1.
         11    1    5    5    0    0  0.89055516091E+02 -0.46928207268E+02  0.59188827966E+03  0.60038727267E+03  0.00000000000E+00 0. -1.
        -11    1    5    5    0    0  0.29469034733E+03 -0.16026450762E+03  0.12172809482E+04  0.12626559389E+04  0.00000000000E+00 0.  1.
          4    1    6    6  503    0 -0.12665056942E+03  0.94995371506E+02  0.27075858576E+03  0.31364741208E+03  0.00000000000E+00 0. -1.
         -4    1    6    6    0  503 -0.14937142239E+03  0.19697321493E+03  0.26716111357E+03  0.36398534288E+03  0.00000000000E+00 0.  1.
<mgrwt>
<rscale>  0 0.17303094E+04</rscale>
<asrwt>0</asrwt>
<pdfrwt beam="1">  1        1 0.38073406E+00 0.17303094E+04</pdfrwt>
<pdfrwt beam="2">  1       -2 0.46530648E-01 0.17303094E+04</pdfrwt>
<totfact> 0.51550316E+00</totfact>
</mgrwt>
</event>
<event>
12    4  0.4320235E-008  0.2171995E+04  0.7818608E-02  0.8530176E-01
          1   -1    0    0  501    0  0.00000000000E+00  0.00000000000E+00  0.14814529129E+04  0.14814529129E+04  0.00000000000E+00 0. -1.
         -2   -1    0    0    0  501 -0.00000000000E+00 -0.00000000000E+00 -0.79610376342E+03  0.79610376342E+03  0.00000000000E+00 0.  1.
        -24    2    1    2    0    0  0.18545776886E+03  0.79667265511E+03 -0.10731963118E+03  0.82895399258E+03  0.81026632322E+02 0.  0.
        254    2    1    2    0    0 -0.18545776886E+03 -0.79667265511E+03  0.79266878066E+03  0.14486026837E+04  0.89501063460E+03 0.  0.
         23    2    4    4    0    0  0.35196640198E+03 -0.26209757516E+03  0.27256140090E+03  0.52455964099E+03  0.91091232631E+02 0.  0.
         23    2    4    4    0    0 -0.53742417084E+03 -0.53457507995E+03  0.52010737976E+03  0.92404304275E+03  0.93533966366E+02 0.  0.
          3    1    3    3  502    0  0.18329703745E+03  0.73453082371E+03 -0.80799763699E+02  0.76135532882E+03  0.00000000000E+00 0. -1.
         -4    1    3    3    0  502  0.21607314049E+01  0.62141831407E+02 -0.26519867478E+02  0.67598663758E+02  0.00000000000E+00 0.  1.
         11    1    5    5    0    0  0.31035824271E+03 -0.26222407254E+03  0.25244948821E+03  0.47834553112E+03  0.00000000000E+00 0. -1.
        -11    1    5    5    0    0  0.41608159268E+02  0.12649737747E+00  0.20111912686E+02  0.46214109870E+02  0.00000000000E+00 0.  1.
          2    1    6    6  503    0 -0.42777099344E+03 -0.38315955674E+03  0.35906430550E+03  0.67729346980E+03  0.00000000000E+00 0. -1.
         -2    1    6    6    0  503 -0.10965317740E+03 -0.15141552321E+03  0.16104307426E+03  0.24674957295E+03  0.00000000000E+00 0.  1.
<mgrwt>
<rscale>  0 0.21719947E+04</rscale>
<asrwt>0</asrwt>
<pdfrwt beam="1">  1        1 0.22791583E+00 0.21719947E+04</pdfrwt>
<pdfrwt beam="2">  1       -2 0.12247750E+00 0.21719947E+04</pdfrwt>
<totfact> 0.27282339E+00</totfact>
</mgrwt>
</event>
<event>
12    4  0.4320235E-008  0.1070162E+04  0.7818608E-02  0.9234772E-01
          1   -1    0    0  501    0  0.00000000000E+00  0.00000000000E+00  0.18924931954E+04  0.18924931954E+04  0.00000000000E+00 0. -1.
         -4   -1    0    0    0  501 -0.00000000000E+00 -0.00000000000E+00 -0.15128797621E+03  0.15128797621E+03  0.00000000000E+00 0.  1.
        -24    2    1    2    0    0 -0.56710596543E+02  0.96863063408E+02  0.49624180769E+03  0.51453586058E+03  0.76763763026E+02 0.  0.
        254    2    1    2    0    0  0.56710596543E+02 -0.96863063408E+02  0.12449634115E+04  0.15292453111E+04  0.88094198478E+03 0.  0.
         23    2    4    4    0    0 -0.17018619403E+03 -0.34383848632E+03  0.23040703213E+03  0.45674937145E+03  0.91347372949E+02 0.  0.
         23    2    4    4    0    0  0.22689679057E+03  0.24697542291E+03  0.10145563794E+04  0.10724959396E+04  0.91890589447E+02 0.  0.
          1    1    3    3  502    0  0.11565334006E+02  0.54257766810E+02  0.20755738600E+03  0.21484350280E+03  0.00000000000E+00 0. -1.
         -2    1    3    3    0  502 -0.68275930549E+02  0.42605296598E+02  0.28868442168E+03  0.29969235778E+03  0.00000000000E+00 0.  1.
         11    1    5    5    0    0 -0.12020359845E+03 -0.15952079900E+03  0.86696566319E+02  0.21774316294E+03  0.00000000000E+00 0. -1.
        -11    1    5    5    0    0 -0.49982595576E+02 -0.18431768732E+03  0.14371046582E+03  0.23900620851E+03  0.00000000000E+00 0.  1.
          4    1    6    6  503    0  0.95028915891E+02  0.43832565397E+02  0.34253966232E+03  0.35816924617E+03  0.00000000000E+00 0. -1.
         -4    1    6    6    0  503  0.13186787468E+03  0.20314285752E+03  0.67201671708E+03  0.71432669344E+03  0.00000000000E+00 0.  1.
<mgrwt>
<rscale>  0 0.10701616E+04</rscale>
<asrwt>0</asrwt>
<pdfrwt beam="1">  1        1 0.29115278E+00 0.10701616E+04</pdfrwt>
<pdfrwt beam="2">  1       -4 0.23275075E-01 0.10701616E+04</pdfrwt>
<totfact> 0.30574170E+01</totfact>
</mgrwt>
</event>
<event>
12    4  0.4320235E-008  0.2687549E+04  0.7818608E-02  0.8339056E-01
          1   -1    0    0  501    0  0.00000000000E+00  0.00000000000E+00  0.10509701584E+04  0.10509701584E+04  0.00000000000E+00 0. -1.
         -2   -1    0    0    0  501 -0.00000000000E+00 -0.00000000000E+00 -0.17181549398E+04  0.17181549398E+04  0.00000000000E+00 0.  1.
        -24    2    1    2    0    0 -0.45281347580E+02 -0.11431496598E+04  0.50447863525E+02  0.11462005658E+04  0.48879494415E+02 0.  0.
        254    2    1    2    0    0  0.45281347580E+02  0.11431496598E+04 -0.71763264501E+03  0.16229245324E+04  0.90002548822E+03 0.  0.
         23    2    4    4    0    0  0.39187781424E+03  0.84103264994E+03 -0.25809159312E+03  0.96717981108E+03  0.89002117705E+02 0.  0.
         23    2    4    4    0    0 -0.34659646666E+03  0.30211700987E+03 -0.45954105189E+03  0.65574472130E+03  0.86135723117E+02 0.  0.
          3    1    3    3  502    0 -0.36884890449E+02 -0.67123618878E+03  0.51405636361E+02  0.67421143251E+03  0.00000000000E+00 0. -1.
         -4    1    3    3    0  502 -0.83964571305E+01 -0.47191347103E+03 -0.95777283634E+00  0.47198913331E+03  0.00000000000E+00 0.  1.
         11    1    5    5    0    0  0.11194113487E+03  0.33134777889E+03 -0.76857141702E+02  0.35809103379E+03  0.00000000000E+00 0. -1.
        -11    1    5    5    0    0  0.27993667937E+03  0.50968487106E+03 -0.18123445142E+03  0.60908877729E+03  0.00000000000E+00 0.  1.
          3    1    6    6  503    0 -0.11953040378E+03  0.14114366473E+03 -0.22875809353E+03  0.29417565650E+03  0.00000000000E+00 0. -1.
         -3    1    6    6    0  503 -0.22706606288E+03  0.16097334515E+03 -0.23078295836E+03  0.36156906481E+03  0.00000000000E+00 0.  1.
<mgrwt>
<rscale>  0 0.26875487E+04</rscale>
<asrwt>0</asrwt>
<pdfrwt beam="1">  1        1 0.16168772E+00 0.26875487E+04</pdfrwt>
<pdfrwt beam="2">  1       -2 0.26433152E+00 0.26875487E+04</pdfrwt>
<totfact> 0.55610477E-01</totfact>
</mgrwt>
</event>
<event>
12    4  0.4320235E-008  0.2476187E+04  0.7818608E-02  0.8411518E-01
         -2   -1    0    0    0  501 -0.00000000000E+00  0.00000000000E+00  0.78083885334E+03  0.78083885334E+03  0.00000000000E+00 0.  1.
          1   -1    0    0  501    0  0.00000000000E+00 -0.00000000000E+00 -0.19631139760E+04  0.19631139760E+04  0.00000000000E+00 0. -1.
        -24    2    1    2    0    0  0.91506509444E+02 -0.57582015557E+03 -0.15107613683E+04  0.16212425197E+04  0.78007068617E+02 0.  0.
        254    2    1    2    0    0 -0.91506509444E+02  0.57582015557E+03  0.32848624564E+03  0.11227103097E+04  0.90146155385E+03 0.  0.
         23    2    4    4    0    0  0.26953090257E+02 -0.19686011192E+03 -0.83893288484E+02  0.23468732326E+03  0.92518555474E+02 0.  0.
         23    2    4    4    0    0 -0.11845959970E+03  0.77268026750E+03  0.41237953412E+03  0.88802298643E+03  0.86374022264E+02 0.  0.
          1    1    3    3  502    0  0.10257710651E+03 -0.44530809805E+03 -0.11525871278E+04  0.12398703368E+04  0.00000000000E+00 0. -1.
         -2    1    3    3    0  502 -0.11070597064E+02 -0.13051205753E+03 -0.35817424056E+03  0.38137218289E+03  0.00000000000E+00 0.  1.
         11    1    5    5    0    0  0.40647438957E+02 -0.87643537641E+02 -0.78501985786E+02  0.12448359633E+03  0.00000000000E+00 0. -1.
        -11    1    5    5    0    0 -0.13694348700E+02 -0.10921657428E+03 -0.53913026982E+01  0.11020372693E+03  0.00000000000E+00 0.  1.
          4    1    6    6  503    0 -0.75728254448E+02  0.63825562060E+03  0.30906302596E+03  0.71317947234E+03  0.00000000000E+00 0. -1.
         -4    1    6    6    0  503 -0.42731345252E+02  0.13442464690E+03  0.10331650816E+03  0.17484351409E+03  0.00000000000E+00 0.  1.
<mgrwt>
<rscale>  0 0.24761871E+04</rscale>
<asrwt>0</asrwt>
<pdfrwt beam="1">  1        1 0.30201753E+00 0.24761871E+04</pdfrwt>
<pdfrwt beam="2">  1       -2 0.12012906E+00 0.24761871E+04</pdfrwt>
<totfact> 0.13077324E+00</totfact>
</mgrwt>
</event>
<event>
12    4  0.4320235E-008  0.2453401E+04  0.7818608E-02  0.8419777E-01
         -4   -1    0    0    0  501 -0.00000000000E+00  0.00000000000E+00  0.11454988868E+04  0.11454988868E+04  0.00000000000E+00 0.  1.
          3   -1    0    0  501    0  0.00000000000E+00 -0.00000000000E+00 -0.13136588257E+04  0.13136588257E+04  0.00000000000E+00 0. -1.
        -24    2    1    2    0    0  0.75427557136E+03  0.66647851739E+03 -0.40221176902E+03  0.10871881306E+04  0.84133658396E+02 0.  0.
        254    2    1    2    0    0 -0.75427557136E+03 -0.66647851739E+03  0.23405183011E+03  0.13719695819E+04  0.90243837613E+03 0.  0.
         23    2    4    4    0    0 -0.69642053875E+03 -0.55956293161E+03  0.52706382918E+03  0.10414066776E+04  0.92840437400E+02 0.  0.
         23    2    4    4    0    0 -0.57855032608E+02 -0.10691558578E+03 -0.29301199907E+03  0.33056290431E+03  0.92938984408E+02 0.  0.
          3    1    3    3  502    0  0.55452133653E+03  0.49511452923E+03 -0.33600648308E+03  0.81580185486E+03  0.00000000000E+00 0. -1.
         -4    1    3    3    0  502  0.19975423483E+03  0.17136398815E+03 -0.66205285940E+02  0.27138627573E+03  0.00000000000E+00 0.  1.
         11    1    5    5    0    0 -0.19618099152E+03 -0.21325954716E+03  0.16987461220E+03  0.33589283970E+03  0.00000000000E+00 0.  1.
        -11    1    5    5    0    0 -0.50023954723E+03 -0.34630338445E+03  0.35718921698E+03  0.70551383787E+03  0.00000000000E+00 0. -1.
          2    1    6    6  503    0 -0.44169719361E+02 -0.12343070360E+03 -0.24205087297E+03  0.27527209776E+03  0.00000000000E+00 0. -1.
         -2    1    6    6    0  503 -0.13685313247E+02  0.16515117817E+02 -0.50961126104E+02  0.55290806550E+02  0.00000000000E+00 0.  1.
<mgrwt>
<rscale>  0 0.24534015E+04</rscale>
<asrwt>0</asrwt>
<pdfrwt beam="1">  1        3 0.20210136E+00 0.24534015E+04</pdfrwt>
<pdfrwt beam="2">  1       -4 0.17623060E+00 0.24534015E+04</pdfrwt>
<totfact> 0.55757439E-02</totfact>
</mgrwt>
</event>
<event>
12    4  0.4320235E-008  0.2864593E+04  0.7818608E-02  0.8283491E-01
         -2   -1    0    0    0  501 -0.00000000000E+00  0.00000000000E+00  0.16967429864E+04  0.16967429864E+04  0.00000000000E+00 0.  1.
          1   -1    0    0  501    0  0.00000000000E+00 -0.00000000000E+00 -0.12090652956E+04  0.12090652956E+04  0.00000000000E+00 0. -1.
        -24    2    1    2    0    0 -0.10974107694E+04 -0.45048256459E+02  0.90152220317E+03  0.14227318467E+04  0.71301351917E+02 0.  0.
        254    2    1    2    0    0  0.10974107694E+04  0.45048256459E+02 -0.41384451234E+03  0.14830764352E+04  0.90659179908E+03 0.  0.
         23    2    4    4    0    0  0.41994594363E+03  0.37191313813E+03  0.86926275828E+02  0.57456512247E+03  0.88853388454E+02 0.  0.
         23    2    4    4    0    0  0.67746482574E+03 -0.32686488168E+03 -0.50077078817E+03  0.90851131275E+03  0.93926471898E+02 0.  0.
          3    1    3    3  502    0 -0.17539875227E+03  0.80914298725E+01  0.11745107133E+03  0.21124617794E+03  0.00000000000E+00 0. -1.
         -2    1    3    3    0  502 -0.92201201709E+03 -0.53139686332E+02  0.78407113184E+03  0.12114856688E+04  0.00000000000E+00 0.  1.
         11    1    5    5    0    0  0.30384873094E+03  0.21791620078E+03  0.39737442749E+02  0.37601939606E+03  0.00000000000E+00 0.  1.
        -11    1    5    5    0    0  0.11609721269E+03  0.15399693735E+03  0.47188833079E+02  0.19854572641E+03  0.00000000000E+00 0. -1.
          3    1    6    6  503    0  0.62972739198E+03 -0.28422285165E+03 -0.43340722760E+03  0.81558631827E+03  0.00000000000E+00 0. -1.
         -3    1    6    6    0  503  0.47737433752E+02 -0.42642030027E+02 -0.67363560564E+02  0.92924994473E+02  0.00000000000E+00 0.  1.
<mgrwt>
<rscale>  0 0.28645929E+04</rscale>
<asrwt>0</asrwt>
<pdfrwt beam="1">  1        1 0.18601005E+00 0.28645929E+04</pdfrwt>
<pdfrwt beam="2">  1       -2 0.26103738E+00 0.28645929E+04</pdfrwt>
<totfact> 0.43724044E-01</totfact>
</mgrwt>
</event>
<event>
12    4  0.4320235E-008  0.2813419E+04  0.7818608E-02  0.8299114E-01
         -2   -1    0    0    0  501 -0.00000000000E+00  0.00000000000E+00  0.61025561141E+03  0.61025561141E+03  0.00000000000E+00 0.  1.
          1   -1    0    0  501    0  0.00000000000E+00 -0.00000000000E+00 -0.32426273989E+04  0.32426273989E+04  0.00000000000E+00 0. -1.
        -24    2    1    2    0    0  0.33756475412E+03  0.49535307769E+02 -0.28418771895E+04  0.28634132638E+04  0.80410503986E+02 0.  0.
        254    2    1    2    0    0 -0.33756475412E+03 -0.49535307769E+02  0.20950540208E+03  0.98946974644E+03  0.90485034988E+03 0.  0.
         23    2    4    4    0    0  0.29994851926E+03 -0.75491940153E+02  0.81697961145E+02  0.33246551123E+03  0.90502000371E+02 0.  0.
         23    2    4    4    0    0 -0.63751327338E+03  0.25956632384E+02  0.12780744094E+03  0.65700423521E+03  0.90680221758E+02 0.  0.
          1    1    3    3  502    0  0.24650855864E+03  0.48096464238E+02 -0.17789438132E+04  0.17965858816E+04  0.00000000000E+00 0. -1.
         -2    1    3    3    0  502  0.91056195489E+02  0.14388435311E+01 -0.10629333763E+04  0.10668273823E+04  0.00000000000E+00 0.  1.
         11    1    5    5    0    0  0.29401292036E+03 -0.64547124300E+02  0.93609775422E+02  0.31523438684E+03  0.00000000000E+00 0. -1.
        -11    1    5    5    0    0  0.59355988954E+01 -0.10944815853E+02 -0.11911814277E+02  0.17231124388E+02  0.00000000000E+00 0.  1.
          3    1    6    6  503    0 -0.61898826541E+03  0.87990605781E+01  0.11999472830E+03  0.63057325586E+03  0.00000000000E+00 0. -1.
         -3    1    6    6    0  503 -0.18525007972E+02  0.17157571806E+02  0.78127126393E+01  0.26430979350E+02  0.00000000000E+00 0.  1.
<mgrwt>
<rscale>  0 0.28134190E+04</rscale>
<asrwt>0</asrwt>
<pdfrwt beam="1">  1        1 0.49886576E+00 0.28134190E+04</pdfrwt>
<pdfrwt beam="2">  1       -2 0.93885477E-01 0.28134190E+04</pdfrwt>
<totfact> 0.28763282E-01</totfact>
</mgrwt>
</event>
<event>
12    4  0.4320235E-008  0.1891054E+04  0.7818608E-02  0.8659322E-01
         -2   -1    0    0    0  501 -0.00000000000E+00  0.00000000000E+00  0.56745273289E+03  0.56745273289E+03  0.00000000000E+00 0.  1.
          1   -1    0    0  501    0  0.00000000000E+00 -0.00000000000E+00 -0.15754983771E+04  0.15754983771E+04  0.00000000000E+00 0. -1.
        -24    2    1    2    0    0 -0.42689914452E+03 -0.15958927906E+01  0.27955271221E+03  0.51659636930E+03  0.80477719908E+02 0.  0.
        254    2    1    2    0    0  0.42689914452E+03  0.15958927906E+01 -0.12875983565E+04  0.16263547407E+04  0.89714814199E+03 0.  0.
         23    2    4    4    0    0  0.54900133910E+03  0.31101446148E+03 -0.71685394676E+03  0.95950171739E+03  0.92905861478E+02 0.  0.
         23    2    4    4    0    0 -0.12210219458E+03 -0.30941856869E+03 -0.57074440970E+03  0.66685302335E+03  0.91076764156E+02 0.  0.
          3    1    3    3  502    0 -0.87141014624E+02 -0.24537462081E+02  0.86181401519E+02  0.12499150948E+03  0.00000000000E+00 0. -1.
         -4    1    3    3    0  502 -0.33975812990E+03  0.22941569290E+02  0.19337131069E+03  0.39160485982E+03  0.00000000000E+00 0.  1.
         11    1    5    5    0    0  0.37449237742E+02  0.91664486909E+01 -0.79081151424E+02  0.87978961688E+02  0.00000000000E+00 0. -1.
        -11    1    5    5    0    0  0.51155210136E+03  0.30184801279E+03 -0.63777279534E+03  0.87152275570E+03  0.00000000000E+00 0.  1.
          1    1    6    6  503    0  0.10972209299E+02 -0.41015443899E+01 -0.22634334387E+02  0.25485783026E+02  0.00000000000E+00 0. -1.
         -1    1    6    6    0  503 -0.13307440388E+03 -0.30531702430E+03 -0.54811007531E+03  0.64136724032E+03  0.00000000000E+00 0.  1.
<mgrwt>
<rscale>  0 0.18910535E+04</rscale>
<asrwt>0</asrwt>
<pdfrwt beam="1">  1        1 0.24238436E+00 0.18910535E+04</pdfrwt>
<pdfrwt beam="2">  1       -2 0.87300422E-01 0.18910535E+04</pdfrwt>
<totfact> 0.54040901E+00</totfact>
</mgrwt>
</event>
<event>
12    4  0.4320235E-008  0.1502533E+04  0.7818608E-02  0.8882770E-01
          1   -1    0    0  501    0  0.00000000000E+00  0.00000000000E+00  0.22190713073E+04  0.22190713073E+04  0.00000000000E+00 0. -1.
         -2   -1    0    0    0  501 -0.00000000000E+00 -0.00000000000E+00 -0.25434138907E+03  0.25434138907E+03  0.00000000000E+00 0.  1.
        -24    2    1    2    0    0  0.16489158464E+03  0.36128591459E+03  0.10602139055E+04  0.11347840166E+04  0.77230125110E+02 0.  0.
        254    2    1    2    0    0 -0.16489158464E+03 -0.36128591459E+03  0.90451601272E+03  0.13386286797E+04  0.90336082391E+03 0.  0.
         23    2    4    4    0    0 -0.24093896379E+03 -0.21334509126E+03 -0.73180551477E+02  0.34270122404E+03  0.92309390679E+02 0.  0.
         23    2    4    4    0    0  0.76047379154E+02 -0.14794082334E+03  0.97769656420E+03  0.99592745569E+03  0.91165971030E+02 0.  0.
          1    1    3    3  502    0  0.13807813719E+03  0.31785125636E+03  0.83891924410E+03  0.90767862774E+03  0.00000000000E+00 0. -1.
         -2    1    3    3    0  502  0.26813447449E+02  0.43434658237E+02  0.22129466139E+03  0.22710538888E+03  0.00000000000E+00 0.  1.
         11    1    5    5    0    0 -0.19132484214E+03 -0.12898696683E+03 -0.80938123628E+02  0.24452773399E+03  0.00000000000E+00 0.  1.
        -11    1    5    5    0    0 -0.49614121654E+02 -0.84358124422E+02  0.77575721506E+01  0.98173490053E+02  0.00000000000E+00 0. -1.
          3    1    6    6  503    0  0.75597346880E+02 -0.47616476792E+02  0.46727921874E+03  0.47574379237E+03  0.00000000000E+00 0. -1.
         -3    1    6    6    0  503  0.45003227390E+00 -0.10032434655E+03  0.51041734546E+03  0.52018366332E+03  0.00000000000E+00 0.  1.
<mgrwt>
<rscale>  0 0.15025334E+04</rscale>
<asrwt>0</asrwt>
<pdfrwt beam="1">  1        1 0.34139557E+00 0.15025334E+04</pdfrwt>
<pdfrwt beam="2">  1       -2 0.39129446E-01 0.15025334E+04</pdfrwt>
<totfact> 0.11099610E+01</totfact>
</mgrwt>
</event>
<event>
12    4  0.4320235E-008  0.1756413E+04  0.7818608E-02  0.8729828E-01
         -2   -1    0    0    0  501 -0.00000000000E+00  0.00000000000E+00  0.75631158509E+03  0.75631158509E+03  0.00000000000E+00 0.  1.
          1   -1    0    0  501    0  0.00000000000E+00 -0.00000000000E+00 -0.10197473312E+04  0.10197473312E+04  0.00000000000E+00 0. -1.
        -24    2    1    2    0    0 -0.63305481046E+03  0.46434628769E+02 -0.19867861838E+03  0.66963434025E+03  0.77604049148E+02 0.  0.
        254    2    1    2    0    0  0.63305481046E+03 -0.46434628769E+02 -0.64757127743E+02  0.11064245760E+04  0.90391774465E+03 0.  0.
         23    2    4    4    0    0  0.85510620780E+03 -0.25893005562E+02 -0.95447576304E+01  0.86024588264E+03  0.89748547893E+02 0.  0.
         23    2    4    4    0    0 -0.22205139733E+03 -0.20541623207E+02 -0.55212370113E+02  0.24617869341E+03  0.88468988538E+02 0.  0.
          3    1    3    3  502    0 -0.60336224416E+02 -0.18186692984E+02 -0.23337512485E+02  0.67200113597E+02  0.00000000000E+00 0. -1.
         -4    1    3    3    0  502 -0.57271858605E+03  0.64621321753E+02 -0.17534110589E+03  0.60243422666E+03  0.00000000000E+00 0.  1.
         11    1    5    5    0    0  0.70838312727E+03  0.63395153688E+01 -0.27561840083E+02  0.70894745891E+03  0.00000000000E+00 0. -1.
        -11    1    5    5    0    0  0.14672308053E+03 -0.32232520931E+02  0.18017082453E+02  0.15129842374E+03  0.00000000000E+00 0.  1.
          4    1    6    6  503    0 -0.13621208791E+03  0.16545813966E+02  0.72658769885E+00  0.13721524982E+03  0.00000000000E+00 0. -1.
         -4    1    6    6    0  503 -0.85839309426E+02 -0.37087437172E+02 -0.55938957812E+02  0.10896344359E+03  0.00000000000E+00 0.  1.
<mgrwt>
<rscale>  0 0.17564131E+04</rscale>
<asrwt>0</asrwt>
<pdfrwt beam="1">  1        1 0.15688421E+00 0.17564131E+04</pdfrwt>
<pdfrwt beam="2">  1       -2 0.11635563E+00 0.17564131E+04</pdfrwt>
<totfact> 0.69477767E+00</totfact>
</mgrwt>
</event>
<event>
12    4  0.4320235E-008  0.2436054E+04  0.7818608E-02  0.8426128E-01
          1   -1    0    0  501    0  0.00000000000E+00  0.00000000000E+00  0.10633388061E+04  0.10633388061E+04  0.00000000000E+00 0. -1.
         -2   -1    0    0    0  501 -0.00000000000E+00 -0.00000000000E+00 -0.13952177891E+04  0.13952177891E+04  0.00000000000E+00 0.  1.
        -24    2    1    2    0    0 -0.16601304825E+03 -0.10114556623E+04  0.13796471725E+03  0.10374071505E+04  0.81095275408E+02 0.  0.
        254    2    1    2    0    0  0.16601304825E+03  0.10114556623E+04 -0.46984370024E+03  0.14211494447E+04  0.86504898850E+03 0.  0.
         23    2    4    4    0    0  0.12796970900E+03  0.10817226668E+04 -0.17981775268E+03  0.11076562467E+04  0.89820724221E+02 0.  0.
         23    2    4    4    0    0  0.38043339258E+02 -0.70267004467E+02 -0.29002594756E+03  0.31349319798E+03  0.88194032354E+02 0.  0.
          1    1    3    3  502    0 -0.16013526010E+01 -0.17898355861E+02  0.13913974486E+02  0.22726947852E+02  0.00000000000E+00 0. -1.
         -2    1    3    3    0  502 -0.16441169565E+03 -0.99355730642E+03  0.12405074277E+03  0.10146802026E+04  0.00000000000E+00 0.  1.
         11    1    5    5    0    0  0.82384888079E+02  0.78661677715E+03 -0.16946724936E+03  0.80887104812E+03  0.00000000000E+00 0. -1.
        -11    1    5    5    0    0  0.45584820917E+02  0.29510588960E+03 -0.10350503323E+02  0.29878519859E+03  0.00000000000E+00 0.  1.
          1    1    6    6  503    0  0.60535132431E+02 -0.73696283503E+02 -0.24796142492E+03  0.26566993189E+03  0.00000000000E+00 0. -1.
         -1    1    6    6    0  503 -0.22491793173E+02  0.34292790356E+01 -0.42064522633E+02  0.47823266087E+02  0.00000000000E+00 0.  1.
<mgrwt>
<rscale>  0 0.24360535E+04</rscale>
<asrwt>0</asrwt>
<pdfrwt beam="1">  1        1 0.16359059E+00 0.24360535E+04</pdfrwt>
<pdfrwt beam="2">  1       -2 0.21464889E+00 0.24360535E+04</pdfrwt>
<totfact> 0.11321734E+00</totfact>
</mgrwt>
</event>
<event>
12    4  0.4320235E-008  0.1269102E+04  0.7818608E-02  0.9054433E-01
         -2   -1    0    0    0  501 -0.00000000000E+00  0.00000000000E+00  0.49167433164E+03  0.49167433164E+03  0.00000000000E+00 0.  1.
          1   -1    0    0  501    0  0.00000000000E+00 -0.00000000000E+00 -0.81894621062E+03  0.81894621062E+03  0.00000000000E+00 0. -1.
        -24    2    1    2    0    0 -0.27231725198E+02 -0.17589012686E+03 -0.34516429277E+03  0.39628534822E+03  0.78897304318E+02 0.  0.
        254    2    1    2    0    0  0.27231725198E+02  0.17589012686E+03  0.17892413790E+02  0.91433519405E+03  0.89666593836E+03 0.  0.
         23    2    4    4    0    0  0.43263311036E+03  0.19159310888E+03  0.95693005312E+02  0.49118398852E+03  0.90693063461E+02 0.  0.
         23    2    4    4    0    0 -0.40540138516E+03 -0.15702982013E+02 -0.77800591522E+02  0.42315120553E+03  0.91690479124E+02 0.  0.
          1    1    3    3  502    0 -0.19881952456E+02 -0.48660863174E+02 -0.41534537931E+02  0.66994697397E+02  0.00000000000E+00 0. -1.
         -2    1    3    3    0  502 -0.73497727425E+01 -0.12722926369E+03 -0.30362975484E+03  0.32929065083E+03  0.00000000000E+00 0.  1.
         11    1    5    5    0    0  0.17786246550E+02  0.46144457795E+01 -0.14013268997E+02  0.23108772884E+02  0.00000000000E+00 0. -1.
        -11    1    5    5    0    0  0.41484686381E+03  0.18697866310E+03  0.10970627431E+03  0.46807521563E+03  0.00000000000E+00 0.  1.
          2    1    6    6  503    0 -0.12203361954E+02  0.39005226208E+01 -0.22098560470E+02  0.25543736894E+02  0.00000000000E+00 0. -1.
         -2    1    6    6    0  503 -0.39319802321E+03 -0.19603504634E+02 -0.55702031053E+02  0.39760746863E+03  0.00000000000E+00 0.  1.
<mgrwt>
<rscale>  0 0.12691018E+04</rscale>
<asrwt>0</asrwt>
<pdfrwt beam="1">  1        1 0.12599172E+00 0.12691018E+04</pdfrwt>
<pdfrwt beam="2">  1       -2 0.75642205E-01 0.12691018E+04</pdfrwt>
<totfact> 0.28785650E+01</totfact>
</mgrwt>
</event>
<event>
12    4  0.4320235E-008  0.2466753E+04  0.7818608E-02  0.8414927E-01
          1   -1    0    0  501    0  0.00000000000E+00  0.00000000000E+00  0.14947238820E+04  0.14947238820E+04  0.00000000000E+00 0. -1.
         -2   -1    0    0    0  501 -0.00000000000E+00 -0.00000000000E+00 -0.10177246627E+04  0.10177246627E+04  0.00000000000E+00 0.  1.
        -24    2    1    2    0    0  0.86507014725E+03 -0.21127635622E+03  0.80481653269E+03  0.12029511410E+04  0.79860741417E+02 0.  0.
        254    2    1    2    0    0 -0.86507014725E+03  0.21127635622E+03 -0.32781731338E+03  0.13094974038E+04  0.90240523112E+03 0.  0.
         23    2    4    4    0    0 -0.14476822404E+03  0.23645642481E+03 -0.48685209017E+03  0.56591335031E+03  0.79771441165E+02 0.  0.
         23    2    4    4    0    0 -0.72030192321E+03 -0.25180068597E+02  0.15903477679E+03  0.74358405346E+03  0.90312169099E+02 0.  0.
          3    1    3    3  502    0  0.62916116164E+03 -0.16934605608E+03  0.63025553640E+03  0.90650090744E+03  0.00000000000E+00 0. -1.
         -4    1    3    3    0  502  0.23590898561E+03 -0.41930300142E+02  0.17456099628E+03  0.29645023357E+03  0.00000000000E+00 0.  1.
         11    1    5    5    0    0 -0.14869486877E+03  0.21258701618E+03 -0.40854460214E+03  0.48395464186E+03  0.00000000000E+00 0. -1.
        -11    1    5    5    0    0  0.39266447347E+01  0.23869408638E+02 -0.78307488035E+02  0.81958708445E+02  0.00000000000E+00 0.  1.
          3    1    6    6  503    0 -0.61561168356E+03 -0.53389552284E+02  0.13775360386E+03  0.63309102395E+03  0.00000000000E+00 0. -1.
         -3    1    6    6    0  503 -0.10469023965E+03  0.28209483687E+02  0.21281172939E+02  0.11049302951E+03  0.00000000000E+00 0.  1.
<mgrwt>
<rscale>  0 0.24667528E+04</rscale>
<asrwt>0</asrwt>
<pdfrwt beam="1">  1        1 0.22995752E+00 0.24667528E+04</pdfrwt>
<pdfrwt beam="2">  1       -2 0.15657303E+00 0.24667528E+04</pdfrwt>
<totfact> 0.13787700E+00</totfact>
</mgrwt>
</event>
<event>
12    4  0.4320235E-008  0.1285647E+04  0.7818608E-02  0.9041025E-01
         -2   -1    0    0    0  501 -0.00000000000E+00  0.00000000000E+00  0.31616707300E+03  0.31616707300E+03  0.00000000000E+00 0.  1.
          1   -1    0    0  501    0  0.00000000000E+00 -0.00000000000E+00 -0.13069741656E+04  0.13069741656E+04  0.00000000000E+00 0. -1.
        -24    2    1    2    0    0 -0.19448257054E+03 -0.27991616313E+02 -0.56571645599E+03  0.60401293263E+03  0.78673460450E+02 0.  0.
        254    2    1    2    0    0  0.19448257054E+03  0.27991616313E+02 -0.42509063660E+03  0.10191283060E+04  0.90515935273E+03 0.  0.
         23    2    4    4    0    0  0.14841904674E+03  0.32691856937E+03  0.11990996367E+03  0.38929227538E+03  0.90918160173E+02 0.  0.
         23    2    4    4    0    0  0.46063523806E+02 -0.29892695306E+03 -0.54500060027E+03  0.62983603057E+03  0.90490881367E+02 0.  0.
          3    1    3    3  502    0 -0.71777404632E+02 -0.41528007031E+02 -0.29582963983E+03  0.30723239898E+03  0.00000000000E+00 0. -1.
         -4    1    3    3    0  502 -0.12270516591E+03  0.13536390718E+02 -0.26988681616E+03  0.29678053365E+03  0.00000000000E+00 0.  1.
         11    1    5    5    0    0  0.42661193524E+02  0.44967225446E+02 -0.72598836424E+01  0.62407809669E+02  0.00000000000E+00 0.  1.
        -11    1    5    5    0    0  0.10575785321E+03  0.28195134393E+03  0.12716984731E+03  0.32688446571E+03  0.00000000000E+00 0. -1.
          3    1    6    6  503    0  0.55863921159E+02 -0.22464390449E+03 -0.33780842918E+03  0.40951214431E+03  0.00000000000E+00 0. -1.
         -3    1    6    6    0  503 -0.98003973525E+01 -0.74283048570E+02 -0.20719217109E+03  0.22032388626E+03  0.00000000000E+00 0.  1.
<mgrwt>
<rscale>  0 0.12856472E+04</rscale>
<asrwt>0</asrwt>
<pdfrwt beam="1">  1        1 0.20107295E+00 0.12856472E+04</pdfrwt>
<pdfrwt beam="2">  1       -2 0.48641088E-01 0.12856472E+04</pdfrwt>
<totfact> 0.30879440E+01</totfact>
</mgrwt>
</event>
<event>
12    4  0.4320235E-008  0.1383524E+04  0.7818608E-02  0.8965832E-01
          1   -1    0    0  501    0  0.00000000000E+00  0.00000000000E+00  0.46224917510E+03  0.46224917510E+03  0.00000000000E+00 0. -1.
         -2   -1    0    0    0  501 -0.00000000000E+00 -0.00000000000E+00 -0.10352310939E+04  0.10352310939E+04  0.00000000000E+00 0.  1.
        -24    2    1    2    0    0 -0.34325507595E+03 -0.10802712474E+03 -0.31555701671E+03  0.48528614521E+03  0.80202899537E+02 0.  0.
        254    2    1    2    0    0  0.34325507595E+03  0.10802712474E+03 -0.25742490206E+03  0.10121941238E+04  0.91037105464E+03 0.  0.
         23    2    4    4    0    0  0.54452711833E+03 -0.58785874702E+02 -0.41543536702E+03  0.69321613897E+03  0.89423204460E+02 0.  0.
         23    2    4    4    0    0 -0.20127204238E+03  0.16681299944E+03  0.15801046496E+03  0.31897798479E+03  0.91883817470E+02 0.  0.
          1    1    3    3  502    0  0.29737178971E+01 -0.49273906776E+01 -0.21236284080E+00  0.57591036627E+01  0.00000000000E+00 0. -1.
         -2    1    3    3    0  502 -0.34622879385E+03 -0.10309973407E+03 -0.31534465387E+03  0.47952704155E+03  0.00000000000E+00 0.  1.
         11    1    5    5    0    0  0.11269662153E+02  0.10824141147E+02 -0.21539803326E+02  0.26610720470E+02  0.00000000000E+00 0. -1.
        -11    1    5    5    0    0  0.53325745618E+03 -0.69610015849E+02 -0.39389556370E+03  0.66660541850E+03  0.00000000000E+00 0.  1.
          3    1    6    6  503    0  0.52700957727E+00  0.28414147051E+02  0.13981010175E+01  0.28453403631E+02  0.00000000000E+00 0. -1.
         -3    1    6    6    0  503 -0.20179905196E+03  0.13839885239E+03  0.15661236394E+03  0.29052458116E+03  0.00000000000E+00 0.  1.
<mgrwt>
<rscale>  0 0.13835241E+04</rscale>
<asrwt>0</asrwt>
<pdfrwt beam="1">  1        1 0.71115259E-01 0.13835241E+04</pdfrwt>
<pdfrwt beam="2">  1       -2 0.15926632E+00 0.13835241E+04</pdfrwt>
<totfact> 0.10737142E+01</totfact>
</mgrwt>
</event>
<event>
12    4  0.4320235E-008  0.1544750E+04  0.7818608E-02  0.8855228E-01
         -2   -1    0    0    0  501 -0.00000000000E+00  0.00000000000E+00  0.10130127933E+04  0.10130127933E+04  0.00000000000E+00 0.  1.
          1   -1    0    0  501    0  0.00000000000E+00 -0.00000000000E+00 -0.58889996013E+03  0.58889996013E+03  0.00000000000E+00 0. -1.
        -24    2    1    2    0    0  0.35309325204E+03 -0.32589465308E+03 -0.12786885581E+02  0.48719578767E+03  0.79461069319E+02 0.  0.
        254    2    1    2    0    0 -0.35309325204E+03  0.32589465308E+03  0.43689971877E+03  0.11147169658E+04  0.90599689845E+03 0.  0.
         23    2    4    4    0    0 -0.49268780459E+03  0.12741855259E+03 -0.92054035277E+02  0.52498069614E+03  0.90299643232E+02 0.  0.
         23    2    4    4    0    0  0.13959455256E+03  0.19847610049E+03  0.52895375405E+03  0.58973626964E+03  0.95485036738E+02 0.  0.
          3    1    3    3  502    0  0.31233251723E+03 -0.26295459450E+03 -0.32754527446E+02  0.40959684955E+03  0.00000000000E+00 0. -1.
         -4    1    3    3    0  502  0.40760734803E+02 -0.62940058578E+02  0.19967641866E+02  0.77598938119E+02  0.00000000000E+00 0.  1.
         11    1    5    5    0    0 -0.36617257028E+02  0.34009523960E+02 -0.20322612023E+02  0.53948862747E+02  0.00000000000E+00 0.  1.
        -11    1    5    5    0    0 -0.45607054757E+03  0.93409028631E+02 -0.71731423253E+02  0.47103183339E+03  0.00000000000E+00 0. -1.
          2    1    6    6  503    0  0.13921336200E+03  0.12892048649E+03  0.41339866881E+03  0.45486185966E+03  0.00000000000E+00 0. -1.
         -2    1    6    6    0  503  0.38119056017E+00  0.69555613995E+02  0.11555508524E+03  0.13487440998E+03  0.00000000000E+00 0.  1.
<mgrwt>
<rscale>  0 0.15447501E+04</rscale>
<asrwt>0</asrwt>
<pdfrwt beam="1">  1        1 0.90599994E-01 0.15447501E+04</pdfrwt>
<pdfrwt beam="2">  1       -2 0.15584812E+00 0.15447501E+04</pdfrwt>
<totfact> 0.80219847E+00</totfact>
</mgrwt>
</event>
<event>
12    4  0.4320235E-008  0.1699412E+04  0.7818608E-02  0.8761700E-01
          1   -1    0    0  501    0  0.00000000000E+00  0.00000000000E+00  0.10514867470E+04  0.10514867470E+04  0.00000000000E+00 0. -1.
         -2   -1    0    0    0  501 -0.00000000000E+00 -0.00000000000E+00 -0.68664738809E+03  0.68664738809E+03  0.00000000000E+00 0.  1.
        -24    2    1    2    0    0  0.50110409205E+03  0.32385817727E+03 -0.27684659145E+02  0.60255812428E+03  0.79501086380E+02 0.  0.
        254    2    1    2    0    0 -0.50110409205E+03 -0.32385817727E+03  0.39252401805E+03  0.11355760108E+04  0.88287504299E+03 0.  0.
         23    2    4    4    0    0 -0.42902001255E+03  0.46417470878E+02  0.55982365981E+03  0.71290313264E+03  0.92820222289E+02 0.  0.
         23    2    4    4    0    0 -0.72084079493E+02 -0.37027564815E+03 -0.16729964176E+03  0.42267287817E+03  0.91449558132E+02 0.  0.
          1    1    3    3  502    0  0.15406789609E+03  0.12133345299E+03 -0.41747117675E+02  0.20050323003E+03  0.00000000000E+00 0. -1.
         -2    1    3    3    0  502  0.34703619596E+03  0.20252472429E+03  0.14062458530E+02  0.40205489425E+03  0.00000000000E+00 0.  1.
         11    1    5    5    0    0 -0.23001484946E+03  0.62284182527E+02  0.34860035803E+03  0.42226574569E+03  0.00000000000E+00 0.  1.
        -11    1    5    5    0    0 -0.19900516309E+03 -0.15866711650E+02  0.21122330179E+03  0.29063738695E+03  0.00000000000E+00 0. -1.
          1    1    6    6  503    0 -0.12894106829E+01 -0.39076462717E+02 -0.51674163901E+02  0.64798547308E+02  0.00000000000E+00 0. -1.
         -1    1    6    6    0  503 -0.70794668810E+02 -0.33119918543E+03 -0.11562547786E+03  0.35787433087E+03  0.00000000000E+00 0.  1.
<mgrwt>
<rscale>  0 0.16994124E+04</rscale>
<asrwt>0</asrwt>
<pdfrwt beam="1">  1        1 0.16176719E+00 0.16994124E+04</pdfrwt>
<pdfrwt beam="2">  1       -2 0.10563806E+00 0.16994124E+04</pdfrwt>
<totfact> 0.83436547E+00</totfact>
</mgrwt>
</event>
<event>
12    4  0.4320235E-008  0.1876983E+04  0.7818608E-02  0.8666399E-01
         -2   -1    0    0    0  501 -0.00000000000E+00  0.00000000000E+00  0.62893434555E+03  0.62893434555E+03  0.00000000000E+00 0.  1.
          1   -1    0    0  501    0  0.00000000000E+00 -0.00000000000E+00 -0.14004105333E+04  0.14004105333E+04  0.00000000000E+00 0. -1.
        -24    2    1    2    0    0 -0.29938339421E+03 -0.22344957292E+03 -0.96364464919E+03  0.10365413285E+04  0.79036620262E+02 0.  0.
        254    2    1    2    0    0  0.29938339421E+03  0.22344957292E+03  0.19216846145E+03  0.99280355037E+03  0.89953879499E+03 0.  0.
         23    2    4    4    0    0  0.58915789601E+03  0.27968716921E+03  0.76269853469E+02  0.66278857868E+03  0.90220122106E+02 0.  0.
         23    2    4    4    0    0 -0.28977450179E+03 -0.56237596296E+02  0.11589860798E+03  0.33001497169E+03  0.91353517075E+02 0.  0.
          1    1    3    3  502    0 -0.16975300100E+03 -0.15118158578E+03 -0.67019525893E+03  0.70769600700E+03  0.00000000000E+00 0. -1.
         -2    1    3    3    0  502 -0.12963039321E+03 -0.72267987140E+02 -0.29344939026E+03  0.32884532147E+03  0.00000000000E+00 0.  1.
         11    1    5    5    0    0  0.25791230605E+03  0.95047328108E+02 -0.51487212463E+01  0.27491682656E+03  0.00000000000E+00 0.  1.
        -11    1    5    5    0    0  0.33124558996E+03  0.18463984110E+03  0.81418574716E+02  0.38787175212E+03  0.00000000000E+00 0. -1.
          4    1    6    6  503    0 -0.16878032150E+03 -0.71137532819E+02  0.43588523171E+02  0.18827454648E+03  0.00000000000E+00 0.  1.
         -4    1    6    6    0  503 -0.12099418029E+03  0.14899936523E+02  0.72310084805E+02  0.14174042521E+03  0.00000000000E+00 0. -1.
<mgrwt>
<rscale>  0 0.18769830E+04</rscale>
<asrwt>0</asrwt>
<pdfrwt beam="1">  1        1 0.21544777E+00 0.18769830E+04</pdfrwt>
<pdfrwt beam="2">  1       -2 0.96759133E-01 0.18769830E+04</pdfrwt>
<totfact> 0.56386538E+00</totfact>
</mgrwt>
</event>
<event>
12    4  0.4320235E-008  0.1833849E+04  0.7818608E-02  0.8688503E-01
          1   -1    0    0  501    0  0.00000000000E+00  0.00000000000E+00  0.19326925659E+04  0.19326925659E+04  0.00000000000E+00 0. -1.
         -2   -1    0    0    0  501 -0.00000000000E+00 -0.00000000000E+00 -0.43501506014E+03  0.43501506014E+03  0.00000000000E+00 0.  1.
        -24    2    1    2    0    0 -0.37560974290E+03  0.82407622553E+02 -0.17455887527E+03  0.42950013447E+03  0.78267933141E+02 0.  0.
        254    2    1    2    0    0  0.37560974290E+03 -0.82407622553E+02  0.16722363811E+04  0.19382074916E+04  0.90133238662E+03 0.  0.
         23    2    4    4    0    0  0.21428136067E+03 -0.46979335693E+03  0.68904350149E+03  0.86549982959E+03  0.87673874864E+02 0.  0.
         23    2    4    4    0    0  0.16132838223E+03  0.38738573438E+03  0.98319287958E+03  0.10727076620E+04  0.89100704825E+02 0.  0.
          3    1    3    3  502    0 -0.69235645397E+02  0.47365693747E+02 -0.42540811707E+02  0.94057451583E+02  0.00000000000E+00 0. -1.
         -4    1    3    3    0  502 -0.30637409751E+03  0.35041928806E+02 -0.13201806356E+03  0.33544268289E+03  0.00000000000E+00 0.  1.
         11    1    5    5    0    0  0.20447404085E+03 -0.36723433580E+03  0.53969296933E+03  0.68406081010E+03  0.00000000000E+00 0. -1.
        -11    1    5    5    0    0  0.98073198144E+01 -0.10255902113E+03  0.14935053216E+03  0.18143901949E+03  0.00000000000E+00 0.  1.
          3    1    6    6  503    0  0.10561350929E+03  0.33109769854E+03  0.75459133474E+03  0.83077553032E+03  0.00000000000E+00 0. -1.
         -3    1    6    6    0  503  0.55714872947E+02  0.56288035833E+02  0.22860154485E+03  0.24193213170E+03  0.00000000000E+00 0.  1.
<mgrwt>
<rscale>  0 0.18338488E+04</rscale>
<asrwt>0</asrwt>
<pdfrwt beam="1">  1        1 0.29733731E+00 0.18338488E+04</pdfrwt>
<pdfrwt beam="2">  1       -2 0.66925395E-01 0.18338488E+04</pdfrwt>
<totfact> 0.56063145E+00</totfact>
</mgrwt>
</event>
<event>
12    4  0.4320235E-008  0.1554351E+04  0.7818608E-02  0.8849093E-01
          1   -1    0    0  501    0  0.00000000000E+00  0.00000000000E+00  0.18282240896E+04  0.18282240896E+04  0.00000000000E+00 0. -1.
         -2   -1    0    0    0  501 -0.00000000000E+00 -0.00000000000E+00 -0.33037615782E+03  0.33037615782E+03  0.00000000000E+00 0.  1.
        -24    2    1    2    0    0 -0.61865133819E+02 -0.23610084281E+03  0.11296584150E+04  0.11583295614E+04  0.77642357011E+02 0.  0.
        254    2    1    2    0    0  0.61865133819E+02  0.23610084281E+03  0.36818951679E+03  0.10002706860E+04  0.89744471818E+03 0.  0.
         23    2    4    4    0    0 -0.92351048173E+02 -0.87256442760E+02 -0.24116224484E+03  0.28753897864E+03  0.91526132873E+02 0.  0.
         23    2    4    4    0    0  0.15421618199E+03  0.32335728557E+03  0.60935176163E+03  0.71273170733E+03  0.91292673926E+02 0.  0.
          3    1    3    3  502    0 -0.48867048647E+02 -0.22937813693E+03  0.96779298204E+03  0.99580398384E+03  0.00000000000E+00 0. -1.
         -4    1    3    3    0  502 -0.12998085172E+02 -0.67227058864E+01  0.16186543293E+03  0.16252557758E+03  0.00000000000E+00 0.  1.
         11    1    5    5    0    0 -0.69828178142E+02 -0.13642417071E+02 -0.16290477498E+03  0.17776404507E+03  0.00000000000E+00 0. -1.
        -11    1    5    5    0    0 -0.22522870030E+02 -0.73614025689E+02 -0.78257469861E+02  0.10977493358E+03  0.00000000000E+00 0.  1.
          1    1    6    6  503    0  0.13722721362E+03  0.18955366640E+03  0.40888138938E+03  0.47111133629E+03  0.00000000000E+00 0. -1.
         -1    1    6    6    0  503  0.16988968369E+02  0.13380361917E+03  0.20047037226E+03  0.24162037104E+03  0.00000000000E+00 0.  1.
<mgrwt>
<rscale>  0 0.15543509E+04</rscale>
<asrwt>0</asrwt>
<pdfrwt beam="1">  1        1 0.28126524E+00 0.15543509E+04</pdfrwt>
<pdfrwt beam="2">  1       -2 0.50827102E-01 0.15543509E+04</pdfrwt>
<totfact> 0.12061275E+01</totfact>
</mgrwt>
</event>
<event>
12    4  0.4320235E-008  0.3590755E+04  0.7818608E-02  0.8092613E-01
         -2   -1    0    0    0  501 -0.00000000000E+00  0.00000000000E+00  0.14639164208E+04  0.14639164208E+04  0.00000000000E+00 0.  1.
          1   -1    0    0  501    0  0.00000000000E+00 -0.00000000000E+00 -0.22018887402E+04  0.22018887402E+04  0.00000000000E+00 0. -1.
        -24    2    1    2    0    0  0.73364871570E+03  0.71807047290E+03 -0.17081323242E+04  0.19944329851E+04  0.78620945746E+02 0.  0.
        254    2    1    2    0    0 -0.73364871570E+03 -0.71807047290E+03  0.97016000475E+03  0.16713721759E+04  0.89353728148E+03 0.  0.
         23    2    4    4    0    0 -0.76956195178E+03 -0.87282010523E+03  0.77190227309E+03  0.13993941163E+04  0.91816337225E+02 0.  0.
         23    2    4    4    0    0  0.35913236082E+02  0.15474963232E+03  0.19825773166E+03  0.27197805959E+03  0.97101634948E+02 0.  0.
          3    1    3    3  502    0  0.53276838881E+03  0.48667655071E+03 -0.11475844637E+04  0.13555981420E+04  0.00000000000E+00 0. -1.
         -4    1    3    3    0  502  0.20088032689E+03  0.23139392219E+03 -0.56054786046E+03  0.63883484315E+03  0.00000000000E+00 0.  1.
         11    1    5    5    0    0 -0.35321921081E+03 -0.36650117671E+03  0.29018777324E+03  0.58591455619E+03  0.00000000000E+00 0. -1.
        -11    1    5    5    0    0 -0.41634274097E+03 -0.50631892851E+03  0.48171449985E+03  0.81347956010E+03  0.00000000000E+00 0.  1.
          3    1    6    6  503    0  0.18150747100E+02  0.11731018679E+03  0.19762270329E+03  0.23053386389E+03  0.00000000000E+00 0. -1.
         -3    1    6    6    0  503  0.17762488982E+02  0.37439445534E+02  0.63502836909E+00  0.41444195707E+02  0.00000000000E+00 0.  1.
<mgrwt>
<rscale>  0 0.35907554E+04</rscale>
<asrwt>0</asrwt>
<pdfrwt beam="1">  1        1 0.33875211E+00 0.35907554E+04</pdfrwt>
<pdfrwt beam="2">  1       -2 0.22521791E+00 0.35907554E+04</pdfrwt>
<totfact> 0.14171262E-01</totfact>
</mgrwt>
</event>
<event>
12    4  0.4320235E-008  0.1080859E+04  0.7818608E-02  0.9224051E-01
         -2   -1    0    0    0  501 -0.00000000000E+00  0.00000000000E+00  0.24989388672E+03  0.24989388672E+03  0.00000000000E+00 0.  1.
          1   -1    0    0  501    0  0.00000000000E+00 -0.00000000000E+00 -0.11687532181E+04  0.11687532181E+04  0.00000000000E+00 0. -1.
        -24    2    1    2    0    0 -0.29178777032E-01 -0.12773895230E+03 -0.27880142299E+03  0.31348933009E+03  0.65023732827E+02 0.  0.
        254    2    1    2    0    0  0.29178777032E-01  0.12773895230E+03 -0.64005790839E+03  0.11051577747E+04  0.89184210494E+03 0.  0.
         23    2    4    4    0    0  0.22756533369E+03 -0.23359203530E+03 -0.56879547320E+03  0.66193363719E+03  0.90975983956E+02 0.  0.
         23    2    4    4    0    0 -0.22753615491E+03  0.36133098760E+03 -0.71262435188E+02  0.44322413753E+03  0.95060596635E+02 0.  0.
          1    1    3    3  502    0 -0.10363003720E+02 -0.12765086762E+03 -0.27321329749E+03  0.30174101772E+03  0.00000000000E+00 0. -1.
         -2    1    3    3    0  502  0.10333824943E+02 -0.88084681433E-01 -0.55881255023E+01  0.11748312368E+02  0.00000000000E+00 0.  1.
         11    1    5    5    0    0  0.14388158358E+03 -0.20394754511E+03 -0.40951123229E+03  0.47957894097E+03  0.00000000000E+00 0. -1.
        -11    1    5    5    0    0  0.83683750109E+02 -0.29644490189E+02 -0.15928424091E+03  0.18235469622E+03  0.00000000000E+00 0.  1.
          4    1    6    6  503    0 -0.63252363727E+01  0.49623988170E+02  0.13287198317E+02  0.51760008271E+02  0.00000000000E+00 0. -1.
         -4    1    6    6    0  503 -0.22121091854E+03  0.31170699943E+03 -0.84549633505E+02  0.39146412926E+03  0.00000000000E+00 0.  1.
<mgrwt>
<rscale>  0 0.10808594E+04</rscale>
<asrwt>0</asrwt>
<pdfrwt beam="1">  1        1 0.17980819E+00 0.10808594E+04</pdfrwt>
<pdfrwt beam="2">  1       -2 0.38445214E-01 0.10808594E+04</pdfrwt>
<totfact> 0.62966963E+01</totfact>
</mgrwt>
</event>
<event>
12    4  0.4320235E-008  0.4246861E+04  0.7818608E-02  0.7956518E-01
         -2   -1    0    0    0  501 -0.00000000000E+00  0.00000000000E+00  0.15752618954E+04  0.15752618954E+04  0.00000000000E+00 0.  1.
          1   -1    0    0  501    0  0.00000000000E+00 -0.00000000000E+00 -0.28623543639E+04  0.28623543639E+04  0.00000000000E+00 0. -1.
        -24    2    1    2    0    0  0.74627798863E+03  0.31269457949E+02  0.13518711959E+04  0.15468366718E+04  0.85084332169E+02 0.  0.
        254    2    1    2    0    0 -0.74627798863E+03 -0.31269457949E+02 -0.26389636644E+04  0.28907795875E+04  0.91354736391E+03 0.  0.
         23    2    4    4    0    0 -0.40371005400E+03  0.30421052159E+03 -0.21069411842E+04  0.21686619048E+04  0.91473791497E+02 0.  0.
         23    2    4    4    0    0 -0.34256793463E+03 -0.33547997954E+03 -0.53202248017E+03  0.72211768266E+03  0.92230264502E+02 0.  0.
          3    1    3    3  502    0  0.23666192759E+03 -0.11866179414E+02  0.49830329956E+03  0.55177518296E+03  0.00000000000E+00 0. -1.
         -4    1    3    3    0  502  0.50961606105E+03  0.43135637363E+02  0.85356789633E+03  0.99506148882E+03  0.00000000000E+00 0.  1.
         11    1    5    5    0    0 -0.51288172873E+02  0.33314652901E+02 -0.40684598368E+03  0.41141705994E+03  0.00000000000E+00 0.  1.
        -11    1    5    5    0    0 -0.35242188113E+03  0.27089586869E+03 -0.17000952005E+04  0.17572448449E+04  0.00000000000E+00 0. -1.
          4    1    6    6  503    0 -0.20843226476E+03 -0.22889472272E+03 -0.40011844924E+03  0.50589680420E+03  0.00000000000E+00 0. -1.
         -4    1    6    6    0  503 -0.13413566987E+03 -0.10658525682E+03 -0.13190403093E+03  0.21622087845E+03  0.00000000000E+00 0.  1.
<mgrwt>
<rscale>  0 0.42468613E+04</rscale>
<asrwt>0</asrwt>
<pdfrwt beam="1">  1        1 0.44036221E+00 0.42468613E+04</pdfrwt>
<pdfrwt beam="2">  1       -2 0.24234799E+00 0.42468613E+04</pdfrwt>
<totfact> 0.36364410E-02</totfact>
</mgrwt>
</event>
<event>
12    4  0.4320235E-008  0.1721649E+04  0.7818608E-02  0.8749113E-01
          1   -1    0    0  501    0  0.00000000000E+00  0.00000000000E+00  0.82621890841E+03  0.82621890841E+03  0.00000000000E+00 0. -1.
         -2   -1    0    0    0  501 -0.00000000000E+00 -0.00000000000E+00 -0.89687902558E+03  0.89687902558E+03  0.00000000000E+00 0.  1.
        -24    2    1    2    0    0  0.37936289773E+03 -0.33146170054E+03 -0.38629147326E+03  0.63987611509E+03  0.80232619628E+02 0.  0.
        254    2    1    2    0    0 -0.37936289773E+03  0.33146170054E+03  0.31563135609E+03  0.10832218189E+04  0.90551824327E+03 0.  0.
         23    2    4    4    0    0 -0.45218054410E+03  0.31865174170E+03  0.57107344542E+03  0.80041747526E+03  0.92396307783E+02 0.  0.
         23    2    4    4    0    0  0.72817646366E+02  0.12809958832E+02 -0.25544208933E+03  0.28280434364E+03  0.96234770820E+02 0.  0.
          1    1    3    3  502    0  0.84962604679E+02 -0.62625183116E+02 -0.43762814962E+02  0.11426172468E+03  0.00000000000E+00 0. -1.
         -2    1    3    3    0  502  0.29440029305E+03 -0.26883651742E+03 -0.34252865830E+03  0.52561439041E+03  0.00000000000E+00 0.  1.
         11    1    5    5    0    0 -0.26280863451E+03  0.12874809417E+03  0.29912262354E+03  0.41847197521E+03  0.00000000000E+00 0.  1.
        -11    1    5    5    0    0 -0.18937190959E+03  0.18990364753E+03  0.27195082188E+03  0.38194550005E+03  0.00000000000E+00 0. -1.
          2    1    6    6  503    0  0.26012272180E+01 -0.31238453943E+01  0.83904749963E+01  0.93233504573E+01  0.00000000000E+00 0. -1.
         -2    1    6    6    0  503  0.70216419148E+02  0.15933804227E+02 -0.26383256432E+03  0.27348099318E+03  0.00000000000E+00 0.  1.
<mgrwt>
<rscale>  0 0.17216485E+04</rscale>
<asrwt>0</asrwt>
<pdfrwt beam="1">  1        1 0.12711060E+00 0.17216485E+04</pdfrwt>
<pdfrwt beam="2">  1       -2 0.13798139E+00 0.17216485E+04</pdfrwt>
<totfact> 0.65109861E+00</totfact>
</mgrwt>
</event>
<event>
12    4  0.4320235E-008  0.1529888E+04  0.7818608E-02  0.8864818E-01
          1   -1    0    0  501    0  0.00000000000E+00  0.00000000000E+00  0.12966511436E+04  0.12966511436E+04  0.00000000000E+00 0. -1.
         -2   -1    0    0    0  501 -0.00000000000E+00 -0.00000000000E+00 -0.45126959204E+03  0.45126959204E+03  0.00000000000E+00 0.  1.
        -24    2    1    2    0    0 -0.12482303600E+03  0.46065433238E+03  0.31204581688E+03  0.57595303860E+03  0.81031515961E+02 0.  0.
        254    2    1    2    0    0  0.12482303600E+03 -0.46065433238E+03  0.53333573471E+03  0.11719676971E+04  0.92805068440E+03 0.  0.
         23    2    4    4    0    0 -0.34882634272E+03 -0.73420428536E+02  0.23165077127E+02  0.37003809612E+03  0.96546336420E+02 0.  0.
         23    2    4    4    0    0  0.47364937872E+03 -0.38723390385E+03  0.51017065758E+03  0.80192960096E+03  0.92320933612E+02 0.  0.
          1    1    3    3  502    0  0.65192639813E+01  0.20416658474E+01  0.65815609562E+01  0.94861028305E+01  0.00000000000E+00 0. -1.
         -2    1    3    3    0  502 -0.13134229998E+03  0.45861266654E+03  0.30546425592E+03  0.56646693577E+03  0.00000000000E+00 0.  1.
         11    1    5    5    0    0 -0.23822711137E+03 -0.82953606726E+02 -0.14867232443E+02  0.25269446385E+03  0.00000000000E+00 0. -1.
        -11    1    5    5    0    0 -0.11059923135E+03  0.95331781902E+01  0.38032309570E+02  0.11734363227E+03  0.00000000000E+00 0.  1.
          4    1    6    6  503    0  0.64868094913E+02 -0.27223527287E+02  0.88642795901E+02  0.11316596414E+03  0.00000000000E+00 0. -1.
         -4    1    6    6    0  503  0.40878128381E+03 -0.36001037656E+03  0.42152786168E+03  0.68876363681E+03  0.00000000000E+00 0.  1.
<mgrwt>
<rscale>  0 0.15298879E+04</rscale>
<asrwt>0</asrwt>
<pdfrwt beam="1">  1        1 0.19948479E+00 0.15298879E+04</pdfrwt>
<pdfrwt beam="2">  1       -2 0.69426092E-01 0.15298879E+04</pdfrwt>
<totfact> 0.14572696E+01</totfact>
</mgrwt>
</event>
<event>
12    4  0.4320235E-008  0.1948456E+04  0.7818608E-02  0.8631105E-01
         -2   -1    0    0    0  501 -0.00000000000E+00  0.00000000000E+00  0.10237229472E+04  0.10237229472E+04  0.00000000000E+00 0.  1.
          1   -1    0    0  501    0  0.00000000000E+00 -0.00000000000E+00 -0.92712649497E+03  0.92712649497E+03  0.00000000000E+00 0. -1.
        -24    2    1    2    0    0 -0.69951548968E+03  0.21548448995E+03 -0.18909180447E+03  0.76018445936E+03  0.79807368194E+02 0.  0.
        254    2    1    2    0    0  0.69951548968E+03 -0.21548448995E+03  0.28568825669E+03  0.11906649828E+04  0.89460037757E+03 0.  0.
         23    2    4    4    0    0  0.50851556296E+03 -0.53016593223E+03  0.32742114163E+03  0.80946946291E+03  0.91499802913E+02 0.  0.
         23    2    4    4    0    0  0.19099992672E+03  0.31468144228E+03 -0.41732884938E+02  0.38119551989E+03  0.89794256953E+02 0.  0.
          3    1    3    3  502    0 -0.68509893315E+03  0.22115337023E+03 -0.19032957898E+03  0.74464401562E+03  0.00000000000E+00 0. -1.
         -4    1    3    3    0  502 -0.14416556530E+02 -0.56688802772E+01  0.12377745065E+01  0.15540443736E+02  0.00000000000E+00 0.  1.
         11    1    5    5    0    0  0.40464429425E+03 -0.36907415332E+03  0.22447068899E+03  0.59189511379E+03  0.00000000000E+00 0.  1.
        -11    1    5    5    0    0  0.10387126871E+03 -0.16109177891E+03  0.10295045264E+03  0.21757434912E+03  0.00000000000E+00 0. -1.
          2    1    6    6  503    0  0.73696907421E+02  0.69713732104E+02  0.18178122315E+02  0.10306154830E+03  0.00000000000E+00 0. -1.
         -2    1    6    6    0  503  0.11730301930E+03  0.24496771017E+03 -0.59911007253E+02  0.27813397159E+03  0.00000000000E+00 0.  1.
<mgrwt>
<rscale>  0 0.19484565E+04</rscale>
<asrwt>0</asrwt>
<pdfrwt beam="1">  1        1 0.14263485E+00 0.19484565E+04</pdfrwt>
<pdfrwt beam="2">  1       -2 0.15749584E+00 0.19484565E+04</pdfrwt>
<totfact> 0.37122811E+00</totfact>
</mgrwt>
</event>
<event>
12    4  0.4320235E-008  0.1280651E+04  0.7818608E-02  0.9045051E-01
         -2   -1    0    0    0  501 -0.00000000000E+00  0.00000000000E+00  0.26319730056E+03  0.26319730056E+03  0.00000000000E+00 0.  1.
          1   -1    0    0  501    0  0.00000000000E+00 -0.00000000000E+00 -0.15578315514E+04  0.15578315514E+04  0.00000000000E+00 0. -1.
        -24    2    1    2    0    0  0.21649465405E+03  0.20921746357E+03 -0.18774349975E+03  0.36419928326E+03  0.82168205163E+02 0.  0.
        254    2    1    2    0    0 -0.21649465405E+03 -0.20921746357E+03 -0.11068907511E+04  0.14568295687E+04  0.89805532962E+03 0.  0.
         23    2    4    4    0    0 -0.50168105637E+03 -0.23289780539E+03 -0.39897365320E+03  0.68784877860E+03  0.89614151769E+02 0.  0.
         23    2    4    4    0    0  0.28518640232E+03  0.23680341822E+02 -0.70791709789E+03  0.76898079009E+03  0.91064786715E+02 0.  0.
          3    1    3    3  502    0  0.61610778717E+01  0.42545711261E+02 -0.17656760996E+02  0.46474268538E+02  0.00000000000E+00 0. -1.
         -4    1    3    3    0  502  0.21033357617E+03  0.16667175231E+03 -0.17008673875E+03  0.31772501473E+03  0.00000000000E+00 0.  1.
         11    1    5    5    0    0 -0.40079502413E+03 -0.16387928329E+03 -0.34756443055E+03  0.55524238332E+03  0.00000000000E+00 0.  1.
        -11    1    5    5    0    0 -0.10088603224E+03 -0.69018522100E+02 -0.51409222654E+02  0.13260639528E+03  0.00000000000E+00 0. -1.
          1    1    6    6  503    0  0.28643534086E+03  0.13953582877E+02 -0.69969586644E+03  0.75618398058E+03  0.00000000000E+00 0. -1.
         -1    1    6    6    0  503 -0.12489385407E+01  0.97267589455E+01 -0.82212314531E+01  0.12796809511E+02  0.00000000000E+00 0.  1.
<mgrwt>
<rscale>  0 0.12806515E+04</rscale>
<asrwt>0</asrwt>
<pdfrwt beam="1">  1        1 0.23966639E+00 0.12806515E+04</pdfrwt>
<pdfrwt beam="2">  1       -2 0.40491892E-01 0.12806515E+04</pdfrwt>
<totfact> 0.29742757E+01</totfact>
</mgrwt>
</event>
<event>
12    4  0.4320235E-008  0.4273001E+04  0.7818608E-02  0.7951629E-01
         -2   -1    0    0    0  501 -0.00000000000E+00  0.00000000000E+00  0.12367822827E+04  0.12367822827E+04  0.00000000000E+00 0.  1.
          1   -1    0    0  501    0  0.00000000000E+00 -0.00000000000E+00 -0.36907331295E+04  0.36907331295E+04  0.00000000000E+00 0. -1.
        -24    2    1    2    0    0 -0.41111310763E+03 -0.19958846885E+04 -0.10320434786E+04  0.22854644983E+04  0.75263233613E+02 0.  0.
        254    2    1    2    0    0  0.41111310763E+03  0.19958846885E+04 -0.14219073682E+04  0.26420509139E+04  0.89779885871E+03 0.  0.
         23    2    4    4    0    0  0.41259427178E+02  0.40400658828E+03 -0.78108354559E+03  0.88405335472E+03  0.80840367967E+02 0.  0.
         23    2    4    4    0    0  0.36985368045E+03  0.15918781002E+04 -0.64082382265E+03  0.17579975592E+04  0.95040073071E+02 0.  0.
          1    1    3    3  502    0 -0.16286133876E+03 -0.85478369782E+03 -0.40162452051E+03  0.95837426989E+03  0.00000000000E+00 0. -1.
         -2    1    3    3    0  502 -0.24825176887E+03 -0.11411009907E+04 -0.63041895810E+03  0.13270902284E+04  0.00000000000E+00 0.  1.
         11    1    5    5    0    0 -0.12369255762E+01  0.79444475944E+02 -0.94722646865E+02  0.12363387308E+03  0.00000000000E+00 0.  1.
        -11    1    5    5    0    0  0.42496352755E+02  0.32456211234E+03 -0.68636089873E+03  0.76041948164E+03  0.00000000000E+00 0. -1.
          3    1    6    6  503    0  0.23576630737E+03  0.11940080231E+04 -0.46711836484E+03  0.13036258964E+04  0.00000000000E+00 0. -1.
         -3    1    6    6    0  503  0.13408737308E+03  0.39787007713E+03 -0.17370545782E+03  0.45437166281E+03  0.00000000000E+00 0.  1.
<mgrwt>
<rscale>  0 0.42730005E+04</rscale>
<asrwt>0</asrwt>
<pdfrwt beam="1">  1        1 0.56780509E+00 0.42730005E+04</pdfrwt>
<pdfrwt beam="2">  1       -2 0.19027420E+00 0.42730005E+04</pdfrwt>
<totfact> 0.18241779E-02</totfact>
</mgrwt>
</event>
<event>
12    4  0.4320235E-008  0.1792264E+04  0.7818608E-02  0.8710424E-01
          1   -1    0    0  501    0  0.00000000000E+00  0.00000000000E+00  0.25002694528E+04  0.25002694528E+04  0.00000000000E+00 0. -1.
         -2   -1    0    0    0  501 -0.00000000000E+00 -0.00000000000E+00 -0.32118646016E+03  0.32118646016E+03  0.00000000000E+00 0.  1.
        -24    2    1    2    0    0  0.52494207220E+03  0.20572885885E+02  0.15316684689E+03  0.55276804286E+03  0.78134521315E+02 0.  0.
        254    2    1    2    0    0 -0.52494207220E+03 -0.20572885885E+02  0.20259161458E+04  0.22686878701E+04  0.87556895758E+03 0.  0.
         23    2    4    4    0    0 -0.71454311348E+02 -0.16546191979E+02 -0.59641771220E+02  0.13241048723E+03  0.92714082943E+02 0.  0.
         23    2    4    4    0    0 -0.45348776086E+03 -0.40266939055E+01  0.20855579170E+04  0.21362773829E+04  0.91988412057E+02 0.  0.
          3    1    3    3  502    0  0.44729720187E+02 -0.18262512729E+02  0.24141296130E+02  0.54009901111E+02  0.00000000000E+00 0. -1.
         -4    1    3    3    0  502  0.48021235202E+03  0.38835398613E+02  0.12902555076E+03  0.49875814175E+03  0.00000000000E+00 0.  1.
         11    1    5    5    0    0 -0.83973505473E+02  0.45699714965E+00 -0.69596931886E+02  0.10906645403E+03  0.00000000000E+00 0.  1.
        -11    1    5    5    0    0  0.12519194126E+02 -0.17003189129E+02  0.99551606655E+01  0.23344033199E+02  0.00000000000E+00 0. -1.
          2    1    6    6  503    0 -0.38377167046E+03  0.69918508879E+01  0.15875441822E+04  0.16332869042E+04  0.00000000000E+00 0. -1.
         -2    1    6    6    0  503 -0.69716090401E+02 -0.11018544793E+02  0.49801373473E+03  0.50299047861E+03  0.00000000000E+00 0.  1.
<mgrwt>
<rscale>  0 0.17922641E+04</rscale>
<asrwt>0</asrwt>
<pdfrwt beam="1">  1        1 0.38465683E+00 0.17922641E+04</pdfrwt>
<pdfrwt beam="2">  1       -2 0.49413303E-01 0.17922641E+04</pdfrwt>
<totfact> 0.43581783E+00</totfact>
</mgrwt>
</event>
<event>
12    4  0.4320235E-008  0.1531027E+04  0.7818608E-02  0.8864078E-01
          1   -1    0    0  501    0  0.00000000000E+00  0.00000000000E+00  0.43016427037E+03  0.43016427037E+03  0.00000000000E+00 0. -1.
         -2   -1    0    0    0  501 -0.00000000000E+00 -0.00000000000E+00 -0.13622959337E+04  0.13622959337E+04  0.00000000000E+00 0.  1.
        -24    2    1    2    0    0  0.31291127625E+03 -0.38055839611E+03 -0.26669935934E+03  0.56554314488E+03  0.77280921349E+02 0.  0.
        254    2    1    2    0    0 -0.31291127625E+03  0.38055839611E+03 -0.66543230403E+03  0.12269170592E+04  0.90542098459E+03 0.  0.
         23    2    4    4    0    0 -0.60806166581E+03  0.12076694144E+03 -0.38004033780E+03  0.73283315416E+03  0.91050150485E+02 0.  0.
         23    2    4    4    0    0  0.29515038956E+03  0.25979145466E+03 -0.28539196622E+03  0.49408390507E+03  0.89805225311E+02 0.  0.
          1    1    3    3  502    0  0.31223774730E+03 -0.38388932820E+03 -0.26253413763E+03  0.56016747546E+03  0.00000000000E+00 0. -1.
         -2    1    3    3    0  502  0.67352894685E+00  0.33309320927E+01 -0.41652217117E+01  0.53756694240E+01  0.00000000000E+00 0.  1.
         11    1    5    5    0    0 -0.20376367012E+03  0.80671045993E+02 -0.11214395737E+03  0.24617822425E+03  0.00000000000E+00 0. -1.
        -11    1    5    5    0    0 -0.40429799569E+03  0.40095895448E+02 -0.26789638043E+03  0.48665492990E+03  0.00000000000E+00 0.  1.
          3    1    6    6  503    0  0.91094202518E+02  0.57191116761E+02 -0.35922803641E+02  0.11339940648E+03  0.00000000000E+00 0. -1.
         -3    1    6    6    0  503  0.20405618704E+03  0.20260033790E+03 -0.24946916258E+03  0.38068449859E+03  0.00000000000E+00 0.  1.
<mgrwt>
<rscale>  0 0.15310272E+04</rscale>
<asrwt>0</asrwt>
<pdfrwt beam="1">  1        1 0.66179118E-01 0.15310272E+04</pdfrwt>
<pdfrwt beam="2">  1       -2 0.20958399E+00 0.15310272E+04</pdfrwt>
<totfact> 0.52855336E+00</totfact>
</mgrwt>
</event>
<event>
12    4  0.4320235E-008  0.2414087E+04  0.7818608E-02  0.8434248E-01
          1   -1    0    0  501    0  0.00000000000E+00  0.00000000000E+00  0.22340196717E+04  0.22340196717E+04  0.00000000000E+00 0. -1.
         -2   -1    0    0    0  501 -0.00000000000E+00 -0.00000000000E+00 -0.65216721831E+03  0.65216721831E+03  0.00000000000E+00 0.  1.
        -24    2    1    2    0    0 -0.99136170227E+03 -0.18187727062E+03  0.44951469625E+03  0.11065035158E+04  0.80057492257E+02 0.  0.
        254    2    1    2    0    0  0.99136170227E+03  0.18187727062E+03  0.11323377572E+04  0.17796833742E+04  0.93231258165E+03 0.  0.
         23    2    4    4    0    0 -0.15677259221E+03  0.11124385450E+03  0.23789931729E+03  0.31947312154E+03  0.92272148484E+02 0.  0.
         23    2    4    4    0    0  0.11481342945E+04  0.70633416116E+02  0.89443843986E+03  0.14602102527E+04  0.94828380138E+02 0.  0.
          3    1    3    3  502    0 -0.61838021628E+03 -0.10599767512E+03  0.23773113031E+03  0.67092897488E+03  0.00000000000E+00 0. -1.
         -4    1    3    3    0  502 -0.37298148599E+03 -0.75879595501E+02  0.21178356595E+03  0.43557454093E+03  0.00000000000E+00 0.  1.
         11    1    5    5    0    0 -0.12492394360E+03  0.49519419567E+02  0.10891150826E+03  0.17297364317E+03  0.00000000000E+00 0. -1.
        -11    1    5    5    0    0 -0.31848648619E+02  0.61724434936E+02  0.12898780902E+03  0.14649947837E+03  0.00000000000E+00 0.  1.
          3    1    6    6  503    0  0.81321043682E+03  0.77352479951E+02  0.67573489689E+03  0.10601472877E+04  0.00000000000E+00 0. -1.
         -3    1    6    6    0  503  0.33492385766E+03 -0.67190638359E+01  0.21870354297E+03  0.40006296499E+03  0.00000000000E+00 0.  1.
<mgrwt>
<rscale>  0 0.24140873E+04</rscale>
<asrwt>0</asrwt>
<pdfrwt beam="1">  1        1 0.34369533E+00 0.24140873E+04</pdfrwt>
<pdfrwt beam="2">  1       -2 0.10033342E+00 0.24140873E+04</pdfrwt>
<totfact> 0.13310321E+00</totfact>
</mgrwt>
</event>
<event>
12    4  0.4320235E-008  0.2252489E+04  0.7818608E-02  0.8496893E-01
         -2   -1    0    0    0  501 -0.00000000000E+00  0.00000000000E+00  0.22177009988E+04  0.22177009988E+04  0.00000000000E+00 0.  1.
          1   -1    0    0  501    0  0.00000000000E+00 -0.00000000000E+00 -0.57195543674E+03  0.57195543674E+03  0.00000000000E+00 0. -1.
        -24    2    1    2    0    0 -0.88404491687E+03  0.28991291285E+03  0.78562114065E+03  0.12202910389E+04  0.79528176298E+02 0.  0.
        254    2    1    2    0    0  0.88404491687E+03 -0.28991291285E+03  0.86012442136E+03  0.15693653966E+04  0.92601771896E+03 0.  0.
         23    2    4    4    0    0  0.75742196040E+03 -0.54486050114E+03  0.85853520208E+03  0.12710640986E+04  0.89220276852E+02 0.  0.
         23    2    4    4    0    0  0.12662295647E+03  0.25494758830E+03  0.15892192791E+01  0.29830129800E+03  0.89159928700E+02 0.  0.
          3    1    3    3  502    0 -0.69880816423E+03  0.25041062445E+03  0.65738077800E+03  0.99155827792E+03  0.00000000000E+00 0. -1.
         -2    1    3    3    0  502 -0.18523675264E+03  0.39502288399E+02  0.12824036265E+03  0.22873276095E+03  0.00000000000E+00 0.  1.
         11    1    5    5    0    0  0.64613649677E+03 -0.44878150538E+03  0.76162929262E+03  0.10949778041E+04  0.00000000000E+00 0. -1.
        -11    1    5    5    0    0  0.11128546363E+03 -0.96078995761E+02  0.96905909463E+02  0.17608629456E+03  0.00000000000E+00 0.  1.
          1    1    6    6  503    0  0.63670470272E+02  0.13969489745E+03 -0.43310576327E+02  0.15951300631E+03  0.00000000000E+00 0. -1.
         -1    1    6    6    0  503  0.62952486197E+02  0.11525269084E+03  0.44899795606E+02  0.13878829169E+03  0.00000000000E+00 0.  1.
<mgrwt>
<rscale>  0 0.22524885E+04</rscale>
<asrwt>0</asrwt>
<pdfrwt beam="1">  1        1 0.87993145E-01 0.22524885E+04</pdfrwt>
<pdfrwt beam="2">  1       -2 0.34118476E+00 0.22524885E+04</pdfrwt>
<totfact> 0.51619015E-01</totfact>
</mgrwt>
</event>
<event>
12    4  0.4320235E-008  0.1759140E+04  0.7818608E-02  0.8728335E-01
         -2   -1    0    0    0  501 -0.00000000000E+00  0.00000000000E+00  0.96966254464E+03  0.96966254464E+03  0.00000000000E+00 0.  1.
          1   -1    0    0  501    0  0.00000000000E+00 -0.00000000000E+00 -0.79784816592E+03  0.79784816592E+03  0.00000000000E+00 0. -1.
        -24    2    1    2    0    0  0.63176408207E+03  0.89245283149E+02  0.17790903500E+03  0.66742552430E+03  0.81942844711E+02 0.  0.
        254    2    1    2    0    0 -0.63176408207E+03 -0.89245283149E+02 -0.60946562765E+01  0.11000851863E+04  0.89613598088E+03 0.  0.
         23    2    4    4    0    0 -0.77070047337E+03  0.12936920521E+03  0.12340677857E+03  0.79615632234E+03  0.88994638509E+02 0.  0.
         23    2    4    4    0    0  0.13893639131E+03 -0.21861448836E+03 -0.12950143485E+03  0.30392886392E+03  0.92230783059E+02 0.  0.
          3    1    3    3  502    0  0.26246260186E+02  0.64031659138E+01  0.26386501812E+02  0.37763927038E+02  0.00000000000E+00 0. -1.
         -4    1    3    3    0  502  0.60551782188E+03  0.82842117235E+02  0.15152253319E+03  0.62966159726E+03  0.00000000000E+00 0.  1.
         11    1    5    5    0    0 -0.72545031092E+03  0.13149309418E+03  0.96741679684E+02  0.74359097629E+03  0.00000000000E+00 0.  1.
        -11    1    5    5    0    0 -0.45250162451E+02 -0.21238889645E+01  0.26665098887E+02  0.52565346045E+02  0.00000000000E+00 0. -1.
          2    1    6    6  503    0  0.21172878050E+02 -0.50711583107E+02 -0.72682271008E+02  0.91118976865E+02  0.00000000000E+00 0. -1.
         -2    1    6    6    0  503  0.11776351326E+03 -0.16790290526E+03 -0.56819163840E+02  0.21280988705E+03  0.00000000000E+00 0.  1.
<mgrwt>
<rscale>  0 0.17591401E+04</rscale>
<asrwt>0</asrwt>
<pdfrwt beam="1">  1        1 0.12274587E+00 0.17591401E+04</pdfrwt>
<pdfrwt beam="2">  1       -2 0.14917885E+00 0.17591401E+04</pdfrwt>
<totfact> 0.55974845E+00</totfact>
</mgrwt>
</event>
<event>
12    4  0.4320235E-008  0.2548138E+04  0.7818608E-02  0.8386034E-01
          1   -1    0    0  501    0  0.00000000000E+00  0.00000000000E+00  0.30828206039E+04  0.30828206039E+04  0.00000000000E+00 0. -1.
         -2   -1    0    0    0  501 -0.00000000000E+00 -0.00000000000E+00 -0.52654771388E+03  0.52654771388E+03  0.00000000000E+00 0.  1.
        -24    2    1    2    0    0  0.88000122635E+03  0.66265803568E+02  0.20628574108E+04  0.22451225627E+04  0.80008181256E+02 0.  0.
        254    2    1    2    0    0 -0.88000122635E+03 -0.66265803568E+02  0.49341547920E+03  0.13642457551E+04  0.91592266597E+03 0.  0.
         23    2    4    4    0    0 -0.86013545465E+03 -0.37222937605E+03  0.44205976226E+03  0.10403342190E+04  0.92145238796E+02 0.  0.
         23    2    4    4    0    0 -0.19865771695E+02  0.30596357248E+03  0.51355716940E+02  0.32391153609E+03  0.90955576966E+02 0.  0.
          3    1    3    3  502    0  0.75713670612E+03  0.84664776413E+02  0.17681203713E+04  0.19252723869E+04  0.00000000000E+00 0. -1.
         -4    1    3    3    0  502  0.12286452023E+03 -0.18398972845E+02  0.29473703946E+03  0.31985017580E+03  0.00000000000E+00 0.  1.
         11    1    5    5    0    0 -0.80210180358E+03 -0.37050988278E+03  0.41909185571E+03  0.97789716232E+03  0.00000000000E+00 0. -1.
        -11    1    5    5    0    0 -0.58033651073E+02 -0.17194932708E+01  0.22967906547E+02  0.62437056666E+02  0.00000000000E+00 0.  1.
          2    1    6    6  503    0  0.25886558832E+02  0.21213839785E+03  0.50155911899E+02  0.21951863080E+03  0.00000000000E+00 0. -1.
         -2    1    6    6    0  503 -0.45752330526E+02  0.93825174635E+02  0.11998050410E+01  0.10439290530E+03  0.00000000000E+00 0.  1.
<mgrwt>
<rscale>  0 0.25481383E+04</rscale>
<asrwt>0</asrwt>
<pdfrwt beam="1">  1        1 0.47428008E+00 0.25481383E+04</pdfrwt>
<pdfrwt beam="2">  1       -2 0.81007343E-01 0.25481383E+04</pdfrwt>
<totfact> 0.54328021E-01</totfact>
</mgrwt>
</event>
<event>
12    4  0.4320235E-008  0.1454509E+04  0.7818608E-02  0.8915280E-01
         -2   -1    0    0    0  501 -0.00000000000E+00  0.00000000000E+00  0.49309742208E+03  0.49309742208E+03  0.00000000000E+00 0.  1.
          1   -1    0    0  501    0  0.00000000000E+00 -0.00000000000E+00 -0.10726058202E+04  0.10726058202E+04  0.00000000000E+00 0. -1.
        -24    2    1    2    0    0  0.36208118296E+03  0.11211093410E+02  0.10741063837E+03  0.38611621617E+03  0.79499782915E+02 0.  0.
        254    2    1    2    0    0 -0.36208118296E+03 -0.11211093410E+02 -0.68691903653E+03  0.11795870262E+04  0.88788474357E+03 0.  0.
         23    2    4    4    0    0 -0.53829849967E+02 -0.41972920616E+03 -0.25673886898E+03  0.50470918360E+03  0.98723117430E+02 0.  0.
         23    2    4    4    0    0 -0.30825133299E+03  0.40851811275E+03 -0.43018016755E+03  0.67487784256E+03  0.92191068346E+02 0.  0.
          1    1    3    3  502    0  0.59774431373E+02 -0.13097584390E+02 -0.78003285136E+01  0.61687717479E+02  0.00000000000E+00 0. -1.
         -2    1    3    3    0  502  0.30230675159E+03  0.24308677800E+02  0.11521096688E+03  0.32442849869E+03  0.00000000000E+00 0.  1.
         11    1    5    5    0    0 -0.14457475672E+02 -0.33681062796E+03 -0.16652307166E+03  0.37600578600E+03  0.00000000000E+00 0. -1.
        -11    1    5    5    0    0 -0.39372374294E+02 -0.82918578198E+02 -0.90215797318E+02  0.12870339760E+03  0.00000000000E+00 0.  1.
          2    1    6    6  503    0 -0.22289515004E+03  0.34034953940E+03 -0.37120101033E+03  0.55073609556E+03  0.00000000000E+00 0. -1.
         -2    1    6    6    0  503 -0.85356182957E+02  0.68168573352E+02 -0.58979157220E+02  0.12414174700E+03  0.00000000000E+00 0.  1.
<mgrwt>
<rscale>  0 0.14545091E+04</rscale>
<asrwt>0</asrwt>
<pdfrwt beam="1">  1        1 0.16501628E+00 0.14545091E+04</pdfrwt>
<pdfrwt beam="2">  1       -2 0.75861142E-01 0.14545091E+04</pdfrwt>
<totfact> 0.17626393E+01</totfact>
</mgrwt>
</event>
<event>
12    4  0.4320235E-008  0.1328948E+04  0.7818608E-02  0.9006919E-01
          1   -1    0    0  501    0  0.00000000000E+00  0.00000000000E+00  0.42846070118E+03  0.42846070118E+03  0.00000000000E+00 0. -1.
         -2   -1    0    0    0  501 -0.00000000000E+00 -0.00000000000E+00 -0.10304923335E+04  0.10304923335E+04  0.00000000000E+00 0.  1.
        -24    2    1    2    0    0 -0.23123220194E+03  0.14541568297E+03 -0.39404309900E+03  0.48613963089E+03  0.80297725870E+02 0.  0.
        254    2    1    2    0    0  0.23123220194E+03 -0.14541568297E+03 -0.20798853336E+03  0.97281340383E+03  0.91021570882E+03 0.  0.
         23    2    4    4    0    0 -0.16762799065E+03 -0.24760033097E+03  0.21205972762E+03  0.37754355810E+03  0.90358967657E+02 0.  0.
         23    2    4    4    0    0  0.39886019259E+03  0.10218464800E+03 -0.42004826098E+03  0.59526984573E+03  0.91512251415E+02 0.  0.
          3    1    3    3  502    0 -0.12911554234E+02  0.39603097771E+02 -0.67829491739E+02  0.79598703101E+02  0.00000000000E+00 0. -1.
         -4    1    3    3    0  502 -0.21832064771E+03  0.10581258520E+03 -0.32621360726E+03  0.40654092778E+03  0.00000000000E+00 0.  1.
         11    1    5    5    0    0 -0.10611006993E+03 -0.18772155498E+03  0.10363293105E+03  0.23924571792E+03  0.00000000000E+00 0. -1.
        -11    1    5    5    0    0 -0.61517920717E+02 -0.59878775994E+02  0.10842679657E+03  0.13829784018E+03  0.00000000000E+00 0.  1.
          1    1    6    6  503    0  0.32709773934E+03  0.11844105692E+03 -0.33760271012E+03  0.48476469027E+03  0.00000000000E+00 0. -1.
         -1    1    6    6    0  503  0.71762453250E+02 -0.16256408919E+02 -0.82445550854E+02  0.11050515546E+03  0.00000000000E+00 0.  1.
<mgrwt>
<rscale>  0 0.13289477E+04</rscale>
<asrwt>0</asrwt>
<pdfrwt beam="1">  1        1 0.65917031E-01 0.13289477E+04</pdfrwt>
<pdfrwt beam="2">  1       -2 0.15853728E+00 0.13289477E+04</pdfrwt>
<totfact> 0.12095609E+01</totfact>
</mgrwt>
</event>
<event>
12    4  0.4320235E-008  0.2610550E+04  0.7818608E-02  0.8364626E-01
          1   -1    0    0  501    0  0.00000000000E+00  0.00000000000E+00  0.12690555168E+04  0.12690555168E+04  0.00000000000E+00 0. -1.
         -2   -1    0    0    0  501 -0.00000000000E+00 -0.00000000000E+00 -0.13425285340E+04  0.13425285340E+04  0.00000000000E+00 0.  1.
        -24    2    1    2    0    0  0.10461600775E+04  0.23474837448E+03  0.38052743379E+03  0.11404905712E+04  0.79749032067E+02 0.  0.
        254    2    1    2    0    0 -0.10461600775E+04 -0.23474837448E+03 -0.45400045096E+03  0.14710934795E+04  0.89913397715E+03 0.  0.
         23    2    4    4    0    0 -0.80799143944E+03  0.23932847199E+03 -0.36915895259E+03  0.92470271067E+03  0.93104710595E+02 0.  0.
         23    2    4    4    0    0 -0.23816863808E+03 -0.47407684647E+03 -0.84841498372E+02  0.54639076883E+03  0.99356106484E+02 0.  0.
          3    1    3    3  502    0  0.60764430292E+03  0.11631562966E+03  0.25559937294E+03  0.66939671647E+03  0.00000000000E+00 0. -1.
         -4    1    3    3    0  502  0.43851577459E+03  0.11843274482E+03  0.12492806085E+03  0.47109385477E+03  0.00000000000E+00 0.  1.
         11    1    5    5    0    0 -0.37365457566E+03  0.15026340505E+03 -0.20504509423E+03  0.45192955588E+03  0.00000000000E+00 0.  1.
        -11    1    5    5    0    0 -0.43433686378E+03  0.89065066939E+02 -0.16411385836E+03  0.47277315479E+03  0.00000000000E+00 0. -1.
          3    1    6    6  503    0 -0.26134322706E+02 -0.13477133686E+03 -0.44207800094E+02  0.14422428939E+03  0.00000000000E+00 0. -1.
         -3    1    6    6    0  503 -0.21203431537E+03 -0.33930550961E+03 -0.40633698279E+02  0.40216647944E+03  0.00000000000E+00 0.  1.
<mgrwt>
<rscale>  0 0.26105503E+04</rscale>
<asrwt>0</asrwt>
<pdfrwt beam="1">  1        1 0.19523931E+00 0.26105503E+04</pdfrwt>
<pdfrwt beam="2">  1       -2 0.20654285E+00 0.26105503E+04</pdfrwt>
<totfact> 0.88633113E-01</totfact>
</mgrwt>
</event>
<event>
12    4  0.4320235E-008  0.2578327E+04  0.7818608E-02  0.8375600E-01
          1   -1    0    0  501    0  0.00000000000E+00  0.00000000000E+00  0.18797360259E+04  0.18797360259E+04  0.00000000000E+00 0. -1.
         -2   -1    0    0    0  501 -0.00000000000E+00 -0.00000000000E+00 -0.88413624939E+03  0.88413624939E+03  0.00000000000E+00 0.  1.
        -24    2    1    2    0    0  0.97907613055E+03  0.42392736030E+02 -0.15988366622E+03  0.99618352773E+03  0.80197386003E+02 0.  0.
        254    2    1    2    0    0 -0.97907613055E+03 -0.42392736030E+02  0.11554834428E+04  0.17676887476E+04  0.91060106981E+03 0.  0.
         23    2    4    4    0    0 -0.55648771168E+03  0.39189559278E+03  0.40024850855E+03  0.79501887123E+03  0.92711423925E+02 0.  0.
         23    2    4    4    0    0 -0.42258841887E+03 -0.43428832881E+03  0.75523493421E+03  0.97266987634E+03  0.92301452845E+02 0.  0.
          3    1    3    3  502    0  0.11604994146E+03  0.15794757034E+02 -0.43508784547E+02  0.12494029613E+03  0.00000000000E+00 0. -1.
         -4    1    3    3    0  502  0.86302618909E+03  0.26597978997E+02 -0.11637488168E+03  0.87124323161E+03  0.00000000000E+00 0.  1.
         11    1    5    5    0    0 -0.54626220408E+03  0.39562186239E+03  0.38610212787E+03  0.77717044897E+03  0.00000000000E+00 0.  1.
        -11    1    5    5    0    0 -0.10225507595E+02 -0.37262696099E+01  0.14146380675E+02  0.17848422255E+02  0.00000000000E+00 0. -1.
          1    1    6    6  503    0 -0.25378065315E+03 -0.19512215208E+03  0.38620768818E+03  0.50163099242E+03  0.00000000000E+00 0. -1.
         -1    1    6    6    0  503 -0.16880776572E+03 -0.23916617673E+03  0.36902724602E+03  0.47103888392E+03  0.00000000000E+00 0.  1.
<mgrwt>
<rscale>  0 0.25783272E+04</rscale>
<asrwt>0</asrwt>
<pdfrwt beam="1">  1        1 0.28919016E+00 0.25783272E+04</pdfrwt>
<pdfrwt beam="2">  1       -2 0.13602096E+00 0.25783272E+04</pdfrwt>
<totfact> 0.10790479E+00</totfact>
</mgrwt>
</event>
<event>
12    4  0.4320235E-008  0.2484288E+04  0.7818608E-02  0.8408605E-01
          1   -1    0    0  501    0  0.00000000000E+00  0.00000000000E+00  0.47220240222E+03  0.47220240222E+03  0.00000000000E+00 0. -1.
         -2   -1    0    0    0  501 -0.00000000000E+00 -0.00000000000E+00 -0.32674997184E+04  0.32674997184E+04  0.00000000000E+00 0.  1.
        -24    2    1    2    0    0 -0.59673743610E+03 -0.16059625063E+03 -0.25508956121E+04  0.26259071532E+04  0.80207417916E+02 0.  0.
        254    2    1    2    0    0  0.59673743610E+03  0.16059625063E+03 -0.24440170410E+03  0.11137949675E+04  0.89382342397E+03 0.  0.
         23    2    4    4    0    0  0.75528540011E+03 -0.10208883771E+03 -0.16092022646E+03  0.78327219372E+03  0.82108731404E+02 0.  0.
         23    2    4    4    0    0 -0.15854796401E+03  0.26268508834E+03 -0.83481477638E+02  0.33052277375E+03  0.90195533865E+02 0.  0.
          3    1    3    3  502    0 -0.11610144508E+02 -0.17129676117E+02 -0.83901659992E+02  0.86415911780E+02  0.00000000000E+00 0. -1.
         -4    1    3    3    0  502 -0.58512729159E+03 -0.14346657451E+03 -0.24669939521E+04  0.25394912414E+04  0.00000000000E+00 0.  1.
         11    1    5    5    0    0  0.20251109963E+03 -0.22566425998E+02 -0.80307949602E+02  0.21901907640E+03  0.00000000000E+00 0.  1.
        -11    1    5    5    0    0  0.55277430047E+03 -0.79522411710E+02 -0.80612276862E+02  0.56425311732E+03  0.00000000000E+00 0. -1.
          4    1    6    6  503    0 -0.58336338186E+02  0.18181587186E+03 -0.53680609502E+02  0.19834754208E+03  0.00000000000E+00 0. -1.
         -4    1    6    6    0  503 -0.10021162582E+03  0.80869216479E+02 -0.29800868137E+02  0.13217523167E+03  0.00000000000E+00 0.  1.
<mgrwt>
<rscale>  0 0.24842876E+04</rscale>
<asrwt>0</asrwt>
<pdfrwt beam="1">  1        1 0.72646524E-01 0.24842876E+04</pdfrwt>
<pdfrwt beam="2">  1       -2 0.50269226E+00 0.24842876E+04</pdfrwt>
<totfact> 0.59068582E-02</totfact>
</mgrwt>
</event>
<event>
12    4  0.4320235E-008  0.2625531E+04  0.7818608E-02  0.8359580E-01
         -2   -1    0    0    0  501 -0.00000000000E+00  0.00000000000E+00  0.56537875877E+03  0.56537875877E+03  0.00000000000E+00 0.  1.
          1   -1    0    0  501    0  0.00000000000E+00 -0.00000000000E+00 -0.30481385419E+04  0.30481385419E+04  0.00000000000E+00 0. -1.
        -24    2    1    2    0    0  0.24820374822E+03 -0.83366346349E+03 -0.45630344147E+02  0.87469536905E+03  0.80062408954E+02 0.  0.
        254    2    1    2    0    0 -0.24820374822E+03  0.83366346349E+03 -0.24371294389E+04  0.27388219316E+04  0.89718771712E+03 0.  0.
         23    2    4    4    0    0 -0.35784495953E+03  0.96867247529E+03 -0.21914689429E+04  0.24243069310E+04  0.91370611899E+02 0.  0.
         23    2    4    4    0    0  0.10964121130E+03 -0.13500901180E+03 -0.24566049605E+03  0.31451500055E+03  0.91224874727E+02 0.  0.
          3    1    3    3  502    0  0.38642642925E+01 -0.46583575952E+02 -0.18027525296E+02  0.50099438673E+02  0.00000000000E+00 0. -1.
         -4    1    3    3    0  502  0.24433948393E+03 -0.78707988754E+03 -0.27602818851E+02  0.82459593037E+03  0.00000000000E+00 0.  1.
         11    1    5    5    0    0 -0.21770067208E+03  0.69402873034E+03 -0.15865534186E+04  0.17453427203E+04  0.00000000000E+00 0. -1.
        -11    1    5    5    0    0 -0.14014428745E+03  0.27464374495E+03 -0.60491552425E+03  0.67896421071E+03  0.00000000000E+00 0.  1.
          2    1    6    6  503    0  0.21554365050E+02  0.19689141941E+01 -0.24052999237E+01  0.21777344731E+02  0.00000000000E+00 0. -1.
         -2    1    6    6    0  503  0.88086846255E+02 -0.13697792599E+03 -0.24325519613E+03  0.29273765582E+03  0.00000000000E+00 0.  1.
<mgrwt>
<rscale>  0 0.26255306E+04</rscale>
<asrwt>0</asrwt>
<pdfrwt beam="1">  1        1 0.46894439E+00 0.26255306E+04</pdfrwt>
<pdfrwt beam="2">  1       -2 0.86981348E-01 0.26255306E+04</pdfrwt>
<totfact> 0.48680795E-01</totfact>
</mgrwt>
</event>
<event>
12    4  0.4320235E-008  0.2282997E+04  0.7818608E-02  0.8484656E-01
         -2   -1    0    0    0  501 -0.00000000000E+00  0.00000000000E+00  0.51831641812E+03  0.51831641812E+03  0.00000000000E+00 0.  1.
          1   -1    0    0  501    0  0.00000000000E+00 -0.00000000000E+00 -0.25139441276E+04  0.25139441276E+04  0.00000000000E+00 0. -1.
        -24    2    1    2    0    0 -0.93243456199E+03 -0.79133091491E+02 -0.11916027864E+04  0.15171090383E+04  0.77500806851E+02 0.  0.
        254    2    1    2    0    0  0.93243456199E+03  0.79133091491E+02 -0.80402492306E+03  0.15151515074E+04  0.87950654055E+03 0.  0.
         23    2    4    4    0    0  0.19671275768E+03 -0.33290841611E+03 -0.91386185220E+02  0.40725690377E+03  0.89346674589E+02 0.  0.
         23    2    4    4    0    0  0.73572180430E+03  0.41204150761E+03 -0.71263873784E+03  0.11078946036E+04  0.92258900623E+02 0.  0.
          3    1    3    3  502    0 -0.70066640136E+03 -0.84586429552E+02 -0.86026101423E+03  0.11127161734E+04  0.00000000000E+00 0. -1.
         -4    1    3    3    0  502 -0.23176816063E+03  0.54533380606E+01 -0.33134177220E+03  0.40439286490E+03  0.00000000000E+00 0.  1.
         11    1    5    5    0    0  0.19482662020E+03 -0.30806372511E+03 -0.63726156080E+02  0.37002931456E+03  0.00000000000E+00 0. -1.
        -11    1    5    5    0    0  0.18861374811E+01 -0.24844691005E+02 -0.27660029140E+02  0.37227589202E+02  0.00000000000E+00 0.  1.
          1    1    6    6  503    0  0.53844004295E+03  0.30131560025E+03 -0.57296788135E+03  0.84202194975E+03  0.00000000000E+00 0. -1.
         -1    1    6    6    0  503  0.19728176135E+03  0.11072590736E+03 -0.13967085649E+03  0.26587265387E+03  0.00000000000E+00 0.  1.
<mgrwt>
<rscale>  0 0.22829967E+04</rscale>
<asrwt>0</asrwt>
<pdfrwt beam="1">  1        1 0.38676063E+00 0.22829967E+04</pdfrwt>
<pdfrwt beam="2">  1       -2 0.79740988E-01 0.22829967E+04</pdfrwt>
<totfact> 0.14675338E+00</totfact>
</mgrwt>
</event>
<event>
12    4  0.4320235E-008  0.1297310E+04  0.7818608E-02  0.9031701E-01
         -2   -1    0    0    0  501 -0.00000000000E+00  0.00000000000E+00  0.27100705159E+03  0.27100705159E+03  0.00000000000E+00 0.  1.
          1   -1    0    0  501    0  0.00000000000E+00 -0.00000000000E+00 -0.15525544430E+04  0.15525544430E+04  0.00000000000E+00 0. -1.
        -24    2    1    2    0    0  0.24156245920E+01  0.17590858965E+03  0.57920522855E+02  0.20143044217E+03  0.79181872359E+02 0.  0.
        254    2    1    2    0    0 -0.24156245920E+01 -0.17590858965E+03 -0.13394679143E+04  0.16221310525E+04  0.89787816029E+03 0.  0.
         23    2    4    4    0    0  0.59186007573E+02 -0.34675340149E+03 -0.13693447348E+04  0.14166416996E+04  0.89597976548E+02 0.  0.
         23    2    4    4    0    0 -0.61601632165E+02  0.17084481184E+03  0.29876820457E+02  0.20548935288E+03  0.91381283266E+02 0.  0.
          3    1    3    3  502    0  0.16608163510E+02  0.10943784329E+02 -0.10245541624E+02  0.22373391200E+02  0.00000000000E+00 0. -1.
         -4    1    3    3    0  502 -0.14192538918E+02  0.16496480532E+03  0.68166064479E+02  0.17905705097E+03  0.00000000000E+00 0.  1.
         11    1    5    5    0    0  0.67376474699E+02 -0.20712763045E+03 -0.94757273378E+03  0.97228366768E+03  0.00000000000E+00 0. -1.
        -11    1    5    5    0    0 -0.81904671265E+01 -0.13962577104E+03 -0.42177200099E+03  0.44435803190E+03  0.00000000000E+00 0.  1.
          4    1    6    6  503    0 -0.18943354335E+02  0.43353981623E+02  0.50814944305E+02  0.69430374914E+02  0.00000000000E+00 0. -1.
         -4    1    6    6    0  503 -0.42658277830E+02  0.12749083021E+03 -0.20938123848E+02  0.13605897797E+03  0.00000000000E+00 0.  1.
<mgrwt>
<rscale>  0 0.12973098E+04</rscale>
<asrwt>0</asrwt>
<pdfrwt beam="1">  1        1 0.23885453E+00 0.12973098E+04</pdfrwt>
<pdfrwt beam="2">  1       -2 0.41693393E-01 0.12973098E+04</pdfrwt>
<totfact> 0.28279065E+01</totfact>
</mgrwt>
</event>
<event>
12    4  0.4320235E-008  0.1858694E+04  0.7818608E-02  0.8675695E-01
         -2   -1    0    0    0  501 -0.00000000000E+00  0.00000000000E+00  0.10344268976E+04  0.10344268976E+04  0.00000000000E+00 0.  1.
          1   -1    0    0  501    0  0.00000000000E+00 -0.00000000000E+00 -0.83494165948E+03  0.83494165948E+03  0.00000000000E+00 0. -1.
        -24    2    1    2    0    0  0.19397784646E+03 -0.94864182602E-01 -0.65178499483E+03  0.68484663857E+03  0.81017436176E+02 0.  0.
        254    2    1    2    0    0 -0.19397784646E+03  0.94864182602E-01  0.85127023295E+03  0.11845219185E+04  0.80050218738E+03 0.  0.
         23    2    4    4    0    0  0.14854769754E+03 -0.13776901306E+03 -0.29744186365E+02  0.22452711460E+03  0.92092286119E+02 0.  0.
         23    2    4    4    0    0 -0.34252554400E+03  0.13786387724E+03  0.88101441932E+03  0.95999480391E+03  0.95254498848E+02 0.  0.
          3    1    3    3  502    0  0.15653203360E+03  0.16919878109E+02 -0.40261399367E+03  0.43230381413E+03  0.00000000000E+00 0. -1.
         -4    1    3    3    0  502  0.37445812863E+02 -0.17014742292E+02 -0.24917100116E+03  0.25254282444E+03  0.00000000000E+00 0.  1.
         11    1    5    5    0    0  0.17727529652E+02 -0.71655589518E+01  0.25243307833E+02  0.31667572262E+02  0.00000000000E+00 0. -1.
        -11    1    5    5    0    0  0.13082016789E+03 -0.13060345411E+03 -0.54987494198E+02  0.19285954233E+03  0.00000000000E+00 0.  1.
          1    1    6    6  503    0 -0.11287320580E+03  0.22197882137E+02  0.18331054398E+03  0.21641594695E+03  0.00000000000E+00 0. -1.
         -1    1    6    6    0  503 -0.22965233821E+03  0.11566599511E+03  0.69770387534E+03  0.74357885697E+03  0.00000000000E+00 0.  1.
<mgrwt>
<rscale>  0 0.18586943E+04</rscale>
<asrwt>0</asrwt>
<pdfrwt beam="1">  1        1 0.12845256E+00 0.18586943E+04</pdfrwt>
<pdfrwt beam="2">  1       -2 0.15914260E+00 0.18586943E+04</pdfrwt>
<totfact> 0.43355156E+00</totfact>
</mgrwt>
</event>
<event>
12    4  0.4320235E-008  0.1656297E+04  0.7818608E-02  0.8786690E-01
         -2   -1    0    0    0  501 -0.00000000000E+00  0.00000000000E+00  0.11690281563E+04  0.11690281563E+04  0.00000000000E+00 0.  1.
          1   -1    0    0  501    0  0.00000000000E+00 -0.00000000000E+00 -0.58666696504E+03  0.58666696504E+03  0.00000000000E+00 0. -1.
        -24    2    1    2    0    0 -0.23557459409E+03 -0.45717253152E+03 -0.71049849946E+02  0.52599138776E+03  0.84360807669E+02 0.  0.
        254    2    1    2    0    0  0.23557459409E+03  0.45717253152E+03  0.65341104118E+03  0.12297037336E+04  0.90593772999E+03 0.  0.
         23    2    4    4    0    0 -0.31059157102E+03  0.22716295747E+03  0.93601157466E+02  0.40934895678E+03  0.10361109260E+03 0.  0.
         23    2    4    4    0    0  0.54616616511E+03  0.23000957405E+03  0.55980988372E+03  0.82035477677E+03  0.91613152994E+02 0.  0.
          1    1    3    3  502    0 -0.24974886005E+02 -0.32263013200E+02 -0.28667876618E+02  0.49864758111E+02  0.00000000000E+00 0. -1.
         -2    1    3    3    0  502 -0.21059970809E+03 -0.42490951832E+03 -0.42381973328E+02  0.47612662965E+03  0.00000000000E+00 0.  1.
         11    1    5    5    0    0 -0.44502383267E+02  0.82576141126E+02  0.39205270331E+02  0.10166776491E+03  0.00000000000E+00 0.  1.
        -11    1    5    5    0    0 -0.26608918775E+03  0.14458681634E+03  0.54395887135E+02  0.30768119188E+03  0.00000000000E+00 0. -1.
          3    1    6    6  503    0  0.69885379904E+02  0.44590690711E+02  0.42551114604E+02  0.93182044281E+02  0.00000000000E+00 0. -1.
         -3    1    6    6    0  503  0.47628078520E+03  0.18541888334E+03  0.51725876911E+03  0.72717273249E+03  0.00000000000E+00 0.  1.
<mgrwt>
<rscale>  0 0.16562973E+04</rscale>
<asrwt>0</asrwt>
<pdfrwt beam="1">  1        1 0.90256456E-01 0.16562973E+04</pdfrwt>
<pdfrwt beam="2">  1       -2 0.17985049E+00 0.16562973E+04</pdfrwt>
<totfact> 0.53701697E+00</totfact>
</mgrwt>
</event>
<event>
12    4  0.4320235E-008  0.1402575E+04  0.7818608E-02  0.8951957E-01
          3   -1    0    0  501    0  0.00000000000E+00  0.00000000000E+00  0.51768097396E+03  0.51768097396E+03  0.00000000000E+00 0. -1.
         -4   -1    0    0    0  501 -0.00000000000E+00 -0.00000000000E+00 -0.95001369565E+03  0.95001369565E+03  0.00000000000E+00 0.  1.
        -24    2    1    2    0    0 -0.34412567867E+03 -0.25791156922E+01  0.89906611269E+02  0.36978549399E+03  0.10113841140E+03 0.  0.
        254    2    1    2    0    0  0.34412567867E+03  0.25791156922E+01 -0.52223933296E+03  0.10979091756E+04  0.90235331354E+03 0.  0.
         23    2    4    4    0    0 -0.18147002392E+03  0.29219934355E+03 -0.23035122718E+03  0.42439211621E+03  0.93462048389E+02 0.  0.
         23    2    4    4    0    0  0.52559570259E+03 -0.28962022786E+03 -0.29188810578E+03  0.67351705940E+03  0.91081524143E+02 0.  0.
          3    1    3    3  502    0 -0.23874914460E+03  0.45083437922E+02  0.64237347828E+02  0.25131674691E+03  0.00000000000E+00 0. -1.
         -4    1    3    3    0  502 -0.10537653407E+03 -0.47662553614E+02  0.25669263441E+02  0.11846874708E+03  0.00000000000E+00 0.  1.
         11    1    5    5    0    0 -0.80515101555E+02  0.11642763548E+03 -0.15027486059E+03  0.20644759530E+03  0.00000000000E+00 0.  1.
        -11    1    5    5    0    0 -0.10095492236E+03  0.17577170808E+03 -0.80076366588E+02  0.21794452091E+03  0.00000000000E+00 0. -1.
          1    1    6    6  503    0  0.13631341579E+03 -0.10381210716E+03 -0.11996571671E+03  0.20916518377E+03  0.00000000000E+00 0. -1.
         -1    1    6    6    0  503  0.38928228680E+03 -0.18580812071E+03 -0.17192238907E+03  0.46435187563E+03  0.00000000000E+00 0.  1.
<mgrwt>
<rscale>  0 0.14025748E+04</rscale>
<asrwt>0</asrwt>
<pdfrwt beam="1">  1        3 0.79643227E-01 0.14025748E+04</pdfrwt>
<pdfrwt beam="2">  1       -4 0.14615595E+00 0.14025748E+04</pdfrwt>
<totfact> 0.10440852E+00</totfact>
</mgrwt>
</event>
<event>
12    4  0.4320235E-008  0.2198155E+04  0.7818608E-02  0.8519196E-01
          1   -1    0    0  501    0  0.00000000000E+00  0.00000000000E+00  0.20801350407E+04  0.20801350407E+04  0.00000000000E+00 0. -1.
         -2   -1    0    0    0  501 -0.00000000000E+00 -0.00000000000E+00 -0.58071797376E+03  0.58071797376E+03  0.00000000000E+00 0.  1.
        -24    2    1    2    0    0 -0.14830018235E+03 -0.84062569807E+02 -0.45954647467E+03  0.49666347746E+03  0.80200921016E+02 0.  0.
        254    2    1    2    0    0  0.14830018235E+03  0.84062569807E+02  0.19589635416E+04  0.21641895370E+04  0.90394620137E+03 0.  0.
         23    2    4    4    0    0 -0.29083661838E+03  0.23428941287E+03  0.50292894289E+03  0.63319057366E+03  0.92278455809E+02 0.  0.
         23    2    4    4    0    0  0.43913680073E+03 -0.15022684306E+03  0.14560345987E+04  0.15309989633E+04  0.92259627869E+02 0.  0.
          3    1    3    3  502    0  0.57449974886E+01 -0.13843930937E+02 -0.16084997188E+02  0.21986053636E+02  0.00000000000E+00 0. -1.
         -4    1    3    3    0  502 -0.15404517984E+03 -0.70218638869E+02 -0.44346147748E+03  0.47467742382E+03  0.00000000000E+00 0.  1.
         11    1    5    5    0    0 -0.10320459798E+03  0.12093365253E+03  0.15552787657E+03  0.22240741388E+03  0.00000000000E+00 0.  1.
        -11    1    5    5    0    0 -0.18763202040E+03  0.11335576034E+03  0.34740106632E+03  0.41078315979E+03  0.00000000000E+00 0. -1.
          3    1    6    6  503    0  0.20618433417E+03 -0.22682296277E+02  0.66019483837E+03  0.69201422733E+03  0.00000000000E+00 0. -1.
         -3    1    6    6    0  503  0.23295246656E+03 -0.12754454679E+03  0.79583976035E+03  0.83898473600E+03  0.00000000000E+00 0.  1.
<mgrwt>
<rscale>  0 0.21981554E+04</rscale>
<asrwt>0</asrwt>
<pdfrwt beam="1">  1        1 0.32002077E+00 0.21981554E+04</pdfrwt>
<pdfrwt beam="2">  1       -2 0.89341228E-01 0.21981554E+04</pdfrwt>
<totfact> 0.22635109E+00</totfact>
</mgrwt>
</event>
<event>
12    4  0.4320235E-008  0.1759470E+04  0.7818608E-02  0.8728155E-01
         -2   -1    0    0    0  501 -0.00000000000E+00  0.00000000000E+00  0.63150166604E+03  0.63150166604E+03  0.00000000000E+00 0.  1.
          1   -1    0    0  501    0  0.00000000000E+00 -0.00000000000E+00 -0.12255450810E+04  0.12255450810E+04  0.00000000000E+00 0. -1.
        -24    2    1    2    0    0 -0.32430655500E+03 -0.22968574154E+03 -0.76334435526E+03  0.86401723778E+03  0.76817322147E+02 0.  0.
        254    2    1    2    0    0  0.32430655500E+03  0.22968574154E+03  0.16930094026E+03  0.99302950930E+03  0.89415575628E+03 0.  0.
         23    2    4    4    0    0  0.22970902076E+03  0.56590362762E+03  0.12129032923E+03  0.62921249855E+03  0.90464768764E+02 0.  0.
         23    2    4    4    0    0  0.94597534240E+02 -0.33621788608E+03  0.48010611027E+02  0.36381701075E+03  0.89814465064E+02 0.  0.
          1    1    3    3  502    0 -0.21248139937E+03 -0.14689568994E+03 -0.41392008452E+03  0.48791036592E+03  0.00000000000E+00 0. -1.
         -2    1    3    3    0  502 -0.11182515563E+03 -0.82790051599E+02 -0.34942427074E+03  0.37610687186E+03  0.00000000000E+00 0.  1.
         11    1    5    5    0    0  0.51127004662E+02  0.23175695360E+03  0.27621837550E+02  0.23893141706E+03  0.00000000000E+00 0. -1.
        -11    1    5    5    0    0  0.17858201610E+03  0.33414667402E+03  0.93668491685E+02  0.39028108149E+03  0.00000000000E+00 0.  1.
          4    1    6    6  503    0  0.10453052994E+03 -0.30259113445E+03  0.23425295336E+02  0.32099341239E+03  0.00000000000E+00 0.  1.
         -4    1    6    6    0  503 -0.99329956987E+01 -0.33626751635E+02  0.24585315691E+02  0.42823598362E+02  0.00000000000E+00 0. -1.
<mgrwt>
<rscale>  0 0.17594701E+04</rscale>
<asrwt>0</asrwt>
<pdfrwt beam="1">  1        1 0.18854540E+00 0.17594701E+04</pdfrwt>
<pdfrwt beam="2">  1       -2 0.97154103E-01 0.17594701E+04</pdfrwt>
<totfact> 0.75181685E+00</totfact>
</mgrwt>
</event>
<event>
12    4  0.4320235E-008  0.1515759E+04  0.7818608E-02  0.8874040E-01
          1   -1    0    0  501    0  0.00000000000E+00  0.00000000000E+00  0.73516038108E+03  0.73516038108E+03  0.00000000000E+00 0. -1.
         -2   -1    0    0    0  501 -0.00000000000E+00 -0.00000000000E+00 -0.78130100740E+03  0.78130100740E+03  0.00000000000E+00 0.  1.
        -24    2    1    2    0    0  0.29038290219E+03  0.17132193458E+03  0.33565634566E+03  0.48237958808E+03  0.79695981405E+02 0.  0.
        254    2    1    2    0    0 -0.29038290219E+03 -0.17132193458E+03 -0.38179697199E+03  0.10340818004E+04  0.89993489039E+03 0.  0.
         23    2    4    4    0    0 -0.21713935414E+03 -0.52549086742E+03 -0.15066864817E+03  0.59526288384E+03  0.91360322207E+02 0.  0.
         23    2    4    4    0    0 -0.73243548049E+02  0.35416893284E+03 -0.23112832382E+03  0.43881891656E+03  0.91331753197E+02 0.  0.
          3    1    3    3  502    0  0.25332198582E+03  0.15642446282E+03  0.32558319064E+03  0.44118596430E+03  0.00000000000E+00 0. -1.
         -4    1    3    3    0  502  0.37060916374E+02  0.14897471765E+02  0.10073155018E+02  0.41193623772E+02  0.00000000000E+00 0.  1.
         11    1    5    5    0    0 -0.10777366920E+03 -0.37217128801E+03 -0.96481502429E+02  0.39929351572E+03  0.00000000000E+00 0. -1.
        -11    1    5    5    0    0 -0.10936568495E+03 -0.15331957942E+03 -0.54187145737E+02  0.19596936812E+03  0.00000000000E+00 0.  1.
          4    1    6    6  503    0 -0.93711615695E+02  0.31675352972E+03 -0.20253448556E+03  0.38747242914E+03  0.00000000000E+00 0. -1.
         -4    1    6    6    0  503  0.20468067646E+02  0.37415403122E+02 -0.28593838261E+02  0.51346487421E+02  0.00000000000E+00 0.  1.
<mgrwt>
<rscale>  0 0.15157593E+04</rscale>
<asrwt>0</asrwt>
<pdfrwt beam="1">  1        1 0.11310160E+00 0.15157593E+04</pdfrwt>
<pdfrwt beam="2">  1       -2 0.12020015E+00 0.15157593E+04</pdfrwt>
<totfact> 0.11302537E+01</totfact>
</mgrwt>
</event>
<event>
12    4  0.4320235E-008  0.2189052E+04  0.7818608E-02  0.8522999E-01
         -2   -1    0    0    0  501 -0.00000000000E+00  0.00000000000E+00  0.15300342909E+04  0.15300342909E+04  0.00000000000E+00 0.  1.
          1   -1    0    0  501    0  0.00000000000E+00 -0.00000000000E+00 -0.78298066957E+03  0.78298066957E+03  0.00000000000E+00 0. -1.
        -24    2    1    2    0    0 -0.51771433030E+03 -0.13967707830E+01  0.11017626402E+04  0.12200282635E+04  0.80981292557E+02 0.  0.
        254    2    1    2    0    0  0.51771433030E+03  0.13967707830E+01 -0.35470901885E+03  0.10929866969E+04  0.89485828648E+03 0.  0.
         23    2    4    4    0    0 -0.98792103234E+02  0.22940695776E+03  0.10486972026E+03  0.28575587541E+03  0.90946853567E+02 0.  0.
         23    2    4    4    0    0  0.61650643353E+03 -0.22801018698E+03 -0.45957873911E+03  0.80723082153E+03  0.91324442665E+02 0.  0.
          3    1    3    3  502    0 -0.43437114018E+02 -0.40543995168E+01  0.15628736382E+03  0.16226201379E+03  0.00000000000E+00 0. -1.
         -4    1    3    3    0  502 -0.47427721628E+03  0.26576287337E+01  0.94547527634E+03  0.10577662497E+04  0.00000000000E+00 0.  1.
         11    1    5    5    0    0 -0.10379639201E+03  0.13062049519E+03  0.62786276943E+02  0.17826250680E+03  0.00000000000E+00 0.  1.
        -11    1    5    5    0    0  0.50042887788E+01  0.98786462577E+02  0.42083443321E+02  0.10749336862E+03  0.00000000000E+00 0. -1.
          3    1    6    6  503    0  0.25116731076E+03 -0.12899929942E+03 -0.23299968126E+03  0.36608016705E+03  0.00000000000E+00 0. -1.
         -3    1    6    6    0  503  0.36533912278E+03 -0.99010887562E+02 -0.22657905786E+03  0.44115065448E+03  0.00000000000E+00 0.  1.
<mgrwt>
<rscale>  0 0.21890521E+04</rscale>
<asrwt>0</asrwt>
<pdfrwt beam="1">  1        1 0.12045856E+00 0.21890521E+04</pdfrwt>
<pdfrwt beam="2">  1       -2 0.23538989E+00 0.21890521E+04</pdfrwt>
<totfact> 0.14476963E+00</totfact>
</mgrwt>
</event>
<event>
12    4  0.4320235E-008  0.1599489E+04  0.7818608E-02  0.8820862E-01
         -2   -1    0    0    0  501 -0.00000000000E+00  0.00000000000E+00  0.23317042119E+03  0.23317042119E+03  0.00000000000E+00 0.  1.
          1   -1    0    0  501    0  0.00000000000E+00 -0.00000000000E+00 -0.27430197544E+04  0.27430197544E+04  0.00000000000E+00 0. -1.
        -24    2    1    2    0    0  0.24248375405E+03 -0.14009882378E+03 -0.20205650648E+01  0.29241008507E+03  0.84104243428E+02 0.  0.
        254    2    1    2    0    0 -0.24248375405E+03  0.14009882378E+03 -0.25078287682E+04  0.26837800906E+04  0.91380763433E+03 0.  0.
         23    2    4    4    0    0  0.27756587745E+03 -0.55222184906E+02 -0.37921066285E+03  0.48189260127E+03  0.91254842656E+02 0.  0.
         23    2    4    4    0    0 -0.52004963150E+03  0.19532100868E+03 -0.21286181053E+04  0.22018874893E+04  0.93228544431E+02 0.  0.
          3    1    3    3  502    0  0.10100344971E+03 -0.43743886051E+02 -0.39928533364E+02  0.11708762615E+03  0.00000000000E+00 0. -1.
         -4    1    3    3    0  502  0.14148030434E+03 -0.96354937725E+02  0.37907968299E+02  0.17532245892E+03  0.00000000000E+00 0.  1.
         11    1    5    5    0    0  0.20015816460E+03 -0.80374645781E+02 -0.26600174141E+03  0.34246211611E+03  0.00000000000E+00 0. -1.
        -11    1    5    5    0    0  0.77407712846E+02  0.25152460875E+02 -0.11320892144E+03  0.13943048516E+03  0.00000000000E+00 0.  1.
          1    1    6    6  503    0 -0.43451904061E+03  0.19027027914E+03 -0.18800084729E+04  0.19389279084E+04  0.00000000000E+00 0. -1.
         -1    1    6    6    0  503 -0.85530590891E+02  0.50507295427E+01 -0.24860963238E+03  0.26295958085E+03  0.00000000000E+00 0.  1.
<mgrwt>
<rscale>  0 0.15994888E+04</rscale>
<asrwt>0</asrwt>
<pdfrwt beam="1">  1        1 0.42200305E+00 0.15994888E+04</pdfrwt>
<pdfrwt beam="2">  1       -2 0.35872372E-01 0.15994888E+04</pdfrwt>
<totfact> 0.56522395E+00</totfact>
</mgrwt>
</event>
<event>
12    4  0.4320235E-008  0.1132674E+04  0.7818608E-02  0.9173918E-01
          1   -1    0    0  501    0  0.00000000000E+00  0.00000000000E+00  0.16195947682E+04  0.16195947682E+04  0.00000000000E+00 0. -1.
         -2   -1    0    0    0  501 -0.00000000000E+00 -0.00000000000E+00 -0.19803571864E+03  0.19803571864E+03  0.00000000000E+00 0.  1.
        -24    2    1    2    0    0 -0.21935572780E+02 -0.10521240136E+03  0.54302248538E+03  0.55931838938E+03  0.80080099438E+02 0.  0.
        254    2    1    2    0    0  0.21935572780E+02  0.10521240136E+03  0.87853656416E+03  0.12583120974E+04  0.89441155025E+03 0.  0.
         23    2    4    4    0    0  0.10227989005E+03  0.15839327773E+03 -0.12598369802E+03  0.24440498644E+03  0.91171809738E+02 0.  0.
         23    2    4    4    0    0 -0.80344317271E+02 -0.53180876365E+02  0.10045202622E+04  0.10139071110E+04  0.98301870062E+02 0.  0.
          1    1    3    3  502    0 -0.15698704093E+02 -0.67734248108E+02  0.48503142406E+03  0.48998965295E+03  0.00000000000E+00 0. -1.
         -2    1    3    3    0  502 -0.62368686869E+01 -0.37478153255E+02  0.57991061318E+02  0.69328736432E+02  0.00000000000E+00 0.  1.
         11    1    5    5    0    0  0.83483704762E+01 -0.75914688079E+01  0.56989439131E+01  0.12641346843E+02  0.00000000000E+00 0.  1.
        -11    1    5    5    0    0  0.93931519575E+02  0.16598474654E+03 -0.13168264193E+03  0.23176363960E+03  0.00000000000E+00 0. -1.
          1    1    6    6  503    0  0.97199213741E+01 -0.10723297819E+02  0.46812030782E+03  0.46834398531E+03  0.00000000000E+00 0. -1.
         -1    1    6    6    0  503 -0.90064238645E+02 -0.42457578546E+02  0.53639995436E+03  0.54556312568E+03  0.00000000000E+00 0.  1.
<mgrwt>
<rscale>  0 0.11326740E+04</rscale>
<asrwt>0</asrwt>
<pdfrwt beam="1">  1        1 0.24916842E+00 0.11326740E+04</pdfrwt>
<pdfrwt beam="2">  1       -2 0.30467035E-01 0.11326740E+04</pdfrwt>
<totfact> 0.47042616E+01</totfact>
</mgrwt>
</event>
<event>
12    4  0.4320235E-008  0.1636473E+04  0.7818608E-02  0.8798449E-01
         -2   -1    0    0    0  501 -0.00000000000E+00  0.00000000000E+00  0.16947449277E+03  0.16947449277E+03  0.00000000000E+00 0.  1.
          1   -1    0    0  501    0  0.00000000000E+00 -0.00000000000E+00 -0.39505121565E+04  0.39505121565E+04  0.00000000000E+00 0. -1.
        -24    2    1    2    0    0  0.41996234688E+03 -0.35511303041E+03 -0.16187018489E+04  0.17115050412E+04  0.81118390704E+02 0.  0.
        254    2    1    2    0    0 -0.41996234688E+03  0.35511303041E+03 -0.21623358148E+04  0.24084816080E+04  0.90698061890E+03 0.  0.
         23    2    4    4    0    0 -0.49905039815E+03  0.29531189813E+03 -0.59749607877E+03  0.83784421606E+03  0.93386022415E+02 0.  0.
         23    2    4    4    0    0  0.79088051269E+02  0.59801132284E+02 -0.15648397360E+04  0.15706373919E+04  0.91363681450E+02 0.  0.
          3    1    3    3  502    0  0.17549880778E+03 -0.11829561088E+03 -0.72198213072E+03  0.75236419384E+03  0.00000000000E+00 0. -1.
         -4    1    3    3    0  502  0.24446353909E+03 -0.23681741953E+03 -0.89671971820E+03  0.95914084740E+03  0.00000000000E+00 0.  1.
         11    1    5    5    0    0 -0.35850109888E+03  0.23651540527E+03 -0.48885406727E+03  0.65072334668E+03  0.00000000000E+00 0.  1.
        -11    1    5    5    0    0 -0.14054929927E+03  0.58796492860E+02 -0.10864201150E+03  0.18712086939E+03  0.00000000000E+00 0. -1.
          3    1    6    6  503    0 -0.13018085056E+02  0.19633432490E+02 -0.62448951898E+03  0.62493367770E+03  0.00000000000E+00 0. -1.
         -3    1    6    6    0  503  0.92106136326E+02  0.40167699794E+02 -0.94035021702E+03  0.94570371423E+03  0.00000000000E+00 0.  1.
<mgrwt>
<rscale>  0 0.16364731E+04</rscale>
<asrwt>0</asrwt>
<pdfrwt beam="1">  1        1 0.60777111E+00 0.16364731E+04</pdfrwt>
<pdfrwt beam="2">  1       -2 0.26072998E-01 0.16364731E+04</pdfrwt>
<totfact> 0.12012003E+00</totfact>
</mgrwt>
</event>
<event>
12    4  0.4320235E-008  0.2536347E+04  0.7818608E-02  0.8390150E-01
         -2   -1    0    0    0  501 -0.00000000000E+00  0.00000000000E+00  0.65694355428E+03  0.65694355428E+03  0.00000000000E+00 0.  1.
          1   -1    0    0  501    0  0.00000000000E+00 -0.00000000000E+00 -0.24481002651E+04  0.24481002651E+04  0.00000000000E+00 0. -1.
        -24    2    1    2    0    0  0.51393769372E+03 -0.83697630162E+03 -0.17349916884E+03  0.10006107984E+04  0.80366198441E+02 0.  0.
        254    2    1    2    0    0 -0.51393769372E+03  0.83697630162E+03 -0.16176575420E+04  0.21044330209E+04  0.92041356682E+03 0.  0.
         23    2    4    4    0    0 -0.34504780057E+03 -0.10605100539E+03 -0.58307537134E+03  0.69142247326E+03  0.88223281727E+02 0.  0.
         23    2    4    4    0    0 -0.16888989315E+03  0.94302730701E+03 -0.10345821706E+04  0.14130105477E+04  0.91729178985E+02 0.  0.
          1    1    3    3  502    0  0.85471068050E+02 -0.20177843018E+03 -0.45132432048E+02  0.22373371401E+03  0.00000000000E+00 0. -1.
         -2    1    3    3    0  502  0.42846662567E+03 -0.63519787143E+03 -0.12836673679E+03  0.77687708442E+03  0.00000000000E+00 0.  1.
         11    1    5    5    0    0 -0.11278966308E+03 -0.29255226753E+02 -0.11742604692E+03  0.16542748528E+03  0.00000000000E+00 0.  1.
        -11    1    5    5    0    0 -0.23225813749E+03 -0.76795778635E+02 -0.46564932442E+03  0.52599498798E+03  0.00000000000E+00 0. -1.
          1    1    6    6  503    0 -0.11890235669E+03  0.58679135567E+03 -0.58311955028E+03  0.83575730654E+03  0.00000000000E+00 0.  1.
         -1    1    6    6    0  503 -0.49987536463E+02  0.35623595134E+03 -0.45146262033E+03  0.57725324112E+03  0.00000000000E+00 0. -1.
<mgrwt>
<rscale>  0 0.25363467E+04</rscale>
<asrwt>0</asrwt>
<pdfrwt beam="1">  1        1 0.37663081E+00 0.25363467E+04</pdfrwt>
<pdfrwt beam="2">  1       -2 0.10106824E+00 0.25363467E+04</pdfrwt>
<totfact> 0.92265289E-01</totfact>
</mgrwt>
</event>
<event>
12    4  0.4320235E-008  0.1494592E+04  0.7818608E-02  0.8888057E-01
          1   -1    0    0  501    0  0.00000000000E+00  0.00000000000E+00  0.77568878755E+03  0.77568878755E+03  0.00000000000E+00 0. -1.
         -2   -1    0    0    0  501 -0.00000000000E+00 -0.00000000000E+00 -0.71994203842E+03  0.71994203842E+03  0.00000000000E+00 0.  1.
        -24    2    1    2    0    0 -0.25363339455E+03 -0.39185686600E+03  0.16182314154E+01  0.47379868865E+03  0.81245777923E+02 0.  0.
        254    2    1    2    0    0  0.25363339455E+03  0.39185686600E+03  0.54128517717E+02  0.10218321373E+04  0.90737496007E+03 0.  0.
         23    2    4    4    0    0  0.34504723407E+03  0.64298970468E+03  0.66869772977E+02  0.73834412902E+03  0.90482773315E+02 0.  0.
         23    2    4    4    0    0 -0.91413839519E+02 -0.25113283867E+03 -0.12741255260E+02  0.28348800830E+03  0.93695883297E+02 0.  0.
          1    1    3    3  502    0 -0.12574946393E+03 -0.17490522300E+03  0.39858374722E+02  0.21907408507E+03  0.00000000000E+00 0. -1.
         -2    1    3    3    0  502 -0.12788393062E+03 -0.21695164300E+03 -0.38240143307E+02  0.25472460359E+03  0.00000000000E+00 0.  1.
         11    1    5    5    0    0  0.27872525566E+03  0.44676939499E+03  0.26004113906E+02  0.52722563896E+03  0.00000000000E+00 0.  1.
        -11    1    5    5    0    0  0.66321978417E+02  0.19622030969E+03  0.40865659071E+02  0.21111849007E+03  0.00000000000E+00 0. -1.
          2    1    6    6  503    0 -0.71568626921E+01 -0.35067926278E+02 -0.35563711041E+02  0.50455501980E+02  0.00000000000E+00 0. -1.
         -2    1    6    6    0  503 -0.84256976827E+02 -0.21606491240E+03  0.22822455781E+02  0.23303250632E+03  0.00000000000E+00 0.  1.
<mgrwt>
<rscale>  0 0.14945915E+04</rscale>
<asrwt>0</asrwt>
<pdfrwt beam="1">  1        1 0.11933674E+00 0.14945915E+04</pdfrwt>
<pdfrwt beam="2">  1       -2 0.11076031E+00 0.14945915E+04</pdfrwt>
<totfact> 0.12721335E+01</totfact>
</mgrwt>
</event>
<event>
12    4  0.4320235E-008  0.2817071E+04  0.7818608E-02  0.8297988E-01
          1   -1    0    0  501    0  0.00000000000E+00  0.00000000000E+00  0.41540554255E+04  0.41540554255E+04  0.00000000000E+00 0. -1.
         -2   -1    0    0    0  501 -0.00000000000E+00 -0.00000000000E+00 -0.47759881137E+03  0.47759881137E+03  0.00000000000E+00 0.  1.
        -24    2    1    2    0    0  0.99434514233E+03 -0.68463922464E+03  0.10450641795E+04  0.15988131335E+04  0.81185998948E+02 0.  0.
        254    2    1    2    0    0 -0.99434514233E+03  0.68463922464E+03  0.26313924346E+04  0.30328411034E+04  0.90357395030E+03 0.  0.
         23    2    4    4    0    0 -0.67925358090E+03  0.74297797769E+03  0.24558503771E+04  0.26559028052E+04  0.96004861670E+02 0.  0.
         23    2    4    4    0    0 -0.31509156143E+03 -0.58338753044E+02  0.17554205752E+03  0.37693829823E+03  0.92635654705E+02 0.  0.
          1    1    3    3  502    0  0.53108323581E+02 -0.16184890708E+02  0.46917138364E+02  0.72688806518E+02  0.00000000000E+00 0. -1.
         -2    1    3    3    0  502  0.94123681874E+03 -0.66845433394E+03  0.99814704117E+03  0.15261243270E+04  0.00000000000E+00 0.  1.
         11    1    5    5    0    0 -0.45210549135E+03  0.55641003637E+03  0.17087864646E+04  0.18530900371E+04  0.00000000000E+00 0. -1.
        -11    1    5    5    0    0 -0.22714808954E+03  0.18656794132E+03  0.74706391243E+03  0.80281276807E+03  0.00000000000E+00 0.  1.
          2    1    6    6  503    0 -0.70557949644E+02 -0.47334703320E+01  0.85365737645E+02  0.11085187938E+03  0.00000000000E+00 0. -1.
         -2    1    6    6    0  503 -0.24453361178E+03 -0.53605282712E+02  0.90176319874E+02  0.26608641884E+03  0.00000000000E+00 0.  1.
<mgrwt>
<rscale>  0 0.28170708E+04</rscale>
<asrwt>0</asrwt>
<pdfrwt beam="1">  1        1 0.63908542E+00 0.28170708E+04</pdfrwt>
<pdfrwt beam="2">  1       -2 0.73476743E-01 0.28170708E+04</pdfrwt>
<totfact> 0.88696172E-02</totfact>
</mgrwt>
</event>
<event>
12    4  0.4320235E-008  0.1767768E+04  0.7818608E-02  0.8723630E-01
          1   -1    0    0  501    0  0.00000000000E+00  0.00000000000E+00  0.30086455070E+03  0.30086455070E+03  0.00000000000E+00 0. -1.
         -2   -1    0    0    0  501 -0.00000000000E+00 -0.00000000000E+00 -0.25966860920E+04  0.25966860920E+04  0.00000000000E+00 0.  1.
        -24    2    1    2    0    0  0.60856132096E+02 -0.42932168285E+03 -0.54867031828E+02  0.44441474495E+03  0.80458052229E+02 0.  0.
        254    2    1    2    0    0 -0.60856132096E+02  0.42932168285E+03 -0.22409545094E+04  0.24531358977E+04  0.89887598871E+03 0.  0.
         23    2    4    4    0    0 -0.34366487667E+03  0.56749638516E+03 -0.14731978360E+04  0.16182852964E+04  0.91530005665E+02 0.  0.
         23    2    4    4    0    0  0.28280874457E+03 -0.13817470231E+03 -0.76775667349E+03  0.83485060136E+03  0.91935752184E+02 0.  0.
          1    1    3    3  502    0  0.17778038623E+02 -0.32369250544E+03 -0.62240191579E+02  0.33010110297E+03  0.00000000000E+00 0. -1.
         -2    1    3    3    0  502  0.43078093473E+02 -0.10562917741E+03  0.73731597515E+01  0.11431364198E+03  0.00000000000E+00 0.  1.
         11    1    5    5    0    0 -0.64277105987E+02  0.13125131782E+03 -0.41733440170E+03  0.44218373741E+03  0.00000000000E+00 0. -1.
        -11    1    5    5    0    0 -0.27938777068E+03  0.43624506734E+03 -0.10558634342E+04  0.11761015590E+04  0.00000000000E+00 0.  1.
          2    1    6    6  503    0  0.75338170939E+02 -0.14541247089E+02 -0.28363718872E+03  0.29383216756E+03  0.00000000000E+00 0. -1.
         -2    1    6    6    0  503  0.20747057363E+03 -0.12363345522E+03 -0.48411948477E+03  0.54101843380E+03  0.00000000000E+00 0.  1.
<mgrwt>
<rscale>  0 0.17677679E+04</rscale>
<asrwt>0</asrwt>
<pdfrwt beam="1">  1        1 0.46286854E-01 0.17677679E+04</pdfrwt>
<pdfrwt beam="2">  1       -2 0.39949017E+00 0.17677679E+04</pdfrwt>
<totfact> 0.54299689E-01</totfact>
</mgrwt>
</event>
<event>
12    4  0.4320235E-008  0.1613242E+04  0.7818608E-02  0.8812454E-01
         -2   -1    0    0    0  501 -0.00000000000E+00  0.00000000000E+00  0.34232061500E+03  0.34232061500E+03  0.00000000000E+00 0.  1.
          1   -1    0    0  501    0  0.00000000000E+00 -0.00000000000E+00 -0.19006664137E+04  0.19006664137E+04  0.00000000000E+00 0. -1.
        -24    2    1    2    0    0 -0.46611448373E+02 -0.30004143092E+03 -0.11859595194E+04  0.12268286309E+04  0.80068848541E+02 0.  0.
        254    2    1    2    0    0  0.46611448373E+02  0.30004143092E+03 -0.37238627937E+03  0.10161583979E+04  0.89538196383E+03 0.  0.
         23    2    4    4    0    0  0.42535749620E+03  0.17573915642E+03 -0.91100710034E+01  0.46935685440E+03  0.91649400988E+02 0.  0.
         23    2    4    4    0    0 -0.37874604783E+03  0.12430227450E+03 -0.36327620837E+03  0.54680154349E+03  0.90126024063E+02 0.  0.
          3    1    3    3  502    0 -0.26797188526E+02 -0.19723024535E+03 -0.61685778669E+03  0.64817542995E+03  0.00000000000E+00 0. -1.
         -4    1    3    3    0  502 -0.19814259847E+02 -0.10281118556E+03 -0.56910173268E+03  0.57865320090E+03  0.00000000000E+00 0.  1.
         11    1    5    5    0    0  0.24741102389E+03  0.62453971042E+02 -0.32005892642E+02  0.25717132501E+03  0.00000000000E+00 0.  1.
        -11    1    5    5    0    0  0.17794647231E+03  0.11328518538E+03  0.22895821639E+02  0.21218552939E+03  0.00000000000E+00 0. -1.
          3    1    6    6  503    0 -0.10136195101E+03 -0.73664525845E+01 -0.89041653027E+02  0.13511819163E+03  0.00000000000E+00 0. -1.
         -3    1    6    6    0  503 -0.27738409681E+03  0.13166872708E+03 -0.27423455534E+03  0.41168335186E+03  0.00000000000E+00 0.  1.
<mgrwt>
<rscale>  0 0.16132418E+04</rscale>
<asrwt>0</asrwt>
<pdfrwt beam="1">  1        1 0.29241022E+00 0.16132418E+04</pdfrwt>
<pdfrwt beam="2">  1       -2 0.52664710E-01 0.16132418E+04</pdfrwt>
<totfact> 0.99641351E+00</totfact>
</mgrwt>
</event>
<event>
12    4  0.4320235E-008  0.2287461E+04  0.7818608E-02  0.8482881E-01
          1   -1    0    0  501    0  0.00000000000E+00  0.00000000000E+00  0.76510513220E+03  0.76510513220E+03  0.00000000000E+00 0. -1.
         -2   -1    0    0    0  501 -0.00000000000E+00 -0.00000000000E+00 -0.17097253507E+04  0.17097253507E+04  0.00000000000E+00 0.  1.
        -24    2    1    2    0    0 -0.61663284494E+03  0.16318726259E+03 -0.11853782867E+04  0.13484469466E+04  0.79506835852E+02 0.  0.
        254    2    1    2    0    0  0.61663284494E+03 -0.16318726259E+03  0.24075806820E+03  0.11263835363E+04  0.89660987916E+03 0.  0.
         23    2    4    4    0    0  0.46332153155E+03 -0.37472624319E+03 -0.17267062013E+03  0.62825151336E+03  0.98985968950E+02 0.  0.
         23    2    4    4    0    0  0.15331131339E+03  0.21153898060E+03  0.41342868833E+03  0.49813202298E+03  0.94652695965E+02 0.  0.
          1    1    3    3  502    0  0.12247764539E+01  0.33549892630E+01 -0.14532482366E+02  0.14964928134E+02  0.00000000000E+00 0. -1.
         -2    1    3    3    0  502 -0.61785762140E+03  0.15983227333E+03 -0.11708458043E+04  0.13334820184E+04  0.00000000000E+00 0.  1.
         11    1    5    5    0    0  0.34211250816E+03 -0.32309972091E+03 -0.11487986363E+03  0.48438804791E+03  0.00000000000E+00 0. -1.
        -11    1    5    5    0    0  0.12120902339E+03 -0.51626522284E+02 -0.57790756506E+02  0.14386346545E+03  0.00000000000E+00 0.  1.
          1    1    6    6  503    0  0.29385634416E+02  0.38772240530E+02  0.23556331308E+02  0.54052778749E+02  0.00000000000E+00 0.  1.
         -1    1    6    6    0  503  0.12392567897E+03  0.17276674007E+03  0.38987235703E+03  0.44407924423E+03  0.00000000000E+00 0. -1.
<mgrwt>
<rscale>  0 0.22874612E+04</rscale>
<asrwt>0</asrwt>
<pdfrwt beam="1">  1        1 0.11770848E+00 0.22874612E+04</pdfrwt>
<pdfrwt beam="2">  1       -2 0.26303467E+00 0.22874612E+04</pdfrwt>
<totfact> 0.10063373E+00</totfact>
</mgrwt>
</event>
<event>
12    4  0.4320235E-008  0.4402343E+04  0.7818608E-02  0.7927960E-01
          1   -1    0    0  501    0  0.00000000000E+00  0.00000000000E+00  0.37037189222E+04  0.37037189222E+04  0.00000000000E+00 0. -1.
         -2   -1    0    0    0  501 -0.00000000000E+00 -0.00000000000E+00 -0.13081868992E+04  0.13081868992E+04  0.00000000000E+00 0.  1.
        -24    2    1    2    0    0  0.17348597334E+04 -0.53947888077E+03 -0.18837651507E+02  0.18186431177E+04  0.79574965948E+02 0.  0.
        254    2    1    2    0    0 -0.17348597334E+04  0.53947888077E+03  0.24143696746E+04  0.31932627037E+04  0.10329424050E+04 0.  0.
         23    2    4    4    0    0 -0.16031394738E+04  0.34590210836E+03  0.14319089392E+04  0.21791910601E+04  0.93840424027E+02 0.  0.
         23    2    4    4    0    0 -0.13172025960E+03  0.19357677240E+03  0.98246073533E+03  0.10140716436E+04  0.91049482641E+02 0.  0.
          3    1    3    3  502    0  0.57169374753E+03 -0.17702572040E+03 -0.43611498209E+02  0.60006150470E+03  0.00000000000E+00 0. -1.
         -4    1    3    3    0  502  0.11631659859E+04 -0.36245316037E+03  0.24773846702E+02  0.12185816130E+04  0.00000000000E+00 0.  1.
         11    1    5    5    0    0 -0.60007151343E+03  0.14979638147E+03  0.59457102205E+03  0.85792743131E+03  0.00000000000E+00 0. -1.
        -11    1    5    5    0    0 -0.10030679603E+04  0.19610572690E+03  0.83733791720E+03  0.13212636288E+04  0.00000000000E+00 0.  1.
          1    1    6    6  503    0 -0.19490878371E+02  0.37970935256E+02  0.72715101224E+02  0.84315907217E+02  0.00000000000E+00 0. -1.
         -1    1    6    6    0  503 -0.11222938123E+03  0.15560583715E+03  0.90974563411E+03  0.92975573639E+03  0.00000000000E+00 0.  1.
<mgrwt>
<rscale>  0 0.44023433E+04</rscale>
<asrwt>0</asrwt>
<pdfrwt beam="1">  1        1 0.56980291E+00 0.44023433E+04</pdfrwt>
<pdfrwt beam="2">  1       -2 0.20125952E+00 0.44023433E+04</pdfrwt>
<totfact> 0.14890703E-02</totfact>
</mgrwt>
</event>
<event>
12    4  0.4320235E-008  0.2254788E+04  0.7818608E-02  0.8495964E-01
          1   -1    0    0  501    0  0.00000000000E+00  0.00000000000E+00  0.16488762016E+04  0.16488762016E+04  0.00000000000E+00 0. -1.
         -2   -1    0    0    0  501 -0.00000000000E+00 -0.00000000000E+00 -0.77083820166E+03  0.77083820166E+03  0.00000000000E+00 0.  1.
        -24    2    1    2    0    0  0.32753415584E+03 -0.29770171332E+03  0.12594673033E+04  0.13374002041E+04  0.80476608231E+02 0.  0.
        254    2    1    2    0    0 -0.32753415584E+03  0.29770171332E+03 -0.38142930341E+03  0.10823141991E+04  0.91104927350E+03 0.  0.
         23    2    4    4    0    0 -0.34559073664E+03  0.50547624991E+03  0.21339274041E+02  0.61945529264E+03  0.91270468912E+02 0.  0.
         23    2    4    4    0    0  0.18056580797E+02 -0.20777453659E+03 -0.40276857745E+03  0.46285890647E+03  0.92301365935E+02 0.  0.
          1    1    3    3  502    0  0.26514109143E+03 -0.26433257171E+03  0.97904805556E+03  0.10481920635E+04  0.00000000000E+00 0. -1.
         -2    1    3    3    0  502  0.62393064408E+02 -0.33369141612E+02  0.28041924775E+03  0.28920814063E+03  0.00000000000E+00 0.  1.
         11    1    5    5    0    0 -0.32427750238E+03  0.43484371943E+03  0.38159653569E+02  0.54378407299E+03  0.00000000000E+00 0.  1.
        -11    1    5    5    0    0 -0.21313234262E+02  0.70632530484E+02 -0.16820379529E+02  0.75671219660E+02  0.00000000000E+00 0. -1.
          1    1    6    6  503    0 -0.19596172297E+02 -0.64929118374E+02 -0.63864511436E+02  0.93158339415E+02  0.00000000000E+00 0. -1.
         -1    1    6    6    0  503  0.37652753094E+02 -0.14284541821E+03 -0.33890406602E+03  0.36970056706E+03  0.00000000000E+00 0.  1.
<mgrwt>
<rscale>  0 0.22547876E+04</rscale>
<asrwt>0</asrwt>
<pdfrwt beam="1">  1        1 0.25367326E+00 0.22547876E+04</pdfrwt>
<pdfrwt beam="2">  1       -2 0.11859049E+00 0.22547876E+04</pdfrwt>
<totfact> 0.22507770E+00</totfact>
</mgrwt>
</event>
<event>
12    4  0.4320235E-008  0.2066408E+04  0.7818608E-02  0.8576187E-01
         -2   -1    0    0    0  501 -0.00000000000E+00  0.00000000000E+00  0.27905408113E+04  0.27905408113E+04  0.00000000000E+00 0.  1.
          1   -1    0    0  501    0  0.00000000000E+00 -0.00000000000E+00 -0.38254603114E+03  0.38254603114E+03  0.00000000000E+00 0. -1.
        -24    2    1    2    0    0 -0.71264962640E+02 -0.12298689250E+03  0.22453867441E+04  0.22512913353E+04  0.79665394957E+02 0.  0.
        254    2    1    2    0    0  0.71264962640E+02  0.12298689250E+03  0.16260803606E+03  0.92179550714E+03  0.89613677135E+03 0.  0.
         23    2    4    4    0    0 -0.17697357228E+03  0.40245189587E+03 -0.95420729682E+02  0.45838583804E+03  0.87893612315E+02 0.  0.
         23    2    4    4    0    0  0.24823853492E+03 -0.27946500338E+03  0.25802876574E+03  0.46340966910E+03  0.91905490232E+02 0.  0.
          3    1    3    3  502    0  0.18715920710E+01 -0.14980459004E+02  0.55302199503E+02  0.57325825582E+02  0.00000000000E+00 0. -1.
         -4    1    3    3    0  502 -0.73136554711E+02 -0.10800643349E+03  0.21900845446E+04  0.21939655097E+04  0.00000000000E+00 0.  1.
         11    1    5    5    0    0 -0.18437540412E+03  0.35447371108E+03 -0.80366277988E+02  0.40755937007E+03  0.00000000000E+00 0.  1.
        -11    1    5    5    0    0  0.74018318453E+01  0.47978184791E+02 -0.15054451694E+02  0.50826467970E+02  0.00000000000E+00 0. -1.
          3    1    6    6  503    0  0.67580022955E+02 -0.10211005650E+03  0.38607378717E+02  0.12839023651E+03  0.00000000000E+00 0. -1.
         -3    1    6    6    0  503  0.18065851196E+03 -0.17735494688E+03  0.21942138702E+03  0.33501943259E+03  0.00000000000E+00 0.  1.
<mgrwt>
<rscale>  0 0.20664078E+04</rscale>
<asrwt>0</asrwt>
<pdfrwt beam="1">  1        1 0.58853237E-01 0.20664078E+04</pdfrwt>
<pdfrwt beam="2">  1       -2 0.42931396E+00 0.20664078E+04</pdfrwt>
<totfact> 0.24496949E-01</totfact>
</mgrwt>
</event>
<event>
12    4  0.4320235E-008  0.1947444E+04  0.7818608E-02  0.8631595E-01
          1   -1    0    0  501    0  0.00000000000E+00  0.00000000000E+00  0.64465920357E+03  0.64465920357E+03  0.00000000000E+00 0. -1.
         -2   -1    0    0    0  501 -0.00000000000E+00 -0.00000000000E+00 -0.14707524542E+04  0.14707524542E+04  0.00000000000E+00 0.  1.
        -24    2    1    2    0    0  0.60043209511E+03 -0.18262131500E+02  0.17757296408E+03  0.63143300190E+03  0.79519004200E+02 0.  0.
        254    2    1    2    0    0 -0.60043209511E+03  0.18262131500E+02 -0.10036662147E+04  0.14839786559E+04  0.91323303393E+03 0.  0.
         23    2    4    4    0    0 -0.53526748911E+02  0.39925203574E+03 -0.30059061058E+03  0.51098836726E+03  0.92125433014E+02 0.  0.
         23    2    4    4    0    0 -0.54690534620E+03 -0.38098990424E+03 -0.70307560414E+03  0.97299028862E+03  0.90199954450E+02 0.  0.
          1    1    3    3  502    0  0.58978310621E+03 -0.29059264418E+02  0.17000070833E+03  0.61448254170E+03  0.00000000000E+00 0. -1.
         -2    1    3    3    0  502  0.10648988900E+02  0.10797132918E+02  0.75722557511E+01  0.16950460200E+02  0.00000000000E+00 0.  1.
         11    1    5    5    0    0 -0.52985451290E+02  0.37591344215E+03 -0.24801860509E+03  0.45346620878E+03  0.00000000000E+00 0. -1.
        -11    1    5    5    0    0 -0.54129762062E+00  0.23338593591E+02 -0.52572005489E+02  0.57522158470E+02  0.00000000000E+00 0.  1.
          1    1    6    6  503    0 -0.29682750544E+03 -0.15264230763E+03 -0.33771931680E+03  0.47482689372E+03  0.00000000000E+00 0. -1.
         -1    1    6    6    0  503 -0.25007784076E+03 -0.22834759662E+03 -0.36535628734E+03  0.49816339490E+03  0.00000000000E+00 0.  1.
<mgrwt>
<rscale>  0 0.19474436E+04</rscale>
<asrwt>0</asrwt>
<pdfrwt beam="1">  1        1 0.99178339E-01 0.19474436E+04</pdfrwt>
<pdfrwt beam="2">  1       -2 0.22626961E+00 0.19474436E+04</pdfrwt>
<totfact> 0.22690343E+00</totfact>
</mgrwt>
</event>
<event>
12    4  0.4320235E-008  0.2006354E+04  0.7818608E-02  0.8603656E-01
         -2   -1    0    0    0  501 -0.00000000000E+00  0.00000000000E+00  0.76161724012E+03  0.76161724012E+03  0.00000000000E+00 0.  1.
          1   -1    0    0  501    0  0.00000000000E+00 -0.00000000000E+00 -0.13213520258E+04  0.13213520258E+04  0.00000000000E+00 0. -1.
        -24    2    1    2    0    0  0.43895237786E+03 -0.19637030831E+03  0.44273045080E+03  0.65926754529E+03  0.85924130453E+02 0.  0.
        254    2    1    2    0    0 -0.43895237786E+03  0.19637030831E+03 -0.10024652365E+04  0.14237017206E+04  0.88924099711E+03 0.  0.
         23    2    4    4    0    0  0.66442751366E+02  0.10784573743E+03 -0.87220317463E+03  0.88611559557E+03  0.91744910418E+02 0.  0.
         23    2    4    4    0    0 -0.50539512923E+03  0.88524570886E+02 -0.13026206187E+03  0.53758612507E+03  0.93647214624E+02 0.  0.
          1    1    3    3  502    0  0.63779432015E+02 -0.37178447469E+01  0.84378891501E+02  0.10583683503E+03  0.00000000000E+00 0. -1.
         -2    1    3    3    0  502  0.37517294584E+03 -0.19265246357E+03  0.35835155930E+03  0.55343071026E+03  0.00000000000E+00 0.  1.
         11    1    5    5    0    0  0.73256589379E+02  0.94488240486E+02 -0.51895837425E+03  0.53255267315E+03  0.00000000000E+00 0.  1.
        -11    1    5    5    0    0 -0.68138380129E+01  0.13357496940E+02 -0.35324480038E+03  0.35356292242E+03  0.00000000000E+00 0. -1.
          1    1    6    6  503    0 -0.28563531562E+03  0.95885953840E+02 -0.85457535796E+02  0.31318467411E+03  0.00000000000E+00 0. -1.
         -1    1    6    6    0  503 -0.21975981361E+03 -0.73613829536E+01 -0.44804526069E+02  0.22440145096E+03  0.00000000000E+00 0.  1.
<mgrwt>
<rscale>  0 0.20063544E+04</rscale>
<asrwt>0</asrwt>
<pdfrwt beam="1">  1        1 0.20328492E+00 0.20063544E+04</pdfrwt>
<pdfrwt beam="2">  1       -2 0.11717188E+00 0.20063544E+04</pdfrwt>
<totfact> 0.40019091E+00</totfact>
</mgrwt>
</event>
<event>
12    4  0.4320235E-008  0.1462564E+04  0.7818608E-02  0.8909736E-01
         -2   -1    0    0    0  501 -0.00000000000E+00  0.00000000000E+00  0.73081362165E+03  0.73081362165E+03  0.00000000000E+00 0.  1.
          1   -1    0    0  501    0  0.00000000000E+00 -0.00000000000E+00 -0.73175034328E+03  0.73175034328E+03  0.00000000000E+00 0. -1.
        -24    2    1    2    0    0  0.42298818320E+03  0.57374147240E+01  0.15477706498E+03  0.45800158981E+03  0.82810599385E+02 0.  0.
        254    2    1    2    0    0 -0.42298818320E+03 -0.57374147240E+01 -0.15571378660E+03  0.10045623751E+04  0.89774543225E+03 0.  0.
         23    2    4    4    0    0 -0.65454358184E+03 -0.69057939579E+02 -0.27889298049E+03  0.72018544833E+03  0.87689713647E+02 0.  0.
         23    2    4    4    0    0  0.23155539864E+03  0.63320524855E+02  0.12317919389E+03  0.28437692679E+03  0.89831682491E+02 0.  0.
          3    1    3    3  502    0  0.39264188579E+03  0.20340001544E+02  0.12367881390E+03  0.41216236503E+03  0.00000000000E+00 0. -1.
         -4    1    3    3    0  502  0.30346297404E+02 -0.14602586820E+02  0.31098251073E+02  0.45839224773E+02  0.00000000000E+00 0.  1.
         11    1    5    5    0    0 -0.33833967924E+03 -0.32347838147E+02 -0.96540953184E+02  0.35332743571E+03  0.00000000000E+00 0. -1.
        -11    1    5    5    0    0 -0.31620390259E+03 -0.36710101432E+02 -0.18235202731E+03  0.36685801262E+03  0.00000000000E+00 0.  1.
          1    1    6    6  503    0 -0.51524479462E+01 -0.74571450466E+01  0.24240050256E+01  0.93825653447E+01  0.00000000000E+00 0.  1.
         -1    1    6    6    0  503  0.23670784659E+03  0.70777669901E+02  0.12075518886E+03  0.27499436145E+03  0.00000000000E+00 0. -1.
<mgrwt>
<rscale>  0 0.14625637E+04</rscale>
<asrwt>0</asrwt>
<pdfrwt beam="1">  1        1 0.11257697E+00 0.14625637E+04</pdfrwt>
<pdfrwt beam="2">  1       -2 0.11243287E+00 0.14625637E+04</pdfrwt>
<totfact> 0.13471397E+01</totfact>
</mgrwt>
</event>
<event>
12    4  0.4320235E-008  0.2596542E+04  0.7818608E-02  0.8369377E-01
         -2   -1    0    0    0  501 -0.00000000000E+00  0.00000000000E+00  0.61819486845E+03  0.61819486845E+03  0.00000000000E+00 0.  1.
          3   -1    0    0  501    0  0.00000000000E+00 -0.00000000000E+00 -0.27264992988E+04  0.27264992988E+04  0.00000000000E+00 0. -1.
        -24    2    1    2    0    0 -0.49850297696E+03 -0.24003533944E+03  0.36713499863E+03  0.66895450861E+03  0.81177861216E+02 0.  0.
        254    2    1    2    0    0  0.49850297696E+03  0.24003533944E+03 -0.24754394290E+04  0.26757396587E+04  0.85185689650E+03 0.  0.
         23    2    4    4    0    0  0.11093786909E+03  0.51286417125E+03 -0.12725374300E+04  0.13796098021E+04  0.92923766349E+02 0.  0.
         23    2    4    4    0    0  0.38756510786E+03 -0.27282883181E+03 -0.12029019990E+04  0.12961298566E+04  0.91307730172E+02 0.  0.
          1    1    3    3  502    0 -0.23138368241E+03 -0.14660531218E+03  0.21090596566E+03  0.34570630946E+03  0.00000000000E+00 0. -1.
         -2    1    3    3    0  502 -0.26711929455E+03 -0.93430027256E+02  0.15622903297E+03  0.32324819915E+03  0.00000000000E+00 0.  1.
         11    1    5    5    0    0  0.78029736499E+02  0.38313377216E+03 -0.83404692610E+03  0.92114841480E+03  0.00000000000E+00 0. -1.
        -11    1    5    5    0    0  0.32908132594E+02  0.12973039909E+03 -0.43849050388E+03  0.45846138728E+03  0.00000000000E+00 0.  1.
          2    1    6    6  503    0  0.30890360243E+03 -0.24433218978E+03 -0.10562608930E+04  0.11273006381E+04  0.00000000000E+00 0. -1.
         -2    1    6    6    0  503  0.78661505437E+02 -0.28496642028E+02 -0.14664110605E+03  0.16882921853E+03  0.00000000000E+00 0.  1.
<mgrwt>
<rscale>  0 0.25965422E+04</rscale>
<asrwt>0</asrwt>
<pdfrwt beam="1">  1        3 0.41946142E+00 0.25965422E+04</pdfrwt>
<pdfrwt beam="2">  1       -2 0.95106904E-01 0.25965422E+04</pdfrwt>
<totfact> 0.29411690E-02</totfact>
</mgrwt>
</event>
<event>
12    4  0.4320235E-008  0.1959993E+04  0.7818608E-02  0.8625557E-01
         -2   -1    0    0    0  501 -0.00000000000E+00  0.00000000000E+00  0.48519609533E+03  0.48519609533E+03  0.00000000000E+00 0.  1.
          1   -1    0    0  501    0  0.00000000000E+00 -0.00000000000E+00 -0.19793912928E+04  0.19793912928E+04  0.00000000000E+00 0. -1.
        -24    2    1    2    0    0  0.18617180883E+03 -0.30871588975E+03 -0.14481019377E+04  0.14944796104E+04  0.80651354659E+02 0.  0.
        254    2    1    2    0    0 -0.18617180883E+03  0.30871588975E+03 -0.46093259771E+02  0.97010777770E+03  0.89945487312E+03 0.  0.
         23    2    4    4    0    0  0.18704041132E+03 -0.30163317597E+02 -0.32463960086E+03  0.38686282883E+03  0.91531615788E+02 0.  0.
         23    2    4    4    0    0 -0.37321222014E+03  0.33887920734E+03  0.27854634109E+03  0.58324494887E+03  0.91978953114E+02 0.  0.
          3    1    3    3  502    0  0.12605980183E+03 -0.13174060823E+03 -0.73818162721E+03  0.76036752709E+03  0.00000000000E+00 0. -1.
         -4    1    3    3    0  502  0.60112006994E+02 -0.17697528152E+03 -0.70992031047E+03  0.73411208332E+03  0.00000000000E+00 0.  1.
         11    1    5    5    0    0  0.93140067708E+02  0.22887901443E+02 -0.10524030543E+03  0.14238837780E+03  0.00000000000E+00 0.  1.
        -11    1    5    5    0    0  0.93900343610E+02 -0.53051219040E+02 -0.21939929543E+03  0.24447445103E+03  0.00000000000E+00 0. -1.
          1    1    6    6  503    0 -0.19342963375E+02  0.41475420003E+02  0.47856377457E+01  0.46013726486E+02  0.00000000000E+00 0.  1.
         -1    1    6    6    0  503 -0.35386925677E+03  0.29740378734E+03  0.27376070335E+03  0.53723122239E+03  0.00000000000E+00 0. -1.
<mgrwt>
<rscale>  0 0.19599928E+04</rscale>
<asrwt>0</asrwt>
<pdfrwt beam="1">  1        1 0.30452173E+00 0.19599928E+04</pdfrwt>
<pdfrwt beam="2">  1       -2 0.74645555E-01 0.19599928E+04</pdfrwt>
<totfact> 0.40595111E+00</totfact>
</mgrwt>
</event>
<event>
12    4  0.4320235E-008  0.1476028E+04  0.7818608E-02  0.8900552E-01
          1   -1    0    0  501    0  0.00000000000E+00  0.00000000000E+00  0.10542557392E+04  0.10542557392E+04  0.00000000000E+00 0. -1.
         -2   -1    0    0    0  501 -0.00000000000E+00 -0.00000000000E+00 -0.51663433632E+03  0.51663433632E+03  0.00000000000E+00 0.  1.
        -24    2    1    2    0    0  0.16538006127E+03 -0.35799422855E+02  0.61924055543E+03  0.64745450153E+03  0.84298889220E+02 0.  0.
        254    2    1    2    0    0 -0.16538006127E+03  0.35799422855E+02 -0.81619152582E+02  0.92343557396E+03  0.90412355895E+03 0.  0.
         23    2    4    4    0    0 -0.52872988092E+03  0.37031082949E+02 -0.10427329793E+03  0.54761666204E+03  0.89913846585E+02 0.  0.
         23    2    4    4    0    0  0.36334981965E+03 -0.12316600930E+01  0.22654145346E+02  0.37581891192E+03  0.93284703102E+02 0.  0.
          1    1    3    3  502    0  0.52101980510E+02 -0.10175811509E+02  0.81140214175E+02  0.96963384168E+02  0.00000000000E+00 0. -1.
         -2    1    3    3    0  502  0.11327808076E+03 -0.25623611347E+02  0.53810034125E+03  0.55049111736E+03  0.00000000000E+00 0.  1.
         11    1    5    5    0    0 -0.10775249882E+03  0.39755051902E+02 -0.40737138128E+02  0.12186295408E+03  0.00000000000E+00 0.  1.
        -11    1    5    5    0    0 -0.42097738210E+03 -0.27239689536E+01 -0.63536159799E+02  0.42575370796E+03  0.00000000000E+00 0. -1.
          3    1    6    6  503    0  0.98781235592E+02  0.20252995193E+02 -0.30006763206E+02  0.10520609373E+03  0.00000000000E+00 0. -1.
         -3    1    6    6    0  503  0.26456858405E+03 -0.21484655286E+02  0.52660908552E+02  0.27061281819E+03  0.00000000000E+00 0.  1.
<mgrwt>
<rscale>  0 0.14760281E+04</rscale>
<asrwt>0</asrwt>
<pdfrwt beam="1">  1        1 0.16219319E+00 0.14760281E+04</pdfrwt>
<pdfrwt beam="2">  1       -2 0.79482206E-01 0.14760281E+04</pdfrwt>
<totfact> 0.16372933E+01</totfact>
</mgrwt>
</event>
<event>
12    4  0.5101908E-008  0.1850166E+04  0.7818608E-02  0.8680067E-01
         -2   -1    0    0    0  501 -0.00000000000E+00  0.00000000000E+00  0.53044101307E+03  0.53044101307E+03  0.00000000000E+00 0.  1.
          1   -1    0    0  501    0  0.00000000000E+00 -0.00000000000E+00 -0.16133348985E+04  0.16133348985E+04  0.00000000000E+00 0. -1.
        -24    2    1    2    0    0 -0.65390223358E+02 -0.34644897103E+03  0.28953257937E+03  0.46330225198E+03  0.80728503880E+02 0.  0.
        254    2    1    2    0    0  0.65390223358E+02  0.34644897103E+03 -0.13724264648E+04  0.16804736596E+04  0.90340165400E+03 0.  0.
         23    2    4    4    0    0 -0.26518752375E+03  0.22918119502E+03 -0.12448986633E+04  0.12963408700E+04  0.88761063760E+02 0.  0.
         23    2    4    4    0    0  0.33057774711E+03  0.11726777601E+03 -0.12752780149E+03  0.38413278958E+03  0.90891593135E+02 0.  0.
          3    1    3    3  502    0 -0.15654743140E+02 -0.98288546327E+01  0.35756375896E+01  0.18827175846E+02  0.00000000000E+00 0. -1.
         -4    1    3    3    0  502 -0.49735480218E+02 -0.33662011639E+03  0.28595694179E+03  0.44447507614E+03  0.00000000000E+00 0.  1.
         11    1    5    5    0    0 -0.25862084184E+02  0.35941335319E+01 -0.43463825252E+02  0.50703740491E+02  0.00000000000E+00 0. -1.
        -11    1    5    5    0    0 -0.23932543957E+03  0.22558706149E+03 -0.12014348381E+04  0.12456371295E+04  0.00000000000E+00 0.  1.
          4    1    6    6  503    0  0.51372770780E+02  0.25943094019E+01  0.10065871214E+02  0.52413870132E+02  0.00000000000E+00 0. -1.
         -4    1    6    6    0  503  0.27920497633E+03  0.11467346661E+03 -0.13759367271E+03  0.33171891945E+03  0.00000000000E+00 0.  1.
<mgrwt>
<rscale>  0 0.18501665E+04</rscale>
<asrwt>0</asrwt>
<pdfrwt beam="1">  1        1 0.24820537E+00 0.18501665E+04</pdfrwt>
<pdfrwt beam="2">  1       -2 0.81606309E-01 0.18501665E+04</pdfrwt>
<totfact> 0.59552248E+00</totfact>
</mgrwt>
</event>
<event>
12    4  0.4320235E-008  0.1393737E+04  0.7818608E-02  0.8958365E-01
         -4   -1    0    0    0  501 -0.00000000000E+00  0.00000000000E+00  0.20052559093E+04  0.20052559093E+04  0.00000000000E+00 0.  1.
          3   -1    0    0  501    0  0.00000000000E+00 -0.00000000000E+00 -0.24217633891E+03  0.24217633891E+03  0.00000000000E+00 0. -1.
        -24    2    1    2    0    0  0.11049013536E+03 -0.39892509049E+03  0.52417970815E+03  0.67272570082E+03  0.80288257331E+02 0.  0.
        254    2    1    2    0    0 -0.11049013536E+03  0.39892509049E+03  0.12388998622E+04  0.15747065474E+04  0.87947628957E+03 0.  0.
         23    2    4    4    0    0  0.15411376823E+03  0.33121275941E+03  0.12292171526E+04  0.12851662722E+04  0.84997609058E+02 0.  0.
         23    2    4    4    0    0 -0.26460390359E+03  0.67712331082E+02  0.96827096334E+01  0.28954027514E+03  0.95601414681E+02 0.  0.
          1    1    3    3  502    0  0.86761049321E+02 -0.25550734956E+03  0.39428691293E+03  0.47777992326E+03  0.00000000000E+00 0. -1.
         -2    1    3    3    0  502  0.23729086035E+02 -0.14341774093E+03  0.12989279522E+03  0.19494577756E+03  0.00000000000E+00 0.  1.
         11    1    5    5    0    0  0.16332331747E+03  0.31975590329E+03  0.11982347769E+04  0.12508736644E+04  0.00000000000E+00 0. -1.
        -11    1    5    5    0    0 -0.92095492367E+01  0.11456856124E+02  0.30982375629E+02  0.34292607790E+02  0.00000000000E+00 0.  1.
          2    1    6    6  503    0 -0.24943020657E+03  0.36552304742E+02 -0.43939418287E+01  0.25213251607E+03  0.00000000000E+00 0. -1.
         -2    1    6    6    0  503 -0.15173697011E+02  0.31160026339E+02  0.14076651462E+02  0.37407759073E+02  0.00000000000E+00 0.  1.
<mgrwt>
<rscale>  0 0.13937368E+04</rscale>
<asrwt>0</asrwt>
<pdfrwt beam="1">  1        3 0.37257900E-01 0.13937368E+04</pdfrwt>
<pdfrwt beam="2">  1       -4 0.30850090E+00 0.13937368E+04</pdfrwt>
<totfact> 0.43850141E-01</totfact>
</mgrwt>
</event>
<event>
12    4  0.4320235E-008  0.1569623E+04  0.7818608E-02  0.8839430E-01
          1   -1    0    0  501    0  0.00000000000E+00  0.00000000000E+00  0.76311114206E+03  0.76311114206E+03  0.00000000000E+00 0. -1.
         -2   -1    0    0    0  501 -0.00000000000E+00 -0.00000000000E+00 -0.80712859580E+03  0.80712859580E+03  0.00000000000E+00 0.  1.
        -24    2    1    2    0    0  0.47214543516E+02  0.29026747373E+03  0.41859358823E+03  0.51772578252E+03  0.79592552155E+02 0.  0.
        254    2    1    2    0    0 -0.47214543516E+02 -0.29026747373E+03 -0.46261104196E+03  0.10525139553E+04  0.89849442437E+03 0.  0.
         23    2    4    4    0    0 -0.20470547657E+03  0.22853040915E+03  0.20076711000E+02  0.32087641555E+03  0.91804791178E+02 0.  0.
         23    2    4    4    0    0  0.15749093306E+03 -0.51879788288E+03 -0.48268775296E+03  0.73163753980E+03  0.91385915248E+02 0.  0.
          1    1    3    3  502    0  0.50994968314E+02  0.27432729649E+03  0.41633373042E+03  0.50118831538E+03  0.00000000000E+00 0. -1.
         -2    1    3    3    0  502 -0.37804247981E+01  0.15940177237E+02  0.22598578088E+01  0.16537467137E+02  0.00000000000E+00 0.  1.
         11    1    5    5    0    0 -0.11319698424E+03  0.10958876551E+03  0.54853706500E+02  0.16682980514E+03  0.00000000000E+00 0.  1.
        -11    1    5    5    0    0 -0.91508492336E+02  0.11894164364E+03 -0.34776995500E+02  0.15404661040E+03  0.00000000000E+00 0. -1.
          2    1    6    6  503    0  0.24346308701E+02 -0.15610849450E+02 -0.19486744189E+02  0.34873694485E+02  0.00000000000E+00 0. -1.
         -2    1    6    6    0  503  0.13314462436E+03 -0.50318703343E+03 -0.46320100877E+03  0.69676384531E+03  0.00000000000E+00 0.  1.
<mgrwt>
<rscale>  0 0.15696227E+04</rscale>
<asrwt>0</asrwt>
<pdfrwt beam="1">  1        1 0.11740172E+00 0.15696227E+04</pdfrwt>
<pdfrwt beam="2">  1       -2 0.12417363E+00 0.15696227E+04</pdfrwt>
<totfact> 0.97881920E+00</totfact>
</mgrwt>
</event>
<event>
12    4  0.4320235E-008  0.2213047E+04  0.7818608E-02  0.8513017E-01
         -2   -1    0    0    0  501 -0.00000000000E+00  0.00000000000E+00  0.23095747897E+04  0.23095747897E+04  0.00000000000E+00 0.  1.
          1   -1    0    0  501    0  0.00000000000E+00 -0.00000000000E+00 -0.53013828540E+03  0.53013828540E+03  0.00000000000E+00 0. -1.
        -24    2    1    2    0    0  0.34629564546E+03  0.10119873839E+03  0.18201354558E+04  0.18571909168E+04  0.78122759079E+02 0.  0.
        254    2    1    2    0    0 -0.34629564546E+03 -0.10119873839E+03 -0.40698951525E+02  0.98252215821E+03  0.91297947842E+03 0.  0.
         23    2    4    4    0    0  0.44193710065E+01  0.36851069920E+03 -0.75799256173E+02  0.38788745148E+03  0.94294652649E+02 0.  0.
         23    2    4    4    0    0 -0.35071501646E+03 -0.46970943759E+03  0.35100304648E+02  0.59463470673E+03  0.93436740790E+02 0.  0.
          1    1    3    3  502    0  0.15725370457E+03  0.51038243891E+02  0.64282539814E+03  0.66374552536E+03  0.00000000000E+00 0. -1.
         -2    1    3    3    0  502  0.18904194088E+03  0.50160494501E+02  0.11773100576E+04  0.11934453915E+04  0.00000000000E+00 0.  1.
         11    1    5    5    0    0  0.26020002753E+02  0.32732654791E+03 -0.87729077344E+02  0.33987659602E+03  0.00000000000E+00 0. -1.
        -11    1    5    5    0    0 -0.21600631747E+02  0.41184151285E+02  0.11929821172E+02  0.48010855461E+02  0.00000000000E+00 0.  1.
          2    1    6    6  503    0 -0.33309521556E+03 -0.39685380946E+03  0.38956311926E+02  0.51957960213E+03  0.00000000000E+00 0. -1.
         -2    1    6    6    0  503 -0.17619800897E+02 -0.72855628131E+02 -0.38560072775E+01  0.75055104598E+02  0.00000000000E+00 0.  1.
<mgrwt>
<rscale>  0 0.22130468E+04</rscale>
<asrwt>0</asrwt>
<pdfrwt beam="1">  1        1 0.81559737E-01 0.22130468E+04</pdfrwt>
<pdfrwt beam="2">  1       -2 0.35531919E+00 0.22130468E+04</pdfrwt>
<totfact> 0.46986044E-01</totfact>
</mgrwt>
</event>
<event>
12    4  0.4320235E-008  0.1028578E+04  0.7818608E-02  0.9277744E-01
          1   -1    0    0  501    0  0.00000000000E+00  0.00000000000E+00  0.75384277882E+03  0.75384277882E+03  0.00000000000E+00 0. -1.
         -2   -1    0    0    0  501 -0.00000000000E+00 -0.00000000000E+00 -0.35086003341E+03  0.35086003341E+03  0.00000000000E+00 0.  1.
        -24    2    1    2    0    0 -0.16160941648E+01  0.45941324863E+02 -0.32519482142E+02  0.97060319079E+02  0.79056762712E+02 0.  0.
        254    2    1    2    0    0  0.16160941648E+01 -0.45941324863E+02  0.43550222756E+03  0.10076424932E+04  0.90750646648E+03 0.  0.
         23    2    4    4    0    0 -0.89564880580E+00 -0.41425994082E+03  0.46252297615E+03  0.62742766593E+03  0.90143617363E+02 0.  0.
         23    2    4    4    0    0  0.25117429706E+01  0.36831861596E+03 -0.27020748595E+02  0.38021482722E+03  0.90378549830E+02 0.  0.
          1    1    3    3  502    0 -0.23117022262E+01 -0.22508928844E+02 -0.43740243342E+01  0.23046213003E+02  0.00000000000E+00 0. -1.
         -2    1    3    3    0  502  0.69560806134E+00  0.68450253707E+02 -0.28145457808E+02  0.74014106077E+02  0.00000000000E+00 0.  1.
         11    1    5    5    0    0  0.32290467543E+02 -0.84049792498E+02  0.12524203836E+03  0.15424853350E+03  0.00000000000E+00 0. -1.
        -11    1    5    5    0    0 -0.33186116349E+02 -0.33021014832E+03  0.33728093779E+03  0.47317913243E+03  0.00000000000E+00 0.  1.
          2    1    6    6  503    0 -0.57482739374E+01  0.32585773023E+03 -0.52352476218E+02  0.33008648074E+03  0.00000000000E+00 0.  1.
         -2    1    6    6    0  503  0.82600169080E+01  0.42460885732E+02  0.25331727623E+02  0.50128346480E+02  0.00000000000E+00 0. -1.
<mgrwt>
<rscale>  0 0.10285782E+04</rscale>
<asrwt>0</asrwt>
<pdfrwt beam="1">  1        1 0.11597581E+00 0.10285782E+04</pdfrwt>
<pdfrwt beam="2">  1       -2 0.53978467E-01 0.10285782E+04</pdfrwt>
<totfact> 0.68879271E+01</totfact>
</mgrwt>
</event>
<event>
12    4  0.4320235E-008  0.1962818E+04  0.7818608E-02  0.8624205E-01
          1   -1    0    0  501    0  0.00000000000E+00  0.00000000000E+00  0.90919936453E+03  0.90919936453E+03  0.00000000000E+00 0. -1.
         -2   -1    0    0    0  501 -0.00000000000E+00 -0.00000000000E+00 -0.10593531160E+04  0.10593531160E+04  0.00000000000E+00 0.  1.
        -24    2    1    2    0    0 -0.21454171705E+03  0.63920216858E+03  0.31302045954E+03  0.74735274946E+03  0.77115260322E+02 0.  0.
        254    2    1    2    0    0  0.21454171705E+03 -0.63920216858E+03 -0.46317421106E+03  0.12211997311E+04  0.90674741401E+03 0.  0.
         23    2    4    4    0    0 -0.13588547722E+03  0.15907086783E+03 -0.13807904862E+01  0.23008730612E+03  0.95759375224E+02 0.  0.
         23    2    4    4    0    0  0.35042719428E+03 -0.79827303641E+03 -0.46179342057E+03  0.99111242499E+03  0.94929534646E+02 0.  0.
          3    1    3    3  502    0 -0.10756271733E+03  0.42378549478E+03  0.18339478041E+03  0.47412817806E+03  0.00000000000E+00 0. -1.
         -2    1    3    3    0  502 -0.10697899973E+03  0.21541667379E+03  0.12962567913E+03  0.27322457141E+03  0.00000000000E+00 0.  1.
         11    1    5    5    0    0 -0.77830865786E+02  0.93475874939E+02  0.46545305283E+02  0.13023766087E+03  0.00000000000E+00 0.  1.
        -11    1    5    5    0    0 -0.58054611438E+02  0.65594992890E+02 -0.47926095769E+02  0.99849645253E+02  0.00000000000E+00 0. -1.
          1    1    6    6  503    0  0.57980423775E+02 -0.20483633624E+03 -0.81041948324E+02  0.22778817259E+03  0.00000000000E+00 0. -1.
         -1    1    6    6    0  503  0.29244677050E+03 -0.59343670017E+03 -0.38075147225E+03  0.76332425240E+03  0.00000000000E+00 0.  1.
<mgrwt>
<rscale>  0 0.19628175E+04</rscale>
<asrwt>0</asrwt>
<pdfrwt beam="1">  1        1 0.13987682E+00 0.19628175E+04</pdfrwt>
<pdfrwt beam="2">  1       -2 0.16297740E+00 0.19628175E+04</pdfrwt>
<totfact> 0.34924981E+00</totfact>
</mgrwt>
</event>
<event>
12    4  0.4320235E-008  0.2686681E+04  0.7818608E-02  0.8339339E-01
         -4   -1    0    0    0  501 -0.00000000000E+00  0.00000000000E+00  0.17627602840E+04  0.17627602840E+04  0.00000000000E+00 0.  1.
          3   -1    0    0  501    0  0.00000000000E+00 -0.00000000000E+00 -0.10237148508E+04  0.10237148508E+04  0.00000000000E+00 0. -1.
        -24    2    1    2    0    0  0.28244068816E+03  0.66609781708E+02  0.15238342730E+04  0.15531079315E+04  0.76575126518E+02 0.  0.
        254    2    1    2    0    0 -0.28244068816E+03 -0.66609781708E+02 -0.78478883980E+03  0.12333672032E+04  0.90614100974E+03 0.  0.
         23    2    4    4    0    0 -0.13949887820E+03 -0.42002594679E+03 -0.69849786146E+03  0.83189725310E+03  0.90950779364E+02 0.  0.
         23    2    4    4    0    0 -0.14294180996E+03  0.35341616508E+03 -0.86290978347E+02  0.40146995011E+03  0.91633187877E+02 0.  0.
          3    1    3    3  502    0  0.81459066305E+02 -0.10374306393E+01  0.58344055112E+03  0.58910061317E+03  0.00000000000E+00 0. -1.
         -4    1    3    3    0  502  0.20098162185E+03  0.67647212348E+02  0.94039372188E+03  0.96400731834E+03  0.00000000000E+00 0.  1.
         11    1    5    5    0    0 -0.13737921995E+03 -0.28093313088E+03 -0.48404537820E+03  0.57627805984E+03  0.00000000000E+00 0.  1.
        -11    1    5    5    0    0 -0.21196582555E+01 -0.13909281591E+03 -0.21445248325E+03  0.25561919326E+03  0.00000000000E+00 0. -1.
          1    1    6    6  503    0 -0.50147009013E+02  0.52342970044E+02 -0.40719505551E+02  0.83141969897E+02  0.00000000000E+00 0. -1.
         -1    1    6    6    0  503 -0.92794800944E+02  0.30107319504E+03 -0.45571472796E+02  0.31832798021E+03  0.00000000000E+00 0.  1.
<mgrwt>
<rscale>  0 0.26866811E+04</rscale>
<asrwt>0</asrwt>
<pdfrwt beam="1">  1        3 0.15749459E+00 0.26866811E+04</pdfrwt>
<pdfrwt beam="2">  1       -4 0.27119389E+00 0.26866811E+04</pdfrwt>
<totfact> 0.26529072E-02</totfact>
</mgrwt>
</event>
<event>
12    4  0.4320235E-008  0.1988861E+04  0.7818608E-02  0.8611846E-01
         -2   -1    0    0    0  501 -0.00000000000E+00  0.00000000000E+00  0.99256079477E+03  0.99256079477E+03  0.00000000000E+00 0.  1.
          1   -1    0    0  501    0  0.00000000000E+00 -0.00000000000E+00 -0.99630390515E+03  0.99630390515E+03  0.00000000000E+00 0. -1.
        -24    2    1    2    0    0  0.36701127386E+03 -0.69509713333E+03 -0.66869323854E+02  0.79272061000E+03  0.77956136022E+02 0.  0.
        254    2    1    2    0    0 -0.36701127386E+03  0.69509713333E+03  0.63126213476E+02  0.11961440899E+04  0.89939894658E+03 0.  0.
         23    2    4    4    0    0  0.26658514164E+03  0.21241484989E+03  0.16251623813E+03  0.38833391313E+03  0.90575903131E+02 0.  0.
         23    2    4    4    0    0 -0.63359641550E+03  0.48268228343E+03 -0.99390024656E+02  0.80781017679E+03  0.90842172147E+02 0.  0.
          3    1    3    3  502    0  0.12642059535E+02 -0.39798712097E+02  0.12337757181E+02  0.43542845637E+02  0.00000000000E+00 0. -1.
         -4    1    3    3    0  502  0.35436921433E+03 -0.65529842123E+03 -0.79207081035E+02  0.74917776436E+03  0.00000000000E+00 0.  1.
         11    1    5    5    0    0  0.26551520177E+03  0.18126243933E+03  0.14965895171E+03  0.35461556101E+03  0.00000000000E+00 0. -1.
        -11    1    5    5    0    0  0.10699398680E+01  0.31152410562E+02  0.12857286422E+02  0.33718352114E+02  0.00000000000E+00 0.  1.
          1    1    6    6  503    0 -0.48443820364E+03  0.37763766511E+03 -0.38355628071E+02  0.61543621397E+03  0.00000000000E+00 0. -1.
         -1    1    6    6    0  503 -0.14915821186E+03  0.10504461832E+03 -0.61034396585E+02  0.19237396282E+03  0.00000000000E+00 0.  1.
<mgrwt>
<rscale>  0 0.19888612E+04</rscale>
<asrwt>0</asrwt>
<pdfrwt beam="1">  1        1 0.15327752E+00 0.19888612E+04</pdfrwt>
<pdfrwt beam="2">  1       -2 0.15270166E+00 0.19888612E+04</pdfrwt>
<totfact> 0.35422202E+00</totfact>
</mgrwt>
</event>
<event>
12    4  0.4320235E-008  0.1345873E+04  0.7818608E-02  0.8993958E-01
         -2   -1    0    0    0  501 -0.00000000000E+00  0.00000000000E+00  0.15922469586E+03  0.15922469586E+03  0.00000000000E+00 0.  1.
          1   -1    0    0  501    0  0.00000000000E+00 -0.00000000000E+00 -0.28440536602E+04  0.28440536602E+04  0.00000000000E+00 0. -1.
        -24    2    1    2    0    0  0.19971100307E+03 -0.24672430136E+03 -0.33514235346E+03  0.46824503492E+03  0.78585304068E+02 0.  0.
        254    2    1    2    0    0 -0.19971100307E+03  0.24672430136E+03 -0.23496866109E+04  0.25350333211E+04  0.89700022533E+03 0.  0.
         23    2    4    4    0    0  0.74927511313E+02  0.50817174153E+03 -0.16925909094E+04  0.17711183504E+04  0.90241750313E+02 0.  0.
         23    2    4    4    0    0 -0.27463851439E+03 -0.26144744017E+03 -0.65709570143E+03  0.76391497073E+03  0.89499967159E+02 0.  0.
          1    1    3    3  502    0  0.47811942050E+02 -0.72625861852E+02 -0.46778971936E+02  0.98735858875E+02  0.00000000000E+00 0. -1.
         -2    1    3    3    0  502  0.15189906102E+03 -0.17409843951E+03 -0.28836338152E+03  0.36950917604E+03  0.00000000000E+00 0.  1.
         11    1    5    5    0    0  0.34174639675E+02  0.39500026775E+03 -0.13917502503E+04  0.14471219288E+04  0.00000000000E+00 0.  1.
        -11    1    5    5    0    0  0.40752871638E+02  0.11317147378E+03 -0.30084065911E+03  0.32399642158E+03  0.00000000000E+00 0. -1.
          3    1    6    6  503    0 -0.16061472747E+03 -0.19828459778E+03 -0.48493764579E+03  0.54797663518E+03  0.00000000000E+00 0. -1.
         -3    1    6    6    0  503 -0.11402378692E+03 -0.63162842382E+02 -0.17215805564E+03  0.21593833555E+03  0.00000000000E+00 0.  1.
<mgrwt>
<rscale>  0 0.13458731E+04</rscale>
<asrwt>0</asrwt>
<pdfrwt beam="1">  1        1 0.43754673E+00 0.13458731E+04</pdfrwt>
<pdfrwt beam="2">  1       -2 0.24496106E-01 0.13458731E+04</pdfrwt>
<totfact> 0.99914030E+00</totfact>
</mgrwt>
</event>
<event>
12    4  0.4320235E-008  0.1237555E+04  0.7818608E-02  0.9080605E-01
         -2   -1    0    0    0  501 -0.00000000000E+00  0.00000000000E+00  0.12197608028E+04  0.12197608028E+04  0.00000000000E+00 0.  1.
          1   -1    0    0  501    0  0.00000000000E+00 -0.00000000000E+00 -0.31390215869E+03  0.31390215869E+03  0.00000000000E+00 0. -1.
        -24    2    1    2    0    0 -0.53285691198E+02  0.22935533284E+03  0.16042019009E+02  0.24845473254E+03  0.77647756936E+02 0.  0.
        254    2    1    2    0    0  0.53285691198E+02 -0.22935533284E+03  0.88981662512E+03  0.12852082290E+04  0.89696339495E+03 0.  0.
         23    2    4    4    0    0 -0.22420052799E+03  0.12671159030E+03  0.75880749432E+03  0.80707638134E+03  0.96238079870E+02 0.  0.
         23    2    4    4    0    0  0.27748621919E+03 -0.35606692314E+03  0.13100913080E+03  0.47813184762E+03  0.87546649082E+02 0.  0.
          3    1    3    3  502    0 -0.30297446343E+02  0.16090089772E+03  0.46317002973E+02  0.17015375078E+03  0.00000000000E+00 0. -1.
         -2    1    3    3    0  502 -0.22988244854E+02  0.68454435125E+02 -0.30274983964E+02  0.78300981755E+02  0.00000000000E+00 0.  1.
         11    1    5    5    0    0 -0.27510421577E+02  0.60831861654E+02  0.16052338079E+03  0.17385365820E+03  0.00000000000E+00 0. -1.
        -11    1    5    5    0    0 -0.19669010641E+03  0.65879728644E+02  0.59828411353E+03  0.63322272315E+03  0.00000000000E+00 0.  1.
          1    1    6    6  503    0  0.15241482348E+03 -0.26169471220E+03  0.78012395483E+02  0.31273045049E+03  0.00000000000E+00 0. -1.
         -1    1    6    6    0  503  0.12507139570E+03 -0.94372210938E+02  0.52996735316E+02  0.16540139714E+03  0.00000000000E+00 0.  1.
<mgrwt>
<rscale>  0 0.12375549E+04</rscale>
<asrwt>0</asrwt>
<pdfrwt beam="1">  1        1 0.48292641E-01 0.12375549E+04</pdfrwt>
<pdfrwt beam="2">  1       -2 0.18765551E+00 0.12375549E+04</pdfrwt>
<totfact> 0.11432967E+01</totfact>
</mgrwt>
</event>
<event>
12    4  0.4320235E-008  0.2068766E+04  0.7818608E-02  0.8575128E-01
         -2   -1    0    0    0  501 -0.00000000000E+00  0.00000000000E+00  0.44016404881E+03  0.44016404881E+03  0.00000000000E+00 0.  1.
          1   -1    0    0  501    0  0.00000000000E+00 -0.00000000000E+00 -0.24307951786E+04  0.24307951786E+04  0.00000000000E+00 0. -1.
        -24    2    1    2    0    0  0.20111559602E+03 -0.77031973131E+03 -0.11483767015E+04  0.13998146346E+04  0.82897474129E+02 0.  0.
        254    2    1    2    0    0 -0.20111559602E+03  0.77031973131E+03 -0.84225442834E+03  0.14711445929E+04  0.90610922063E+03 0.  0.
         23    2    4    4    0    0 -0.32699912226E+03 -0.35706301488E+02 -0.44046207847E+03  0.55713248531E+03  0.90478714024E+02 0.  0.
         23    2    4    4    0    0  0.12588352625E+03  0.80602603279E+03 -0.40179234987E+03  0.91401210757E+03  0.91958755170E+02 0.  0.
          3    1    3    3  502    0  0.61085182449E+02 -0.32833977155E+03 -0.53962790387E+03  0.63461537937E+03  0.00000000000E+00 0. -1.
         -4    1    3    3    0  502  0.14003041357E+03 -0.44197995976E+03 -0.60874879763E+03  0.76519925521E+03  0.00000000000E+00 0.  1.
         11    1    5    5    0    0 -0.14163728931E+03 -0.55159735763E+02 -0.23353008382E+03  0.27863958480E+03  0.00000000000E+00 0.  1.
        -11    1    5    5    0    0 -0.18536183296E+03  0.19453434275E+02 -0.20693199465E+03  0.27849290050E+03  0.00000000000E+00 0. -1.
          2    1    6    6  503    0 -0.34063147900E+01  0.97014721250E+01  0.39010574869E+01  0.10997262903E+02  0.00000000000E+00 0. -1.
         -2    1    6    6    0  503  0.12928984104E+03  0.79632456067E+03 -0.40569340736E+03  0.90301484467E+03  0.00000000000E+00 0.  1.
<mgrwt>
<rscale>  0 0.20687664E+04</rscale>
<asrwt>0</asrwt>
<pdfrwt beam="1">  1        1 0.37396849E+00 0.20687664E+04</pdfrwt>
<pdfrwt beam="2">  1       -2 0.67717545E-01 0.20687664E+04</pdfrwt>
<totfact> 0.24495420E+00</totfact>
</mgrwt>
</event>
<event>
12    4  0.4320235E-008  0.2790289E+04  0.7818608E-02  0.8306290E-01
          1   -1    0    0  501    0  0.00000000000E+00  0.00000000000E+00  0.97318825297E+03  0.97318825297E+03  0.00000000000E+00 0. -1.
         -2   -1    0    0    0  501 -0.00000000000E+00 -0.00000000000E+00 -0.20000532716E+04  0.20000532716E+04  0.00000000000E+00 0.  1.
        -24    2    1    2    0    0  0.11875339433E+04 -0.39176508619E+02 -0.77767109406E+03  0.14222448310E+04  0.78970649861E+02 0.  0.
        254    2    1    2    0    0 -0.11875339433E+04  0.39176508619E+02 -0.24919392456E+03  0.15509966935E+04  0.96525720204E+03 0.  0.
         23    2    4    4    0    0 -0.50187595160E+03 -0.12458667775E+03 -0.56690614043E+03  0.77252119626E+03  0.89471311328E+02 0.  0.
         23    2    4    4    0    0 -0.68565799167E+03  0.16376318637E+03  0.31771221587E+03  0.77847549728E+03  0.90209672482E+02 0.  0.
          1    1    3    3  502    0  0.93933659933E+03 -0.29527018667E+02 -0.57575326327E+03  0.11021419654E+04  0.00000000000E+00 0. -1.
         -2    1    3    3    0  502  0.24819734394E+03 -0.96494899523E+01 -0.20191783078E+03  0.32010286563E+03  0.00000000000E+00 0.  1.
         11    1    5    5    0    0 -0.17041452687E+03 -0.15680594164E+02 -0.13945848322E+03  0.22076154679E+03  0.00000000000E+00 0.  1.
        -11    1    5    5    0    0 -0.33146142474E+03 -0.10890608358E+03 -0.42744765721E+03  0.55175964947E+03  0.00000000000E+00 0. -1.
          3    1    6    6  503    0 -0.63978835488E+03  0.17269222509E+03  0.28465878040E+03  0.72123669132E+03  0.00000000000E+00 0. -1.
         -3    1    6    6    0  503 -0.45869636794E+02 -0.89290387276E+01  0.33053435470E+02  0.57238805968E+02  0.00000000000E+00 0.  1.
<mgrwt>
<rscale>  0 0.27902891E+04</rscale>
<asrwt>0</asrwt>
<pdfrwt beam="1">  1        1 0.14972127E+00 0.27902891E+04</pdfrwt>
<pdfrwt beam="2">  1       -2 0.30770051E+00 0.27902891E+04</pdfrwt>
<totfact> 0.34421588E-01</totfact>
</mgrwt>
</event>
<event>
12    4  0.4320235E-008  0.2126966E+04  0.7818608E-02  0.8549457E-01
          1   -1    0    0  501    0  0.00000000000E+00  0.00000000000E+00  0.22596409086E+04  0.22596409086E+04  0.00000000000E+00 0. -1.
         -2   -1    0    0    0  501 -0.00000000000E+00 -0.00000000000E+00 -0.50052006042E+03  0.50052006042E+03  0.00000000000E+00 0.  1.
        -24    2    1    2    0    0 -0.69487839454E+03 -0.45818721102E+03  0.10431059878E+04  0.13369550070E+04  0.81160861291E+02 0.  0.
        254    2    1    2    0    0  0.69487839454E+03  0.45818721102E+03  0.71601486045E+03  0.14232059621E+04  0.90556414823E+03 0.  0.
         23    2    4    4    0    0 -0.79665000521E+02 -0.18374163050E+03  0.12885734898E+03  0.25485429659E+03  0.90768920982E+02 0.  0.
         23    2    4    4    0    0  0.77454339506E+03  0.64192884152E+03  0.58715751147E+03  0.11683516655E+04  0.91112911021E+02 0.  0.
          1    1    3    3  502    0 -0.34533726902E+03 -0.25641784034E+03  0.59035629867E+03  0.73043035095E+03  0.00000000000E+00 0. -1.
         -2    1    3    3    0  502 -0.34954112552E+03 -0.20176937068E+03  0.45274968908E+03  0.60652465601E+03  0.00000000000E+00 0.  1.
         11    1    5    5    0    0 -0.38255238093E+02 -0.16781175409E+02  0.33343277405E+01  0.41906906724E+02  0.00000000000E+00 0. -1.
        -11    1    5    5    0    0 -0.41409762428E+02 -0.16696045510E+03  0.12552302124E+03  0.21294738987E+03  0.00000000000E+00 0.  1.
          4    1    6    6  503    0  0.27522036665E+03  0.18951333289E+03  0.15928634720E+03  0.37018062344E+03  0.00000000000E+00 0. -1.
         -4    1    6    6    0  503  0.49932302841E+03  0.45241550863E+03  0.42787116428E+03  0.79817104205E+03  0.00000000000E+00 0.  1.
<mgrwt>
<rscale>  0 0.21269655E+04</rscale>
<asrwt>0</asrwt>
<pdfrwt beam="1">  1        1 0.34763706E+00 0.21269655E+04</pdfrwt>
<pdfrwt beam="2">  1       -2 0.77003087E-01 0.21269655E+04</pdfrwt>
<totfact> 0.24075140E+00</totfact>
</mgrwt>
</event>
<event>
12    4  0.4320235E-008  0.1906020E+04  0.7818608E-02  0.8651866E-01
         -2   -1    0    0    0  501 -0.00000000000E+00  0.00000000000E+00  0.21726942913E+04  0.21726942913E+04  0.00000000000E+00 0.  1.
          1   -1    0    0  501    0  0.00000000000E+00 -0.00000000000E+00 -0.41801932633E+03  0.41801932633E+03  0.00000000000E+00 0. -1.
        -24    2    1    2    0    0  0.57054678667E+03 -0.45274321787E+03  0.55215700290E+03  0.91724634164E+03  0.77223301429E+02 0.  0.
        254    2    1    2    0    0 -0.57054678667E+03  0.45274321787E+03  0.12025179621E+04  0.16734672760E+04  0.90771318027E+03 0.  0.
         23    2    4    4    0    0 -0.34437625346E+03  0.45037449734E+03  0.12922775526E+04  0.14137581817E+04  0.85432615674E+02 0.  0.
         23    2    4    4    0    0 -0.22617053321E+03  0.23687205349E+01 -0.89759590463E+02  0.25970909427E+03  0.90737581176E+02 0.  0.
          3    1    3    3  502    0  0.18010771777E+03 -0.10059524972E+03  0.16854704190E+03  0.26639500671E+03  0.00000000000E+00 0. -1.
         -4    1    3    3    0  502  0.39043906891E+03 -0.35214796815E+03  0.38360996100E+03  0.65085133493E+03  0.00000000000E+00 0.  1.
         11    1    5    5    0    0 -0.33861139538E+03  0.44788637171E+03  0.12903047220E+04  0.14071766608E+04  0.00000000000E+00 0. -1.
        -11    1    5    5    0    0 -0.57648580880E+01  0.24881256285E+01  0.19728305697E+01  0.65815209773E+01  0.00000000000E+00 0.  1.
          3    1    6    6  503    0 -0.11775355753E+03  0.45848630316E+02 -0.38086256411E+02  0.13197939286E+03  0.00000000000E+00 0. -1.
         -3    1    6    6    0  503 -0.10841697568E+03 -0.43479909781E+02 -0.51673334052E+02  0.12772970141E+03  0.00000000000E+00 0.  1.
<mgrwt>
<rscale>  0 0.19060202E+04</rscale>
<asrwt>0</asrwt>
<pdfrwt beam="1">  1        1 0.64310667E-01 0.19060202E+04</pdfrwt>
<pdfrwt beam="2">  1       -2 0.33426065E+00 0.19060202E+04</pdfrwt>
<totfact> 0.90588054E-01</totfact>
</mgrwt>
</event>
<event>
12    4  0.4320235E-008  0.2062736E+04  0.7818608E-02  0.8577838E-01
         -4   -1    0    0    0  501 -0.00000000000E+00  0.00000000000E+00  0.11650735924E+04  0.11650735924E+04  0.00000000000E+00 0.  1.
          1   -1    0    0  501    0  0.00000000000E+00 -0.00000000000E+00 -0.91300664561E+03  0.91300664561E+03  0.00000000000E+00 0. -1.
        -24    2    1    2    0    0 -0.60407385019E+03  0.35832700497E+03 -0.35020280528E+03  0.78896679935E+03  0.80765999515E+02 0.  0.
        254    2    1    2    0    0  0.60407385019E+03 -0.35832700497E+03  0.60226975210E+03  0.12891134387E+04  0.89765313152E+03 0.  0.
         23    2    4    4    0    0  0.63467470160E+03 -0.59523576701E+03  0.53211830718E+03  0.10242092839E+04  0.93472825522E+02 0.  0.
         23    2    4    4    0    0 -0.30600851409E+02  0.23690876204E+03  0.70151444919E+02  0.26490415484E+03  0.90503107064E+02 0.  0.
          3    1    3    3  502    0 -0.59400544347E+03  0.36226137573E+03 -0.34128062406E+03  0.77495047298E+03  0.00000000000E+00 0. -1.
         -4    1    3    3    0  502 -0.10068406723E+02 -0.39343707581E+01 -0.89221812223E+01  0.14016326372E+02  0.00000000000E+00 0.  1.
         11    1    5    5    0    0  0.47474541670E+03 -0.41437288163E+03  0.34246610695E+03  0.71719671647E+03  0.00000000000E+00 0.  1.
        -11    1    5    5    0    0  0.15992928490E+03 -0.18086288538E+03  0.18965220023E+03  0.30701256738E+03  0.00000000000E+00 0. -1.
          4    1    6    6  503    0  0.23910688432E+02  0.25914018535E+02 -0.20839864194E+01  0.35321386968E+02  0.00000000000E+00 0. -1.
         -4    1    6    6    0  503 -0.54511539841E+02  0.21099474350E+03  0.72235431338E+02  0.22958276787E+03  0.00000000000E+00 0.  1.
<mgrwt>
<rscale>  0 0.20627360E+04</rscale>
<asrwt>0</asrwt>
<pdfrwt beam="1">  1        1 0.14046256E+00 0.20627360E+04</pdfrwt>
<pdfrwt beam="2">  1       -4 0.17924209E+00 0.20627360E+04</pdfrwt>
<totfact> 0.14397926E+00</totfact>
</mgrwt>
</event>
<event>
12    4  0.4320235E-008  0.1289805E+04  0.7818608E-02  0.9037689E-01
          1   -1    0    0  501    0  0.00000000000E+00  0.00000000000E+00  0.10316177357E+04  0.10316177357E+04  0.00000000000E+00 0. -1.
         -2   -1    0    0    0  501 -0.00000000000E+00 -0.00000000000E+00 -0.40315263213E+03  0.40315263213E+03  0.00000000000E+00 0.  1.
        -24    2    1    2    0    0  0.81822680640E+02  0.50700536635E+02 -0.18201668512E+03  0.22069316206E+03  0.79434895595E+02 0.  0.
        254    2    1    2    0    0 -0.81822680640E+02 -0.50700536635E+02  0.81048178871E+03  0.12140772058E+04  0.89879766148E+03 0.  0.
         23    2    4    4    0    0 -0.26144164301E+03  0.18127449327E+03  0.84263311602E+03  0.90521225207E+03  0.90368570197E+02 0.  0.
         23    2    4    4    0    0  0.17961896237E+03 -0.23197502990E+03 -0.32151327316E+02  0.30886495371E+03  0.91041010759E+02 0.  0.
          3    1    3    3  502    0  0.13080564926E+02  0.10082328673E+02  0.50736578733E+01  0.17277052250E+02  0.00000000000E+00 0. -1.
         -2    1    3    3    0  502  0.68742115714E+02  0.40618207962E+02 -0.18709034299E+03  0.20341610981E+03  0.00000000000E+00 0.  1.
         11    1    5    5    0    0 -0.23023665700E+03  0.18974378466E+03  0.75584813713E+03  0.81259954986E+03  0.00000000000E+00 0.  1.
        -11    1    5    5    0    0 -0.31204986005E+02 -0.84692913931E+01  0.86784978898E+02  0.92612702210E+02  0.00000000000E+00 0. -1.
          4    1    6    6  503    0  0.10721051538E+03 -0.65567163050E+02 -0.10786131699E+02  0.12613281934E+03  0.00000000000E+00 0. -1.
         -4    1    6    6    0  503  0.72408446988E+02 -0.16640786685E+03 -0.21365195618E+02  0.18273213436E+03  0.00000000000E+00 0.  1.
<mgrwt>
<rscale>  0 0.12898053E+04</rscale>
<asrwt>0</asrwt>
<pdfrwt beam="1">  1        1 0.15871042E+00 0.12898053E+04</pdfrwt>
<pdfrwt beam="2">  1       -2 0.62023482E-01 0.12898053E+04</pdfrwt>
<totfact> 0.29752476E+01</totfact>
</mgrwt>
</event>
<event>
12    4  0.4320235E-008  0.1424015E+04  0.7818608E-02  0.8936617E-01
         -2   -1    0    0    0  501 -0.00000000000E+00  0.00000000000E+00  0.39935248393E+03  0.39935248393E+03  0.00000000000E+00 0.  1.
          1   -1    0    0  501    0  0.00000000000E+00 -0.00000000000E+00 -0.12694409032E+04  0.12694409032E+04  0.00000000000E+00 0. -1.
        -24    2    1    2    0    0  0.18948925967E+03 -0.20602925874E+03  0.10924479934E+03  0.30839039734E+03  0.69397233380E+02 0.  0.
        254    2    1    2    0    0 -0.18948925967E+03  0.20602925874E+03 -0.97933321859E+03  0.13604029898E+04  0.90180292002E+03 0.  0.
         23    2    4    4    0    0 -0.11751128440E+03 -0.31906129328E+03 -0.17474469826E+03  0.39268547224E+03  0.89761682842E+02 0.  0.
         23    2    4    4    0    0 -0.71977975272E+02  0.52509055202E+03 -0.80458852033E+03  0.96771751753E+03  0.90628858272E+02 0.  0.
          1    1    3    3  502    0  0.20761160395E+01 -0.23732916799E+01 -0.74033438637E+01  0.80468796170E+01  0.00000000000E+00 0. -1.
         -2    1    3    3    0  502  0.18741314363E+03 -0.20365596706E+03  0.11664814321E+03  0.30034351772E+03  0.00000000000E+00 0.  1.
         11    1    5    5    0    0 -0.31111290233E+02 -0.20809893126E+03 -0.93280119217E+02  0.23016137429E+03  0.00000000000E+00 0. -1.
        -11    1    5    5    0    0 -0.86399994163E+02 -0.11096236202E+03 -0.81464579046E+02  0.16252409795E+03  0.00000000000E+00 0.  1.
          3    1    6    6  503    0 -0.81109022202E+02  0.29355638241E+03 -0.49151650635E+03  0.57822357194E+03  0.00000000000E+00 0. -1.
         -3    1    6    6    0  503  0.91310469299E+01  0.23153416961E+03 -0.31307201398E+03  0.38949394559E+03  0.00000000000E+00 0.  1.
<mgrwt>
<rscale>  0 0.14240146E+04</rscale>
<asrwt>0</asrwt>
<pdfrwt beam="1">  1        1 0.19529860E+00 0.14240146E+04</pdfrwt>
<pdfrwt beam="2">  1       -2 0.61438844E-01 0.14240146E+04</pdfrwt>
<totfact> 0.20003661E+01</totfact>
</mgrwt>
</event>
<event>
12    4  0.4320235E-008  0.1290256E+04  0.7818608E-02  0.9037328E-01
         -2   -1    0    0    0  501 -0.00000000000E+00  0.00000000000E+00  0.25074875836E+04  0.25074875836E+04  0.00000000000E+00 0.  1.
          1   -1    0    0  501    0  0.00000000000E+00 -0.00000000000E+00 -0.16597891649E+03  0.16597891649E+03  0.00000000000E+00 0. -1.
        -24    2    1    2    0    0 -0.30844713924E+03 -0.62840784855E+02  0.78466296945E+03  0.84921027215E+03  0.79834258044E+02 0.  0.
        254    2    1    2    0    0  0.30844713924E+03  0.62840784855E+02  0.15568456976E+04  0.18242562279E+04  0.89724782354E+03 0.  0.
         23    2    4    4    0    0  0.42022613262E+03 -0.20143933583E+03  0.14135575813E+04  0.14908699266E+04  0.85908636519E+02 0.  0.
         23    2    4    4    0    0 -0.11177899338E+03  0.26428012068E+03  0.14328811634E+03  0.33338630131E+03  0.90974810071E+02 0.  0.
          3    1    3    3  502    0 -0.54343835958E+02 -0.60963705797E+00  0.22424502838E+03  0.23073676975E+03  0.00000000000E+00 0. -1.
         -4    1    3    3    0  502 -0.25410330328E+03 -0.62231147797E+02  0.56041794107E+03  0.61847350240E+03  0.00000000000E+00 0.  1.
         11    1    5    5    0    0  0.19706276578E+03 -0.72368946324E+02  0.75524309853E+03  0.78387699030E+03  0.00000000000E+00 0. -1.
        -11    1    5    5    0    0  0.22316336684E+03 -0.12907038951E+03  0.65831448276E+03  0.70699293628E+03  0.00000000000E+00 0.  1.
          1    1    6    6  503    0 -0.53263244164E+01 -0.54756211883E+01  0.13835737301E+02  0.15804422984E+02  0.00000000000E+00 0. -1.
         -1    1    6    6    0  503 -0.10645266896E+03  0.26975574187E+03  0.12945237904E+03  0.31758187833E+03  0.00000000000E+00 0.  1.
<mgrwt>
<rscale>  0 0.12902559E+04</rscale>
<asrwt>0</asrwt>
<pdfrwt beam="1">  1        1 0.25535220E-01 0.12902559E+04</pdfrwt>
<pdfrwt beam="2">  1       -2 0.38576729E+00 0.12902559E+04</pdfrwt>
<totfact> 0.15172887E+00</totfact>
</mgrwt>
</event>
<event>
12    4  0.4320235E-008  0.1938135E+04  0.7818608E-02  0.8636104E-01
          1   -1    0    0  501    0  0.00000000000E+00  0.00000000000E+00  0.12043218770E+04  0.12043218770E+04  0.00000000000E+00 0. -1.
         -2   -1    0    0    0  501 -0.00000000000E+00 -0.00000000000E+00 -0.77976809468E+03  0.77976809468E+03  0.00000000000E+00 0.  1.
        -24    2    1    2    0    0 -0.21983285170E+03  0.12021319197E+03  0.89260060319E+03  0.93110563090E+03  0.86279573933E+02 0.  0.
        254    2    1    2    0    0  0.21983285170E+03 -0.12021319197E+03 -0.46804682091E+03  0.10529843407E+04  0.90935719115E+03 0.  0.
         23    2    4    4    0    0 -0.34238153161E+03 -0.34858639988E+02 -0.25837430328E+03  0.44005138450E+03  0.91911383598E+02 0.  0.
         23    2    4    4    0    0  0.56221438331E+03 -0.85354551977E+02 -0.20967251763E+03  0.61293295625E+03  0.91399299054E+02 0.  0.
          3    1    3    3  502    0 -0.22198261655E+03  0.11778660585E+03  0.80203601064E+03  0.84048303310E+03  0.00000000000E+00 0. -1.
         -4    1    3    3    0  502  0.21497648450E+01  0.24265861127E+01  0.90564592545E+02  0.90622597799E+02  0.00000000000E+00 0.  1.
         11    1    5    5    0    0 -0.27885859642E+03 -0.21675582893E+02 -0.16005645852E+03  0.32225768820E+03  0.00000000000E+00 0. -1.
        -11    1    5    5    0    0 -0.63522935191E+02 -0.13183057096E+02 -0.98317844758E+02  0.11779369630E+03  0.00000000000E+00 0.  1.
          4    1    6    6  503    0  0.29966721435E+03 -0.66367038747E+02 -0.69474479566E+02  0.31469306713E+03  0.00000000000E+00 0. -1.
         -4    1    6    6    0  503  0.26254716896E+03 -0.18987513230E+02 -0.14019803806E+03  0.29823988912E+03  0.00000000000E+00 0.  1.
<mgrwt>
<rscale>  0 0.19381350E+04</rscale>
<asrwt>0</asrwt>
<pdfrwt beam="1">  1        1 0.18528029E+00 0.19381350E+04</pdfrwt>
<pdfrwt beam="2">  1       -2 0.11996432E+00 0.19381350E+04</pdfrwt>
<totfact> 0.46114557E+00</totfact>
</mgrwt>
</event>
<event>
12    4  0.4320235E-008  0.2783327E+04  0.7818608E-02  0.8308464E-01
          1   -1    0    0  501    0  0.00000000000E+00  0.00000000000E+00  0.17706266531E+04  0.17706266531E+04  0.00000000000E+00 0. -1.
         -2   -1    0    0    0  501 -0.00000000000E+00 -0.00000000000E+00 -0.10938086543E+04  0.10938086543E+04  0.00000000000E+00 0.  1.
        -24    2    1    2    0    0 -0.64768026826E+03 -0.42674570359E+03 -0.69576259580E+03  0.10447688344E+04  0.76516025283E+02 0.  0.
        254    2    1    2    0    0  0.64768026826E+03  0.42674570359E+03  0.13725805946E+04  0.18196664731E+04  0.90862916477E+03 0.  0.
         23    2    4    4    0    0 -0.38228786460E+02 -0.57888537476E+02 -0.79671200726E+02  0.13950593737E+03  0.91114671988E+02 0.  0.
         23    2    4    4    0    0  0.68590905472E+03  0.48463424107E+03  0.14522517953E+04  0.16801605357E+04  0.92534154118E+02 0.  0.
          1    1    3    3  502    0 -0.19662684365E+03 -0.12410685325E+03 -0.16324174713E+03  0.28409944505E+03  0.00000000000E+00 0. -1.
         -2    1    3    3    0  502 -0.45105342460E+03 -0.30263885034E+03 -0.53252084867E+03  0.76066938932E+03  0.00000000000E+00 0.  1.
         11    1    5    5    0    0  0.14416069194E+02 -0.40055996414E+02 -0.71655884820E+02  0.83347895769E+02  0.00000000000E+00 0. -1.
        -11    1    5    5    0    0 -0.52644855654E+02 -0.17832541062E+02 -0.80153159063E+01  0.56158041603E+02  0.00000000000E+00 0.  1.
          1    1    6    6  503    0  0.40920436156E+03  0.32677756551E+03  0.83683862885E+03  0.98718320365E+03  0.00000000000E+00 0. -1.
         -1    1    6    6    0  503  0.27670469316E+03  0.15785667556E+03  0.61541316650E+03  0.69297733205E+03  0.00000000000E+00 0.  1.
<mgrwt>
<rscale>  0 0.27833266E+04</rscale>
<asrwt>0</asrwt>
<pdfrwt beam="1">  1        1 0.27240410E+00 0.27833266E+04</pdfrwt>
<pdfrwt beam="2">  1       -2 0.16827825E+00 0.27833266E+04</pdfrwt>
<totfact> 0.71254236E-01</totfact>
</mgrwt>
</event>
<event>
12    4  0.4320235E-008  0.1726562E+04  0.7818608E-02  0.8746358E-01
          1   -1    0    0  501    0  0.00000000000E+00  0.00000000000E+00  0.96158025636E+03  0.96158025636E+03  0.00000000000E+00 0. -1.
         -2   -1    0    0    0  501 -0.00000000000E+00 -0.00000000000E+00 -0.77503053145E+03  0.77503053145E+03  0.00000000000E+00 0.  1.
        -24    2    1    2    0    0  0.45643126892E+03  0.30508291272E+03  0.36330136269E+03  0.66328938695E+03  0.80992862832E+02 0.  0.
        254    2    1    2    0    0 -0.45643126892E+03 -0.30508291272E+03 -0.17675163778E+03  0.10733214009E+04  0.90519202449E+03 0.  0.
         23    2    4    4    0    0 -0.57055662367E+03 -0.49889182260E+03 -0.27743391632E+03  0.81111022851E+03  0.80636923304E+02 0.  0.
         23    2    4    4    0    0  0.11412535475E+03  0.19380890988E+03  0.10068227854E+03  0.26221117235E+03  0.89617451144E+02 0.  0.
          1    1    3    3  502    0  0.44786264272E+03  0.30752546375E+03  0.34679137128E+03  0.64452859734E+03  0.00000000000E+00 0. -1.
         -2    1    3    3    0  502  0.85686262052E+01 -0.24425510255E+01  0.16509991415E+02  0.18760789618E+02  0.00000000000E+00 0.  1.
         11    1    5    5    0    0 -0.44412579423E+03 -0.42839593261E+03 -0.23448601395E+03  0.66011702517E+03  0.00000000000E+00 0.  1.
        -11    1    5    5    0    0 -0.12643082943E+03 -0.70495889990E+02 -0.42947902366E+02  0.15099320334E+03  0.00000000000E+00 0. -1.
          4    1    6    6  503    0  0.39275425082E+02  0.62198457672E+01  0.11247955834E+02  0.41325077219E+02  0.00000000000E+00 0. -1.
         -4    1    6    6    0  503  0.74849929665E+02  0.18758906411E+03  0.89434322709E+02  0.22088609513E+03  0.00000000000E+00 0.  1.
<mgrwt>
<rscale>  0 0.17265620E+04</rscale>
<asrwt>0</asrwt>
<pdfrwt beam="1">  1        1 0.14793542E+00 0.17265620E+04</pdfrwt>
<pdfrwt beam="2">  1       -2 0.11923547E+00 0.17265620E+04</pdfrwt>
<totfact> 0.72849541E+00</totfact>
</mgrwt>
</event>
<event>
12    4  0.4320235E-008  0.1931678E+04  0.7818608E-02  0.8639247E-01
         -2   -1    0    0    0  501 -0.00000000000E+00  0.00000000000E+00  0.97251960730E+03  0.97251960730E+03  0.00000000000E+00 0.  1.
          1   -1    0    0  501    0  0.00000000000E+00 -0.00000000000E+00 -0.95920458060E+03  0.95920458060E+03  0.00000000000E+00 0. -1.
        -24    2    1    2    0    0  0.11149991908E+03 -0.46957087880E+03  0.56962465667E+03  0.75094616561E+03  0.80739407882E+02 0.  0.
        254    2    1    2    0    0 -0.11149991908E+03  0.46957087880E+03 -0.55630962996E+03  0.11807780223E+04  0.92294490158E+03 0.  0.
         23    2    4    4    0    0 -0.39097566510E+03  0.15081547268E+03  0.54055425650E+02  0.43210520480E+03  0.90474534949E+02 0.  0.
         23    2    4    4    0    0  0.27947574602E+03  0.31875540612E+03 -0.61036505561E+03  0.74867281749E+03  0.90850343862E+02 0.  0.
          3    1    3    3  502    0  0.74393308861E+02 -0.27463480342E+03  0.27484784506E+03  0.39560078056E+03  0.00000000000E+00 0. -1.
         -4    1    3    3    0  502  0.37106610218E+02 -0.19493607538E+03  0.29477681161E+03  0.35534538505E+03  0.00000000000E+00 0.  1.
         11    1    5    5    0    0 -0.14098359612E+03  0.10145090390E+03  0.15433628598E+02  0.17437562091E+03  0.00000000000E+00 0. -1.
        -11    1    5    5    0    0 -0.24999206899E+03  0.49364568781E+02  0.38621797053E+02  0.25772958390E+03  0.00000000000E+00 0.  1.
          3    1    6    6  503    0  0.97459529041E+02  0.60075143788E+02 -0.12668566131E+03  0.17075315365E+03  0.00000000000E+00 0. -1.
         -3    1    6    6    0  503  0.18201621698E+03  0.25868026233E+03 -0.48367939431E+03  0.57791966383E+03  0.00000000000E+00 0.  1.
<mgrwt>
<rscale>  0 0.19316783E+04</rscale>
<asrwt>0</asrwt>
<pdfrwt beam="1">  1        1 0.14756993E+00 0.19316783E+04</pdfrwt>
<pdfrwt beam="2">  1       -2 0.14961840E+00 0.19316783E+04</pdfrwt>
<totfact> 0.40199846E+00</totfact>
</mgrwt>
</event>
<event>
12    4  0.4320235E-008  0.1448472E+04  0.7818608E-02  0.8919460E-01
         -2   -1    0    0    0  501 -0.00000000000E+00  0.00000000000E+00  0.16478597763E+03  0.16478597763E+03  0.00000000000E+00 0.  1.
          1   -1    0    0  501    0  0.00000000000E+00 -0.00000000000E+00 -0.31830245578E+04  0.31830245578E+04  0.00000000000E+00 0. -1.
        -24    2    1    2    0    0 -0.49172755191E+02  0.29081924219E+03 -0.14319671311E+04  0.14651157169E+04  0.95081058689E+02 0.  0.
        254    2    1    2    0    0  0.49172755191E+02 -0.29081924219E+03 -0.15862714491E+04  0.18826948186E+04  0.97020043202E+03 0.  0.
         23    2    4    4    0    0 -0.40308198379E+03 -0.28639943649E+03 -0.52382377584E+03  0.72525085761E+03  0.84248059034E+02 0.  0.
         23    2    4    4    0    0  0.45225473898E+03 -0.44198057039E+01 -0.10624476732E+04  0.11574439610E+04  0.79546092431E+02 0.  0.
          3    1    3    3  502    0 -0.78062466544E+02  0.21103784994E+03 -0.10489006518E+04  0.10727643265E+04  0.00000000000E+00 0. -1.
         -4    1    3    3    0  502  0.28889711353E+02  0.79781392254E+02 -0.38306647933E+03  0.39235139041E+03  0.00000000000E+00 0.  1.
         11    1    5    5    0    0 -0.12777464834E+03 -0.60540956083E+02 -0.19255953851E+03  0.23889483877E+03  0.00000000000E+00 0. -1.
        -11    1    5    5    0    0 -0.27530733545E+03 -0.22585848041E+03 -0.33126423733E+03  0.48635601884E+03  0.00000000000E+00 0.  1.
          4    1    6    6  503    0  0.14856485337E+03  0.16028627119E+02 -0.27068481462E+03  0.30919039670E+03  0.00000000000E+00 0. -1.
         -4    1    6    6    0  503  0.30368988562E+03 -0.20448432823E+02 -0.79176285861E+03  0.84825356427E+03  0.00000000000E+00 0.  1.
<mgrwt>
<rscale>  0 0.14484720E+04</rscale>
<asrwt>0</asrwt>
<pdfrwt beam="1">  1        1 0.48969602E+00 0.14484720E+04</pdfrwt>
<pdfrwt beam="2">  1       -2 0.25351692E-01 0.14484720E+04</pdfrwt>
<totfact> 0.52692662E+00</totfact>
</mgrwt>
</event>
<event>
12    4  0.4320235E-008  0.1128065E+04  0.7818608E-02  0.9178261E-01
         -2   -1    0    0    0  501 -0.00000000000E+00  0.00000000000E+00  0.35025844703E+03  0.35025844703E+03  0.00000000000E+00 0.  1.
          1   -1    0    0  501    0  0.00000000000E+00 -0.00000000000E+00 -0.90828006487E+03  0.90828006487E+03  0.00000000000E+00 0. -1.
        -24    2    1    2    0    0  0.15515994565E+03  0.39005328081E+02 -0.69293865908E+02  0.19164948673E+03  0.79572995161E+02 0.  0.
        254    2    1    2    0    0 -0.15515994565E+03 -0.39005328081E+02 -0.48872775194E+03  0.10668890252E+04  0.93477342290E+03 0.  0.
         23    2    4    4    0    0 -0.29795711867E+03 -0.22193246825E+02 -0.71750692954E+03  0.78249351464E+03  0.90603100113E+02 0.  0.
         23    2    4    4    0    0  0.14279717302E+03 -0.16812081256E+02  0.22877917760E+03  0.28439551053E+03  0.88697325819E+02 0.  0.
          3    1    3    3  502    0 -0.60427014064E+01 -0.75264447072E+01  0.10643779189E+01  0.97105360600E+01  0.00000000000E+00 0. -1.
         -4    1    3    3    0  502  0.16120264706E+03  0.46531772788E+02 -0.70358243827E+02  0.18193895067E+03  0.00000000000E+00 0.  1.
         11    1    5    5    0    0 -0.11656714390E+03  0.35139240843E+01 -0.17864909651E+03  0.21334419698E+03  0.00000000000E+00 0. -1.
        -11    1    5    5    0    0 -0.18138997477E+03 -0.25707170909E+02 -0.53885783303E+03  0.56914931766E+03  0.00000000000E+00 0.  1.
          3    1    6    6  503    0 -0.94651215596E+01  0.92862498870E+01  0.28722815327E+02  0.31635788016E+02  0.00000000000E+00 0. -1.
         -3    1    6    6    0  503  0.15226229458E+03 -0.26098331143E+02  0.20005636227E+03  0.25275972251E+03  0.00000000000E+00 0.  1.
<mgrwt>
<rscale>  0 0.11280652E+04</rscale>
<asrwt>0</asrwt>
<pdfrwt beam="1">  1        1 0.13973540E+00 0.11280652E+04</pdfrwt>
<pdfrwt beam="2">  1       -2 0.53885914E-01 0.11280652E+04</pdfrwt>
<totfact> 0.50662893E+01</totfact>
</mgrwt>
</event>
<event>
12    4  0.4320235E-008  0.1543811E+04  0.7818608E-02  0.8855831E-01
         -4   -1    0    0    0  501 -0.00000000000E+00  0.00000000000E+00  0.32082676229E+03  0.32082676229E+03  0.00000000000E+00 0.  1.
          1   -1    0    0  501    0  0.00000000000E+00 -0.00000000000E+00 -0.18571958465E+04  0.18571958465E+04  0.00000000000E+00 0. -1.
        -24    2    1    2    0    0  0.30522047957E+03  0.18427153404E+03 -0.10257973784E+04  0.10888372012E+04  0.78680681179E+02 0.  0.
        254    2    1    2    0    0 -0.30522047957E+03 -0.18427153404E+03 -0.51057170579E+03  0.10891854077E+04  0.89360273394E+03 0.  0.
         23    2    4    4    0    0 -0.31155312627E+03 -0.51820880849E+03 -0.27116697064E+03  0.66900142397E+03  0.91791391871E+02 0.  0.
         23    2    4    4    0    0  0.63326467023E+01  0.33393727444E+03 -0.23940473514E+03  0.42018398369E+03  0.87668393754E+02 0.  0.
          3    1    3    3  502    0  0.28139893102E+03  0.13912523773E+03 -0.89294573014E+03  0.94651638503E+03  0.00000000000E+00 0. -1.
         -4    1    3    3    0  502  0.23821548550E+02  0.45146296311E+02 -0.13285164831E+03  0.14232081613E+03  0.00000000000E+00 0.  1.
         11    1    5    5    0    0 -0.13438563692E+03 -0.14251461510E+03 -0.76757236056E+02  0.21038438206E+03  0.00000000000E+00 0.  1.
        -11    1    5    5    0    0 -0.17716748935E+03 -0.37569419339E+03 -0.19440973459E+03  0.45861704191E+03  0.00000000000E+00 0. -1.
          4    1    6    6  503    0 -0.21438322884E+02  0.30059611018E+03 -0.21693141021E+03  0.37131773440E+03  0.00000000000E+00 0. -1.
         -4    1    6    6    0  503  0.27770969586E+02  0.33341164259E+02 -0.22473324936E+02  0.48866249289E+02  0.00000000000E+00 0.  1.
<mgrwt>
<rscale>  0 0.15438110E+04</rscale>
<asrwt>0</asrwt>
<pdfrwt beam="1">  1        1 0.28572243E+00 0.15438110E+04</pdfrwt>
<pdfrwt beam="2">  1       -4 0.49357964E-01 0.15438110E+04</pdfrwt>
<totfact> 0.70279389E+00</totfact>
</mgrwt>
</event>
<event>
12    4  0.4320235E-008  0.2115768E+04  0.7818608E-02  0.8554329E-01
         -4   -1    0    0    0  501 -0.00000000000E+00  0.00000000000E+00  0.72183340842E+03  0.72183340842E+03  0.00000000000E+00 0.  1.
          1   -1    0    0  501    0  0.00000000000E+00 -0.00000000000E+00 -0.15503829211E+04  0.15503829211E+04  0.00000000000E+00 0. -1.
        -24    2    1    2    0    0 -0.14648337947E+03 -0.31607327936E+03 -0.11871362715E+04  0.12396591379E+04  0.78118836860E+02 0.  0.
        254    2    1    2    0    0  0.14648337947E+03  0.31607327936E+03  0.35858675879E+03  0.10325571916E+04  0.90345458771E+03 0.  0.
         23    2    4    4    0    0 -0.30498131678E+03 -0.11414569923E+03  0.12399729301E+03  0.36044306305E+03  0.92201023804E+02 0.  0.
         23    2    4    4    0    0  0.45146469625E+03  0.43021897859E+03  0.23458946579E+03  0.67211412860E+03  0.88297468270E+02 0.  0.
          1    1    3    3  502    0 -0.11181827935E+03 -0.25623973766E+03 -0.82798560122E+03  0.87391205883E+03  0.00000000000E+00 0. -1.
         -2    1    3    3    0  502 -0.34665100122E+02 -0.59833541700E+02 -0.35915067024E+03  0.36574707902E+03  0.00000000000E+00 0.  1.
         11    1    5    5    0    0 -0.12989595228E+02 -0.97565951768E+00 -0.13205889083E+02  0.18549312714E+02  0.00000000000E+00 0.  1.
        -11    1    5    5    0    0 -0.29199172155E+03 -0.11317003972E+03  0.13720318209E+03  0.34189375034E+03  0.00000000000E+00 0. -1.
          3    1    6    6  503    0  0.38231197491E+03  0.32828001882E+03  0.16290336845E+03  0.52959203578E+03  0.00000000000E+00 0. -1.
         -3    1    6    6    0  503  0.69152721342E+02  0.10193895977E+03  0.71686097340E+02  0.14252209282E+03  0.00000000000E+00 0.  1.
<mgrwt>
<rscale>  0 0.21157677E+04</rscale>
<asrwt>0</asrwt>
<pdfrwt beam="1">  1        1 0.23852045E+00 0.21157677E+04</pdfrwt>
<pdfrwt beam="2">  1       -4 0.11105129E+00 0.21157677E+04</pdfrwt>
<totfact> 0.17383405E+00</totfact>
</mgrwt>
</event>
<event>
12    4  0.4320235E-008  0.1515792E+04  0.7818608E-02  0.8874019E-01
         -2   -1    0    0    0  501 -0.00000000000E+00  0.00000000000E+00  0.85838842342E+03  0.85838842342E+03  0.00000000000E+00 0.  1.
          1   -1    0    0  501    0  0.00000000000E+00 -0.00000000000E+00 -0.66916864251E+03  0.66916864251E+03  0.00000000000E+00 0. -1.
        -24    2    1    2    0    0 -0.27478488522E+02  0.31713241191E+03  0.42654978391E+03  0.53872415944E+03  0.83372464201E+02 0.  0.
        254    2    1    2    0    0  0.27478488522E+02 -0.31713241191E+03 -0.23733000301E+03  0.98883290650E+03  0.90561413009E+03 0.  0.
         23    2    4    4    0    0  0.36933840683E+02 -0.38849167530E+03  0.26052502890E+03  0.47753982638E+03  0.88775586334E+02 0.  0.
         23    2    4    4    0    0 -0.94553521606E+01  0.71359263384E+02 -0.49785503190E+03  0.51129308012E+03  0.91539242031E+02 0.  0.
          1    1    3    3  502    0  0.88558021698E+01  0.16906423934E+02  0.46679515767E+01  0.19647955981E+02  0.00000000000E+00 0. -1.
         -2    1    3    3    0  502 -0.36334290692E+02  0.30022598798E+03  0.42188183234E+03  0.51907620346E+03  0.00000000000E+00 0.  1.
         11    1    5    5    0    0  0.58995785791E+02 -0.24353359032E+03  0.13562192832E+03  0.28492528809E+03  0.00000000000E+00 0.  1.
        -11    1    5    5    0    0 -0.22061945109E+02 -0.14495808498E+03  0.12490310058E+03  0.19261453828E+03  0.00000000000E+00 0. -1.
          2    1    6    6  503    0  0.40918106946E+02  0.25796992987E+02 -0.22032989446E+03  0.22557712366E+03  0.00000000000E+00 0. -1.
         -2    1    6    6    0  503 -0.50373459107E+02  0.45562270398E+02 -0.27752513744E+03  0.28571595646E+03  0.00000000000E+00 0.  1.
<mgrwt>
<rscale>  0 0.15157924E+04</rscale>
<asrwt>0</asrwt>
<pdfrwt beam="1">  1        1 0.10294902E+00 0.15157924E+04</pdfrwt>
<pdfrwt beam="2">  1       -2 0.13205976E+00 0.15157924E+04</pdfrwt>
<totfact> 0.10289476E+01</totfact>
</mgrwt>
</event>
<event>
12    4  0.4320235E-008  0.2301723E+04  0.7818608E-02  0.8477242E-01
          1   -1    0    0  501    0  0.00000000000E+00  0.00000000000E+00  0.20116843908E+04  0.20116843908E+04  0.00000000000E+00 0. -1.
         -2   -1    0    0    0  501 -0.00000000000E+00 -0.00000000000E+00 -0.65839448072E+03  0.65839448072E+03  0.00000000000E+00 0.  1.
        -24    2    1    2    0    0 -0.33586853121E+03 -0.37513850433E+03 -0.43449498876E+03  0.66905514130E+03  0.72885658087E+02 0.  0.
        254    2    1    2    0    0  0.33586853121E+03  0.37513850433E+03  0.17877848988E+04  0.20010237302E+04  0.74457004818E+03 0.  0.
         23    2    4    4    0    0  0.26755773887E+03  0.28709165074E+03  0.29033078374E+03  0.49673432384E+03  0.91892681641E+02 0.  0.
         23    2    4    4    0    0  0.68310792346E+02  0.88046853587E+02  0.14974541151E+04  0.15042894064E+04  0.89995436030E+02 0.  0.
          1    1    3    3  502    0 -0.49410776374E+02 -0.56624302790E+02 -0.10243889815E+03  0.12704906274E+03  0.00000000000E+00 0. -1.
         -2    1    3    3    0  502 -0.28645775484E+03 -0.31851420154E+03 -0.33205609061E+03  0.54200607857E+03  0.00000000000E+00 0.  1.
         11    1    5    5    0    0  0.26967347711E+03  0.27474978593E+03  0.26176626380E+03  0.46554570773E+03  0.00000000000E+00 0.  1.
        -11    1    5    5    0    0 -0.21157382406E+01  0.12341864816E+02  0.28564519938E+02  0.31188616108E+02  0.00000000000E+00 0. -1.
          1    1    6    6  503    0  0.10654316275E+02 -0.15556413148E+02  0.96354818919E+02  0.98182318032E+02  0.00000000000E+00 0. -1.
         -1    1    6    6    0  503  0.57656476071E+02  0.10360326674E+03  0.14010992962E+04  0.14061070883E+04  0.00000000000E+00 0.  1.
<mgrwt>
<rscale>  0 0.23017227E+04</rscale>
<asrwt>0</asrwt>
<pdfrwt beam="1">  1        1 0.30948990E+00 0.23017227E+04</pdfrwt>
<pdfrwt beam="2">  1       -2 0.10129146E+00 0.23017227E+04</pdfrwt>
<totfact> 0.18612055E+00</totfact>
</mgrwt>
</event>
<event>
12    4  0.4320235E-008  0.1752909E+04  0.7818608E-02  0.8731751E-01
          1   -1    0    0  501    0  0.00000000000E+00  0.00000000000E+00  0.82344534446E+03  0.82344534446E+03  0.00000000000E+00 0. -1.
         -2   -1    0    0    0  501 -0.00000000000E+00 -0.00000000000E+00 -0.93287628599E+03  0.93287628599E+03  0.00000000000E+00 0.  1.
        -24    2    1    2    0    0 -0.26517889203E+03  0.15297398855E+03 -0.60855503645E+03  0.68553872584E+03  0.76832455943E+02 0.  0.
        254    2    1    2    0    0  0.26517889203E+03 -0.15297398855E+03  0.49912409493E+03  0.10707829046E+04  0.89651005612E+03 0.  0.
         23    2    4    4    0    0 -0.21962506415E+03  0.20652435721E+03  0.28300531811E+03  0.42338812904E+03  0.90983618341E+02 0.  0.
         23    2    4    4    0    0  0.48480395618E+03 -0.35949834576E+03  0.21611877682E+03  0.64739477558E+03  0.90214927876E+02 0.  0.
          3    1    3    3  502    0 -0.44748067711E+02  0.63246421305E+02 -0.14010730431E+03  0.16010170546E+03  0.00000000000E+00 0. -1.
         -4    1    3    3    0  502 -0.22043082432E+03  0.89727567248E+02 -0.46844773214E+03  0.52543702038E+03  0.00000000000E+00 0.  1.
         11    1    5    5    0    0 -0.41209886489E+02  0.59338765250E+02  0.12126756675E+03  0.14115653209E+03  0.00000000000E+00 0. -1.
        -11    1    5    5    0    0 -0.17841517767E+03  0.14718559196E+03  0.16173775136E+03  0.28223159695E+03  0.00000000000E+00 0.  1.
          2    1    6    6  503    0  0.14001932752E+02 -0.24052828693E+02 -0.53512623909E+01  0.28341289634E+02  0.00000000000E+00 0. -1.
         -2    1    6    6    0  503  0.47080202343E+03 -0.33544551707E+03  0.22147003921E+03  0.61905348594E+03  0.00000000000E+00 0.  1.
<mgrwt>
<rscale>  0 0.17529092E+04</rscale>
<asrwt>0</asrwt>
<pdfrwt beam="1">  1        1 0.12668390E+00 0.17529092E+04</pdfrwt>
<pdfrwt beam="2">  1       -2 0.14351943E+00 0.17529092E+04</pdfrwt>
<totfact> 0.58931703E+00</totfact>
</mgrwt>
</event>
<event>
12    4  0.4320235E-008  0.1134751E+04  0.7818608E-02  0.9171968E-01
          1   -1    0    0  501    0  0.00000000000E+00  0.00000000000E+00  0.17227177137E+04  0.17227177137E+04  0.00000000000E+00 0. -1.
         -2   -1    0    0    0  501 -0.00000000000E+00 -0.00000000000E+00 -0.18686461373E+03  0.18686461373E+03  0.00000000000E+00 0.  1.
        -24    2    1    2    0    0  0.18351140333E+02 -0.16708120849E+03  0.13046028037E+03  0.22740236453E+03  0.80243729107E+02 0.  0.
        254    2    1    2    0    0 -0.18351140333E+02  0.16708120849E+03  0.14053928196E+04  0.16821799629E+04  0.90903660851E+03 0.  0.
         23    2    4    4    0    0 -0.15982361570E+03  0.15390886690E+03  0.14766886284E+04  0.14960025375E+04  0.90458607724E+02 0.  0.
         23    2    4    4    0    0  0.14147247536E+03  0.13172341581E+02 -0.71295808765E+02  0.18617742537E+03  0.96907014711E+02 0.  0.
          3    1    3    3  502    0 -0.24524741734E+02 -0.83476510048E+02  0.89764483425E+02  0.12500981230E+03  0.00000000000E+00 0. -1.
         -4    1    3    3    0  502  0.42875882067E+02 -0.83604698437E+02  0.40695796944E+02  0.10239255223E+03  0.00000000000E+00 0.  1.
         11    1    5    5    0    0  0.81225596628E+01  0.79694852894E+01  0.26426799963E+02  0.28772633309E+02  0.00000000000E+00 0. -1.
        -11    1    5    5    0    0 -0.16794617536E+03  0.14593938161E+03  0.14502618284E+04  0.14672299042E+04  0.00000000000E+00 0.  1.
          3    1    6    6  503    0  0.19913837646E+02 -0.15573474849E+02  0.19355036532E+02  0.31838836157E+02  0.00000000000E+00 0. -1.
         -3    1    6    6    0  503  0.12155863772E+03  0.28745816430E+02 -0.90650845296E+02  0.15433858921E+03  0.00000000000E+00 0.  1.
<mgrwt>
<rscale>  0 0.11347510E+04</rscale>
<asrwt>0</asrwt>
<pdfrwt beam="1">  1        1 0.26503348E+00 0.11347510E+04</pdfrwt>
<pdfrwt beam="2">  1       -2 0.28748403E-01 0.11347510E+04</pdfrwt>
<totfact> 0.44579885E+01</totfact>
</mgrwt>
</event>
<event>
12    4  0.4320235E-008  0.1731451E+04  0.7818608E-02  0.8743627E-01
          1   -1    0    0  501    0  0.00000000000E+00  0.00000000000E+00  0.20436624412E+04  0.20436624412E+04  0.00000000000E+00 0. -1.
         -2   -1    0    0    0  501 -0.00000000000E+00 -0.00000000000E+00 -0.36673390496E+03  0.36673390496E+03  0.00000000000E+00 0.  1.
        -24    2    1    2    0    0  0.12488332747E+03 -0.58498503324E+03  0.91954359266E+03  0.10999466534E+04  0.80739624061E+02 0.  0.
        254    2    1    2    0    0 -0.12488332747E+03  0.58498503324E+03  0.75738494359E+03  0.13104496928E+04  0.88647792411E+03 0.  0.
         23    2    4    4    0    0  0.31615139352E+03  0.27183821863E+03  0.71723058506E+02  0.43221853379E+03  0.88436096120E+02 0.  0.
         23    2    4    4    0    0 -0.44103472100E+03  0.31314681461E+03  0.68566188508E+03  0.87823115899E+03  0.92656329214E+02 0.  0.
          3    1    3    3  502    0  0.12782420947E+03 -0.58626188610E+03  0.91133388779E+03  0.10911331187E+04  0.00000000000E+00 0. -1.
         -4    1    3    3    0  502 -0.29408819956E+01  0.12768528593E+01  0.82097048755E+01  0.88135347211E+01  0.00000000000E+00 0.  1.
         11    1    5    5    0    0  0.14441860272E+03  0.97426533488E+02  0.69165510633E+02  0.18743673626E+03  0.00000000000E+00 0. -1.
        -11    1    5    5    0    0  0.17173279080E+03  0.17441168514E+03  0.25575478738E+01  0.24478179753E+03  0.00000000000E+00 0.  1.
          3    1    6    6  503    0 -0.67183274875E+01 -0.34433280614E+01  0.27426616261E+02  0.28446646760E+02  0.00000000000E+00 0. -1.
         -3    1    6    6    0  503 -0.43431639351E+03  0.31659014267E+03  0.65823526882E+03  0.84978451223E+03  0.00000000000E+00 0.  1.
<mgrwt>
<rscale>  0 0.17314506E+04</rscale>
<asrwt>0</asrwt>
<pdfrwt beam="1">  1        1 0.31440960E+00 0.17314506E+04</pdfrwt>
<pdfrwt beam="2">  1       -2 0.56420602E-01 0.17314506E+04</pdfrwt>
<totfact> 0.68394441E+00</totfact>
</mgrwt>
</event>
<event>
12    4  0.4320235E-008  0.1559844E+04  0.7818608E-02  0.8845605E-01
          1   -1    0    0  501    0  0.00000000000E+00  0.00000000000E+00  0.18295931491E+04  0.18295931491E+04  0.00000000000E+00 0. -1.
         -2   -1    0    0    0  501 -0.00000000000E+00 -0.00000000000E+00 -0.33246633645E+03  0.33246633645E+03  0.00000000000E+00 0.  1.
        -24    2    1    2    0    0 -0.49936057513E+02  0.27020527541E+03 -0.10363013330E+03  0.30482580654E+03  0.81701083868E+02 0.  0.
        254    2    1    2    0    0  0.49936057513E+02 -0.27020527541E+03  0.16007569460E+04  0.18572336790E+04  0.90077169016E+03 0.  0.
         23    2    4    4    0    0 -0.36169751405E+03 -0.32945825914E+03  0.10404111598E+04  0.11533866370E+04  0.92073431659E+02 0.  0.
         23    2    4    4    0    0  0.41163357157E+03  0.59252983733E+02  0.56034578618E+03  0.70384704203E+03  0.91979047438E+02 0.  0.
          3    1    3    3  502    0  0.14845284056E+02  0.90711002879E+02 -0.10589807302E+02  0.92525739774E+02  0.00000000000E+00 0. -1.
         -4    1    3    3    0  502 -0.64781341570E+02  0.17949427253E+03 -0.93040325993E+02  0.21230006676E+03  0.00000000000E+00 0.  1.
         11    1    5    5    0    0 -0.19929620736E+03 -0.22895647305E+03  0.57235962504E+03  0.64787003727E+03  0.00000000000E+00 0. -1.
        -11    1    5    5    0    0 -0.16240130669E+03 -0.10050178609E+03  0.46805153476E+03  0.50551659974E+03  0.00000000000E+00 0.  1.
          3    1    6    6  503    0  0.37572548283E+03  0.29707181782E+02  0.52037550157E+03  0.64252845675E+03  0.00000000000E+00 0. -1.
         -3    1    6    6    0  503  0.35908088735E+02  0.29545801951E+02  0.39970284614E+02  0.61318585288E+02  0.00000000000E+00 0.  1.
<mgrwt>
<rscale>  0 0.15598438E+04</rscale>
<asrwt>0</asrwt>
<pdfrwt beam="1">  1        1 0.28147586E+00 0.15598438E+04</pdfrwt>
<pdfrwt beam="2">  1       -2 0.51148668E-01 0.15598438E+04</pdfrwt>
<totfact> 0.11875506E+01</totfact>
</mgrwt>
</event>
<event>
12    4  0.4320235E-008  0.1077622E+04  0.7818608E-02  0.9227282E-01
          1   -1    0    0  501    0  0.00000000000E+00  0.00000000000E+00  0.31073655037E+03  0.31073655037E+03  0.00000000000E+00 0. -1.
         -2   -1    0    0    0  501 -0.00000000000E+00 -0.00000000000E+00 -0.93428764594E+03  0.93428764594E+03  0.00000000000E+00 0.  1.
        -24    2    1    2    0    0 -0.34276412883E+02 -0.13778460893E+03 -0.77993705157E+02  0.18051323343E+03  0.79640055629E+02 0.  0.
        254    2    1    2    0    0  0.34276412883E+02  0.13778460893E+03 -0.54555739041E+03  0.10645109629E+04  0.90299017322E+03 0.  0.
         23    2    4    4    0    0  0.14102891597E+03  0.45852775370E+02 -0.76707687838E+03  0.78635611495E+03  0.89204091943E+02 0.  0.
         23    2    4    4    0    0 -0.10675250309E+03  0.91931833558E+02  0.22151948798E+03  0.27815484793E+03  0.91933002437E+02 0.  0.
          1    1    3    3  502    0 -0.24732882137E+02 -0.10581861894E+03 -0.15631887203E+02  0.10978912273E+03  0.00000000000E+00 0. -1.
         -2    1    3    3    0  502 -0.95435307457E+01 -0.31965989991E+02 -0.62361817954E+02  0.70724110696E+02  0.00000000000E+00 0.  1.
         11    1    5    5    0    0  0.27551184711E+02 -0.24249493795E+02 -0.23310024583E+03  0.23597209651E+03  0.00000000000E+00 0.  1.
        -11    1    5    5    0    0  0.11347773126E+03  0.70102269165E+02 -0.53397663256E+03  0.55038401844E+03  0.00000000000E+00 0. -1.
          1    1    6    6  503    0 -0.11921710572E+03  0.59737401356E+02  0.18298822769E+03  0.22641989067E+03  0.00000000000E+00 0. -1.
         -1    1    6    6    0  503  0.12464602634E+02  0.32194432201E+02  0.38531260290E+02  0.51734957264E+02  0.00000000000E+00 0.  1.
<mgrwt>
<rscale>  0 0.10776220E+04</rscale>
<asrwt>0</asrwt>
<pdfrwt beam="1">  1        1 0.47805624E-01 0.10776220E+04</pdfrwt>
<pdfrwt beam="2">  1       -2 0.14373656E+00 0.10776220E+04</pdfrwt>
<totfact> 0.24426289E+01</totfact>
</mgrwt>
</event>
<event>
12    4  0.4320235E-008  0.1682977E+04  0.7818608E-02  0.8771133E-01
          1   -1    0    0  501    0  0.00000000000E+00  0.00000000000E+00  0.13329668264E+04  0.13329668264E+04  0.00000000000E+00 0. -1.
         -2   -1    0    0    0  501 -0.00000000000E+00 -0.00000000000E+00 -0.53122317037E+03  0.53122317037E+03  0.00000000000E+00 0.  1.
        -24    2    1    2    0    0 -0.54463080367E+03  0.45489924148E+02  0.69483468528E+02  0.55663732317E+03  0.79530570454E+02 0.  0.
        254    2    1    2    0    0  0.54463080367E+03 -0.45489924148E+02  0.73226018753E+03  0.13075526736E+04  0.93530581447E+03 0.  0.
         23    2    4    4    0    0  0.47020541892E+03 -0.29572541724E+03  0.43108056752E+02  0.56474928529E+03  0.92394763346E+02 0.  0.
         23    2    4    4    0    0  0.74425384752E+02  0.25023549309E+03  0.68915213078E+03  0.74280338835E+03  0.93108938806E+02 0.  0.
          1    1    3    3  502    0 -0.48623365207E+02  0.26700257510E+02  0.13783108038E+02  0.57158634189E+02  0.00000000000E+00 0. -1.
         -2    1    3    3    0  502 -0.49600743847E+03  0.18789666638E+02  0.55700360490E+02  0.49947868898E+03  0.00000000000E+00 0.  1.
         11    1    5    5    0    0  0.51915747436E+02 -0.71493072177E+02  0.11450681043E+02  0.89093334753E+02  0.00000000000E+00 0.  1.
        -11    1    5    5    0    0  0.41828967149E+03 -0.22423234506E+03  0.31657375708E+02  0.47565595054E+03  0.00000000000E+00 0. -1.
          1    1    6    6  503    0  0.85204057870E+02  0.19415775728E+03  0.60522880768E+03  0.64129468720E+03  0.00000000000E+00 0. -1.
         -1    1    6    6    0  503 -0.10778673118E+02  0.56077735815E+02  0.83923323103E+02  0.10150870115E+03  0.00000000000E+00 0.  1.
<mgrwt>
<rscale>  0 0.16829770E+04</rscale>
<asrwt>0</asrwt>
<pdfrwt beam="1">  1        1 0.20507182E+00 0.16829770E+04</pdfrwt>
<pdfrwt beam="2">  1       -2 0.81726642E-01 0.16829770E+04</pdfrwt>
<totfact> 0.94367813E+00</totfact>
</mgrwt>
</event>
<event>
12    4  0.4320235E-008  0.2417019E+04  0.7818608E-02  0.8433159E-01
          1   -1    0    0  501    0  0.00000000000E+00  0.00000000000E+00  0.16147438382E+04  0.16147438382E+04  0.00000000000E+00 0. -1.
         -2   -1    0    0    0  501 -0.00000000000E+00 -0.00000000000E+00 -0.90447479091E+03  0.90447479091E+03  0.00000000000E+00 0.  1.
        -24    2    1    2    0    0 -0.58485879071E+03  0.84403879104E+03  0.45844368302E+03  0.11275739990E+04  0.82408899786E+02 0.  0.
        254    2    1    2    0    0  0.58485879071E+03 -0.84403879104E+03  0.25182536427E+03  0.13916446301E+04  0.90487428777E+03 0.  0.
         23    2    4    4    0    0 -0.23471471539E+03 -0.20974734933E+03  0.77119160028E+02  0.33691106944E+03  0.92069298347E+02 0.  0.
         23    2    4    4    0    0  0.81957350610E+03 -0.63429144171E+03  0.17470620424E+03  0.10547335607E+04  0.88962134285E+02 0.  0.
          3    1    3    3  502    0 -0.56661089896E+03  0.81922071543E+03  0.42759277751E+03  0.10839769715E+04  0.00000000000E+00 0. -1.
         -4    1    3    3    0  502 -0.18247891749E+02  0.24818075612E+02  0.30850905505E+02  0.43597027431E+02  0.00000000000E+00 0.  1.
         11    1    5    5    0    0 -0.23460956585E+03 -0.21162380646E+03  0.86310280052E+02  0.32752976703E+03  0.00000000000E+00 0. -1.
        -11    1    5    5    0    0 -0.10514954578E+00  0.18764571247E+01 -0.91911200245E+01  0.93813024188E+01  0.00000000000E+00 0.  1.
          3    1    6    6  503    0  0.81161147039E+03 -0.61731861315E+03  0.17950214700E+03  0.10353822820E+04  0.00000000000E+00 0. -1.
         -3    1    6    6    0  503  0.79620357166E+01 -0.16972828565E+02 -0.47959427664E+01  0.19351278750E+02  0.00000000000E+00 0.  1.
<mgrwt>
<rscale>  0 0.24170189E+04</rscale>
<asrwt>0</asrwt>
<pdfrwt beam="1">  1        1 0.24842213E+00 0.24170189E+04</pdfrwt>
<pdfrwt beam="2">  1       -2 0.13914997E+00 0.24170189E+04</pdfrwt>
<totfact> 0.15632339E+00</totfact>
</mgrwt>
</event>
<event>
12    4  0.4320235E-008  0.1498125E+04  0.7818608E-02  0.8885701E-01
         -2   -1    0    0    0  501 -0.00000000000E+00  0.00000000000E+00  0.51423086587E+03  0.51423086587E+03  0.00000000000E+00 0.  1.
          1   -1    0    0  501    0  0.00000000000E+00 -0.00000000000E+00 -0.10911342032E+04  0.10911342032E+04  0.00000000000E+00 0. -1.
        -24    2    1    2    0    0 -0.49922253965E+02  0.45348005131E+03 -0.30046051355E+03  0.55150580502E+03  0.75800688604E+02 0.  0.
        254    2    1    2    0    0  0.49922253965E+02 -0.45348005131E+03 -0.27644282376E+03  0.10538592640E+04  0.90887970886E+03 0.  0.
         23    2    4    4    0    0 -0.29514803630E+03 -0.26889419937E+02  0.15819342983E+03  0.34791827266E+03  0.90479605289E+02 0.  0.
         23    2    4    4    0    0  0.34507029027E+03 -0.42659063138E+03 -0.43463625358E+03  0.70594099136E+03  0.91602065193E+02 0.  0.
          1    1    3    3  502    0 -0.25348518435E+02  0.26396126153E+03 -0.21836480241E+03  0.34351314663E+03  0.00000000000E+00 0. -1.
         -2    1    3    3    0  502 -0.24573735530E+02  0.18951878978E+03 -0.82095711140E+02  0.20799265840E+03  0.00000000000E+00 0.  1.
         11    1    5    5    0    0 -0.18366109742E+03  0.26295045288E+02  0.82513186808E+02  0.20305480568E+03  0.00000000000E+00 0.  1.
        -11    1    5    5    0    0 -0.11148693888E+03 -0.53184465225E+02  0.75680243018E+02  0.14486346698E+03  0.00000000000E+00 0. -1.
          1    1    6    6  503    0  0.93503090294E+02 -0.73758356410E+02 -0.12962220438E+03  0.17602567683E+03  0.00000000000E+00 0. -1.
         -1    1    6    6    0  503  0.25156719997E+03 -0.35283227497E+03 -0.30501404920E+03  0.52991531453E+03  0.00000000000E+00 0.  1.
<mgrwt>
<rscale>  0 0.14981253E+04</rscale>
<asrwt>0</asrwt>
<pdfrwt beam="1">  1        1 0.16786680E+00 0.14981253E+04</pdfrwt>
<pdfrwt beam="2">  1       -2 0.79112443E-01 0.14981253E+04</pdfrwt>
<totfact> 0.15483293E+01</totfact>
</mgrwt>
</event>
<event>
12    4  0.4320235E-008  0.2292882E+04  0.7818608E-02  0.8480733E-01
          1   -1    0    0  501    0  0.00000000000E+00  0.00000000000E+00  0.23622825550E+04  0.23622825550E+04  0.00000000000E+00 0. -1.
         -2   -1    0    0    0  501 -0.00000000000E+00 -0.00000000000E+00 -0.55637988440E+03  0.55637988440E+03  0.00000000000E+00 0.  1.
        -24    2    1    2    0    0  0.93247759341E+03 -0.18433747726E+03  0.52285607674E+03  0.10877371078E+04  0.79364796868E+02 0.  0.
        254    2    1    2    0    0 -0.93247759341E+03  0.18433747726E+03  0.12830465939E+04  0.18309253316E+04  0.89587066037E+03 0.  0.
         23    2    4    4    0    0 -0.47824421224E+03  0.17679440878E+03  0.57986597478E+02  0.52124125422E+03  0.91412308257E+02 0.  0.
         23    2    4    4    0    0 -0.45423338118E+03  0.75430684780E+01  0.12250599964E+04  0.13096840774E+04  0.90086210522E+02 0.  0.
          3    1    3    3  502    0  0.99246809065E+02 -0.64175657547E+01  0.79178312383E+02  0.12712324497E+03  0.00000000000E+00 0. -1.
         -4    1    3    3    0  502  0.83323078435E+03 -0.17791991150E+03  0.44367776436E+03  0.96061386284E+03  0.00000000000E+00 0.  1.
         11    1    5    5    0    0 -0.50039701357E+02  0.10603946792E+02  0.33742954402E+02  0.61278074147E+02  0.00000000000E+00 0.  1.
        -11    1    5    5    0    0 -0.42820451088E+03  0.16619046199E+03  0.24243643076E+02  0.45996318007E+03  0.00000000000E+00 0. -1.
          3    1    6    6  503    0 -0.19430981301E+03  0.45292988355E+02  0.57122821192E+03  0.60506977145E+03  0.00000000000E+00 0. -1.
         -3    1    6    6    0  503 -0.25992356817E+03 -0.37749919877E+02  0.65383178447E+03  0.70461430594E+03  0.00000000000E+00 0.  1.
<mgrwt>
<rscale>  0 0.22928816E+04</rscale>
<asrwt>0</asrwt>
<pdfrwt beam="1">  1        1 0.36342808E+00 0.22928816E+04</pdfrwt>
<pdfrwt beam="2">  1       -2 0.85596906E-01 0.22928816E+04</pdfrwt>
<totfact> 0.15894933E+00</totfact>
</mgrwt>
</event>
<event>
12    4  0.4320235E-008  0.1313888E+04  0.7818608E-02  0.9018624E-01
         -2   -1    0    0    0  501 -0.00000000000E+00  0.00000000000E+00  0.13087195065E+04  0.13087195065E+04  0.00000000000E+00 0.  1.
          1   -1    0    0  501    0  0.00000000000E+00 -0.00000000000E+00 -0.32976918593E+03  0.32976918593E+03  0.00000000000E+00 0. -1.
        -24    2    1    2    0    0  0.14798689237E+03 -0.12510861367E+03 -0.99396441264E+02  0.23200448548E+03  0.79963386724E+02 0.  0.
        254    2    1    2    0    0 -0.14798689237E+03  0.12510861367E+03  0.10783467618E+04  0.14064842070E+04  0.88193752621E+03 0.  0.
         23    2    4    4    0    0 -0.23424791452E+03 -0.24460917041E+03  0.11785670123E+03  0.36980809365E+03  0.90344299173E+02 0.  0.
         23    2    4    4    0    0  0.86261022151E+02  0.36971778408E+03  0.96049006060E+03  0.10366761133E+04  0.89576802702E+02 0.  0.
          1    1    3    3  502    0  0.14869275248E+03 -0.11497653173E+03 -0.10962230980E+03  0.21759179280E+03  0.00000000000E+00 0. -1.
         -2    1    3    3    0  502 -0.70586010284E+00 -0.10132081942E+02  0.10225868535E+02  0.14412692679E+02  0.00000000000E+00 0.  1.
         11    1    5    5    0    0 -0.17752778901E+03 -0.12830191196E+03  0.93383738969E+02  0.23811345865E+03  0.00000000000E+00 0.  1.
        -11    1    5    5    0    0 -0.56720125514E+02 -0.11630725845E+03  0.24472962260E+02  0.13169463500E+03  0.00000000000E+00 0. -1.
          3    1    6    6  503    0 -0.15185270831E+02  0.90511243088E+02  0.19331239592E+03  0.21399196245E+03  0.00000000000E+00 0. -1.
         -3    1    6    6    0  503  0.10144629298E+03  0.27920654099E+03  0.76717766468E+03  0.82268415086E+03  0.00000000000E+00 0.  1.
<mgrwt>
<rscale>  0 0.13138879E+04</rscale>
<asrwt>0</asrwt>
<pdfrwt beam="1">  1        1 0.50733722E-01 0.13138879E+04</pdfrwt>
<pdfrwt beam="2">  1       -2 0.20134146E+00 0.13138879E+04</pdfrwt>
<totfact> 0.86450544E+00</totfact>
</mgrwt>
</event>
<event>
12    4  0.4320235E-008  0.2818293E+04  0.7818608E-02  0.8297611E-01
         -2   -1    0    0    0  501 -0.00000000000E+00  0.00000000000E+00  0.10397258964E+04  0.10397258964E+04  0.00000000000E+00 0.  1.
          1   -1    0    0  501    0  0.00000000000E+00 -0.00000000000E+00 -0.19098249409E+04  0.19098249409E+04  0.00000000000E+00 0. -1.
        -24    2    1    2    0    0  0.10000150844E+02  0.11813499503E+04  0.80759422510E+02  0.11867402868E+04  0.78375479970E+02 0.  0.
        254    2    1    2    0    0 -0.10000150844E+02 -0.11813499503E+04 -0.95085846706E+03  0.17628105505E+04  0.89871102389E+03 0.  0.
         23    2    4    4    0    0 -0.30001059184E+03 -0.24962120762E+03 -0.55365576008E+01  0.40060904412E+03  0.90221118614E+02 0.  0.
         23    2    4    4    0    0  0.29001044100E+03 -0.93172874268E+03 -0.94532190946E+03  0.13622015064E+04  0.98665726885E+02 0.  0.
          1    1    3    3  502    0 -0.94753445669E+01  0.10731572541E+04  0.60071379912E+02  0.10748789908E+04  0.00000000000E+00 0. -1.
         -2    1    3    3    0  502  0.19475495411E+02  0.10819269624E+03  0.20688042598E+02  0.11186129602E+03  0.00000000000E+00 0.  1.
         11    1    5    5    0    0 -0.30392590706E+03 -0.24213721461E+03 -0.13743883705E+02  0.38883194573E+03  0.00000000000E+00 0.  1.
        -11    1    5    5    0    0  0.39153152136E+01 -0.74839930159E+01  0.82073261046E+01  0.11777098389E+02  0.00000000000E+00 0. -1.
          4    1    6    6  503    0  0.15758418983E+03 -0.35082537797E+03 -0.35200437932E+03  0.52136197193E+03  0.00000000000E+00 0. -1.
         -4    1    6    6    0  503  0.13242625117E+03 -0.58090336471E+03 -0.59331753014E+03  0.84083953446E+03  0.00000000000E+00 0.  1.
<mgrwt>
<rscale>  0 0.28182934E+04</rscale>
<asrwt>0</asrwt>
<pdfrwt beam="1">  1        1 0.29381922E+00 0.28182934E+04</pdfrwt>
<pdfrwt beam="2">  1       -2 0.15995783E+00 0.28182934E+04</pdfrwt>
<totfact> 0.65705810E-01</totfact>
</mgrwt>
</event>
<event>
12    4  0.4320235E-008  0.1899734E+04  0.7818608E-02  0.8654989E-01
         -2   -1    0    0    0  501 -0.00000000000E+00  0.00000000000E+00  0.97708357672E+03  0.97708357672E+03  0.00000000000E+00 0.  1.
          1   -1    0    0  501    0  0.00000000000E+00 -0.00000000000E+00 -0.92340881541E+03  0.92340881541E+03  0.00000000000E+00 0. -1.
        -24    2    1    2    0    0  0.63195646389E+03 -0.26273065319E+03  0.27947055201E+03  0.74351931594E+03  0.79503555655E+02 0.  0.
        254    2    1    2    0    0 -0.63195646389E+03  0.26273065319E+03 -0.22579579070E+03  0.11569730762E+04  0.90510032127E+03 0.  0.
         23    2    4    4    0    0  0.63981415678E+02 -0.18934905063E+03 -0.23228484995E+03  0.32178131616E+03  0.98184924432E+02 0.  0.
         23    2    4    4    0    0 -0.69593787957E+03  0.45207970382E+03  0.64890592564E+01  0.83519176003E+03  0.93795401278E+02 0.  0.
          1    1    3    3  502    0  0.87779001297E+01  0.15149184902E+01 -0.38821750023E+01  0.97168817769E+01  0.00000000000E+00 0. -1.
         -2    1    3    3    0  502  0.62317856376E+03 -0.26424557168E+03  0.28335272701E+03  0.73380243417E+03  0.00000000000E+00 0.  1.
         11    1    5    5    0    0 -0.25453344976E+01 -0.46569224554E+02 -0.74064534352E+01  0.47223161222E+02  0.00000000000E+00 0. -1.
        -11    1    5    5    0    0  0.66526750175E+02 -0.14277982608E+03 -0.22487839652E+03  0.27455815494E+03  0.00000000000E+00 0.  1.
          2    1    6    6  503    0 -0.22813824590E+03  0.18713047593E+03  0.33074426270E+02  0.29691546261E+03  0.00000000000E+00 0. -1.
         -2    1    6    6    0  503 -0.46779963367E+03  0.26494922789E+03 -0.26585367014E+02  0.53827629742E+03  0.00000000000E+00 0.  1.
<mgrwt>
<rscale>  0 0.18997343E+04</rscale>
<asrwt>0</asrwt>
<pdfrwt beam="1">  1        1 0.14206290E+00 0.18997343E+04</pdfrwt>
<pdfrwt beam="2">  1       -2 0.15032055E+00 0.18997343E+04</pdfrwt>
<totfact> 0.42532972E+00</totfact>
</mgrwt>
</event>
<event>
12    4  0.4320235E-008  0.1745007E+04  0.7818608E-02  0.8736103E-01
          1   -1    0    0  501    0  0.00000000000E+00  0.00000000000E+00  0.30221035693E+04  0.30221035693E+04  0.00000000000E+00 0. -1.
         -2   -1    0    0    0  501 -0.00000000000E+00 -0.00000000000E+00 -0.25189817829E+03  0.25189817829E+03  0.00000000000E+00 0.  1.
        -24    2    1    2    0    0 -0.26448308828E+03  0.75596088016E+02  0.21314355924E+04  0.21511637840E+04  0.93924802401E+02 0.  0.
        254    2    1    2    0    0  0.26448308828E+03 -0.75596088016E+02  0.63876979865E+03  0.11228379636E+04  0.88151696774E+03 0.  0.
         23    2    4    4    0    0  0.40601280718E+03  0.59790524204E+02  0.76439281013E+03  0.87324375688E+03  0.99181572762E+02 0.  0.
         23    2    4    4    0    0 -0.14152971890E+03 -0.13538661222E+03 -0.12562301148E+03  0.24959420676E+03  0.90310192853E+02 0.  0.
          1    1    3    3  502    0 -0.10452849761E+03  0.73248064548E+02  0.11030622617E+04  0.11104223696E+04  0.00000000000E+00 0. -1.
         -2    1    3    3    0  502 -0.15995459067E+03  0.23480234678E+01  0.10283733307E+04  0.10407414144E+04  0.00000000000E+00 0.  1.
         11    1    5    5    0    0  0.36224284722E+03  0.84210427852E+02  0.68167851320E+03  0.77652873216E+03  0.00000000000E+00 0.  1.
        -11    1    5    5    0    0  0.43769959961E+02 -0.24419903648E+02  0.82714296934E+02  0.96715024720E+02  0.00000000000E+00 0. -1.
          1    1    6    6  503    0 -0.59292145582E+02 -0.54151873761E+02 -0.19683126819E+01  0.80323459925E+02  0.00000000000E+00 0. -1.
         -1    1    6    6    0  503 -0.82237573315E+02 -0.81234738459E+02 -0.12365469880E+03  0.16927074683E+03  0.00000000000E+00 0.  1.
<mgrwt>
<rscale>  0 0.17450070E+04</rscale>
<asrwt>0</asrwt>
<pdfrwt beam="1">  1        1 0.46493899E+00 0.17450070E+04</pdfrwt>
<pdfrwt beam="2">  1       -2 0.38753568E-01 0.17450070E+04</pdfrwt>
<totfact> 0.30284373E+00</totfact>
</mgrwt>
</event>
<event>
12    4  0.4320235E-008  0.1862115E+04  0.7818608E-02  0.8673948E-01
         -4   -1    0    0    0  501 -0.00000000000E+00  0.00000000000E+00  0.52159096710E+03  0.52159096710E+03  0.00000000000E+00 0.  1.
          3   -1    0    0  501    0  0.00000000000E+00 -0.00000000000E+00 -0.16619685595E+04  0.16619685595E+04  0.00000000000E+00 0. -1.
        -24    2    1    2    0    0  0.32869050965E+03 -0.26848399053E+03 -0.11085871460E+04  0.11893957252E+04  0.74670118073E+02 0.  0.
        254    2    1    2    0    0 -0.32869050965E+03  0.26848399053E+03 -0.31790446475E+02  0.99416380148E+03  0.89845975279E+03 0.  0.
         23    2    4    4    0    0  0.12624464809E+03 -0.12592644128E+03 -0.27406294240E+03  0.33891581357E+03  0.89209038280E+02 0.  0.
         23    2    4    4    0    0 -0.45493515773E+03  0.39441043180E+03  0.24227249592E+03  0.65524798790E+03  0.90157511701E+02 0.  0.
          3    1    3    3  502    0  0.17394785981E+03 -0.18330833019E+03 -0.70193565770E+03  0.74603851737E+03  0.00000000000E+00 0. -1.
         -4    1    3    3    0  502  0.15474264984E+03 -0.85175660338E+02 -0.40665148826E+03  0.44335720779E+03  0.00000000000E+00 0.  1.
         11    1    5    5    0    0  0.35069651394E+02 -0.57670122534E+02 -0.39603631242E+02  0.78257083318E+02  0.00000000000E+00 0.  1.
        -11    1    5    5    0    0  0.91174996694E+02 -0.68256318742E+02 -0.23445931115E+03  0.26065873025E+03  0.00000000000E+00 0. -1.
          3    1    6    6  503    0 -0.33367933675E+03  0.31830251405E+03  0.21785379579E+03  0.51001830023E+03  0.00000000000E+00 0. -1.
         -3    1    6    6    0  503 -0.12125582098E+03  0.76107917754E+02  0.24418700127E+02  0.14522968768E+03  0.00000000000E+00 0.  1.
<mgrwt>
<rscale>  0 0.18621147E+04</rscale>
<asrwt>0</asrwt>
<pdfrwt beam="1">  1        3 0.25568748E+00 0.18621147E+04</pdfrwt>
<pdfrwt beam="2">  1       -4 0.80244763E-01 0.18621147E+04</pdfrwt>
<totfact> 0.20349199E-01</totfact>
</mgrwt>
</event>
<event>
12    4  0.4320235E-008  0.1187517E+04  0.7818608E-02  0.9123853E-01
          1   -1    0    0  501    0  0.00000000000E+00  0.00000000000E+00  0.87004374016E+03  0.87004374016E+03  0.00000000000E+00 0. -1.
         -2   -1    0    0    0  501 -0.00000000000E+00 -0.00000000000E+00 -0.40520870517E+03  0.40520870517E+03  0.00000000000E+00 0.  1.
        -24    2    1    2    0    0 -0.17190153732E+03 -0.17086618740E+03  0.13544654354E+03  0.28438863473E+03  0.61528342037E+02 0.  0.
        254    2    1    2    0    0  0.17190153732E+03  0.17086618740E+03  0.32938849145E+03  0.99086381060E+03  0.90253471974E+03 0.  0.
         23    2    4    4    0    0 -0.28694449193E+03  0.19143177938E+03 -0.83804127244E+02  0.36650557078E+03  0.91213672590E+02 0.  0.
         23    2    4    4    0    0  0.45884602925E+03 -0.20565591980E+02  0.41319261869E+03  0.62435823982E+03  0.90180094022E+02 0.  0.
          1    1    3    3  502    0 -0.12332448611E+03 -0.15067556137E+03  0.12307821520E+03  0.23034821624E+03  0.00000000000E+00 0. -1.
         -2    1    3    3    0  502 -0.48577051217E+02 -0.20190626036E+02  0.12368328336E+02  0.54040418490E+02  0.00000000000E+00 0.  1.
         11    1    5    5    0    0 -0.23952456484E+03  0.19531545211E+03 -0.76256969528E+02  0.31833200969E+03  0.00000000000E+00 0.  1.
        -11    1    5    5    0    0 -0.47419927086E+02 -0.38836727213E+01 -0.75471577154E+01  0.48173561091E+02  0.00000000000E+00 0. -1.
          3    1    6    6  503    0  0.25101705128E+03 -0.53075303410E+02  0.24873144202E+03  0.35734280196E+03  0.00000000000E+00 0. -1.
         -3    1    6    6    0  503  0.20782897797E+03  0.32509711430E+02  0.16446117666E+03  0.26701543785E+03  0.00000000000E+00 0.  1.
<mgrwt>
<rscale>  0 0.11875172E+04</rscale>
<asrwt>0</asrwt>
<pdfrwt beam="1">  1        1 0.13385288E+00 0.11875172E+04</pdfrwt>
<pdfrwt beam="2">  1       -2 0.62339801E-01 0.11875172E+04</pdfrwt>
<totfact> 0.39940211E+01</totfact>
</mgrwt>
</event>
<event>
12    4  0.4320235E-008  0.1761717E+04  0.7818608E-02  0.8726927E-01
         -4   -1    0    0    0  501 -0.00000000000E+00  0.00000000000E+00  0.29287075104E+03  0.29287075104E+03  0.00000000000E+00 0.  1.
          3   -1    0    0  501    0  0.00000000000E+00 -0.00000000000E+00 -0.26493302481E+04  0.26493302481E+04  0.00000000000E+00 0. -1.
        -24    2    1    2    0    0  0.37077638487E+03 -0.32419817539E+03 -0.16102162254E+04  0.16856703326E+04  0.78157488516E+02 0.  0.
        254    2    1    2    0    0 -0.37077638487E+03  0.32419817539E+03 -0.74624327164E+03  0.12565306666E+04  0.88284240442E+03 0.  0.
         23    2    4    4    0    0 -0.62644641157E+03  0.19745799977E+03 -0.32139688662E+03  0.73673822955E+03  0.89791379952E+02 0.  0.
         23    2    4    4    0    0  0.25567002670E+03  0.12674017562E+03 -0.42484638503E+03  0.51979243702E+03  0.90881747575E+02 0.  0.
          1    1    3    3  502    0  0.37283043947E+03 -0.31164231589E+03 -0.15657179459E+04  0.16393889580E+04  0.00000000000E+00 0. -1.
         -2    1    3    3    0  502 -0.20540545979E+01 -0.12555859495E+02 -0.44498279537E+02  0.46281374544E+02  0.00000000000E+00 0.  1.
         11    1    5    5    0    0 -0.37148044666E+03  0.11365172477E+03 -0.14060973633E+03  0.41314105913E+03  0.00000000000E+00 0. -1.
        -11    1    5    5    0    0 -0.25496596491E+03  0.83806275002E+02 -0.18078715028E+03  0.32359717041E+03  0.00000000000E+00 0.  1.
          1    1    6    6  503    0  0.43788000872E+02  0.34359610489E+02 -0.15384749030E+03  0.16360630221E+03  0.00000000000E+00 0. -1.
         -1    1    6    6    0  503  0.21188202582E+03  0.92380565133E+02 -0.27099889473E+03  0.35618613481E+03  0.00000000000E+00 0.  1.
<mgrwt>
<rscale>  0 0.17617166E+04</rscale>
<asrwt>0</asrwt>
<pdfrwt beam="1">  1        3 0.40758927E+00 0.17617166E+04</pdfrwt>
<pdfrwt beam="2">  1       -4 0.45057039E-01 0.17617166E+04</pdfrwt>
<totfact> 0.10612877E-01</totfact>
</mgrwt>
</event>
<event>
12    4  0.4320235E-008  0.1428766E+04  0.7818608E-02  0.8933256E-01
         -2   -1    0    0    0  501 -0.00000000000E+00  0.00000000000E+00  0.94039393390E+03  0.94039393390E+03  0.00000000000E+00 0.  1.
          1   -1    0    0  501    0  0.00000000000E+00 -0.00000000000E+00 -0.54269060535E+03  0.54269060535E+03  0.00000000000E+00 0. -1.
        -24    2    1    2    0    0  0.71432300241E+02 -0.39142283820E+03 -0.35504712752E+02  0.40709368896E+03  0.78423690172E+02 0.  0.
        254    2    1    2    0    0 -0.71432300241E+02  0.39142283820E+03  0.43320804130E+03  0.10759908503E+04  0.90098429014E+03 0.  0.
         23    2    4    4    0    0 -0.17727837522E+03  0.11028210239E+03 -0.24124003138E+03  0.33176872023E+03  0.91016298276E+02 0.  0.
         23    2    4    4    0    0  0.10584607498E+03  0.28114073581E+03  0.67444807268E+03  0.74422213006E+03  0.93503321908E+02 0.  0.
          3    1    3    3  502    0  0.32268319685E+02 -0.33614597070E+03 -0.26084894828E+02  0.33869718011E+03  0.00000000000E+00 0. -1.
         -4    1    3    3    0  502  0.39163980556E+02 -0.55276867499E+02 -0.94198179241E+01  0.68396508853E+02  0.00000000000E+00 0.  1.
         11    1    5    5    0    0 -0.18718221914E+03  0.10602924643E+03 -0.21863572287E+03  0.30672620295E+03  0.00000000000E+00 0. -1.
        -11    1    5    5    0    0  0.99038439224E+01  0.42528559648E+01 -0.22604308516E+02  0.25042517281E+02  0.00000000000E+00 0.  1.
          3    1    6    6  503    0  0.95963003101E+02  0.26410628693E+03  0.66588448950E+03  0.72274696964E+03  0.00000000000E+00 0. -1.
         -3    1    6    6    0  503  0.98830718778E+01  0.17034448879E+02  0.85635831807E+01  0.21475160424E+02  0.00000000000E+00 0.  1.
<mgrwt>
<rscale>  0 0.14287658E+04</rscale>
<asrwt>0</asrwt>
<pdfrwt beam="1">  1        1 0.83490863E-01 0.14287658E+04</pdfrwt>
<pdfrwt beam="2">  1       -2 0.14467599E+00 0.14287658E+04</pdfrwt>
<totfact> 0.11081029E+01</totfact>
</mgrwt>
</event>
<event>
12    4  0.4320235E-008  0.1501731E+04  0.7818608E-02  0.8883302E-01
         -2   -1    0    0    0  501 -0.00000000000E+00  0.00000000000E+00  0.49101788462E+03  0.49101788462E+03  0.00000000000E+00 0.  1.
          1   -1    0    0  501    0  0.00000000000E+00 -0.00000000000E+00 -0.11482255712E+04  0.11482255712E+04  0.00000000000E+00 0. -1.
        -24    2    1    2    0    0  0.34240437723E+03  0.30809061255E+03 -0.18435793514E+03  0.50227473169E+03  0.78303733967E+02 0.  0.
        254    2    1    2    0    0 -0.34240437723E+03 -0.30809061255E+03 -0.47284975143E+03  0.11369687241E+04  0.92571616013E+03 0.  0.
         23    2    4    4    0    0 -0.17197981514E+03 -0.18969343169E+03 -0.73904160851E+03  0.78755931355E+03  0.92230788850E+02 0.  0.
         23    2    4    4    0    0 -0.17042456210E+03 -0.11839718087E+03  0.26619185708E+03  0.34940941058E+03  0.90368178151E+02 0.  0.
          3    1    3    3  502    0  0.93487304215E+02  0.73550292640E+02 -0.12763583919E+02  0.11963457139E+03  0.00000000000E+00 0. -1.
         -4    1    3    3    0  502  0.24891707302E+03  0.23454031991E+03 -0.17159435122E+03  0.38264016030E+03  0.00000000000E+00 0.  1.
         11    1    5    5    0    0 -0.14158164838E+03 -0.10780258118E+03 -0.40665152989E+03  0.44388312248E+03  0.00000000000E+00 0.  1.
        -11    1    5    5    0    0 -0.30398166757E+02 -0.81890850507E+02 -0.33239007862E+03  0.34367619107E+03  0.00000000000E+00 0. -1.
          4    1    6    6  503    0 -0.14309383339E+02 -0.38247637335E+02  0.16112070822E+02  0.43900330743E+02  0.00000000000E+00 0. -1.
         -4    1    6    6    0  503 -0.15611517876E+03 -0.80149543534E+02  0.25007978626E+03  0.30550907983E+03  0.00000000000E+00 0.  1.
<mgrwt>
<rscale>  0 0.15017314E+04</rscale>
<asrwt>0</asrwt>
<pdfrwt beam="1">  1        1 0.17665009E+00 0.15017314E+04</pdfrwt>
<pdfrwt beam="2">  1       -2 0.75541214E-01 0.15017314E+04</pdfrwt>
<totfact> 0.15553156E+01</totfact>
</mgrwt>
</event>
<event>
12    4  0.4320235E-008  0.1622882E+04  0.7818608E-02  0.8806613E-01
          1   -1    0    0  501    0  0.00000000000E+00  0.00000000000E+00  0.10646504009E+04  0.10646504009E+04  0.00000000000E+00 0. -1.
         -2   -1    0    0    0  501 -0.00000000000E+00 -0.00000000000E+00 -0.61845304237E+03  0.61845304237E+03  0.00000000000E+00 0.  1.
        -24    2    1    2    0    0  0.32977050580E+03  0.25208053154E+02  0.62152773061E+03  0.70860644271E+03  0.80264178229E+02 0.  0.
        254    2    1    2    0    0 -0.32977050580E+03 -0.25208053154E+02 -0.17533037209E+03  0.97449700053E+03  0.89973308944E+03 0.  0.
         23    2    4    4    0    0  0.57019384418E+02 -0.19289689739E+03  0.27399645344E+03  0.35112518647E+03  0.88059166795E+02 0.  0.
         23    2    4    4    0    0 -0.38678989021E+03  0.16768884423E+03 -0.44932682554E+03  0.62337181406E+03  0.94719875243E+02 0.  0.
          1    1    3    3  502    0  0.32290347822E+03  0.38166494102E+02  0.60183069032E+03  0.68404935299E+03  0.00000000000E+00 0. -1.
         -2    1    3    3    0  502  0.68670275708E+01 -0.12958440948E+02  0.19697040290E+02  0.24557089722E+02  0.00000000000E+00 0.  1.
         11    1    5    5    0    0  0.72271545160E+02 -0.19028220253E+03  0.24757543240E+03  0.32050598679E+03  0.00000000000E+00 0.  1.
        -11    1    5    5    0    0 -0.15252160742E+02 -0.26146948589E+01  0.26421021043E+02  0.30619199687E+02  0.00000000000E+00 0. -1.
          2    1    6    6  503    0 -0.16537313849E+03  0.35781037741E+02 -0.13219644794E+03  0.21471948781E+03  0.00000000000E+00 0. -1.
         -2    1    6    6    0  503 -0.22141675172E+03  0.13190780649E+03 -0.31713037760E+03  0.40865232625E+03  0.00000000000E+00 0.  1.
<mgrwt>
<rscale>  0 0.16228817E+04</rscale>
<asrwt>0</asrwt>
<pdfrwt beam="1">  1        1 0.16379237E+00 0.16228817E+04</pdfrwt>
<pdfrwt beam="2">  1       -2 0.95146622E-01 0.16228817E+04</pdfrwt>
<totfact> 0.10517344E+01</totfact>
</mgrwt>
</event>
<event>
12    4  0.4320235E-008  0.2954065E+04  0.7818608E-02  0.8256971E-01
          1   -1    0    0  501    0  0.00000000000E+00  0.00000000000E+00  0.34297774699E+04  0.34297774699E+04  0.00000000000E+00 0. -1.
         -4   -1    0    0    0  501 -0.00000000000E+00 -0.00000000000E+00 -0.63608366984E+03  0.63608366984E+03  0.00000000000E+00 0.  1.
        -24    2    1    2    0    0 -0.87698917390E+03  0.10529146464E+03  0.26477232493E+04  0.27923153674E+04  0.79939992224E+02 0.  0.
        254    2    1    2    0    0  0.87698917390E+03 -0.10529146464E+03  0.14597055071E+03  0.12735457723E+04  0.90576770137E+03 0.  0.
         23    2    4    4    0    0  0.10415259443E+04  0.57550669740E+01  0.14989339058E+03  0.10563871979E+04  0.93147570464E+02 0.  0.
         23    2    4    4    0    0 -0.16453677041E+03 -0.11104653162E+03 -0.39228398703E+01  0.21715857442E+03  0.87970317559E+02 0.  0.
          1    1    3    3  502    0 -0.57445546536E+03  0.47872126626E+02  0.16233709278E+04  0.17226793060E+04  0.00000000000E+00 0. -1.
         -2    1    3    3    0  502 -0.30253370854E+03  0.57419338017E+02  0.10243523215E+04  0.10696360614E+04  0.00000000000E+00 0.  1.
         11    1    5    5    0    0  0.28846376685E+03  0.26028781883E+02  0.76249598743E+01  0.28973605624E+03  0.00000000000E+00 0.  1.
        -11    1    5    5    0    0  0.75306217745E+03 -0.20273714909E+02  0.14226843071E+03  0.76665114166E+03  0.00000000000E+00 0. -1.
          4    1    6    6  503    0 -0.15216050229E+03 -0.77891509920E+02  0.23287721130E+02  0.17251731429E+03  0.00000000000E+00 0. -1.
         -4    1    6    6    0  503 -0.12376268121E+02 -0.33155021697E+02 -0.27210561000E+02  0.44641260133E+02  0.00000000000E+00 0.  1.
<mgrwt>
<rscale>  0 0.29540653E+04</rscale>
<asrwt>0</asrwt>
<pdfrwt beam="1">  1        1 0.52765806E+00 0.29540653E+04</pdfrwt>
<pdfrwt beam="2">  1       -4 0.97859028E-01 0.29540653E+04</pdfrwt>
<totfact> 0.10445084E-01</totfact>
</mgrwt>
</event>
<event>
12    4  0.4320235E-008  0.1451859E+04  0.7818608E-02  0.8917112E-01
          1   -1    0    0  501    0  0.00000000000E+00  0.00000000000E+00  0.22009107158E+04  0.22009107158E+04  0.00000000000E+00 0. -1.
         -2   -1    0    0    0  501 -0.00000000000E+00 -0.00000000000E+00 -0.23943446893E+03  0.23943446893E+03  0.00000000000E+00 0.  1.
        -24    2    1    2    0    0  0.57895334370E+02  0.25686546675E+03  0.12218775575E+04  0.12525540326E+04  0.81086997791E+02 0.  0.
        254    2    1    2    0    0 -0.57895334370E+02 -0.25686546675E+03  0.73959868929E+03  0.11877911521E+04  0.89135282691E+03 0.  0.
         23    2    4    4    0    0  0.33361089319E+03 -0.36522310067E+03  0.49505518495E+03  0.70495754641E+03  0.84860855442E+02 0.  0.
         23    2    4    4    0    0 -0.39150622756E+03  0.10835763392E+03  0.24454350434E+03  0.48283360568E+03  0.91149669287E+02 0.  0.
          3    1    3    3  502    0  0.51301554374E+02  0.19263078661E+03  0.74042154722E+03  0.76678715236E+03  0.00000000000E+00 0. -1.
         -4    1    3    3    0  502  0.65937799960E+01  0.64234680134E+02  0.48145601032E+03  0.48576688024E+03  0.00000000000E+00 0.  1.
         11    1    5    5    0    0  0.20594236949E+03 -0.21048371130E+03  0.34999682932E+03  0.45739854920E+03  0.00000000000E+00 0.  1.
        -11    1    5    5    0    0  0.12766852369E+03 -0.15473938937E+03  0.14505835563E+03  0.24755899721E+03  0.00000000000E+00 0. -1.
          2    1    6    6  503    0 -0.18848162027E+03  0.74717539243E+01  0.12765616759E+03  0.22776576875E+03  0.00000000000E+00 0. -1.
         -2    1    6    6    0  503 -0.20302460729E+03  0.10088587999E+03  0.11688733675E+03  0.25506783693E+03  0.00000000000E+00 0.  1.
<mgrwt>
<rscale>  0 0.14518593E+04</rscale>
<asrwt>0</asrwt>
<pdfrwt beam="1">  1        1 0.33860164E+00 0.14518593E+04</pdfrwt>
<pdfrwt beam="2">  1       -2 0.36836074E-01 0.14518593E+04</pdfrwt>
<totfact> 0.12896767E+01</totfact>
</mgrwt>
</event>
<event>
12    4  0.4320235E-008  0.1980016E+04  0.7818608E-02  0.8616021E-01
          1   -1    0    0  501    0  0.00000000000E+00  0.00000000000E+00  0.82913575211E+03  0.82913575211E+03  0.00000000000E+00 0. -1.
         -2   -1    0    0    0  501 -0.00000000000E+00 -0.00000000000E+00 -0.11820935054E+04  0.11820935054E+04  0.00000000000E+00 0.  1.
        -24    2    1    2    0    0  0.72630895037E+03 -0.28194066708E+03 -0.22341741833E+03  0.81447760951E+03  0.80269561133E+02 0.  0.
        254    2    1    2    0    0 -0.72630895037E+03  0.28194066708E+03 -0.12954033498E+03  0.11967516480E+04  0.89912100271E+03 0.  0.
         23    2    4    4    0    0 -0.29512403009E+03 -0.18032635669E+03 -0.36971878005E+03  0.51443585905E+03  0.91304373921E+02 0.  0.
         23    2    4    4    0    0 -0.43118492028E+03  0.46226702377E+03  0.24017844507E+03  0.68231578897E+03  0.90873063477E+02 0.  0.
          3    1    3    3  502    0  0.53429716932E+03 -0.23533505176E+03 -0.19080684897E+03  0.61421763679E+03  0.00000000000E+00 0. -1.
         -4    1    3    3    0  502  0.19201178105E+03 -0.46605615318E+02 -0.32610569367E+02  0.20025997272E+03  0.00000000000E+00 0.  1.
         11    1    5    5    0    0 -0.84648167213E+01 -0.52745325228E+01 -0.49071001958E+02  0.50074315258E+02  0.00000000000E+00 0.  1.
        -11    1    5    5    0    0 -0.28665921337E+03 -0.17505182417E+03 -0.32064777809E+03  0.46436154379E+03  0.00000000000E+00 0. -1.
          1    1    6    6  503    0 -0.21353612818E+03  0.29419733956E+03  0.14366077585E+03  0.39088127502E+03  0.00000000000E+00 0. -1.
         -1    1    6    6    0  503 -0.21764879210E+03  0.16806968421E+03  0.96517669220E+02  0.29143451396E+03  0.00000000000E+00 0.  1.
<mgrwt>
<rscale>  0 0.19800161E+04</rscale>
<asrwt>0</asrwt>
<pdfrwt beam="1">  1        1 0.12755935E+00 0.19800161E+04</pdfrwt>
<pdfrwt beam="2">  1       -2 0.18186054E+00 0.19800161E+04</pdfrwt>
<totfact> 0.29893744E+00</totfact>
</mgrwt>
</event>
<event>
12    4  0.4320235E-008  0.2350741E+04  0.7818608E-02  0.8458179E-01
          1   -1    0    0  501    0  0.00000000000E+00  0.00000000000E+00  0.43081085705E+04  0.43081085705E+04  0.00000000000E+00 0. -1.
         -2   -1    0    0    0  501 -0.00000000000E+00 -0.00000000000E+00 -0.32067335327E+03  0.32067335327E+03  0.00000000000E+00 0.  1.
        -24    2    1    2    0    0  0.60765698778E+03  0.58816708173E+02  0.15285475997E+03  0.63445673580E+03  0.80401194051E+02 0.  0.
        254    2    1    2    0    0 -0.60765698778E+03 -0.58816708173E+02  0.38345804572E+04  0.39943251879E+04  0.93697385448E+03 0.  0.
         23    2    4    4    0    0 -0.69413580249E+03 -0.27283304813E+03  0.18895138440E+04  0.20334764029E+04  0.92202657560E+02 0.  0.
         23    2    4    4    0    0  0.86478814708E+02  0.21401633996E+03  0.19450666132E+04  0.19608487850E+04  0.91445331510E+02 0.  0.
          3    1    3    3  502    0  0.19312477247E+03  0.73531250887E+01  0.12014919951E+02  0.19363781783E+03  0.00000000000E+00 0. -1.
         -4    1    3    3    0  502  0.41453221531E+03  0.51463583084E+02  0.14083984001E+03  0.44081891798E+03  0.00000000000E+00 0.  1.
         11    1    5    5    0    0 -0.17880102285E+03 -0.33342888860E+02  0.40747508992E+03  0.44622584295E+03  0.00000000000E+00 0. -1.
        -11    1    5    5    0    0 -0.51533477964E+03 -0.23949015927E+03  0.14820387541E+04  0.15872505600E+04  0.00000000000E+00 0.  1.
          2    1    6    6  503    0  0.84322417163E+02  0.12215990141E+03  0.94710669836E+03  0.95866803932E+03  0.00000000000E+00 0. -1.
         -2    1    6    6    0  503  0.21563975450E+01  0.91856438548E+02  0.99795991486E+03  0.10021807457E+04  0.00000000000E+00 0.  1.
<mgrwt>
<rscale>  0 0.23507408E+04</rscale>
<asrwt>0</asrwt>
<pdfrwt beam="1">  1        1 0.66278589E+00 0.23507408E+04</pdfrwt>
<pdfrwt beam="2">  1       -2 0.49334365E-01 0.23507408E+04</pdfrwt>
<totfact> 0.15465194E-01</totfact>
</mgrwt>
</event>
<event>
12    4  0.4320235E-008  0.2429900E+04  0.7818608E-02  0.8428394E-01
         -2   -1    0    0    0  501 -0.00000000000E+00  0.00000000000E+00  0.65755323312E+03  0.65755323312E+03  0.00000000000E+00 0.  1.
          1   -1    0    0  501    0  0.00000000000E+00 -0.00000000000E+00 -0.22448426994E+04  0.22448426994E+04  0.00000000000E+00 0. -1.
        -24    2    1    2    0    0  0.79732080652E+03  0.21444256871E+03  0.80655208464E+02  0.83376364936E+03  0.83369518139E+02 0.  0.
        254    2    1    2    0    0 -0.79732080652E+03 -0.21444256871E+03 -0.16679446748E+04  0.20686322832E+04  0.90304706476E+03 0.  0.
         23    2    4    4    0    0  0.65416775807E+02  0.99487464951E+02  0.12937435027E+02  0.15124846127E+03  0.92366712466E+02 0.  0.
         23    2    4    4    0    0 -0.86273758233E+03 -0.31393003366E+03 -0.16808821098E+04  0.19173838219E+04  0.90154597970E+02 0.  0.
          3    1    3    3  502    0  0.17749218665E+03  0.12398184870E+02  0.16718662968E+02  0.17870843573E+03  0.00000000000E+00 0. -1.
         -4    1    3    3    0  502  0.61982861987E+03  0.20204438384E+03  0.63936545496E+02  0.65505521362E+03  0.00000000000E+00 0.  1.
         11    1    5    5    0    0 -0.79809604695E+01  0.52478541064E+02 -0.21848015887E+02  0.57402341419E+02  0.00000000000E+00 0. -1.
        -11    1    5    5    0    0  0.73397736277E+02  0.47008923887E+02  0.34785450914E+02  0.93846119850E+02  0.00000000000E+00 0.  1.
          4    1    6    6  503    0 -0.21964776524E+03 -0.12102685309E+03 -0.47954971063E+03  0.54116593103E+03  0.00000000000E+00 0. -1.
         -4    1    6    6    0  503 -0.64308981709E+03 -0.19290318057E+03 -0.12013323992E+04  0.13762178909E+04  0.00000000000E+00 0.  1.
<mgrwt>
<rscale>  0 0.24299001E+04</rscale>
<asrwt>0</asrwt>
<pdfrwt beam="1">  1        1 0.34536041E+00 0.24299001E+04</pdfrwt>
<pdfrwt beam="2">  1       -2 0.10116204E+00 0.24299001E+04</pdfrwt>
<totfact> 0.12814471E+00</totfact>
</mgrwt>
</event>
<event>
12    4  0.4320235E-008  0.2438123E+04  0.7818608E-02  0.8425367E-01
          1   -1    0    0  501    0  0.00000000000E+00  0.00000000000E+00  0.31235551133E+04  0.31235551133E+04  0.00000000000E+00 0. -1.
         -2   -1    0    0    0  501 -0.00000000000E+00 -0.00000000000E+00 -0.47577548049E+03  0.47577548049E+03  0.00000000000E+00 0.  1.
        -24    2    1    2    0    0  0.66929354819E+03  0.77587235111E+03  0.78921736409E+03  0.12958062004E+04  0.79485232885E+02 0.  0.
        254    2    1    2    0    0 -0.66929354819E+03 -0.77587235111E+03  0.18585622688E+04  0.23035243935E+04  0.89556639372E+03 0.  0.
         23    2    4    4    0    0 -0.10820236305E+03 -0.69553243432E+03  0.13936745282E+04  0.15643104804E+04  0.96257310273E+02 0.  0.
         23    2    4    4    0    0 -0.56109118514E+03 -0.80339916798E+02  0.46488774051E+03  0.73921391309E+03  0.95072486844E+02 0.  0.
          1    1    3    3  502    0  0.97107381332E+02  0.99768688986E+02  0.75984931569E+02  0.15861067000E+03  0.00000000000E+00 0. -1.
         -2    1    3    3    0  502  0.57218616685E+03  0.67610366213E+03  0.71323243252E+03  0.11371955304E+04  0.00000000000E+00 0.  1.
         11    1    5    5    0    0  0.52841756339E+01 -0.22302410564E+03  0.48540148443E+03  0.53421182624E+03  0.00000000000E+00 0. -1.
        -11    1    5    5    0    0 -0.11348653868E+03 -0.47250832868E+03  0.90827304381E+03  0.10300986541E+04  0.00000000000E+00 0.  1.
          3    1    6    6  503    0 -0.40176522606E+03 -0.99733669013E+02  0.34508445764E+03  0.53892985119E+03  0.00000000000E+00 0. -1.
         -3    1    6    6    0  503 -0.15932595908E+03  0.19393752215E+02  0.11980328287E+03  0.20028406190E+03  0.00000000000E+00 0.  1.
<mgrwt>
<rscale>  0 0.24381230E+04</rscale>
<asrwt>0</asrwt>
<pdfrwt beam="1">  1        1 0.48054693E+00 0.24381230E+04</pdfrwt>
<pdfrwt beam="2">  1       -2 0.73196230E-01 0.24381230E+04</pdfrwt>
<totfact> 0.64177159E-01</totfact>
</mgrwt>
</event>
<event>
12    4  0.4320235E-008  0.1740123E+04  0.7818608E-02  0.8738806E-01
         -2   -1    0    0    0  501 -0.00000000000E+00  0.00000000000E+00  0.47107349954E+03  0.47107349954E+03  0.00000000000E+00 0.  1.
          1   -1    0    0  501    0  0.00000000000E+00 -0.00000000000E+00 -0.16069830771E+04  0.16069830771E+04  0.00000000000E+00 0. -1.
        -24    2    1    2    0    0  0.55911356958E+03 -0.82151400806E+02 -0.71172544438E+03  0.91036392054E+03  0.53409018848E+02 0.  0.
        254    2    1    2    0    0 -0.55911356958E+03  0.82151400806E+02 -0.42418413320E+03  0.11676926561E+04  0.92963278985E+03 0.  0.
         23    2    4    4    0    0 -0.52805659181E+03 -0.43291523122E+02 -0.67983155863E+03  0.86667657832E+03  0.90771268430E+02 0.  0.
         23    2    4    4    0    0 -0.31056977775E+02  0.12544292393E+03  0.25564742543E+03  0.30101607781E+03  0.92491134367E+02 0.  0.
          3    1    3    3  502    0  0.28431636891E+03 -0.23350947159E+02 -0.38982161617E+03  0.48305481759E+03  0.00000000000E+00 0. -1.
         -4    1    3    3    0  502  0.27479720067E+03 -0.58800453647E+02 -0.32190382821E+03  0.42730910295E+03  0.00000000000E+00 0.  1.
         11    1    5    5    0    0 -0.32851989013E+03 -0.67530202303E+02 -0.39721829189E+03  0.51987307860E+03  0.00000000000E+00 0. -1.
        -11    1    5    5    0    0 -0.19953670167E+03  0.24238679181E+02 -0.28261326674E+03  0.34680349972E+03  0.00000000000E+00 0.  1.
          2    1    6    6  503    0 -0.20721003846E+02  0.60551495223E+02  0.21365595893E+03  0.22303522673E+03  0.00000000000E+00 0.  1.
         -2    1    6    6    0  503 -0.10335973929E+02  0.64891428705E+02  0.41991466500E+02  0.77980851081E+02  0.00000000000E+00 0. -1.
<mgrwt>
<rscale>  0 0.17401231E+04</rscale>
<asrwt>0</asrwt>
<pdfrwt beam="1">  1        1 0.24722816E+00 0.17401231E+04</pdfrwt>
<pdfrwt beam="2">  1       -2 0.72472848E-01 0.17401231E+04</pdfrwt>
<totfact> 0.79128373E+00</totfact>
</mgrwt>
</event>
<event>
12    4  0.4320235E-008  0.1832687E+04  0.7818608E-02  0.8689108E-01
         -2   -1    0    0    0  501 -0.00000000000E+00  0.00000000000E+00  0.48595482817E+03  0.48595482817E+03  0.00000000000E+00 0.  1.
          1   -1    0    0  501    0  0.00000000000E+00 -0.00000000000E+00 -0.17279074723E+04  0.17279074723E+04  0.00000000000E+00 0. -1.
        -24    2    1    2    0    0  0.28748919752E+03 -0.11601265343E+03 -0.12083371979E+04  0.12499740462E+04  0.79040230564E+02 0.  0.
        254    2    1    2    0    0 -0.28748919752E+03  0.11601265343E+03 -0.33615446262E+02  0.96388825425E+03  0.91205350392E+03 0.  0.
         23    2    4    4    0    0 -0.40247071537E+03 -0.84489684994E+02 -0.35885120967E+03  0.55311032349E+03  0.89641818750E+02 0.  0.
         23    2    4    4    0    0  0.11498151785E+03  0.20050233842E+03  0.32523576341E+03  0.41077793076E+03  0.97664064191E+02 0.  0.
          3    1    3    3  502    0  0.21974252810E+03 -0.73702261370E+02 -0.10079596208E+04  0.10342636990E+04  0.00000000000E+00 0. -1.
         -4    1    3    3    0  502  0.67746669419E+02 -0.42310392056E+02 -0.20037757709E+03  0.21571034721E+03  0.00000000000E+00 0.  1.
         11    1    5    5    0    0 -0.31347774356E+03 -0.60075255610E+02 -0.22493623499E+03  0.39047873420E+03  0.00000000000E+00 0.  1.
        -11    1    5    5    0    0 -0.88992971805E+02 -0.24414429385E+02 -0.13391497468E+03  0.16263158930E+03  0.00000000000E+00 0. -1.
          3    1    6    6  503    0  0.19551352641E+02 -0.70176273739E+01  0.42519252416E+02  0.47322186235E+02  0.00000000000E+00 0. -1.
         -3    1    6    6    0  503  0.95430165212E+02  0.20751996579E+03  0.28271651100E+03  0.36345574452E+03  0.00000000000E+00 0.  1.
<mgrwt>
<rscale>  0 0.18326865E+04</rscale>
<asrwt>0</asrwt>
<pdfrwt beam="1">  1        1 0.26583192E+00 0.18326865E+04</pdfrwt>
<pdfrwt beam="2">  1       -2 0.74762281E-01 0.18326865E+04</pdfrwt>
<totfact> 0.60591638E+00</totfact>
</mgrwt>
</event>
<event>
12    4  0.4320235E-008  0.1333471E+04  0.7818608E-02  0.9003436E-01
          1   -1    0    0  501    0  0.00000000000E+00  0.00000000000E+00  0.13577151632E+04  0.13577151632E+04  0.00000000000E+00 0. -1.
         -2   -1    0    0    0  501 -0.00000000000E+00 -0.00000000000E+00 -0.32741483927E+03  0.32741483927E+03  0.00000000000E+00 0.  1.
        -24    2    1    2    0    0 -0.21524660504E+01  0.40986127514E+03  0.25844131706E+03  0.49102982627E+03  0.79545445864E+02 0.  0.
        254    2    1    2    0    0  0.21524660504E+01 -0.40986127514E+03  0.77185900686E+03  0.11941001762E+04  0.81370633912E+03 0.  0.
         23    2    4    4    0    0  0.29204062417E+03 -0.23460260188E+02  0.36685572942E+02  0.30954033916E+03  0.92904684136E+02 0.  0.
         23    2    4    4    0    0 -0.28988815812E+03 -0.38640101495E+03  0.73517343392E+03  0.88455983702E+03  0.92872163541E+02 0.  0.
          3    1    3    3  502    0 -0.32824677649E+02  0.24966612180E+03  0.18321096205E+03  0.31141112449E+03  0.00000000000E+00 0. -1.
         -4    1    3    3    0  502  0.30672211599E+02  0.16019515333E+03  0.75230355011E+02  0.17961870178E+03  0.00000000000E+00 0.  1.
         11    1    5    5    0    0  0.17577891255E+03  0.23531507383E+02 -0.49311374312E+01  0.17741554062E+03  0.00000000000E+00 0. -1.
        -11    1    5    5    0    0  0.11626171162E+03 -0.46991767571E+02  0.41616710373E+02  0.13212479854E+03  0.00000000000E+00 0.  1.
          1    1    6    6  503    0 -0.25669195676E+03 -0.31833489913E+03  0.66852104809E+03  0.78367611959E+03  0.00000000000E+00 0. -1.
         -1    1    6    6    0  503 -0.33196201355E+02 -0.68066115815E+02  0.66652385832E+02  0.10088371744E+03  0.00000000000E+00 0.  1.
<mgrwt>
<rscale>  0 0.13334708E+04</rscale>
<asrwt>0</asrwt>
<pdfrwt beam="1">  1        1 0.20887925E+00 0.13334708E+04</pdfrwt>
<pdfrwt beam="2">  1       -2 0.50371514E-01 0.13334708E+04</pdfrwt>
<totfact> 0.26370281E+01</totfact>
</mgrwt>
</event>
<event>
12    4  0.4320235E-008  0.1434614E+04  0.7818608E-02  0.8929137E-01
          1   -1    0    0  501    0  0.00000000000E+00  0.00000000000E+00  0.30144201488E+03  0.30144201488E+03  0.00000000000E+00 0. -1.
         -2   -1    0    0    0  501 -0.00000000000E+00 -0.00000000000E+00 -0.17068933237E+04  0.17068933237E+04  0.00000000000E+00 0.  1.
        -24    2    1    2    0    0  0.31234431869E+03 -0.13966216802E+03 -0.67583145596E+02  0.36081558377E+03  0.92498158485E+02 0.  0.
        254    2    1    2    0    0 -0.31234431869E+03  0.13966216802E+03 -0.13378681633E+04  0.16475197549E+04  0.89853526685E+03 0.  0.
         23    2    4    4    0    0 -0.17322078459E+02 -0.33255352422E+03 -0.26105076189E+03  0.43179820068E+03  0.86083011990E+02 0.  0.
         23    2    4    4    0    0 -0.29502224023E+03  0.47221569224E+03 -0.10768174014E+04  0.12157215542E+04  0.91746384998E+02 0.  0.
          1    1    3    3  502    0  0.15864798094E+03 -0.12073069041E+03 -0.31870104378E+02  0.20189300388E+03  0.00000000000E+00 0. -1.
         -2    1    3    3    0  502  0.15369633776E+03 -0.18931477608E+02 -0.35713041218E+02  0.15892257988E+03  0.00000000000E+00 0.  1.
         11    1    5    5    0    0 -0.75438364182E+01 -0.23826881427E+02 -0.55237944166E+02  0.60628872842E+02  0.00000000000E+00 0. -1.
        -11    1    5    5    0    0 -0.97782420408E+01 -0.30872664279E+03 -0.20581281772E+03  0.37116932783E+03  0.00000000000E+00 0.  1.
          4    1    6    6  503    0 -0.46455002400E+02  0.15192153061E+03 -0.29965438903E+03  0.33916216118E+03  0.00000000000E+00 0. -1.
         -4    1    6    6    0  503 -0.24856723783E+03  0.32029416163E+03 -0.77716301235E+03  0.87655939301E+03  0.00000000000E+00 0.  1.
<mgrwt>
<rscale>  0 0.14346140E+04</rscale>
<asrwt>0</asrwt>
<pdfrwt beam="1">  1        1 0.46375693E-01 0.14346140E+04</pdfrwt>
<pdfrwt beam="2">  1       -2 0.26259898E+00 0.14346140E+04</pdfrwt>
<totfact> 0.39859403E+00</totfact>
</mgrwt>
</event>
<event>
12    4  0.4320235E-008  0.1114683E+04  0.7818608E-02  0.9190998E-01
         -4   -1    0    0    0  501 -0.00000000000E+00  0.00000000000E+00  0.19501116739E+04  0.19501116739E+04  0.00000000000E+00 0.  1.
          1   -1    0    0  501    0  0.00000000000E+00 -0.00000000000E+00 -0.15928814757E+03  0.15928814757E+03  0.00000000000E+00 0. -1.
        -24    2    1    2    0    0  0.11638351568E+03 -0.13613911848E+02  0.46498235707E+02  0.14919911587E+03  0.79798677516E+02 0.  0.
        254    2    1    2    0    0 -0.11638351568E+03  0.13613911848E+02  0.17443252906E+04  0.19602007056E+04  0.88655830346E+03 0.  0.
         23    2    4    4    0    0 -0.89894948870E+02  0.42821293933E+03  0.11063891376E+04  0.11933372638E+04  0.92246832351E+02 0.  0.
         23    2    4    4    0    0 -0.26488566811E+02 -0.41459902748E+03  0.63793615301E+03  0.76686344182E+03  0.92320124144E+02 0.  0.
          3    1    3    3  502    0  0.62667268177E+02  0.22432719366E+02 -0.46612234216E+01  0.66724361388E+02  0.00000000000E+00 0. -1.
         -4    1    3    3    0  502  0.53716247504E+02 -0.36046631214E+02  0.51159459128E+02  0.82474754478E+02  0.00000000000E+00 0.  1.
         11    1    5    5    0    0 -0.19278066644E+02  0.20823576802E+03  0.63159068379E+03  0.66531238587E+03  0.00000000000E+00 0. -1.
        -11    1    5    5    0    0 -0.70616882226E+02  0.21997717130E+03  0.47479845378E+03  0.52802487788E+03  0.00000000000E+00 0.  1.
          2    1    6    6  503    0 -0.55820998220E+02 -0.32630000563E+03  0.47010221945E+03  0.57496415040E+03  0.00000000000E+00 0. -1.
         -2    1    6    6    0  503  0.29332431409E+02 -0.88299021854E+02  0.16783393356E+03  0.19189929142E+03  0.00000000000E+00 0.  1.
<mgrwt>
<rscale>  0 0.11146832E+04</rscale>
<asrwt>0</asrwt>
<pdfrwt beam="1">  1        1 0.24505870E-01 0.11146832E+04</pdfrwt>
<pdfrwt beam="2">  1       -4 0.30001716E+00 0.11146832E+04</pdfrwt>
<totfact> 0.29304995E+00</totfact>
</mgrwt>
</event>
<event>
12    4  0.4320235E-008  0.2060754E+04  0.7818608E-02  0.8578731E-01
         -2   -1    0    0    0  501 -0.00000000000E+00  0.00000000000E+00  0.36557194056E+03  0.36557194056E+03  0.00000000000E+00 0.  1.
          1   -1    0    0  501    0  0.00000000000E+00 -0.00000000000E+00 -0.29041522408E+04  0.29041522408E+04  0.00000000000E+00 0. -1.
        -24    2    1    2    0    0  0.45534180182E+03  0.29077630889E+03 -0.48199196457E+01  0.54645421727E+03  0.81865509506E+02 0.  0.
        254    2    1    2    0    0 -0.45534180182E+03 -0.29077630889E+03 -0.25337603806E+04  0.27232699641E+04  0.83926790284E+03 0.  0.
         23    2    4    4    0    0 -0.42130603884E+03 -0.56133748547E+03 -0.18982650956E+04  0.20259471221E+04  0.91939206702E+02 0.  0.
         23    2    4    4    0    0 -0.34035762983E+02  0.27056117658E+03 -0.63549528503E+03  0.69732284194E+03  0.89683360601E+02 0.  0.
          3    1    3    3  502    0  0.91029790993E+02  0.22117753325E+02  0.30170440752E+01  0.93726839355E+02  0.00000000000E+00 0. -1.
         -4    1    3    3    0  502  0.36431201083E+03  0.26865855557E+03 -0.78369637209E+01  0.45272737791E+03  0.00000000000E+00 0.  1.
         11    1    5    5    0    0 -0.31171934232E+03 -0.43817806644E+03 -0.15500859700E+04  0.16407118823E+04  0.00000000000E+00 0.  1.
        -11    1    5    5    0    0 -0.10958669652E+03 -0.12315941904E+03 -0.34817912559E+03  0.38523523988E+03  0.00000000000E+00 0. -1.
          4    1    6    6  503    0 -0.93648782072E+01  0.24467805959E+03 -0.59434642338E+03  0.64280846663E+03  0.00000000000E+00 0. -1.
         -4    1    6    6    0  503 -0.24670884776E+02  0.25883116989E+02 -0.41148861650E+02  0.54514375313E+02  0.00000000000E+00 0.  1.
<mgrwt>
<rscale>  0 0.20607538E+04</rscale>
<asrwt>0</asrwt>
<pdfrwt beam="1">  1        1 0.44679265E+00 0.20607538E+04</pdfrwt>
<pdfrwt beam="2">  1       -2 0.56241837E-01 0.20607538E+04</pdfrwt>
<totfact> 0.16902932E+00</totfact>
</mgrwt>
</event>
<event>
12    4  0.4320235E-008  0.1586365E+04  0.7818608E-02  0.8828969E-01
         -2   -1    0    0    0  501 -0.00000000000E+00  0.00000000000E+00  0.12112272318E+04  0.12112272318E+04  0.00000000000E+00 0.  1.
          1   -1    0    0  501    0  0.00000000000E+00 -0.00000000000E+00 -0.51942219242E+03  0.51942219242E+03  0.00000000000E+00 0. -1.
        -24    2    1    2    0    0 -0.34083340580E+03  0.35632877489E+03  0.11219129237E+02  0.49958353749E+03  0.79499910315E+02 0.  0.
        254    2    1    2    0    0  0.34083340580E+03 -0.35632877489E+03  0.68058591020E+03  0.12310658868E+04  0.89954901484E+03 0.  0.
         23    2    4    4    0    0 -0.20394671351E+03 -0.32557718593E+03  0.59437617550E+02  0.39906691132E+03  0.90148784680E+02 0.  0.
         23    2    4    4    0    0  0.54478011932E+03 -0.30751588960E+02  0.62114829264E+03  0.83199897546E+03  0.93091648803E+02 0.  0.
          3    1    3    3  502    0 -0.17663768834E+03  0.21583511171E+03  0.39343825179E+02  0.28166221786E+03  0.00000000000E+00 0. -1.
         -4    1    3    3    0  502 -0.16419571746E+03  0.14049366319E+03 -0.28124695942E+02  0.21792131963E+03  0.00000000000E+00 0.  1.
         11    1    5    5    0    0 -0.15875250208E+03 -0.18123660031E+03  0.57968642506E+02  0.24780925270E+03  0.00000000000E+00 0. -1.
        -11    1    5    5    0    0 -0.45194211433E+02 -0.14434058562E+03  0.14689750444E+01  0.15125765862E+03  0.00000000000E+00 0.  1.
          4    1    6    6  503    0  0.28495791467E+03 -0.70086439131E+01  0.25537751197E+03  0.38271112845E+03  0.00000000000E+00 0. -1.
         -4    1    6    6    0  503  0.25982220465E+03 -0.23742945047E+02  0.36577078068E+03  0.44928784700E+03  0.00000000000E+00 0.  1.
<mgrwt>
<rscale>  0 0.15863648E+04</rscale>
<asrwt>0</asrwt>
<pdfrwt beam="1">  1        1 0.79911107E-01 0.15863648E+04</pdfrwt>
<pdfrwt beam="2">  1       -2 0.18634265E+00 0.15863648E+04</pdfrwt>
<totfact> 0.57900562E+00</totfact>
</mgrwt>
</event>
<event>
12    4  0.4320235E-008  0.2864243E+04  0.7818608E-02  0.8283596E-01
         -2   -1    0    0    0  501 -0.00000000000E+00  0.00000000000E+00  0.12042847742E+04  0.12042847742E+04  0.00000000000E+00 0.  1.
          1   -1    0    0  501    0  0.00000000000E+00 -0.00000000000E+00 -0.17030625017E+04  0.17030625017E+04  0.00000000000E+00 0. -1.
        -24    2    1    2    0    0  0.31098911149E+03  0.89520222398E+03 -0.11131416561E+04  0.14641857306E+04  0.81573633404E+02 0.  0.
        254    2    1    2    0    0 -0.31098911149E+03 -0.89520222398E+03  0.61436392863E+03  0.14431615454E+04  0.89842693639E+03 0.  0.
         23    2    4    4    0    0 -0.14418584352E+03 -0.10074334547E+04  0.66166387574E+03  0.12172804028E+04  0.90888785204E+02 0.  0.
         23    2    4    4    0    0 -0.16680326797E+03  0.11223123076E+03 -0.47299947108E+02  0.22588114265E+03  0.91464890770E+02 0.  0.
          3    1    3    3  502    0  0.10552218701E+03  0.40377193819E+03 -0.52565989446E+03  0.67118181938E+03  0.00000000000E+00 0. -1.
         -2    1    3    3    0  502  0.20546692448E+03  0.49143028579E+03 -0.58748176168E+03  0.79300391118E+03  0.00000000000E+00 0.  1.
         11    1    5    5    0    0 -0.12001620663E+03 -0.74436103008E+03  0.44409513011E+03  0.87504155189E+03  0.00000000000E+00 0.  1.
        -11    1    5    5    0    0 -0.24169636887E+02 -0.26307242466E+03  0.21756874563E+03  0.34223885086E+03  0.00000000000E+00 0. -1.
          2    1    6    6  503    0 -0.89504440252E+02  0.53439608359E+02 -0.70735094784E+02  0.12597734003E+03  0.00000000000E+00 0. -1.
         -2    1    6    6    0  503 -0.77298827719E+02  0.58791622398E+02  0.23435147676E+02  0.99903802618E+02  0.00000000000E+00 0.  1.
<mgrwt>
<rscale>  0 0.28642432E+04</rscale>
<asrwt>0</asrwt>
<pdfrwt beam="1">  1        1 0.26200962E+00 0.28642432E+04</pdfrwt>
<pdfrwt beam="2">  1       -2 0.18527458E+00 0.28642432E+04</pdfrwt>
<totfact> 0.59862738E-01</totfact>
</mgrwt>
</event>
<event>
12    4  0.4320235E-008  0.1259494E+04  0.7818608E-02  0.9062318E-01
          1   -1    0    0  501    0  0.00000000000E+00  0.00000000000E+00  0.11342411883E+04  0.11342411883E+04  0.00000000000E+00 0. -1.
         -2   -1    0    0    0  501 -0.00000000000E+00 -0.00000000000E+00 -0.34964444879E+03  0.34964444879E+03  0.00000000000E+00 0.  1.
        -24    2    1    2    0    0 -0.26687708021E+03 -0.14863797603E+03  0.24078848647E+03  0.39722098073E+03  0.80553016446E+02 0.  0.
        254    2    1    2    0    0  0.26687708021E+03  0.14863797603E+03  0.54380825305E+03  0.10866646564E+04  0.88982921702E+03 0.  0.
         23    2    4    4    0    0  0.34704264800E+03 -0.17629237922E+03  0.61354435338E+03  0.73226539238E+03  0.90875347662E+02 0.  0.
         23    2    4    4    0    0 -0.80165567792E+02  0.32493035525E+03 -0.69736100324E+02  0.35439926399E+03  0.93431582502E+02 0.  0.
          3    1    3    3  502    0 -0.13850896582E+03 -0.70322059572E+02  0.17230346648E+03  0.23198795278E+03  0.00000000000E+00 0. -1.
         -4    1    3    3    0  502 -0.12836811439E+03 -0.78315916459E+02  0.68485019990E+02  0.16523302795E+03  0.00000000000E+00 0.  1.
         11    1    5    5    0    0  0.13339973705E+03 -0.52866161802E+02  0.15279081427E+03  0.20960761874E+03  0.00000000000E+00 0. -1.
        -11    1    5    5    0    0  0.21364291095E+03 -0.12342621742E+03  0.46075353911E+03  0.52265777364E+03  0.00000000000E+00 0.  1.
          1    1    6    6  503    0 -0.15365098603E+02  0.33499088135E+02  0.20934832532E+02  0.42385638772E+02  0.00000000000E+00 0. -1.
         -1    1    6    6    0  503 -0.64800469188E+02  0.29143126711E+03 -0.90670932856E+02  0.31201362522E+03  0.00000000000E+00 0.  1.
<mgrwt>
<rscale>  0 0.12594938E+04</rscale>
<asrwt>0</asrwt>
<pdfrwt beam="1">  1        1 0.17449864E+00 0.12594938E+04</pdfrwt>
<pdfrwt beam="2">  1       -2 0.53791454E-01 0.12594938E+04</pdfrwt>
<totfact> 0.33622963E+01</totfact>
</mgrwt>
</event>
<event>
12    4  0.4320235E-008  0.1981817E+04  0.7818608E-02  0.8615169E-01
         -4   -1    0    0    0  501 -0.00000000000E+00  0.00000000000E+00  0.59330176737E+03  0.59330176737E+03  0.00000000000E+00 0.  1.
          1   -1    0    0  501    0  0.00000000000E+00 -0.00000000000E+00 -0.16549745254E+04  0.16549745254E+04  0.00000000000E+00 0. -1.
        -24    2    1    2    0    0  0.66089942005E+03 -0.11360128540E+03  0.45381610864E+02  0.67691200316E+03  0.80355920442E+02 0.  0.
        254    2    1    2    0    0 -0.66089942005E+03  0.11360128540E+03 -0.11070543689E+04  0.15713642896E+04  0.89102360213E+03 0.  0.
         23    2    4    4    0    0 -0.50997946810E+03  0.24376170260E+03 -0.12027367169E+04  0.13322396648E+04  0.93744806966E+02 0.  0.
         23    2    4    4    0    0 -0.15091995195E+03 -0.13016041720E+03  0.95682347944E+02  0.23912462484E+03  0.91142242662E+02 0.  0.
          3    1    3    3  502    0  0.66255043069E+03 -0.11542308707E+03  0.46650497046E+02  0.67414525966E+03  0.00000000000E+00 0. -1.
         -4    1    3    3    0  502 -0.16510106487E+01  0.18218016614E+01 -0.12688861825E+01  0.27667435009E+01  0.00000000000E+00 0.  1.
         11    1    5    5    0    0 -0.31694081371E+03  0.13750535641E+03 -0.62884944378E+03  0.71750318841E+03  0.00000000000E+00 0. -1.
        -11    1    5    5    0    0 -0.19303865439E+03  0.10625634619E+03 -0.57388727309E+03  0.61473647640E+03  0.00000000000E+00 0.  1.
          3    1    6    6  503    0 -0.30300731581E+02 -0.84305555138E+02  0.31148518776E+02  0.94846144799E+02  0.00000000000E+00 0. -1.
         -3    1    6    6    0  503 -0.12061922037E+03 -0.45854862059E+02  0.64533829168E+02  0.14427848004E+03  0.00000000000E+00 0.  1.
<mgrwt>
<rscale>  0 0.19818167E+04</rscale>
<asrwt>0</asrwt>
<pdfrwt beam="1">  1        1 0.25461147E+00 0.19818167E+04</pdfrwt>
<pdfrwt beam="2">  1       -4 0.91277195E-01 0.19818167E+04</pdfrwt>
<totfact> 0.23878209E+00</totfact>
</mgrwt>
</event>
<event>
12    4  0.4320235E-008  0.1583873E+04  0.7818608E-02  0.8830517E-01
          1   -1    0    0  501    0  0.00000000000E+00  0.00000000000E+00  0.35818950132E+04  0.35818950132E+04  0.00000000000E+00 0. -1.
         -2   -1    0    0    0  501 -0.00000000000E+00 -0.00000000000E+00 -0.17509252376E+03  0.17509252376E+03  0.00000000000E+00 0.  1.
        -24    2    1    2    0    0 -0.10761154572E+03  0.19558892495E+03  0.11792416218E+02  0.23733058947E+03  0.79696143443E+02 0.  0.
        254    2    1    2    0    0  0.10761154572E+03 -0.19558892495E+03  0.33950100732E+04  0.35196569474E+04  0.90114169720E+03 0.  0.
         23    2    4    4    0    0 -0.35511502121E+03 -0.17983305802E+03  0.21399410891E+04  0.21786136790E+04  0.92536967489E+02 0.  0.
         23    2    4    4    0    0  0.46272656694E+03 -0.15755866933E+02  0.12550689841E+04  0.13410432685E+04  0.93993457432E+02 0.  0.
          1    1    3    3  502    0 -0.48541413785E+01 -0.63381220380E+01 -0.61128979114E+01  0.10054949048E+02  0.00000000000E+00 0. -1.
         -2    1    3    3    0  502 -0.10275740435E+03  0.20192704699E+03  0.17905314129E+02  0.22727564042E+03  0.00000000000E+00 0.  1.
         11    1    5    5    0    0 -0.29625584507E+03 -0.17829189293E+03  0.17051541611E+04  0.17398581086E+04  0.00000000000E+00 0.  1.
        -11    1    5    5    0    0 -0.58859176140E+02 -0.15411650829E+01  0.43478692797E+03  0.43875557038E+03  0.00000000000E+00 0. -1.
          4    1    6    6  503    0  0.37464281167E+03 -0.49898147570E+02  0.10088614875E+04  0.10773340069E+04  0.00000000000E+00 0.  1.
         -4    1    6    6    0  503  0.88083755265E+02  0.34142280637E+02  0.24620749658E+03  0.26370926157E+03  0.00000000000E+00 0. -1.
<mgrwt>
<rscale>  0 0.15838725E+04</rscale>
<asrwt>0</asrwt>
<pdfrwt beam="1">  1        1 0.55106072E+00 0.15838725E+04</pdfrwt>
<pdfrwt beam="2">  1       -2 0.26937314E-01 0.15838725E+04</pdfrwt>
<totfact> 0.22971171E+00</totfact>
</mgrwt>
</event>
<event>
12    4  0.4320235E-008  0.1848688E+04  0.7818608E-02  0.8680828E-01
          1   -1    0    0  501    0  0.00000000000E+00  0.00000000000E+00  0.17191314477E+04  0.17191314477E+04  0.00000000000E+00 0. -1.
         -2   -1    0    0    0  501 -0.00000000000E+00 -0.00000000000E+00 -0.49700222515E+03  0.49700222515E+03  0.00000000000E+00 0.  1.
        -24    2    1    2    0    0  0.11014854946E+03 -0.33047833507E+03 -0.26305087903E+03  0.44458073942E+03  0.84306796928E+02 0.  0.
        254    2    1    2    0    0 -0.11014854946E+03  0.33047833507E+03  0.14851801016E+04  0.17715529335E+04  0.90071706377E+03 0.  0.
         23    2    4    4    0    0  0.20318611995E+03  0.53038679967E+03  0.78493947881E+03  0.97357341456E+03  0.95501055165E+02 0.  0.
         23    2    4    4    0    0 -0.31333466941E+03 -0.19990846460E+03  0.70024062280E+03  0.79797951891E+03  0.91062470319E+02 0.  0.
          1    1    3    3  502    0  0.35742991604E+02 -0.20639362180E+03 -0.12141156662E+03  0.24210877117E+03  0.00000000000E+00 0. -1.
         -2    1    3    3    0  502  0.74405557856E+02 -0.12408471326E+03 -0.14163931242E+03  0.20247196825E+03  0.00000000000E+00 0.  1.
         11    1    5    5    0    0  0.19108481485E+03  0.48826890097E+03  0.75948164172E+03  0.92289343384E+03  0.00000000000E+00 0. -1.
        -11    1    5    5    0    0  0.12101305103E+02  0.42117898701E+02  0.25457837089E+02  0.50679980717E+02  0.00000000000E+00 0.  1.
          2    1    6    6  503    0 -0.28979055740E+03 -0.20612588407E+03  0.62741753575E+03  0.72119290859E+03  0.00000000000E+00 0. -1.
         -2    1    6    6    0  503 -0.23544112008E+02  0.62174194713E+01  0.72823087059E+02  0.76786610316E+02  0.00000000000E+00 0.  1.
<mgrwt>
<rscale>  0 0.18486884E+04</rscale>
<asrwt>0</asrwt>
<pdfrwt beam="1">  1        1 0.26448176E+00 0.18486884E+04</pdfrwt>
<pdfrwt beam="2">  1       -2 0.76461882E-01 0.18486884E+04</pdfrwt>
<totfact> 0.58357997E+00</totfact>
</mgrwt>
</event>
<event>
12    4  0.4320235E-008  0.1738482E+04  0.7818608E-02  0.8739716E-01
         -2   -1    0    0    0  501 -0.00000000000E+00  0.00000000000E+00  0.32198063571E+03  0.32198063571E+03  0.00000000000E+00 0.  1.
          1   -1    0    0  501    0  0.00000000000E+00 -0.00000000000E+00 -0.23466616895E+04  0.23466616895E+04  0.00000000000E+00 0. -1.
        -24    2    1    2    0    0  0.44900906374E+03 -0.17596387724E+03 -0.11586034382E+03  0.50250948222E+03  0.80744876230E+02 0.  0.
        254    2    1    2    0    0 -0.44900906374E+03  0.17596387724E+03 -0.19088207100E+04  0.21661328430E+04  0.90330646254E+03 0.  0.
         23    2    4    4    0    0 -0.75273315458E+02  0.23942392396E+02 -0.16984924871E+04  0.17027106966E+04  0.90042641392E+02 0.  0.
         23    2    4    4    0    0 -0.37373574828E+03  0.15202148485E+03 -0.21032822284E+03  0.46342214641E+03  0.87938518632E+02 0.  0.
          3    1    3    3  502    0  0.20797637487E+03 -0.12385515848E+03 -0.48492240212E+02  0.24687197117E+03  0.00000000000E+00 0. -1.
         -4    1    3    3    0  502  0.24103268886E+03 -0.52108718759E+02 -0.67368103606E+02  0.25563751105E+03  0.00000000000E+00 0.  1.
         11    1    5    5    0    0 -0.89274230082E+02 -0.75836951863E-02 -0.11194848162E+04  0.11230387981E+04  0.00000000000E+00 0. -1.
        -11    1    5    5    0    0  0.14000914624E+02  0.23949976091E+02 -0.57900767091E+03  0.57967189852E+03  0.00000000000E+00 0.  1.
          2    1    6    6  503    0 -0.19803286659E+03  0.12752347888E+03 -0.12028090462E+03  0.26447447879E+03  0.00000000000E+00 0. -1.
         -2    1    6    6    0  503 -0.17570288169E+03  0.24498005964E+02 -0.90047318226E+02  0.19894766762E+03  0.00000000000E+00 0.  1.
<mgrwt>
<rscale>  0 0.17384817E+04</rscale>
<asrwt>0</asrwt>
<pdfrwt beam="1">  1        1 0.36102488E+00 0.17384817E+04</pdfrwt>
<pdfrwt beam="2">  1       -2 0.49535481E-01 0.17384817E+04</pdfrwt>
<totfact> 0.55595216E+00</totfact>
</mgrwt>
</event>
<event>
12    4  0.4320235E-008  0.1660774E+04  0.7818608E-02  0.8784058E-01
          1   -1    0    0  501    0  0.00000000000E+00  0.00000000000E+00  0.46750302684E+03  0.46750302684E+03  0.00000000000E+00 0. -1.
         -2   -1    0    0    0  501 -0.00000000000E+00 -0.00000000000E+00 -0.14749483033E+04  0.14749483033E+04  0.00000000000E+00 0.  1.
        -24    2    1    2    0    0  0.55018360611E+03  0.20030365454E+03 -0.33178880924E+03  0.67695794723E+03  0.73244070984E+02 0.  0.
        254    2    1    2    0    0 -0.55018360611E+03 -0.20030365454E+03 -0.67565646722E+03  0.12654933829E+04  0.89562173154E+03 0.  0.
         23    2    4    4    0    0  0.34976222991E+02 -0.35344453338E+03 -0.51577217077E+03  0.63283865656E+03  0.91200102783E+02 0.  0.
         23    2    4    4    0    0 -0.58515982910E+03  0.15314087884E+03 -0.15988429645E+03  0.63265472634E+03  0.93940726751E+02 0.  0.
          1    1    3    3  502    0  0.44754082414E+02  0.11447075085E+02 -0.50628833380E+02  0.68536429657E+02  0.00000000000E+00 0. -1.
         -2    1    3    3    0  502  0.50542952370E+03  0.18885657946E+03 -0.28115997586E+03  0.60842151758E+03  0.00000000000E+00 0.  1.
         11    1    5    5    0    0  0.51349876750E+02 -0.32636778141E+03 -0.49449278634E+03  0.59470652790E+03  0.00000000000E+00 0.  1.
        -11    1    5    5    0    0 -0.16373653759E+02 -0.27076751963E+02 -0.21279384430E+02  0.38132128659E+02  0.00000000000E+00 0. -1.
          1    1    6    6  503    0 -0.16523156230E+03  0.17059395899E+01 -0.54363763781E+02  0.17395343694E+03  0.00000000000E+00 0. -1.
         -1    1    6    6    0  503 -0.41992826680E+03  0.15143493925E+03 -0.10552053267E+03  0.45870128940E+03  0.00000000000E+00 0.  1.
<mgrwt>
<rscale>  0 0.16607743E+04</rscale>
<asrwt>0</asrwt>
<pdfrwt beam="1">  1        1 0.71923543E-01 0.16607743E+04</pdfrwt>
<pdfrwt beam="2">  1       -2 0.22691512E+00 0.16607743E+04</pdfrwt>
<totfact> 0.36269946E+00</totfact>
</mgrwt>
</event>
<event>
12    4  0.4320235E-008  0.1384612E+04  0.7818608E-02  0.8965033E-01
         -2   -1    0    0    0  501 -0.00000000000E+00  0.00000000000E+00  0.31462276725E+03  0.31462276725E+03  0.00000000000E+00 0.  1.
          1   -1    0    0  501    0  0.00000000000E+00 -0.00000000000E+00 -0.15233724345E+04  0.15233724345E+04  0.00000000000E+00 0. -1.
        -24    2    1    2    0    0  0.37357370087E+03 -0.14028626092E+03 -0.37089678197E+03  0.55065422087E+03  0.80113064454E+02 0.  0.
        254    2    1    2    0    0 -0.37357370087E+03  0.14028626092E+03 -0.83785288524E+03  0.12873409808E+04  0.89219493311E+03 0.  0.
         23    2    4    4    0    0  0.28392213824E+03  0.26814171014E+02 -0.32430732730E+03  0.44046043781E+03  0.86598928335E+02 0.  0.
         23    2    4    4    0    0 -0.65749583911E+03  0.11347208990E+03 -0.51354555794E+03  0.84688054303E+03  0.91109387238E+02 0.  0.
          3    1    3    3  502    0  0.36663350152E+03 -0.12329960562E+03 -0.34144135919E+03  0.51595069430E+03  0.00000000000E+00 0. -1.
         -4    1    3    3    0  502  0.69401993584E+01 -0.16986655292E+02 -0.29455422784E+02  0.34703526572E+02  0.00000000000E+00 0.  1.
         11    1    5    5    0    0  0.18622600661E+03  0.46137480987E+02 -0.16741897455E+03  0.25463288423E+03  0.00000000000E+00 0.  1.
        -11    1    5    5    0    0  0.97696131628E+02 -0.19323309973E+02 -0.15688835275E+03  0.18582755358E+03  0.00000000000E+00 0. -1.
          4    1    6    6  503    0 -0.46883835449E+03  0.47361932982E+02 -0.32803133113E+03  0.57415773925E+03  0.00000000000E+00 0. -1.
         -4    1    6    6    0  503 -0.18865748463E+03  0.66110156920E+02 -0.18551422682E+03  0.27272280379E+03  0.00000000000E+00 0.  1.
<mgrwt>
<rscale>  0 0.13846121E+04</rscale>
<asrwt>0</asrwt>
<pdfrwt beam="1">  1        1 0.23436499E+00 0.13846121E+04</pdfrwt>
<pdfrwt beam="2">  1       -2 0.48403502E-01 0.13846121E+04</pdfrwt>
<totfact> 0.21825142E+01</totfact>
</mgrwt>
</event>
<event>
12    4  0.4320235E-008  0.1476939E+04  0.7818608E-02  0.8899934E-01
          3   -1    0    0  501    0  0.00000000000E+00  0.00000000000E+00  0.83455143711E+03  0.83455143711E+03  0.00000000000E+00 0. -1.
         -4   -1    0    0    0  501 -0.00000000000E+00 -0.00000000000E+00 -0.65344974120E+03  0.65344974120E+03  0.00000000000E+00 0.  1.
        -24    2    1    2    0    0  0.72396947262E+02 -0.41773029102E+03 -0.18235195605E+03  0.46820837210E+03  0.78910897982E+02 0.  0.
        254    2    1    2    0    0 -0.72396947262E+02  0.41773029102E+03  0.36345365196E+03  0.10197928062E+04  0.85331055101E+03 0.  0.
         23    2    4    4    0    0  0.24261577140E+02  0.17925360727E+03 -0.26534534918E+03  0.33362197204E+03  0.90415629491E+02 0.  0.
         23    2    4    4    0    0 -0.96658524402E+02  0.23847668375E+03  0.62879900114E+03  0.68617083417E+03  0.96063680920E+02 0.  0.
          3    1    3    3  502    0  0.27660656052E+02 -0.51801456015E+02 -0.45001538917E+01  0.58896129954E+02  0.00000000000E+00 0. -1.
         -4    1    3    3    0  502  0.44736291210E+02 -0.36592883501E+03 -0.17785180216E+03  0.40931224214E+03  0.00000000000E+00 0.  1.
         11    1    5    5    0    0  0.17868531796E+02  0.11158778105E+03 -0.86552604155E+02  0.14234630517E+03  0.00000000000E+00 0. -1.
        -11    1    5    5    0    0  0.63930453437E+01  0.67665826214E+02 -0.17879274503E+03  0.19127566688E+03  0.00000000000E+00 0.  1.
          1    1    6    6  503    0 -0.61401232076E+02  0.40985972994E+02  0.18185524006E+03  0.19626841218E+03  0.00000000000E+00 0. -1.
         -1    1    6    6    0  503 -0.35257292326E+02  0.19749071076E+03  0.44694376108E+03  0.48990242198E+03  0.00000000000E+00 0.  1.
<mgrwt>
<rscale>  0 0.14769393E+04</rscale>
<asrwt>0</asrwt>
<pdfrwt beam="1">  1        3 0.12839253E+00 0.14769393E+04</pdfrwt>
<pdfrwt beam="2">  1       -4 0.10053073E+00 0.14769393E+04</pdfrwt>
<totfact> 0.86685662E-01</totfact>
</mgrwt>
</event>
<event>
12    4  0.4320235E-008  0.2034790E+04  0.7818608E-02  0.8590526E-01
          1   -1    0    0  501    0  0.00000000000E+00  0.00000000000E+00  0.19387335632E+04  0.19387335632E+04  0.00000000000E+00 0. -1.
         -2   -1    0    0    0  501 -0.00000000000E+00 -0.00000000000E+00 -0.53390163916E+03  0.53390163916E+03  0.00000000000E+00 0.  1.
        -24    2    1    2    0    0 -0.29110860392E+03  0.28839577115E+03  0.14275909837E+04  0.14874595054E+04  0.81261449937E+02 0.  0.
        254    2    1    2    0    0  0.29110860392E+03 -0.28839577115E+03 -0.22759059690E+02  0.98517569698E+03  0.89562092373E+03 0.  0.
         23    2    4    4    0    0 -0.22904515840E+03 -0.76119509775E+02  0.24496457446E+03  0.35650346547E+03  0.93974538027E+02 0.  0.
         23    2    4    4    0    0  0.52015376231E+03 -0.21227626137E+03 -0.26772363415E+03  0.62867223151E+03  0.89059995482E+02 0.  0.
          1    1    3    3  502    0 -0.24934110891E+03  0.24061986089E+03  0.10832927809E+04  0.11373619279E+04  0.00000000000E+00 0. -1.
         -2    1    3    3    0  502 -0.41767495012E+02  0.47775910262E+02  0.34429820286E+03  0.35009757744E+03  0.00000000000E+00 0.  1.
         11    1    5    5    0    0 -0.36158993051E+01 -0.22521583062E+02  0.44939942022E+02  0.50397369181E+02  0.00000000000E+00 0.  1.
        -11    1    5    5    0    0 -0.22542925909E+03 -0.53597926713E+02  0.20002463244E+03  0.30610609629E+03  0.00000000000E+00 0. -1.
          4    1    6    6  503    0  0.34359336388E+03 -0.16569116846E+03 -0.14226122243E+03  0.40712187170E+03  0.00000000000E+00 0. -1.
         -4    1    6    6    0  503  0.17656039843E+03 -0.46585092909E+02 -0.12546241172E+03  0.22155035981E+03  0.00000000000E+00 0.  1.
<mgrwt>
<rscale>  0 0.20347904E+04</rscale>
<asrwt>0</asrwt>
<pdfrwt beam="1">  1        1 0.29826670E+00 0.20347904E+04</pdfrwt>
<pdfrwt beam="2">  1       -2 0.82138715E-01 0.20347904E+04</pdfrwt>
<totfact> 0.34689650E+00</totfact>
</mgrwt>
</event>
<event>
12    4  0.4320235E-008  0.1559781E+04  0.7818608E-02  0.8845645E-01
         -2   -1    0    0    0  501 -0.00000000000E+00  0.00000000000E+00  0.46588351173E+03  0.46588351173E+03  0.00000000000E+00 0.  1.
          1   -1    0    0  501    0  0.00000000000E+00 -0.00000000000E+00 -0.13055385141E+04  0.13055385141E+04  0.00000000000E+00 0. -1.
        -24    2    1    2    0    0 -0.76848296983E+02  0.10147577912E+02 -0.86144090924E+03  0.86886943703E+03  0.82734662663E+02 0.  0.
        254    2    1    2    0    0  0.76848296983E+02 -0.10147577912E+02  0.21785906824E+02  0.90255258885E+03  0.89895378959E+03 0.  0.
         23    2    4    4    0    0  0.46054946023E+03  0.51463836851E+02 -0.10552052581E+03  0.48395029644E+03  0.91208421941E+02 0.  0.
         23    2    4    4    0    0 -0.38370116325E+03 -0.61611414762E+02  0.12730643264E+03  0.41860229241E+03  0.89433787310E+02 0.  0.
          1    1    3    3  502    0 -0.87926726993E+02  0.26804893421E+02 -0.64696193140E+03  0.65345952615E+03  0.00000000000E+00 0. -1.
         -2    1    3    3    0  502  0.11078430010E+02 -0.16657315509E+02 -0.21447897784E+03  0.21540991088E+03  0.00000000000E+00 0.  1.
         11    1    5    5    0    0  0.25911803469E+03 -0.75551505538E+01 -0.30361024010E+02  0.26100005360E+03  0.00000000000E+00 0.  1.
        -11    1    5    5    0    0  0.20143142555E+03  0.59018987404E+02 -0.75159501803E+02  0.22295024284E+03  0.00000000000E+00 0. -1.
          4    1    6    6  503    0 -0.30024884019E+03 -0.37147577153E+02  0.59513750894E+02  0.30833617218E+03  0.00000000000E+00 0. -1.
         -4    1    6    6    0  503 -0.83452323056E+02 -0.24463837609E+02  0.67792681742E+02  0.11026612024E+03  0.00000000000E+00 0.  1.
<mgrwt>
<rscale>  0 0.15597806E+04</rscale>
<asrwt>0</asrwt>
<pdfrwt beam="1">  1        1 0.20085208E+00 0.15597806E+04</pdfrwt>
<pdfrwt beam="2">  1       -2 0.71674386E-01 0.15597806E+04</pdfrwt>
<totfact> 0.13360589E+01</totfact>
</mgrwt>
</event>
<event>
12    4  0.4320235E-008  0.1493629E+04  0.7818608E-02  0.8888701E-01
          3   -1    0    0  501    0  0.00000000000E+00  0.00000000000E+00  0.74743669312E+03  0.74743669312E+03  0.00000000000E+00 0. -1.
         -4   -1    0    0    0  501 -0.00000000000E+00 -0.00000000000E+00 -0.74619274716E+03  0.74619274716E+03  0.00000000000E+00 0.  1.
        -24    2    1    2    0    0 -0.16085080940E+03  0.11824118580E+03 -0.41624899335E+03  0.46855679029E+03  0.80176557434E+02 0.  0.
        254    2    1    2    0    0  0.16085080940E+03 -0.11824118580E+03  0.41749293931E+03  0.10250726500E+04  0.91466913279E+03 0.  0.
         23    2    4    4    0    0  0.52241857165E+03 -0.15154384284E+03  0.32208164630E+03  0.63855033757E+03  0.90129054206E+02 0.  0.
         23    2    4    4    0    0 -0.36156776225E+03  0.33302657045E+02  0.95411293012E+02  0.38652231242E+03  0.91955801889E+02 0.  0.
          3    1    3    3  502    0 -0.89353567258E+02  0.89299436980E+02 -0.17902650521E+03  0.21910942242E+03  0.00000000000E+00 0. -1.
         -4    1    3    3    0  502 -0.71497242144E+02  0.28941748817E+02 -0.23722248814E+03  0.24944736787E+03  0.00000000000E+00 0.  1.
         11    1    5    5    0    0  0.26577822812E+03 -0.30465331248E+02  0.15071255006E+03  0.30705125907E+03  0.00000000000E+00 0. -1.
        -11    1    5    5    0    0  0.25664034353E+03 -0.12107851159E+03  0.17136909623E+03  0.33149907849E+03  0.00000000000E+00 0.  1.
          4    1    6    6  503    0 -0.31609193997E+03  0.27567282204E+02  0.48573635554E+02  0.32098826713E+03  0.00000000000E+00 0. -1.
         -4    1    6    6    0  503 -0.45475822281E+02  0.57353748415E+01  0.46837657458E+02  0.65534045296E+02  0.00000000000E+00 0.  1.
<mgrwt>
<rscale>  0 0.14936289E+04</rscale>
<asrwt>0</asrwt>
<pdfrwt beam="1">  1        3 0.11499026E+00 0.14936289E+04</pdfrwt>
<pdfrwt beam="2">  1       -4 0.11479888E+00 0.14936289E+04</pdfrwt>
<totfact> 0.82110290E-01</totfact>
</mgrwt>
</event>
<event>
12    4  0.4320235E-008  0.2850515E+04  0.7818608E-02  0.8287755E-01
         -2   -1    0    0    0  501 -0.00000000000E+00  0.00000000000E+00  0.24008428524E+04  0.24008428524E+04  0.00000000000E+00 0.  1.
          1   -1    0    0  501    0  0.00000000000E+00 -0.00000000000E+00 -0.84610267491E+03  0.84610267491E+03  0.00000000000E+00 0. -1.
        -24    2    1    2    0    0 -0.26243219415E+03 -0.42200874414E+03  0.20488309395E+04  0.21097508409E+04  0.79864605418E+02 0.  0.
        254    2    1    2    0    0  0.26243219415E+03  0.42200874414E+03 -0.49409076200E+03  0.11371946865E+04  0.89561377677E+03 0.  0.
         23    2    4    4    0    0 -0.50990341212E+02 -0.25371041674E+03 -0.12512198082E+03  0.30093548320E+03  0.89093571621E+02 0.  0.
         23    2    4    4    0    0  0.31342253536E+03  0.67571916088E+03 -0.36896878118E+03  0.83625920325E+03  0.91440819600E+02 0.  0.
          3    1    3    3  502    0 -0.98967889373E+01 -0.66595855285E+02  0.27763330892E+03  0.28568025587E+03  0.00000000000E+00 0. -1.
         -4    1    3    3    0  502 -0.25253540521E+03 -0.35541288886E+03  0.17711976306E+04  0.18240705850E+04  0.00000000000E+00 0.  1.
         11    1    5    5    0    0 -0.63727800987E+02 -0.10948388737E+03 -0.39361340093E+02  0.13265469952E+03  0.00000000000E+00 0. -1.
        -11    1    5    5    0    0  0.12737459775E+02 -0.14422652937E+03 -0.85760640730E+02  0.16828078367E+03  0.00000000000E+00 0.  1.
          3    1    6    6  503    0  0.21363328254E+03  0.40729026035E+03 -0.26971052817E+03  0.53316817664E+03  0.00000000000E+00 0. -1.
         -3    1    6    6    0  503  0.99789252823E+02  0.26842890054E+03 -0.99258253012E+02  0.30309102661E+03  0.00000000000E+00 0.  1.
<mgrwt>
<rscale>  0 0.28505154E+04</rscale>
<asrwt>0</asrwt>
<pdfrwt beam="1">  1        1 0.13016964E+00 0.28505154E+04</pdfrwt>
<pdfrwt beam="2">  1       -2 0.36936043E+00 0.28505154E+04</pdfrwt>
<totfact> 0.17878991E-01</totfact>
</mgrwt>
</event>
<event>
12    4  0.4320235E-008  0.2190432E+04  0.7818608E-02  0.8522421E-01
         -2   -1    0    0    0  501 -0.00000000000E+00  0.00000000000E+00  0.84595520404E+03  0.84595520404E+03  0.00000000000E+00 0.  1.
          1   -1    0    0  501    0  0.00000000000E+00 -0.00000000000E+00 -0.14179221389E+04  0.14179221389E+04  0.00000000000E+00 0. -1.
        -24    2    1    2    0    0 -0.28968083807E+03 -0.48318380463E+03 -0.97904472882E+03  0.11323730810E+04  0.79741059493E+02 0.  0.
        254    2    1    2    0    0  0.28968083807E+03  0.48318380463E+03  0.40707779393E+03  0.11315042620E+04  0.89286504440E+03 0.  0.
         23    2    4    4    0    0  0.21558046507E+03  0.18007648387E+03  0.65790109717E+03  0.72136683800E+03  0.92918159378E+02 0.  0.
         23    2    4    4    0    0  0.74100373005E+02  0.30310732077E+03 -0.25082330324E+03  0.41013742396E+03  0.89081220790E+02 0.  0.
          1    1    3    3  502    0 -0.27170777493E+03 -0.47714285268E+03 -0.93304614136E+03  0.10826197480E+04  0.00000000000E+00 0. -1.
         -2    1    3    3    0  502 -0.17973063143E+02 -0.60409519552E+01 -0.45998587459E+02  0.49753333029E+02  0.00000000000E+00 0.  1.
         11    1    5    5    0    0  0.31607906937E+02  0.57736252388E+02  0.23741421060E+03  0.24636972626E+03  0.00000000000E+00 0.  1.
        -11    1    5    5    0    0  0.18397255813E+03  0.12234023148E+03  0.42048688657E+03  0.47499711174E+03  0.00000000000E+00 0. -1.
          4    1    6    6  503    0  0.39222315338E+01  0.12317908990E+03 -0.54536016478E+02  0.13476887319E+03  0.00000000000E+00 0. -1.
         -4    1    6    6    0  503  0.70178141471E+02  0.17992823087E+03 -0.19628728677E+03  0.27536855077E+03  0.00000000000E+00 0.  1.
<mgrwt>
<rscale>  0 0.21904325E+04</rscale>
<asrwt>0</asrwt>
<pdfrwt beam="1">  1        1 0.21814187E+00 0.21904325E+04</pdfrwt>
<pdfrwt beam="2">  1       -2 0.13014696E+00 0.21904325E+04</pdfrwt>
<totfact> 0.25887595E+00</totfact>
</mgrwt>
</event>
<event>
12    4  0.4320235E-008  0.1631904E+04  0.7818608E-02  0.8801185E-01
         -4   -1    0    0    0  501 -0.00000000000E+00  0.00000000000E+00  0.63305801269E+03  0.63305801269E+03  0.00000000000E+00 0.  1.
          1   -1    0    0  501    0  0.00000000000E+00 -0.00000000000E+00 -0.10516845834E+04  0.10516845834E+04  0.00000000000E+00 0. -1.
        -24    2    1    2    0    0 -0.53156768716E+03 -0.14111226727E+03 -0.27437610655E+03  0.61999645333E+03  0.81464570752E+02 0.  0.
        254    2    1    2    0    0  0.53156768716E+03  0.14111226727E+03 -0.14425046415E+03  0.10647461427E+04  0.90022179161E+03 0.  0.
         23    2    4    4    0    0  0.26563264095E+03 -0.19293779015E+03 -0.42569487942E+03  0.54524362482E+03  0.91042787944E+02 0.  0.
         23    2    4    4    0    0  0.26593504622E+03  0.33405005742E+03  0.28144441527E+03  0.51950251793E+03  0.91438600080E+02 0.  0.
          1    1    3    3  502    0 -0.49836820429E+03 -0.12513014956E+03 -0.27569614738E+03  0.58312673327E+03  0.00000000000E+00 0. -1.
         -2    1    3    3    0  502 -0.33199482874E+02 -0.15982117707E+02  0.13200408290E+01  0.36869720059E+02  0.00000000000E+00 0.  1.
         11    1    5    5    0    0  0.16451789276E+02 -0.10204610486E+02 -0.17088915108E+00  0.19360388649E+02  0.00000000000E+00 0. -1.
        -11    1    5    5    0    0  0.24918085167E+03 -0.18273317967E+03 -0.42552399027E+03  0.52588323617E+03  0.00000000000E+00 0.  1.
          2    1    6    6  503    0  0.12538651364E+03  0.10391281075E+03  0.14126991505E+03  0.21558487641E+03  0.00000000000E+00 0. -1.
         -2    1    6    6    0  503  0.14054853258E+03  0.23013724667E+03  0.14017450022E+03  0.30391764152E+03  0.00000000000E+00 0.  1.
<mgrwt>
<rscale>  0 0.16319036E+04</rscale>
<asrwt>0</asrwt>
<pdfrwt beam="1">  1        1 0.16179763E+00 0.16319036E+04</pdfrwt>
<pdfrwt beam="2">  1       -4 0.97393541E-01 0.16319036E+04</pdfrwt>
<totfact> 0.56495196E+00</totfact>
</mgrwt>
</event>
<event>
12    4  0.4320235E-008  0.2978865E+04  0.7818608E-02  0.8249792E-01
          1   -1    0    0  501    0  0.00000000000E+00  0.00000000000E+00  0.22340525070E+04  0.22340525070E+04  0.00000000000E+00 0. -1.
         -2   -1    0    0    0  501 -0.00000000000E+00 -0.00000000000E+00 -0.99299796172E+03  0.99299796172E+03  0.00000000000E+00 0.  1.
        -24    2    1    2    0    0  0.78662863704E+03  0.91113255895E+03 -0.10240741945E+03  0.12108315099E+04  0.81722170784E+02 0.  0.
        254    2    1    2    0    0 -0.78662863704E+03 -0.91113255895E+03  0.13434619647E+04  0.20162189588E+04  0.90072286894E+03 0.  0.
         23    2    4    4    0    0  0.28357167720E+02 -0.19149922816E+03 -0.74908683262E+02  0.22697460290E+03  0.91815446326E+02 0.  0.
         23    2    4    4    0    0 -0.81498580476E+03 -0.71963333079E+03  0.14183706480E+04  0.17892443559E+04  0.86868160861E+02 0.  0.
          1    1    3    3  502    0  0.12109953682E+03  0.18732965859E+03 -0.11303674718E+02  0.22335011052E+03  0.00000000000E+00 0. -1.
         -2    1    3    3    0  502  0.66552910021E+03  0.72380290036E+03 -0.91103744732E+02  0.98748139937E+03  0.00000000000E+00 0.  1.
         11    1    5    5    0    0 -0.24182978541E+02 -0.11559398822E+02 -0.93050818434E+01  0.28372886712E+02  0.00000000000E+00 0.  1.
        -11    1    5    5    0    0  0.52540146261E+02 -0.17993982934E+03 -0.65603601418E+02  0.19860171619E+03  0.00000000000E+00 0. -1.
          3    1    6    6  503    0 -0.75365974483E+03 -0.63125649192E+03  0.12821188575E+04  0.16156474041E+04  0.00000000000E+00 0. -1.
         -3    1    6    6    0  503 -0.61326059932E+02 -0.88376838873E+02  0.13625179052E+03  0.17359695186E+03  0.00000000000E+00 0.  1.
<mgrwt>
<rscale>  0 0.29788653E+04</rscale>
<asrwt>0</asrwt>
<pdfrwt beam="1">  1        1 0.34370038E+00 0.29788653E+04</pdfrwt>
<pdfrwt beam="2">  1       -2 0.15276892E+00 0.29788653E+04</pdfrwt>
<totfact> 0.44181496E-01</totfact>
</mgrwt>
</event>
<event>
12    4  0.4320235E-008  0.2429551E+04  0.7818608E-02  0.8428522E-01
          1   -1    0    0  501    0  0.00000000000E+00  0.00000000000E+00  0.23179960431E+04  0.23179960431E+04  0.00000000000E+00 0. -1.
         -2   -1    0    0    0  501 -0.00000000000E+00 -0.00000000000E+00 -0.63661853411E+03  0.63661853411E+03  0.00000000000E+00 0.  1.
        -24    2    1    2    0    0  0.69690439759E+03  0.51548877408E+03  0.11771997455E+02  0.87190903341E+03  0.93179220010E+02 0.  0.
        254    2    1    2    0    0 -0.69690439759E+03 -0.51548877408E+03  0.16696055115E+04  0.20827055438E+04  0.89368641166E+03 0.  0.
         23    2    4    4    0    0 -0.71598938066E+03 -0.95156384774E+02  0.13932978791E+04  0.15718878595E+04  0.88639337878E+02 0.  0.
         23    2    4    4    0    0  0.19084983072E+02 -0.42033238931E+03  0.27630763244E+03  0.51081768427E+03  0.86863368233E+02 0.  0.
          3    1    3    3  502    0  0.11320946851E+03  0.77919608005E+02  0.35788206181E+02  0.14201635389E+03  0.00000000000E+00 0. -1.
         -4    1    3    3    0  502  0.58369492908E+03  0.43756916608E+03 -0.24016208727E+02  0.72989267952E+03  0.00000000000E+00 0.  1.
         11    1    5    5    0    0 -0.34892425076E+02  0.83771724912E+01  0.10489078809E+03  0.11085908069E+03  0.00000000000E+00 0. -1.
        -11    1    5    5    0    0 -0.68109695559E+03 -0.10353355727E+03  0.12884070910E+04  0.14610287788E+04  0.00000000000E+00 0.  1.
          3    1    6    6  503    0  0.81609445696E+01 -0.18163829245E+03  0.17134445692E+03  0.24983593260E+03  0.00000000000E+00 0. -1.
         -3    1    6    6    0  503  0.10924038503E+02 -0.23869409685E+03  0.10496317552E+03  0.26098175167E+03  0.00000000000E+00 0.  1.
<mgrwt>
<rscale>  0 0.24295508E+04</rscale>
<asrwt>0</asrwt>
<pdfrwt beam="1">  1        1 0.35661477E+00 0.24295508E+04</pdfrwt>
<pdfrwt beam="2">  1       -2 0.97941314E-01 0.24295508E+04</pdfrwt>
<totfact> 0.12328744E+00</totfact>
</mgrwt>
</event>
<event>
12    4  0.4320235E-008  0.2141572E+04  0.7818608E-02  0.8543149E-01
         -2   -1    0    0    0  501 -0.00000000000E+00  0.00000000000E+00  0.50123470218E+03  0.50123470218E+03  0.00000000000E+00 0.  1.
          1   -1    0    0  501    0  0.00000000000E+00 -0.00000000000E+00 -0.22875155491E+04  0.22875155491E+04  0.00000000000E+00 0. -1.
        -24    2    1    2    0    0  0.23565481475E+03 -0.84962845973E+03 -0.77969922934E+03  0.11798307869E+04  0.81658350356E+02 0.  0.
        254    2    1    2    0    0 -0.23565481475E+03  0.84962845973E+03 -0.10065816176E+04  0.16089194644E+04  0.89331605759E+03 0.  0.
         23    2    4    4    0    0 -0.46583856598E+03  0.88059178294E+03 -0.73914918493E+03  0.12435876186E+04  0.87870300596E+02 0.  0.
         23    2    4    4    0    0  0.23018375123E+03 -0.30963323215E+02 -0.26743243270E+03  0.36533184585E+03  0.89464880387E+02 0.  0.
          3    1    3    3  502    0  0.14784405704E+03 -0.65568268218E+03 -0.60774638450E+03  0.90616406505E+03  0.00000000000E+00 0. -1.
         -4    1    3    3    0  502  0.87810757715E+02 -0.19394577754E+03 -0.17195284484E+03  0.27366672185E+03  0.00000000000E+00 0.  1.
         11    1    5    5    0    0 -0.25408353541E+03  0.45216280193E+03 -0.33250639033E+03  0.61609264078E+03  0.00000000000E+00 0.  1.
        -11    1    5    5    0    0 -0.21175503057E+03  0.42842898101E+03 -0.40664279460E+03  0.62749497778E+03  0.00000000000E+00 0. -1.
          3    1    6    6  503    0  0.49426842550E+02  0.24025715871E+02 -0.32483226543E+02  0.63838920684E+02  0.00000000000E+00 0. -1.
         -3    1    6    6    0  503  0.18075690868E+03 -0.54989039086E+02 -0.23494920615E+03  0.30149292517E+03  0.00000000000E+00 0.  1.
<mgrwt>
<rscale>  0 0.21415715E+04</rscale>
<asrwt>0</asrwt>
<pdfrwt beam="1">  1        1 0.35192546E+00 0.21415715E+04</pdfrwt>
<pdfrwt beam="2">  1       -2 0.77113033E-01 0.21415715E+04</pdfrwt>
<totfact> 0.22938688E+00</totfact>
</mgrwt>
</event>
<event>
12    4  0.4320235E-008  0.2143944E+04  0.7818608E-02  0.8542129E-01
          1   -1    0    0  501    0  0.00000000000E+00  0.00000000000E+00  0.15507970223E+04  0.15507970223E+04  0.00000000000E+00 0. -1.
         -2   -1    0    0    0  501 -0.00000000000E+00 -0.00000000000E+00 -0.74098894193E+03  0.74098894193E+03  0.00000000000E+00 0.  1.
        -24    2    1    2    0    0 -0.40109514211E+03 -0.48726117343E+03  0.99574386579E+03  0.11816289117E+04  0.80251321699E+02 0.  0.
        254    2    1    2    0    0  0.40109514211E+03  0.48726117343E+03 -0.18593578546E+03  0.11101570525E+04  0.89419002491E+03 0.  0.
         23    2    4    4    0    0  0.58146202894E+03  0.26174592259E+02 -0.12151201728E+03  0.60168359693E+03  0.92058568774E+02 0.  0.
         23    2    4    4    0    0 -0.18036688684E+03  0.46108658117E+03 -0.64423768180E+02  0.50847345553E+03  0.96238162242E+02 0.  0.
          1    1    3    3  502    0 -0.38269649476E+03 -0.43632682107E+03  0.93257788931E+03  0.10984257924E+04  0.00000000000E+00 0. -1.
         -2    1    3    3    0  502 -0.18398647343E+02 -0.50934352352E+02  0.63165976487E+02  0.83203119287E+02  0.00000000000E+00 0.  1.
         11    1    5    5    0    0  0.41973314578E+03 -0.21271728324E+02 -0.75835265919E+02  0.42705899785E+03  0.00000000000E+00 0.  1.
        -11    1    5    5    0    0  0.16172888317E+03  0.47446320582E+02 -0.45676751362E+02  0.17462459908E+03  0.00000000000E+00 0. -1.
          1    1    6    6  503    0 -0.12858113851E+03  0.20380874840E+03 -0.15193556905E+02  0.24145798656E+03  0.00000000000E+00 0. -1.
         -1    1    6    6    0  503 -0.51785748325E+02  0.25727783277E+03 -0.49230211274E+02  0.26701546897E+03  0.00000000000E+00 0.  1.
<mgrwt>
<rscale>  0 0.21439435E+04</rscale>
<asrwt>0</asrwt>
<pdfrwt beam="1">  1        1 0.23858416E+00 0.21439435E+04</pdfrwt>
<pdfrwt beam="2">  1       -2 0.11399830E+00 0.21439435E+04</pdfrwt>
<totfact> 0.29231088E+00</totfact>
</mgrwt>
</event>
<event>
12    4  0.4320235E-008  0.1359413E+04  0.7818608E-02  0.8983733E-01
          1   -1    0    0  501    0  0.00000000000E+00  0.00000000000E+00  0.12490911887E+04  0.12490911887E+04  0.00000000000E+00 0. -1.
         -2   -1    0    0    0  501 -0.00000000000E+00 -0.00000000000E+00 -0.36986983106E+03  0.36986983106E+03  0.00000000000E+00 0.  1.
        -24    2    1    2    0    0 -0.27625197609E+03 -0.62828669165E+02 -0.92117464271E+01  0.29503021535E+03  0.81825275667E+02 0.  0.
        254    2    1    2    0    0  0.27625197609E+03  0.62828669165E+02  0.88843310411E+03  0.13239308044E+04  0.93979614733E+03 0.  0.
         23    2    4    4    0    0  0.34306221150E+03 -0.37864643519E+03  0.39440942859E+03  0.65176828711E+03  0.90433947659E+02 0.  0.
         23    2    4    4    0    0 -0.66810235414E+02  0.44147510435E+03  0.49402367552E+03  0.67216251733E+03  0.91537874223E+02 0.  0.
          1    1    3    3  502    0 -0.73091093799E+02 -0.13282481145E+02 -0.38836116687E+02  0.83827061605E+02  0.00000000000E+00 0. -1.
         -2    1    3    3    0  502 -0.20316088229E+03 -0.49546188020E+02  0.29624370260E+02  0.21120315375E+03  0.00000000000E+00 0.  1.
         11    1    5    5    0    0  0.92206209902E+02 -0.10090661323E+03  0.57809216093E+02  0.14841170844E+03  0.00000000000E+00 0. -1.
        -11    1    5    5    0    0  0.25085600160E+03 -0.27773982196E+03  0.33660021249E+03  0.50335657867E+03  0.00000000000E+00 0.  1.
          2    1    6    6  503    0 -0.88094565092E+02  0.37854726280E+03  0.43450573307E+03  0.58296990886E+03  0.00000000000E+00 0.  1.
         -2    1    6    6    0  503  0.21284329677E+02  0.62927841549E+02  0.59517942455E+02  0.89192608471E+02  0.00000000000E+00 0. -1.
<mgrwt>
<rscale>  0 0.13594133E+04</rscale>
<asrwt>0</asrwt>
<pdfrwt beam="1">  1        1 0.19216787E+00 0.13594133E+04</pdfrwt>
<pdfrwt beam="2">  1       -2 0.56903052E-01 0.13594133E+04</pdfrwt>
<totfact> 0.24449284E+01</totfact>
</mgrwt>
</event>
<event>
12    4  0.4320235E-008  0.2132587E+04  0.7818608E-02  0.8547023E-01
         -2   -1    0    0    0  501 -0.00000000000E+00  0.00000000000E+00  0.69311641107E+03  0.69311641107E+03  0.00000000000E+00 0.  1.
          1   -1    0    0  501    0  0.00000000000E+00 -0.00000000000E+00 -0.16403910290E+04  0.16403910290E+04  0.00000000000E+00 0. -1.
        -24    2    1    2    0    0 -0.42179421172E+03  0.45170067139E+03 -0.10682471862E+04  0.12367658745E+04  0.80584885899E+02 0.  0.
        254    2    1    2    0    0  0.42179421172E+03 -0.45170067139E+03  0.12097256830E+03  0.10967415656E+04  0.89792195975E+03 0.  0.
         23    2    4    4    0    0  0.28278322448E+03 -0.81521920697E+01  0.43534013319E+03  0.52823639850E+03  0.97364525608E+02 0.  0.
         23    2    4    4    0    0  0.13901098724E+03 -0.44354847932E+03 -0.31436756490E+03  0.56850516708E+03  0.91169353699E+02 0.  0.
          1    1    3    3  502    0 -0.31777227631E+03  0.36813843964E+03 -0.88880227848E+03  0.10131508380E+04  0.00000000000E+00 0. -1.
         -4    1    3    3    0  502 -0.10402193541E+03  0.83562231754E+02 -0.17944490777E+03  0.22361503649E+03  0.00000000000E+00 0.  1.
         11    1    5    5    0    0  0.21681063059E+03  0.34298408922E+02  0.29877652385E+03  0.37074336352E+03  0.00000000000E+00 0. -1.
        -11    1    5    5    0    0  0.65972593887E+02 -0.42450600992E+02  0.13656360935E+03  0.15749303498E+03  0.00000000000E+00 0.  1.
          4    1    6    6  503    0  0.84657127613E+02 -0.19595332430E+03 -0.19165917660E+03  0.28687588698E+03  0.00000000000E+00 0.  1.
         -4    1    6    6    0  503  0.54353859627E+02 -0.24759515502E+03 -0.12270838830E+03  0.28162928009E+03  0.00000000000E+00 0. -1.
<mgrwt>
<rscale>  0 0.21325871E+04</rscale>
<asrwt>0</asrwt>
<pdfrwt beam="1">  1        1 0.25236785E+00 0.21325871E+04</pdfrwt>
<pdfrwt beam="2">  1       -2 0.10663329E+00 0.21325871E+04</pdfrwt>
<totfact> 0.29856804E+00</totfact>
</mgrwt>
</event>
<event>
12    4  0.4320235E-008  0.1425954E+04  0.7818608E-02  0.8935243E-01
          1   -1    0    0  501    0  0.00000000000E+00  0.00000000000E+00  0.42796047676E+03  0.42796047676E+03  0.00000000000E+00 0. -1.
         -2   -1    0    0    0  501 -0.00000000000E+00 -0.00000000000E+00 -0.11878110458E+04  0.11878110458E+04  0.00000000000E+00 0.  1.
        -24    2    1    2    0    0  0.22971114027E+03 -0.24886737867E+03 -0.53026995507E+03  0.63412928854E+03  0.78940162122E+02 0.  0.
        254    2    1    2    0    0 -0.22971114027E+03  0.24886737867E+03 -0.22958061395E+03  0.98164223401E+03  0.89230714284E+03 0.  0.
         23    2    4    4    0    0 -0.53250218857E+02 -0.10914241666E+03  0.28623430089E+03  0.32295241591E+03  0.87295675801E+02 0.  0.
         23    2    4    4    0    0 -0.17646092142E+03  0.35800979533E+03 -0.51581491485E+03  0.65868981810E+03  0.92183402789E+02 0.  0.
          3    1    3    3  502    0  0.94992840902E+02 -0.66650452351E+02 -0.13076574218E+03  0.17483020891E+03  0.00000000000E+00 0. -1.
         -4    1    3    3    0  502  0.13471829937E+03 -0.18221692632E+03 -0.39950421290E+03  0.45929907963E+03  0.00000000000E+00 0.  1.
         11    1    5    5    0    0 -0.69276453563E+02 -0.46772191920E+02  0.13809973620E+03  0.16142615059E+03  0.00000000000E+00 0. -1.
        -11    1    5    5    0    0  0.16026234706E+02 -0.62370224739E+02  0.14813456469E+03  0.16152626532E+03  0.00000000000E+00 0.  1.
          3    1    6    6  503    0 -0.15347772366E+03  0.35428376401E+03 -0.48073414251E+03  0.61658552762E+03  0.00000000000E+00 0. -1.
         -3    1    6    6    0  503 -0.22983197758E+02  0.37260313181E+01 -0.35080772339E+02  0.42104290476E+02  0.00000000000E+00 0.  1.
<mgrwt>
<rscale>  0 0.14259540E+04</rscale>
<asrwt>0</asrwt>
<pdfrwt beam="1">  1        1 0.65840074E-01 0.14259540E+04</pdfrwt>
<pdfrwt beam="2">  1       -2 0.18274016E+00 0.14259540E+04</pdfrwt>
<totfact> 0.80838240E+00</totfact>
</mgrwt>
</event>
<event>
12    4  0.4320235E-008  0.2046410E+04  0.7818608E-02  0.8585225E-01
          1   -1    0    0  501    0  0.00000000000E+00  0.00000000000E+00  0.38681723937E+03  0.38681723937E+03  0.00000000000E+00 0. -1.
         -2   -1    0    0    0  501 -0.00000000000E+00 -0.00000000000E+00 -0.27065701247E+04  0.27065701247E+04  0.00000000000E+00 0.  1.
        -24    2    1    2    0    0  0.60909332745E+03 -0.36626956216E+03 -0.31042867818E+03  0.77966669216E+03  0.79787924620E+02 0.  0.
        254    2    1    2    0    0 -0.60909332745E+03  0.36626956216E+03 -0.20093242072E+04  0.23137206720E+04  0.90042851163E+03 0.  0.
         23    2    4    4    0    0 -0.45914786541E+03  0.58568235058E+02 -0.18782759865E+04  0.19366181625E+04  0.91226233025E+02 0.  0.
         23    2    4    4    0    0 -0.14994546204E+03  0.30770132711E+03 -0.13104822072E+03  0.37710250945E+03  0.88706922999E+02 0.  0.
          1    1    3    3  502    0  0.24737434495E+03 -0.13533490226E+03 -0.82786363750E+02  0.29387613774E+03  0.00000000000E+00 0. -1.
         -2    1    3    3    0  502  0.36171898250E+03 -0.23093465990E+03 -0.22764231443E+03  0.48579055442E+03  0.00000000000E+00 0.  1.
         11    1    5    5    0    0 -0.14202252506E+03  0.49658651182E+02 -0.49127400333E+03  0.51379619073E+03  0.00000000000E+00 0. -1.
        -11    1    5    5    0    0 -0.31712534034E+03  0.89095838756E+01 -0.13870019831E+04  0.14228219718E+04  0.00000000000E+00 0.  1.
          3    1    6    6  503    0 -0.21396531597E+02  0.14071283499E+03 -0.63015794896E+02  0.15565636480E+03  0.00000000000E+00 0. -1.
         -3    1    6    6    0  503 -0.12854893044E+03  0.16698849212E+03 -0.68032425829E+02  0.22144614465E+03  0.00000000000E+00 0.  1.
<mgrwt>
<rscale>  0 0.20464095E+04</rscale>
<asrwt>0</asrwt>
<pdfrwt beam="1">  1        1 0.59510346E-01 0.20464095E+04</pdfrwt>
<pdfrwt beam="2">  1       -2 0.41639539E+00 0.20464095E+04</pdfrwt>
<totfact> 0.29446137E-01</totfact>
</mgrwt>
</event>
<event>
12    4  0.4320235E-008  0.1978371E+04  0.7818608E-02  0.8616800E-01
          1   -1    0    0  501    0  0.00000000000E+00  0.00000000000E+00  0.88857613217E+03  0.88857613217E+03  0.00000000000E+00 0. -1.
         -4   -1    0    0    0  501 -0.00000000000E+00 -0.00000000000E+00 -0.11011869130E+04  0.11011869130E+04  0.00000000000E+00 0.  1.
        -24    2    1    2    0    0  0.68071047619E+03  0.26048017295E+03  0.20636544226E+03  0.76266079243E+03  0.88589591212E+02 0.  0.
        254    2    1    2    0    0 -0.68071047619E+03 -0.26048017295E+03 -0.41897622305E+03  0.12271022527E+04  0.89388041160E+03 0.  0.
         23    2    4    4    0    0 -0.42037905788E+03 -0.23314894759E+03  0.21432078712E+03  0.53521017276E+03  0.97157321732E+02 0.  0.
         23    2    4    4    0    0 -0.26033141830E+03 -0.27331225356E+02 -0.63329701017E+03  0.69189207995E+03  0.95551577538E+02 0.  0.
          1    1    3    3  502    0  0.45442496366E+03  0.13690001537E+03  0.10821682807E+03  0.48677976918E+03  0.00000000000E+00 0. -1.
         -2    1    3    3    0  502  0.22628551253E+03  0.12358015757E+03  0.98148614182E+02  0.27588102326E+03  0.00000000000E+00 0.  1.
         11    1    5    5    0    0 -0.31517878370E+03 -0.12565117274E+03  0.13505518885E+03  0.36519280790E+03  0.00000000000E+00 0. -1.
        -11    1    5    5    0    0 -0.10520027418E+03 -0.10749777484E+03  0.79265598272E+02  0.17001736486E+03  0.00000000000E+00 0.  1.
          1    1    6    6  503    0 -0.94865986323E+02 -0.12146578742E+02 -0.35599608751E+03  0.36861946375E+03  0.00000000000E+00 0. -1.
         -1    1    6    6    0  503 -0.16546543198E+03 -0.15184646614E+02 -0.27730092267E+03  0.32327261620E+03  0.00000000000E+00 0.  1.
<mgrwt>
<rscale>  0 0.19783715E+04</rscale>
<asrwt>0</asrwt>
<pdfrwt beam="1">  1        1 0.13670402E+00 0.19783715E+04</pdfrwt>
<pdfrwt beam="2">  1       -4 0.16941337E+00 0.19783715E+04</pdfrwt>
<totfact> 0.17829824E+00</totfact>
</mgrwt>
</event>
<event>
12    4  0.4320235E-008  0.1535710E+04  0.7818608E-02  0.8861048E-01
         -2   -1    0    0    0  501 -0.00000000000E+00  0.00000000000E+00  0.43218880598E+03  0.43218880598E+03  0.00000000000E+00 0.  1.
          1   -1    0    0  501    0  0.00000000000E+00 -0.00000000000E+00 -0.13642212522E+04  0.13642212522E+04  0.00000000000E+00 0. -1.
        -24    2    1    2    0    0  0.40438028869E+03 -0.52988342485E+02 -0.59213253863E+03  0.72344879112E+03  0.80162508368E+02 0.  0.
        254    2    1    2    0    0 -0.40438028869E+03  0.52988342485E+02 -0.33989990754E+03  0.10729612670E+04  0.93240696642E+03 0.  0.
         23    2    4    4    0    0  0.10430896593E+01  0.57078759093E+02 -0.58224330628E+03  0.59205160108E+03  0.90877708222E+02 0.  0.
         23    2    4    4    0    0 -0.40542337835E+03 -0.40904166080E+01  0.24234339874E+03  0.48090966593E+03  0.90326832423E+02 0.  0.
          3    1    3    3  502    0  0.36523626211E+03 -0.40210592096E+02 -0.48352852709E+03  0.60730079482E+03  0.00000000000E+00 0. -1.
         -4    1    3    3    0  502  0.39144026577E+02 -0.12777750389E+02 -0.10860401155E+03  0.11614799631E+03  0.00000000000E+00 0.  1.
         11    1    5    5    0    0  0.24757655328E+02  0.14990826957E+02 -0.51189589469E+02  0.58805105733E+02  0.00000000000E+00 0. -1.
        -11    1    5    5    0    0 -0.23714565668E+02  0.42087932136E+02 -0.53105371681E+03  0.53324649534E+03  0.00000000000E+00 0.  1.
          1    1    6    6  503    0 -0.42454039650E+02 -0.55038575504E+00  0.63165049655E+02  0.76108290645E+02  0.00000000000E+00 0. -1.
         -1    1    6    6    0  503 -0.36296933870E+03 -0.35400308530E+01  0.17917834908E+03  0.40480137529E+03  0.00000000000E+00 0.  1.
<mgrwt>
<rscale>  0 0.15357098E+04</rscale>
<asrwt>0</asrwt>
<pdfrwt beam="1">  1        1 0.20988019E+00 0.15357098E+04</pdfrwt>
<pdfrwt beam="2">  1       -2 0.66490586E-01 0.15357098E+04</pdfrwt>
<totfact> 0.14323912E+01</totfact>
</mgrwt>
</event>
<event>
12    4  0.4320235E-008  0.1385029E+04  0.7818608E-02  0.8964727E-01
         -2   -1    0    0    0  501 -0.00000000000E+00  0.00000000000E+00  0.39700470841E+03  0.39700470841E+03  0.00000000000E+00 0.  1.
          1   -1    0    0  501    0  0.00000000000E+00 -0.00000000000E+00 -0.12079864933E+04  0.12079864933E+04  0.00000000000E+00 0. -1.
        -24    2    1    2    0    0  0.29082944536E+02 -0.38263074035E+03 -0.35657357865E+03  0.52978095178E+03  0.79189890502E+02 0.  0.
        254    2    1    2    0    0 -0.29082944536E+02  0.38263074035E+03 -0.45440820621E+03  0.10752102499E+04  0.89573330990E+03 0.  0.
         23    2    4    4    0    0  0.35364216157E+03  0.17440555090E+03  0.43979239211E+02  0.40703483118E+03  0.90901626414E+02 0.  0.
         23    2    4    4    0    0 -0.38272510611E+03  0.20822518946E+03 -0.49838744542E+03  0.66817541871E+03  0.90730965206E+02 0.  0.
          1    1    3    3  502    0  0.35734657256E+02 -0.29445556203E+03 -0.31293997203E+03  0.43117568326E+03  0.00000000000E+00 0. -1.
         -2    1    3    3    0  502 -0.66517127203E+01 -0.88175178322E+02 -0.43633606616E+02  0.98605268524E+02  0.00000000000E+00 0.  1.
         11    1    5    5    0    0  0.72249079232E+02  0.12371802176E+02  0.37323666335E+02  0.82255984631E+02  0.00000000000E+00 0.  1.
        -11    1    5    5    0    0  0.28139308234E+03  0.16203374872E+03  0.66555728761E+01  0.32477884655E+03  0.00000000000E+00 0. -1.
          2    1    6    6  503    0 -0.26932932381E+03  0.11016531213E+03 -0.28430414122E+03  0.40682124499E+03  0.00000000000E+00 0. -1.
         -2    1    6    6    0  503 -0.11339578230E+03  0.98059877323E+02 -0.21408330419E+03  0.26135417371E+03  0.00000000000E+00 0.  1.
<mgrwt>
<rscale>  0 0.13850290E+04</rscale>
<asrwt>0</asrwt>
<pdfrwt beam="1">  1        1 0.18584408E+00 0.13850290E+04</pdfrwt>
<pdfrwt beam="2">  1       -2 0.61077647E-01 0.13850290E+04</pdfrwt>
<totfact> 0.22511810E+01</totfact>
</mgrwt>
</event>
<event>
12    4  0.4320235E-008  0.1584639E+04  0.7818608E-02  0.8830041E-01
          1   -1    0    0  501    0  0.00000000000E+00  0.00000000000E+00  0.17697732818E+04  0.17697732818E+04  0.00000000000E+00 0. -1.
         -2   -1    0    0    0  501 -0.00000000000E+00 -0.00000000000E+00 -0.35471770476E+03  0.35471770476E+03  0.00000000000E+00 0.  1.
        -24    2    1    2    0    0 -0.35479794761E+03  0.36251122943E+02 -0.70028304796E+01  0.36566741854E+03  0.80423216812E+02 0.  0.
        254    2    1    2    0    0  0.35479794761E+03 -0.36251122943E+02  0.14220584075E+04  0.17588235680E+04  0.97160408681E+03 0.  0.
         23    2    4    4    0    0 -0.28295816416E+02  0.41777500093E+03  0.50110639019E+03  0.65905978681E+03  0.88969565984E+02 0.  0.
         23    2    4    4    0    0  0.38309376403E+03 -0.45402612388E+03  0.92095201730E+03  0.10997637812E+04  0.91799798759E+02 0.  0.
          1    1    3    3  502    0 -0.74402717811E+01  0.66748698679E+01 -0.13735915975E+02  0.16987846232E+02  0.00000000000E+00 0. -1.
         -2    1    3    3    0  502 -0.34735767583E+03  0.29576253075E+02  0.67330854950E+01  0.34867957231E+03  0.00000000000E+00 0.  1.
         11    1    5    5    0    0 -0.35321542215E+02  0.14355316062E+03  0.22978538465E+03  0.27323331471E+03  0.00000000000E+00 0.  1.
        -11    1    5    5    0    0  0.70257257990E+01  0.27422184031E+03  0.27132100554E+03  0.38582647210E+03  0.00000000000E+00 0. -1.
          3    1    6    6  503    0  0.10841173462E+03 -0.14288321829E+03  0.35729705705E+03  0.39978732502E+03  0.00000000000E+00 0. -1.
         -3    1    6    6    0  503  0.27468202941E+03 -0.31114290559E+03  0.56365496026E+03  0.69997645617E+03  0.00000000000E+00 0.  1.
<mgrwt>
<rscale>  0 0.15846387E+04</rscale>
<asrwt>0</asrwt>
<pdfrwt beam="1">  1        1 0.27227281E+00 0.15846387E+04</pdfrwt>
<pdfrwt beam="2">  1       -2 0.54571956E-01 0.15846387E+04</pdfrwt>
<totfact> 0.11383997E+01</totfact>
</mgrwt>
</event>
<event>
12    4  0.4320235E-008  0.1408283E+04  0.7818608E-02  0.8947844E-01
          1   -1    0    0  501    0  0.00000000000E+00  0.00000000000E+00  0.96629298527E+03  0.96629298527E+03  0.00000000000E+00 0. -1.
         -2   -1    0    0    0  501 -0.00000000000E+00 -0.00000000000E+00 -0.51311104548E+03  0.51311104548E+03  0.00000000000E+00 0.  1.
        -24    2    1    2    0    0  0.37453975911E+03 -0.16536271428E+03  0.42268410483E+02  0.41874028962E+03  0.77019174268E+02 0.  0.
        254    2    1    2    0    0 -0.37453975911E+03  0.16536271428E+03  0.41091352931E+03  0.10606637411E+04  0.88799368508E+03 0.  0.
         23    2    4    4    0    0 -0.27899196718E+03 -0.29366718794E+03 -0.22509267514E+02  0.41549254001E+03  0.89724292456E+02 0.  0.
         23    2    4    4    0    0 -0.95547791922E+02  0.45902990222E+03  0.43342279682E+03  0.64517120111E+03  0.92480950818E+02 0.  0.
          3    1    3    3  502    0  0.92277243873E+01  0.46839671817E+00 -0.10623576085E+02  0.14079441100E+02  0.00000000000E+00 0. -1.
         -4    1    3    3    0  502  0.36531203472E+03 -0.16583111100E+03  0.52891986569E+02  0.40466084852E+03  0.00000000000E+00 0.  1.
         11    1    5    5    0    0 -0.14824459199E+03 -0.15629629732E+03 -0.56778231317E+02  0.22277513138E+03  0.00000000000E+00 0. -1.
        -11    1    5    5    0    0 -0.13074737520E+03 -0.13737089061E+03  0.34268963803E+02  0.19271740863E+03  0.00000000000E+00 0.  1.
          3    1    6    6  503    0 -0.76690857890E+02  0.30636096121E+03  0.34507494111E+03  0.46777691394E+03  0.00000000000E+00 0. -1.
         -3    1    6    6    0  503 -0.18856934032E+02  0.15266894101E+03  0.88347855711E+02  0.17739428716E+03  0.00000000000E+00 0.  1.
<mgrwt>
<rscale>  0 0.14082835E+04</rscale>
<asrwt>0</asrwt>
<pdfrwt beam="1">  1        1 0.14866046E+00 0.14082835E+04</pdfrwt>
<pdfrwt beam="2">  1       -2 0.78940161E-01 0.14082835E+04</pdfrwt>
<totfact> 0.19572618E+01</totfact>
</mgrwt>
</event>
<event>
12    4  0.4320235E-008  0.1967260E+04  0.7818608E-02  0.8622082E-01
          1   -1    0    0  501    0  0.00000000000E+00  0.00000000000E+00  0.56965713774E+03  0.56965713774E+03  0.00000000000E+00 0. -1.
         -2   -1    0    0    0  501 -0.00000000000E+00 -0.00000000000E+00 -0.16984397241E+04  0.16984397241E+04  0.00000000000E+00 0.  1.
        -24    2    1    2    0    0  0.66632024941E+02 -0.19330414636E+03  0.41405129169E+03  0.46869006161E+03  0.80159727793E+02 0.  0.
        254    2    1    2    0    0 -0.66632024941E+02  0.19330414636E+03 -0.15428338780E+04  0.17994068002E+04  0.90317337077E+03 0.  0.
         23    2    4    4    0    0 -0.82118128993E+02 -0.84786775745E+01  0.89507232685E+02  0.15207149180E+03  0.91098401921E+02 0.  0.
         23    2    4    4    0    0  0.15486104052E+02  0.20178282394E+03 -0.16323411107E+04  0.16473353084E+04  0.90664155655E+02 0.  0.
          1    1    3    3  502    0  0.65026914979E+02 -0.69747061355E+02  0.19895329413E+03  0.22062539628E+03  0.00000000000E+00 0. -1.
         -2    1    3    3    0  502  0.16051099624E+01 -0.12355708501E+03  0.21509799755E+03  0.24806466533E+03  0.00000000000E+00 0.  1.
         11    1    5    5    0    0 -0.97439376766E+02 -0.24461964485E+02  0.68856037565E+02  0.12179480186E+03  0.00000000000E+00 0.  1.
        -11    1    5    5    0    0  0.15321247773E+02  0.15983286911E+02  0.20651195120E+02  0.30276689939E+02  0.00000000000E+00 0. -1.
          4    1    6    6  503    0 -0.21907564416E+02  0.16232117903E+03 -0.10838293509E+04  0.10961360173E+04  0.00000000000E+00 0. -1.
         -4    1    6    6    0  503  0.37393668468E+02  0.39461644910E+02 -0.54851175984E+03  0.55119929113E+03  0.00000000000E+00 0.  1.
<mgrwt>
<rscale>  0 0.19672603E+04</rscale>
<asrwt>0</asrwt>
<pdfrwt beam="1">  1        1 0.87639562E-01 0.19672603E+04</pdfrwt>
<pdfrwt beam="2">  1       -2 0.26129841E+00 0.19672603E+04</pdfrwt>
<totfact> 0.16466345E+00</totfact>
</mgrwt>
</event>
<event>
12    4  0.4320235E-008  0.1245483E+04  0.7818608E-02  0.9073951E-01
          1   -1    0    0  501    0  0.00000000000E+00  0.00000000000E+00  0.14250698771E+03  0.14250698771E+03  0.00000000000E+00 0. -1.
         -2   -1    0    0    0  501 -0.00000000000E+00 -0.00000000000E+00 -0.27213203294E+04  0.27213203294E+04  0.00000000000E+00 0.  1.
        -24    2    1    2    0    0  0.65058648381E+02 -0.37878297759E+02 -0.12927571466E+04  0.12981739587E+04  0.91472366818E+02 0.  0.
        254    2    1    2    0    0 -0.65058648381E+02  0.37878297759E+02 -0.12860561951E+04  0.15656533584E+04  0.88975418432E+03 0.  0.
         23    2    4    4    0    0 -0.29070912282E+03 -0.12324976385E+01 -0.12808501767E+04  0.13164568144E+04  0.89263967040E+02 0.  0.
         23    2    4    4    0    0  0.22565047443E+03  0.39110795397E+02 -0.52060184289E+01  0.24919654405E+03  0.98102110105E+02 0.  0.
          1    1    3    3  502    0 -0.15231559938E+02 -0.23763209068E+02 -0.59528683613E+03  0.59595562570E+03  0.00000000000E+00 0. -1.
         -2    1    3    3    0  502  0.80290208319E+02 -0.14115088691E+02 -0.69747031046E+03  0.70221833304E+03  0.00000000000E+00 0.  1.
         11    1    5    5    0    0 -0.68697549679E+02  0.12225965243E+02 -0.48933724475E+03  0.49428712977E+03  0.00000000000E+00 0. -1.
        -11    1    5    5    0    0 -0.22201157314E+03 -0.13458462882E+02 -0.79151293194E+03  0.82216968459E+03  0.00000000000E+00 0.  1.
          3    1    6    6  503    0  0.73920993611E+02  0.20141688636E+02 -0.48000478817E+02  0.90410435704E+02  0.00000000000E+00 0. -1.
         -3    1    6    6    0  503  0.15172948082E+03  0.18969106761E+02  0.42794460388E+02  0.15878610834E+03  0.00000000000E+00 0.  1.
<mgrwt>
<rscale>  0 0.12454833E+04</rscale>
<asrwt>0</asrwt>
<pdfrwt beam="1">  1        1 0.21924153E-01 0.12454833E+04</pdfrwt>
<pdfrwt beam="2">  1       -2 0.41866464E+00 0.12454833E+04</pdfrwt>
<totfact> 0.11367203E+00</totfact>
</mgrwt>
</event>
<event>
12    4  0.4320235E-008  0.1774168E+04  0.7818608E-02  0.8720159E-01
          3   -1    0    0  501    0  0.00000000000E+00  0.00000000000E+00  0.77292681173E+03  0.77292681173E+03  0.00000000000E+00 0. -1.
         -4   -1    0    0    0  501 -0.00000000000E+00 -0.00000000000E+00 -0.10181015845E+04  0.10181015845E+04  0.00000000000E+00 0.  1.
        -24    2    1    2    0    0  0.11473729993E+03  0.66977335851E+03 -0.38921653919E+03  0.78719925204E+03  0.80200674920E+02 0.  0.
        254    2    1    2    0    0 -0.11473729993E+03 -0.66977335851E+03  0.14404176642E+03  0.10038291442E+04  0.72468194439E+03 0.  0.
         23    2    4    4    0    0 -0.40639527178E+03 -0.31734609207E+03  0.95883378000E+02  0.53447463871E+03  0.10297503664E+03 0.  0.
         23    2    4    4    0    0  0.29165797185E+03 -0.35242726644E+03  0.48158388417E+02  0.46935450550E+03  0.93300968819E+02 0.  0.
          3    1    3    3  502    0  0.65534287884E+02  0.37766402323E+03 -0.17345638699E+03  0.42072791151E+03  0.00000000000E+00 0. -1.
         -4    1    3    3    0  502  0.49203012049E+02  0.29210933528E+03 -0.21576015220E+03  0.36647134053E+03  0.00000000000E+00 0.  1.
         11    1    5    5    0    0  0.56892694353E+01 -0.31902451840E+01 -0.25999539129E+01  0.70217669707E+01  0.00000000000E+00 0.  1.
        -11    1    5    5    0    0 -0.41208454122E+03 -0.31415584688E+03  0.98483331913E+02  0.52745287174E+03  0.00000000000E+00 0. -1.
          1    1    6    6  503    0  0.18128494258E+03 -0.26547598120E+03  0.64575604026E+02  0.32788982240E+03  0.00000000000E+00 0. -1.
         -1    1    6    6    0  503  0.11037302927E+03 -0.86951285246E+02 -0.16417215608E+02  0.14146468310E+03  0.00000000000E+00 0.  1.
<mgrwt>
<rscale>  0 0.17741680E+04</rscale>
<asrwt>0</asrwt>
<pdfrwt beam="1">  1        3 0.11891182E+00 0.17741680E+04</pdfrwt>
<pdfrwt beam="2">  1       -4 0.15663101E+00 0.17741680E+04</pdfrwt>
<totfact> 0.33244856E-01</totfact>
</mgrwt>
</event>
<event>
12    4  0.4320235E-008  0.1287631E+04  0.7818608E-02  0.9039432E-01
         -2   -1    0    0    0  501 -0.00000000000E+00  0.00000000000E+00  0.13517862834E+04  0.13517862834E+04  0.00000000000E+00 0.  1.
          1   -1    0    0  501    0  0.00000000000E+00 -0.00000000000E+00 -0.30663006386E+03  0.30663006386E+03  0.00000000000E+00 0. -1.
        -24    2    1    2    0    0 -0.13350573914E+03  0.22013602441E+03  0.51767816496E+03  0.58295684096E+03  0.74594532791E+02 0.  0.
        254    2    1    2    0    0  0.13350573914E+03 -0.22013602441E+03  0.52747805462E+03  0.10754595063E+04  0.90116391407E+03 0.  0.
         23    2    4    4    0    0  0.47937668046E+03  0.38214837244E+02  0.33660007570E+03  0.59411275467E+03  0.91695031167E+02 0.  0.
         23    2    4    4    0    0 -0.34587094132E+03 -0.25835086165E+03  0.19087797892E+03  0.48134675167E+03  0.94278400179E+02 0.  0.
          3    1    3    3  502    0 -0.10092218382E+02  0.81515408714E+02  0.17195714750E+03  0.19056724615E+03  0.00000000000E+00 0. -1.
         -4    1    3    3    0  502 -0.12341352076E+03  0.13862061569E+03  0.34572101746E+03  0.39238959481E+03  0.00000000000E+00 0.  1.
         11    1    5    5    0    0  0.56329888132E+02  0.25153819670E+01  0.73719527134E+01  0.56865887228E+02  0.00000000000E+00 0.  1.
        -11    1    5    5    0    0  0.42304679233E+03  0.35699455277E+02  0.32922812299E+03  0.53724686744E+03  0.00000000000E+00 0. -1.
          1    1    6    6  503    0 -0.24460577005E+03 -0.13964380734E+03  0.90612647573E+02  0.29587671008E+03  0.00000000000E+00 0. -1.
         -1    1    6    6    0  503 -0.10126517127E+03 -0.11870705431E+03  0.10026533134E+03  0.18547004158E+03  0.00000000000E+00 0.  1.
<mgrwt>
<rscale>  0 0.12876309E+04</rscale>
<asrwt>0</asrwt>
<pdfrwt beam="1">  1        1 0.47173857E-01 0.12876309E+04</pdfrwt>
<pdfrwt beam="2">  1       -2 0.20796712E+00 0.12876309E+04</pdfrwt>
<totfact> 0.86280429E+00</totfact>
</mgrwt>
</event>
<event>
12    4  0.4320235E-008  0.1310629E+04  0.7818608E-02  0.9021178E-01
         -2   -1    0    0    0  501 -0.00000000000E+00  0.00000000000E+00  0.18507078190E+03  0.18507078190E+03  0.00000000000E+00 0.  1.
          1   -1    0    0  501    0  0.00000000000E+00 -0.00000000000E+00 -0.23203938969E+04  0.23203938969E+04  0.00000000000E+00 0. -1.
        -24    2    1    2    0    0 -0.12231949970E+03 -0.46912949023E+01 -0.10671431427E+04  0.10769217485E+04  0.77342725146E+02 0.  0.
        254    2    1    2    0    0  0.12231949970E+03  0.46912949023E+01 -0.10681799723E+04  0.14285429303E+04  0.94060745382E+03 0.  0.
         23    2    4    4    0    0 -0.13948339111E+03 -0.23857716264E+02 -0.11302303360E+04  0.11427058216E+04  0.91275272074E+02 0.  0.
         23    2    4    4    0    0  0.26180289081E+03  0.28549011166E+02  0.62050363702E+02  0.28583710868E+03  0.92178117754E+02 0.  0.
          1    1    3    3  502    0 -0.91044690929E+02 -0.66303992996E+01 -0.98132811414E+03  0.98556479520E+03  0.00000000000E+00 0. -1.
         -4    1    3    3    0  502 -0.31274808772E+02  0.19391043973E+01 -0.85815028552E+02  0.91356953293E+02  0.00000000000E+00 0.  1.
         11    1    5    5    0    0 -0.65686009725E+02 -0.54991189086E+02 -0.48297942639E+03  0.49051789882E+03  0.00000000000E+00 0.  1.
        -11    1    5    5    0    0 -0.73797381380E+02  0.31133472821E+02 -0.64725090960E+03  0.65218792277E+03  0.00000000000E+00 0. -1.
          2    1    6    6  503    0  0.22738593115E+02  0.31713047804E+02  0.16904884610E+02  0.42526887278E+02  0.00000000000E+00 0.  1.
         -2    1    6    6    0  503  0.23906429769E+03 -0.31640366381E+01  0.45145479092E+02  0.24331022141E+03  0.00000000000E+00 0. -1.
<mgrwt>
<rscale>  0 0.13106290E+04</rscale>
<asrwt>0</asrwt>
<pdfrwt beam="1">  1        1 0.35698369E+00 0.13106290E+04</pdfrwt>
<pdfrwt beam="2">  1       -2 0.28472427E-01 0.13106290E+04</pdfrwt>
<totfact> 0.17610276E+01</totfact>
</mgrwt>
</event>
<event>
12    4  0.4320235E-008  0.1687789E+04  0.7818608E-02  0.8768360E-01
          1   -1    0    0  501    0  0.00000000000E+00  0.00000000000E+00  0.12911120924E+04  0.12911120924E+04  0.00000000000E+00 0. -1.
         -2   -1    0    0    0  501 -0.00000000000E+00 -0.00000000000E+00 -0.55158482990E+03  0.55158482990E+03  0.00000000000E+00 0.  1.
        -24    2    1    2    0    0  0.43782504867E+03  0.38655315133E+03  0.44948195444E+03  0.74104684061E+03  0.77474386500E+02 0.  0.
        254    2    1    2    0    0 -0.43782504867E+03 -0.38655315133E+03  0.29004530808E+03  0.11016500817E+04  0.88791469734E+03 0.  0.
         23    2    4    4    0    0  0.24779475314E+03 -0.11326403334E+02  0.14676143460E+03  0.30198091526E+03  0.90127839196E+02 0.  0.
         23    2    4    4    0    0 -0.68561980181E+03 -0.37522674799E+03  0.14328387348E+03  0.79966916645E+03  0.89838089556E+02 0.  0.
          1    1    3    3  502    0  0.15627907952E+03  0.99801030583E+02  0.11497842303E+03  0.21818211238E+03  0.00000000000E+00 0. -1.
         -2    1    3    3    0  502  0.28154596915E+03  0.28675212074E+03  0.33450353141E+03  0.52286472822E+03  0.00000000000E+00 0.  1.
         11    1    5    5    0    0  0.98323312196E+02 -0.40913824577E+02  0.89823177079E+02  0.13931840475E+03  0.00000000000E+00 0. -1.
        -11    1    5    5    0    0  0.14947144094E+03  0.29587421243E+02  0.56938257517E+02  0.16266251050E+03  0.00000000000E+00 0.  1.
          2    1    6    6  503    0 -0.37364108093E+03 -0.22907951226E+03  0.11981233586E+03  0.45435677185E+03  0.00000000000E+00 0. -1.
         -2    1    6    6    0  503 -0.31197872088E+03 -0.14614723573E+03  0.23471537625E+02  0.34531239461E+03  0.00000000000E+00 0.  1.
<mgrwt>
<rscale>  0 0.16877889E+04</rscale>
<asrwt>0</asrwt>
<pdfrwt beam="1">  1        1 0.19863263E+00 0.16877889E+04</pdfrwt>
<pdfrwt beam="2">  1       -2 0.84859205E-01 0.16877889E+04</pdfrwt>
<totfact> 0.92774388E+00</totfact>
</mgrwt>
</event>
<event>
12    4  0.4320235E-008  0.3883411E+04  0.7818608E-02  0.8028488E-01
         -2   -1    0    0    0  501 -0.00000000000E+00  0.00000000000E+00  0.13991100598E+04  0.13991100598E+04  0.00000000000E+00 0.  1.
          1   -1    0    0  501    0  0.00000000000E+00 -0.00000000000E+00 -0.26947273401E+04  0.26947273401E+04  0.00000000000E+00 0. -1.
        -24    2    1    2    0    0 -0.48681482234E+03  0.17428181941E+04 -0.28968268331E+03  0.18342624005E+04  0.78730983587E+02 0.  0.
        254    2    1    2    0    0  0.48681482234E+03 -0.17428181941E+04 -0.10059345970E+04  0.22595749995E+04  0.90519104929E+03 0.  0.
         23    2    4    4    0    0 -0.18226685162E+03 -0.99587535119E+03 -0.52302695377E+03  0.11430504978E+04  0.89545104868E+02 0.  0.
         23    2    4    4    0    0  0.66908167396E+03 -0.74694284294E+03 -0.48290764325E+03  0.11165245017E+04  0.88505784609E+02 0.  0.
          1    1    3    3  502    0 -0.24375852137E+03  0.81392780184E+03 -0.17244204799E+03  0.86696767141E+03  0.00000000000E+00 0. -1.
         -2    1    3    3    0  502 -0.24305630098E+03  0.92889039228E+03 -0.11724063532E+03  0.96729472907E+03  0.00000000000E+00 0.  1.
         11    1    5    5    0    0 -0.48114765212E+02 -0.19850937607E+03 -0.14488396155E+03  0.25042437049E+03  0.00000000000E+00 0.  1.
        -11    1    5    5    0    0 -0.13415208641E+03 -0.79736597512E+03 -0.37814299222E+03  0.89262612730E+03  0.00000000000E+00 0. -1.
          4    1    6    6  503    0  0.63895987905E+03 -0.67910939982E+03 -0.44533996308E+03  0.10333377892E+04  0.00000000000E+00 0. -1.
         -4    1    6    6    0  503  0.30121794912E+02 -0.67833443119E+02 -0.37567680165E+02  0.83186712443E+02  0.00000000000E+00 0.  1.
<mgrwt>
<rscale>  0 0.38834109E+04</rscale>
<asrwt>0</asrwt>
<pdfrwt beam="1">  1        1 0.41457344E+00 0.38834109E+04</pdfrwt>
<pdfrwt beam="2">  1       -2 0.21524770E+00 0.38834109E+04</pdfrwt>
<totfact> 0.72933601E-02</totfact>
</mgrwt>
</event>
<event>
12    4  0.4320235E-008  0.1496125E+04  0.7818608E-02  0.8887034E-01
          1   -1    0    0  501    0  0.00000000000E+00  0.00000000000E+00  0.18111304043E+04  0.18111304043E+04  0.00000000000E+00 0. -1.
         -2   -1    0    0    0  501 -0.00000000000E+00 -0.00000000000E+00 -0.30897688943E+03  0.30897688943E+03  0.00000000000E+00 0.  1.
        -24    2    1    2    0    0  0.45292283138E+03 -0.43395674934E+02  0.59042518794E+03  0.75016909261E+03  0.84436302427E+02 0.  0.
        254    2    1    2    0    0 -0.45292283138E+03  0.43395674934E+02  0.91172832690E+03  0.13699382011E+04  0.91567453659E+03 0.  0.
         23    2    4    4    0    0 -0.48615887411E+03  0.40290899217E+03  0.67228227514E+03  0.92690211101E+03  0.92184375441E+02 0.  0.
         23    2    4    4    0    0  0.33236042731E+02 -0.35951331723E+03  0.23944605175E+03  0.44303609008E+03  0.92693611497E+02 0.  0.
          1    1    3    3  502    0  0.11684708242E+03 -0.20313828099E+02  0.99661022658E+02  0.15491356209E+03  0.00000000000E+00 0. -1.
         -2    1    3    3    0  502  0.33607574896E+03 -0.23081846835E+02  0.49076416528E+03  0.59525553053E+03  0.00000000000E+00 0.  1.
         11    1    5    5    0    0 -0.45390929263E+03  0.35018321032E+03  0.63120232095E+03  0.85268886277E+03  0.00000000000E+00 0.  1.
        -11    1    5    5    0    0 -0.32249581485E+02  0.52725781848E+02  0.41079954191E+02  0.74213248236E+02  0.00000000000E+00 0. -1.
          1    1    6    6  503    0 -0.23747386042E+02 -0.18168743733E+03  0.14565675832E+03  0.23407296826E+03  0.00000000000E+00 0. -1.
         -1    1    6    6    0  503  0.56983428772E+02 -0.17782587991E+03  0.93789293430E+02  0.20896312182E+03  0.00000000000E+00 0.  1.
<mgrwt>
<rscale>  0 0.14961249E+04</rscale>
<asrwt>0</asrwt>
<pdfrwt beam="1">  1        1 0.27863544E+00 0.14961249E+04</pdfrwt>
<pdfrwt beam="2">  1       -2 0.47534907E-01 0.14961249E+04</pdfrwt>
<totfact> 0.14265522E+01</totfact>
</mgrwt>
</event>
<event>
12    4  0.4320235E-008  0.3119680E+04  0.7818608E-02  0.8210358E-01
          3   -1    0    0  501    0  0.00000000000E+00  0.00000000000E+00  0.24627346754E+04  0.24627346754E+04  0.00000000000E+00 0. -1.
         -4   -1    0    0    0  501 -0.00000000000E+00 -0.00000000000E+00 -0.98796705576E+03  0.98796705576E+03  0.00000000000E+00 0.  1.
        -24    2    1    2    0    0 -0.33575129026E+02 -0.94199157209E+03 -0.51312180480E+03  0.10761234787E+04  0.79198129354E+02 0.  0.
        254    2    1    2    0    0  0.33575129026E+02  0.94199157209E+03  0.19878894245E+04  0.23745782525E+04  0.89355587515E+03 0.  0.
         23    2    4    4    0    0 -0.22728082116E+03  0.21766749369E+02  0.85738718839E+03  0.89094854228E+03  0.80908288389E+02 0.  0.
         23    2    4    4    0    0  0.26085595019E+03  0.92022482272E+03  0.11305022361E+04  0.14836297102E+04  0.90896975081E+02 0.  0.
          3    1    3    3  502    0 -0.76348881512E+01 -0.20615168354E+02 -0.18017397286E+01  0.22057265229E+02  0.00000000000E+00 0. -1.
         -4    1    3    3    0  502 -0.25940240875E+02 -0.92137640374E+03 -0.51132006507E+03  0.10540662135E+04  0.00000000000E+00 0.  1.
         11    1    5    5    0    0 -0.32793571213E+02  0.15352825181E+02  0.59303933355E+02  0.69484415989E+02  0.00000000000E+00 0.  1.
        -11    1    5    5    0    0 -0.19448724995E+03  0.64139241875E+01  0.79808325504E+03  0.82146412629E+03  0.00000000000E+00 0. -1.
          3    1    6    6  503    0  0.26416263094E+03  0.88927924036E+03  0.10744897540E+04  0.14195519344E+04  0.00000000000E+00 0. -1.
         -3    1    6    6    0  503 -0.33066807546E+01  0.30945582363E+02  0.56012482093E+02  0.64077775832E+02  0.00000000000E+00 0.  1.
<mgrwt>
<rscale>  0 0.31196799E+04</rscale>
<asrwt>0</asrwt>
<pdfrwt beam="1">  1        3 0.37888226E+00 0.31196799E+04</pdfrwt>
<pdfrwt beam="2">  1       -4 0.15199493E+00 0.31196799E+04</pdfrwt>
<totfact> 0.79998267E-03</totfact>
</mgrwt>
</event>
<event>
12    4  0.4320235E-008  0.2492694E+04  0.7818608E-02  0.8405593E-01
         -2   -1    0    0    0  501 -0.00000000000E+00  0.00000000000E+00  0.15407167471E+04  0.15407167471E+04  0.00000000000E+00 0.  1.
          1   -1    0    0  501    0  0.00000000000E+00 -0.00000000000E+00 -0.10082197978E+04  0.10082197978E+04  0.00000000000E+00 0. -1.
        -24    2    1    2    0    0 -0.10017632475E+04 -0.32370856160E+03 -0.21844179861E+02  0.10562909733E+04  0.83406325902E+02 0.  0.
        254    2    1    2    0    0  0.10017632475E+04  0.32370856160E+03  0.55434112914E+03  0.14926455716E+04  0.90132118468E+03 0.  0.
         23    2    4    4    0    0  0.60804537213E+03 -0.76202175108E+02 -0.97834792568E+02  0.62720223967E+03  0.91022287140E+02 0.  0.
         23    2    4    4    0    0  0.39371787540E+03  0.39991073670E+03  0.65217592171E+03  0.86544333191E+03  0.93361475693E+02 0.  0.
          1    1    3    3  502    0 -0.96943724606E+03 -0.30647055276E+03 -0.35098313320E+02  0.10173321313E+04  0.00000000000E+00 0. -1.
         -2    1    3    3    0  502 -0.32326001466E+02 -0.17238008831E+02  0.13254133459E+02  0.38958842039E+02  0.00000000000E+00 0.  1.
         11    1    5    5    0    0  0.12018467302E+02 -0.14951493427E+02  0.35799513114E+01  0.19514270762E+02  0.00000000000E+00 0. -1.
        -11    1    5    5    0    0  0.59602690483E+03 -0.61250681681E+02 -0.10141474388E+03  0.60768796891E+03  0.00000000000E+00 0.  1.
          4    1    6    6  503    0  0.97960110482E+02  0.15918832770E+03  0.19525585773E+03  0.27029975379E+03  0.00000000000E+00 0. -1.
         -4    1    6    6    0  503  0.29575776492E+03  0.24072240901E+03  0.45692006398E+03  0.59514357812E+03  0.00000000000E+00 0.  1.
<mgrwt>
<rscale>  0 0.24926942E+04</rscale>
<asrwt>0</asrwt>
<pdfrwt beam="1">  1        1 0.15511074E+00 0.24926942E+04</pdfrwt>
<pdfrwt beam="2">  1       -2 0.23703334E+00 0.24926942E+04</pdfrwt>
<totfact> 0.89826862E-01</totfact>
</mgrwt>
</event>
<event>
12    4  0.4320235E-008  0.1437385E+04  0.7818608E-02  0.8927193E-01
          1   -1    0    0  501    0  0.00000000000E+00  0.00000000000E+00  0.88578385538E+03  0.88578385538E+03  0.00000000000E+00 0. -1.
         -2   -1    0    0    0  501 -0.00000000000E+00 -0.00000000000E+00 -0.58312068573E+03  0.58312068573E+03  0.00000000000E+00 0.  1.
        -24    2    1    2    0    0 -0.53421285997E+01 -0.25217239795E+03  0.44196936408E+03  0.51586894894E+03  0.84642761512E+02 0.  0.
        254    2    1    2    0    0  0.53421285997E+01  0.25217239795E+03 -0.13930619443E+03  0.95303559217E+03  0.90843335887E+03 0.  0.
         23    2    4    4    0    0 -0.28512428228E+03  0.47228794966E+03 -0.23579083739E+02  0.55998165463E+03  0.93122052144E+02 0.  0.
         23    2    4    4    0    0  0.29046641087E+03 -0.22011555171E+03 -0.11572711069E+03  0.39305393754E+03  0.90978248587E+02 0.  0.
          3    1    3    3  502    0 -0.34441677097E+02 -0.21055672471E+03  0.37951291372E+03  0.43537387970E+03  0.00000000000E+00 0. -1.
         -4    1    3    3    0  502  0.29099548497E+02 -0.41615673238E+02  0.62456450355E+02  0.80495069245E+02  0.00000000000E+00 0.  1.
         11    1    5    5    0    0 -0.36088867383E+01  0.39658374962E+02  0.14597879710E+02  0.42413545715E+02  0.00000000000E+00 0. -1.
        -11    1    5    5    0    0 -0.28151539554E+03  0.43262957470E+03 -0.38176963449E+02  0.51756810891E+03  0.00000000000E+00 0.  1.
          3    1    6    6  503    0  0.11074436833E+02 -0.43808031240E+02 -0.11385243700E+02  0.46598396179E+02  0.00000000000E+00 0. -1.
         -3    1    6    6    0  503  0.27939197404E+03 -0.17630752047E+03 -0.10434186699E+03  0.34645554136E+03  0.00000000000E+00 0.  1.
<mgrwt>
<rscale>  0 0.14373850E+04</rscale>
<asrwt>0</asrwt>
<pdfrwt beam="1">  1        1 0.13627444E+00 0.14373850E+04</pdfrwt>
<pdfrwt beam="2">  1       -2 0.89710874E-01 0.14373850E+04</pdfrwt>
<totfact> 0.16959023E+01</totfact>
</mgrwt>
</event>
<event>
12    4  0.4320235E-008  0.1738970E+04  0.7818608E-02  0.8739445E-01
         -2   -1    0    0    0  501 -0.00000000000E+00  0.00000000000E+00  0.21099878900E+04  0.21099878900E+04  0.00000000000E+00 0.  1.
          1   -1    0    0  501    0  0.00000000000E+00 -0.00000000000E+00 -0.35829799411E+03  0.35829799411E+03  0.00000000000E+00 0. -1.
        -24    2    1    2    0    0 -0.23377252408E+02  0.59017560374E+03  0.32440583697E+03  0.67863419012E+03  0.80321091568E+02 0.  0.
        254    2    1    2    0    0  0.23377252408E+02 -0.59017560374E+03  0.14272840590E+04  0.17896516940E+04  0.90380288882E+03 0.  0.
         23    2    4    4    0    0 -0.32425054530E+03 -0.42224612235E+03  0.35605364925E+03  0.64734991297E+03  0.94114317239E+02 0.  0.
         23    2    4    4    0    0  0.34762779771E+03 -0.16792948140E+03  0.10712304097E+04  0.11423017811E+04  0.90958077655E+02 0.  0.
          1    1    3    3  502    0 -0.41605982554E+02  0.42885878978E+03  0.26455921828E+03  0.50561101584E+03  0.00000000000E+00 0. -1.
         -2    1    3    3    0  502  0.18228730146E+02  0.16131681396E+03  0.59846618689E+02  0.17302317428E+03  0.00000000000E+00 0.  1.
         11    1    5    5    0    0 -0.80176296681E+01  0.16628739658E+01 -0.23030140570E+01  0.85059631476E+01  0.00000000000E+00 0.  1.
        -11    1    5    5    0    0 -0.31623291564E+03 -0.42390899631E+03  0.35835666331E+03  0.63884394982E+03  0.00000000000E+00 0. -1.
          2    1    6    6  503    0  0.34605834032E+03 -0.15593233654E+03  0.10595455119E+04  0.11254812128E+04  0.00000000000E+00 0. -1.
         -2    1    6    6    0  503  0.15694573972E+01 -0.11997144856E+02  0.11684897756E+02  0.16820568266E+02  0.00000000000E+00 0.  1.
<mgrwt>
<rscale>  0 0.17389703E+04</rscale>
<asrwt>0</asrwt>
<pdfrwt beam="1">  1        1 0.55122770E-01 0.17389703E+04</pdfrwt>
<pdfrwt beam="2">  1       -2 0.32461351E+00 0.17389703E+04</pdfrwt>
<totfact> 0.12950449E+00</totfact>
</mgrwt>
</event>
<event>
12    4  0.4320235E-008  0.1195469E+04  0.7818608E-02  0.9116832E-01
         -4   -1    0    0    0  501 -0.00000000000E+00  0.00000000000E+00  0.80293362296E+02  0.80293362296E+02  0.00000000000E+00 0.  1.
          1   -1    0    0  501    0  0.00000000000E+00 -0.00000000000E+00 -0.44497665249E+04  0.44497665249E+04  0.00000000000E+00 0. -1.
        -24    2    1    2    0    0 -0.10136090185E+03 -0.22535019508E+03 -0.85766782875E+03  0.89598476508E+03  0.78344444208E+02 0.  0.
        254    2    1    2    0    0  0.10136090185E+03  0.22535019508E+03 -0.35118053338E+04  0.36340751221E+04  0.90148130731E+03 0.  0.
         23    2    4    4    0    0 -0.34211315093E+03  0.23769630803E+02 -0.22583129964E+04  0.22860671209E+04  0.92297824547E+02 0.  0.
         23    2    4    4    0    0  0.44347405279E+03  0.20158056428E+03 -0.12534923374E+04  0.13480080011E+04  0.92620579461E+02 0.  0.
          3    1    3    3  502    0 -0.31898458026E+02 -0.19156019040E+02 -0.19477537345E+03  0.19829753098E+03  0.00000000000E+00 0. -1.
         -4    1    3    3    0  502 -0.69462443829E+02 -0.20619417604E+03 -0.66289245529E+03  0.69768723409E+03  0.00000000000E+00 0.  1.
         11    1    5    5    0    0 -0.31845032912E+03  0.17319141154E+01 -0.21333800793E+04  0.21570174256E+04  0.00000000000E+00 0.  1.
        -11    1    5    5    0    0 -0.23662821807E+02  0.22037716688E+02 -0.12493291708E+03  0.12904969532E+03  0.00000000000E+00 0. -1.
          1    1    6    6  503    0  0.10694342130E+03  0.11211358324E+02 -0.32115172585E+03  0.33867539168E+03  0.00000000000E+00 0. -1.
         -1    1    6    6    0  503  0.33653063148E+03  0.19036920595E+03 -0.93234061159E+03  0.10093326095E+04  0.00000000000E+00 0.  1.
<mgrwt>
<rscale>  0 0.11954693E+04</rscale>
<asrwt>0</asrwt>
<pdfrwt beam="1">  1        1 0.68457960E+00 0.11954693E+04</pdfrwt>
<pdfrwt beam="2">  1       -4 0.12352823E-01 0.11954693E+04</pdfrwt>
<totfact> 0.10443963E+00</totfact>
</mgrwt>
</event>
<event>
12    4  0.4320235E-008  0.1200344E+04  0.7818608E-02  0.9112555E-01
          1   -1    0    0  501    0  0.00000000000E+00  0.00000000000E+00  0.15383984547E+04  0.15383984547E+04  0.00000000000E+00 0. -1.
         -2   -1    0    0    0  501 -0.00000000000E+00 -0.00000000000E+00 -0.23414387688E+03  0.23414387688E+03  0.00000000000E+00 0.  1.
        -24    2    1    2    0    0  0.23315941556E+03 -0.97452054866E+02  0.26348546579E+03  0.37332743547E+03  0.78029272297E+02 0.  0.
        254    2    1    2    0    0 -0.23315941556E+03  0.97452054866E+02  0.10407691120E+04  0.13992148961E+04  0.90041199727E+03 0.  0.
         23    2    4    4    0    0 -0.45747297236E+03 -0.67196754481E+02  0.20721133916E+03  0.51592686521E+03  0.97196023142E+02 0.  0.
         23    2    4    4    0    0  0.22431355680E+03  0.16464880935E+03  0.83355777283E+03  0.88328803085E+03  0.89181739251E+02 0.  0.
          3    1    3    3  502    0  0.17301153167E+03 -0.43744559479E+02  0.21429694262E+03  0.27887229369E+03  0.00000000000E+00 0. -1.
         -4    1    3    3    0  502  0.60147883890E+02 -0.53707495387E+02  0.49188523168E+02  0.94455141779E+02  0.00000000000E+00 0.  1.
         11    1    5    5    0    0 -0.28258195684E+03 -0.22964509126E+02  0.78060275030E+02  0.29406349238E+03  0.00000000000E+00 0.  1.
        -11    1    5    5    0    0 -0.17489101552E+03 -0.44232245355E+02  0.12915106413E+03  0.22186337283E+03  0.00000000000E+00 0. -1.
          1    1    6    6  503    0  0.61822400469E+01 -0.89282742028E+01  0.14671956942E+02  0.18253780232E+02  0.00000000000E+00 0. -1.
         -1    1    6    6    0  503  0.21813131676E+03  0.17357708355E+03  0.81888581589E+03  0.86503425062E+03  0.00000000000E+00 0.  1.
<mgrwt>
<rscale>  0 0.12003442E+04</rscale>
<asrwt>0</asrwt>
<pdfrwt beam="1">  1        1 0.23667668E+00 0.12003442E+04</pdfrwt>
<pdfrwt beam="2">  1       -2 0.36022136E-01 0.12003442E+04</pdfrwt>
<totfact> 0.38734769E+01</totfact>
</mgrwt>
</event>
<event>
12    4  0.4320235E-008  0.1278591E+04  0.7818608E-02  0.9046717E-01
         -2   -1    0    0    0  501 -0.00000000000E+00  0.00000000000E+00  0.10743291231E+04  0.10743291231E+04  0.00000000000E+00 0.  1.
          1   -1    0    0  501    0  0.00000000000E+00 -0.00000000000E+00 -0.38042254974E+03  0.38042254974E+03  0.00000000000E+00 0. -1.
        -24    2    1    2    0    0 -0.21447283064E+02  0.28785694994E+03  0.31492839041E+03  0.43479436526E+03  0.80898945578E+02 0.  0.
        254    2    1    2    0    0  0.21447283064E+02 -0.28785694994E+03  0.37897818290E+03  0.10199573075E+04  0.90186852507E+03 0.  0.
         23    2    4    4    0    0 -0.30730435316E+03 -0.12176231086E+02  0.47317985693E+03  0.57153741789E+03  0.90396996504E+02 0.  0.
         23    2    4    4    0    0  0.32875163622E+03 -0.27568071886E+03 -0.94201674029E+02  0.44841988964E+03  0.90160661981E+02 0.  0.
          3    1    3    3  502    0 -0.10400083968E+02 -0.69723956573E+00  0.16599597493E+02  0.19600880758E+02  0.00000000000E+00 0. -1.
         -4    1    3    3    0  502 -0.11047199096E+02  0.28855418951E+03  0.29832879292E+03  0.41519348450E+03  0.00000000000E+00 0.  1.
         11    1    5    5    0    0 -0.78141610686E+01  0.22670950420E+01 -0.31241068851E+01  0.87155537383E+01  0.00000000000E+00 0. -1.
        -11    1    5    5    0    0 -0.29949019209E+03 -0.14443326128E+02  0.47630396381E+03  0.56282186416E+03  0.00000000000E+00 0.  1.
          3    1    6    6  503    0  0.16459705564E+03 -0.81313926184E+02 -0.29871200136E+02  0.18600116643E+03  0.00000000000E+00 0. -1.
         -3    1    6    6    0  503  0.16415458059E+03 -0.19436679267E+03 -0.64330473893E+02  0.26241872321E+03  0.00000000000E+00 0.  1.
<mgrwt>
<rscale>  0 0.12785915E+04</rscale>
<asrwt>0</asrwt>
<pdfrwt beam="1">  1        1 0.58526547E-01 0.12785915E+04</pdfrwt>
<pdfrwt beam="2">  1       -2 0.16528140E+00 0.12785915E+04</pdfrwt>
<totfact> 0.12691924E+01</totfact>
</mgrwt>
</event>
<event>
12    4  0.4320235E-008  0.2047168E+04  0.7818608E-02  0.8584880E-01
          1   -1    0    0  501    0  0.00000000000E+00  0.00000000000E+00  0.76210478208E+03  0.76210478208E+03  0.00000000000E+00 0. -1.
         -2   -1    0    0    0  501 -0.00000000000E+00 -0.00000000000E+00 -0.13747765403E+04  0.13747765403E+04  0.00000000000E+00 0.  1.
        -24    2    1    2    0    0 -0.56090891079E+03  0.59846588489E+03 -0.16976831388E+03  0.84068378783E+03  0.71747676963E+02 0.  0.
        254    2    1    2    0    0  0.56090891079E+03 -0.59846588489E+03 -0.44290344434E+03  0.12961975346E+04  0.90065774077E+03 0.  0.
         23    2    4    4    0    0  0.49402649764E+03 -0.72772452373E+03 -0.59535939400E+03  0.10661495819E+04  0.92611879668E+02 0.  0.
         23    2    4    4    0    0  0.66882413144E+02  0.12925863884E+03  0.15245594966E+03  0.23004795260E+03  0.92185633408E+02 0.  0.
          1    1    3    3  502    0 -0.46032606207E+03  0.48548847226E+03 -0.16626663152E+03  0.68937923735E+03  0.00000000000E+00 0. -1.
         -2    1    3    3    0  502 -0.10058284871E+03  0.11297741262E+03 -0.35016823607E+01  0.15130455048E+03  0.00000000000E+00 0.  1.
         11    1    5    5    0    0  0.13149120188E+03 -0.18563765997E+03 -0.10686803081E+03  0.25134051201E+03  0.00000000000E+00 0. -1.
        -11    1    5    5    0    0  0.36253529577E+03 -0.54208686376E+03 -0.48849136319E+03  0.81480906994E+03  0.00000000000E+00 0.  1.
          2    1    6    6  503    0 -0.79787108265E+01  0.50589879287E+02  0.12169912622E+02  0.52641262199E+02  0.00000000000E+00 0. -1.
         -2    1    6    6    0  503  0.74861123971E+02  0.78668759556E+02  0.14028603704E+03  0.17740669041E+03  0.00000000000E+00 0.  1.
<mgrwt>
<rscale>  0 0.20471676E+04</rscale>
<asrwt>0</asrwt>
<pdfrwt beam="1">  1        1 0.11724689E+00 0.20471676E+04</pdfrwt>
<pdfrwt beam="2">  1       -2 0.21150408E+00 0.20471676E+04</pdfrwt>
<totfact> 0.21640736E+00</totfact>
</mgrwt>
</event>
<event>
12    4  0.4320235E-008  0.4323541E+04  0.7818608E-02  0.7942279E-01
         -2   -1    0    0    0  501 -0.00000000000E+00  0.00000000000E+00  0.29587186384E+04  0.29587186384E+04  0.00000000000E+00 0.  1.
          1   -1    0    0  501    0  0.00000000000E+00 -0.00000000000E+00 -0.15794852838E+04  0.15794852838E+04  0.00000000000E+00 0. -1.
        -24    2    1    2    0    0 -0.65567263860E+03 -0.18120818849E+04  0.14453416289E+04  0.24102680883E+04  0.82658737560E+02 0.  0.
        254    2    1    2    0    0  0.65567263860E+03  0.18120818849E+04 -0.66108274308E+02  0.21279358339E+04  0.90010735067E+03 0.  0.
         23    2    4    4    0    0  0.73534911787E+02  0.13559146641E+04 -0.18474423252E+03  0.13733750413E+04  0.90092246951E+02 0.  0.
         23    2    4    4    0    0  0.58213772682E+03  0.45616722072E+03  0.11863595821E+03  0.75456079257E+03  0.91184608689E+02 0.  0.
          3    1    3    3  502    0 -0.10390467317E+03 -0.21003379079E+03  0.16785176775E+03  0.28824397707E+03  0.00000000000E+00 0. -1.
         -2    1    3    3    0  502 -0.55176796544E+03 -0.16020480941E+04  0.12774898611E+04  0.21220241112E+04  0.00000000000E+00 0.  1.
         11    1    5    5    0    0  0.29717968259E+02  0.15500108174E+03 -0.19280798249E+01  0.15783602399E+03  0.00000000000E+00 0.  1.
        -11    1    5    5    0    0  0.43816943528E+02  0.12009135824E+04 -0.18281615269E+03  0.12155390173E+04  0.00000000000E+00 0. -1.
          1    1    6    6  503    0  0.21688863166E+03  0.21612966728E+03  0.75582597765E+02  0.31538142099E+03  0.00000000000E+00 0. -1.
         -1    1    6    6    0  503  0.36524909516E+03  0.24003755344E+03  0.43053360445E+02  0.43917937158E+03  0.00000000000E+00 0.  1.
<mgrwt>
<rscale>  0 0.43235414E+04</rscale>
<asrwt>0</asrwt>
<pdfrwt beam="1">  1        1 0.24299774E+00 0.43235414E+04</pdfrwt>
<pdfrwt beam="2">  1       -2 0.45518748E+00 0.43235414E+04</pdfrwt>
<totfact> 0.12384551E-02</totfact>
</mgrwt>
</event>
<event>
12    4  0.4320235E-008  0.2368143E+04  0.7818608E-02  0.8451527E-01
          1   -1    0    0  501    0  0.00000000000E+00  0.00000000000E+00  0.16814550504E+04  0.16814550504E+04  0.00000000000E+00 0. -1.
         -2   -1    0    0    0  501 -0.00000000000E+00 -0.00000000000E+00 -0.83381687074E+03  0.83381687074E+03  0.00000000000E+00 0.  1.
        -24    2    1    2    0    0  0.90632179847E+03 -0.43405423049E+03  0.42226854521E+03  0.10929409409E+04  0.79918074380E+02 0.  0.
        254    2    1    2    0    0 -0.90632179847E+03  0.43405423049E+03  0.42536963445E+03  0.14223309802E+04  0.91228494126E+03 0.  0.
         23    2    4    4    0    0 -0.10299851879E+04  0.40450241355E+03  0.16935605220E+03  0.11229295010E+04  0.88303465642E+02 0.  0.
         23    2    4    4    0    0  0.12366338939E+03  0.29551816946E+02  0.25601358225E+03  0.29940147924E+03  0.89063728371E+02 0.  0.
          1    1    3    3  502    0  0.86685860925E+03 -0.42904539985E+03  0.41502832737E+03  0.10525076323E+04  0.00000000000E+00 0. -1.
         -2    1    3    3    0  502  0.39463189222E+02 -0.50088306395E+01  0.72402178346E+01  0.40433308574E+02  0.00000000000E+00 0.  1.
         11    1    5    5    0    0 -0.61751769639E+03  0.20827504890E+03  0.12941944273E+03  0.66442154804E+03  0.00000000000E+00 0. -1.
        -11    1    5    5    0    0 -0.41246749147E+03  0.19622736465E+03  0.39936609467E+02  0.45850795296E+03  0.00000000000E+00 0.  1.
          2    1    6    6  503    0  0.11885065052E+03  0.13466269617E+02  0.14895888390E+03  0.19103812876E+03  0.00000000000E+00 0. -1.
         -2    1    6    6    0  503  0.48127388707E+01  0.16085547328E+02  0.10705469835E+03  0.10836335048E+03  0.00000000000E+00 0.  1.
<mgrwt>
<rscale>  0 0.23681432E+04</rscale>
<asrwt>0</asrwt>
<pdfrwt beam="1">  1        1 0.25868539E+00 0.23681432E+04</pdfrwt>
<pdfrwt beam="2">  1       -2 0.12827952E+00 0.23681432E+04</pdfrwt>
<totfact> 0.17396380E+00</totfact>
</mgrwt>
</event>
<event>
12    4  0.4320235E-008  0.1587113E+04  0.7818608E-02  0.8828505E-01
         -2   -1    0    0    0  501 -0.00000000000E+00  0.00000000000E+00  0.20306332842E+04  0.20306332842E+04  0.00000000000E+00 0.  1.
          1   -1    0    0  501    0  0.00000000000E+00 -0.00000000000E+00 -0.31011588837E+03  0.31011588837E+03  0.00000000000E+00 0. -1.
        -24    2    1    2    0    0 -0.20203007695E+03 -0.22817363813E+03  0.12412862902E+04  0.12805999521E+04  0.79153156025E+02 0.  0.
        254    2    1    2    0    0  0.20203007695E+03  0.22817363813E+03  0.47923110567E+03  0.10601492204E+04  0.89519526129E+03 0.  0.
         23    2    4    4    0    0  0.11260072301E+03  0.44374677897E+03  0.61711354644E+03  0.77397314588E+03  0.92817965244E+02 0.  0.
         23    2    4    4    0    0  0.89429353939E+02 -0.21557314084E+03 -0.13788244077E+03  0.28617607457E+03  0.91737613776E+02 0.  0.
          3    1    3    3  502    0 -0.98304778436E+01 -0.80923962455E+01  0.13636725845E+02  0.18657048625E+02  0.00000000000E+00 0. -1.
         -4    1    3    3    0  502 -0.19219959910E+03 -0.22008124188E+03  0.12276495643E+04  0.12619429035E+04  0.00000000000E+00 0.  1.
         11    1    5    5    0    0  0.38493108365E+02  0.36434554936E+02  0.75815205602E+02  0.92504819255E+02  0.00000000000E+00 0.  1.
        -11    1    5    5    0    0  0.74107614642E+02  0.40731222404E+03  0.54129834084E+03  0.68146832663E+03  0.00000000000E+00 0. -1.
          1    1    6    6  503    0  0.10362894454E+03 -0.21101776535E+03 -0.12393670430E+03  0.26575884202E+03  0.00000000000E+00 0. -1.
         -1    1    6    6    0  503 -0.14199590600E+02 -0.45553754959E+01 -0.13945736469E+02  0.20417232545E+02  0.00000000000E+00 0.  1.
<mgrwt>
<rscale>  0 0.15871127E+04</rscale>
<asrwt>0</asrwt>
<pdfrwt beam="1">  1        1 0.47710138E-01 0.15871127E+04</pdfrwt>
<pdfrwt beam="2">  1       -2 0.31240511E+00 0.15871127E+04</pdfrwt>
<totfact> 0.18858793E+00</totfact>
</mgrwt>
</event>
<event>
12    4  0.4320235E-008  0.1352133E+04  0.7818608E-02  0.8989215E-01
         -4   -1    0    0    0  501 -0.00000000000E+00  0.00000000000E+00  0.10632547176E+04  0.10632547176E+04  0.00000000000E+00 0.  1.
          3   -1    0    0  501    0  0.00000000000E+00 -0.00000000000E+00 -0.42987437259E+03  0.42987437259E+03  0.00000000000E+00 0. -1.
        -24    2    1    2    0    0 -0.26978036910E+02  0.35829938754E+03  0.26766905808E+03  0.45478990181E+03  0.77979898341E+02 0.  0.
        254    2    1    2    0    0  0.26978036910E+02 -0.35829938754E+03  0.36571128697E+03  0.10383391884E+04  0.90293812590E+03 0.  0.
         23    2    4    4    0    0  0.32650289884E+03  0.99436861747E+02 -0.34869296202E+02  0.35480536192E+03  0.90438623396E+02 0.  0.
         23    2    4    4    0    0 -0.29952486193E+03 -0.45773624928E+03  0.40058058317E+03  0.68353382650E+03  0.86695279777E+02 0.  0.
          1    1    3    3  502    0 -0.11931420258E+02  0.21622588238E+03  0.20699729330E+03  0.29957281324E+03  0.00000000000E+00 0. -1.
         -2    1    3    3    0  502 -0.15046616652E+02  0.14207350516E+03  0.60671764783E+02  0.15521708857E+03  0.00000000000E+00 0.  1.
         11    1    5    5    0    0  0.31262292195E+03  0.79658342280E+02 -0.49753586443E+02  0.32642604397E+03  0.00000000000E+00 0.  1.
        -11    1    5    5    0    0  0.13879976895E+02  0.19778519467E+02  0.14884290241E+02  0.28379317943E+02  0.00000000000E+00 0. -1.
          3    1    6    6  503    0 -0.38575748481E+02 -0.28863257997E+02  0.59709294997E+02  0.76722721159E+02  0.00000000000E+00 0. -1.
         -3    1    6    6    0  503 -0.26094911345E+03 -0.42887299129E+03  0.34087128818E+03  0.60681110534E+03  0.00000000000E+00 0.  1.
<mgrwt>
<rscale>  0 0.13521331E+04</rscale>
<asrwt>0</asrwt>
<pdfrwt beam="1">  1        3 0.66134519E-01 0.13521331E+04</pdfrwt>
<pdfrwt beam="2">  1       -4 0.16357765E+00 0.13521331E+04</pdfrwt>
<totfact> 0.11604208E+00</totfact>
</mgrwt>
</event>
<event>
12    4  0.4320235E-008  0.1434355E+04  0.7818608E-02  0.8929319E-01
         -2   -1    0    0    0  501 -0.00000000000E+00  0.00000000000E+00  0.66421169484E+03  0.66421169484E+03  0.00000000000E+00 0.  1.
          1   -1    0    0  501    0  0.00000000000E+00 -0.00000000000E+00 -0.77436733526E+03  0.77436733526E+03  0.00000000000E+00 0. -1.
        -24    2    1    2    0    0 -0.40519454906E+03  0.10838309200E+03  0.47777403879E+02  0.43101474607E+03  0.86956965165E+02 0.  0.
        254    2    1    2    0    0  0.40519454906E+03 -0.10838309200E+03 -0.15793304430E+03  0.10075642840E+04  0.90239316418E+03 0.  0.
         23    2    4    4    0    0 -0.18059521675E+03 -0.14642113801E+03  0.19466437877E+03  0.31658113034E+03  0.90970378457E+02 0.  0.
         23    2    4    4    0    0  0.58578976581E+03  0.38038046016E+02 -0.35259742308E+03  0.69098315369E+03  0.92391738013E+02 0.  0.
          3    1    3    3  502    0 -0.33229338351E+03  0.60726218466E+02  0.15573461675E+02  0.33815543622E+03  0.00000000000E+00 0. -1.
         -4    1    3    3    0  502 -0.72901165546E+02  0.47656873530E+02  0.32203942204E+02  0.92859309851E+02  0.00000000000E+00 0.  1.
         11    1    5    5    0    0 -0.12838492815E+03 -0.68387580224E+02  0.16064907255E+03  0.21672026997E+03  0.00000000000E+00 0.  1.
        -11    1    5    5    0    0 -0.52210288604E+02 -0.78033557788E+02  0.34015306220E+02  0.99860860373E+02  0.00000000000E+00 0. -1.
          2    1    6    6  503    0  0.12086127591E+03  0.36144312448E+02 -0.47059406943E+02  0.13464192184E+03  0.00000000000E+00 0. -1.
         -2    1    6    6    0  503  0.46492848990E+03  0.18937335679E+01 -0.30553801613E+03  0.55634123184E+03  0.00000000000E+00 0.  1.
<mgrwt>
<rscale>  0 0.14343554E+04</rscale>
<asrwt>0</asrwt>
<pdfrwt beam="1">  1        1 0.11913344E+00 0.14343554E+04</pdfrwt>
<pdfrwt beam="2">  1       -2 0.10218641E+00 0.14343554E+04</pdfrwt>
<totfact> 0.15563785E+01</totfact>
</mgrwt>
</event>
<event>
12    4  0.4320235E-008  0.1918825E+04  0.7818608E-02  0.8645542E-01
          1   -1    0    0  501    0  0.00000000000E+00  0.00000000000E+00  0.14035116920E+04  0.14035116920E+04  0.00000000000E+00 0. -1.
         -2   -1    0    0    0  501 -0.00000000000E+00 -0.00000000000E+00 -0.65583494844E+03  0.65583494844E+03  0.00000000000E+00 0.  1.
        -24    2    1    2    0    0  0.30556901013E+03  0.26429932087E+03 -0.38349101240E+03  0.56305094259E+03  0.82063733689E+02 0.  0.
        254    2    1    2    0    0 -0.30556901013E+03 -0.26429932087E+03  0.11311677560E+04  0.14962956978E+04  0.89226328644E+03 0.  0.
         23    2    4    4    0    0  0.23727489115E+03 -0.33938879780E+03  0.52073179411E+03  0.67153650951E+03  0.91189649427E+02 0.  0.
         23    2    4    4    0    0 -0.54284390128E+03  0.75089476924E+02  0.61043596185E+03  0.82475918834E+03  0.85309580564E+02 0.  0.
          3    1    3    3  502    0  0.26030437823E+02  0.27962071541E+02 -0.75690304261E+02  0.84784923761E+02  0.00000000000E+00 0. -1.
         -4    1    3    3    0  502  0.27953857231E+03  0.23633724933E+03 -0.30780070814E+03  0.47826601882E+03  0.00000000000E+00 0.  1.
         11    1    5    5    0    0  0.17326831783E+03 -0.19025251553E+03  0.36517606381E+03  0.44673424674E+03  0.00000000000E+00 0. -1.
        -11    1    5    5    0    0  0.64006573321E+02 -0.14913628227E+03  0.15555573030E+03  0.22480226277E+03  0.00000000000E+00 0.  1.
          3    1    6    6  503    0 -0.37918772272E+03  0.16473506302E+02  0.39267163248E+03  0.54611877502E+03  0.00000000000E+00 0. -1.
         -3    1    6    6    0  503 -0.16365617856E+03  0.58615970622E+02  0.21776432937E+03  0.27864041332E+03  0.00000000000E+00 0.  1.
<mgrwt>
<rscale>  0 0.19188247E+04</rscale>
<asrwt>0</asrwt>
<pdfrwt beam="1">  1        1 0.21592488E+00 0.19188247E+04</pdfrwt>
<pdfrwt beam="2">  1       -2 0.10089768E+00 0.19188247E+04</pdfrwt>
<totfact> 0.50638239E+00</totfact>
</mgrwt>
</event>
<event>
12    4  0.4320235E-008  0.1203778E+04  0.7818608E-02  0.9109556E-01
          1   -1    0    0  501    0  0.00000000000E+00  0.00000000000E+00  0.49492472317E+03  0.49492472317E+03  0.00000000000E+00 0. -1.
         -2   -1    0    0    0  501 -0.00000000000E+00 -0.00000000000E+00 -0.73197086358E+03  0.73197086358E+03  0.00000000000E+00 0.  1.
        -24    2    1    2    0    0  0.15496809434E+03 -0.15012641780E+01  0.16578794527E+03  0.24157365447E+03  0.82793862569E+02 0.  0.
        254    2    1    2    0    0 -0.15496809434E+03  0.15012641780E+01 -0.40283408568E+03  0.98532193228E+03  0.88575766753E+03 0.  0.
         23    2    4    4    0    0  0.90984920250E+02 -0.30442976987E+03  0.95292321414E+02  0.34472458152E+03  0.93801226464E+02 0.  0.
         23    2    4    4    0    0 -0.24595301459E+03  0.30593103405E+03 -0.49812640710E+03  0.64059735076E+03  0.90268296625E+02 0.  0.
          1    1    3    3  502    0  0.13910804611E+03  0.27907730369E+02  0.14044971520E+03  0.19963970649E+03  0.00000000000E+00 0. -1.
         -4    1    3    3    0  502  0.15860048230E+02 -0.29408994547E+02  0.25338230064E+02  0.41933947977E+02  0.00000000000E+00 0.  1.
         11    1    5    5    0    0  0.89811362899E+02 -0.26569444685E+03  0.49606721593E+02  0.28481651430E+03  0.00000000000E+00 0.  1.
        -11    1    5    5    0    0  0.11735573512E+01 -0.38735323019E+02  0.45685599821E+02  0.59908067213E+02  0.00000000000E+00 0. -1.
          2    1    6    6  503    0 -0.10677527828E+03  0.17587949719E+03 -0.31582748427E+03  0.37693707353E+03  0.00000000000E+00 0. -1.
         -2    1    6    6    0  503 -0.13917773632E+03  0.13005153686E+03 -0.18229892283E+03  0.26366027723E+03  0.00000000000E+00 0.  1.
<mgrwt>
<rscale>  0 0.12037782E+04</rscale>
<asrwt>0</asrwt>
<pdfrwt beam="1">  1        1 0.76142265E-01 0.12037782E+04</pdfrwt>
<pdfrwt beam="2">  1       -2 0.11261090E+00 0.12037782E+04</pdfrwt>
<totfact> 0.24134659E+01</totfact>
</mgrwt>
</event>
<event>
12    4  0.4320235E-008  0.1889640E+04  0.7818608E-02  0.8660030E-01
         -2   -1    0    0    0  501 -0.00000000000E+00  0.00000000000E+00  0.92007849222E+03  0.92007849222E+03  0.00000000000E+00 0.  1.
          1   -1    0    0  501    0  0.00000000000E+00 -0.00000000000E+00 -0.97022699501E+03  0.97022699501E+03  0.00000000000E+00 0. -1.
        -24    2    1    2    0    0 -0.58091194636E+03 -0.40106667437E+03  0.76808535094E+02  0.71410787503E+03  0.75745226920E+02 0.  0.
        254    2    1    2    0    0  0.58091194636E+03  0.40106667437E+03 -0.12695703788E+03  0.11761976122E+04  0.93220682617E+03 0.  0.
         23    2    4    4    0    0  0.54783678808E+03  0.67352852563E+03 -0.56618824678E+02  0.87470164885E+03  0.90174619384E+02 0.  0.
         23    2    4    4    0    0  0.33075158287E+02 -0.27246185126E+03 -0.70338213202E+02  0.30149596335E+03  0.10306757587E+03 0.  0.
          3    1    3    3  502    0 -0.58173004798E+03 -0.40025222849E+03  0.80068585968E+02  0.71064947308E+03  0.00000000000E+00 0. -1.
         -4    1    3    3    0  502  0.81810161340E+00 -0.81444587424E+00 -0.32600508744E+01  0.34584019483E+01  0.00000000000E+00 0.  1.
         11    1    5    5    0    0  0.39390727999E+03  0.44563522645E+03 -0.72837719067E+02  0.59921534827E+03  0.00000000000E+00 0.  1.
        -11    1    5    5    0    0  0.15392950808E+03  0.22789329918E+03  0.16218894389E+02  0.27548630058E+03  0.00000000000E+00 0. -1.
          3    1    6    6  503    0 -0.33033971174E+02 -0.45866734400E+02 -0.21364173289E+02  0.60427050866E+02  0.00000000000E+00 0. -1.
         -3    1    6    6    0  503  0.66109129461E+02 -0.22659511686E+03 -0.48974039913E+02  0.24106891249E+03  0.00000000000E+00 0.  1.
<mgrwt>
<rscale>  0 0.18896402E+04</rscale>
<asrwt>0</asrwt>
<pdfrwt beam="1">  1        1 0.14926569E+00 0.18896402E+04</pdfrwt>
<pdfrwt beam="2">  1       -2 0.14155054E+00 0.18896402E+04</pdfrwt>
<totfact> 0.45747173E+00</totfact>
</mgrwt>
</event>
<event>
12    4  0.4320235E-008  0.1535137E+04  0.7818608E-02  0.8861418E-01
          1   -1    0    0  501    0  0.00000000000E+00  0.00000000000E+00  0.19187186531E+04  0.19187186531E+04  0.00000000000E+00 0. -1.
         -2   -1    0    0    0  501 -0.00000000000E+00 -0.00000000000E+00 -0.30705963341E+03  0.30705963341E+03  0.00000000000E+00 0.  1.
        -24    2    1    2    0    0  0.28716069388E+03  0.38943116171E+03  0.38638873783E+03  0.62804219996E+03  0.10498978229E+03 0.  0.
        254    2    1    2    0    0 -0.28716069388E+03 -0.38943116171E+03  0.12252702818E+04  0.15977360865E+04  0.90407712329E+03 0.  0.
         23    2    4    4    0    0  0.13349374736E+03 -0.17649072298E+03 -0.41167410896E+02  0.24348834001E+03  0.92856125911E+02 0.  0.
         23    2    4    4    0    0 -0.42065444123E+03 -0.21294043873E+03  0.12664376927E+04  0.13542477465E+04  0.88480167401E+02 0.  0.
          3    1    3    3  502    0  0.11305648429E+03  0.77167043096E+02  0.12232382729E+03  0.18357461672E+03  0.00000000000E+00 0. -1.
         -4    1    3    3    0  502  0.17410420958E+03  0.31226411862E+03  0.26406491054E+03  0.44446758324E+03  0.00000000000E+00 0.  1.
         11    1    5    5    0    0  0.10634922564E+03 -0.18096353536E+03 -0.24505649148E+02  0.21132554451E+03  0.00000000000E+00 0.  1.
        -11    1    5    5    0    0  0.27144521719E+02  0.44728123735E+01 -0.16661761748E+02  0.32162795501E+02  0.00000000000E+00 0. -1.
          3    1    6    6  503    0 -0.86764244233E+02 -0.81244723771E+02  0.26517729625E+03  0.29059892923E+03  0.00000000000E+00 0. -1.
         -3    1    6    6    0  503 -0.33389019700E+03 -0.13169571496E+03  0.10012603965E+04  0.10636488173E+04  0.00000000000E+00 0.  1.
<mgrwt>
<rscale>  0 0.15351365E+04</rscale>
<asrwt>0</asrwt>
<pdfrwt beam="1">  1        1 0.29518748E+00 0.15351365E+04</pdfrwt>
<pdfrwt beam="2">  1       -2 0.47239945E-01 0.15351365E+04</pdfrwt>
<totfact> 0.12173458E+01</totfact>
</mgrwt>
</event>
<event>
12    4  0.4320235E-008  0.1885315E+04  0.7818608E-02  0.8662201E-01
         -2   -1    0    0    0  501 -0.00000000000E+00  0.00000000000E+00  0.14860961183E+04  0.14860961183E+04  0.00000000000E+00 0.  1.
          1   -1    0    0  501    0  0.00000000000E+00 -0.00000000000E+00 -0.59794461867E+03  0.59794461867E+03  0.00000000000E+00 0. -1.
        -24    2    1    2    0    0 -0.11956363355E+02  0.54949594594E+03  0.87821051306E+03  0.10390390415E+04  0.79118110176E+02 0.  0.
        254    2    1    2    0    0  0.11956363355E+02 -0.54949594594E+03  0.99409865790E+01  0.10450016954E+04  0.88872997644E+03 0.  0.
         23    2    4    4    0    0 -0.34333835835E+03 -0.46033926981E+03  0.20660113021E+03  0.61730938540E+03  0.92700478165E+02 0.  0.
         23    2    4    4    0    0  0.35529472171E+03 -0.89156676135E+02 -0.19666014363E+03  0.42769231004E+03  0.10031075616E+03 0.  0.
          3    1    3    3  502    0 -0.13734499768E+02  0.13718388461E+02  0.34453279025E+02  0.39545658439E+02  0.00000000000E+00 0. -1.
         -4    1    3    3    0  502  0.17781364123E+01  0.53577755748E+03  0.84375723404E+03  0.99949338310E+03  0.00000000000E+00 0.  1.
         11    1    5    5    0    0 -0.33646803402E+03 -0.42239385623E+03  0.20805981774E+03  0.57871944452E+03  0.00000000000E+00 0.  1.
        -11    1    5    5    0    0 -0.68703243275E+01 -0.37945413576E+02 -0.14586875326E+01  0.38589940880E+02  0.00000000000E+00 0. -1.
          4    1    6    6  503    0  0.26102822868E+03 -0.10993779799E+03 -0.14907206910E+03  0.32006958209E+03  0.00000000000E+00 0.  1.
         -4    1    6    6    0  503  0.94266493027E+02  0.20781121854E+02 -0.47588074528E+02  0.10762272795E+03  0.00000000000E+00 0. -1.
<mgrwt>
<rscale>  0 0.18853150E+04</rscale>
<asrwt>0</asrwt>
<pdfrwt beam="1">  1        1 0.91991480E-01 0.18853150E+04</pdfrwt>
<pdfrwt beam="2">  1       -2 0.22863017E+00 0.18853150E+04</pdfrwt>
<totfact> 0.24605511E+00</totfact>
</mgrwt>
</event>
<event>
12    4  0.4320235E-008  0.1733368E+04  0.7818608E-02  0.8742559E-01
         -2   -1    0    0    0  501 -0.00000000000E+00  0.00000000000E+00  0.19136574292E+04  0.19136574292E+04  0.00000000000E+00 0.  1.
          1   -1    0    0  501    0  0.00000000000E+00 -0.00000000000E+00 -0.39251587558E+03  0.39251587558E+03  0.00000000000E+00 0. -1.
        -24    2    1    2    0    0 -0.12413010618E+03  0.64177718412E+03  0.50676820162E+03  0.83112900325E+03  0.81701729142E+02 0.  0.
        254    2    1    2    0    0  0.12413010618E+03 -0.64177718412E+03  0.10143733520E+04  0.14750443015E+04  0.84824298223E+03 0.  0.
         23    2    4    4    0    0  0.32756994892E+02 -0.19318857966E+03  0.98204756892E+03  0.10055765920E+04  0.91498670887E+02 0.  0.
         23    2    4    4    0    0  0.91373111292E+02 -0.44858860446E+03  0.32325783056E+02  0.46946770949E+03  0.98864515788E+02 0.  0.
          1    1    3    3  502    0 -0.47295257456E+01  0.15863878517E+02 -0.66356988058E+00  0.16567177803E+02  0.00000000000E+00 0. -1.
         -2    1    3    3    0  502 -0.11940058044E+03  0.62591330561E+03  0.50743177150E+03  0.81456182545E+03  0.00000000000E+00 0.  1.
         11    1    5    5    0    0 -0.21409493053E+02 -0.48875674464E+02  0.14616408961E+03  0.15559928997E+03  0.00000000000E+00 0. -1.
        -11    1    5    5    0    0  0.54166487945E+02 -0.14431290520E+03  0.83588347931E+03  0.84997730205E+03  0.00000000000E+00 0.  1.
          3    1    6    6  503    0 -0.80176376159E+01 -0.11983860232E+03 -0.20932503954E+02  0.12191695059E+03  0.00000000000E+00 0. -1.
         -3    1    6    6    0  503  0.99390748908E+02 -0.32875000214E+03  0.53258287011E+02  0.34755075890E+03  0.00000000000E+00 0.  1.
<mgrwt>
<rscale>  0 0.17333677E+04</rscale>
<asrwt>0</asrwt>
<pdfrwt beam="1">  1        1 0.60387059E-01 0.17333677E+04</pdfrwt>
<pdfrwt beam="2">  1       -2 0.29440883E+00 0.17333677E+04</pdfrwt>
<totfact> 0.17588480E+00</totfact>
</mgrwt>
</event>
<event>
12    4  0.4320235E-008  0.2276291E+04  0.7818608E-02  0.8487328E-01
          1   -1    0    0  501    0  0.00000000000E+00  0.00000000000E+00  0.82472232054E+03  0.82472232054E+03  0.00000000000E+00 0. -1.
         -2   -1    0    0    0  501 -0.00000000000E+00 -0.00000000000E+00 -0.15706802992E+04  0.15706802992E+04  0.00000000000E+00 0.  1.
        -24    2    1    2    0    0 -0.29659100191E+03  0.75126501919E+03  0.23154716091E+03  0.84417347202E+03  0.81543924838E+02 0.  0.
        254    2    1    2    0    0  0.29659100191E+03 -0.75126501919E+03 -0.97750513959E+03  0.15512291477E+04  0.89354922605E+03 0.  0.
         23    2    4    4    0    0 -0.10598197747E+03  0.85647038152E+02 -0.45047826185E+03  0.47941792810E+03  0.91341615336E+02 0.  0.
         23    2    4    4    0    0  0.40257297938E+03 -0.83691205734E+03 -0.52702687774E+03  0.10718112196E+04  0.92385957944E+02 0.  0.
          1    1    3    3  502    0 -0.16950249828E+03  0.45509149509E+03  0.98607101685E+02  0.49554286023E+03  0.00000000000E+00 0. -1.
         -2    1    3    3    0  502 -0.12708850362E+03  0.29617352410E+03  0.13294005923E+03  0.34863061179E+03  0.00000000000E+00 0.  1.
         11    1    5    5    0    0  0.53615922464E+01  0.10341748664E+02 -0.14751332037E+03  0.14797255868E+03  0.00000000000E+00 0. -1.
        -11    1    5    5    0    0 -0.11134356972E+03  0.75305289488E+02 -0.30296494148E+03  0.33144536942E+03  0.00000000000E+00 0.  1.
          1    1    6    6  503    0 -0.46225669864E+01 -0.17696088793E+02 -0.76542536876E+01  0.19826933289E+02  0.00000000000E+00 0. -1.
         -1    1    6    6    0  503  0.40719554636E+03 -0.81921596855E+03 -0.51937262405E+03  0.10519842863E+04  0.00000000000E+00 0.  1.
<mgrwt>
<rscale>  0 0.22762909E+04</rscale>
<asrwt>0</asrwt>
<pdfrwt beam="1">  1        1 0.12688036E+00 0.22762909E+04</pdfrwt>
<pdfrwt beam="2">  1       -2 0.24164312E+00 0.22762909E+04</pdfrwt>
<totfact> 0.12088059E+00</totfact>
</mgrwt>
</event>
<event>
12    4  0.4320235E-008  0.2989418E+04  0.7818608E-02  0.8246759E-01
         -2   -1    0    0    0  501 -0.00000000000E+00  0.00000000000E+00  0.16721980841E+04  0.16721980841E+04  0.00000000000E+00 0.  1.
          1   -1    0    0  501    0  0.00000000000E+00 -0.00000000000E+00 -0.13360590398E+04  0.13360590398E+04  0.00000000000E+00 0. -1.
        -24    2    1    2    0    0  0.48670663702E+02 -0.17198233621E+02 -0.12188003237E+04  0.12224682102E+04  0.79307521898E+02 0.  0.
        254    2    1    2    0    0 -0.48670663702E+02  0.17198233621E+02  0.15549393681E+04  0.17857889137E+04  0.87666469820E+03 0.  0.
         23    2    4    4    0    0 -0.15751611312E+03 -0.36160478757E+03  0.11259656079E+04  0.11962834899E+04  0.87899316108E+02 0.  0.
         23    2    4    4    0    0  0.10884544942E+03  0.37880302119E+03  0.42897376022E+03  0.58950542380E+03  0.90327720060E+02 0.  0.
          3    1    3    3  502    0  0.24039348707E+02 -0.41352013451E+02 -0.38579406302E+03  0.38874791108E+03  0.00000000000E+00 0. -1.
         -4    1    3    3    0  502  0.24631314995E+02  0.24153779831E+02 -0.83300626072E+03  0.83372029912E+03  0.00000000000E+00 0.  1.
         11    1    5    5    0    0 -0.12379501331E+03 -0.34084054936E+03  0.10454776861E+04  0.11065808048E+04  0.00000000000E+00 0.  1.
        -11    1    5    5    0    0 -0.33721099806E+02 -0.20764238211E+02  0.80487921736E+02  0.89702685055E+02  0.00000000000E+00 0. -1.
          3    1    6    6  503    0 -0.59997819451E+01  0.34416849934E+02  0.12707972975E+02  0.37175388632E+02  0.00000000000E+00 0. -1.
         -3    1    6    6    0  503  0.11484523136E+03  0.34438617126E+03  0.41626578724E+03  0.55233003517E+03  0.00000000000E+00 0.  1.
<mgrwt>
<rscale>  0 0.29894182E+04</rscale>
<asrwt>0</asrwt>
<pdfrwt beam="1">  1        1 0.20554754E+00 0.29894182E+04</pdfrwt>
<pdfrwt beam="2">  1       -2 0.25726124E+00 0.29894182E+04</pdfrwt>
<totfact> 0.36974735E-01</totfact>
</mgrwt>
</event>
<event>
12    4  0.4320235E-008  0.1576430E+04  0.7818608E-02  0.8835160E-01
         -2   -1    0    0    0  501 -0.00000000000E+00  0.00000000000E+00  0.47669993526E+03  0.47669993526E+03  0.00000000000E+00 0.  1.
          1   -1    0    0  501    0  0.00000000000E+00 -0.00000000000E+00 -0.13033002264E+04  0.13033002264E+04  0.00000000000E+00 0. -1.
        -24    2    1    2    0    0 -0.44798995782E+03  0.18274844730E+02  0.29970609406E+02  0.45660813356E+03  0.81017145994E+02 0.  0.
        254    2    1    2    0    0  0.44798995782E+03 -0.18274844730E+02 -0.85657090051E+03  0.13233920281E+04  0.90367238539E+03 0.  0.
         23    2    4    4    0    0  0.53114779886E+03 -0.25911928638E+03 -0.86684810972E+03  0.10533011602E+04  0.93578309013E+02 0.  0.
         23    2    4    4    0    0 -0.83157841045E+02  0.24084444165E+03  0.10277209206E+02  0.27009086789E+03  0.89006653053E+02 0.  0.
          3    1    3    3  502    0 -0.20657657588E+03 -0.29663208435E+02  0.27242918711E+02  0.21046606439E+03  0.00000000000E+00 0. -1.
         -4    1    3    3    0  502 -0.24141338194E+03  0.47938053164E+02  0.27276906953E+01  0.24614206917E+03  0.00000000000E+00 0.  1.
         11    1    5    5    0    0  0.85300732088E+02 -0.69776982327E+01 -0.14056789054E+03  0.16457288664E+03  0.00000000000E+00 0. -1.
        -11    1    5    5    0    0  0.44584706677E+03 -0.25214158815E+03 -0.72628021918E+03  0.88872827355E+03  0.00000000000E+00 0.  1.
          2    1    6    6  503    0  0.38249255350E+01  0.10888372397E+02 -0.19273024622E+02  0.22464108860E+02  0.00000000000E+00 0. -1.
         -2    1    6    6    0  503 -0.86982766580E+02  0.22995606926E+03  0.29550233828E+02  0.24762675903E+03  0.00000000000E+00 0.  1.
<mgrwt>
<rscale>  0 0.15764303E+04</rscale>
<asrwt>0</asrwt>
<pdfrwt beam="1">  1        1 0.20050772E+00 0.15764303E+04</pdfrwt>
<pdfrwt beam="2">  1       -2 0.73338453E-01 0.15764303E+04</pdfrwt>
<totfact> 0.12731461E+01</totfact>
</mgrwt>
</event>
<event>
12    4  0.4320235E-008  0.1499172E+04  0.7818608E-02  0.8885004E-01
          1   -1    0    0  501    0  0.00000000000E+00  0.00000000000E+00  0.83962213015E+03  0.83962213015E+03  0.00000000000E+00 0. -1.
         -2   -1    0    0    0  501 -0.00000000000E+00 -0.00000000000E+00 -0.66920476364E+03  0.66920476364E+03  0.00000000000E+00 0.  1.
        -24    2    1    2    0    0  0.60169314437E+02  0.40475367832E+03  0.30179311955E+03  0.51508286339E+03  0.82373434044E+02 0.  0.
        254    2    1    2    0    0 -0.60169314437E+02 -0.40475367832E+03 -0.13137575303E+03  0.99374403040E+03  0.89600319361E+03 0.  0.
         23    2    4    4    0    0  0.73345184619E+02 -0.42755491271E+03  0.29820798968E+03  0.53422664201E+03  0.91035050586E+02 0.  0.
         23    2    4    4    0    0 -0.13351449906E+03  0.22801234386E+02 -0.42958374271E+03  0.45951738839E+03  0.90928656002E+02 0.  0.
          1    1    3    3  502    0  0.66672150526E+02  0.40534906957E+03  0.29830209320E+03  0.50767822748E+03  0.00000000000E+00 0. -1.
         -2    1    3    3    0  502 -0.65028360886E+01 -0.59539124414E+00  0.34910263463E+01  0.74046359046E+01  0.00000000000E+00 0.  1.
         11    1    5    5    0    0  0.44466640903E+02 -0.40233165788E+03  0.27590430444E+03  0.48986858472E+03  0.00000000000E+00 0. -1.
        -11    1    5    5    0    0  0.28878543717E+02 -0.25223254830E+02  0.22303685242E+02  0.44358057293E+02  0.00000000000E+00 0.  1.
          2    1    6    6  503    0 -0.14493246001E+03  0.31987157811E+02 -0.38717762413E+03  0.41465058647E+03  0.00000000000E+00 0. -1.
         -2    1    6    6    0  503  0.11417960957E+02 -0.91859234248E+01 -0.42406118581E+02  0.44866801922E+02  0.00000000000E+00 0.  1.
<mgrwt>
<rscale>  0 0.14991719E+04</rscale>
<asrwt>0</asrwt>
<pdfrwt beam="1">  1        1 0.12917263E+00 0.14991719E+04</pdfrwt>
<pdfrwt beam="2">  1       -2 0.10295458E+00 0.14991719E+04</pdfrwt>
<totfact> 0.13349403E+01</totfact>
</mgrwt>
</event>
<event>
12    4  0.4320235E-008  0.1333724E+04  0.7818608E-02  0.9003241E-01
          1   -1    0    0  501    0  0.00000000000E+00  0.00000000000E+00  0.13259105333E+04  0.13259105333E+04  0.00000000000E+00 0. -1.
         -2   -1    0    0    0  501 -0.00000000000E+00 -0.00000000000E+00 -0.33539594409E+03  0.33539594409E+03  0.00000000000E+00 0.  1.
        -24    2    1    2    0    0 -0.17843823618E+03 -0.15347022143E+03  0.57645409855E+03  0.62776241732E+03  0.79956312272E+02 0.  0.
        254    2    1    2    0    0  0.17843823618E+03  0.15347022143E+03  0.41406049069E+03  0.10335440601E+04  0.91726436823E+03 0.  0.
         23    2    4    4    0    0  0.97513524126E+01 -0.30480230712E+03 -0.83666526060E+02  0.33028947179E+03  0.95349422096E+02 0.  0.
         23    2    4    4    0    0  0.16868688377E+03  0.45827252854E+03  0.49772701675E+03  0.70325458831E+03  0.91465062177E+02 0.  0.
          3    1    3    3  502    0 -0.12214608174E+03 -0.60862208312E+02  0.26652934218E+03  0.29943574257E+03  0.00000000000E+00 0. -1.
         -4    1    3    3    0  502 -0.56292154446E+02 -0.92608013115E+02  0.30992475637E+03  0.32832667475E+03  0.00000000000E+00 0.  1.
         11    1    5    5    0    0 -0.20357526853E+02 -0.24571178109E+03 -0.92603807398E+02  0.26337079073E+03  0.00000000000E+00 0. -1.
        -11    1    5    5    0    0  0.30108879265E+02 -0.59090526031E+02  0.89372813385E+01  0.66918681061E+02  0.00000000000E+00 0.  1.
          3    1    6    6  503    0  0.54894612832E+02  0.25817127411E+03  0.22923326510E+03  0.34959078237E+03  0.00000000000E+00 0. -1.
         -3    1    6    6    0  503  0.11379227094E+03  0.20010125444E+03  0.26849375165E+03  0.35366380594E+03  0.00000000000E+00 0.  1.
<mgrwt>
<rscale>  0 0.13337241E+04</rscale>
<asrwt>0</asrwt>
<pdfrwt beam="1">  1        1 0.20398623E+00 0.13337241E+04</pdfrwt>
<pdfrwt beam="2">  1       -2 0.51599377E-01 0.13337241E+04</pdfrwt>
<totfact> 0.26437392E+01</totfact>
</mgrwt>
</event>
<event>
12    4  0.4320235E-008  0.1580713E+04  0.7818608E-02  0.8832485E-01
          1   -1    0    0  501    0  0.00000000000E+00  0.00000000000E+00  0.90837703177E+03  0.90837703177E+03  0.00000000000E+00 0. -1.
         -2   -1    0    0    0  501 -0.00000000000E+00 -0.00000000000E+00 -0.68767009216E+03  0.68767009216E+03  0.00000000000E+00 0.  1.
        -24    2    1    2    0    0  0.36120309014E+03 -0.33774715667E+03  0.26235918505E+03  0.56568126588E+03  0.81376522565E+02 0.  0.
        254    2    1    2    0    0 -0.36120309014E+03  0.33774715667E+03 -0.41652245432E+02  0.10303658580E+04  0.90298287786E+03 0.  0.
         23    2    4    4    0    0  0.12578248519E+03  0.48318221554E+03  0.25129784056E+02  0.50836405674E+03  0.92283374139E+02 0.  0.
         23    2    4    4    0    0 -0.48698557533E+03 -0.14543505887E+03 -0.66782029488E+02  0.52200180131E+03  0.98588712212E+02 0.  0.
          1    1    3    3  502    0  0.23005039720E+03 -0.19772160645E+03  0.20242934485E+03  0.36468432728E+03  0.00000000000E+00 0. -1.
         -2    1    3    3    0  502  0.13115269295E+03 -0.14002555022E+03  0.59929840198E+02  0.20099693860E+03  0.00000000000E+00 0.  1.
         11    1    5    5    0    0  0.93936501821E+01 -0.10747437753E+01 -0.16474830271E+01  0.95973922630E+01  0.00000000000E+00 0.  1.
        -11    1    5    5    0    0  0.11638883501E+03  0.48425695932E+03  0.26777267083E+02  0.49876666448E+03  0.00000000000E+00 0. -1.
          1    1    6    6  503    0 -0.27400624669E+03 -0.11165453726E+03  0.12448870842E+01  0.29588462052E+03  0.00000000000E+00 0. -1.
         -1    1    6    6    0  503 -0.21297932865E+03 -0.33780521606E+02 -0.68026916572E+02  0.22611718079E+03  0.00000000000E+00 0.  1.
<mgrwt>
<rscale>  0 0.15807134E+04</rscale>
<asrwt>0</asrwt>
<pdfrwt beam="1">  1        1 0.13975031E+00 0.15807134E+04</pdfrwt>
<pdfrwt beam="2">  1       -2 0.10579540E+00 0.15807134E+04</pdfrwt>
<totfact> 0.10889684E+01</totfact>
</mgrwt>
</event>
<event>
12    4  0.4320235E-008  0.1562856E+04  0.7818608E-02  0.8843698E-01
          1   -1    0    0  501    0  0.00000000000E+00  0.00000000000E+00  0.19364927717E+04  0.19364927717E+04  0.00000000000E+00 0. -1.
         -2   -1    0    0    0  501 -0.00000000000E+00 -0.00000000000E+00 -0.31532767548E+03  0.31532767548E+03  0.00000000000E+00 0.  1.
        -24    2    1    2    0    0  0.11253205537E+03 -0.23405816722E+03 -0.13130762918E+03  0.30397788889E+03  0.87830372437E+02 0.  0.
        254    2    1    2    0    0 -0.11253205537E+03  0.23405816722E+03  0.17524727254E+04  0.19478425583E+04  0.80961922501E+03 0.  0.
         23    2    4    4    0    0 -0.25661098946E+03  0.71457393279E+02  0.13311841464E+03  0.31145422203E+03  0.91257115551E+02 0.  0.
         23    2    4    4    0    0  0.14407893410E+03  0.16260077394E+03  0.16193543107E+04  0.16363883362E+04  0.90888130902E+02 0.  0.
          3    1    3    3  502    0  0.54953113677E+02 -0.31730692880E+02 -0.36884236028E+02  0.73397060165E+02  0.00000000000E+00 0. -1.
         -4    1    3    3    0  502  0.57578941692E+02 -0.20232747434E+03 -0.94423393151E+02  0.23058082872E+03  0.00000000000E+00 0.  1.
         11    1    5    5    0    0 -0.88419674902E+02  0.22802314126E+02 -0.32244750497E+00  0.91313133840E+02  0.00000000000E+00 0. -1.
        -11    1    5    5    0    0 -0.16819131456E+03  0.48655079153E+02  0.13344086214E+03  0.22014108819E+03  0.00000000000E+00 0.  1.
          1    1    6    6  503    0  0.61613429924E+02  0.47122080461E+02  0.31814058802E+03  0.32746013339E+03  0.00000000000E+00 0. -1.
         -1    1    6    6    0  503  0.82465504172E+02  0.11547869348E+03  0.13012137227E+04  0.13089282028E+04  0.00000000000E+00 0.  1.
<mgrwt>
<rscale>  0 0.15628561E+04</rscale>
<asrwt>0</asrwt>
<pdfrwt beam="1">  1        1 0.29792196E+00 0.15628561E+04</pdfrwt>
<pdfrwt beam="2">  1       -2 0.48511951E-01 0.15628561E+04</pdfrwt>
<totfact> 0.11194460E+01</totfact>
</mgrwt>
</event>
<event>
12    4  0.4320235E-008  0.1132286E+04  0.7818608E-02  0.9174283E-01
          1   -1    0    0  501    0  0.00000000000E+00  0.00000000000E+00  0.28573341020E+03  0.28573341020E+03  0.00000000000E+00 0. -1.
         -2   -1    0    0    0  501 -0.00000000000E+00 -0.00000000000E+00 -0.11217373373E+04  0.11217373373E+04  0.00000000000E+00 0.  1.
        -24    2    1    2    0    0  0.15310877975E+03 -0.72842548565E+02 -0.28352355183E+03  0.34024444163E+03  0.81439181587E+02 0.  0.
        254    2    1    2    0    0 -0.15310877975E+03  0.72842548565E+02 -0.55248037524E+03  0.10672263058E+04  0.89721184094E+03 0.  0.
         23    2    4    4    0    0  0.91398070997E+02  0.40269358924E+03 -0.48170108693E+03  0.64060748504E+03  0.88466256540E+02 0.  0.
         23    2    4    4    0    0 -0.24450685075E+03 -0.32985104068E+03 -0.70779288309E+02  0.42661882079E+03  0.91698426915E+02 0.  0.
          3    1    3    3  502    0  0.22887418586E+02 -0.37884832638E+01 -0.30502487742E+01  0.23398516034E+02  0.00000000000E+00 0. -1.
         -4    1    3    3    0  502  0.13022136117E+03 -0.69054065301E+02 -0.28047330306E+03  0.31684592560E+03  0.00000000000E+00 0.  1.
         11    1    5    5    0    0  0.81157845684E+02  0.18944298391E+03 -0.20040680139E+03  0.28746847847E+03  0.00000000000E+00 0.  1.
        -11    1    5    5    0    0  0.10240225313E+02  0.21325060534E+03 -0.28129428554E+03  0.35313900658E+03  0.00000000000E+00 0. -1.
          2    1    6    6  503    0 -0.22738601359E+02  0.35011389776E+00 -0.68683461514E+01  0.23755857180E+02  0.00000000000E+00 0. -1.
         -2    1    6    6    0  503 -0.22176824939E+03 -0.33020115458E+03 -0.63910942158E+02  0.40286296361E+03  0.00000000000E+00 0.  1.
<mgrwt>
<rscale>  0 0.11322859E+04</rscale>
<asrwt>0</asrwt>
<pdfrwt beam="1">  1        1 0.43958986E-01 0.11322859E+04</pdfrwt>
<pdfrwt beam="2">  1       -2 0.17257497E+00 0.11322859E+04</pdfrwt>
<totfact> 0.16547681E+01</totfact>
</mgrwt>
</event>
<event>
12    4  0.4320235E-008  0.2248649E+04  0.7818608E-02  0.8498448E-01
         -2   -1    0    0    0  501 -0.00000000000E+00  0.00000000000E+00  0.17686062311E+04  0.17686062311E+04  0.00000000000E+00 0.  1.
          1   -1    0    0  501    0  0.00000000000E+00 -0.00000000000E+00 -0.71474666613E+03  0.71474666613E+03  0.00000000000E+00 0. -1.
        -24    2    1    2    0    0  0.37346616607E+03  0.66865301765E+03 -0.15886984686E+03  0.78642798152E+03  0.81581288665E+02 0.  0.
        254    2    1    2    0    0 -0.37346616607E+03 -0.66865301765E+03  0.12127294118E+04  0.16969249157E+04  0.90678978161E+03 0.  0.
         23    2    4    4    0    0 -0.32548014127E+03  0.91806118801E+02  0.67349403353E+03  0.75905758414E+03  0.90600866572E+02 0.  0.
         23    2    4    4    0    0 -0.47986024798E+02 -0.76045913645E+03  0.53923537828E+03  0.93786733156E+03  0.90661908352E+02 0.  0.
          3    1    3    3  502    0  0.18474467419E+03  0.33725677158E+03 -0.12128421008E+03  0.40321530754E+03  0.00000000000E+00 0. -1.
         -4    1    3    3    0  502  0.18872149188E+03  0.33139624608E+03 -0.37585636785E+02  0.38321267398E+03  0.00000000000E+00 0.  1.
         11    1    5    5    0    0 -0.10799955372E+03  0.25955592662E+02  0.13661908108E+03  0.17607489801E+03  0.00000000000E+00 0. -1.
        -11    1    5    5    0    0 -0.21748058755E+03  0.65850526139E+02  0.53687495246E+03  0.58298268613E+03  0.00000000000E+00 0.  1.
          4    1    6    6  503    0 -0.31817699033E+02 -0.74116437770E+03  0.52620698605E+03  0.90952228830E+03  0.00000000000E+00 0. -1.
         -4    1    6    6    0  503 -0.16168325765E+02 -0.19294758753E+02  0.13028392232E+02  0.28345043262E+02  0.00000000000E+00 0.  1.
<mgrwt>
<rscale>  0 0.22486488E+04</rscale>
<asrwt>0</asrwt>
<pdfrwt beam="1">  1        1 0.10996103E+00 0.22486488E+04</pdfrwt>
<pdfrwt beam="2">  1       -2 0.27209326E+00 0.22486488E+04</pdfrwt>
<totfact> 0.98811085E-01</totfact>
</mgrwt>
</event>
<event>
12    4  0.4320235E-008  0.1525639E+04  0.7818608E-02  0.8867580E-01
         -2   -1    0    0    0  501 -0.00000000000E+00  0.00000000000E+00  0.17542481186E+04  0.17542481186E+04  0.00000000000E+00 0.  1.
          1   -1    0    0  501    0  0.00000000000E+00 -0.00000000000E+00 -0.33170523405E+03  0.33170523405E+03  0.00000000000E+00 0. -1.
        -24    2    1    2    0    0  0.23529139702E+03  0.10220530801E+03  0.10272599199E+04  0.10623490935E+04  0.86687294493E+02 0.  0.
        254    2    1    2    0    0 -0.23529139702E+03 -0.10220530801E+03  0.39528296461E+03  0.10236042591E+04  0.90868536391E+03 0.  0.
         23    2    4    4    0    0 -0.32342455184E+03 -0.32775581684E+03 -0.85596136291E+02  0.47767556908E+03  0.93914506590E+02 0.  0.
         23    2    4    4    0    0  0.88133154821E+02  0.22555050883E+03  0.48087910090E+03  0.54592868999E+03  0.90293631328E+02 0.  0.
          3    1    3    3  502    0  0.32604498249E+02 -0.74896673985E+01  0.23090622998E+03  0.23331702782E+03  0.00000000000E+00 0. -1.
         -4    1    3    3    0  502  0.20268689877E+03  0.10969497541E+03  0.79635368991E+03  0.82903206572E+03  0.00000000000E+00 0.  1.
         11    1    5    5    0    0 -0.23516499747E+03 -0.19866637262E+03 -0.21263407861E+02  0.30858230046E+03  0.00000000000E+00 0.  1.
        -11    1    5    5    0    0 -0.88259554374E+02 -0.12908944422E+03 -0.64332728430E+02  0.16909326862E+03  0.00000000000E+00 0. -1.
          1    1    6    6  503    0  0.23036609246E+02  0.86757889515E+02  0.27475921495E+03  0.28905058892E+03  0.00000000000E+00 0. -1.
         -1    1    6    6    0  503  0.65096545575E+02  0.13879261931E+03  0.20611988595E+03  0.25687810107E+03  0.00000000000E+00 0.  1.
<mgrwt>
<rscale>  0 0.15256386E+04</rscale>
<asrwt>0</asrwt>
<pdfrwt beam="1">  1        1 0.51031576E-01 0.15256386E+04</pdfrwt>
<pdfrwt beam="2">  1       -2 0.26988432E+00 0.15256386E+04</pdfrwt>
<totfact> 0.31518175E+00</totfact>
</mgrwt>
</event>
<event>
12    4  0.4320235E-008  0.1929202E+04  0.7818608E-02  0.8640456E-01
          1   -1    0    0  501    0  0.00000000000E+00  0.00000000000E+00  0.20088144532E+04  0.20088144532E+04  0.00000000000E+00 0. -1.
         -2   -1    0    0    0  501 -0.00000000000E+00 -0.00000000000E+00 -0.46318601858E+03  0.46318601858E+03  0.00000000000E+00 0.  1.
        -24    2    1    2    0    0  0.16847355389E+03 -0.67759744386E+03  0.24387337906E+03  0.74391676856E+03  0.80101805542E+02 0.  0.
        254    2    1    2    0    0 -0.16847355389E+03  0.67759744386E+03  0.13017550556E+04  0.17280837033E+04  0.89676386323E+03 0.  0.
         23    2    4    4    0    0  0.15105858154E+03  0.77080757391E+03  0.91730692323E+03  0.12112168059E+04  0.92903974626E+02 0.  0.
         23    2    4    4    0    0 -0.31953213543E+03 -0.93210130051E+02  0.38444813238E+03  0.51686689733E+03  0.92531665692E+02 0.  0.
          1    1    3    3  502    0  0.56653580091E+02 -0.19070498198E+03  0.10721956174E+03  0.22599569179E+03  0.00000000000E+00 0. -1.
         -2    1    3    3    0  502  0.11181997380E+03 -0.48689246188E+03  0.13665381732E+03  0.51792107677E+03  0.00000000000E+00 0.  1.
         11    1    5    5    0    0  0.80387947736E+02  0.47350356155E+03  0.62612663849E+03  0.78911495510E+03  0.00000000000E+00 0. -1.
        -11    1    5    5    0    0  0.70670633802E+02  0.29730401236E+03  0.29118028475E+03  0.42210185083E+03  0.00000000000E+00 0.  1.
          3    1    6    6  503    0 -0.10863675223E+03 -0.55226870644E+02  0.84752133636E+02  0.14844148791E+03  0.00000000000E+00 0. -1.
         -3    1    6    6    0  503 -0.21089538320E+03 -0.37983259407E+02  0.29969599874E+03  0.36842540943E+03  0.00000000000E+00 0.  1.
<mgrwt>
<rscale>  0 0.19292017E+04</rscale>
<asrwt>0</asrwt>
<pdfrwt beam="1">  1        1 0.30904837E+00 0.19292017E+04</pdfrwt>
<pdfrwt beam="2">  1       -2 0.71259388E-01 0.19292017E+04</pdfrwt>
<totfact> 0.43065699E+00</totfact>
</mgrwt>
</event>
<event>
12    4  0.4320235E-008  0.1980112E+04  0.7818608E-02  0.8615976E-01
          1   -1    0    0  501    0  0.00000000000E+00  0.00000000000E+00  0.19035146841E+04  0.19035146841E+04  0.00000000000E+00 0. -1.
         -2   -1    0    0    0  501 -0.00000000000E+00 -0.00000000000E+00 -0.51494802150E+03  0.51494802150E+03  0.00000000000E+00 0.  1.
        -24    2    1    2    0    0  0.48926109149E+03  0.54049550148E+03  0.22255667104E+03  0.76657494591E+03  0.81202666895E+02 0.  0.
        254    2    1    2    0    0 -0.48926109149E+03 -0.54049550148E+03  0.11660099915E+04  0.16518877596E+04  0.91522787729E+03 0.  0.
         23    2    4    4    0    0 -0.27001979829E+03 -0.76896140941E+02 -0.76055948072E+02  0.30512557140E+03  0.92159639353E+02 0.  0.
         23    2    4    4    0    0 -0.21924129320E+03 -0.46359936054E+03  0.12420659396E+04  0.13467621882E+04  0.89718903519E+02 0.  0.
          3    1    3    3  502    0  0.13834503713E+03  0.19091429890E+03  0.42705635191E+02  0.23960674051E+03  0.00000000000E+00 0. -1.
         -4    1    3    3    0  502  0.35091605436E+03  0.34958120258E+03  0.17985103585E+03  0.52696820540E+03  0.00000000000E+00 0.  1.
         11    1    5    5    0    0 -0.86170366397E+02 -0.16949443738E+02 -0.68889264592E+02  0.11161696316E+03  0.00000000000E+00 0.  1.
        -11    1    5    5    0    0 -0.18384943189E+03 -0.59946697203E+02 -0.71666834792E+01  0.19350860825E+03  0.00000000000E+00 0. -1.
          1    1    6    6  503    0 -0.93615189425E+02 -0.22234084755E+03  0.69751658813E+03  0.73805734662E+03  0.00000000000E+00 0. -1.
         -1    1    6    6    0  503 -0.12562610377E+03 -0.24125851299E+03  0.54454935146E+03  0.60870484162E+03  0.00000000000E+00 0.  1.
<mgrwt>
<rscale>  0 0.19801122E+04</rscale>
<asrwt>0</asrwt>
<pdfrwt beam="1">  1        1 0.29284841E+00 0.19801122E+04</pdfrwt>
<pdfrwt beam="2">  1       -2 0.79222774E-01 0.19801122E+04</pdfrwt>
<totfact> 0.39949607E+00</totfact>
</mgrwt>
</event>
<event>
12    4  0.4320235E-008  0.1187736E+04  0.7818608E-02  0.9123659E-01
         -2   -1    0    0    0  501 -0.00000000000E+00  0.00000000000E+00  0.42162832760E+03  0.42162832760E+03  0.00000000000E+00 0.  1.
          1   -1    0    0  501    0  0.00000000000E+00 -0.00000000000E+00 -0.83646996002E+03  0.83646996002E+03  0.00000000000E+00 0. -1.
        -24    2    1    2    0    0 -0.93882563688E+02  0.19105031790E+03  0.32273496380E+02  0.22850700824E+03  0.76548772103E+02 0.  0.
        254    2    1    2    0    0  0.93882563688E+02 -0.19105031790E+03 -0.44711512880E+03  0.10295912794E+04  0.90268051073E+03 0.  0.
         23    2    4    4    0    0  0.26878765705E+03 -0.49160093957E+03 -0.26128613715E+03  0.62504103132E+03  0.92127938253E+02 0.  0.
         23    2    4    4    0    0 -0.17490509336E+03  0.30055062167E+03 -0.18582899165E+03  0.40455024806E+03  0.90587091773E+02 0.  0.
          1    1    3    3  502    0 -0.75977541261E+01  0.55641880564E+01  0.21706276398E+02  0.23661117715E+02  0.00000000000E+00 0. -1.
         -2    1    3    3    0  502 -0.86284809562E+02  0.18548612984E+03  0.10567219982E+02  0.20484589052E+03  0.00000000000E+00 0.  1.
         11    1    5    5    0    0  0.17784576250E+03 -0.39874819543E+03 -0.18375849337E+03  0.47370499520E+03  0.00000000000E+00 0.  1.
        -11    1    5    5    0    0  0.90941894552E+02 -0.92852744141E+02 -0.77527643778E+02  0.15133603612E+03  0.00000000000E+00 0. -1.
          4    1    6    6  503    0 -0.12848622927E+03  0.13146926042E+03 -0.10148540574E+03  0.20998134471E+03  0.00000000000E+00 0. -1.
         -4    1    6    6    0  503 -0.46418864092E+02  0.16908136125E+03 -0.84343585910E+02  0.19456890335E+03  0.00000000000E+00 0.  1.
<mgrwt>
<rscale>  0 0.11877364E+04</rscale>
<asrwt>0</asrwt>
<pdfrwt beam="1">  1        1 0.12868768E+00 0.11877364E+04</pdfrwt>
<pdfrwt beam="2">  1       -2 0.64865898E-01 0.11877364E+04</pdfrwt>
<totfact> 0.39149704E+01</totfact>
</mgrwt>
</event>
<event>
12    4  0.4320235E-008  0.1415022E+04  0.7818608E-02  0.8943016E-01
          1   -1    0    0  501    0  0.00000000000E+00  0.00000000000E+00  0.54275919006E+03  0.54275919006E+03  0.00000000000E+00 0. -1.
         -2   -1    0    0    0  501 -0.00000000000E+00 -0.00000000000E+00 -0.92227220483E+03  0.92227220483E+03  0.00000000000E+00 0.  1.
        -24    2    1    2    0    0 -0.14783978232E+02  0.35976122866E+03  0.11181396952E+03  0.38545140560E+03  0.80148079465E+02 0.  0.
        254    2    1    2    0    0  0.14783978232E+02 -0.35976122866E+03 -0.49132698429E+03  0.10795799893E+04  0.89131590365E+03 0.  0.
         23    2    4    4    0    0  0.90798124050E+02  0.22044686394E+03  0.69129820028E+02  0.26384790601E+03  0.89418489903E+02 0.  0.
         23    2    4    4    0    0 -0.76014145817E+02 -0.58020809260E+03 -0.56045680432E+03  0.81573208327E+03  0.94273119629E+02 0.  0.
          3    1    3    3  502    0 -0.22978991557E+02  0.24905674114E+03  0.11295573302E+03  0.27443813872E+03  0.00000000000E+00 0. -1.
         -4    1    3    3    0  502  0.81950133242E+01  0.11070448752E+03 -0.11417635058E+01  0.11101326688E+03  0.00000000000E+00 0.  1.
         11    1    5    5    0    0  0.91870507437E+02  0.19042063480E+03  0.87296203163E+02  0.22873748136E+03  0.00000000000E+00 0. -1.
        -11    1    5    5    0    0 -0.10723833874E+01  0.30026229145E+02 -0.18166383135E+02  0.35110424649E+02  0.00000000000E+00 0.  1.
          4    1    6    6  503    0 -0.80884191035E+02 -0.55088054447E+03 -0.49990467452E+03  0.74827555769E+03  0.00000000000E+00 0. -1.
         -4    1    6    6    0  503  0.48700452181E+01 -0.29327548134E+02 -0.60552129797E+02  0.67456525577E+02  0.00000000000E+00 0.  1.
<mgrwt>
<rscale>  0 0.14150219E+04</rscale>
<asrwt>0</asrwt>
<pdfrwt beam="1">  1        1 0.83501415E-01 0.14150219E+04</pdfrwt>
<pdfrwt beam="2">  1       -2 0.14188803E+00 0.14150219E+04</pdfrwt>
<totfact> 0.11671136E+01</totfact>
</mgrwt>
</event>
<event>
12    4  0.4320235E-008  0.1689908E+04  0.7818608E-02  0.8767141E-01
          1   -1    0    0  501    0  0.00000000000E+00  0.00000000000E+00  0.16586416903E+04  0.16586416903E+04  0.00000000000E+00 0. -1.
         -2   -1    0    0    0  501 -0.00000000000E+00 -0.00000000000E+00 -0.43044103892E+03  0.43044103892E+03  0.00000000000E+00 0.  1.
        -24    2    1    2    0    0 -0.27513882320E+03  0.50748786938E+03  0.23703437558E+03  0.62881174133E+03  0.77289075740E+02 0.  0.
        254    2    1    2    0    0  0.27513882320E+03 -0.50748786938E+03  0.99116627585E+03  0.14602709879E+04  0.90373417675E+03 0.  0.
         23    2    4    4    0    0  0.14158232456E+03 -0.66490136600E+03  0.10235882314E+04  0.12322662670E+04  0.92778790938E+02 0.  0.
         23    2    4    4    0    0  0.13355649864E+03  0.15741349662E+03 -0.32421955574E+02  0.22800472097E+03  0.91206481870E+02 0.  0.
          1    1    3    3  502    0 -0.59268563294E+02  0.14791786596E+03  0.34352838744E+02  0.16301096649E+03  0.00000000000E+00 0. -1.
         -2    1    3    3    0  502 -0.21587025990E+03  0.35957000342E+03  0.20268153684E+03  0.46580077484E+03  0.00000000000E+00 0.  1.
         11    1    5    5    0    0  0.35560402472E+02 -0.18303442374E+03  0.21065747257E+03  0.28132314737E+03  0.00000000000E+00 0. -1.
        -11    1    5    5    0    0  0.10602192208E+03 -0.48186694226E+03  0.81293075886E+03  0.95094311959E+03  0.00000000000E+00 0.  1.
          4    1    6    6  503    0  0.74685792433E+02  0.74565335083E+02 -0.61684667852E+02  0.12224138021E+03  0.00000000000E+00 0. -1.
         -4    1    6    6    0  503  0.58870706208E+02  0.82848161540E+02  0.29262712278E+02  0.10576334077E+03  0.00000000000E+00 0.  1.
<mgrwt>
<rscale>  0 0.16899082E+04</rscale>
<asrwt>0</asrwt>
<pdfrwt beam="1">  1        1 0.25517564E+00 0.16899082E+04</pdfrwt>
<pdfrwt beam="2">  1       -2 0.66221699E-01 0.16899082E+04</pdfrwt>
<totfact> 0.89174188E+00</totfact>
</mgrwt>
</event>
<event>
12    4  0.4320235E-008  0.1111720E+04  0.7818608E-02  0.9193843E-01
         -2   -1    0    0    0  501 -0.00000000000E+00  0.00000000000E+00  0.95926934898E+03  0.95926934898E+03  0.00000000000E+00 0.  1.
          1   -1    0    0  501    0  0.00000000000E+00 -0.00000000000E+00 -0.32209978686E+03  0.32209978686E+03  0.00000000000E+00 0. -1.
        -24    2    1    2    0    0  0.22088186348E+03 -0.80083378866E+02  0.11179006252E+02  0.24823774507E+03  0.79340170863E+02 0.  0.
        254    2    1    2    0    0 -0.22088186348E+03  0.80083378866E+02  0.62599055587E+03  0.10331313908E+04  0.78758755029E+03 0.  0.
         23    2    4    4    0    0 -0.41712146761E+02 -0.33932722991E+03  0.31383811917E+03  0.47275631796E+03  0.90118249993E+02 0.  0.
         23    2    4    4    0    0 -0.17916971672E+03  0.41941060878E+03  0.31215243670E+03  0.56037507281E+03  0.92596070919E+02 0.  0.
          1    1    3    3  502    0  0.98902747817E+02 -0.45105417570E+02 -0.33434934601E+02  0.11372839167E+03  0.00000000000E+00 0. -1.
         -2    1    3    3    0  502  0.12197911566E+03 -0.34977961297E+02  0.44613940853E+02  0.13450935340E+03  0.00000000000E+00 0.  1.
         11    1    5    5    0    0 -0.46644319155E+02 -0.25892694955E+03  0.18806474325E+03  0.32339945171E+03  0.00000000000E+00 0. -1.
        -11    1    5    5    0    0  0.49321723939E+01 -0.80400280362E+02  0.12577337591E+03  0.14935686625E+03  0.00000000000E+00 0.  1.
          3    1    6    6  503    0 -0.17798998045E+03  0.42293716785E+03  0.30139931651E+03  0.54899711209E+03  0.00000000000E+00 0. -1.
         -3    1    6    6    0  503 -0.11797362671E+01 -0.35265590695E+01  0.10753120185E+02  0.11377960724E+02  0.00000000000E+00 0.  1.
<mgrwt>
<rscale>  0 0.11117202E+04</rscale>
<asrwt>0</asrwt>
<pdfrwt beam="1">  1        1 0.49553814E-01 0.11117202E+04</pdfrwt>
<pdfrwt beam="2">  1       -2 0.14757990E+00 0.11117202E+04</pdfrwt>
<totfact> 0.21695272E+01</totfact>
</mgrwt>
</event>
<event>
12    4  0.4320235E-008  0.1905834E+04  0.7818608E-02  0.8651958E-01
         -2   -1    0    0    0  501 -0.00000000000E+00  0.00000000000E+00  0.11170162279E+04  0.11170162279E+04  0.00000000000E+00 0.  1.
          1   -1    0    0  501    0  0.00000000000E+00 -0.00000000000E+00 -0.81292568658E+03  0.81292568658E+03  0.00000000000E+00 0. -1.
        -24    2    1    2    0    0 -0.37587454186E+03 -0.48442826062E+03  0.53120189420E+03  0.81537122832E+03  0.81868044234E+02 0.  0.
        254    2    1    2    0    0  0.37587454186E+03  0.48442826062E+03 -0.22711135287E+03  0.11145706862E+04  0.90262718603E+03 0.  0.
         23    2    4    4    0    0 -0.17464436338E+03 -0.97907767894E+02 -0.21400651367E+03  0.30694081691E+03  0.91254000028E+02 0.  0.
         23    2    4    4    0    0  0.55051890524E+03  0.58233602851E+03 -0.13104839206E+02  0.80762986926E+03  0.99538704922E+02 0.  0.
          1    1    3    3  502    0 -0.99308534970E+02 -0.15439728244E+03  0.11568924638E+03  0.21699010962E+03  0.00000000000E+00 0. -1.
         -2    1    3    3    0  502 -0.27656600689E+03 -0.33003097818E+03  0.41551264782E+03  0.59838111870E+03  0.00000000000E+00 0.  1.
         11    1    5    5    0    0 -0.13111926537E+03 -0.11018967959E+03 -0.14485830349E+03  0.22431664078E+03  0.00000000000E+00 0. -1.
        -11    1    5    5    0    0 -0.43525098008E+02  0.12281911695E+02 -0.69148210177E+02  0.82624176136E+02  0.00000000000E+00 0.  1.
          4    1    6    6  503    0  0.41465507617E+03  0.48362431368E+03 -0.36381874443E+02  0.63808694531E+03  0.00000000000E+00 0. -1.
         -4    1    6    6    0  503  0.13586382906E+03  0.98711714830E+02  0.23277035237E+02  0.16954292395E+03  0.00000000000E+00 0.  1.
<mgrwt>
<rscale>  0 0.19058344E+04</rscale>
<asrwt>0</asrwt>
<pdfrwt beam="1">  1        1 0.12506549E+00 0.19058344E+04</pdfrwt>
<pdfrwt beam="2">  1       -2 0.17184865E+00 0.19058344E+04</pdfrwt>
<totfact> 0.36486502E+00</totfact>
</mgrwt>
</event>
<event>
12    4  0.4320235E-008  0.1478899E+04  0.7818608E-02  0.8898607E-01
         -2   -1    0    0    0  501 -0.00000000000E+00  0.00000000000E+00  0.20475937617E+04  0.20475937617E+04  0.00000000000E+00 0.  1.
          1   -1    0    0  501    0  0.00000000000E+00 -0.00000000000E+00 -0.26703805476E+03  0.26703805476E+03  0.00000000000E+00 0. -1.
        -24    2    1    2    0    0 -0.19966403754E+03  0.37209845755E+03  0.24116333708E+03  0.49287387173E+03  0.80261499403E+02 0.  0.
        254    2    1    2    0    0  0.19966403754E+03 -0.37209845755E+03  0.15393923698E+04  0.18217579447E+04  0.87792377276E+03 0.  0.
         23    2    4    4    0    0  0.60597058309E+01  0.26873031224E+03  0.60473117993E+03  0.66833529710E+03  0.93378630403E+02 0.  0.
         23    2    4    4    0    0  0.19360433171E+03 -0.64082876979E+03  0.93466118990E+03  0.11534226476E+04  0.92995239880E+02 0.  0.
          3    1    3    3  502    0 -0.19750795999E+03  0.37582349198E+03  0.24169396451E+03  0.48853726968E+03  0.00000000000E+00 0. -1.
         -4    1    3    3    0  502 -0.21560775577E+01 -0.37250344281E+01 -0.53062743401E+00  0.43366020568E+01  0.00000000000E+00 0.  1.
         11    1    5    5    0    0 -0.99547866716E+01  0.26707467609E+03  0.55373505127E+03  0.61485810346E+03  0.00000000000E+00 0.  1.
        -11    1    5    5    0    0  0.16014492503E+02  0.16556361544E+01  0.50996128661E+02  0.53477193640E+02  0.00000000000E+00 0. -1.
          3    1    6    6  503    0  0.39232807491E+02 -0.18012786997E+03  0.32709851633E+03  0.37547130664E+03  0.00000000000E+00 0. -1.
         -3    1    6    6    0  503  0.15437152422E+03 -0.46070089982E+03  0.60756267357E+03  0.77795134096E+03  0.00000000000E+00 0.  1.
<mgrwt>
<rscale>  0 0.14788989E+04</rscale>
<asrwt>0</asrwt>
<pdfrwt beam="1">  1        1 0.41082779E-01 0.14788989E+04</pdfrwt>
<pdfrwt beam="2">  1       -2 0.31501441E+00 0.14788989E+04</pdfrwt>
<totfact> 0.22299863E+00</totfact>
</mgrwt>
</event>
<event>
12    4  0.4320235E-008  0.2632370E+04  0.7818608E-02  0.8357288E-01
         -2   -1    0    0    0  501 -0.00000000000E+00  0.00000000000E+00  0.11367499279E+04  0.11367499279E+04  0.00000000000E+00 0.  1.
          1   -1    0    0  501    0  0.00000000000E+00 -0.00000000000E+00 -0.15239437439E+04  0.15239437439E+04  0.00000000000E+00 0. -1.
        -24    2    1    2    0    0  0.11600660557E+04  0.15133225072E+03 -0.99521867429E+02  0.11767446926E+04  0.78541489984E+02 0.  0.
        254    2    1    2    0    0 -0.11600660557E+04 -0.15133225072E+03 -0.28767194855E+03  0.14839489792E+04  0.86642640732E+03 0.  0.
         23    2    4    4    0    0 -0.30576706387E+03 -0.35334734307E+03  0.14966786120E+03  0.49903460057E+03  0.91034178689E+02 0.  0.
         23    2    4    4    0    0 -0.85429899184E+03  0.20201509235E+03 -0.43733980974E+03  0.98491437867E+03  0.90295952972E+02 0.  0.
          3    1    3    3  502    0  0.44770409795E+03  0.61516642095E+02 -0.23508824409E+00  0.45191073437E+03  0.00000000000E+00 0. -1.
         -4    1    3    3    0  502  0.71236195776E+03  0.89815608623E+02 -0.99286779184E+02  0.72483395819E+03  0.00000000000E+00 0.  1.
         11    1    5    5    0    0 -0.16332605747E+03 -0.25547814872E+03  0.93397444456E+02  0.31728152823E+03  0.00000000000E+00 0. -1.
        -11    1    5    5    0    0 -0.14244100640E+03 -0.97869194349E+02  0.56270416740E+02  0.18175307234E+03  0.00000000000E+00 0.  1.
          4    1    6    6  503    0 -0.89961597796E+02  0.28003463933E+02 -0.18064373200E+02  0.95935419160E+02  0.00000000000E+00 0. -1.
         -4    1    6    6    0  503 -0.76433739405E+03  0.17401162842E+03 -0.41927543654E+03  0.88897895951E+03  0.00000000000E+00 0.  1.
<mgrwt>
<rscale>  0 0.26323700E+04</rscale>
<asrwt>0</asrwt>
<pdfrwt beam="1">  1        1 0.23445288E+00 0.26323700E+04</pdfrwt>
<pdfrwt beam="2">  1       -2 0.17488461E+00 0.26323700E+04</pdfrwt>
<totfact> 0.95600382E-01</totfact>
</mgrwt>
</event>
<event>
12    4  0.4320235E-008  0.1202919E+04  0.7818608E-02  0.9110305E-01
          1   -1    0    0  501    0  0.00000000000E+00  0.00000000000E+00  0.10466979493E+04  0.10466979493E+04  0.00000000000E+00 0. -1.
         -2   -1    0    0    0  501 -0.00000000000E+00 -0.00000000000E+00 -0.34561416386E+03  0.34561416386E+03  0.00000000000E+00 0.  1.
        -24    2    1    2    0    0 -0.54133266187E+02  0.89466359220E+02  0.45164155293E+03  0.47033863287E+03  0.79395826691E+02 0.  0.
        254    2    1    2    0    0  0.54133266187E+02 -0.89466359220E+02  0.24944223254E+03  0.92197348032E+03  0.88140741494E+03 0.  0.
         23    2    4    4    0    0 -0.53629225548E+02  0.30266430940E+02  0.55455879332E+03  0.56588785354E+03  0.94347532351E+02 0.  0.
         23    2    4    4    0    0  0.10776249174E+03 -0.11973279016E+03 -0.30511656079E+03  0.35608562678E+03  0.88046364322E+02 0.  0.
          1    1    3    3  502    0 -0.63671572918E+02  0.70205810818E+02  0.42808050558E+03  0.43844708270E+03  0.00000000000E+00 0. -1.
         -2    1    3    3    0  502  0.95383067302E+01  0.19260548402E+02  0.23561047354E+02  0.31891550173E+02  0.00000000000E+00 0.  1.
         11    1    5    5    0    0  0.89948716625E+01  0.31890180824E+02  0.35932984384E+03  0.36085430304E+03  0.00000000000E+00 0. -1.
        -11    1    5    5    0    0 -0.62624097210E+02 -0.16237498840E+01  0.19522894948E+03  0.20503355050E+03  0.00000000000E+00 0.  1.
          3    1    6    6  503    0  0.65875741111E+02 -0.12418288438E+03 -0.24869097497E+03  0.28567149502E+03  0.00000000000E+00 0. -1.
         -3    1    6    6    0  503  0.41886750624E+02  0.44500942153E+01 -0.56425585821E+02  0.70414131761E+02  0.00000000000E+00 0.  1.
<mgrwt>
<rscale>  0 0.12029192E+04</rscale>
<asrwt>0</asrwt>
<pdfrwt beam="1">  1        1 0.16103045E+00 0.12029192E+04</pdfrwt>
<pdfrwt beam="2">  1       -2 0.53171410E-01 0.12029192E+04</pdfrwt>
<totfact> 0.40272990E+01</totfact>
</mgrwt>
</event>
<event>
12    4  0.4320235E-008  0.1594906E+04  0.7818608E-02  0.8823684E-01
         -2   -1    0    0    0  501 -0.00000000000E+00  0.00000000000E+00  0.74226066826E+03  0.74226066826E+03  0.00000000000E+00 0.  1.
          1   -1    0    0  501    0  0.00000000000E+00 -0.00000000000E+00 -0.85674893088E+03  0.85674893088E+03  0.00000000000E+00 0. -1.
        -24    2    1    2    0    0  0.34647173284E+03  0.34911815600E+03 -0.26935427090E+03  0.56664791576E+03  0.81314135778E+02 0.  0.
        254    2    1    2    0    0 -0.34647173284E+03 -0.34911815600E+03  0.15486600828E+03  0.10323616834E+04  0.89434949337E+03 0.  0.
         23    2    4    4    0    0 -0.40082679642E+03 -0.36127522962E+03 -0.25916646334E+03  0.60490396135E+03  0.86946158477E+02 0.  0.
         23    2    4    4    0    0  0.54355063586E+02  0.12157073626E+02  0.41403247162E+03  0.42745772203E+03  0.90525958638E+02 0.  0.
          1    1    3    3  502    0  0.14352418028E+02  0.47913903360E+02 -0.31390033746E+02  0.59051403514E+02  0.00000000000E+00 0. -1.
         -2    1    3    3    0  502  0.33211931481E+03  0.30120425263E+03 -0.23796423715E+03  0.50759651224E+03  0.00000000000E+00 0.  1.
         11    1    5    5    0    0 -0.16295398670E+03 -0.11054774655E+03 -0.59237550297E+02  0.20563047784E+03  0.00000000000E+00 0. -1.
        -11    1    5    5    0    0 -0.23787280972E+03 -0.25072748307E+03 -0.19992891304E+03  0.39927348352E+03  0.00000000000E+00 0.  1.
          4    1    6    6  503    0 -0.91404575971E+01 -0.27069449137E+01  0.26018975810E+03  0.26036433268E+03  0.00000000000E+00 0.  1.
         -4    1    6    6    0  503  0.63495521183E+02  0.14864018540E+02  0.15384271353E+03  0.16709338934E+03  0.00000000000E+00 0. -1.
<mgrwt>
<rscale>  0 0.15949057E+04</rscale>
<asrwt>0</asrwt>
<pdfrwt beam="1">  1        1 0.13180753E+00 0.15949057E+04</pdfrwt>
<pdfrwt beam="2">  1       -2 0.11419395E+00 0.15949057E+04</pdfrwt>
<totfact> 0.99726117E+00</totfact>
</mgrwt>
</event>
<event>
12    4  0.4320235E-008  0.1840816E+04  0.7818608E-02  0.8684890E-01
         -2   -1    0    0    0  501 -0.00000000000E+00  0.00000000000E+00  0.68723919961E+03  0.68723919961E+03  0.00000000000E+00 0.  1.
          1   -1    0    0  501    0  0.00000000000E+00 -0.00000000000E+00 -0.12326869098E+04  0.12326869098E+04  0.00000000000E+00 0. -1.
        -24    2    1    2    0    0  0.22697754811E+03 -0.50650632777E+03  0.23173772090E+03  0.60927092478E+03  0.97165946088E+02 0.  0.
        254    2    1    2    0    0 -0.22697754811E+03  0.50650632777E+03 -0.77718543105E+03  0.13106551846E+04  0.89762595287E+03 0.  0.
         23    2    4    4    0    0 -0.48075591555E+03  0.48735519697E+03 -0.77856317396E+03  0.10407601068E+04  0.91540404705E+02 0.  0.
         23    2    4    4    0    0  0.25377836744E+03  0.19151130794E+02  0.13777429107E+01  0.26989507780E+03  0.89840020335E+02 0.  0.
          3    1    3    3  502    0  0.81293047681E+02 -0.16877216761E+03  0.29856547810E+02  0.18969453763E+03  0.00000000000E+00 0. -1.
         -4    1    3    3    0  502  0.14568450043E+03 -0.33773416016E+03  0.20188117309E+03  0.41957638715E+03  0.00000000000E+00 0.  1.
         11    1    5    5    0    0 -0.47605969778E+03  0.48727933228E+03 -0.78022985201E+03  0.10357763299E+04  0.00000000000E+00 0.  1.
        -11    1    5    5    0    0 -0.46962177772E+01  0.75864697292E-01  0.16666780551E+01  0.49837769415E+01  0.00000000000E+00 0. -1.
          4    1    6    6  503    0  0.10093728135E+02  0.41992500324E+01 -0.22069481185E+02  0.24628825556E+02  0.00000000000E+00 0. -1.
         -4    1    6    6    0  503  0.24368463931E+03  0.14951880761E+02  0.23447224096E+02  0.24526625225E+03  0.00000000000E+00 0.  1.
<mgrwt>
<rscale>  0 0.18408159E+04</rscale>
<asrwt>0</asrwt>
<pdfrwt beam="1">  1        1 0.18964414E+00 0.18408159E+04</pdfrwt>
<pdfrwt beam="2">  1       -2 0.10572911E+00 0.18408159E+04</pdfrwt>
<totfact> 0.60320831E+00</totfact>
</mgrwt>
</event>
<event>
12    4  0.4320235E-008  0.1533702E+04  0.7818608E-02  0.8862346E-01
          1   -1    0    0  501    0  0.00000000000E+00  0.00000000000E+00  0.76081731081E+03  0.76081731081E+03  0.00000000000E+00 0. -1.
         -2   -1    0    0    0  501 -0.00000000000E+00 -0.00000000000E+00 -0.77293259280E+03  0.77293259280E+03  0.00000000000E+00 0.  1.
        -24    2    1    2    0    0  0.81599778652E+02 -0.36842586166E+03  0.32017766775E+03  0.50105979466E+03  0.78428562922E+02 0.  0.
        254    2    1    2    0    0 -0.81599778652E+02  0.36842586166E+03 -0.33229294974E+03  0.10326901090E+04  0.90201669456E+03 0.  0.
         23    2    4    4    0    0 -0.15075943055E+02  0.37191361276E+02 -0.59114395188E+03  0.59933030200E+03  0.90195108746E+02 0.  0.
         23    2    4    4    0    0 -0.66523835597E+02  0.33123450038E+03  0.25885100214E+03  0.43335980695E+03  0.81579200939E+02 0.  0.
          3    1    3    3  502    0  0.89364254450E+02 -0.23103307644E+03  0.21105947060E+03  0.32543563498E+03  0.00000000000E+00 0. -1.
         -4    1    3    3    0  502 -0.77644757974E+01 -0.13739278522E+03  0.10911819715E+03  0.17562415968E+03  0.00000000000E+00 0.  1.
         11    1    5    5    0    0 -0.47950562678E+02  0.13801450800E+02 -0.44262839089E+03  0.44543195769E+03  0.00000000000E+00 0.  1.
        -11    1    5    5    0    0  0.32874619623E+02  0.23389910476E+02 -0.14851556099E+03  0.15389834432E+03  0.00000000000E+00 0. -1.
          2    1    6    6  503    0  0.10731417987E+02  0.85659529499E+01  0.21130859600E+02  0.25200240265E+02  0.00000000000E+00 0. -1.
         -2    1    6    6    0  503 -0.77255253585E+02  0.32266854743E+03  0.23772014254E+03  0.40815956669E+03  0.00000000000E+00 0.  1.
<mgrwt>
<rscale>  0 0.15337021E+04</rscale>
<asrwt>0</asrwt>
<pdfrwt beam="1">  1        1 0.11704882E+00 0.15337021E+04</pdfrwt>
<pdfrwt beam="2">  1       -2 0.11891271E+00 0.15337021E+04</pdfrwt>
<totfact> 0.10989087E+01</totfact>
</mgrwt>
</event>
<event>
12    4  0.4320235E-008  0.1854956E+04  0.7818608E-02  0.8677608E-01
         -2   -1    0    0    0  501 -0.00000000000E+00  0.00000000000E+00  0.29650506808E+03  0.29650506808E+03  0.00000000000E+00 0.  1.
          1   -1    0    0  501    0  0.00000000000E+00 -0.00000000000E+00 -0.29011823138E+04  0.29011823138E+04  0.00000000000E+00 0. -1.
        -24    2    1    2    0    0  0.32761888259E+03 -0.54993544707E+03 -0.15180902796E+04  0.16494454651E+04  0.79429950875E+02 0.  0.
        254    2    1    2    0    0 -0.32761888259E+03  0.54993544707E+03 -0.10865869661E+04  0.15482419168E+04  0.89811951868E+03 0.  0.
         23    2    4    4    0    0 -0.37860625448E+03  0.67419507230E+03 -0.46661963121E+03  0.90767344744E+03  0.90859867484E+02 0.  0.
         23    2    4    4    0    0  0.50987371889E+02 -0.12425962523E+03 -0.61996733491E+03  0.64056846936E+03  0.89041007546E+02 0.  0.
          1    1    3    3  502    0  0.16334321672E+03 -0.29610102430E+03 -0.70363341543E+03  0.78067714604E+03  0.00000000000E+00 0. -1.
         -2    1    3    3    0  502  0.16427566587E+03 -0.25383442276E+03 -0.81445686415E+03  0.86876831902E+03  0.00000000000E+00 0.  1.
         11    1    5    5    0    0 -0.26392342651E+03  0.50404346324E+03 -0.29912439584E+03  0.64279918488E+03  0.00000000000E+00 0. -1.
        -11    1    5    5    0    0 -0.11468282797E+03  0.17015160906E+03 -0.16749523537E+03  0.26487426256E+03  0.00000000000E+00 0.  1.
          2    1    6    6  503    0  0.29046570265E+02 -0.83479713970E+02 -0.54736209097E+03  0.55445272523E+03  0.00000000000E+00 0. -1.
         -2    1    6    6    0  503  0.21940801624E+02 -0.40779911261E+02 -0.72605243942E+02  0.86115744125E+02  0.00000000000E+00 0.  1.
<mgrwt>
<rscale>  0 0.18549558E+04</rscale>
<asrwt>0</asrwt>
<pdfrwt beam="1">  1        1 0.44633573E+00 0.18549558E+04</pdfrwt>
<pdfrwt beam="2">  1       -2 0.45616165E-01 0.18549558E+04</pdfrwt>
<totfact> 0.26569712E+00</totfact>
</mgrwt>
</event>
<event>
12    4  0.4320235E-008  0.1195691E+04  0.7818608E-02  0.9116636E-01
         -4   -1    0    0    0  501 -0.00000000000E+00  0.00000000000E+00  0.60373163182E+03  0.60373163182E+03  0.00000000000E+00 0.  1.
          3   -1    0    0  501    0  0.00000000000E+00 -0.00000000000E+00 -0.59201715189E+03  0.59201715189E+03  0.00000000000E+00 0. -1.
        -24    2    1    2    0    0  0.31385970452E+02 -0.11275673108E+03 -0.22042838287E+03  0.26248356972E+03  0.81300632555E+02 0.  0.
        254    2    1    2    0    0 -0.31385970452E+02  0.11275673108E+03  0.23214286280E+03  0.93326521399E+03  0.89632276070E+03 0.  0.
         23    2    4    4    0    0  0.34914454269E+03  0.20120245480E+03 -0.84636161875E+02  0.42193947264E+03  0.92115683614E+02 0.  0.
         23    2    4    4    0    0 -0.38053051314E+03 -0.88445723715E+02  0.31677902468E+03  0.51132574135E+03  0.92081191457E+02 0.  0.
          3    1    3    3  502    0  0.53157056883E+02 -0.10538306417E+03 -0.16883285837E+03  0.20599950722E+03  0.00000000000E+00 0. -1.
         -4    1    3    3    0  502 -0.21771086430E+02 -0.73736669120E+01 -0.51595524502E+02  0.56484062502E+02  0.00000000000E+00 0.  1.
         11    1    5    5    0    0  0.15349501502E+03  0.41562974713E+02 -0.13490255526E+02  0.15959382036E+03  0.00000000000E+00 0.  1.
        -11    1    5    5    0    0  0.19564952766E+03  0.15963948008E+03 -0.71145906349E+02  0.26234565227E+03  0.00000000000E+00 0. -1.
          4    1    6    6  503    0 -0.29491142359E+03 -0.10289225844E+03  0.22475735002E+03  0.38480570552E+03  0.00000000000E+00 0. -1.
         -4    1    6    6    0  503 -0.85619089551E+02  0.14446534726E+02  0.92021674656E+02  0.12652003583E+03  0.00000000000E+00 0.  1.
<mgrwt>
<rscale>  0 0.11956914E+04</rscale>
<asrwt>0</asrwt>
<pdfrwt beam="1">  1        3 0.91079562E-01 0.11956914E+04</pdfrwt>
<pdfrwt beam="2">  1       -4 0.92881789E-01 0.11956914E+04</pdfrwt>
<totfact> 0.24097507E+00</totfact>
</mgrwt>
</event>
<event>
12    4  0.4320235E-008  0.1441394E+04  0.7818608E-02  0.8924389E-01
         -2   -1    0    0    0  501 -0.00000000000E+00  0.00000000000E+00  0.61078291359E+03  0.61078291359E+03  0.00000000000E+00 0.  1.
          1   -1    0    0  501    0  0.00000000000E+00 -0.00000000000E+00 -0.85039079682E+03  0.85039079682E+03  0.00000000000E+00 0. -1.
        -24    2    1    2    0    0  0.13759423435E+03 -0.29612483674E+02 -0.49415054619E+03  0.51994277089E+03  0.79665865923E+02 0.  0.
        254    2    1    2    0    0 -0.13759423435E+03  0.29612483674E+02  0.25454266296E+03  0.94123093952E+03  0.89516179640E+03 0.  0.
         23    2    4    4    0    0  0.75276320787E+02  0.21802148850E+03 -0.25172341918E+03  0.35335309559E+03  0.91070502802E+02 0.  0.
         23    2    4    4    0    0 -0.21287055513E+03 -0.18840900483E+03  0.50626608214E+03  0.58787784393E+03  0.92104218750E+02 0.  0.
          3    1    3    3  502    0  0.62066349749E+02 -0.51059598018E+02 -0.29839291166E+03  0.30902693094E+03  0.00000000000E+00 0. -1.
         -4    1    3    3    0  502  0.75527884597E+02  0.21447114344E+02 -0.19575763453E+03  0.21091583995E+03  0.00000000000E+00 0.  1.
         11    1    5    5    0    0  0.84630116769E+02  0.12665183590E+03 -0.18599399037E+03  0.24040946041E+03  0.00000000000E+00 0.  1.
        -11    1    5    5    0    0 -0.93537959816E+01  0.91369652605E+02 -0.65729428805E+02  0.11294363518E+03  0.00000000000E+00 0. -1.
          3    1    6    6  503    0 -0.41925494955E+02 -0.76322826767E+02  0.96676893851E+02  0.13011280805E+03  0.00000000000E+00 0. -1.
         -3    1    6    6    0  503 -0.17094506018E+03 -0.11208617806E+03  0.40958918829E+03  0.45776503588E+03  0.00000000000E+00 0.  1.
<mgrwt>
<rscale>  0 0.14413940E+04</rscale>
<asrwt>0</asrwt>
<pdfrwt beam="1">  1        1 0.13082935E+00 0.14413940E+04</pdfrwt>
<pdfrwt beam="2">  1       -2 0.93966603E-01 0.14413940E+04</pdfrwt>
<totfact> 0.16296061E+01</totfact>
</mgrwt>
</event>
<event>
12    4  0.4320235E-008  0.2029629E+04  0.7818608E-02  0.8592892E-01
         -2   -1    0    0    0  501 -0.00000000000E+00  0.00000000000E+00  0.69454153782E+03  0.69454153782E+03  0.00000000000E+00 0.  1.
          1   -1    0    0  501    0  0.00000000000E+00 -0.00000000000E+00 -0.14827739382E+04  0.14827739382E+04  0.00000000000E+00 0. -1.
        -24    2    1    2    0    0  0.27895898406E+03 -0.50947725741E+03 -0.93494512807E+03  0.11031986902E+04  0.74429610057E+02 0.  0.
        254    2    1    2    0    0 -0.27895898406E+03  0.50947725741E+03  0.14671272772E+03  0.10741167858E+04  0.89152512837E+03 0.  0.
         23    2    4    4    0    0  0.15079372088E+03  0.14326720332E+03 -0.28037760258E+03  0.36023834771E+03  0.88858479226E+02 0.  0.
         23    2    4    4    0    0 -0.42975270494E+03  0.36621005409E+03  0.42709033029E+03  0.71387843812E+03  0.91755561444E+02 0.  0.
          3    1    3    3  502    0  0.72927736396E+02 -0.90867995750E+02 -0.14825936211E+03  0.18856374477E+03  0.00000000000E+00 0. -1.
         -4    1    3    3    0  502  0.20603124767E+03 -0.41860926166E+03 -0.78668576596E+03  0.91463494539E+03  0.00000000000E+00 0.  1.
         11    1    5    5    0    0  0.73821503707E+02  0.35988874235E+02 -0.16741612393E+03  0.18647512443E+03  0.00000000000E+00 0. -1.
        -11    1    5    5    0    0  0.76972217170E+02  0.10727832909E+03 -0.11296147865E+03  0.17376322329E+03  0.00000000000E+00 0.  1.
          4    1    6    6  503    0 -0.74072811029E+02  0.11005116988E+03  0.81380463263E+02  0.15563039911E+03  0.00000000000E+00 0. -1.
         -4    1    6    6    0  503 -0.35567989391E+03  0.25615888421E+03  0.34570986703E+03  0.55824803901E+03  0.00000000000E+00 0.  1.
<mgrwt>
<rscale>  0 0.20296286E+04</rscale>
<asrwt>0</asrwt>
<pdfrwt beam="1">  1        1 0.22811907E+00 0.20296286E+04</pdfrwt>
<pdfrwt beam="2">  1       -2 0.10685254E+00 0.20296286E+04</pdfrwt>
<totfact> 0.38490355E+00</totfact>
</mgrwt>
</event>
<event>
12    4  0.4320235E-008  0.1847382E+04  0.7818608E-02  0.8681501E-01
          1   -1    0    0  501    0  0.00000000000E+00  0.00000000000E+00  0.89496186250E+03  0.89496186250E+03  0.00000000000E+00 0. -1.
         -2   -1    0    0    0  501 -0.00000000000E+00 -0.00000000000E+00 -0.95334193722E+03  0.95334193722E+03  0.00000000000E+00 0.  1.
        -24    2    1    2    0    0  0.55033471310E+03 -0.22345383001E+03 -0.39859910618E+03  0.71981747481E+03  0.80349480495E+02 0.  0.
        254    2    1    2    0    0 -0.55033471310E+03  0.22345383001E+03  0.34021903146E+03  0.11284863249E+04  0.89718029713E+03 0.  0.
         23    2    4    4    0    0 -0.15807056817E+03  0.43962868537E+03 -0.10818103026E+03  0.48807271430E+03  0.90841365092E+02 0.  0.
         23    2    4    4    0    0 -0.39226414492E+03 -0.21617485536E+03  0.44840006172E+03  0.64041361062E+03  0.92001357733E+02 0.  0.
          1    1    3    3  502    0  0.50171794010E+03 -0.20203034190E+03 -0.38799837188E+03  0.66564246188E+03  0.00000000000E+00 0. -1.
         -2    1    3    3    0  502  0.48616772997E+02 -0.21423488106E+02 -0.10600734295E+02  0.54175012939E+02  0.00000000000E+00 0.  1.
         11    1    5    5    0    0 -0.65858085090E+02  0.76703455922E+02 -0.15083793596E+02  0.10221657572E+03  0.00000000000E+00 0. -1.
        -11    1    5    5    0    0 -0.92212483083E+02  0.36292522945E+03 -0.93097236669E+02  0.38585613858E+03  0.00000000000E+00 0.  1.
          3    1    6    6  503    0 -0.18356639163E+03 -0.61465463512E+02  0.23313055796E+03  0.30302554413E+03  0.00000000000E+00 0. -1.
         -3    1    6    6    0  503 -0.20869775330E+03 -0.15470939185E+03  0.21526950377E+03  0.33738806649E+03  0.00000000000E+00 0.  1.
<mgrwt>
<rscale>  0 0.18473816E+04</rscale>
<asrwt>0</asrwt>
<pdfrwt beam="1">  1        1 0.13768644E+00 0.18473816E+04</pdfrwt>
<pdfrwt beam="2">  1       -2 0.14666799E+00 0.18473816E+04</pdfrwt>
<totfact> 0.48097249E+00</totfact>
</mgrwt>
</event>
<event>
12    4  0.4320235E-008  0.1853097E+04  0.7818608E-02  0.8678562E-01
         -2   -1    0    0    0  501 -0.00000000000E+00  0.00000000000E+00  0.64131811844E+03  0.64131811844E+03  0.00000000000E+00 0.  1.
          1   -1    0    0  501    0  0.00000000000E+00 -0.00000000000E+00 -0.13386367323E+04  0.13386367323E+04  0.00000000000E+00 0. -1.
        -24    2    1    2    0    0  0.27739086013E+02  0.68580310564E+03 -0.46386726811E+03  0.83231985538E+03  0.80549007687E+02 0.  0.
        254    2    1    2    0    0 -0.27739086013E+02 -0.68580310564E+03 -0.23345134580E+03  0.11476349954E+04  0.88964666875E+03 0.  0.
         23    2    4    4    0    0 -0.16967846939E+03  0.47839469277E+02 -0.33352017602E+03  0.38763313145E+03  0.89131021477E+02 0.  0.
         23    2    4    4    0    0  0.14193938338E+03 -0.73364257492E+03  0.10006883022E+03  0.76000186395E+03  0.95973153212E+02 0.  0.
          3    1    3    3  502    0  0.59266788148E+00  0.48586706261E+03 -0.28902181174E+03  0.56533243446E+03  0.00000000000E+00 0. -1.
         -4    1    3    3    0  502  0.27146418132E+02  0.19993604303E+03 -0.17484545637E+03  0.26698742092E+03  0.00000000000E+00 0.  1.
         11    1    5    5    0    0 -0.66268417863E+02  0.67314361376E+01 -0.50706473389E+02  0.83713570477E+02  0.00000000000E+00 0. -1.
        -11    1    5    5    0    0 -0.10341005153E+03  0.41108033139E+02 -0.28281370263E+03  0.30391956097E+03  0.00000000000E+00 0.  1.
          4    1    6    6  503    0  0.31984039668E+01 -0.17266279109E+03  0.50872913275E+02  0.18002978232E+03  0.00000000000E+00 0. -1.
         -4    1    6    6    0  503  0.13874097941E+03 -0.56097978382E+03  0.49195916950E+02  0.57997208163E+03  0.00000000000E+00 0.  1.
<mgrwt>
<rscale>  0 0.18530969E+04</rscale>
<asrwt>0</asrwt>
<pdfrwt beam="1">  1        1 0.20594411E+00 0.18530969E+04</pdfrwt>
<pdfrwt beam="2">  1       -2 0.98664327E-01 0.18530969E+04</pdfrwt>
<totfact> 0.59664827E+00</totfact>
</mgrwt>
</event>
<event>
12    4  0.4320235E-008  0.1688102E+04  0.7818608E-02  0.8768180E-01
         -2   -1    0    0    0  501 -0.00000000000E+00  0.00000000000E+00  0.11032121663E+04  0.11032121663E+04  0.00000000000E+00 0.  1.
          1   -1    0    0  501    0  0.00000000000E+00 -0.00000000000E+00 -0.64577062568E+03  0.64577062568E+03  0.00000000000E+00 0. -1.
        -24    2    1    2    0    0 -0.15498228086E+03 -0.50298665042E+03 -0.13601064814E+03  0.54966363043E+03  0.81339611073E+02 0.  0.
        254    2    1    2    0    0  0.15498228086E+03  0.50298665042E+03  0.59345218879E+03  0.11993191616E+04  0.89953647678E+03 0.  0.
         23    2    4    4    0    0  0.26751032696E+03  0.28602624789E+02  0.64139760939E+03  0.70172552426E+03  0.92994262645E+02 0.  0.
         23    2    4    4    0    0 -0.11252804610E+03  0.47438402563E+03 -0.47945420602E+02  0.49759363732E+03  0.87165931456E+02 0.  0.
          1    1    3    3  502    0 -0.12230091682E+03 -0.43445127931E+03 -0.14290945122E+03  0.47342215791E+03  0.00000000000E+00 0. -1.
         -4    1    3    3    0  502 -0.32681364040E+02 -0.68535371113E+02  0.68988030798E+01  0.76241472527E+02  0.00000000000E+00 0.  1.
         11    1    5    5    0    0  0.22994946744E+03 -0.10035636058E+02  0.53675031646E+03  0.58401915533E+03  0.00000000000E+00 0.  1.
        -11    1    5    5    0    0  0.37560859523E+02  0.38638260847E+02  0.10464729293E+03  0.11770636894E+03  0.00000000000E+00 0. -1.
          2    1    6    6  503    0 -0.57795568754E+01 -0.83058079321E+00 -0.65595714155E+01  0.87818630874E+01  0.00000000000E+00 0. -1.
         -2    1    6    6    0  503 -0.10674848923E+03  0.47521460643E+03 -0.41385849187E+02  0.48881177423E+03  0.00000000000E+00 0.  1.
<mgrwt>
<rscale>  0 0.16881019E+04</rscale>
<asrwt>0</asrwt>
<pdfrwt beam="1">  1        1 0.99349327E-01 0.16881019E+04</pdfrwt>
<pdfrwt beam="2">  1       -2 0.16972495E+00 0.16881019E+04</pdfrwt>
<totfact> 0.54864056E+00</totfact>
</mgrwt>
</event>
<event>
12    4  0.4320235E-008  0.2604454E+04  0.7818608E-02  0.8366690E-01
         -2   -1    0    0    0  501 -0.00000000000E+00  0.00000000000E+00  0.89663176579E+03  0.89663176579E+03  0.00000000000E+00 0.  1.
          1   -1    0    0  501    0  0.00000000000E+00 -0.00000000000E+00 -0.18912948340E+04  0.18912948340E+04  0.00000000000E+00 0. -1.
        -24    2    1    2    0    0 -0.65566712743E+02  0.60289219345E+03  0.60517910705E+03  0.86046539439E+03  0.79880865005E+02 0.  0.
        254    2    1    2    0    0  0.65566712743E+02 -0.60289219345E+03 -0.15998421753E+04  0.19274612054E+04  0.88759997848E+03 0.  0.
         23    2    4    4    0    0  0.26097415120E+03 -0.17115954772E+03 -0.83264616118E+02  0.33605216711E+03  0.92709030592E+02 0.  0.
         23    2    4    4    0    0 -0.19540743845E+03 -0.43173264574E+03 -0.15165775592E+04  0.15914090383E+04  0.89432040311E+02 0.  0.
          3    1    3    3  502    0 -0.20930926688E+02  0.54821015425E+02  0.34981224842E+02  0.68316422006E+02  0.00000000000E+00 0. -1.
         -4    1    3    3    0  502 -0.44635786055E+02  0.54807117803E+03  0.57019788221E+03  0.79214897239E+03  0.00000000000E+00 0.  1.
         11    1    5    5    0    0  0.23050593976E+03 -0.14900020556E+03 -0.37886195784E+02  0.27707293869E+03  0.00000000000E+00 0. -1.
        -11    1    5    5    0    0  0.30468211430E+02 -0.22159342159E+02 -0.45378420334E+02  0.58979228417E+02  0.00000000000E+00 0.  1.
          2    1    6    6  503    0 -0.13991797435E+03 -0.38233254132E+03 -0.13146337193E+04  0.13762329118E+04  0.00000000000E+00 0. -1.
         -2    1    6    6    0  503 -0.55489464101E+02 -0.49400104414E+02 -0.20194383991E+03  0.21517612651E+03  0.00000000000E+00 0.  1.
<mgrwt>
<rscale>  0 0.26044539E+04</rscale>
<asrwt>0</asrwt>
<pdfrwt beam="1">  1        1 0.29096843E+00 0.26044539E+04</pdfrwt>
<pdfrwt beam="2">  1       -2 0.13794335E+00 0.26044539E+04</pdfrwt>
<totfact> 0.10197953E+00</totfact>
</mgrwt>
</event>
<event>
12    4  0.4320235E-008  0.1774831E+04  0.7818608E-02  0.8719800E-01
         -2   -1    0    0    0  501 -0.00000000000E+00  0.00000000000E+00  0.13653592572E+04  0.13653592572E+04  0.00000000000E+00 0.  1.
          1   -1    0    0  501    0  0.00000000000E+00 -0.00000000000E+00 -0.57677588036E+03  0.57677588036E+03  0.00000000000E+00 0. -1.
        -24    2    1    2    0    0  0.32513864404E+03  0.22148531570E+02  0.91632624568E+03  0.97551870196E+03  0.76008250005E+02 0.  0.
        254    2    1    2    0    0 -0.32513864404E+03 -0.22148531570E+02 -0.12774286888E+03  0.96661643555E+03  0.90101242923E+03 0.  0.
         23    2    4    4    0    0 -0.15333920512E+03  0.95576991176E+02  0.36859528458E+03  0.42076449790E+03  0.92371022584E+02 0.  0.
         23    2    4    4    0    0 -0.17179943892E+03 -0.11772552275E+03 -0.49633815346E+03  0.54585193765E+03  0.90710690311E+02 0.  0.
          3    1    3    3  502    0  0.87219800791E+02  0.40191254417E+02  0.26449842183E+03  0.28139304493E+03  0.00000000000E+00 0. -1.
         -4    1    3    3    0  502  0.23791884325E+03 -0.18042722846E+02  0.65182782384E+03  0.69412565704E+03  0.00000000000E+00 0.  1.
         11    1    5    5    0    0 -0.41869947972E+02  0.38601520132E+02  0.21604230031E+03  0.22342212385E+03  0.00000000000E+00 0.  1.
        -11    1    5    5    0    0 -0.11146925715E+03  0.56975471044E+02  0.15255298426E+03  0.19734237406E+03  0.00000000000E+00 0. -1.
          1    1    6    6  503    0  0.16057955787E+01 -0.67702116939E+00  0.35473398464E+01  0.39522850467E+01  0.00000000000E+00 0. -1.
         -1    1    6    6    0  503 -0.17340523450E+03 -0.11704850158E+03 -0.49988549331E+03  0.54189965260E+03  0.00000000000E+00 0.  1.
<mgrwt>
<rscale>  0 0.17748310E+04</rscale>
<asrwt>0</asrwt>
<pdfrwt beam="1">  1        1 0.88734751E-01 0.17748310E+04</pdfrwt>
<pdfrwt beam="2">  1       -2 0.21005527E+00 0.17748310E+04</pdfrwt>
<totfact> 0.34306167E+00</totfact>
</mgrwt>
</event>
<event>
12    4  0.4320235E-008  0.1696247E+04  0.7818608E-02  0.8763508E-01
         -2   -1    0    0    0  501 -0.00000000000E+00  0.00000000000E+00  0.19470704351E+04  0.19470704351E+04  0.00000000000E+00 0.  1.
          1   -1    0    0  501    0  0.00000000000E+00 -0.00000000000E+00 -0.36943369298E+03  0.36943369298E+03  0.00000000000E+00 0. -1.
        -24    2    1    2    0    0 -0.19219264826E+01  0.45800330226E+02  0.14039323160E+04  0.14070458816E+04  0.81552442958E+02 0.  0.
        254    2    1    2    0    0  0.19219264826E+01 -0.45800330226E+02  0.17370442607E+03  0.90945824644E+03  0.89153783449E+03 0.  0.
         23    2    4    4    0    0  0.25102375557E+03 -0.30564541938E+03  0.31352175253E+03  0.51267883363E+03  0.90064692826E+02 0.  0.
         23    2    4    4    0    0 -0.24910182909E+03  0.25984508915E+03 -0.13981732646E+03  0.39677941281E+03  0.91180184472E+02 0.  0.
          3    1    3    3  502    0  0.19035633849E+02  0.63541624310E+01  0.84223169877E+02  0.86581020324E+02  0.00000000000E+00 0. -1.
         -4    1    3    3    0  502 -0.20957560332E+02  0.39446167795E+02  0.13197091461E+04  0.13204648613E+04  0.00000000000E+00 0.  1.
         11    1    5    5    0    0  0.23293207559E+03 -0.30884078624E+03  0.29403851873E+03  0.48589981846E+03  0.00000000000E+00 0. -1.
        -11    1    5    5    0    0  0.18091679981E+02  0.31953668638E+01  0.19483233806E+02  0.26779015169E+02  0.00000000000E+00 0.  1.
          3    1    6    6  503    0 -0.53187678416E+02  0.86391779005E+02 -0.77844922183E+02  0.12787611397E+03  0.00000000000E+00 0. -1.
         -3    1    6    6    0  503 -0.19591415067E+03  0.17345331015E+03 -0.61972404280E+02  0.26890329884E+03  0.00000000000E+00 0.  1.
<mgrwt>
<rscale>  0 0.16962469E+04</rscale>
<asrwt>0</asrwt>
<pdfrwt beam="1">  1        1 0.56835954E-01 0.16962469E+04</pdfrwt>
<pdfrwt beam="2">  1       -2 0.29954929E+00 0.16962469E+04</pdfrwt>
<totfact> 0.17789968E+00</totfact>
</mgrwt>
</event>
<event>
12    4  0.4320235E-008  0.4049842E+04  0.7818608E-02  0.7994567E-01
         -2   -1    0    0    0  501 -0.00000000000E+00  0.00000000000E+00  0.14541974977E+04  0.14541974977E+04  0.00000000000E+00 0.  1.
          1   -1    0    0  501    0  0.00000000000E+00 -0.00000000000E+00 -0.28196346386E+04  0.28196346386E+04  0.00000000000E+00 0. -1.
        -24    2    1    2    0    0  0.96879482509E+03  0.15928360734E+04 -0.15967864477E+03  0.18729113335E+04  0.81298363638E+02 0.  0.
        254    2    1    2    0    0 -0.96879482509E+03 -0.15928360734E+04 -0.12057584962E+04  0.24009208028E+04  0.91371602832E+03 0.  0.
         23    2    4    4    0    0 -0.25536862419E+03 -0.12241841892E+03 -0.57315823564E+03  0.64548127610E+03  0.89085976511E+02 0.  0.
         23    2    4    4    0    0 -0.71342620090E+03 -0.14704176544E+04 -0.63260026056E+03  0.17554395267E+04  0.10138944515E+03 0.  0.
          3    1    3    3  502    0  0.13358529957E+03  0.21312531028E+03  0.60456657774E+01  0.25160282236E+03  0.00000000000E+00 0. -1.
         -4    1    3    3    0  502  0.83520952552E+03  0.13797107631E+04 -0.16572431055E+03  0.16213085112E+04  0.00000000000E+00 0.  1.
         11    1    5    5    0    0 -0.10321923425E+02  0.55993265743E+01 -0.34606485320E+01  0.12242166864E+02  0.00000000000E+00 0. -1.
        -11    1    5    5    0    0 -0.24504670076E+03 -0.12801774550E+03 -0.56969758710E+03  0.63323910924E+03  0.00000000000E+00 0.  1.
          4    1    6    6  503    0 -0.34752877264E+03 -0.66542124163E+03 -0.33920081822E+03  0.82378326744E+03  0.00000000000E+00 0. -1.
         -4    1    6    6    0  503 -0.36589742827E+03 -0.80499641281E+03 -0.29339944233E+03  0.93165625925E+03  0.00000000000E+00 0.  1.
<mgrwt>
<rscale>  0 0.40498423E+04</rscale>
<asrwt>0</asrwt>
<pdfrwt beam="1">  1        1 0.43378994E+00 0.40498423E+04</pdfrwt>
<pdfrwt beam="2">  1       -2 0.22372269E+00 0.40498423E+04</pdfrwt>
<totfact> 0.51822208E-02</totfact>
</mgrwt>
</event>
<event>
12    4  0.4320235E-008  0.1166579E+04  0.7818608E-02  0.9142624E-01
          1   -1    0    0  501    0  0.00000000000E+00  0.00000000000E+00  0.97812038229E+03  0.97812038229E+03  0.00000000000E+00 0. -1.
         -2   -1    0    0    0  501 -0.00000000000E+00 -0.00000000000E+00 -0.34783703013E+03  0.34783703013E+03  0.00000000000E+00 0.  1.
        -24    2    1    2    0    0 -0.17695638900E+03 -0.58777607431E+02  0.27886149320E+03  0.34491039454E+03  0.80193996849E+02 0.  0.
        254    2    1    2    0    0  0.17695638900E+03  0.58777607431E+02  0.35142185895E+03  0.98104701788E+03  0.89676505150E+03 0.  0.
         23    2    4    4    0    0  0.87803596878E+01  0.31498019971E+03 -0.17018803791E+03  0.36922114407E+03  0.89836874720E+02 0.  0.
         23    2    4    4    0    0  0.16817602931E+03 -0.25620259227E+03  0.52160989686E+03  0.61182587380E+03  0.91274696538E+02 0.  0.
          3    1    3    3  502    0 -0.17601567077E+03 -0.46105132012E+02  0.22395877241E+03  0.28855628791E+03  0.00000000000E+00 0. -1.
         -4    1    3    3    0  502 -0.94071823010E+00 -0.12672475419E+02  0.54902720788E+02  0.56354106629E+02  0.00000000000E+00 0.  1.
         11    1    5    5    0    0  0.28291837443E+01  0.62638648060E+02 -0.78962724932E+02  0.10083013657E+03  0.00000000000E+00 0. -1.
        -11    1    5    5    0    0  0.59511759436E+01  0.25234155165E+03 -0.91225312981E+02  0.26839100751E+03  0.00000000000E+00 0.  1.
          1    1    6    6  503    0  0.23546244175E+02 -0.66714040570E+02  0.19530320858E+03  0.20772224750E+03  0.00000000000E+00 0. -1.
         -1    1    6    6    0  503  0.14462978513E+03 -0.18948855170E+03  0.32630668828E+03  0.40410362630E+03  0.00000000000E+00 0.  1.
<mgrwt>
<rscale>  0 0.11665787E+04</rscale>
<asrwt>0</asrwt>
<pdfrwt beam="1">  1        1 0.15048006E+00 0.11665787E+04</pdfrwt>
<pdfrwt beam="2">  1       -2 0.53513390E-01 0.11665787E+04</pdfrwt>
<totfact> 0.45053727E+01</totfact>
</mgrwt>
</event>
<event>
12    4  0.4320235E-008  0.1961136E+04  0.7818608E-02  0.8625010E-01
          1   -1    0    0  501    0  0.00000000000E+00  0.00000000000E+00  0.49948360614E+03  0.49948360614E+03  0.00000000000E+00 0. -1.
         -2   -1    0    0    0  501 -0.00000000000E+00 -0.00000000000E+00 -0.19250144867E+04  0.19250144867E+04  0.00000000000E+00 0.  1.
        -24    2    1    2    0    0 -0.88565989391E+02 -0.12119177538E+03 -0.14878809780E+04  0.14975706834E+04  0.79979786166E+02 0.  0.
        254    2    1    2    0    0  0.88565989391E+02  0.12119177538E+03  0.62350097433E+02  0.92692740945E+03  0.91256534388E+03 0.  0.
         23    2    4    4    0    0 -0.33848585796E+03 -0.48511479168E+02  0.23758443973E+03  0.42640812155E+03  0.91931933875E+02 0.  0.
         23    2    4    4    0    0  0.42705184735E+03  0.16970325454E+03 -0.17523434230E+03  0.50051928790E+03  0.92951642872E+02 0.  0.
          1    1    3    3  502    0 -0.15798881587E+02  0.99805304809E+01 -0.11351597234E+03  0.11504386826E+03  0.00000000000E+00 0. -1.
         -2    1    3    3    0  502 -0.72767107804E+02 -0.13117230586E+03 -0.13743650057E+04  0.13825268152E+04  0.00000000000E+00 0.  1.
         11    1    5    5    0    0 -0.14271047270E+03  0.14613119521E+02  0.63300421842E+02  0.15680167628E+03  0.00000000000E+00 0.  1.
        -11    1    5    5    0    0 -0.19577538526E+03 -0.63124598688E+02  0.17428401789E+03  0.26960644526E+03  0.00000000000E+00 0. -1.
          2    1    6    6  503    0  0.38166269435E+03  0.17031161685E+03 -0.17964588738E+03  0.45491219366E+03  0.00000000000E+00 0. -1.
         -2    1    6    6    0  503  0.45389153002E+02 -0.60836230188E+00  0.44115450821E+01  0.45607094240E+02  0.00000000000E+00 0.  1.
<mgrwt>
<rscale>  0 0.19611356E+04</rscale>
<asrwt>0</asrwt>
<pdfrwt beam="1">  1        1 0.76843632E-01 0.19611356E+04</pdfrwt>
<pdfrwt beam="2">  1       -2 0.29615608E+00 0.19611356E+04</pdfrwt>
<totfact> 0.12145214E+00</totfact>
</mgrwt>
</event>
<event>
12    4  0.4320235E-008  0.1274854E+04  0.7818608E-02  0.9049748E-01
          1   -1    0    0  501    0  0.00000000000E+00  0.00000000000E+00  0.22487734520E+04  0.22487734520E+04  0.00000000000E+00 0. -1.
         -2   -1    0    0    0  501 -0.00000000000E+00 -0.00000000000E+00 -0.18068201390E+03  0.18068201390E+03  0.00000000000E+00 0.  1.
        -24    2    1    2    0    0 -0.14537307270E+03  0.36077455157E+02  0.41583298478E+01  0.17213718903E+03  0.84729021605E+02 0.  0.
        254    2    1    2    0    0  0.14537307270E+03 -0.36077455157E+02  0.20639331083E+04  0.22573182769E+04  0.90179322171E+03 0.  0.
         23    2    4    4    0    0  0.17011978107E+00  0.24555706386E+03  0.12432999758E+03  0.28987100699E+03  0.90933777235E+02 0.  0.
         23    2    4    4    0    0  0.14520295292E+03 -0.28163451902E+03  0.19396031107E+04  0.19674472699E+04  0.91578561775E+02 0.  0.
          1    1    3    3  502    0 -0.54737855843E+02  0.30016813511E+01  0.41421557143E+02  0.68709448763E+02  0.00000000000E+00 0. -1.
         -2    1    3    3    0  502 -0.90635216855E+02  0.33075773806E+02 -0.37263227295E+02  0.10342774026E+03  0.00000000000E+00 0.  1.
         11    1    5    5    0    0 -0.15090965083E+02  0.16311480018E+03  0.35290839023E+02  0.16756974245E+03  0.00000000000E+00 0. -1.
        -11    1    5    5    0    0  0.15261084864E+02  0.82442263682E+02  0.89039158557E+02  0.12230126454E+03  0.00000000000E+00 0.  1.
          3    1    6    6  503    0  0.52356247997E+02 -0.15919426109E+03  0.12324601243E+04  0.12438014100E+04  0.00000000000E+00 0. -1.
         -3    1    6    6    0  503  0.92846704920E+02 -0.12244025793E+03  0.70714298640E+03  0.72364585993E+03  0.00000000000E+00 0.  1.
<mgrwt>
<rscale>  0 0.12748536E+04</rscale>
<asrwt>0</asrwt>
<pdfrwt beam="1">  1        1 0.34596513E+00 0.12748536E+04</pdfrwt>
<pdfrwt beam="2">  1       -2 0.27797235E-01 0.12748536E+04</pdfrwt>
<totfact> 0.20661480E+01</totfact>
</mgrwt>
</event>
<event>
12    4  0.7354232E-008  0.1720448E+04  0.7818608E-02  0.8749788E-01
         -2   -1    0    0    0  501 -0.00000000000E+00  0.00000000000E+00  0.90744979469E+03  0.90744979469E+03  0.00000000000E+00 0.  1.
          1   -1    0    0  501    0  0.00000000000E+00 -0.00000000000E+00 -0.81545548145E+03  0.81545548145E+03  0.00000000000E+00 0. -1.
        -24    2    1    2    0    0 -0.19896649638E+03 -0.28772536635E+02 -0.55196429205E+03  0.59292989021E+03  0.80534150913E+02 0.  0.
        254    2    1    2    0    0  0.19896649638E+03  0.28772536635E+02  0.64395860529E+03  0.11299753859E+04  0.90650215771E+03 0.  0.
         23    2    4    4    0    0  0.30439930590E+02 -0.53204563492E+02  0.83803537734E+03  0.84515952476E+03  0.90741466134E+02 0.  0.
         23    2    4    4    0    0  0.16852656579E+03  0.81977100126E+02 -0.19407677205E+03  0.28481586117E+03  0.91284352424E+02 0.  0.
          1    1    3    3  502    0 -0.20104376666E+03 -0.38170693880E+02 -0.50307674248E+03  0.54310386373E+03  0.00000000000E+00 0. -1.
         -2    1    3    3    0  502  0.20772702733E+01  0.93981572458E+01 -0.48887549571E+02  0.49826026477E+02  0.00000000000E+00 0.  1.
         11    1    5    5    0    0  0.11217897299E+02  0.56443946549E+01  0.14020052628E+02  0.18821856617E+02  0.00000000000E+00 0. -1.
        -11    1    5    5    0    0  0.19222033291E+02 -0.58848958147E+02  0.82401532471E+03  0.82633766815E+03  0.00000000000E+00 0.  1.
          1    1    6    6  503    0  0.30523885685E+01 -0.13126699181E+02 -0.12953249510E+01  0.13539024119E+02  0.00000000000E+00 0. -1.
         -1    1    6    6    0  503  0.16547417723E+03  0.95103799308E+02 -0.19278144710E+03  0.27127683705E+03  0.00000000000E+00 0.  1.
<mgrwt>
<rscale>  0 0.17204475E+04</rscale>
<asrwt>0</asrwt>
<pdfrwt beam="1">  1        1 0.12545469E+00 0.17204475E+04</pdfrwt>
<pdfrwt beam="2">  1       -2 0.13960766E+00 0.17204475E+04</pdfrwt>
<totfact> 0.64525020E+00</totfact>
</mgrwt>
</event>
<event>
12    4  0.4320235E-008  0.2072697E+04  0.7818608E-02  0.8573367E-01
         -2   -1    0    0    0  501 -0.00000000000E+00  0.00000000000E+00  0.63197020555E+03  0.63197020555E+03  0.00000000000E+00 0.  1.
          1   -1    0    0  501    0  0.00000000000E+00 -0.00000000000E+00 -0.16994764646E+04  0.16994764646E+04  0.00000000000E+00 0. -1.
        -24    2    1    2    0    0 -0.57154457061E+03 -0.35774015402E+03 -0.10010535163E+04  0.12099951089E+04  0.85666838353E+02 0.  0.
        254    2    1    2    0    0  0.57154457061E+03  0.35774015402E+03 -0.66452742786E+02  0.11214515612E+04  0.89364222326E+03 0.  0.
         23    2    4    4    0    0  0.23591823164E+02  0.49506415306E+03  0.12390601343E+03  0.51844115182E+03  0.88223794847E+02 0.  0.
         23    2    4    4    0    0  0.54795274745E+03 -0.13732399904E+03 -0.19035875622E+03  0.60301040942E+03  0.90967047046E+02 0.  0.
          3    1    3    3  502    0 -0.40260728752E+03 -0.29188366854E+03 -0.76315214247E+03  0.91087315060E+03  0.00000000000E+00 0. -1.
         -4    1    3    3    0  502 -0.16893728309E+03 -0.65856485480E+02 -0.23790137381E+03  0.29912195834E+03  0.00000000000E+00 0.  1.
         11    1    5    5    0    0  0.34025069439E+02  0.29674380724E+03  0.11365865567E+03  0.31958235636E+03  0.00000000000E+00 0.  1.
        -11    1    5    5    0    0 -0.10433246275E+02  0.19832034582E+03  0.10247357756E+02  0.19885879547E+03  0.00000000000E+00 0. -1.
          1    1    6    6  503    0  0.27235684976E+03 -0.79126939650E+02 -0.14212735128E+03  0.31723730892E+03  0.00000000000E+00 0.  1.
         -1    1    6    6    0  503  0.27559589769E+03 -0.58197059390E+02 -0.48231404933E+02  0.28577310049E+03  0.00000000000E+00 0. -1.
<mgrwt>
<rscale>  0 0.20726973E+04</rscale>
<asrwt>0</asrwt>
<pdfrwt beam="1">  1        1 0.26145792E+00 0.20726973E+04</pdfrwt>
<pdfrwt beam="2">  1       -2 0.97226186E-01 0.20726973E+04</pdfrwt>
<totfact> 0.34079799E+00</totfact>
</mgrwt>
</event>
<event>
12    4  0.4320235E-008  0.3768579E+04  0.7818608E-02  0.8052932E-01
          1   -1    0    0  501    0  0.00000000000E+00  0.00000000000E+00  0.24396140775E+04  0.24396140775E+04  0.00000000000E+00 0. -1.
         -2   -1    0    0    0  501 -0.00000000000E+00 -0.00000000000E+00 -0.14553721392E+04  0.14553721392E+04  0.00000000000E+00 0.  1.
        -24    2    1    2    0    0 -0.15656978465E+04  0.52639053108E+03  0.11434227454E+04  0.20105453429E+04  0.79876551109E+02 0.  0.
        254    2    1    2    0    0  0.15656978465E+04 -0.52639053108E+03 -0.15918080705E+03  0.18844408739E+04  0.89290656848E+03 0.  0.
         23    2    4    4    0    0  0.52637422810E+03 -0.63211809885E+03 -0.11021495490E+03  0.83482834160E+03  0.90265745146E+02 0.  0.
         23    2    4    4    0    0  0.10393236184E+04  0.10572756777E+03 -0.48965852157E+02  0.10496125323E+04  0.88977024371E+02 0.  0.
          3    1    3    3  502    0 -0.11806219738E+04  0.38087889372E+03  0.89571692932E+03  0.15301130004E+04  0.00000000000E+00 0. -1.
         -4    1    3    3    0  502 -0.38507587273E+03  0.14551163736E+03  0.24770581605E+03  0.48043234245E+03  0.00000000000E+00 0.  1.
         11    1    5    5    0    0  0.72315042491E+02 -0.14096765574E+03 -0.13750333421E+02  0.15902961046E+03  0.00000000000E+00 0.  1.
        -11    1    5    5    0    0  0.45405918561E+03 -0.49115044312E+03 -0.96464621476E+02  0.67579873114E+03  0.00000000000E+00 0. -1.
          1    1    6    6  503    0  0.59720028339E+03  0.77601625563E+02  0.12506557743E+02  0.60235089836E+03  0.00000000000E+00 0. -1.
         -1    1    6    6    0  503  0.44212333501E+03  0.28125942212E+02 -0.61472409900E+02  0.44726163391E+03  0.00000000000E+00 0.  1.
<mgrwt>
<rscale>  0 0.37685787E+04</rscale>
<asrwt>0</asrwt>
<pdfrwt beam="1">  1        1 0.37532524E+00 0.37685787E+04</pdfrwt>
<pdfrwt beam="2">  1       -2 0.22390341E+00 0.37685787E+04</pdfrwt>
<totfact> 0.97766837E-02</totfact>
</mgrwt>
</event>
<event>
12    4  0.4320235E-008  0.1014646E+04  0.7818608E-02  0.9292626E-01
         -2   -1    0    0    0  501 -0.00000000000E+00  0.00000000000E+00  0.14292417188E+03  0.14292417188E+03  0.00000000000E+00 0.  1.
          1   -1    0    0  501    0  0.00000000000E+00 -0.00000000000E+00 -0.18007911710E+04  0.18007911710E+04  0.00000000000E+00 0. -1.
        -24    2    1    2    0    0  0.66227470836E+02 -0.25405228845E+02 -0.16185513858E+03  0.19425402825E+03  0.80660015274E+02 0.  0.
        254    2    1    2    0    0 -0.66227470836E+02  0.25405228845E+02 -0.14960118606E+04  0.17494613147E+04  0.90417470710E+03 0.  0.
         23    2    4    4    0    0  0.18177498274E+03  0.39327746036E+03 -0.87007862594E+03  0.97666870795E+03  0.95580566006E+02 0.  0.
         23    2    4    4    0    0 -0.24800245358E+03 -0.36787223152E+03 -0.62593323463E+03  0.77279260670E+03  0.92632624176E+02 0.  0.
          3    1    3    3  502    0  0.82537829878E+01 -0.44177817684E+02 -0.52877879296E+02  0.69396502994E+02  0.00000000000E+00 0. -1.
         -4    1    3    3    0  502  0.57973687848E+02  0.18772588838E+02 -0.10897725928E+03  0.12485752526E+03  0.00000000000E+00 0.  1.
         11    1    5    5    0    0  0.18929075096E+03  0.35618611727E+03 -0.82059714382E+03  0.91437367142E+03  0.00000000000E+00 0.  1.
        -11    1    5    5    0    0 -0.75157682183E+01  0.37091343090E+02 -0.49481482115E+02  0.62295036531E+02  0.00000000000E+00 0. -1.
          1    1    6    6  503    0  0.29644713628E+01 -0.21436130219E+02 -0.57023586449E+02  0.60991681242E+02  0.00000000000E+00 0. -1.
         -1    1    6    6    0  503 -0.25096692494E+03 -0.34643610130E+03 -0.56890964818E+03  0.71180092546E+03  0.00000000000E+00 0.  1.
<mgrwt>
<rscale>  0 0.10146459E+04</rscale>
<asrwt>0</asrwt>
<pdfrwt beam="1">  1        1 0.27704479E+00 0.10146459E+04</pdfrwt>
<pdfrwt beam="2">  1       -2 0.21988335E-01 0.10146459E+04</pdfrwt>
<totfact> 0.64806972E+01</totfact>
</mgrwt>
</event>
<event>
12    4  0.5041995E-008  0.2033829E+04  0.7818608E-02  0.8590966E-01
          1   -1    0    0  501    0  0.00000000000E+00  0.00000000000E+00  0.17189495408E+04  0.17189495408E+04  0.00000000000E+00 0. -1.
         -2   -1    0    0    0  501 -0.00000000000E+00 -0.00000000000E+00 -0.60159717545E+03  0.60159717545E+03  0.00000000000E+00 0.  1.
        -24    2    1    2    0    0  0.84322090486E+02  0.61773638727E+02  0.13663540590E+04  0.13724842126E+04  0.76572200423E+02 0.  0.
        254    2    1    2    0    0 -0.84322090486E+02 -0.61773638727E+02 -0.24900169364E+03  0.94806250366E+03  0.90878736238E+03 0.  0.
         23    2    4    4    0    0 -0.88308702315E+01 -0.99825207145E+02  0.32916487246E+03  0.35588238786E+03  0.90882916309E+02 0.  0.
         23    2    4    4    0    0 -0.75491220255E+02  0.38051568419E+02 -0.57816656610E+03  0.59218011581E+03  0.96197012465E+02 0.  0.
          3    1    3    3  502    0  0.77347478272E+02  0.14695822290E+02  0.69494936960E+03  0.69939489982E+03  0.00000000000E+00 0. -1.
         -4    1    3    3    0  502  0.69746122139E+01  0.47077816437E+02  0.67140468938E+03  0.67308931275E+03  0.00000000000E+00 0.  1.
         11    1    5    5    0    0  0.24443945659E+02 -0.71038643613E+02  0.11584777974E+03  0.13807499208E+03  0.00000000000E+00 0.  1.
        -11    1    5    5    0    0 -0.33274815890E+02 -0.28786563532E+02  0.21331709271E+03  0.21780739578E+03  0.00000000000E+00 0. -1.
          1    1    6    6  503    0 -0.58138006397E+02  0.33673075913E+02 -0.56725320459E+03  0.57121808615E+03  0.00000000000E+00 0. -1.
         -1    1    6    6    0  503 -0.17353213858E+02  0.43784925060E+01 -0.10913361509E+02  0.20962029655E+02  0.00000000000E+00 0.  1.
<mgrwt>
<rscale>  0 0.20338291E+04</rscale>
<asrwt>0</asrwt>
<pdfrwt beam="1">  1        1 0.26445377E+00 0.20338291E+04</pdfrwt>
<pdfrwt beam="2">  1       -2 0.92553412E-01 0.20338291E+04</pdfrwt>
<totfact> 0.37211061E+00</totfact>
</mgrwt>
</event>
<event>
12    4  0.4320235E-008  0.2129849E+04  0.7818608E-02  0.8548207E-01
         -2   -1    0    0    0  501 -0.00000000000E+00  0.00000000000E+00  0.37297418861E+03  0.37297418861E+03  0.00000000000E+00 0.  1.
          1   -1    0    0  501    0  0.00000000000E+00 -0.00000000000E+00 -0.30405977403E+04  0.30405977403E+04  0.00000000000E+00 0. -1.
        -24    2    1    2    0    0 -0.14147241514E+03  0.52612238882E+03 -0.20485726852E+04  0.21212757489E+04  0.79633810727E+02 0.  0.
        254    2    1    2    0    0  0.14147241514E+03 -0.52612238882E+03 -0.61905086644E+03  0.12922961800E+04  0.99498051710E+03 0.  0.
         23    2    4    4    0    0 -0.42220873655E+03 -0.20679196416E+03 -0.27348868135E+03  0.55106077817E+03  0.88593389962E+02 0.  0.
         23    2    4    4    0    0  0.56368115169E+03 -0.31933042466E+03 -0.34556218509E+03  0.74123540186E+03  0.10152997750E+03 0.  0.
          1    1    3    3  502    0 -0.10404617650E+03  0.27517220760E+03 -0.12035954831E+04  0.12390268107E+04  0.00000000000E+00 0. -1.
         -2    1    3    3    0  502 -0.37426238640E+02  0.25095018121E+03 -0.84497720209E+03  0.88224893813E+03  0.00000000000E+00 0.  1.
         11    1    5    5    0    0 -0.37579612271E+03 -0.19814462541E+03 -0.27073911014E+03  0.50376947524E+03  0.00000000000E+00 0.  1.
        -11    1    5    5    0    0 -0.46412613834E+02 -0.86473387518E+01 -0.27495712130E+01  0.47291302924E+02  0.00000000000E+00 0. -1.
          2    1    6    6  503    0  0.23438653859E+03 -0.10860233050E+03 -0.18909307152E+03  0.32013701029E+03  0.00000000000E+00 0. -1.
         -2    1    6    6    0  503  0.32929461310E+03 -0.21072809416E+03 -0.15646911357E+03  0.42109839157E+03  0.00000000000E+00 0.  1.
<mgrwt>
<rscale>  0 0.21298493E+04</rscale>
<asrwt>0</asrwt>
<pdfrwt beam="1">  1        1 0.46778429E+00 0.21298493E+04</pdfrwt>
<pdfrwt beam="2">  1       -2 0.57380642E-01 0.21298493E+04</pdfrwt>
<totfact> 0.12820371E+00</totfact>
</mgrwt>
</event>
<event>
12    4  0.4320235E-008  0.1699463E+04  0.7818608E-02  0.8761671E-01
          1   -1    0    0  501    0  0.00000000000E+00  0.00000000000E+00  0.88921368845E+03  0.88921368845E+03  0.00000000000E+00 0. -1.
         -2   -1    0    0    0  501 -0.00000000000E+00 -0.00000000000E+00 -0.81200215543E+03  0.81200215543E+03  0.00000000000E+00 0.  1.
        -24    2    1    2    0    0 -0.87903713074E+02  0.71270902048E+02 -0.57363590406E+03  0.59025254763E+03  0.80828926143E+02 0.  0.
        254    2    1    2    0    0  0.87903713074E+02 -0.71270902048E+02  0.65084743708E+03  0.11109632963E+04  0.89321355511E+03 0.  0.
         23    2    4    4    0    0 -0.30040214609E+03 -0.11133259075E+03  0.62766056354E+03  0.71051278551E+03  0.90742714357E+02 0.  0.
         23    2    4    4    0    0  0.38830585917E+03  0.40061688705E+02  0.23186873539E+02  0.40045051075E+03  0.86235730949E+02 0.  0.
          1    1    3    3  502    0 -0.12904469290E+02 -0.11358262237E+02 -0.18832424039E+03  0.18910725784E+03  0.00000000000E+00 0. -1.
         -2    1    3    3    0  502 -0.74999243784E+02  0.82629164285E+02 -0.38531166367E+03  0.40114528978E+03  0.00000000000E+00 0.  1.
         11    1    5    5    0    0 -0.30420303462E+03 -0.11689268957E+03  0.61895523476E+03  0.69950623284E+03  0.00000000000E+00 0.  1.
        -11    1    5    5    0    0  0.38008885262E+01  0.55600988194E+01  0.87053287738E+01  0.11006552663E+02  0.00000000000E+00 0. -1.
          1    1    6    6  503    0  0.95784794316E+02  0.18164234239E+02  0.42763741324E+02  0.10645846044E+03  0.00000000000E+00 0. -1.
         -1    1    6    6    0  503  0.29252106485E+03  0.21897454466E+02 -0.19576867786E+02  0.29399205031E+03  0.00000000000E+00 0.  1.
<mgrwt>
<rscale>  0 0.16994628E+04</rscale>
<asrwt>0</asrwt>
<pdfrwt beam="1">  1        1 0.13680211E+00 0.16994628E+04</pdfrwt>
<pdfrwt beam="2">  1       -2 0.12492341E+00 0.16994628E+04</pdfrwt>
<totfact> 0.74369447E+00</totfact>
</mgrwt>
</event>
<event>
12    4  0.4320235E-008  0.1778099E+04  0.7818608E-02  0.8718034E-01
          1   -1    0    0  501    0  0.00000000000E+00  0.00000000000E+00  0.13326449854E+04  0.13326449854E+04  0.00000000000E+00 0. -1.
         -2   -1    0    0    0  501 -0.00000000000E+00 -0.00000000000E+00 -0.59311267098E+03  0.59311267098E+03  0.00000000000E+00 0.  1.
        -24    2    1    2    0    0  0.32176356175E+03 -0.51888064454E+02 -0.34734974437E+03  0.48408540369E+03  0.86386759693E+02 0.  0.
        254    2    1    2    0    0 -0.32176356175E+03  0.51888064454E+02  0.10868820587E+04  0.14416722526E+04  0.88931553090E+03 0.  0.
         23    2    4    4    0    0  0.21519804300E+03  0.22453807702E+03  0.18238874198E+03  0.37193196126E+03  0.91324612565E+02 0.  0.
         23    2    4    4    0    0 -0.53696160475E+03 -0.17265001257E+03  0.90449331676E+03  0.10697402914E+04  0.90001883903E+02 0.  0.
          3    1    3    3  502    0  0.14892185789E+02 -0.16917669630E+02 -0.52287344650E+02  0.56938134443E+02  0.00000000000E+00 0. -1.
         -4    1    3    3    0  502  0.30687137596E+03 -0.34970394824E+02 -0.29506239972E+03  0.42714726925E+03  0.00000000000E+00 0.  1.
         11    1    5    5    0    0  0.50504229597E+02  0.12932208959E+02  0.52491684400E+02  0.73981728602E+02  0.00000000000E+00 0. -1.
        -11    1    5    5    0    0  0.16469381341E+03  0.21160586806E+03  0.12989705758E+03  0.29795023266E+03  0.00000000000E+00 0.  1.
          2    1    6    6  503    0 -0.49481251703E+03 -0.17634056593E+03  0.80043180838E+03  0.95740613224E+03  0.00000000000E+00 0.  1.
         -2    1    6    6    0  503 -0.42149087725E+02  0.36905533583E+01  0.10406150839E+03  0.11233415913E+03  0.00000000000E+00 0. -1.
<mgrwt>
<rscale>  0 0.17780986E+04</rscale>
<asrwt>0</asrwt>
<pdfrwt beam="1">  1        1 0.20502230E+00 0.17780986E+04</pdfrwt>
<pdfrwt beam="2">  1       -2 0.91248104E-01 0.17780986E+04</pdfrwt>
<totfact> 0.72792416E+00</totfact>
</mgrwt>
</event>
<event>
12    4  0.4320235E-008  0.1364442E+04  0.7818608E-02  0.8979967E-01
          1   -1    0    0  501    0  0.00000000000E+00  0.00000000000E+00  0.69724802469E+03  0.69724802469E+03  0.00000000000E+00 0. -1.
         -2   -1    0    0    0  501 -0.00000000000E+00 -0.00000000000E+00 -0.66751747201E+03  0.66751747201E+03  0.00000000000E+00 0.  1.
        -24    2    1    2    0    0  0.34001774536E+01  0.21256519732E+03  0.32192932077E+03  0.39377839481E+03  0.78913955200E+02 0.  0.
        254    2    1    2    0    0 -0.34001774536E+01 -0.21256519732E+03 -0.29219876809E+03  0.97098710189E+03  0.90124375596E+03 0.  0.
         23    2    4    4    0    0  0.24789424532E+03  0.21357424139E+03  0.75373733774E+02  0.34803544501E+03  0.91553032653E+02 0.  0.
         23    2    4    4    0    0 -0.25129442278E+03 -0.42613943871E+03 -0.36757250186E+03  0.62295165688E+03  0.90639475657E+02 0.  0.
          3    1    3    3  502    0  0.28946073610E+02  0.15292337848E+03  0.26566465193E+03  0.30789794113E+03  0.00000000000E+00 0. -1.
         -4    1    3    3    0  502 -0.25545896156E+02  0.59641818832E+02  0.56264668838E+02  0.85880453675E+02  0.00000000000E+00 0.  1.
         11    1    5    5    0    0  0.10842413407E+03  0.61181822538E+02 -0.91534043138E+01  0.12483105811E+03  0.00000000000E+00 0. -1.
        -11    1    5    5    0    0  0.13947011125E+03  0.15239241886E+03  0.84527138088E+02  0.22320438690E+03  0.00000000000E+00 0.  1.
          4    1    6    6  503    0 -0.39853058760E+02 -0.29050936224E+02 -0.15524118689E+02  0.51703205404E+02  0.00000000000E+00 0. -1.
         -4    1    6    6    0  503 -0.21144136402E+03 -0.39708850249E+03 -0.35204838317E+03  0.57124845148E+03  0.00000000000E+00 0.  1.
<mgrwt>
<rscale>  0 0.13644416E+04</rscale>
<asrwt>0</asrwt>
<pdfrwt beam="1">  1        1 0.10726893E+00 0.13644416E+04</pdfrwt>
<pdfrwt beam="2">  1       -2 0.10269500E+00 0.13644416E+04</pdfrwt>
<totfact> 0.18191876E+01</totfact>
</mgrwt>
</event>
<event>
12    4  0.4320235E-008  0.1277175E+04  0.7818608E-02  0.9047864E-01
          1   -1    0    0  501    0  0.00000000000E+00  0.00000000000E+00  0.18060698472E+04  0.18060698472E+04  0.00000000000E+00 0. -1.
         -2   -1    0    0    0  501 -0.00000000000E+00 -0.00000000000E+00 -0.22579070927E+03  0.22579070927E+03  0.00000000000E+00 0.  1.
        -24    2    1    2    0    0  0.32793604850E+03  0.10862823946E+01  0.36836698737E+03  0.49949892936E+03  0.79130974570E+02 0.  0.
        254    2    1    2    0    0 -0.32793604850E+03 -0.10862823946E+01  0.12119121506E+04  0.15323616271E+04  0.87855441699E+03 0.  0.
         23    2    4    4    0    0 -0.19365129431E+03 -0.24913345188E+03  0.11899381614E+04  0.12343362240E+04  0.89804149006E+02 0.  0.
         23    2    4    4    0    0 -0.13428475419E+03  0.24804716949E+03  0.21973989146E+02  0.29802540312E+03  0.93682929114E+02 0.  0.
          3    1    3    3  502    0  0.20927341566E+02  0.18147700754E+02  0.48204074111E+02  0.55596091846E+02  0.00000000000E+00 0. -1.
         -4    1    3    3    0  502  0.30700870694E+03 -0.17061418359E+02  0.32016291325E+03  0.44390283752E+03  0.00000000000E+00 0.  1.
         11    1    5    5    0    0 -0.98884038951E+02 -0.71246737476E+02  0.35216160262E+03  0.37265526311E+03  0.00000000000E+00 0.  1.
        -11    1    5    5    0    0 -0.94767255363E+02 -0.17788671441E+03  0.83777655882E+03  0.86168096089E+03  0.00000000000E+00 0. -1.
          1    1    6    6  503    0 -0.12360231449E+03  0.23943314650E+03 -0.30655918560E+01  0.26947200531E+03  0.00000000000E+00 0. -1.
         -1    1    6    6    0  503 -0.10682439704E+02  0.86140229859E+01  0.25039581002E+02  0.28553397815E+02  0.00000000000E+00 0.  1.
<mgrwt>
<rscale>  0 0.12771747E+04</rscale>
<asrwt>0</asrwt>
<pdfrwt beam="1">  1        1 0.27785689E+00 0.12771747E+04</pdfrwt>
<pdfrwt beam="2">  1       -2 0.34737033E-01 0.12771747E+04</pdfrwt>
<totfact> 0.27110487E+01</totfact>
</mgrwt>
</event>
<event>
12    4  0.4320235E-008  0.2398700E+04  0.7818608E-02  0.8439990E-01
          1   -1    0    0  501    0  0.00000000000E+00  0.00000000000E+00  0.74441626624E+03  0.74441626624E+03  0.00000000000E+00 0. -1.
         -2   -1    0    0    0  501 -0.00000000000E+00 -0.00000000000E+00 -0.19323070232E+04  0.19323070232E+04  0.00000000000E+00 0.  1.
        -24    2    1    2    0    0 -0.45054591681E+03  0.92495850482E+03 -0.45499102454E+03  0.11279260899E+04  0.81612333748E+02 0.  0.
        254    2    1    2    0    0  0.45054591681E+03 -0.92495850482E+03 -0.73289973244E+03  0.15487971996E+04  0.89615338466E+03 0.  0.
         23    2    4    4    0    0  0.65824987946E+03 -0.87252820170E+03 -0.45547957842E+03  0.11875312587E+04  0.90390693405E+02 0.  0.
         23    2    4    4    0    0 -0.20770396265E+03 -0.52430303118E+02 -0.27742015403E+03  0.36126594089E+03  0.87528654743E+02 0.  0.
          1    1    3    3  502    0 -0.19184678627E+02  0.89940087607E+02 -0.47956915576E+02  0.10371661875E+03  0.00000000000E+00 0. -1.
         -2    1    3    3    0  502 -0.43136123819E+03  0.83501841721E+03 -0.40703410896E+03  0.10242094711E+04  0.00000000000E+00 0.  1.
         11    1    5    5    0    0  0.27326557831E+03 -0.29659657008E+03 -0.18755874791E+03  0.44477172302E+03  0.00000000000E+00 0.  1.
        -11    1    5    5    0    0  0.38498430115E+03 -0.57593163161E+03 -0.26792083050E+03  0.74275953568E+03  0.00000000000E+00 0. -1.
          2    1    6    6  503    0 -0.71342608154E+02  0.20997949234E+02 -0.67778787848E+02  0.10062129840E+03  0.00000000000E+00 0. -1.
         -2    1    6    6    0  503 -0.13636135450E+03 -0.73428252352E+02 -0.20964136618E+03  0.26064464249E+03  0.00000000000E+00 0.  1.
<mgrwt>
<rscale>  0 0.23987003E+04</rscale>
<asrwt>0</asrwt>
<pdfrwt beam="1">  1        1 0.11452558E+00 0.23987003E+04</pdfrwt>
<pdfrwt beam="2">  1       -2 0.29727801E+00 0.23987003E+04</pdfrwt>
<totfact> 0.64308342E-01</totfact>
</mgrwt>
</event>
<event>
12    4  0.4320235E-008  0.1729617E+04  0.7818608E-02  0.8744650E-01
         -2   -1    0    0    0  501 -0.00000000000E+00  0.00000000000E+00  0.47883003188E+03  0.47883003188E+03  0.00000000000E+00 0.  1.
          1   -1    0    0  501    0  0.00000000000E+00 -0.00000000000E+00 -0.15619199191E+04  0.15619199191E+04  0.00000000000E+00 0. -1.
        -24    2    1    2    0    0  0.15924059733E+03 -0.53011026401E+03 -0.74447244878E+03  0.93112136284E+03  0.79832985030E+02 0.  0.
        254    2    1    2    0    0 -0.15924059733E+03  0.53011026401E+03 -0.33861743839E+03  0.11096285881E+04  0.90013297577E+03 0.  0.
         23    2    4    4    0    0 -0.18654183222E+03  0.12468933117E+03 -0.57911175701E+03  0.62782896471E+03  0.91942902659E+02 0.  0.
         23    2    4    4    0    0  0.27301234890E+02  0.40542093284E+03  0.24049431862E+03  0.48179962337E+03  0.95822072524E+02 0.  0.
          3    1    3    3  502    0  0.79995243187E+02 -0.34242958132E+03 -0.52270558354E+03  0.62998284434E+03  0.00000000000E+00 0. -1.
         -2    1    3    3    0  502  0.79245354142E+02 -0.18768068269E+03 -0.22176686525E+03  0.30113851851E+03  0.00000000000E+00 0.  1.
         11    1    5    5    0    0 -0.13755970379E+03  0.99112095189E+02 -0.51985966155E+03  0.54680887632E+03  0.00000000000E+00 0. -1.
        -11    1    5    5    0    0 -0.48982128433E+02  0.25577235985E+02 -0.59252095461E+02  0.81020088391E+02  0.00000000000E+00 0.  1.
          4    1    6    6  503    0 -0.21983114731E+02  0.61106594330E+02  0.13123676483E+02  0.66253332659E+02  0.00000000000E+00 0.  1.
         -4    1    6    6    0  503  0.49284349622E+02  0.34431433851E+03  0.22737064214E+03  0.41554629071E+03  0.00000000000E+00 0. -1.
<mgrwt>
<rscale>  0 0.17296175E+04</rscale>
<asrwt>0</asrwt>
<pdfrwt beam="1">  1        1 0.24029538E+00 0.17296175E+04</pdfrwt>
<pdfrwt beam="2">  1       -2 0.73666157E-01 0.17296175E+04</pdfrwt>
<totfact> 0.82044557E+00</totfact>
</mgrwt>
</event>
<event>
12    4  0.4320235E-008  0.1762758E+04  0.7818608E-02  0.8726359E-01
          1   -1    0    0  501    0  0.00000000000E+00  0.00000000000E+00  0.34015599613E+04  0.34015599613E+04  0.00000000000E+00 0. -1.
         -2   -1    0    0    0  501 -0.00000000000E+00 -0.00000000000E+00 -0.22837422766E+03  0.22837422766E+03  0.00000000000E+00 0.  1.
        -24    2    1    2    0    0 -0.46785470730E+02 -0.29223383984E+03 -0.13155532837E+02  0.30703637810E+03  0.80676960874E+02 0.  0.
        254    2    1    2    0    0  0.46785470730E+02  0.29223383984E+03  0.31863412665E+04  0.33228978109E+04  0.89514786349E+03 0.  0.
         23    2    4    4    0    0  0.57175167380E+02 -0.17395246730E+03  0.23670410488E+04  0.23758887496E+04  0.91845321470E+02 0.  0.
         23    2    4    4    0    0 -0.10389696650E+02  0.46618630714E+03  0.81930021769E+03  0.94700906128E+03  0.90198096824E+02 0.  0.
          1    1    3    3  502    0 -0.11684499908E+02 -0.17629414682E+02  0.18879094693E+02  0.28350379478E+02  0.00000000000E+00 0. -1.
         -2    1    3    3    0  502 -0.35100970822E+02 -0.27460442516E+03 -0.32034627529E+02  0.27868599863E+03  0.00000000000E+00 0.  1.
         11    1    5    5    0    0  0.73084348560E+02 -0.11757366614E+03  0.19268761440E+04  0.19318427895E+04  0.00000000000E+00 0. -1.
        -11    1    5    5    0    0 -0.15909181180E+02 -0.56378801162E+02  0.44016490481E+03  0.44404596011E+03  0.00000000000E+00 0.  1.
          2    1    6    6  503    0 -0.47022328832E+02  0.30016166567E+03  0.55576453324E+03  0.63338956524E+03  0.00000000000E+00 0. -1.
         -2    1    6    6    0  503  0.36632632182E+02  0.16602464147E+03  0.26353568445E+03  0.31361949604E+03  0.00000000000E+00 0.  1.
<mgrwt>
<rscale>  0 0.17627576E+04</rscale>
<asrwt>0</asrwt>
<pdfrwt beam="1">  1        1 0.52331688E+00 0.17627576E+04</pdfrwt>
<pdfrwt beam="2">  1       -2 0.35134499E-01 0.17627576E+04</pdfrwt>
<totfact> 0.18983708E+00</totfact>
</mgrwt>
</event>
<event>
12    4  0.4320235E-008  0.1381162E+04  0.7818608E-02  0.8967569E-01
         -2   -1    0    0    0  501 -0.00000000000E+00  0.00000000000E+00  0.51114932678E+03  0.51114932678E+03  0.00000000000E+00 0.  1.
          1   -1    0    0  501    0  0.00000000000E+00 -0.00000000000E+00 -0.93299905723E+03  0.93299905723E+03  0.00000000000E+00 0. -1.
        -24    2    1    2    0    0  0.13764228812E+03  0.25346370188E+03  0.15938839634E+03  0.33879686269E+03  0.78672775647E+02 0.  0.
        254    2    1    2    0    0 -0.13764228812E+03 -0.25346370188E+03 -0.58123812679E+03  0.11053515213E+04  0.89486031201E+03 0.  0.
         23    2    4    4    0    0  0.24674473741E+03 -0.42222738181E+03 -0.22144384704E+03  0.54449330567E+03  0.90976124021E+02 0.  0.
         23    2    4    4    0    0 -0.38438702553E+03  0.16876367993E+03 -0.35979427975E+03  0.56085821565E+03  0.94209602861E+02 0.  0.
          1    1    3    3  502    0 -0.88719387715E-01  0.65114956958E+01  0.24792570859E+02  0.25633552566E+02  0.00000000000E+00 0. -1.
         -2    1    3    3    0  502  0.13773100750E+03  0.24695220619E+03  0.13459582548E+03  0.31316331012E+03  0.00000000000E+00 0.  1.
         11    1    5    5    0    0  0.24821156698E+03 -0.37240958700E+03 -0.19708738828E+03  0.48902077777E+03  0.00000000000E+00 0. -1.
        -11    1    5    5    0    0 -0.14668295692E+01 -0.49817794809E+02 -0.24356458759E+02  0.55472527902E+02  0.00000000000E+00 0.  1.
          4    1    6    6  503    0 -0.79396028116E+01  0.26939726256E+00 -0.34992140061E+02  0.35882582596E+02  0.00000000000E+00 0.  1.
         -4    1    6    6    0  503 -0.37644742271E+03  0.16849428266E+03 -0.32480213969E+03  0.52497563306E+03  0.00000000000E+00 0. -1.
<mgrwt>
<rscale>  0 0.13811616E+04</rscale>
<asrwt>0</asrwt>
<pdfrwt beam="1">  1        1 0.14353832E+00 0.13811616E+04</pdfrwt>
<pdfrwt beam="2">  1       -2 0.78638359E-01 0.13811616E+04</pdfrwt>
<totfact> 0.21034393E+01</totfact>
</mgrwt>
</event>
<event>
12    4  0.4320235E-008  0.1448039E+04  0.7818608E-02  0.8919761E-01
         -2   -1    0    0    0  501 -0.00000000000E+00  0.00000000000E+00  0.26427000121E+03  0.26427000121E+03  0.00000000000E+00 0.  1.
          1   -1    0    0  501    0  0.00000000000E+00 -0.00000000000E+00 -0.19835926626E+04  0.19835926626E+04  0.00000000000E+00 0. -1.
        -24    2    1    2    0    0 -0.94372880118E+02  0.20561514000E+03 -0.92701576360E+03  0.95748753963E+03  0.78995799270E+02 0.  0.
        254    2    1    2    0    0  0.94372880118E+02 -0.20561514000E+03 -0.79230689775E+03  0.12903751241E+04  0.99304275560E+03 0.  0.
         23    2    4    4    0    0 -0.14746334476E+03 -0.22206582681E+03 -0.94736620070E+03  0.98859652349E+03  0.93603945156E+02 0.  0.
         23    2    4    4    0    0  0.24183622488E+03  0.16450686811E+02  0.15505930295E+03  0.30177860064E+03  0.90948070974E+02 0.  0.
          1    1    3    3  502    0 -0.38056057692E+02  0.16695918725E+03 -0.67403653722E+03  0.69544869490E+03  0.00000000000E+00 0. -1.
         -2    1    3    3    0  502 -0.56316822426E+02  0.38655952753E+02 -0.25297922638E+03  0.26203884473E+03  0.00000000000E+00 0.  1.
         11    1    5    5    0    0 -0.61919867805E+02 -0.52570252753E+02 -0.42745283039E+03  0.43510185442E+03  0.00000000000E+00 0. -1.
        -11    1    5    5    0    0 -0.85543476954E+02 -0.16949557406E+03 -0.51991337030E+03  0.55349466908E+03  0.00000000000E+00 0.  1.
          4    1    6    6  503    0  0.18371154160E+03 -0.25448358550E+02  0.95523164628E+02  0.20861980838E+03  0.00000000000E+00 0. -1.
         -4    1    6    6    0  503  0.58124683276E+02  0.41899045361E+02  0.59536138322E+02  0.93158792255E+02  0.00000000000E+00 0.  1.
<mgrwt>
<rscale>  0 0.14480387E+04</rscale>
<asrwt>0</asrwt>
<pdfrwt beam="1">  1        1 0.30516810E+00 0.14480387E+04</pdfrwt>
<pdfrwt beam="2">  1       -2 0.40656924E-01 0.14480387E+04</pdfrwt>
<totfact> 0.14945157E+01</totfact>
</mgrwt>
</event>
<event>
12    4  0.4320235E-008  0.1622114E+04  0.7818608E-02  0.8807077E-01
          1   -1    0    0  501    0  0.00000000000E+00  0.00000000000E+00  0.14655050795E+04  0.14655050795E+04  0.00000000000E+00 0. -1.
         -2   -1    0    0    0  501 -0.00000000000E+00 -0.00000000000E+00 -0.44886444579E+03  0.44886444579E+03  0.00000000000E+00 0.  1.
        -24    2    1    2    0    0 -0.31729280523E+03  0.87838638072E+02  0.76080453632E+03  0.83280937710E+03  0.79734343362E+02 0.  0.
        254    2    1    2    0    0  0.31729280523E+03 -0.87838638072E+02  0.25583609736E+03  0.10815601482E+04  0.99796287244E+03 0.  0.
         23    2    4    4    0    0  0.69669827770E+02  0.44134225162E+03  0.14598978623E+03  0.47893895143E+03  0.91829371919E+02 0.  0.
         23    2    4    4    0    0  0.24762297746E+03 -0.52918088969E+03  0.10984631112E+03  0.60262119672E+03  0.98673915957E+02 0.  0.
          3    1    3    3  502    0 -0.20112166072E+03  0.68523984789E+02  0.57310910814E+03  0.61122786973E+03  0.00000000000E+00 0. -1.
         -4    1    3    3    0  502 -0.11617114451E+03  0.19314653283E+02  0.18769542818E+03  0.22158150737E+03  0.00000000000E+00 0.  1.
         11    1    5    5    0    0  0.68824597823E+02  0.21863719207E+03  0.10654362308E+03  0.25276588109E+03  0.00000000000E+00 0.  1.
        -11    1    5    5    0    0  0.84522994766E+00  0.22270505955E+03  0.39446163156E+02  0.22617307034E+03  0.00000000000E+00 0. -1.
          1    1    6    6  503    0  0.23775758023E+03 -0.46443347550E+03  0.71240231921E+02  0.52659499691E+03  0.00000000000E+00 0. -1.
         -1    1    6    6    0  503  0.98653972284E+01 -0.64747414191E+02  0.38606079204E+02  0.76026199815E+02  0.00000000000E+00 0.  1.
<mgrwt>
<rscale>  0 0.16221136E+04</rscale>
<asrwt>0</asrwt>
<pdfrwt beam="1">  1        1 0.22546232E+00 0.16221136E+04</pdfrwt>
<pdfrwt beam="2">  1       -2 0.69056069E-01 0.16221136E+04</pdfrwt>
<totfact> 0.11124887E+01</totfact>
</mgrwt>
</event>
<event>
12    4  0.4320235E-008  0.1887717E+04  0.7818608E-02  0.8660995E-01
         -2   -1    0    0    0  501 -0.00000000000E+00  0.00000000000E+00  0.98399159814E+03  0.98399159814E+03  0.00000000000E+00 0.  1.
          1   -1    0    0  501    0  0.00000000000E+00 -0.00000000000E+00 -0.90536207325E+03  0.90536207325E+03  0.00000000000E+00 0. -1.
        -24    2    1    2    0    0  0.20870824411E+03 -0.12130417930E+03 -0.64252274464E+03  0.69153878349E+03  0.84359804531E+02 0.  0.
        254    2    1    2    0    0 -0.20870824411E+03  0.12130417930E+03  0.72115226953E+03  0.11978148879E+04  0.92543291208E+03 0.  0.
         23    2    4    4    0    0 -0.27826271411E+03  0.40007342679E+03  0.97501177270E+02  0.50507833459E+03  0.90048651357E+02 0.  0.
         23    2    4    4    0    0  0.69554470001E+02 -0.27876924750E+03  0.62365109226E+03  0.69273655332E+03  0.91614026125E+02 0.  0.
          1    1    3    3  502    0  0.13798502275E+03 -0.31773582939E+02 -0.36063726599E+03  0.38743859475E+03  0.00000000000E+00 0. -1.
         -2    1    3    3    0  502  0.70723221360E+02 -0.89530596357E+02 -0.28188547864E+03  0.30410018874E+03  0.00000000000E+00 0.  1.
         11    1    5    5    0    0 -0.14785793036E+03  0.28575204708E+03  0.53434659291E+02  0.32614638246E+03  0.00000000000E+00 0. -1.
        -11    1    5    5    0    0 -0.13040478375E+03  0.11432137971E+03  0.44066517978E+02  0.17893195212E+03  0.00000000000E+00 0.  1.
          1    1    6    6  503    0 -0.16503524984E+02 -0.87259573074E+02  0.14456199775E+03  0.16966075157E+03  0.00000000000E+00 0. -1.
         -1    1    6    6    0  503  0.86057994985E+02 -0.19150967442E+03  0.47908909451E+03  0.52307580175E+03  0.00000000000E+00 0.  1.
<mgrwt>
<rscale>  0 0.18877168E+04</rscale>
<asrwt>0</asrwt>
<pdfrwt beam="1">  1        1 0.13928647E+00 0.18877168E+04</pdfrwt>
<pdfrwt beam="2">  1       -2 0.15138332E+00 0.18877168E+04</pdfrwt>
<totfact> 0.43222432E+00</totfact>
</mgrwt>
</event>
<event>
12    4  0.4320235E-008  0.1512202E+04  0.7818608E-02  0.8876379E-01
         -2   -1    0    0    0  501 -0.00000000000E+00  0.00000000000E+00  0.95304673089E+03  0.95304673089E+03  0.00000000000E+00 0.  1.
          1   -1    0    0  501    0  0.00000000000E+00 -0.00000000000E+00 -0.59985359150E+03  0.59985359150E+03  0.00000000000E+00 0. -1.
        -24    2    1    2    0    0  0.25658788125E+03  0.35597571151E+03  0.31731120404E+03  0.54753488723E+03  0.80944453405E+02 0.  0.
        254    2    1    2    0    0 -0.25658788125E+03 -0.35597571151E+03  0.35881935349E+02  0.10053654352E+04  0.90383410919E+03 0.  0.
         23    2    4    4    0    0  0.18974608056E+03  0.12631381259E+03  0.20561843236E+03  0.32051853466E+03  0.92165270014E+02 0.  0.
         23    2    4    4    0    0 -0.44633396180E+03 -0.48228952410E+03 -0.16973649701E+03  0.68484690049E+03  0.91583886019E+02 0.  0.
          3    1    3    3  502    0  0.65149586994E+02  0.13894748481E+03  0.78763799624E+02  0.17249524153E+03  0.00000000000E+00 0. -1.
         -4    1    3    3    0  502  0.19143829425E+03  0.21702822670E+03  0.23854740442E+03  0.37503964570E+03  0.00000000000E+00 0.  1.
         11    1    5    5    0    0  0.18972345631E+03  0.11447017918E+03  0.21234166588E+03  0.30689964950E+03  0.00000000000E+00 0.  1.
        -11    1    5    5    0    0  0.22624249731E-01  0.11843633410E+02 -0.67232335146E+01  0.13618885163E+02  0.00000000000E+00 0. -1.
          1    1    6    6  503    0 -0.31339405584E+02 -0.75184171272E+01 -0.17459123049E+01  0.32275891130E+02  0.00000000000E+00 0. -1.
         -1    1    6    6    0  503 -0.41499455622E+03 -0.47477110697E+03 -0.16799058471E+03  0.65257100936E+03  0.00000000000E+00 0.  1.
<mgrwt>
<rscale>  0 0.15122017E+04</rscale>
<asrwt>0</asrwt>
<pdfrwt beam="1">  1        1 0.92285168E-01 0.15122017E+04</pdfrwt>
<pdfrwt beam="2">  1       -2 0.14662257E+00 0.15122017E+04</pdfrwt>
<totfact> 0.92143533E+00</totfact>
</mgrwt>
</event>
<event>
12    4  0.4320235E-008  0.1103316E+04  0.7818608E-02  0.9201966E-01
          1   -1    0    0  501    0  0.00000000000E+00  0.00000000000E+00  0.14673811803E+04  0.14673811803E+04  0.00000000000E+00 0. -1.
         -2   -1    0    0    0  501 -0.00000000000E+00 -0.00000000000E+00 -0.20739431140E+03  0.20739431140E+03  0.00000000000E+00 0.  1.
        -24    2    1    2    0    0 -0.89655301346E+01  0.98828226365E+01  0.43978017588E+03  0.44667151803E+03  0.77011629065E+02 0.  0.
        254    2    1    2    0    0  0.89655301346E+01 -0.98828226365E+01  0.82020669305E+03  0.12281039737E+04  0.91395968180E+03 0.  0.
         23    2    4    4    0    0 -0.14650066306E+03  0.41745839732E+03  0.41677426523E+03  0.61424496433E+03  0.88668654421E+02 0.  0.
         23    2    4    4    0    0  0.15546619320E+03 -0.42734121996E+03  0.40343242782E+03  0.61385900936E+03  0.85293048091E+02 0.  0.
          3    1    3    3  502    0 -0.32913960808E+02 -0.16030917240E+02  0.31090809470E+03  0.31305616505E+03  0.00000000000E+00 0. -1.
         -4    1    3    3    0  502  0.23948430674E+02  0.25913739877E+02  0.12887208118E+03  0.13361535299E+03  0.00000000000E+00 0.  1.
         11    1    5    5    0    0 -0.16237618434E+02  0.25476485100E+02  0.43201855373E+01  0.30518446037E+02  0.00000000000E+00 0. -1.
        -11    1    5    5    0    0 -0.13026304463E+03  0.39198191222E+03  0.41245407969E+03  0.58372651830E+03  0.00000000000E+00 0.  1.
          2    1    6    6  503    0 -0.34022568240E+01 -0.10005472550E+01  0.15646681507E+02  0.16043537281E+02  0.00000000000E+00 0. -1.
         -2    1    6    6    0  503  0.15886845002E+03 -0.42634067270E+03  0.38778574631E+03  0.59781547208E+03  0.00000000000E+00 0.  1.
<mgrwt>
<rscale>  0 0.11033159E+04</rscale>
<asrwt>0</asrwt>
<pdfrwt beam="1">  1        1 0.22575094E+00 0.11033159E+04</pdfrwt>
<pdfrwt beam="2">  1       -2 0.31906818E-01 0.11033159E+04</pdfrwt>
<totfact> 0.55024056E+01</totfact>
</mgrwt>
</event>
<event>
12    4  0.4320235E-008  0.1766301E+04  0.7818608E-02  0.8724428E-01
         -2   -1    0    0    0  501 -0.00000000000E+00  0.00000000000E+00  0.14687030286E+04  0.14687030286E+04  0.00000000000E+00 0.  1.
          1   -1    0    0  501    0  0.00000000000E+00 -0.00000000000E+00 -0.53105023395E+03  0.53105023395E+03  0.00000000000E+00 0. -1.
        -24    2    1    2    0    0 -0.16576596577E+03  0.64811224234E+01 -0.36453101380E+03  0.40810481651E+03  0.78398475002E+02 0.  0.
        254    2    1    2    0    0  0.16576596577E+03 -0.64811224234E+01  0.13021838084E+04  0.15916484460E+04  0.90007874346E+03 0.  0.
         23    2    4    4    0    0 -0.34454102174E+03  0.70058881187E+02  0.34913458303E+03  0.50383116315E+03  0.91291409213E+02 0.  0.
         23    2    4    4    0    0  0.51030698751E+03 -0.76540003610E+02  0.95304922537E+03  0.10878172829E+04  0.93659069134E+02 0.  0.
          1    1    3    3  502    0 -0.14784969645E+03  0.14192506241E+02 -0.35791141248E+03  0.38750682466E+03  0.00000000000E+00 0. -1.
         -2    1    3    3    0  502 -0.17916269319E+02 -0.77113838173E+01 -0.66196013185E+01  0.20597991851E+02  0.00000000000E+00 0.  1.
         11    1    5    5    0    0 -0.30503260959E+03  0.35329010016E+02  0.32081547952E+03  0.44408963483E+03  0.00000000000E+00 0. -1.
        -11    1    5    5    0    0 -0.39508412153E+02  0.34729871171E+02  0.28319103504E+02  0.59741528317E+02  0.00000000000E+00 0.  1.
          1    1    6    6  503    0  0.24642680867E+03 -0.42935781587E+02  0.36601734927E+03  0.44332646361E+03  0.00000000000E+00 0. -1.
         -1    1    6    6    0  503  0.26388017884E+03 -0.33604222023E+02  0.58703187611E+03  0.64449081925E+03  0.00000000000E+00 0.  1.
<mgrwt>
<rscale>  0 0.17663013E+04</rscale>
<asrwt>0</asrwt>
<pdfrwt beam="1">  1        1 0.81700036E-01 0.17663013E+04</pdfrwt>
<pdfrwt beam="2">  1       -2 0.22595431E+00 0.17663013E+04</pdfrwt>
<totfact> 0.30575322E+00</totfact>
</mgrwt>
</event>
<event>
12    4  0.4320235E-008  0.3330068E+04  0.7818608E-02  0.8155286E-01
          1   -1    0    0  501    0  0.00000000000E+00  0.00000000000E+00  0.19394982587E+04  0.19394982587E+04  0.00000000000E+00 0. -1.
         -2   -1    0    0    0  501 -0.00000000000E+00 -0.00000000000E+00 -0.14294099004E+04  0.14294099004E+04  0.00000000000E+00 0.  1.
        -24    2    1    2    0    0  0.26135556956E+03 -0.14235439774E+04 -0.28386183816E+03  0.14768863840E+04  0.76365298564E+02 0.  0.
        254    2    1    2    0    0 -0.26135556956E+03  0.14235439774E+04  0.79395019648E+03  0.18920217751E+04  0.92444864308E+03 0.  0.
         23    2    4    4    0    0 -0.34170691114E+02  0.96199006382E+03  0.30720472489E+02  0.96726124828E+03  0.89766675202E+02 0.  0.
         23    2    4    4    0    0 -0.22718487845E+03  0.46155391357E+03  0.76322972400E+03  0.92476052683E+03  0.89540137733E+02 0.  0.
          3    1    3    3  502    0  0.39875139586E+02 -0.29769669831E+03 -0.86943769108E+02  0.31268605650E+03  0.00000000000E+00 0. -1.
         -4    1    3    3    0  502  0.22148042997E+03 -0.11258472791E+04 -0.19691806905E+03  0.11642003275E+04  0.00000000000E+00 0.  1.
         11    1    5    5    0    0 -0.38023930488E+02  0.73870834050E+03  0.59614841713E+02  0.74208473974E+03  0.00000000000E+00 0.  1.
        -11    1    5    5    0    0  0.38532393740E+01  0.22328172333E+03 -0.28894369224E+02  0.22517650854E+03  0.00000000000E+00 0. -1.
          2    1    6    6  503    0 -0.26601199324E+02  0.12330720879E+03  0.14651773739E+03  0.19333840517E+03  0.00000000000E+00 0. -1.
         -2    1    6    6    0  503 -0.20058367912E+03  0.33824670478E+03  0.61671198661E+03  0.73142212166E+03  0.00000000000E+00 0.  1.
<mgrwt>
<rscale>  0 0.33300679E+04</rscale>
<asrwt>0</asrwt>
<pdfrwt beam="1">  1        1 0.29838435E+00 0.33300679E+04</pdfrwt>
<pdfrwt beam="2">  1       -2 0.21990921E+00 0.33300679E+04</pdfrwt>
<totfact> 0.23584200E-01</totfact>
</mgrwt>
</event>
<event>
12    4  0.4320235E-008  0.2421611E+04  0.7818608E-02  0.8431457E-01
          1   -1    0    0  501    0  0.00000000000E+00  0.00000000000E+00  0.14874982209E+04  0.14874982209E+04  0.00000000000E+00 0. -1.
         -4   -1    0    0    0  501 -0.00000000000E+00 -0.00000000000E+00 -0.98558115421E+03  0.98558115421E+03  0.00000000000E+00 0.  1.
        -24    2    1    2    0    0  0.21329815223E+03 -0.96623071250E+03  0.55172828403E+03  0.11352350211E+04  0.72502152420E+02 0.  0.
        254    2    1    2    0    0 -0.21329815223E+03  0.96623071250E+03 -0.49811217358E+02  0.13378443540E+04  0.89902639936E+03 0.  0.
         23    2    4    4    0    0 -0.48963173087E+03  0.88959583800E+03  0.51373371692E+02  0.10208804370E+04  0.91856716910E+02 0.  0.
         23    2    4    4    0    0  0.27633357864E+03  0.76634874496E+02 -0.10118458905E+03  0.31696391705E+03  0.89412823339E+02 0.  0.
          3    1    3    3  502    0  0.15190283821E+03 -0.76052460306E+03  0.46068072970E+03  0.90205259206E+03  0.00000000000E+00 0. -1.
         -4    1    3    3    0  502  0.61395314015E+02 -0.20570610943E+03  0.91047554327E+02  0.23318242899E+03  0.00000000000E+00 0.  1.
         11    1    5    5    0    0 -0.27994998692E+03  0.59912710654E+03  0.29136137865E+02  0.66194727848E+03  0.00000000000E+00 0. -1.
        -11    1    5    5    0    0 -0.20968174395E+03  0.29046873147E+03  0.22237233827E+02  0.35893315851E+03  0.00000000000E+00 0.  1.
          3    1    6    6  503    0  0.13230727708E+03  0.33582176476E+01 -0.78243512033E+02  0.15374830201E+03  0.00000000000E+00 0. -1.
         -3    1    6    6    0  503  0.14402630156E+03  0.73276656848E+02 -0.22941077017E+02  0.16321561504E+03  0.00000000000E+00 0.  1.
<mgrwt>
<rscale>  0 0.24216112E+04</rscale>
<asrwt>0</asrwt>
<pdfrwt beam="1">  1        1 0.22884588E+00 0.24216112E+04</pdfrwt>
<pdfrwt beam="2">  1       -4 0.15162787E+00 0.24216112E+04</pdfrwt>
<totfact> 0.84223166E-01</totfact>
</mgrwt>
</event>
<event>
12    4  0.4320235E-008  0.1431638E+04  0.7818608E-02  0.8931231E-01
         -2   -1    0    0    0  501 -0.00000000000E+00  0.00000000000E+00  0.38918523454E+03  0.38918523454E+03  0.00000000000E+00 0.  1.
          1   -1    0    0  501    0  0.00000000000E+00 -0.00000000000E+00 -0.13165881266E+04  0.13165881266E+04  0.00000000000E+00 0. -1.
        -24    2    1    2    0    0  0.80713695923E+02  0.36807774307E+03 -0.50070238305E+03  0.63175909430E+03  0.80129589929E+02 0.  0.
        254    2    1    2    0    0 -0.80713695923E+02 -0.36807774307E+03 -0.42670050904E+03  0.10740142669E+04  0.91073453617E+03 0.  0.
         23    2    4    4    0    0  0.25682619764E+03 -0.17613030293E+03  0.16284851907E+03  0.36232918787E+03  0.88211228386E+02 0.  0.
         23    2    4    4    0    0 -0.33753989357E+03 -0.19194744014E+03 -0.58954902811E+03  0.71168507900E+03  0.90280649056E+02 0.  0.
          1    1    3    3  502    0  0.63981570684E+02  0.21288739021E+03 -0.35109035145E+03  0.41554676895E+03  0.00000000000E+00 0. -1.
         -2    1    3    3    0  502  0.16732125239E+02  0.15519035286E+03 -0.14961203160E+03  0.21621232535E+03  0.00000000000E+00 0.  1.
         11    1    5    5    0    0  0.51468138245E+02 -0.60886335618E+02  0.71917831901E+01  0.80048965420E+02  0.00000000000E+00 0. -1.
        -11    1    5    5    0    0  0.20535805940E+03 -0.11524396731E+03  0.15565673588E+03  0.28228022245E+03  0.00000000000E+00 0.  1.
          2    1    6    6  503    0 -0.16906747604E+03 -0.14682778349E+03 -0.31714672240E+03  0.38823221529E+03  0.00000000000E+00 0.  1.
         -2    1    6    6    0  503 -0.16847241752E+03 -0.45119656648E+02 -0.27240230572E+03  0.32345286371E+03  0.00000000000E+00 0. -1.
<mgrwt>
<rscale>  0 0.14316377E+04</rscale>
<asrwt>0</asrwt>
<pdfrwt beam="1">  1        1 0.20255202E+00 0.14316377E+04</pdfrwt>
<pdfrwt beam="2">  1       -2 0.59874653E-01 0.14316377E+04</pdfrwt>
<totfact> 0.19536640E+01</totfact>
</mgrwt>
</event>
<event>
12    4  0.4320235E-008  0.1273232E+04  0.7818608E-02  0.9051066E-01
          1   -1    0    0  501    0  0.00000000000E+00  0.00000000000E+00  0.56368003797E+03  0.56368003797E+03  0.00000000000E+00 0. -1.
         -2   -1    0    0    0  501 -0.00000000000E+00 -0.00000000000E+00 -0.71898884602E+03  0.71898884602E+03  0.00000000000E+00 0.  1.
        -24    2    1    2    0    0  0.27562994289E+03 -0.22348296637E+02 -0.18217525437E+03  0.34157712748E+03  0.83760366095E+02 0.  0.
        254    2    1    2    0    0 -0.27562994289E+03  0.22348296637E+02  0.26866446328E+02  0.94109175651E+03  0.89914435796E+03 0.  0.
         23    2    4    4    0    0  0.83736222069E+02  0.38436333259E+03  0.10537928649E+03  0.41707293903E+03  0.89989533379E+02 0.  0.
         23    2    4    4    0    0 -0.35936616496E+03 -0.36201503596E+03 -0.78512840165E+02  0.52401881749E+03  0.90733280725E+02 0.  0.
          1    1    3    3  502    0 -0.50539197057E+00  0.74720165399E+01  0.26679426191E+01  0.79501176114E+01  0.00000000000E+00 0. -1.
         -2    1    3    3    0  502  0.27613533486E+03 -0.29820313177E+02 -0.18484319699E+03  0.33362700986E+03  0.00000000000E+00 0.  1.
         11    1    5    5    0    0  0.10030827011E+03  0.28855379578E+03  0.91186753875E+02  0.31881039223E+03  0.00000000000E+00 0. -1.
        -11    1    5    5    0    0 -0.16572048042E+02  0.95809536817E+02  0.14192532618E+02  0.98262546800E+02  0.00000000000E+00 0.  1.
          3    1    6    6  503    0 -0.21174230659E+03 -0.25027854753E+03 -0.85312562835E+02  0.33875122012E+03  0.00000000000E+00 0. -1.
         -3    1    6    6    0  503 -0.14762385837E+03 -0.11173648843E+03  0.67997226696E+01  0.18526759737E+03  0.00000000000E+00 0.  1.
<mgrwt>
<rscale>  0 0.12732316E+04</rscale>
<asrwt>0</asrwt>
<pdfrwt beam="1">  1        1 0.86720006E-01 0.12732316E+04</pdfrwt>
<pdfrwt beam="2">  1       -2 0.11061367E+00 0.12732316E+04</pdfrwt>
<totfact> 0.20913696E+01</totfact>
</mgrwt>
</event>
<event>
12    4  0.4320235E-008  0.1387755E+04  0.7818608E-02  0.8962730E-01
          1   -1    0    0  501    0  0.00000000000E+00  0.00000000000E+00  0.87387052628E+03  0.87387052628E+03  0.00000000000E+00 0. -1.
         -2   -1    0    0    0  501 -0.00000000000E+00 -0.00000000000E+00 -0.55095798067E+03  0.55095798067E+03  0.00000000000E+00 0.  1.
        -24    2    1    2    0    0  0.34797784170E+03  0.60174814522E+02 -0.83468475574E+02  0.37158268494E+03  0.79981989910E+02 0.  0.
        254    2    1    2    0    0 -0.34797784170E+03 -0.60174814522E+02  0.40638102119E+03  0.10532458220E+04  0.90524672912E+03 0.  0.
         23    2    4    4    0    0  0.26564417992E+03  0.12476090235E+03  0.22505518276E+03  0.38082955945E+03  0.90825134092E+02 0.  0.
         23    2    4    4    0    0 -0.61362202162E+03 -0.18493571688E+03  0.18132583842E+03  0.67241626256E+03  0.92365392194E+02 0.  0.
          3    1    3    3  502    0  0.30363184080E+03  0.56239834506E+02 -0.43673947345E+02  0.31186956795E+03  0.00000000000E+00 0. -1.
         -4    1    3    3    0  502  0.44346000903E+02  0.39349800158E+01 -0.39794528229E+02  0.59713116991E+02  0.00000000000E+00 0.  1.
         11    1    5    5    0    0  0.20825586820E+03  0.12156794084E+03  0.21377480602E+03  0.32225601402E+03  0.00000000000E+00 0. -1.
        -11    1    5    5    0    0  0.57388311721E+02  0.31929615107E+01  0.11280376739E+02  0.58573545434E+02  0.00000000000E+00 0.  1.
          2    1    6    6  503    0 -0.58780495121E+03 -0.16873292338E+03  0.15206935618E+03  0.63016708038E+03  0.00000000000E+00 0. -1.
         -2    1    6    6    0  503 -0.25817070412E+02 -0.16202793495E+02  0.29256482245E+02  0.42249182182E+02  0.00000000000E+00 0.  1.
<mgrwt>
<rscale>  0 0.13877549E+04</rscale>
<asrwt>0</asrwt>
<pdfrwt beam="1">  1        1 0.13444162E+00 0.13877549E+04</pdfrwt>
<pdfrwt beam="2">  1       -2 0.84762766E-01 0.13877549E+04</pdfrwt>
<totfact> 0.19837070E+01</totfact>
</mgrwt>
</event>
<event>
12    4  0.4320235E-008  0.1899036E+04  0.7818608E-02  0.8655336E-01
         -2   -1    0    0    0  501 -0.00000000000E+00  0.00000000000E+00  0.20434846444E+04  0.20434846444E+04  0.00000000000E+00 0.  1.
          1   -1    0    0  501    0  0.00000000000E+00 -0.00000000000E+00 -0.44119949548E+03  0.44119949548E+03  0.00000000000E+00 0. -1.
        -24    2    1    2    0    0 -0.48530360914E+03  0.47630551322E+03  0.99253614484E+03  0.12059838322E+04  0.82960651187E+02 0.  0.
        254    2    1    2    0    0  0.48530360914E+03 -0.47630551322E+03  0.60974900411E+03  0.12787003077E+04  0.89492686519E+03 0.  0.
         23    2    4    4    0    0 -0.12322318075E+03 -0.15680055769E+02  0.47253653922E+03  0.49798217586E+03  0.96258247196E+02 0.  0.
         23    2    4    4    0    0  0.60852678989E+03 -0.46062545746E+03  0.13721246488E+03  0.78071813188E+03  0.90624913016E+02 0.  0.
          1    1    3    3  502    0 -0.62745887741E+02  0.91393947206E+02  0.20248650004E+03  0.23084774790E+03  0.00000000000E+00 0. -1.
         -2    1    3    3    0  502 -0.42255772140E+03  0.38491156602E+03  0.79004964481E+03  0.97513608426E+03  0.00000000000E+00 0.  1.
         11    1    5    5    0    0 -0.54382675959E+02  0.30983010573E+02  0.11529782485E+03  0.13119074207E+03  0.00000000000E+00 0. -1.
        -11    1    5    5    0    0 -0.68840504792E+02 -0.46663066341E+02  0.35723871437E+03  0.36679143380E+03  0.00000000000E+00 0.  1.
          1    1    6    6  503    0  0.16810910464E+03 -0.14013241516E+03  0.80067809263E+02  0.23304209688E+03  0.00000000000E+00 0. -1.
         -1    1    6    6    0  503  0.44041768525E+03 -0.32049304230E+03  0.57144655622E+02  0.54767603500E+03  0.00000000000E+00 0.  1.
<mgrwt>
<rscale>  0 0.18990360E+04</rscale>
<asrwt>0</asrwt>
<pdfrwt beam="1">  1        1 0.67876847E-01 0.18990360E+04</pdfrwt>
<pdfrwt beam="2">  1       -2 0.31438225E+00 0.18990360E+04</pdfrwt>
<totfact> 0.11186824E+00</totfact>
</mgrwt>
</event>
<event>
12    4  0.4320235E-008  0.2592186E+04  0.7818608E-02  0.8370860E-01
          1   -1    0    0  501    0  0.00000000000E+00  0.00000000000E+00  0.19957763262E+04  0.19957763262E+04  0.00000000000E+00 0. -1.
         -2   -1    0    0    0  501 -0.00000000000E+00 -0.00000000000E+00 -0.84170593646E+03  0.84170593646E+03  0.00000000000E+00 0.  1.
        -24    2    1    2    0    0  0.64199461759E+03 -0.31956562044E+03 -0.45843511517E+03  0.85486426231E+03  0.79692392214E+02 0.  0.
        254    2    1    2    0    0 -0.64199461759E+03  0.31956562044E+03  0.16125055049E+04  0.19826180003E+04  0.90350476319E+03 0.  0.
         23    2    4    4    0    0 -0.69130111474E+03  0.84039874330E+01  0.60529286952E+03  0.92342576235E+03  0.91475802506E+02 0.  0.
         23    2    4    4    0    0  0.49306497147E+02  0.31116163301E+03  0.10072126354E+04  0.10591922380E+04  0.90322818836E+02 0.  0.
          3    1    3    3  502    0  0.12415642714E+03 -0.55126056787E+02 -0.52050185802E+02  0.14547481699E+03  0.00000000000E+00 0. -1.
         -4    1    3    3    0  502  0.51783819045E+03 -0.26443956365E+03 -0.40638492937E+03  0.70938944532E+03  0.00000000000E+00 0.  1.
         11    1    5    5    0    0 -0.60302061324E+02 -0.23172798762E+02  0.42554932027E+02  0.77357866065E+02  0.00000000000E+00 0. -1.
        -11    1    5    5    0    0 -0.63099905341E+03  0.31576786195E+02  0.56273793749E+03  0.84606789628E+03  0.00000000000E+00 0.  1.
          4    1    6    6  503    0 -0.17317781865E+02  0.22198525007E+02  0.13629783517E+03  0.13917535685E+03  0.00000000000E+00 0. -1.
         -4    1    6    6    0  503  0.66624279012E+02  0.28896310800E+03  0.87091480021E+03  0.92001688113E+03  0.00000000000E+00 0.  1.
<mgrwt>
<rscale>  0 0.25921858E+04</rscale>
<asrwt>0</asrwt>
<pdfrwt beam="1">  1        1 0.30704251E+00 0.25921858E+04</pdfrwt>
<pdfrwt beam="2">  1       -2 0.12949322E+00 0.25921858E+04</pdfrwt>
<totfact> 0.10190879E+00</totfact>
</mgrwt>
</event>
<event>
12    4  0.4320235E-008  0.1238203E+04  0.7818608E-02  0.9080060E-01
          1   -1    0    0  501    0  0.00000000000E+00  0.00000000000E+00  0.34033260726E+03  0.34033260726E+03  0.00000000000E+00 0. -1.
         -4   -1    0    0    0  501 -0.00000000000E+00 -0.00000000000E+00 -0.11262116094E+04  0.11262116094E+04  0.00000000000E+00 0.  1.
        -24    2    1    2    0    0  0.92111225298E+02  0.24245633859E+03 -0.31958845695E+03  0.41940254824E+03  0.80573951774E+02 0.  0.
        254    2    1    2    0    0 -0.92111225298E+02 -0.24245633859E+03 -0.46629054519E+03  0.10471416684E+04  0.90100457672E+03 0.  0.
         23    2    4    4    0    0 -0.24975906156E+03 -0.49024229271E+03 -0.99439351032E+02  0.56836732871E+03  0.10215743447E+03 0.  0.
         23    2    4    4    0    0  0.15764783626E+03  0.24778595412E+03 -0.36685119416E+03  0.47877433972E+03  0.91620687482E+02 0.  0.
          1    1    3    3  502    0  0.52446991529E+01  0.95189592345E+01 -0.56100898169E+02  0.57143925570E+02  0.00000000000E+00 0. -1.
         -2    1    3    3    0  502  0.86866526145E+02  0.23293737935E+03 -0.26348755879E+03  0.36225862267E+03  0.00000000000E+00 0.  1.
         11    1    5    5    0    0 -0.95893797405E+02 -0.15434008106E+03 -0.79584088630E+02  0.19836861688E+03  0.00000000000E+00 0. -1.
        -11    1    5    5    0    0 -0.15386526416E+03 -0.33590221166E+03 -0.19855262402E+02  0.36999871183E+03  0.00000000000E+00 0.  1.
          4    1    6    6  503    0  0.12796305812E+01  0.41466759512E+00 -0.40124523843E+02  0.40147064865E+02  0.00000000000E+00 0. -1.
         -4    1    6    6    0  503  0.15636820568E+03  0.24737128653E+03 -0.32672667032E+03  0.43862727485E+03  0.00000000000E+00 0.  1.
<mgrwt>
<rscale>  0 0.12382028E+04</rscale>
<asrwt>0</asrwt>
<pdfrwt beam="1">  1        1 0.52358864E-01 0.12382028E+04</pdfrwt>
<pdfrwt beam="2">  1       -4 0.17326332E+00 0.12382028E+04</pdfrwt>
<totfact> 0.69936165E+00</totfact>
</mgrwt>
</event>
<event>
12    4  0.4320235E-008  0.1578990E+04  0.7818608E-02  0.8833560E-01
          1   -1    0    0  501    0  0.00000000000E+00  0.00000000000E+00  0.98132561175E+03  0.98132561175E+03  0.00000000000E+00 0. -1.
         -2   -1    0    0    0  501 -0.00000000000E+00 -0.00000000000E+00 -0.63516398359E+03  0.63516398359E+03  0.00000000000E+00 0.  1.
        -24    2    1    2    0    0  0.51974169760E+03 -0.79028188701E+02  0.94247870669E+02  0.54001052975E+03  0.79698333016E+02 0.  0.
        254    2    1    2    0    0 -0.51974169760E+03  0.79028188701E+02  0.25191375749E+03  0.10764790656E+04  0.90496947496E+03 0.  0.
         23    2    4    4    0    0 -0.44552831888E+03  0.21735843794E+03 -0.23563423207E+03  0.55623114380E+03  0.90163299315E+02 0.  0.
         23    2    4    4    0    0 -0.74213378712E+02 -0.13833024924E+03  0.48754798956E+03  0.52024792178E+03  0.91170031050E+02 0.  0.
          1    1    3    3  502    0  0.35919311891E+02  0.99265835746E+01 -0.66058641565E+01  0.37846683731E+02  0.00000000000E+00 0. -1.
         -2    1    3    3    0  502  0.48382238570E+03 -0.88954772275E+02  0.10085373483E+03  0.50216384602E+03  0.00000000000E+00 0.  1.
         11    1    5    5    0    0 -0.22135450787E+03  0.58075265973E+02 -0.10541172312E+03  0.25195671462E+03  0.00000000000E+00 0.  1.
        -11    1    5    5    0    0 -0.22417381101E+03  0.15928317197E+03 -0.13022250894E+03  0.30427442918E+03  0.00000000000E+00 0. -1.
          2    1    6    6  503    0 -0.26492084715E+02 -0.10474648168E+03  0.20492308607E+03  0.23166166532E+03  0.00000000000E+00 0. -1.
         -2    1    6    6    0  503 -0.47721293997E+02 -0.33583767565E+02  0.28262490349E+03  0.28858625646E+03  0.00000000000E+00 0.  1.
<mgrwt>
<rscale>  0 0.15789904E+04</rscale>
<asrwt>0</asrwt>
<pdfrwt beam="1">  1        1 0.15097317E+00 0.15789904E+04</pdfrwt>
<pdfrwt beam="2">  1       -2 0.97717536E-01 0.15789904E+04</pdfrwt>
<totfact> 0.11503595E+01</totfact>
</mgrwt>
</event>
<event>
12    4  0.4320235E-008  0.1718986E+04  0.7818608E-02  0.8750609E-01
         -2   -1    0    0    0  501 -0.00000000000E+00  0.00000000000E+00  0.52040866592E+03  0.52040866592E+03  0.00000000000E+00 0.  1.
          1   -1    0    0  501    0  0.00000000000E+00 -0.00000000000E+00 -0.14195161462E+04  0.14195161462E+04  0.00000000000E+00 0. -1.
        -24    2    1    2    0    0 -0.43104197859E+02  0.42017267921E+03  0.17347462589E+03  0.46364326687E+03  0.80427488196E+02 0.  0.
        254    2    1    2    0    0  0.43104197859E+02 -0.42017267921E+03 -0.10725821061E+04  0.14762815452E+04  0.92226448165E+03 0.  0.
         23    2    4    4    0    0  0.34612509705E+03  0.56291017321E+02 -0.15297556251E+03  0.39325997228E+03  0.90997921029E+02 0.  0.
         23    2    4    4    0    0 -0.30302089919E+03 -0.47646369653E+03 -0.91960654363E+03  0.10830215729E+04  0.91761718135E+02 0.  0.
          1    1    3    3  502    0 -0.25625541880E+02  0.23141473283E+03  0.13840708590E+03  0.27086152993E+03  0.00000000000E+00 0. -1.
         -2    1    3    3    0  502 -0.17478655978E+02  0.18875794638E+03  0.35067539986E+02  0.19278173694E+03  0.00000000000E+00 0.  1.
         11    1    5    5    0    0  0.31535859322E+03  0.21870659235E+02 -0.13413556488E+03  0.34339731772E+03  0.00000000000E+00 0. -1.
        -11    1    5    5    0    0  0.30766503831E+02  0.34420358086E+02 -0.18839997634E+02  0.49862654558E+02  0.00000000000E+00 0.  1.
          1    1    6    6  503    0 -0.28244791635E+03 -0.38398442437E+03 -0.74724024256E+03  0.88633449877E+03  0.00000000000E+00 0. -1.
         -1    1    6    6    0  503 -0.20572982843E+02 -0.92479272164E+02 -0.17236630107E+03  0.19668707417E+03  0.00000000000E+00 0.  1.
<mgrwt>
<rscale>  0 0.17189863E+04</rscale>
<asrwt>0</asrwt>
<pdfrwt beam="1">  1        1 0.21838710E+00 0.17189863E+04</pdfrwt>
<pdfrwt beam="2">  1       -2 0.80062872E-01 0.17189863E+04</pdfrwt>
<totfact> 0.85631376E+00</totfact>
</mgrwt>
</event>
<event>
12    4  0.4320235E-008  0.2445972E+04  0.7818608E-02  0.8422490E-01
         -2   -1    0    0    0  501 -0.00000000000E+00  0.00000000000E+00  0.77719090158E+03  0.77719090158E+03  0.00000000000E+00 0.  1.
          1   -1    0    0  501    0  0.00000000000E+00 -0.00000000000E+00 -0.19244882619E+04  0.19244882619E+04  0.00000000000E+00 0. -1.
        -24    2    1    2    0    0  0.75587189060E+03  0.73690689244E+03 -0.51292897776E+03  0.11765365656E+04  0.82268285969E+02 0.  0.
        254    2    1    2    0    0 -0.75587189060E+03 -0.73690689244E+03 -0.63436838257E+03  0.15251425979E+04  0.89959024890E+03 0.  0.
         23    2    4    4    0    0 -0.70007979982E+03 -0.10391655348E+03 -0.17194173000E+03  0.73393462497E+03  0.90474852923E+02 0.  0.
         23    2    4    4    0    0 -0.55792090779E+02 -0.63299033896E+03 -0.46242665258E+03  0.79120797290E+03  0.91553922716E+02 0.  0.
          1    1    3    3  502    0  0.63561266472E+03  0.65488562793E+03 -0.45635963047E+03  0.10203640319E+04  0.00000000000E+00 0. -1.
         -2    1    3    3    0  502  0.12025922589E+03  0.82021264508E+02 -0.56569347284E+02  0.15617253374E+03  0.00000000000E+00 0.  1.
         11    1    5    5    0    0 -0.29069511784E+03 -0.37667241721E+02 -0.25926452653E+02  0.29426969531E+03  0.00000000000E+00 0. -1.
        -11    1    5    5    0    0 -0.40938468199E+03 -0.66249311760E+02 -0.14601527735E+03  0.43966492966E+03  0.00000000000E+00 0.  1.
          4    1    6    6  503    0  0.13383405562E+02 -0.17570340886E+02 -0.22738985145E+02  0.31700061020E+02  0.00000000000E+00 0. -1.
         -4    1    6    6    0  503 -0.69175496341E+02 -0.61541999807E+03 -0.43968766743E+03  0.75950791188E+03  0.00000000000E+00 0.  1.
<mgrwt>
<rscale>  0 0.24459720E+04</rscale>
<asrwt>0</asrwt>
<pdfrwt beam="1">  1        1 0.29607512E+00 0.24459720E+04</pdfrwt>
<pdfrwt beam="2">  1       -2 0.11956783E+00 0.24459720E+04</pdfrwt>
<totfact> 0.14089576E+00</totfact>
</mgrwt>
</event>
<event>
12    4  0.4320235E-008  0.1396194E+04  0.7818608E-02  0.8956578E-01
         -2   -1    0    0    0  501 -0.00000000000E+00  0.00000000000E+00  0.14954686962E+03  0.14954686962E+03  0.00000000000E+00 0.  1.
          1   -1    0    0  501    0  0.00000000000E+00 -0.00000000000E+00 -0.32587729253E+04  0.32587729253E+04  0.00000000000E+00 0. -1.
        -24    2    1    2    0    0 -0.35508643001E+03  0.13212507906E+03 -0.12211843607E+04  0.12810488135E+04  0.79065860834E+02 0.  0.
        254    2    1    2    0    0  0.35508643001E+03 -0.13212507906E+03 -0.18880416950E+04  0.21272709815E+04  0.90390097760E+03 0.  0.
         23    2    4    4    0    0  0.39364107499E+03  0.20296809875E+03 -0.16331139034E+04  0.16944999765E+04  0.90109954052E+02 0.  0.
         23    2    4    4    0    0 -0.38554644988E+02 -0.33509317781E+03 -0.25492779162E+03  0.43277100501E+03  0.92350773541E+02 0.  0.
          3    1    3    3  502    0 -0.34522847597E+03  0.13664948664E+03 -0.12090383847E+04  0.12647646416E+04  0.00000000000E+00 0. -1.
         -4    1    3    3    0  502 -0.98579540358E+01 -0.45244075835E+01 -0.12145975978E+02  0.16284171892E+02  0.00000000000E+00 0.  1.
         11    1    5    5    0    0  0.58358665721E+02  0.41708430638E+02 -0.40374385508E+03  0.41006636971E+03  0.00000000000E+00 0. -1.
        -11    1    5    5    0    0  0.33528240927E+03  0.16125966811E+03 -0.12293700483E+04  0.12844336068E+04  0.00000000000E+00 0.  1.
          1    1    6    6  503    0  0.22387989546E+02 -0.24952149689E+02 -0.21145685500E+02  0.39635487448E+02  0.00000000000E+00 0. -1.
         -1    1    6    6    0  503 -0.60942634534E+02 -0.31014102812E+03 -0.23378210612E+03  0.39313551756E+03  0.00000000000E+00 0.  1.
<mgrwt>
<rscale>  0 0.13961938E+04</rscale>
<asrwt>0</asrwt>
<pdfrwt beam="1">  1        1 0.50134962E+00 0.13961938E+04</pdfrwt>
<pdfrwt beam="2">  1       -2 0.23007213E-01 0.13961938E+04</pdfrwt>
<totfact> 0.55402730E+00</totfact>
</mgrwt>
</event>
<event>
12    4  0.4320235E-008  0.4073212E+04  0.7818608E-02  0.7989938E-01
         -2   -1    0    0    0  501 -0.00000000000E+00  0.00000000000E+00  0.96347546370E+03  0.96347546370E+03  0.00000000000E+00 0.  1.
          1   -1    0    0  501    0  0.00000000000E+00 -0.00000000000E+00 -0.43050031931E+04  0.43050031931E+04  0.00000000000E+00 0. -1.
        -24    2    1    2    0    0  0.16825238326E+04 -0.90935981227E+03 -0.11933551779E+04  0.22548520008E+04  0.49388760939E+02 0.  0.
        254    2    1    2    0    0 -0.16825238326E+04  0.90935981227E+03 -0.21481725516E+04  0.30136266560E+04  0.89971028400E+03 0.  0.
         23    2    4    4    0    0 -0.10932542173E+04  0.17313882733E+03 -0.14955721867E+04  0.18628785889E+04  0.91644061710E+02 0.  0.
         23    2    4    4    0    0 -0.58926961525E+03  0.73622098494E+03 -0.65260036491E+03  0.11507480672E+04  0.95256809025E+02 0.  0.
          3    1    3    3  502    0  0.55129578626E+03 -0.28028873679E+03 -0.40605124719E+03  0.73984216916E+03  0.00000000000E+00 0. -1.
         -4    1    3    3    0  502  0.11312280463E+04 -0.62907107548E+03 -0.78730393067E+03  0.15150098317E+04  0.00000000000E+00 0.  1.
         11    1    5    5    0    0 -0.36787827747E+03  0.37467598885E+02 -0.56435535567E+03  0.67471120894E+03  0.00000000000E+00 0.  1.
        -11    1    5    5    0    0 -0.72537593987E+03  0.13567122844E+03 -0.93121683101E+03  0.11881673799E+04  0.00000000000E+00 0. -1.
          4    1    6    6  503    0 -0.10043478294E+03  0.18643812510E+03 -0.13282114394E+03  0.24997555159E+03  0.00000000000E+00 0. -1.
         -4    1    6    6    0  503 -0.48883483231E+03  0.54978285984E+03 -0.51977922097E+03  0.90077251557E+03  0.00000000000E+00 0.  1.
<mgrwt>
<rscale>  0 0.40732125E+04</rscale>
<asrwt>0</asrwt>
<pdfrwt beam="1">  1        1 0.66230820E+00 0.40732125E+04</pdfrwt>
<pdfrwt beam="2">  1       -2 0.14822699E+00 0.40732125E+04</pdfrwt>
<totfact> 0.10621370E-02</totfact>
</mgrwt>
</event>
<event>
12    4  0.4320235E-008  0.1645294E+04  0.7818608E-02  0.8793195E-01
          1   -1    0    0  501    0  0.00000000000E+00  0.00000000000E+00  0.16228474879E+04  0.16228474879E+04  0.00000000000E+00 0. -1.
         -2   -1    0    0    0  501 -0.00000000000E+00 -0.00000000000E+00 -0.41701297441E+03  0.41701297441E+03  0.00000000000E+00 0.  1.
        -24    2    1    2    0    0  0.23638572950E+03 -0.24676457189E+03 -0.14559959837E+03  0.38033270557E+03  0.81748130427E+02 0.  0.
        254    2    1    2    0    0 -0.23638572950E+03  0.24676457189E+03  0.13514341118E+04  0.16595277567E+04  0.90049278156E+03 0.  0.
         23    2    4    4    0    0 -0.57367612555E+03  0.17591669612E+03  0.84122275596E+03  0.10372682177E+04  0.90656766879E+02 0.  0.
         23    2    4    4    0    0  0.33729039604E+03  0.70847875761E+02  0.51021135587E+03  0.62225953899E+03  0.90039288272E+02 0.  0.
          3    1    3    3  502    0  0.12747505388E+02 -0.38981044984E+02  0.23961191117E+01  0.41082382458E+02  0.00000000000E+00 0. -1.
         -4    1    3    3    0  502  0.22363822411E+03 -0.20778352690E+03 -0.14799571748E+03  0.33925032311E+03  0.00000000000E+00 0.  1.
         11    1    5    5    0    0 -0.37586980450E+03  0.72609191711E+02  0.50425555854E+03  0.63310652577E+03  0.00000000000E+00 0.  1.
        -11    1    5    5    0    0 -0.19780632105E+03  0.10330750441E+03  0.33696719742E+03  0.40416169197E+03  0.00000000000E+00 0. -1.
          3    1    6    6  503    0  0.14334328680E+03 -0.13987313445E+02  0.19046652856E+03  0.23878953350E+03  0.00000000000E+00 0. -1.
         -3    1    6    6    0  503  0.19394710924E+03  0.84835189206E+02  0.31974482732E+03  0.38347000549E+03  0.00000000000E+00 0.  1.
<mgrwt>
<rscale>  0 0.16452945E+04</rscale>
<asrwt>0</asrwt>
<pdfrwt beam="1">  1        1 0.24966884E+00 0.16452945E+04</pdfrwt>
<pdfrwt beam="2">  1       -2 0.64155843E-01 0.16452945E+04</pdfrwt>
<totfact> 0.10139011E+01</totfact>
</mgrwt>
</event>
<event>
12    4  0.4320235E-008  0.1266249E+04  0.7818608E-02  0.9056767E-01
          1   -1    0    0  501    0  0.00000000000E+00  0.00000000000E+00  0.44579384341E+03  0.44579384341E+03  0.00000000000E+00 0. -1.
         -2   -1    0    0    0  501 -0.00000000000E+00 -0.00000000000E+00 -0.89917481728E+03  0.89917481728E+03  0.00000000000E+00 0.  1.
        -24    2    1    2    0    0  0.10976807276E+03  0.14510862261E+03  0.35372800697E+02  0.20214937428E+03  0.80669649432E+02 0.  0.
        254    2    1    2    0    0 -0.10976807276E+03 -0.14510862261E+03 -0.48875377457E+03  0.11428192864E+04  0.10168825532E+04 0.  0.
         23    2    4    4    0    0 -0.14328960604E+03 -0.19845155142E+03 -0.78617377923E+03  0.82828324167E+03  0.89827544939E+02 0.  0.
         23    2    4    4    0    0  0.33521533280E+02  0.53342928805E+02  0.29742000467E+03  0.31453604473E+03  0.80654218798E+02 0.  0.
          3    1    3    3  502    0  0.88032301163E+02  0.13509114005E+03  0.55860328718E+02  0.17064489003E+03  0.00000000000E+00 0. -1.
         -4    1    3    3    0  502  0.21735771598E+02  0.10017482566E+02 -0.20487528021E+02  0.31504484257E+02  0.00000000000E+00 0.  1.
         11    1    5    5    0    0 -0.72201564921E+02 -0.93873765562E+02 -0.23957252086E+03  0.26724584672E+03  0.00000000000E+00 0. -1.
        -11    1    5    5    0    0 -0.71088041120E+02 -0.10457778586E+03 -0.54660125838E+03  0.56103739496E+03  0.00000000000E+00 0.  1.
          3    1    6    6  503    0  0.23335807947E+02  0.52773347297E+02  0.29872889481E+03  0.30425078260E+03  0.00000000000E+00 0. -1.
         -3    1    6    6    0  503  0.10185725333E+02  0.56958150767E+00 -0.13088901431E+01  0.10285262129E+02  0.00000000000E+00 0.  1.
<mgrwt>
<rscale>  0 0.12662489E+04</rscale>
<asrwt>0</asrwt>
<pdfrwt beam="1">  1        1 0.68583668E-01 0.12662489E+04</pdfrwt>
<pdfrwt beam="2">  1       -2 0.13833459E+00 0.12662489E+04</pdfrwt>
<totfact> 0.16529924E+01</totfact>
</mgrwt>
</event>
<event>
12    4  0.4320235E-008  0.2510201E+04  0.7818608E-02  0.8399360E-01
         -2   -1    0    0    0  501 -0.00000000000E+00  0.00000000000E+00  0.73813233281E+03  0.73813233281E+03  0.00000000000E+00 0.  1.
          1   -1    0    0  501    0  0.00000000000E+00 -0.00000000000E+00 -0.21341387924E+04  0.21341387924E+04  0.00000000000E+00 0. -1.
        -24    2    1    2    0    0 -0.71389764660E+02  0.26124060191E+03  0.59920767154E+03  0.66452000638E+03  0.95884590292E+02 0.  0.
        254    2    1    2    0    0  0.71389764660E+02 -0.26124060191E+03 -0.19952141312E+04  0.22077511189E+04  0.90550672169E+03 0.  0.
         23    2    4    4    0    0 -0.32035707541E+03 -0.18787615288E+03 -0.15780919766E+04  0.16237579675E+04  0.91046943182E+02 0.  0.
         23    2    4    4    0    0  0.39174684007E+03 -0.73364449031E+02 -0.41712215461E+03  0.58399315139E+03  0.90604524793E+02 0.  0.
          1    1    3    3  502    0  0.17622414874E+02  0.25867396885E+02  0.11026424710E+03  0.11462057370E+03  0.00000000000E+00 0. -1.
         -2    1    3    3    0  502 -0.89012179534E+02  0.23537320503E+03  0.48894342445E+03  0.54989943268E+03  0.00000000000E+00 0.  1.
         11    1    5    5    0    0 -0.22645685106E+03 -0.85567644431E+02 -0.10687799198E+04  0.10958535688E+04  0.00000000000E+00 0. -1.
        -11    1    5    5    0    0 -0.93900224355E+02 -0.10230850845E+03 -0.50931205672E+03  0.52790439869E+03  0.00000000000E+00 0.  1.
          3    1    6    6  503    0  0.35319716062E+03 -0.70728738056E+02 -0.40806741223E+03  0.54430671646E+03  0.00000000000E+00 0. -1.
         -3    1    6    6    0  503  0.38549679448E+02 -0.26357109745E+01 -0.90547423857E+01  0.39686434931E+02  0.00000000000E+00 0.  1.
<mgrwt>
<rscale>  0 0.25102007E+04</rscale>
<asrwt>0</asrwt>
<pdfrwt beam="1">  1        1 0.32832904E+00 0.25102007E+04</pdfrwt>
<pdfrwt beam="2">  1       -2 0.11355882E+00 0.25102007E+04</pdfrwt>
<totfact> 0.11458552E+00</totfact>
</mgrwt>
</event>
<event>
12    4  0.4320235E-008  0.1076907E+04  0.7818608E-02  0.9227997E-01
         -2   -1    0    0    0  501 -0.00000000000E+00  0.00000000000E+00  0.10815939503E+04  0.10815939503E+04  0.00000000000E+00 0.  1.
          1   -1    0    0  501    0  0.00000000000E+00 -0.00000000000E+00 -0.26805992943E+03  0.26805992943E+03  0.00000000000E+00 0. -1.
        -24    2    1    2    0    0 -0.10245196158E+03 -0.39386733071E+02  0.25122470267E+03  0.28570266424E+03  0.80401753405E+02 0.  0.
        254    2    1    2    0    0  0.10245196158E+03  0.39386733071E+02  0.56230931817E+03  0.10639512155E+04  0.89652255989E+03 0.  0.
         23    2    4    4    0    0 -0.36185330439E+03  0.14135117979E+03  0.37290842271E+03  0.54474162566E+03  0.82248264818E+02 0.  0.
         23    2    4    4    0    0  0.46430526597E+03 -0.10196444672E+03  0.18940089545E+03  0.51920958980E+03  0.87919113579E+02 0.  0.
          3    1    3    3  502    0 -0.85685244589E+02  0.59803463400E+01  0.13754222851E+03  0.16215915116E+03  0.00000000000E+00 0. -1.
         -4    1    3    3    0  502 -0.16766716988E+02 -0.45367079411E+02  0.11368247415E+03  0.12354351307E+03  0.00000000000E+00 0.  1.
         11    1    5    5    0    0 -0.16871672811E+02 -0.10663533485E+02  0.15654432419E+02  0.25365834190E+02  0.00000000000E+00 0. -1.
        -11    1    5    5    0    0 -0.34498163158E+03  0.15201471328E+03  0.35725399029E+03  0.51937579147E+03  0.00000000000E+00 0.  1.
          1    1    6    6  503    0  0.79293233009E+02 -0.16348124723E+02 -0.16056049213E+01  0.80976885283E+02  0.00000000000E+00 0. -1.
         -1    1    6    6    0  503  0.38501203296E+03 -0.85616321999E+02  0.19100650038E+03  0.43823270451E+03  0.00000000000E+00 0.  1.
<mgrwt>
<rscale>  0 0.10769067E+04</rscale>
<asrwt>0</asrwt>
<pdfrwt beam="1">  1        1 0.41239990E-01 0.10769067E+04</pdfrwt>
<pdfrwt beam="2">  1       -2 0.16639907E+00 0.10769067E+04</pdfrwt>
<totfact> 0.19971360E+01</totfact>
</mgrwt>
</event>
<event>
12    4  0.4320235E-008  0.2062094E+04  0.7818608E-02  0.8578127E-01
          1   -1    0    0  501    0  0.00000000000E+00  0.00000000000E+00  0.14461927690E+04  0.14461927690E+04  0.00000000000E+00 0. -1.
         -2   -1    0    0    0  501 -0.00000000000E+00 -0.00000000000E+00 -0.73507380293E+03  0.73507380293E+03  0.00000000000E+00 0.  1.
        -24    2    1    2    0    0  0.24711096195E+03 -0.50504182645E+03  0.94515786416E+03  0.11024122319E+04  0.76539315848E+02 0.  0.
        254    2    1    2    0    0 -0.24711096195E+03  0.50504182645E+03 -0.23403889809E+03  0.10788543400E+04  0.89051749404E+03 0.  0.
         23    2    4    4    0    0 -0.48873986660E+02  0.70720852955E+03 -0.25340287221E+02  0.71524007616E+03  0.91616950120E+02 0.  0.
         23    2    4    4    0    0 -0.19823697529E+03 -0.20216670309E+03 -0.20869861087E+03  0.36361426387E+03  0.92146342845E+02 0.  0.
          1    1    3    3  502    0  0.10967170690E+03 -0.15019164695E+03  0.28112956951E+03  0.33707454511E+03  0.00000000000E+00 0. -1.
         -2    1    3    3    0  502  0.13743925505E+03 -0.35485017950E+03  0.66402829465E+03  0.76533768678E+03  0.00000000000E+00 0.  1.
         11    1    5    5    0    0  0.44548060502E+01  0.46299500557E+03  0.78153078865E+01  0.46308238956E+03  0.00000000000E+00 0.  1.
        -11    1    5    5    0    0 -0.53328792710E+02  0.24421352398E+03 -0.33155595108E+02  0.25215768660E+03  0.00000000000E+00 0. -1.
          1    1    6    6  503    0 -0.10109927621E+02 -0.58844274585E+02 -0.27804820866E+02  0.65863247349E+02  0.00000000000E+00 0. -1.
         -1    1    6    6    0  503 -0.18812704766E+03 -0.14332242851E+03 -0.18089379001E+03  0.29775101652E+03  0.00000000000E+00 0.  1.
<mgrwt>
<rscale>  0 0.20620945E+04</rscale>
<asrwt>0</asrwt>
<pdfrwt beam="1">  1        1 0.22249120E+00 0.20620945E+04</pdfrwt>
<pdfrwt beam="2">  1       -2 0.11308828E+00 0.20620945E+04</pdfrwt>
<totfact> 0.35474859E+00</totfact>
</mgrwt>
</event>
<event>
12    4  0.4320235E-008  0.2498077E+04  0.7818608E-02  0.8403671E-01
          1   -1    0    0  501    0  0.00000000000E+00  0.00000000000E+00  0.11183149912E+04  0.11183149912E+04  0.00000000000E+00 0. -1.
         -2   -1    0    0    0  501 -0.00000000000E+00 -0.00000000000E+00 -0.13950423034E+04  0.13950423034E+04  0.00000000000E+00 0.  1.
        -24    2    1    2    0    0 -0.94016764526E+03 -0.30050964391E+01  0.42545767081E+03  0.10350329203E+04  0.79716276277E+02 0.  0.
        254    2    1    2    0    0  0.94016764526E+03  0.30050964391E+01 -0.70218498296E+03  0.14783243743E+04  0.89914124230E+03 0.  0.
         23    2    4    4    0    0  0.86131447605E+03  0.34815834607E+03 -0.49809645792E+03  0.10581806054E+04  0.92570252125E+02 0.  0.
         23    2    4    4    0    0  0.78853169206E+02 -0.34515324963E+03 -0.20408852504E+03  0.42014376895E+03  0.97570858899E+02 0.  0.
          1    1    3    3  502    0 -0.72088660738E+03 -0.71789463611E+01  0.36206591025E+03  0.80673462882E+03  0.00000000000E+00 0. -1.
         -2    1    3    3    0  502 -0.21928103787E+03  0.41738499220E+01  0.63391760559E+02  0.22829829150E+03  0.00000000000E+00 0.  1.
         11    1    5    5    0    0  0.27104051556E+02  0.13605811317E+02  0.54164378944E+00  0.30332179123E+02  0.00000000000E+00 0. -1.
        -11    1    5    5    0    0  0.83421042450E+03  0.33455253476E+03 -0.49863810171E+03  0.10278484262E+04  0.00000000000E+00 0.  1.
          2    1    6    6  503    0  0.96539193804E+02 -0.21231564383E+03 -0.13022000131E+03  0.26712356185E+03  0.00000000000E+00 0. -1.
         -2    1    6    6    0  503 -0.17686024598E+02 -0.13283760580E+03 -0.73868523726E+02  0.15302020709E+03  0.00000000000E+00 0.  1.
<mgrwt>
<rscale>  0 0.24980766E+04</rscale>
<asrwt>0</asrwt>
<pdfrwt beam="1">  1        1 0.17204846E+00 0.24980766E+04</pdfrwt>
<pdfrwt beam="2">  1       -2 0.21462189E+00 0.24980766E+04</pdfrwt>
<totfact> 0.10238946E+00</totfact>
</mgrwt>
</event>
<event>
12    4  0.4320235E-008  0.1723595E+04  0.7818608E-02  0.8748021E-01
          1   -1    0    0  501    0  0.00000000000E+00  0.00000000000E+00  0.17158047639E+04  0.17158047639E+04  0.00000000000E+00 0. -1.
         -2   -1    0    0    0  501 -0.00000000000E+00 -0.00000000000E+00 -0.43285498824E+03  0.43285498824E+03  0.00000000000E+00 0.  1.
        -24    2    1    2    0    0  0.48878170478E+03 -0.27276147435E+03  0.12241422821E+03  0.57826737605E+03  0.78112343000E+02 0.  0.
        254    2    1    2    0    0 -0.48878170478E+03  0.27276147435E+03  0.11605355475E+04  0.15703923761E+04  0.89776560480E+03 0.  0.
         23    2    4    4    0    0  0.18911214583E+03  0.44027944721E+01  0.16334767801E+02  0.21061025208E+03  0.91143103654E+02 0.  0.
         23    2    4    4    0    0 -0.67789385060E+03  0.26835867988E+03  0.11442007797E+04  0.13597821240E+04  0.90860039929E+02 0.  0.
          3    1    3    3  502    0  0.31049666790E+01 -0.14893254673E+02  0.19499088951E+01  0.15337926768E+02  0.00000000000E+00 0. -1.
         -2    1    3    3    0  502  0.48567673810E+03 -0.25786821967E+03  0.12046431931E+03  0.56292944929E+03  0.00000000000E+00 0.  1.
         11    1    5    5    0    0  0.69581915093E+02 -0.15020654761E+02  0.47485900075E+02  0.85569700732E+02  0.00000000000E+00 0. -1.
        -11    1    5    5    0    0  0.11953023073E+03  0.19423449233E+02 -0.31151132274E+02  0.12504055135E+03  0.00000000000E+00 0.  1.
          1    1    6    6  503    0 -0.90729531060E+02  0.59358519822E+02  0.12876377896E+03  0.16833119869E+03  0.00000000000E+00 0. -1.
         -1    1    6    6    0  503 -0.58716431954E+03  0.20900016005E+03  0.10154370007E+04  0.11914509253E+04  0.00000000000E+00 0.  1.
<mgrwt>
<rscale>  0 0.17235947E+04</rscale>
<asrwt>0</asrwt>
<pdfrwt beam="1">  1        1 0.26396996E+00 0.17235947E+04</pdfrwt>
<pdfrwt beam="2">  1       -2 0.66593076E-01 0.17235947E+04</pdfrwt>
<totfact> 0.80304720E+00</totfact>
</mgrwt>
</event>
<event>
12    4  0.4320235E-008  0.1311872E+04  0.7818608E-02  0.9020203E-01
          1   -1    0    0  501    0  0.00000000000E+00  0.00000000000E+00  0.19133825286E+04  0.19133825286E+04  0.00000000000E+00 0. -1.
         -2   -1    0    0    0  501 -0.00000000000E+00 -0.00000000000E+00 -0.22486456460E+03  0.22486456460E+03  0.00000000000E+00 0.  1.
        -24    2    1    2    0    0 -0.10507723498E+03  0.13941786552E+03  0.91304976334E+03  0.93306537748E+03  0.80452232980E+02 0.  0.
        254    2    1    2    0    0  0.10507723498E+03 -0.13941786552E+03  0.77546820065E+03  0.12051817157E+04  0.90588822221E+03 0.  0.
         23    2    4    4    0    0 -0.10160446595E+03 -0.99430439826E+02  0.91755988490E+03  0.93306553498E+03  0.92115527035E+02 0.  0.
         23    2    4    4    0    0  0.20668170094E+03 -0.39987425695E+02 -0.14209168425E+03  0.27211618074E+03  0.97677271512E+02 0.  0.
          1    1    3    3  502    0 -0.10983512270E+03  0.11543614184E+03  0.86021329033E+03  0.87484636473E+03  0.00000000000E+00 0. -1.
         -2    1    3    3    0  502  0.47578877181E+01  0.23981723679E+02  0.52836473010E+02  0.58219012756E+02  0.00000000000E+00 0.  1.
         11    1    5    5    0    0 -0.13356743966E+02 -0.44612858974E+02  0.11918747671E+03  0.12796235540E+03  0.00000000000E+00 0. -1.
        -11    1    5    5    0    0 -0.88247721988E+02 -0.54817580852E+02  0.79837240819E+03  0.80510317958E+03  0.00000000000E+00 0.  1.
          4    1    6    6  503    0  0.16497252155E+03 -0.69403530041E+02 -0.12494084021E+03  0.21827275689E+03  0.00000000000E+00 0.  1.
         -4    1    6    6    0  503  0.41709179394E+02  0.29416104346E+02 -0.17150844038E+02  0.53843423849E+02  0.00000000000E+00 0. -1.
<mgrwt>
<rscale>  0 0.13118718E+04</rscale>
<asrwt>0</asrwt>
<pdfrwt beam="1">  1        1 0.29436653E+00 0.13118718E+04</pdfrwt>
<pdfrwt beam="2">  1       -2 0.34594550E-01 0.13118718E+04</pdfrwt>
<totfact> 0.23052004E+01</totfact>
</mgrwt>
</event>
<event>
12    4  0.4320235E-008  0.2774595E+04  0.7818608E-02  0.8311199E-01
         -2   -1    0    0    0  501 -0.00000000000E+00  0.00000000000E+00  0.24351513357E+04  0.24351513357E+04  0.00000000000E+00 0.  1.
          1   -1    0    0  501    0  0.00000000000E+00 -0.00000000000E+00 -0.79033845868E+03  0.79033845868E+03  0.00000000000E+00 0. -1.
        -24    2    1    2    0    0  0.90235100140E+03  0.35657665646E+03 -0.16360466814E+03  0.98719397777E+03  0.80007628653E+02 0.  0.
        254    2    1    2    0    0 -0.90235100140E+03 -0.35657665646E+03  0.18084175451E+04  0.22382958166E+04  0.89342593612E+03 0.  0.
         23    2    4    4    0    0 -0.99711393272E+03 -0.10121058721E+03  0.12163901644E+04  0.15787710939E+04  0.91833312389E+02 0.  0.
         23    2    4    4    0    0  0.94762931321E+02 -0.25536606926E+03  0.59202738075E+03  0.65952472264E+03  0.10141300578E+03 0.  0.
          1    1    3    3  502    0  0.48298398883E+03  0.15070944107E+03 -0.99526919718E+02  0.51564762856E+03  0.00000000000E+00 0. -1.
         -2    1    3    3    0  502  0.41936701257E+03  0.20586721540E+03 -0.64077748419E+02  0.47154634921E+03  0.00000000000E+00 0.  1.
         11    1    5    5    0    0 -0.70408247239E+03 -0.90884624573E+02  0.91731713961E+03  0.11599408940E+04  0.00000000000E+00 0.  1.
        -11    1    5    5    0    0 -0.29303146034E+03 -0.10325962634E+02  0.29907302475E+03  0.41883019994E+03  0.00000000000E+00 0. -1.
          4    1    6    6  503    0 -0.99463000358E+01 -0.24396123044E+02  0.17808907943E+02  0.31800265818E+02  0.00000000000E+00 0. -1.
         -4    1    6    6    0  503  0.10470923136E+03 -0.23096994621E+03  0.57421847281E+03  0.62772445682E+03  0.00000000000E+00 0.  1.
<mgrwt>
<rscale>  0 0.27745946E+04</rscale>
<asrwt>0</asrwt>
<pdfrwt beam="1">  1        1 0.12159053E+00 0.27745946E+04</pdfrwt>
<pdfrwt beam="2">  1       -2 0.37463866E+00 0.27745946E+04</pdfrwt>
<totfact> 0.18594470E-01</totfact>
</mgrwt>
</event>
<event>
12    4  0.4320235E-008  0.1409443E+04  0.7818608E-02  0.8947011E-01
         -2   -1    0    0    0  501 -0.00000000000E+00  0.00000000000E+00  0.66369870927E+03  0.66369870927E+03  0.00000000000E+00 0.  1.
          3   -1    0    0  501    0  0.00000000000E+00 -0.00000000000E+00 -0.74828019262E+03  0.74828019262E+03  0.00000000000E+00 0. -1.
        -24    2    1    2    0    0  0.30288254783E+03 -0.25439600000E+03 -0.90747553523E+02  0.41527249924E+03  0.88096353813E+02 0.  0.
        254    2    1    2    0    0 -0.30288254783E+03  0.25439600000E+03  0.61660701762E+01  0.99670640265E+03  0.91483904053E+03 0.  0.
         23    2    4    4    0    0 -0.29310458712E+03  0.30924387867E+03 -0.39170246170E+03  0.58488712555E+03  0.84380422213E+02 0.  0.
         23    2    4    4    0    0 -0.97779607098E+01 -0.54847878666E+02  0.39786853187E+03  0.41181927710E+03  0.90508839494E+02 0.  0.
          1    1    3    3  502    0  0.22720706640E+03 -0.17469024909E+03 -0.26159912408E+02  0.28779172185E+03  0.00000000000E+00 0. -1.
         -2    1    3    3    0  502  0.75675481432E+02 -0.79705750917E+02 -0.64587641114E+02  0.12748077739E+03  0.00000000000E+00 0.  1.
         11    1    5    5    0    0 -0.11470462990E+03  0.16285089516E+03 -0.22309154711E+03  0.29907758954E+03  0.00000000000E+00 0. -1.
        -11    1    5    5    0    0 -0.17839995722E+03  0.14639298351E+03 -0.16861091459E+03  0.28580953601E+03  0.00000000000E+00 0.  1.
          4    1    6    6  503    0 -0.84956987416E+01 -0.10713994363E+02  0.33340249750E+03  0.33368277137E+03  0.00000000000E+00 0. -1.
         -4    1    6    6    0  503 -0.12822619683E+01 -0.44133884303E+02  0.64466034376E+02  0.78136505730E+02  0.00000000000E+00 0.  1.
<mgrwt>
<rscale>  0 0.14094433E+04</rscale>
<asrwt>0</asrwt>
<pdfrwt beam="1">  1        3 0.11512003E+00 0.14094433E+04</pdfrwt>
<pdfrwt beam="2">  1       -2 0.10210749E+00 0.14094433E+04</pdfrwt>
<totfact> 0.19852815E+00</totfact>
</mgrwt>
</event>
<event>
12    4  0.4320235E-008  0.1788535E+04  0.7818608E-02  0.8712420E-01
         -2   -1    0    0    0  501 -0.00000000000E+00  0.00000000000E+00  0.55488454127E+03  0.55488454127E+03  0.00000000000E+00 0.  1.
          1   -1    0    0  501    0  0.00000000000E+00 -0.00000000000E+00 -0.14412272583E+04  0.14412272583E+04  0.00000000000E+00 0. -1.
        -24    2    1    2    0    0  0.32902119482E+01 -0.16440347172E+03 -0.10559867075E+04  0.10716995774E+04  0.79954554516E+02 0.  0.
        254    2    1    2    0    0 -0.32902119482E+01  0.16440347172E+03  0.16964399048E+03  0.92441222215E+03  0.89371110877E+03 0.  0.
         23    2    4    4    0    0 -0.72316298951E+02  0.18323271189E+03  0.51499815867E+03  0.56036422357E+03  0.99905384352E+02 0.  0.
         23    2    4    4    0    0  0.69026087002E+02 -0.18829240166E+02 -0.34535416819E+03  0.36404799858E+03  0.90234709580E+02 0.  0.
          1    1    3    3  502    0  0.11645587312E+02 -0.98555738567E+02 -0.83732166933E+03  0.84318232384E+03  0.00000000000E+00 0. -1.
         -2    1    3    3    0  502 -0.83553753636E+01 -0.65847733154E+02 -0.21866503815E+03  0.22851725355E+03  0.00000000000E+00 0.  1.
         11    1    5    5    0    0 -0.69821804113E+02  0.11093579319E+03  0.42579929045E+03  0.44551865313E+03  0.00000000000E+00 0. -1.
        -11    1    5    5    0    0 -0.24944948375E+01  0.72296918694E+02  0.89198868221E+02  0.11484557044E+03  0.00000000000E+00 0.  1.
          4    1    6    6  503    0  0.86785799563E+02  0.21628907267E+01 -0.24205675811E+03  0.25715350911E+03  0.00000000000E+00 0. -1.
         -4    1    6    6    0  503 -0.17759712561E+02 -0.20992130893E+02 -0.10329741007E+03  0.10689448946E+03  0.00000000000E+00 0.  1.
<mgrwt>
<rscale>  0 0.17885354E+04</rscale>
<asrwt>0</asrwt>
<pdfrwt beam="1">  1        1 0.22172727E+00 0.17885354E+04</pdfrwt>
<pdfrwt beam="2">  1       -2 0.85366854E-01 0.17885354E+04</pdfrwt>
<totfact> 0.71083648E+00</totfact>
</mgrwt>
</event>
<event>
12    4  0.4320235E-008  0.1230336E+04  0.7818608E-02  0.9086710E-01
          1   -1    0    0  501    0  0.00000000000E+00  0.00000000000E+00  0.65264837980E+03  0.65264837980E+03  0.00000000000E+00 0. -1.
         -2   -1    0    0    0  501 -0.00000000000E+00 -0.00000000000E+00 -0.57984050933E+03  0.57984050933E+03  0.00000000000E+00 0.  1.
        -24    2    1    2    0    0  0.96724814176E+02  0.68788447127E+02  0.27750775594E+03  0.31243820076E+03  0.80743634753E+02 0.  0.
        254    2    1    2    0    0 -0.96724814176E+02 -0.68788447127E+02 -0.20469988547E+03  0.92005068837E+03  0.88910274205E+03 0.  0.
         23    2    4    4    0    0  0.17039093116E+03  0.69697573848E+02  0.27717464305E+03  0.34484450887E+03  0.90560097841E+02 0.  0.
         23    2    4    4    0    0 -0.26711574534E+03 -0.13848602097E+03 -0.48187452852E+03  0.57520617950E+03  0.90165893127E+02 0.  0.
          3    1    3    3  502    0  0.90862106278E+02  0.53893101497E+02  0.14739294165E+03  0.18134240540E+03  0.00000000000E+00 0. -1.
         -4    1    3    3    0  502  0.58627078988E+01  0.14895345630E+02  0.13011481429E+03  0.13109579537E+03  0.00000000000E+00 0.  1.
         11    1    5    5    0    0  0.46138426875E+02  0.94248040938E+01  0.16590387129E+02  0.49928171524E+02  0.00000000000E+00 0.  1.
        -11    1    5    5    0    0  0.12425250429E+03  0.60272769754E+02  0.26058425592E+03  0.29491633734E+03  0.00000000000E+00 0. -1.
          4    1    6    6  503    0 -0.16440484214E+03 -0.35727138506E+02 -0.24124966673E+03  0.29412035333E+03  0.00000000000E+00 0.  1.
         -4    1    6    6    0  503 -0.10271090320E+03 -0.10275888247E+03 -0.24062486179E+03  0.28108582617E+03  0.00000000000E+00 0. -1.
<mgrwt>
<rscale>  0 0.12303365E+04</rscale>
<asrwt>0</asrwt>
<pdfrwt beam="1">  1        1 0.10040744E+00 0.12303365E+04</pdfrwt>
<pdfrwt beam="2">  1       -2 0.89206233E-01 0.12303365E+04</pdfrwt>
<totfact> 0.28237890E+01</totfact>
</mgrwt>
</event>
<event>
12    4  0.4320235E-008  0.2997571E+04  0.7818608E-02  0.8244425E-01
          1   -1    0    0  501    0  0.00000000000E+00  0.00000000000E+00  0.12244160907E+04  0.12244160907E+04  0.00000000000E+00 0. -1.
         -2   -1    0    0    0  501 -0.00000000000E+00 -0.00000000000E+00 -0.18346366537E+04  0.18346366537E+04  0.00000000000E+00 0.  1.
        -24    2    1    2    0    0 -0.12992496873E+04  0.23021312475E+03  0.75617184786E+02  0.13251529345E+04  0.96252316803E+02 0.  0.
        254    2    1    2    0    0  0.12992496873E+04 -0.23021312475E+03 -0.68583774784E+03  0.17338998098E+04  0.89162060392E+03 0.  0.
         23    2    4    4    0    0  0.14020513020E+04 -0.26389652672E+03 -0.53449324499E+03  0.15261480531E+04  0.89753109206E+02 0.  0.
         23    2    4    4    0    0 -0.10280161471E+03  0.33683401971E+02 -0.15134450285E+03  0.20775175675E+03  0.92481837858E+02 0.  0.
          3    1    3    3  502    0 -0.11830621535E+04  0.21052093964E+03  0.96330787804E+02  0.12055018647E+04  0.00000000000E+00 0. -1.
         -4    1    3    3    0  502 -0.11618753382E+03  0.19692185110E+02 -0.20713603018E+02  0.11965106986E+03  0.00000000000E+00 0.  1.
         11    1    5    5    0    0  0.88703483006E+03 -0.19807809708E+03 -0.37256119040E+03  0.98227672418E+03  0.00000000000E+00 0. -1.
        -11    1    5    5    0    0  0.51501647197E+03 -0.65818429642E+02 -0.16193205459E+03  0.54387132889E+03  0.00000000000E+00 0.  1.
          4    1    6    6  503    0 -0.77294412191E+02  0.35626178863E+02 -0.40980623910E+02  0.94461962252E+02  0.00000000000E+00 0. -1.
         -4    1    6    6    0  503 -0.25507202521E+02 -0.19427768919E+01 -0.11036387894E+03  0.11328979450E+03  0.00000000000E+00 0.  1.
<mgrwt>
<rscale>  0 0.29975714E+04</rscale>
<asrwt>0</asrwt>
<pdfrwt beam="1">  1        1 0.18837171E+00 0.29975714E+04</pdfrwt>
<pdfrwt beam="2">  1       -2 0.28225179E+00 0.29975714E+04</pdfrwt>
<totfact> 0.31266114E-01</totfact>
</mgrwt>
</event>
<event>
12    4  0.4320235E-008  0.1884955E+04  0.7818608E-02  0.8662382E-01
          1   -1    0    0  501    0  0.00000000000E+00  0.00000000000E+00  0.74754567382E+03  0.74754567382E+03  0.00000000000E+00 0. -1.
         -2   -1    0    0    0  501 -0.00000000000E+00 -0.00000000000E+00 -0.11882401614E+04  0.11882401614E+04  0.00000000000E+00 0.  1.
        -24    2    1    2    0    0  0.61033084679E+03 -0.18729385378E+03  0.19058940509E+03  0.67097457184E+03  0.79371433862E+02 0.  0.
        254    2    1    2    0    0 -0.61033084679E+03  0.18729385378E+03 -0.63128389263E+03  0.12648112633E+04  0.89086780644E+03 0.  0.
         23    2    4    4    0    0 -0.10644956487E+03  0.35410281500E+02 -0.71024815453E+03  0.72517271047E+03  0.94008622467E+02 0.  0.
         23    2    4    4    0    0 -0.50388128192E+03  0.15188357228E+03  0.78964261901E+02  0.53963855286E+03  0.89495515417E+02 0.  0.
          3    1    3    3  502    0  0.55637488847E+03 -0.16834078173E+03  0.19622135150E+03  0.61350994621E+03  0.00000000000E+00 0. -1.
         -4    1    3    3    0  502  0.53955958323E+02 -0.18953072050E+02 -0.56319464073E+01  0.57464625632E+02  0.00000000000E+00 0.  1.
         11    1    5    5    0    0 -0.34026683926E+02  0.25853582837E+02 -0.79940935211E+02  0.90646434496E+02  0.00000000000E+00 0.  1.
        -11    1    5    5    0    0 -0.72422880944E+02  0.95566986635E+01 -0.63030721932E+03  0.63452627598E+03  0.00000000000E+00 0. -1.
          4    1    6    6  503    0 -0.32354400633E+03  0.68442926384E+02  0.15588812883E+02  0.33107124504E+03  0.00000000000E+00 0. -1.
         -4    1    6    6    0  503 -0.18033727559E+03  0.83440645897E+02  0.63375449018E+02  0.20856730783E+03  0.00000000000E+00 0.  1.
<mgrwt>
<rscale>  0 0.18849550E+04</rscale>
<asrwt>0</asrwt>
<pdfrwt beam="1">  1        1 0.11500703E+00 0.18849550E+04</pdfrwt>
<pdfrwt beam="2">  1       -2 0.18280618E+00 0.18849550E+04</pdfrwt>
<totfact> 0.35017065E+00</totfact>
</mgrwt>
</event>
<event>
12    4  0.4320235E-008  0.1619211E+04  0.7818608E-02  0.8808832E-01
         -2   -1    0    0    0  501 -0.00000000000E+00  0.00000000000E+00  0.28113039432E+03  0.28113039432E+03  0.00000000000E+00 0.  1.
          1   -1    0    0  501    0  0.00000000000E+00 -0.00000000000E+00 -0.23315206468E+04  0.23315206468E+04  0.00000000000E+00 0. -1.
        -24    2    1    2    0    0 -0.24568175554E+03 -0.43022482421E+03 -0.29202777606E+03  0.58062142479E+03  0.79925543864E+02 0.  0.
        254    2    1    2    0    0  0.24568175554E+03  0.43022482421E+03 -0.17583624765E+04  0.20320296164E+04  0.88986113453E+03 0.  0.
         23    2    4    4    0    0  0.13455509556E+03 -0.65078768945E+02 -0.13836354663E+04  0.13946492499E+04  0.90879628011E+02 0.  0.
         23    2    4    4    0    0  0.11112665999E+03  0.49530359316E+03 -0.37472701017E+03  0.63738036645E+03  0.90325054248E+02 0.  0.
          3    1    3    3  502    0 -0.98988714182E+00 -0.45501182110E+02 -0.33185591125E+02  0.56326023366E+02  0.00000000000E+00 0. -1.
         -4    1    3    3    0  502 -0.24469186840E+03 -0.38472364210E+03 -0.25884218493E+03  0.52429540143E+03  0.00000000000E+00 0.  1.
         11    1    5    5    0    0  0.93483501250E+02 -0.36842595622E+02 -0.12052622486E+04  0.12094435207E+04  0.00000000000E+00 0. -1.
        -11    1    5    5    0    0  0.41071594306E+02 -0.28236173322E+02 -0.17837321764E+03  0.18520572916E+03  0.00000000000E+00 0.  1.
          3    1    6    6  503    0  0.33148601857E+02  0.19279100415E+03 -0.92555495953E+02  0.21641099999E+03  0.00000000000E+00 0. -1.
         -3    1    6    6    0  503  0.77978058132E+02  0.30251258901E+03 -0.28217151422E+03  0.42096936646E+03  0.00000000000E+00 0.  1.
<mgrwt>
<rscale>  0 0.16192113E+04</rscale>
<asrwt>0</asrwt>
<pdfrwt beam="1">  1        1 0.35869548E+00 0.16192113E+04</pdfrwt>
<pdfrwt beam="2">  1       -2 0.43250831E-01 0.16192113E+04</pdfrwt>
<totfact> 0.75600394E+00</totfact>
</mgrwt>
</event>
<event>
12    4  0.4320235E-008  0.1186678E+04  0.7818608E-02  0.9124598E-01
          1   -1    0    0  501    0  0.00000000000E+00  0.00000000000E+00  0.64076392509E+03  0.64076392509E+03  0.00000000000E+00 0. -1.
         -2   -1    0    0    0  501 -0.00000000000E+00 -0.00000000000E+00 -0.54942434152E+03  0.54942434152E+03  0.00000000000E+00 0.  1.
        -24    2    1    2    0    0 -0.18031417236E+03 -0.12881443140E+03  0.11236803807E+03  0.26089875871E+03  0.79594144424E+02 0.  0.
        254    2    1    2    0    0  0.18031417236E+03  0.12881443140E+03 -0.21028454498E+02  0.92928950791E+03  0.90223635213E+03 0.  0.
         23    2    4    4    0    0  0.39094235013E+03  0.67026630257E+02  0.31704163194E+03  0.51590005202E+03  0.91153590183E+02 0.  0.
         23    2    4    4    0    0 -0.21062817777E+03  0.61787801145E+02 -0.33807008644E+03  0.41338945589E+03  0.91746919586E+02 0.  0.
          3    1    3    3  502    0 -0.13699494726E+03 -0.13298085378E+03  0.81753388215E+02  0.20769000826E+03  0.00000000000E+00 0. -1.
         -4    1    3    3    0  502 -0.43319225100E+02  0.41664223800E+01  0.30614649854E+02  0.53208750449E+02  0.00000000000E+00 0.  1.
         11    1    5    5    0    0  0.16145393997E+03 -0.55857298521E+01  0.16652683204E+03  0.23201241539E+03  0.00000000000E+00 0.  1.
        -11    1    5    5    0    0  0.22948841016E+03  0.72612360109E+02  0.15051479990E+03  0.28388763663E+03  0.00000000000E+00 0. -1.
          4    1    6    6  503    0 -0.66388631072E+02  0.42549952491E+02 -0.58393480473E+02  0.98121085167E+02  0.00000000000E+00 0. -1.
         -4    1    6    6    0  503 -0.14423954670E+03  0.19237848654E+02 -0.27967660597E+03  0.31526837072E+03  0.00000000000E+00 0.  1.
<mgrwt>
<rscale>  0 0.11866782E+04</rscale>
<asrwt>0</asrwt>
<pdfrwt beam="1">  1        1 0.98579065E-01 0.11866782E+04</pdfrwt>
<pdfrwt beam="2">  1       -2 0.84526822E-01 0.11866782E+04</pdfrwt>
<totfact> 0.32932526E+01</totfact>
</mgrwt>
</event>
<event>
12    4  0.4320235E-008  0.3189995E+04  0.7818608E-02  0.8191464E-01
         -2   -1    0    0    0  501 -0.00000000000E+00  0.00000000000E+00  0.12762976459E+04  0.12762976459E+04  0.00000000000E+00 0.  1.
          1   -1    0    0  501    0  0.00000000000E+00 -0.00000000000E+00 -0.19932793740E+04  0.19932793740E+04  0.00000000000E+00 0. -1.
        -24    2    1    2    0    0 -0.87884892511E+02  0.11374114210E+03 -0.18241480386E+04  0.18316600498E+04  0.82472235093E+02 0.  0.
        254    2    1    2    0    0  0.87884892511E+02 -0.11374114210E+03  0.11071663105E+04  0.14379169700E+04  0.90616067663E+03 0.  0.
         23    2    4    4    0    0  0.22659544602E+02  0.25902937338E+03  0.13350351506E+02  0.27674393262E+03  0.93804590087E+02 0.  0.
         23    2    4    4    0    0  0.65225347909E+02 -0.37277051548E+03  0.10938159590E+04  0.11611730374E+04  0.93151851522E+02 0.  0.
          1    1    3    3  502    0 -0.84053939287E+02  0.12578393669E+03 -0.17405541896E+04  0.17471163528E+04  0.00000000000E+00 0. -1.
         -2    1    3    3    0  502 -0.38309532236E+01 -0.12042794592E+02 -0.83593849043E+02  0.84543696998E+02  0.00000000000E+00 0.  1.
         11    1    5    5    0    0  0.23902327895E+02  0.25569806320E+02  0.24964123966E+02  0.42992368619E+02  0.00000000000E+00 0. -1.
        -11    1    5    5    0    0 -0.12427832935E+01  0.23345956706E+03 -0.11613772461E+02  0.23375156400E+03  0.00000000000E+00 0.  1.
          2    1    6    6  503    0  0.24396856880E+02 -0.14360958547E+02  0.99316058702E+02  0.10327208370E+03  0.00000000000E+00 0. -1.
         -2    1    6    6    0  503  0.40828491029E+02 -0.35840955693E+03  0.99449990030E+03  0.10579009537E+04  0.00000000000E+00 0.  1.
<mgrwt>
<rscale>  0 0.31899955E+04</rscale>
<asrwt>0</asrwt>
<pdfrwt beam="1">  1        1 0.30665836E+00 0.31899955E+04</pdfrwt>
<pdfrwt beam="2">  1       -2 0.19635349E+00 0.31899955E+04</pdfrwt>
<totfact> 0.31168342E-01</totfact>
</mgrwt>
</event>
<event>
12    4  0.4320235E-008  0.2028360E+04  0.7818608E-02  0.8593475E-01
          1   -1    0    0  501    0  0.00000000000E+00  0.00000000000E+00  0.23171769315E+04  0.23171769315E+04  0.00000000000E+00 0. -1.
         -2   -1    0    0    0  501 -0.00000000000E+00 -0.00000000000E+00 -0.44388547801E+03  0.44388547801E+03  0.00000000000E+00 0.  1.
        -24    2    1    2    0    0 -0.66299899479E+02  0.16726660098E+03 -0.32778780998E+03  0.38237272061E+03  0.79939080711E+02 0.  0.
        254    2    1    2    0    0  0.66299899479E+02 -0.16726660098E+03  0.22010792635E+04  0.23786896889E+04  0.88376519479E+03 0.  0.
         23    2    4    4    0    0 -0.31854833684E+03 -0.20934733959E+03  0.52079175142E+03  0.65184671973E+03  0.91546415409E+02 0.  0.
         23    2    4    4    0    0  0.38484823632E+03  0.42080738615E+02  0.16802875120E+04  0.17268429692E+04  0.93496328647E+02 0.  0.
          1    1    3    3  502    0 -0.12233094520E+02  0.61461461499E+02 -0.49761704409E+02  0.80021166430E+02  0.00000000000E+00 0. -1.
         -2    1    3    3    0  502 -0.54066804960E+02  0.10580513948E+03 -0.27802610557E+03  0.30235155418E+03  0.00000000000E+00 0.  1.
         11    1    5    5    0    0 -0.77997307805E+02 -0.97691631942E+02  0.19692029275E+03  0.23324844410E+03  0.00000000000E+00 0.  1.
        -11    1    5    5    0    0 -0.24055102903E+03 -0.11165570765E+03  0.32387145867E+03  0.41859827563E+03  0.00000000000E+00 0. -1.
          2    1    6    6  503    0  0.36961123788E+03  0.31435651949E+02  0.16509718653E+04  0.16921314274E+04  0.00000000000E+00 0. -1.
         -2    1    6    6    0  503  0.15236998443E+02  0.10645086666E+02  0.29315646704E+02  0.34711541788E+02  0.00000000000E+00 0.  1.
<mgrwt>
<rscale>  0 0.20283601E+04</rscale>
<asrwt>0</asrwt>
<pdfrwt beam="1">  1        1 0.35648875E+00 0.20283601E+04</pdfrwt>
<pdfrwt beam="2">  1       -2 0.68290075E-01 0.20283601E+04</pdfrwt>
<totfact> 0.28893244E+00</totfact>
</mgrwt>
</event>
<event>
12    4  0.4320235E-008  0.2322389E+04  0.7818608E-02  0.8469145E-01
          1   -1    0    0  501    0  0.00000000000E+00  0.00000000000E+00  0.36266644188E+04  0.36266644188E+04  0.00000000000E+00 0. -1.
         -2   -1    0    0    0  501 -0.00000000000E+00 -0.00000000000E+00 -0.37179432065E+03  0.37179432065E+03  0.00000000000E+00 0.  1.
        -24    2    1    2    0    0 -0.59013499130E+03 -0.50478996114E+03  0.34537563478E+03  0.85369360708E+03  0.80226135735E+02 0.  0.
        254    2    1    2    0    0  0.59013499130E+03  0.50478996114E+03  0.29094944634E+04  0.31447651324E+04  0.90626568539E+03 0.  0.
         23    2    4    4    0    0  0.27609678577E+03  0.33397043582E+03  0.26666139984E+04  0.27029745222E+04  0.86460186313E+02 0.  0.
         23    2    4    4    0    0  0.31403820553E+03  0.17081952532E+03  0.24288046496E+03  0.44179061019E+03  0.91589946165E+02 0.  0.
          3    1    3    3  502    0 -0.17890357738E+03 -0.20324994639E+03  0.11952062520E+03  0.29597670610E+03  0.00000000000E+00 0. -1.
         -4    1    3    3    0  502 -0.41123141392E+03 -0.30154001475E+03  0.22585500958E+03  0.55771690098E+03  0.00000000000E+00 0.  1.
         11    1    5    5    0    0  0.19352414452E+03  0.16944376392E+03  0.14869544695E+04  0.15090382295E+04  0.00000000000E+00 0. -1.
        -11    1    5    5    0    0  0.82572641253E+02  0.16452667190E+03  0.11796595289E+04  0.11939362927E+04  0.00000000000E+00 0.  1.
          2    1    6    6  503    0  0.16233895395E+03  0.61862184683E+02  0.70038423152E+02  0.18731323120E+03  0.00000000000E+00 0. -1.
         -2    1    6    6    0  503  0.15169925158E+03  0.10895734063E+03  0.17284204180E+03  0.25447737900E+03  0.00000000000E+00 0.  1.
<mgrwt>
<rscale>  0 0.23223895E+04</rscale>
<asrwt>0</asrwt>
<pdfrwt beam="1">  1        1 0.55794835E+00 0.23223895E+04</pdfrwt>
<pdfrwt beam="2">  1       -2 0.57199129E-01 0.23223895E+04</pdfrwt>
<totfact> 0.45078540E-01</totfact>
</mgrwt>
</event>
<event>
12    4  0.4320235E-008  0.2812840E+04  0.7818608E-02  0.8299293E-01
          1   -1    0    0  501    0  0.00000000000E+00  0.00000000000E+00  0.17551810379E+04  0.17551810379E+04  0.00000000000E+00 0. -1.
         -2   -1    0    0    0  501 -0.00000000000E+00 -0.00000000000E+00 -0.11269589328E+04  0.11269589328E+04  0.00000000000E+00 0.  1.
        -24    2    1    2    0    0 -0.64987489757E+03 -0.10190879591E+04 -0.88683334817E+02  0.12143409954E+04  0.76692035486E+02 0.  0.
        254    2    1    2    0    0  0.64987489757E+03  0.10190879591E+04  0.71690543998E+03  0.16677989753E+04  0.89817724371E+03 0.  0.
         23    2    4    4    0    0  0.64538362847E+03  0.20011832478E+03  0.31846740832E+03  0.75254000757E+03  0.91255690340E+02 0.  0.
         23    2    4    4    0    0  0.44912690966E+01  0.81896963435E+03  0.39843803166E+03  0.91525896770E+03  0.90634868589E+02 0.  0.
          3    1    3    3  502    0 -0.61974319418E+02 -0.10467909698E+03 -0.31919857849E+02  0.12576727292E+03  0.00000000000E+00 0. -1.
         -4    1    3    3    0  502 -0.58790057815E+03 -0.91440886215E+03 -0.56763476968E+02  0.10885737225E+04  0.00000000000E+00 0.  1.
         11    1    5    5    0    0  0.30626150740E+03  0.67910968405E+02  0.10622435305E+03  0.33119725803E+03  0.00000000000E+00 0.  1.
        -11    1    5    5    0    0  0.33912212107E+03  0.13220735638E+03  0.21224305528E+03  0.42134274954E+03  0.00000000000E+00 0. -1.
          3    1    6    6  503    0 -0.27422322799E+02  0.69674213265E+03  0.32724398224E+03  0.77025333956E+03  0.00000000000E+00 0. -1.
         -3    1    6    6    0  503  0.31913591896E+02  0.12222750170E+03  0.71194049415E+02  0.14500562814E+03  0.00000000000E+00 0.  1.
<mgrwt>
<rscale>  0 0.28128398E+04</rscale>
<asrwt>0</asrwt>
<pdfrwt beam="1">  1        1 0.27002785E+00 0.28128398E+04</pdfrwt>
<pdfrwt beam="2">  1       -2 0.17337830E+00 0.28128398E+04</pdfrwt>
<totfact> 0.66990963E-01</totfact>
</mgrwt>
</event>
<event>
12    4  0.4320235E-008  0.3594915E+04  0.7818608E-02  0.8091657E-01
         -2   -1    0    0    0  501 -0.00000000000E+00  0.00000000000E+00  0.13038156547E+04  0.13038156547E+04  0.00000000000E+00 0.  1.
          1   -1    0    0  501    0  0.00000000000E+00 -0.00000000000E+00 -0.24779988772E+04  0.24779988772E+04  0.00000000000E+00 0. -1.
        -24    2    1    2    0    0 -0.82943651280E+03  0.11406724376E+04  0.41508969307E+03  0.14723196505E+04  0.79543456047E+02 0.  0.
        254    2    1    2    0    0  0.82943651280E+03 -0.11406724376E+04 -0.15892729156E+04  0.23094948813E+04  0.90491970246E+03 0.  0.
         23    2    4    4    0    0  0.23590176882E+03 -0.93068053616E+03 -0.60908596287E+03  0.11409883716E+04  0.95146461326E+02 0.  0.
         23    2    4    4    0    0  0.59353474398E+03 -0.20999190142E+03 -0.98018695271E+03  0.11685065097E+04  0.90889547792E+02 0.  0.
          1    1    3    3  502    0 -0.57692780259E+03  0.79280221015E+03  0.32649220014E+03  0.10334303027E+04  0.00000000000E+00 0. -1.
         -2    1    3    3    0  502 -0.25250871020E+03  0.34787022743E+03  0.88597492934E+02  0.43888934781E+03  0.00000000000E+00 0.  1.
         11    1    5    5    0    0  0.12623583057E+03 -0.33362298308E+03 -0.19975562498E+03  0.40883014746E+03  0.00000000000E+00 0.  1.
        -11    1    5    5    0    0  0.10966593825E+03 -0.59705755309E+03 -0.40933033789E+03  0.73215822417E+03  0.00000000000E+00 0. -1.
          4    1    6    6  503    0  0.18264879597E+03 -0.10929259854E+03 -0.34262556101E+03  0.40335806652E+03  0.00000000000E+00 0.  1.
         -4    1    6    6    0  503  0.41088594801E+03 -0.10069930288E+03 -0.63756139169E+03  0.76514844315E+03  0.00000000000E+00 0. -1.
<mgrwt>
<rscale>  0 0.35949151E+04</rscale>
<asrwt>0</asrwt>
<pdfrwt beam="1">  1        1 0.38123060E+00 0.35949151E+04</pdfrwt>
<pdfrwt beam="2">  1       -2 0.20058702E+00 0.35949151E+04</pdfrwt>
<totfact> 0.13172828E-01</totfact>
</mgrwt>
</event>
<event>
12    4  0.4320235E-008  0.1306198E+04  0.7818608E-02  0.9024665E-01
          1   -1    0    0  501    0  0.00000000000E+00  0.00000000000E+00  0.62955085407E+03  0.62955085407E+03  0.00000000000E+00 0. -1.
         -2   -1    0    0    0  501 -0.00000000000E+00 -0.00000000000E+00 -0.67752776456E+03  0.67752776456E+03  0.00000000000E+00 0.  1.
        -24    2    1    2    0    0  0.16095607392E+03  0.79657853507E+02  0.24337909025E+03  0.31291622849E+03  0.80193223670E+02 0.  0.
        254    2    1    2    0    0 -0.16095607392E+03 -0.79657853507E+02 -0.29135600074E+03  0.99416239015E+03  0.93339075819E+03 0.  0.
         23    2    4    4    0    0 -0.40977231050E+03 -0.35090125495E+03 -0.61643522660E+02  0.55093175790E+03  0.93171029808E+02 0.  0.
         23    2    4    4    0    0  0.24881623657E+03  0.27124340145E+03 -0.22971247808E+03  0.44323063225E+03  0.90570792039E+02 0.  0.
          1    1    3    3  502    0  0.13995288167E+03  0.71969905419E+02  0.24422070378E+03  0.29053438442E+03  0.00000000000E+00 0. -1.
         -2    1    3    3    0  502  0.21003192248E+02  0.76879480886E+01 -0.84161353482E+00  0.22381844066E+02  0.00000000000E+00 0.  1.
         11    1    5    5    0    0 -0.24791728309E+03 -0.22211324973E+03 -0.82814887393E+02  0.34300959248E+03  0.00000000000E+00 0. -1.
        -11    1    5    5    0    0 -0.16185502741E+03 -0.12878800522E+03  0.21171364733E+02  0.20792216542E+03  0.00000000000E+00 0.  1.
          1    1    6    6  503    0  0.21300020942E+03  0.25349675634E+03 -0.23018657776E+03  0.40325619061E+03  0.00000000000E+00 0. -1.
         -1    1    6    6    0  503  0.35816027154E+02  0.17746645112E+02  0.47409968595E+00  0.39974441639E+02  0.00000000000E+00 0.  1.
<mgrwt>
<rscale>  0 0.13061978E+04</rscale>
<asrwt>0</asrwt>
<pdfrwt beam="1">  1        1 0.96853978E-01 0.13061978E+04</pdfrwt>
<pdfrwt beam="2">  1       -2 0.10423504E+00 0.13061978E+04</pdfrwt>
<totfact> 0.20532897E+01</totfact>
</mgrwt>
</event>
<event>
12    4  0.4320235E-008  0.2098062E+04  0.7818608E-02  0.8562098E-01
         -2   -1    0    0    0  501 -0.00000000000E+00  0.00000000000E+00  0.10523350044E+04  0.10523350044E+04  0.00000000000E+00 0.  1.
          1   -1    0    0  501    0  0.00000000000E+00 -0.00000000000E+00 -0.10457369408E+04  0.10457369408E+04  0.00000000000E+00 0. -1.
        -24    2    1    2    0    0 -0.48393776869E+03  0.68995295310E+03 -0.11886054959E+03  0.85418337986E+03  0.72598723928E+02 0.  0.
        254    2    1    2    0    0  0.48393776869E+03 -0.68995295310E+03  0.12545861326E+03  0.12438885653E+04  0.90624944571E+03 0.  0.
         23    2    4    4    0    0 -0.25667358362E+03 -0.14976798734E+03 -0.22635153385E+02  0.31090931975E+03  0.88546464529E+02 0.  0.
         23    2    4    4    0    0  0.74061135231E+03 -0.54018496576E+03  0.14809376664E+03  0.93297924558E+03  0.90628563685E+02 0.  0.
          1    1    3    3  502    0 -0.24904450726E+03  0.33488389157E+03 -0.93578320245E+02  0.42769999936E+03  0.00000000000E+00 0. -1.
         -2    1    3    3    0  502 -0.23489326143E+03  0.35506906153E+03 -0.25282229341E+02  0.42648338050E+03  0.00000000000E+00 0.  1.
         11    1    5    5    0    0 -0.77308602319E+02 -0.13211730245E+02 -0.33344716169E+02  0.85223470388E+02  0.00000000000E+00 0.  1.
        -11    1    5    5    0    0 -0.17936498130E+03 -0.13655625709E+03  0.10709562784E+02  0.22568584936E+03  0.00000000000E+00 0. -1.
          2    1    6    6  503    0  0.30952081323E+03 -0.17225167439E+03  0.48233540259E+02  0.35749160488E+03  0.00000000000E+00 0. -1.
         -2    1    6    6    0  503  0.43109053907E+03 -0.36793329137E+03  0.99860226383E+02  0.57548764070E+03  0.00000000000E+00 0.  1.
<mgrwt>
<rscale>  0 0.20980616E+04</rscale>
<asrwt>0</asrwt>
<pdfrwt beam="1">  1        1 0.16088261E+00 0.20980616E+04</pdfrwt>
<pdfrwt beam="2">  1       -2 0.16189769E+00 0.20980616E+04</pdfrwt>
<totfact> 0.27428435E+00</totfact>
</mgrwt>
</event>
<event>
12    4  0.4320235E-008  0.1462065E+04  0.7818608E-02  0.8910078E-01
          1   -1    0    0  501    0  0.00000000000E+00  0.00000000000E+00  0.15801553441E+04  0.15801553441E+04  0.00000000000E+00 0. -1.
         -2   -1    0    0    0  501 -0.00000000000E+00 -0.00000000000E+00 -0.33820009493E+03  0.33820009493E+03  0.00000000000E+00 0.  1.
        -24    2    1    2    0    0 -0.15428206114E+03  0.51618187456E+02 -0.16136108043E+03  0.24259776017E+03  0.79679880135E+02 0.  0.
        254    2    1    2    0    0  0.15428206114E+03 -0.51618187456E+02  0.14033163296E+04  0.16757576789E+04  0.90133217279E+03 0.  0.
         23    2    4    4    0    0  0.44958661405E+03 -0.10941353767E+03  0.38053528907E+03  0.60566721267E+03  0.89029323975E+02 0.  0.
         23    2    4    4    0    0 -0.29530455290E+03  0.57795350219E+02  0.10227810406E+04  0.10700904662E+04  0.92018843105E+02 0.  0.
          1    1    3    3  502    0 -0.80024927349E+02 -0.83737922135E+01 -0.45361070029E+02  0.92367397211E+02  0.00000000000E+00 0. -1.
         -2    1    3    3    0  502 -0.74257133794E+02  0.59991979669E+02 -0.11600001040E+03  0.15023036296E+03  0.00000000000E+00 0.  1.
         11    1    5    5    0    0  0.37366657320E+03 -0.11810807921E+03  0.29198972441E+03  0.48870668653E+03  0.00000000000E+00 0.  1.
        -11    1    5    5    0    0  0.75920040850E+02  0.86945415390E+01  0.88545564654E+02  0.11696052614E+03  0.00000000000E+00 0. -1.
          3    1    6    6  503    0 -0.78846835538E+02 -0.25192642015E+02  0.25942171414E+03  0.27230702975E+03  0.00000000000E+00 0. -1.
         -3    1    6    6    0  503 -0.21645771737E+03  0.82987992234E+02  0.76335932643E+03  0.79778343647E+03  0.00000000000E+00 0.  1.
<mgrwt>
<rscale>  0 0.14620652E+04</rscale>
<asrwt>0</asrwt>
<pdfrwt beam="1">  1        1 0.24310082E+00 0.14620652E+04</pdfrwt>
<pdfrwt beam="2">  1       -2 0.52030785E-01 0.14620652E+04</pdfrwt>
<totfact> 0.17099975E+01</totfact>
</mgrwt>
</event>
<event>
12    4  0.4320235E-008  0.2253919E+04  0.7818608E-02  0.8496315E-01
         -2   -1    0    0    0  501 -0.00000000000E+00  0.00000000000E+00  0.88089416492E+03  0.88089416492E+03  0.00000000000E+00 0.  1.
          1   -1    0    0  501    0  0.00000000000E+00 -0.00000000000E+00 -0.14417594233E+04  0.14417594233E+04  0.00000000000E+00 0. -1.
        -24    2    1    2    0    0 -0.53752244317E+03 -0.33569785068E+03 -0.96107684337E+03  0.11539452396E+04  0.79356747265E+02 0.  0.
        254    2    1    2    0    0  0.53752244317E+03  0.33569785068E+03  0.40021158501E+03  0.11687083486E+04  0.89670868590E+03 0.  0.
         23    2    4    4    0    0 -0.82711603956E+02  0.34981199182E+03  0.39464566654E+03  0.54150205659E+03  0.90937539650E+02 0.  0.
         23    2    4    4    0    0  0.62023404713E+03 -0.14114141142E+02  0.55659184684E+01  0.62720629198E+03  0.92017775738E+02 0.  0.
          3    1    3    3  502    0 -0.28323918927E+03 -0.16554924548E+03 -0.56656045437E+03  0.65469209517E+03  0.00000000000E+00 0. -1.
         -4    1    3    3    0  502 -0.25428325390E+03 -0.17014860520E+03 -0.39451638900E+03  0.49925314446E+03  0.00000000000E+00 0.  1.
         11    1    5    5    0    0 -0.91328284991E+02  0.20632838284E+03  0.26368638216E+03  0.34704864982E+03  0.00000000000E+00 0.  1.
        -11    1    5    5    0    0  0.86166810355E+01  0.14348360897E+03  0.13095928438E+03  0.19445340677E+03  0.00000000000E+00 0. -1.
          1    1    6    6  503    0  0.25908893661E+03 -0.43395075496E+02 -0.23293268553E+02  0.26372862190E+03  0.00000000000E+00 0. -1.
         -1    1    6    6    0  503  0.36114511052E+03  0.29280934355E+02  0.28859187022E+02  0.36347767007E+03  0.00000000000E+00 0.  1.
<mgrwt>
<rscale>  0 0.22539188E+04</rscale>
<asrwt>0</asrwt>
<pdfrwt beam="1">  1        1 0.22180914E+00 0.22539188E+04</pdfrwt>
<pdfrwt beam="2">  1       -2 0.13552218E+00 0.22539188E+04</pdfrwt>
<totfact> 0.22350209E+00</totfact>
</mgrwt>
</event>
<event>
12    4  0.4320235E-008  0.1273507E+04  0.7818608E-02  0.9050843E-01
         -2   -1    0    0    0  501 -0.00000000000E+00  0.00000000000E+00  0.34079011620E+03  0.34079011620E+03  0.00000000000E+00 0.  1.
          1   -1    0    0  501    0  0.00000000000E+00 -0.00000000000E+00 -0.11897490120E+04  0.11897490120E+04  0.00000000000E+00 0. -1.
        -24    2    1    2    0    0 -0.29420834485E+03 -0.93480133863E+02 -0.19563463322E+03  0.37380948196E+03  0.78508174590E+02 0.  0.
        254    2    1    2    0    0  0.29420834485E+03  0.93480133863E+02 -0.65332426263E+03  0.11567296463E+04  0.90326839690E+03 0.  0.
         23    2    4    4    0    0 -0.75925434027E+02  0.42437122386E+03 -0.22423407498E+03  0.49425869861E+03  0.90305778275E+02 0.  0.
         23    2    4    4    0    0  0.37013377888E+03 -0.33089109000E+03 -0.42909018764E+03  0.66247094768E+03  0.90892462131E+02 0.  0.
          1    1    3    3  502    0 -0.39505976766E+01  0.23996133980E+01  0.60298988041E+01  0.75977000500E+01  0.00000000000E+00 0. -1.
         -4    1    3    3    0  502 -0.29025774718E+03 -0.95879747261E+02 -0.20166453203E+03  0.36621178191E+03  0.00000000000E+00 0.  1.
         11    1    5    5    0    0 -0.18614863573E+02  0.15233114600E+02 -0.27929855657E+02  0.36859703787E+02  0.00000000000E+00 0.  1.
        -11    1    5    5    0    0 -0.57310570454E+02  0.40913810926E+03 -0.19630421933E+03  0.45739899482E+03  0.00000000000E+00 0. -1.
          2    1    6    6  503    0  0.24878486791E+03 -0.26370409404E+03 -0.34384547327E+03  0.49966335588E+03  0.00000000000E+00 0. -1.
         -2    1    6    6    0  503  0.12134891097E+03 -0.67186995957E+02 -0.85244714372E+02  0.16280759180E+03  0.00000000000E+00 0.  1.
<mgrwt>
<rscale>  0 0.12735065E+04</rscale>
<asrwt>0</asrwt>
<pdfrwt beam="1">  1        1 0.18303831E+00 0.12735065E+04</pdfrwt>
<pdfrwt beam="2">  1       -2 0.52429249E-01 0.12735065E+04</pdfrwt>
<totfact> 0.32223842E+01</totfact>
</mgrwt>
</event>
<event>
12    4  0.4320235E-008  0.1621522E+04  0.7818608E-02  0.8807435E-01
          1   -1    0    0  501    0  0.00000000000E+00  0.00000000000E+00  0.14481648504E+04  0.14481648504E+04  0.00000000000E+00 0. -1.
         -2   -1    0    0    0  501 -0.00000000000E+00 -0.00000000000E+00 -0.45390759889E+03  0.45390759889E+03  0.00000000000E+00 0.  1.
        -24    2    1    2    0    0 -0.37237734865E+03 -0.39887596974E+03  0.41984244442E+03  0.69320400521E+03  0.80605121918E+02 0.  0.
        254    2    1    2    0    0  0.37237734865E+03  0.39887596974E+03  0.57441480705E+03  0.12088684440E+04  0.91304086185E+03 0.  0.
         23    2    4    4    0    0  0.39137905109E+03 -0.29531751229E+02  0.64943548145E+03  0.76402208011E+03  0.88958464194E+02 0.  0.
         23    2    4    4    0    0 -0.19001702443E+02  0.42840772096E+03 -0.75020674402E+02  0.44484636393E+03  0.91465544535E+02 0.  0.
          1    1    3    3  502    0 -0.51521863996E+02 -0.20638885717E+02  0.38265332259E+02  0.67414402958E+02  0.00000000000E+00 0. -1.
         -2    1    3    3    0  502 -0.32085548466E+03 -0.37823708402E+03  0.38157711216E+03  0.62578960225E+03  0.00000000000E+00 0.  1.
         11    1    5    5    0    0  0.30398352364E+03 -0.35054194403E+02  0.56409415628E+03  0.64174527372E+03  0.00000000000E+00 0.  1.
        -11    1    5    5    0    0  0.87395527457E+02  0.55224431749E+01  0.85341325169E+02  0.12227680639E+03  0.00000000000E+00 0. -1.
          4    1    6    6  503    0 -0.52843162351E+02  0.31772386914E+03 -0.44497536763E+02  0.32514748593E+03  0.00000000000E+00 0. -1.
         -4    1    6    6    0  503  0.33841459908E+02  0.11068385183E+03 -0.30523137638E+02  0.11969887800E+03  0.00000000000E+00 0.  1.
<mgrwt>
<rscale>  0 0.16215215E+04</rscale>
<asrwt>0</asrwt>
<pdfrwt beam="1">  1        1 0.22279459E+00 0.16215215E+04</pdfrwt>
<pdfrwt beam="2">  1       -2 0.69831939E-01 0.16215215E+04</pdfrwt>
<totfact> 0.11163781E+01</totfact>
</mgrwt>
</event>
<event>
12    4  0.4320235E-008  0.1463195E+04  0.7818608E-02  0.8909304E-01
         -2   -1    0    0    0  501 -0.00000000000E+00  0.00000000000E+00  0.47430703266E+03  0.47430703266E+03  0.00000000000E+00 0.  1.
          1   -1    0    0  501    0  0.00000000000E+00 -0.00000000000E+00 -0.11284561592E+04  0.11284561592E+04  0.00000000000E+00 0. -1.
        -24    2    1    2    0    0  0.25267996302E+03 -0.35371949585E+03 -0.80601777598E+02  0.44934363879E+03  0.80302015643E+02 0.  0.
        254    2    1    2    0    0 -0.25267996302E+03  0.35371949585E+03 -0.57354734899E+03  0.11534195531E+04  0.90136311136E+03 0.  0.
         23    2    4    4    0    0  0.13685523584E+03  0.27357617860E+03 -0.66225581448E+03  0.73501720544E+03  0.89968035453E+02 0.  0.
         23    2    4    4    0    0 -0.38953519886E+03  0.80143317254E+02  0.88708465495E+02  0.41840234768E+03  0.95030049160E+02 0.  0.
          3    1    3    3  502    0  0.89955197945E+01 -0.55834495550E+02 -0.23173197961E+01  0.56601945556E+02  0.00000000000E+00 0. -1.
         -4    1    3    3    0  502  0.24368444322E+03 -0.29788500030E+03 -0.78284457802E+02  0.39274169324E+03  0.00000000000E+00 0.  1.
         11    1    5    5    0    0  0.20852631207E+01  0.16087583814E+01 -0.65054436758E+02  0.65107727404E+02  0.00000000000E+00 0.  1.
        -11    1    5    5    0    0  0.13476997272E+03  0.27196742021E+03 -0.59720137772E+03  0.66990947803E+03  0.00000000000E+00 0. -1.
          3    1    6    6  503    0 -0.33585648672E+03  0.97988195241E+02  0.91956588465E+02  0.36174200784E+03  0.00000000000E+00 0. -1.
         -3    1    6    6    0  503 -0.53678712144E+02 -0.17844877987E+02 -0.32481229703E+01  0.56660339838E+02  0.00000000000E+00 0.  1.
<mgrwt>
<rscale>  0 0.14631947E+04</rscale>
<asrwt>0</asrwt>
<pdfrwt beam="1">  1        1 0.17360864E+00 0.14631947E+04</pdfrwt>
<pdfrwt beam="2">  1       -2 0.72970314E-01 0.14631947E+04</pdfrwt>
<totfact> 0.17425196E+01</totfact>
</mgrwt>
</event>
<event>
12    4  0.4320235E-008  0.2006220E+04  0.7818608E-02  0.8603718E-01
          1   -1    0    0  501    0  0.00000000000E+00  0.00000000000E+00  0.18788114088E+04  0.18788114088E+04  0.00000000000E+00 0. -1.
         -2   -1    0    0    0  501 -0.00000000000E+00 -0.00000000000E+00 -0.53556698707E+03  0.53556698707E+03  0.00000000000E+00 0.  1.
        -24    2    1    2    0    0 -0.16451427025E+03 -0.61029265586E+03 -0.50016555262E+02  0.63915853641E+03  0.80622006688E+02 0.  0.
        254    2    1    2    0    0  0.16451427025E+03  0.61029265586E+03  0.13932609770E+04  0.17752198595E+04  0.90039287452E+03 0.  0.
         23    2    4    4    0    0 -0.34423237122E+03  0.40345147057E+03  0.59925916114E+03  0.80541897618E+03  0.91209486750E+02 0.  0.
         23    2    4    4    0    0  0.50874664147E+03  0.20684118529E+03  0.79400181585E+03  0.96980088328E+03  0.92024173439E+02 0.  0.
          3    1    3    3  502    0 -0.66774955084E+02 -0.13888766714E+03 -0.31983882938E+02  0.15739011239E+03  0.00000000000E+00 0. -1.
         -4    1    3    3    0  502 -0.97739315165E+02 -0.47140498872E+03 -0.18032672323E+02  0.48176842403E+03  0.00000000000E+00 0.  1.
         11    1    5    5    0    0 -0.30470412008E+03  0.30151387185E+03  0.47015614026E+03  0.63624052994E+03  0.00000000000E+00 0. -1.
        -11    1    5    5    0    0 -0.39528251140E+02  0.10193759872E+03  0.12910302088E+03  0.16917844624E+03  0.00000000000E+00 0.  1.
          4    1    6    6  503    0  0.49145902496E+03  0.19178022640E+03  0.78356600524E+03  0.94460960879E+03  0.00000000000E+00 0.  1.
         -4    1    6    6    0  503  0.17287616515E+02  0.15060958887E+02  0.10435810611E+02  0.25191274491E+02  0.00000000000E+00 0. -1.
<mgrwt>
<rscale>  0 0.20062197E+04</rscale>
<asrwt>0</asrwt>
<pdfrwt beam="1">  1        1 0.28904791E+00 0.20062197E+04</pdfrwt>
<pdfrwt beam="2">  1       -2 0.82394922E-01 0.20062197E+04</pdfrwt>
<totfact> 0.37917664E+00</totfact>
</mgrwt>
</event>
<event>
12    4  0.4320235E-008  0.3213076E+04  0.7818608E-02  0.8185372E-01
          1   -1    0    0  501    0  0.00000000000E+00  0.00000000000E+00  0.22156817667E+04  0.22156817667E+04  0.00000000000E+00 0. -1.
         -2   -1    0    0    0  501 -0.00000000000E+00 -0.00000000000E+00 -0.11648621680E+04  0.11648621680E+04  0.00000000000E+00 0.  1.
        -24    2    1    2    0    0  0.13986299234E+04 -0.47413360846E+03  0.42798517848E+03  0.15395280730E+04  0.77505052344E+02 0.  0.
        254    2    1    2    0    0 -0.13986299234E+04  0.47413360846E+03  0.62283442021E+03  0.18410158617E+04  0.90578603804E+03 0.  0.
         23    2    4    4    0    0 -0.73199716388E+03 -0.21213964048E+03  0.21617581957E+03  0.79749236146E+03  0.91864066032E+02 0.  0.
         23    2    4    4    0    0 -0.66663275954E+03  0.68627324895E+03  0.40665860064E+03  0.10435235003E+04  0.90553132418E+02 0.  0.
          3    1    3    3  502    0  0.58752848546E+03 -0.16398804668E+03  0.19596659365E+03  0.64069080413E+03  0.00000000000E+00 0. -1.
         -4    1    3    3    0  502  0.81110143797E+03 -0.31014556178E+03  0.23201858483E+03  0.89883726885E+03  0.00000000000E+00 0.  1.
         11    1    5    5    0    0 -0.54296143248E+03 -0.16806796930E+03  0.12017310990E+03  0.58094365975E+03  0.00000000000E+00 0. -1.
        -11    1    5    5    0    0 -0.18903573141E+03 -0.44071671186E+02  0.96002709671E+02  0.21654870171E+03  0.00000000000E+00 0.  1.
          1    1    6    6  503    0 -0.44532076041E+03  0.42391966755E+03  0.29987531903E+03  0.68406408409E+03  0.00000000000E+00 0. -1.
         -1    1    6    6    0  503 -0.22131199914E+03  0.26235358140E+03  0.10678328161E+03  0.35945941616E+03  0.00000000000E+00 0.  1.
<mgrwt>
<rscale>  0 0.32130757E+04</rscale>
<asrwt>0</asrwt>
<pdfrwt beam="1">  1        1 0.34087412E+00 0.32130757E+04</pdfrwt>
<pdfrwt beam="2">  1       -2 0.17920956E+00 0.32130757E+04</pdfrwt>
<totfact> 0.28687302E-01</totfact>
</mgrwt>
</event>
<event>
12    4  0.4320235E-008  0.1567719E+04  0.7818608E-02  0.8840629E-01
         -2   -1    0    0    0  501 -0.00000000000E+00  0.00000000000E+00  0.71877715931E+03  0.71877715931E+03  0.00000000000E+00 0.  1.
          1   -1    0    0  501    0  0.00000000000E+00 -0.00000000000E+00 -0.85483446515E+03  0.85483446515E+03  0.00000000000E+00 0. -1.
        -24    2    1    2    0    0  0.48957768584E+03 -0.15832723758E+03  0.27673578692E+02  0.52137236656E+03  0.79432317208E+02 0.  0.
        254    2    1    2    0    0 -0.48957768584E+03  0.15832723758E+03 -0.16373088454E+03  0.10522392579E+04  0.90313112485E+03 0.  0.
         23    2    4    4    0    0 -0.59616820793E+03  0.29894770245E+03 -0.36961054078E+03  0.76809648338E+03  0.92595869068E+02 0.  0.
         23    2    4    4    0    0  0.10659052209E+03 -0.14062046488E+03  0.20587965625E+03  0.28414277452E+03  0.84941326308E+02 0.  0.
          3    1    3    3  502    0  0.91313082817E+02 -0.22230904346E+02  0.35396616086E+02  0.10042515936E+03  0.00000000000E+00 0. -1.
         -2    1    3    3    0  502  0.39826460303E+03 -0.13609633323E+03 -0.77230373946E+01  0.42094720720E+03  0.00000000000E+00 0.  1.
         11    1    5    5    0    0 -0.50071950993E+03  0.23910489081E+03 -0.26726120785E+03  0.61588938102E+03  0.00000000000E+00 0. -1.
        -11    1    5    5    0    0 -0.95448698001E+02  0.59842811649E+02 -0.10234933293E+03  0.15220710236E+03  0.00000000000E+00 0.  1.
          3    1    6    6  503    0  0.80998078019E+02 -0.14834990531E+03  0.17496206499E+03  0.24326961839E+03  0.00000000000E+00 0. -1.
         -3    1    6    6    0  503  0.25592444070E+02  0.77294404288E+01  0.30917591259E+02  0.40873156131E+02  0.00000000000E+00 0.  1.
<mgrwt>
<rscale>  0 0.15677187E+04</rscale>
<asrwt>0</asrwt>
<pdfrwt beam="1">  1        1 0.13151299E+00 0.15677187E+04</pdfrwt>
<pdfrwt beam="2">  1       -2 0.11058110E+00 0.15677187E+04</pdfrwt>
<totfact> 0.10848568E+01</totfact>
</mgrwt>
</event>
<event>
12    4  0.4320235E-008  0.1265982E+04  0.7818608E-02  0.9056985E-01
         -2   -1    0    0    0  501 -0.00000000000E+00  0.00000000000E+00  0.12069944635E+04  0.12069944635E+04  0.00000000000E+00 0.  1.
          1   -1    0    0  501    0  0.00000000000E+00 -0.00000000000E+00 -0.33196311998E+03  0.33196311998E+03  0.00000000000E+00 0. -1.
        -24    2    1    2    0    0  0.36882060967E+02  0.61193731254E+02 -0.14551553037E+03  0.17955048868E+03  0.77192287427E+02 0.  0.
        254    2    1    2    0    0 -0.36882060967E+02 -0.61193731254E+02  0.10205468739E+04  0.13594070948E+04  0.89519091171E+03 0.  0.
         23    2    4    4    0    0 -0.21131798620E+03  0.23881289505E+03  0.93204363393E+03  0.98883311515E+03  0.86015719031E+02 0.  0.
         23    2    4    4    0    0  0.17443592523E+03 -0.30000662630E+03  0.88503239942E+02  0.37057397964E+03  0.95186044492E+02 0.  0.
          1    1    3    3  502    0 -0.20913200474E+01 -0.15276270328E+02 -0.43950506167E+02  0.46576657749E+02  0.00000000000E+00 0. -1.
         -2    1    3    3    0  502  0.38973381014E+02  0.76470001582E+02 -0.10156502421E+03  0.13297383093E+03  0.00000000000E+00 0.  1.
         11    1    5    5    0    0  0.83496258179E+01  0.94591218446E+01  0.31550541129E+02  0.33979815816E+02  0.00000000000E+00 0. -1.
        -11    1    5    5    0    0 -0.21966761202E+03  0.22935377321E+03  0.90049309281E+03  0.95485329933E+03  0.00000000000E+00 0.  1.
          4    1    6    6  503    0  0.12699337429E+03 -0.23451352597E+03  0.10743360763E+03  0.28751676651E+03  0.00000000000E+00 0.  1.
         -4    1    6    6    0  503  0.47442550949E+02 -0.65493100334E+02 -0.18930367689E+02  0.83057213129E+02  0.00000000000E+00 0. -1.
<mgrwt>
<rscale>  0 0.12659821E+04</rscale>
<asrwt>0</asrwt>
<pdfrwt beam="1">  1        1 0.51071250E-01 0.12659821E+04</pdfrwt>
<pdfrwt beam="2">  1       -2 0.18569145E+00 0.12659821E+04</pdfrwt>
<totfact> 0.10934066E+01</totfact>
</mgrwt>
</event>
<event>
12    4  0.4320235E-008  0.2262333E+04  0.7818608E-02  0.8492923E-01
         -2   -1    0    0    0  501 -0.00000000000E+00  0.00000000000E+00  0.47343501630E+03  0.47343501630E+03  0.00000000000E+00 0.  1.
          1   -1    0    0  501    0  0.00000000000E+00 -0.00000000000E+00 -0.27026671849E+04  0.27026671849E+04  0.00000000000E+00 0. -1.
        -24    2    1    2    0    0  0.14574798510E+03  0.13917109274E+03  0.36405157541E+03  0.42369159270E+03  0.79811953716E+02 0.  0.
        254    2    1    2    0    0 -0.14574798510E+03 -0.13917109274E+03 -0.25932837440E+04  0.27524106085E+04  0.90001806237E+03 0.  0.
         23    2    4    4    0    0 -0.39977275658E+03 -0.12194294943E+03 -0.23506605691E+04  0.23892399434E+04  0.90410485297E+02 0.  0.
         23    2    4    4    0    0  0.25402477148E+03 -0.17228143312E+02 -0.24262317486E+03  0.36317066512E+03  0.90562318736E+02 0.  0.
          3    1    3    3  502    0  0.26705296744E+02  0.62028116995E+02  0.70295923530E+02  0.97479110773E+02  0.00000000000E+00 0. -1.
         -4    1    3    3    0  502  0.11904268835E+03  0.77142975746E+02  0.29375565187E+03  0.32621248193E+03  0.00000000000E+00 0.  1.
         11    1    5    5    0    0 -0.81982086682E+02 -0.51713968416E+01 -0.31073448565E+03  0.32140897071E+03  0.00000000000E+00 0.  1.
        -11    1    5    5    0    0 -0.31779066990E+03 -0.11677155259E+03 -0.20399260835E+04  0.20678309726E+04  0.00000000000E+00 0. -1.
          3    1    6    6  503    0  0.16336122811E+03 -0.15216877302E+02 -0.94065735439E+02  0.18912114316E+03  0.00000000000E+00 0. -1.
         -3    1    6    6    0  503  0.90663543369E+02 -0.20112660096E+01 -0.14855743942E+03  0.17404952196E+03  0.00000000000E+00 0.  1.
<mgrwt>
<rscale>  0 0.22623327E+04</rscale>
<asrwt>0</asrwt>
<pdfrwt beam="1">  1        1 0.41579496E+00 0.22623327E+04</pdfrwt>
<pdfrwt beam="2">  1       -2 0.72836155E-01 0.22623327E+04</pdfrwt>
<totfact> 0.13269691E+00</totfact>
</mgrwt>
</event>
<event>
12    4  0.4320235E-008  0.1374373E+04  0.7818608E-02  0.8972581E-01
         -2   -1    0    0    0  501 -0.00000000000E+00  0.00000000000E+00  0.43916308784E+03  0.43916308784E+03  0.00000000000E+00 0.  1.
          1   -1    0    0  501    0  0.00000000000E+00 -0.00000000000E+00 -0.10752842493E+04  0.10752842493E+04  0.00000000000E+00 0. -1.
        -24    2    1    2    0    0 -0.23444501990E+03 -0.22664421088E+03  0.38552613042E+02  0.33793490579E+03  0.79885110645E+02 0.  0.
        254    2    1    2    0    0  0.23444501990E+03  0.22664421088E+03 -0.67467377446E+03  0.11765124313E+04  0.90700867328E+03 0.  0.
         23    2    4    4    0    0 -0.89673032850E+02  0.22128192322E+03  0.14250267544E+03  0.29262152102E+03  0.91177846516E+02 0.  0.
         23    2    4    4    0    0  0.32411805275E+03  0.53622876590E+01 -0.81717644990E+03  0.88389091029E+03  0.91676195222E+02 0.  0.
          1    1    3    3  502    0 -0.54907419870E+01 -0.31273878239E+02  0.17410200473E+02  0.36212135925E+02  0.00000000000E+00 0. -1.
         -2    1    3    3    0  502 -0.22895427791E+03 -0.19537033264E+03  0.21142412568E+02  0.30172276987E+03  0.00000000000E+00 0.  1.
         11    1    5    5    0    0 -0.18991810243E+02 -0.38517059520E+01  0.76168428151E+01  0.20821642335E+02  0.00000000000E+00 0. -1.
        -11    1    5    5    0    0 -0.70681222607E+02  0.22513362917E+03  0.13488583262E+03  0.27179987869E+03  0.00000000000E+00 0.  1.
          4    1    6    6  503    0  0.30773773433E+03  0.67700319728E+01 -0.80889505661E+03  0.86548226965E+03  0.00000000000E+00 0.  1.
         -4    1    6    6    0  503  0.16380318412E+02 -0.14077443138E+01 -0.82813932892E+01  0.18408640638E+02  0.00000000000E+00 0. -1.
<mgrwt>
<rscale>  0 0.13743728E+04</rscale>
<asrwt>0</asrwt>
<pdfrwt beam="1">  1        1 0.16542835E+00 0.13743728E+04</pdfrwt>
<pdfrwt beam="2">  1       -2 0.67563552E-01 0.13743728E+04</pdfrwt>
<totfact> 0.22771672E+01</totfact>
</mgrwt>
</event>
<event>
12    4  0.4320235E-008  0.1502245E+04  0.7818608E-02  0.8882961E-01
          1   -1    0    0  501    0  0.00000000000E+00  0.00000000000E+00  0.12390949404E+04  0.12390949404E+04  0.00000000000E+00 0. -1.
         -2   -1    0    0    0  501 -0.00000000000E+00 -0.00000000000E+00 -0.45532022651E+03  0.45532022651E+03  0.00000000000E+00 0.  1.
        -24    2    1    2    0    0  0.20994317158E+03  0.33931247960E+03 -0.51994805454E+02  0.41005271919E+03  0.78934647725E+02 0.  0.
        254    2    1    2    0    0 -0.20994317158E+03 -0.33931247960E+03  0.83576951934E+03  0.12843624477E+04  0.88986915531E+03 0.  0.
         23    2    4    4    0    0 -0.10199519710E+03  0.39018584918E+02 -0.15764435059E+03  0.21206328172E+03  0.90518638872E+02 0.  0.
         23    2    4    4    0    0 -0.10794797448E+03 -0.37833106452E+03  0.99341386993E+03  0.10722991660E+04  0.90372699781E+02 0.  0.
          1    1    3    3  502    0 -0.53303648688E+00  0.43904088281E+02 -0.26011694860E+01  0.43984306046E+02  0.00000000000E+00 0. -1.
         -2    1    3    3    0  502  0.21047620806E+03  0.29540839132E+03 -0.49393635968E+02  0.36606841314E+03  0.00000000000E+00 0.  1.
         11    1    5    5    0    0 -0.13061199601E+02  0.29142645485E+02 -0.10155129595E+03  0.10645447116E+03  0.00000000000E+00 0.  1.
        -11    1    5    5    0    0 -0.88933997496E+02  0.98759394332E+01 -0.56093054641E+02  0.10560881057E+03  0.00000000000E+00 0. -1.
          1    1    6    6  503    0 -0.54032985817E+02 -0.31872668438E+03  0.79028215165E+03  0.85384550248E+03  0.00000000000E+00 0. -1.
         -1    1    6    6    0  503 -0.53914988664E+02 -0.59604380145E+02  0.20313171828E+03  0.21845366352E+03  0.00000000000E+00 0.  1.
<mgrwt>
<rscale>  0 0.15022450E+04</rscale>
<asrwt>0</asrwt>
<pdfrwt beam="1">  1        1 0.19062999E+00 0.15022450E+04</pdfrwt>
<pdfrwt beam="2">  1       -2 0.70049266E-01 0.15022450E+04</pdfrwt>
<totfact> 0.15756835E+01</totfact>
</mgrwt>
</event>
<event>
12    4  0.4320235E-008  0.1491223E+04  0.7818608E-02  0.8890310E-01
         -2   -1    0    0    0  501 -0.00000000000E+00  0.00000000000E+00  0.56899690603E+03  0.56899690603E+03  0.00000000000E+00 0.  1.
          1   -1    0    0  501    0  0.00000000000E+00 -0.00000000000E+00 -0.97704709947E+03  0.97704709947E+03  0.00000000000E+00 0. -1.
        -24    2    1    2    0    0  0.14624419138E+03  0.40047048344E+03  0.67911575910E+02  0.43877977084E+03  0.78432987540E+02 0.  0.
        254    2    1    2    0    0 -0.14624419138E+03 -0.40047048344E+03 -0.47596176935E+03  0.11072642347E+04  0.90428452817E+03 0.  0.
         23    2    4    4    0    0 -0.51645453058E+03 -0.16832493564E+03 -0.29305849047E+03  0.62477575730E+03  0.96968561675E+02 0.  0.
         23    2    4    4    0    0  0.37021033921E+03 -0.23214554780E+03 -0.18290327888E+03  0.48248847737E+03  0.91620252966E+02 0.  0.
          1    1    3    3  502    0  0.92870266911E+02  0.16168536025E+03  0.67866564864E+01  0.18658269186E+03  0.00000000000E+00 0. -1.
         -2    1    3    3    0  502  0.53373924467E+02  0.23878512319E+03  0.61124919424E+02  0.25219707898E+03  0.00000000000E+00 0.  1.
         11    1    5    5    0    0 -0.85604167999E+02 -0.68023553298E+02 -0.54169987798E+02  0.12202321484E+03  0.00000000000E+00 0. -1.
        -11    1    5    5    0    0 -0.43085036258E+03 -0.10030138234E+03 -0.23888850267E+03  0.50275254246E+03  0.00000000000E+00 0.  1.
          2    1    6    6  503    0  0.18756796520E+03 -0.15286965482E+03 -0.13735553046E+03  0.27823985100E+03  0.00000000000E+00 0.  1.
         -2    1    6    6    0  503  0.18264237400E+03 -0.79275892978E+02 -0.45547748417E+02  0.20424862637E+03  0.00000000000E+00 0. -1.
<mgrwt>
<rscale>  0 0.14912234E+04</rscale>
<asrwt>0</asrwt>
<pdfrwt beam="1">  1        1 0.15031494E+00 0.14912234E+04</pdfrwt>
<pdfrwt beam="2">  1       -2 0.87537986E-01 0.14912234E+04</pdfrwt>
<totfact> 0.15078980E+01</totfact>
</mgrwt>
</event>
<event>
12    4  0.4320235E-008  0.1807519E+04  0.7818608E-02  0.8702311E-01
          1   -1    0    0  501    0  0.00000000000E+00  0.00000000000E+00  0.22418085157E+04  0.22418085157E+04  0.00000000000E+00 0. -1.
         -2   -1    0    0    0  501 -0.00000000000E+00 -0.00000000000E+00 -0.36434018528E+03  0.36434018528E+03  0.00000000000E+00 0.  1.
        -24    2    1    2    0    0  0.66059600667E+02 -0.93002952995E+02 -0.25442302335E+03  0.29008643447E+03  0.80035270638E+02 0.  0.
        254    2    1    2    0    0 -0.66059600667E+02  0.93002952995E+02  0.21318913538E+04  0.23160622665E+04  0.89786984469E+03 0.  0.
         23    2    4    4    0    0 -0.91251698867E+02  0.41493450657E+03  0.17778731424E+04  0.18301716136E+04  0.90541190740E+02 0.  0.
         23    2    4    4    0    0  0.25192098200E+02 -0.32193155357E+03  0.35401821135E+03  0.48589065297E+03  0.80537355757E+02 0.  0.
          1    1    3    3  502    0  0.35309446004E+02  0.45846347393E+01 -0.85124737553E+02  0.92271321635E+02  0.00000000000E+00 0. -1.
         -2    1    3    3    0  502  0.30750154663E+02 -0.97587587734E+02 -0.16929828580E+03  0.19781511283E+03  0.00000000000E+00 0.  1.
         11    1    5    5    0    0 -0.84799860692E+02  0.39503967573E+03  0.17453343825E+04  0.17914908508E+04  0.00000000000E+00 0. -1.
        -11    1    5    5    0    0 -0.64518381744E+01  0.19894830836E+02  0.32538759946E+02  0.38680762772E+02  0.00000000000E+00 0.  1.
          4    1    6    6  503    0 -0.86458002215E+01 -0.21788288620E+03  0.27483798095E+03  0.35083274895E+03  0.00000000000E+00 0. -1.
         -4    1    6    6    0  503  0.33837898421E+02 -0.10404866737E+03  0.79180230403E+02  0.13505790402E+03  0.00000000000E+00 0.  1.
<mgrwt>
<rscale>  0 0.18075187E+04</rscale>
<asrwt>0</asrwt>
<pdfrwt beam="1">  1        1 0.34489361E+00 0.18075187E+04</pdfrwt>
<pdfrwt beam="2">  1       -2 0.56052337E-01 0.18075187E+04</pdfrwt>
<totfact> 0.50508854E+00</totfact>
</mgrwt>
</event>
<event>
12    4  0.4320235E-008  0.1521920E+04  0.7818608E-02  0.8870006E-01
          1   -1    0    0  501    0  0.00000000000E+00  0.00000000000E+00  0.14994527978E+04  0.14994527978E+04  0.00000000000E+00 0. -1.
         -2   -1    0    0    0  501 -0.00000000000E+00 -0.00000000000E+00 -0.38618079689E+03  0.38618079689E+03  0.00000000000E+00 0.  1.
        -24    2    1    2    0    0  0.21356608618E+03  0.34258914372E+03  0.55555808686E+03  0.69149930870E+03  0.80924109516E+02 0.  0.
        254    2    1    2    0    0 -0.21356608618E+03 -0.34258914372E+03  0.55771391403E+03  0.11941342860E+04  0.97567109646E+03 0.  0.
         23    2    4    4    0    0 -0.42177665195E+03  0.19379495618E+03  0.24044585525E+03  0.53027283837E+03  0.89011485983E+02 0.  0.
         23    2    4    4    0    0  0.20821056577E+03 -0.53638409990E+03  0.31726805878E+03  0.66386144760E+03  0.94833845050E+02 0.  0.
          1    1    3    3  502    0  0.13726319421E+03  0.28251215854E+03  0.40910133349E+03  0.51576952729E+03  0.00000000000E+00 0. -1.
         -2    1    3    3    0  502  0.76302891970E+02  0.60076985178E+02  0.14645675336E+03  0.17572978142E+03  0.00000000000E+00 0.  1.
         11    1    5    5    0    0 -0.14460695797E+03  0.96548119855E+02  0.12732233389E+03  0.21550797769E+03  0.00000000000E+00 0.  1.
        -11    1    5    5    0    0 -0.27716969397E+03  0.97246836326E+02  0.11312352136E+03  0.31476486068E+03  0.00000000000E+00 0. -1.
          1    1    6    6  503    0  0.16946255345E+03 -0.39317067405E+03  0.27770456302E+03  0.51031417801E+03  0.00000000000E+00 0. -1.
         -1    1    6    6    0  503  0.38748012312E+02 -0.14321342585E+03  0.39563495759E+02  0.15354726959E+03  0.00000000000E+00 0.  1.
<mgrwt>
<rscale>  0 0.15219197E+04</rscale>
<asrwt>0</asrwt>
<pdfrwt beam="1">  1        1 0.23068504E+00 0.15219197E+04</pdfrwt>
<pdfrwt beam="2">  1       -2 0.59412431E-01 0.15219197E+04</pdfrwt>
<totfact> 0.14670084E+01</totfact>
</mgrwt>
</event>
<event>
12    4  0.4320235E-008  0.2330959E+04  0.7818608E-02  0.8465814E-01
         -2   -1    0    0    0  501 -0.00000000000E+00  0.00000000000E+00  0.60534605988E+03  0.60534605988E+03  0.00000000000E+00 0.  1.
          1   -1    0    0  501    0  0.00000000000E+00 -0.00000000000E+00 -0.22439098488E+04  0.22439098488E+04  0.00000000000E+00 0. -1.
        -24    2    1    2    0    0 -0.91288410552E+03  0.21799793217E+03 -0.10693364381E+04  0.14250531619E+04  0.80097489682E+02 0.  0.
        254    2    1    2    0    0  0.91288410552E+03 -0.21799793217E+03 -0.56922735081E+03  0.14242027468E+04  0.90744322052E+03 0.  0.
         23    2    4    4    0    0  0.70747086563E+03 -0.19005004973E+03  0.74699908221E+02  0.74180876697E+03  0.89811599228E+02 0.  0.
         23    2    4    4    0    0  0.20541323989E+03 -0.27947882437E+02 -0.64392725903E+03  0.68239397980E+03  0.89685815428E+02 0.  0.
          1    1    3    3  502    0 -0.24029761383E+03  0.82668186879E+02 -0.32883855475E+03  0.41558605297E+03  0.00000000000E+00 0. -1.
         -2    1    3    3    0  502 -0.67258649169E+03  0.13532974529E+03 -0.74049788335E+03  0.10094671089E+04  0.00000000000E+00 0.  1.
         11    1    5    5    0    0  0.42588441228E+03 -0.15764834017E+03  0.33141730221E+02  0.45533384024E+03  0.00000000000E+00 0.  1.
        -11    1    5    5    0    0  0.28158645335E+03 -0.32401709564E+02  0.41558178000E+02  0.28647492674E+03  0.00000000000E+00 0. -1.
          2    1    6    6  503    0  0.15408571130E+03  0.13749420969E+02 -0.51136488109E+03  0.53425227619E+03  0.00000000000E+00 0.  1.
         -2    1    6    6    0  503  0.51327528588E+02 -0.41697303406E+02 -0.13256237794E+03  0.14814170360E+03  0.00000000000E+00 0. -1.
<mgrwt>
<rscale>  0 0.23309586E+04</rscale>
<asrwt>0</asrwt>
<pdfrwt beam="1">  1        1 0.34521689E+00 0.23309586E+04</pdfrwt>
<pdfrwt beam="2">  1       -2 0.93130165E-01 0.23309586E+04</pdfrwt>
<totfact> 0.15722473E+00</totfact>
</mgrwt>
</event>
<event>
12    4  0.4320235E-008  0.2852832E+04  0.7818608E-02  0.8287051E-01
          1   -1    0    0  501    0  0.00000000000E+00  0.00000000000E+00  0.12749513007E+04  0.12749513007E+04  0.00000000000E+00 0. -1.
         -2   -1    0    0    0  501 -0.00000000000E+00 -0.00000000000E+00 -0.15958744688E+04  0.15958744688E+04  0.00000000000E+00 0.  1.
        -24    2    1    2    0    0 -0.69680771195E+03  0.91995994892E+03  0.42654126686E+03  0.12332535139E+04  0.84317745856E+02 0.  0.
        254    2    1    2    0    0  0.69680771195E+03 -0.91995994892E+03 -0.74746443490E+03  0.16375722556E+04  0.88942257435E+03 0.  0.
         23    2    4    4    0    0  0.33999263798E+03 -0.81302275122E+02  0.11550482501E+03  0.37896244871E+03  0.89811575570E+02 0.  0.
         23    2    4    4    0    0  0.35681507397E+03 -0.83865767380E+03 -0.86296925991E+03  0.12586098069E+04  0.93375647737E+02 0.  0.
          3    1    3    3  502    0 -0.62029946891E+03  0.77213676648E+03  0.35601228109E+03  0.10524786751E+04  0.00000000000E+00 0. -1.
         -4    1    3    3    0  502 -0.76508243037E+02  0.14782318244E+03  0.70528985777E+02  0.18077483883E+03  0.00000000000E+00 0.  1.
         11    1    5    5    0    0  0.49930225244E+02 -0.35239518597E+02  0.47738226754E+02  0.77548625761E+02  0.00000000000E+00 0.  1.
        -11    1    5    5    0    0  0.29006241274E+03 -0.46062756524E+02  0.67766598251E+02  0.30141382294E+03  0.00000000000E+00 0. -1.
          4    1    6    6  503    0  0.27874362008E+03 -0.73724254521E+03 -0.74492033656E+03  0.10844956819E+04  0.00000000000E+00 0. -1.
         -4    1    6    6    0  503  0.78071453888E+02 -0.10141512859E+03 -0.11804892334E+03  0.17411412499E+03  0.00000000000E+00 0.  1.
<mgrwt>
<rscale>  0 0.28528317E+04</rscale>
<asrwt>0</asrwt>
<pdfrwt beam="1">  1        1 0.19614635E+00 0.28528317E+04</pdfrwt>
<pdfrwt beam="2">  1       -2 0.24551915E+00 0.28528317E+04</pdfrwt>
<totfact> 0.48841757E-01</totfact>
</mgrwt>
</event>
<event>
12    4  0.4320235E-008  0.1630777E+04  0.7818608E-02  0.8801860E-01
         -2   -1    0    0    0  501 -0.00000000000E+00  0.00000000000E+00  0.21358635995E+03  0.21358635995E+03  0.00000000000E+00 0.  1.
          1   -1    0    0  501    0  0.00000000000E+00 -0.00000000000E+00 -0.31128329750E+04  0.31128329750E+04  0.00000000000E+00 0. -1.
        -24    2    1    2    0    0 -0.49103940055E+02 -0.46499931005E+03 -0.16046115644E+04  0.16747939852E+04  0.10733622451E+03 0.  0.
        254    2    1    2    0    0  0.49103940055E+02  0.46499931005E+03 -0.12946350507E+04  0.16516253497E+04  0.91277096040E+03 0.  0.
         23    2    4    4    0    0  0.10866220272E+02  0.29877216076E+03 -0.13980895063E+04  0.14320214652E+04  0.81537294587E+02 0.  0.
         23    2    4    4    0    0  0.38237719783E+02  0.16622714929E+03  0.10345445562E+03  0.21960388452E+03  0.91812054403E+02 0.  0.
          3    1    3    3  502    0 -0.40470206205E+02 -0.34486448375E+03 -0.13365200471E+04  0.13808892737E+04  0.00000000000E+00 0. -1.
         -4    1    3    3    0  502 -0.86337338501E+01 -0.12013482630E+03 -0.26809151728E+03  0.29390471157E+03  0.00000000000E+00 0.  1.
         11    1    5    5    0    0 -0.16615625324E+02  0.93142221885E+02 -0.30206554819E+03  0.31653617156E+03  0.00000000000E+00 0. -1.
        -11    1    5    5    0    0  0.27481845596E+02  0.20562993888E+03 -0.10960239581E+04  0.11154852936E+04  0.00000000000E+00 0.  1.
          1    1    6    6  503    0  0.37133586382E+02  0.29536225599E+02  0.59317410935E+02  0.75959509610E+02  0.00000000000E+00 0. -1.
         -1    1    6    6    0  503  0.11041334012E+01  0.13669092369E+03  0.44137044690E+02  0.14364437491E+03  0.00000000000E+00 0.  1.
<mgrwt>
<rscale>  0 0.16307773E+04</rscale>
<asrwt>0</asrwt>
<pdfrwt beam="1">  1        1 0.47889737E+00 0.16307773E+04</pdfrwt>
<pdfrwt beam="2">  1       -2 0.32859441E-01 0.16307773E+04</pdfrwt>
<totfact> 0.36055631E+00</totfact>
</mgrwt>
</event>
<event>
12    4  0.4320235E-008  0.2479156E+04  0.7818608E-02  0.8410449E-01
          1   -1    0    0  501    0  0.00000000000E+00  0.00000000000E+00  0.21160236865E+04  0.21160236865E+04  0.00000000000E+00 0. -1.
         -2   -1    0    0    0  501 -0.00000000000E+00 -0.00000000000E+00 -0.72615136072E+03  0.72615136072E+03  0.00000000000E+00 0.  1.
        -24    2    1    2    0    0 -0.30580180075E+03 -0.90896368885E+03  0.96039437324E+02  0.96686957839E+03  0.76703840297E+02 0.  0.
        254    2    1    2    0    0  0.30580180075E+03  0.90896368885E+03  0.12938328885E+04  0.18753054688E+04  0.96074831731E+03 0.  0.
         23    2    4    4    0    0  0.53108054230E+03  0.16851888511E+03  0.41750801761E+03  0.70280878419E+03  0.95823198241E+02 0.  0.
         23    2    4    4    0    0 -0.22527874156E+03  0.74044480374E+03  0.87632487085E+03  0.11724966846E+04  0.88284638856E+02 0.  0.
          3    1    3    3  502    0 -0.10880630285E+02 -0.10586503997E+03  0.57093289020E+01  0.10657575352E+03  0.00000000000E+00 0. -1.
         -4    1    3    3    0  502 -0.29492117046E+03 -0.80309864888E+03  0.90330108422E+02  0.86029382487E+03  0.00000000000E+00 0.  1.
         11    1    5    5    0    0  0.34775479335E+03  0.85959048133E+02  0.21680444622E+03  0.41872010001E+03  0.00000000000E+00 0.  1.
        -11    1    5    5    0    0  0.18332574895E+03  0.82559836979E+02  0.20070357139E+03  0.28408868418E+03  0.00000000000E+00 0. -1.
          1    1    6    6  503    0 -0.18199008210E+03  0.68248914174E+03  0.80410753777E+03  0.10702806879E+04  0.00000000000E+00 0. -1.
         -1    1    6    6    0  503 -0.43288659459E+02  0.57955661993E+02  0.72217333071E+02  0.10221599675E+03  0.00000000000E+00 0.  1.
<mgrwt>
<rscale>  0 0.24791559E+04</rscale>
<asrwt>0</asrwt>
<pdfrwt beam="1">  1        1 0.32554210E+00 0.24791559E+04</pdfrwt>
<pdfrwt beam="2">  1       -2 0.11171559E+00 0.24791559E+04</pdfrwt>
<totfact> 0.12299960E+00</totfact>
</mgrwt>
</event>
<event>
12    4  0.4320235E-008  0.1815616E+04  0.7818608E-02  0.8698039E-01
          1   -1    0    0  501    0  0.00000000000E+00  0.00000000000E+00  0.97794847744E+03  0.97794847744E+03  0.00000000000E+00 0. -1.
         -2   -1    0    0    0  501 -0.00000000000E+00 -0.00000000000E+00 -0.84269783197E+03  0.84269783197E+03  0.00000000000E+00 0.  1.
        -24    2    1    2    0    0  0.18745651350E+03 -0.59889266298E+03 -0.21244688717E+03  0.66734461027E+03  0.80017390410E+02 0.  0.
        254    2    1    2    0    0 -0.18745651350E+03  0.59889266298E+03  0.34769753264E+03  0.11533016991E+04  0.90299439025E+03 0.  0.
         23    2    4    4    0    0 -0.95961798453E+02 -0.82048431010E+02 -0.21025963345E+03  0.26353390146E+03  0.96438539845E+02 0.  0.
         23    2    4    4    0    0 -0.91494715042E+02  0.68094109399E+03  0.55795716609E+03  0.88976779768E+03  0.91205691855E+02 0.  0.
          3    1    3    3  502    0  0.17484056888E+02 -0.82849294035E+02 -0.57551145292E+02  0.10238081896E+03  0.00000000000E+00 0. -1.
         -4    1    3    3    0  502  0.16997245661E+03 -0.51604336894E+03 -0.15489574187E+03  0.56496379130E+03  0.00000000000E+00 0.  1.
         11    1    5    5    0    0 -0.98091227020E+02 -0.98470498857E+02 -0.20153771726E+03  0.24481784952E+03  0.00000000000E+00 0.  1.
        -11    1    5    5    0    0  0.21294285662E+01  0.16422067847E+02 -0.87219161894E+01  0.18716051945E+02  0.00000000000E+00 0. -1.
          4    1    6    6  503    0 -0.73247196953E+02  0.23093531188E+03  0.18016656854E+03  0.30192095415E+03  0.00000000000E+00 0. -1.
         -4    1    6    6    0  503 -0.18247518090E+02  0.45000578211E+03  0.37779059755E+03  0.58784684353E+03  0.00000000000E+00 0.  1.
<mgrwt>
<rscale>  0 0.18156157E+04</rscale>
<asrwt>0</asrwt>
<pdfrwt beam="1">  1        1 0.15045361E+00 0.18156157E+04</pdfrwt>
<pdfrwt beam="2">  1       -2 0.12964582E+00 0.18156157E+04</pdfrwt>
<totfact> 0.56882287E+00</totfact>
</mgrwt>
</event>
<event>
12    4  0.4320235E-008  0.3228806E+04  0.7818608E-02  0.8181251E-01
         -2   -1    0    0    0  501 -0.00000000000E+00  0.00000000000E+00  0.16228446756E+04  0.16228446756E+04  0.00000000000E+00 0.  1.
          1   -1    0    0  501    0  0.00000000000E+00 -0.00000000000E+00 -0.16060056248E+04  0.16060056248E+04  0.00000000000E+00 0. -1.
        -24    2    1    2    0    0 -0.11025948356E+04  0.65398930025E+03 -0.75314483432E+03  0.14888637750E+04  0.77915484027E+02 0.  0.
        254    2    1    2    0    0  0.11025948356E+04 -0.65398930025E+03  0.76998388516E+03  0.17399865255E+04  0.88952827346E+03 0.  0.
         23    2    4    4    0    0 -0.31384435781E+02 -0.25235150118E+03  0.39146890199E+03  0.47544429592E+03  0.90183780879E+02 0.  0.
         23    2    4    4    0    0  0.11339792713E+04 -0.40163779907E+03  0.37851498317E+03  0.12645422296E+04  0.92582657435E+02 0.  0.
          1    1    3    3  502    0 -0.25860474997E+03  0.15769516630E+03 -0.14051175491E+03  0.33389779192E+03  0.00000000000E+00 0. -1.
         -2    1    3    3    0  502 -0.84399008559E+03  0.49629413395E+03 -0.61263307942E+03  0.11549659830E+04  0.00000000000E+00 0.  1.
         11    1    5    5    0    0 -0.28702869302E+02 -0.12110527750E+03  0.11528420277E+03  0.16964902108E+03  0.00000000000E+00 0. -1.
        -11    1    5    5    0    0 -0.26815664796E+01 -0.13124622369E+03  0.27618469922E+03  0.30579527484E+03  0.00000000000E+00 0.  1.
          1    1    6    6  503    0  0.18208360325E+03 -0.63274573110E+02  0.97070600557E+02  0.21582588276E+03  0.00000000000E+00 0. -1.
         -1    1    6    6    0  503  0.95189566809E+03 -0.33836322596E+03  0.28144438261E+03  0.10487163468E+04  0.00000000000E+00 0.  1.
<mgrwt>
<rscale>  0 0.32288064E+04</rscale>
<asrwt>0</asrwt>
<pdfrwt beam="1">  1        1 0.24707779E+00 0.32288064E+04</pdfrwt>
<pdfrwt beam="2">  1       -2 0.24966841E+00 0.32288064E+04</pdfrwt>
<totfact> 0.26166733E-01</totfact>
</mgrwt>
</event>
<event>
12    4  0.4320235E-008  0.2534032E+04  0.7818608E-02  0.8390961E-01
          1   -1    0    0  501    0  0.00000000000E+00  0.00000000000E+00  0.10359947835E+04  0.10359947835E+04  0.00000000000E+00 0. -1.
         -2   -1    0    0    0  501 -0.00000000000E+00 -0.00000000000E+00 -0.15495542262E+04  0.15495542262E+04  0.00000000000E+00 0.  1.
        -24    2    1    2    0    0 -0.13795803710E+03 -0.14093979662E+03  0.88586744766E+03  0.91107118664E+03  0.79957026138E+02 0.  0.
        254    2    1    2    0    0  0.13795803710E+03  0.14093979662E+03 -0.13994268903E+04  0.16744778230E+04  0.89810016825E+03 0.  0.
         23    2    4    4    0    0 -0.17093361667E+03  0.36811243440E+03 -0.32010891576E+03  0.52499098011E+03  0.91764620497E+02 0.  0.
         23    2    4    4    0    0  0.30889165378E+03 -0.22717263778E+03 -0.10793179745E+04  0.11494868429E+04  0.96805220611E+02 0.  0.
          1    1    3    3  502    0 -0.13805119441E+03 -0.96914869483E+02  0.69007322704E+03  0.71038840284E+03  0.00000000000E+00 0. -1.
         -2    1    3    3    0  502  0.93157304063E-01 -0.44024927137E+02  0.19579422062E+03  0.20068278380E+03  0.00000000000E+00 0.  1.
         11    1    5    5    0    0 -0.28316018330E+02  0.11485136324E+03 -0.50761072923E+02  0.12872186705E+03  0.00000000000E+00 0.  1.
        -11    1    5    5    0    0 -0.14261759834E+03  0.25326107116E+03 -0.26934784284E+03  0.39626911306E+03  0.00000000000E+00 0. -1.
          1    1    6    6  503    0  0.66830206195E+02 -0.19779955439E+02 -0.12211014113E+03  0.14060017661E+03  0.00000000000E+00 0. -1.
         -1    1    6    6    0  503  0.24206144758E+03 -0.20739268234E+03 -0.95720783342E+03  0.10088866663E+04  0.00000000000E+00 0.  1.
<mgrwt>
<rscale>  0 0.25340324E+04</rscale>
<asrwt>0</asrwt>
<pdfrwt beam="1">  1        1 0.15938381E+00 0.25340324E+04</pdfrwt>
<pdfrwt beam="2">  1       -2 0.23839296E+00 0.25340324E+04</pdfrwt>
<totfact> 0.83542094E-01</totfact>
</mgrwt>
</event>
<event>
12    4  0.4320235E-008  0.1588559E+04  0.7818608E-02  0.8827608E-01
         -2   -1    0    0    0  501 -0.00000000000E+00  0.00000000000E+00  0.70206857562E+03  0.70206857562E+03  0.00000000000E+00 0.  1.
          1   -1    0    0  501    0  0.00000000000E+00 -0.00000000000E+00 -0.89860134739E+03  0.89860134739E+03  0.00000000000E+00 0. -1.
        -24    2    1    2    0    0 -0.93022127231E+02  0.34291929734E+03  0.33312246065E+03  0.49362204705E+03  0.80283191941E+02 0.  0.
        254    2    1    2    0    0  0.93022127231E+02 -0.34291929734E+03 -0.52965523242E+03  0.11070478760E+04  0.90486107983E+03 0.  0.
         23    2    4    4    0    0 -0.52006006807E+02 -0.60599620984E+03 -0.49956546844E+03  0.79235007962E+03  0.91197370183E+02 0.  0.
         23    2    4    4    0    0  0.14502813404E+03  0.26307691250E+03 -0.30089763978E+02  0.31469779634E+03  0.88807024327E+02 0.  0.
          1    1    3    3  502    0 -0.99767059581E+01  0.96990768095E+01  0.39217659151E+02  0.41612877118E+02  0.00000000000E+00 0. -1.
         -2    1    3    3    0  502 -0.83045421273E+02  0.33322022053E+03  0.29390480150E+03  0.45200916993E+03  0.00000000000E+00 0.  1.
         11    1    5    5    0    0  0.17904378050E+02 -0.14984588182E+03 -0.92574605917E+02  0.17704353338E+03  0.00000000000E+00 0.  1.
        -11    1    5    5    0    0 -0.69910384857E+02 -0.45615032802E+03 -0.40699086252E+03  0.61530654624E+03  0.00000000000E+00 0. -1.
          4    1    6    6  503    0  0.15661939862E+03  0.24252781166E+03 -0.21180594460E+02  0.28947883003E+03  0.00000000000E+00 0. -1.
         -4    1    6    6    0  503 -0.11591264587E+02  0.20549100845E+02 -0.89091695181E+01  0.25218966310E+02  0.00000000000E+00 0.  1.
<mgrwt>
<rscale>  0 0.15885588E+04</rscale>
<asrwt>0</asrwt>
<pdfrwt beam="1">  1        1 0.13824636E+00 0.15885588E+04</pdfrwt>
<pdfrwt beam="2">  1       -2 0.10801055E+00 0.15885588E+04</pdfrwt>
<totfact> 0.10544651E+01</totfact>
</mgrwt>
</event>
<event>
12    4  0.4320235E-008  0.3092186E+04  0.7818608E-02  0.8217886E-01
          1   -1    0    0  501    0  0.00000000000E+00  0.00000000000E+00  0.39864309521E+04  0.39864309521E+04  0.00000000000E+00 0. -1.
         -2   -1    0    0    0  501 -0.00000000000E+00 -0.00000000000E+00 -0.59963490799E+03  0.59963490799E+03  0.00000000000E+00 0.  1.
        -24    2    1    2    0    0 -0.23092241486E+03 -0.81822775052E+03  0.32243825857E+04  0.33355535462E+04  0.80327997567E+02 0.  0.
        254    2    1    2    0    0  0.23092241486E+03  0.81822775052E+03  0.16241345842E+03  0.12505123139E+04  0.90254146848E+03 0.  0.
         23    2    4    4    0    0 -0.31018695274E+03  0.13988989222E+03 -0.30229265653E+02  0.35581854989E+03  0.99538456670E+02 0.  0.
         23    2    4    4    0    0  0.54110936759E+03  0.67833785831E+03  0.19264272408E+03  0.89469376400E+03  0.10209855289E+03 0.  0.
          3    1    3    3  502    0 -0.10596297987E+03 -0.48722184597E+03  0.17858639159E+04  0.18541637485E+04  0.00000000000E+00 0. -1.
         -4    1    3    3    0  502 -0.12495943499E+03 -0.33100590455E+03  0.14385186699E+04  0.14813897977E+04  0.00000000000E+00 0.  1.
         11    1    5    5    0    0 -0.25062494079E+03  0.14105303547E+03  0.29946574250E+01  0.28760700223E+03  0.00000000000E+00 0.  1.
        -11    1    5    5    0    0 -0.59562011949E+02 -0.11631432594E+01 -0.33223923078E+02  0.68211547661E+02  0.00000000000E+00 0. -1.
          3    1    6    6  503    0  0.32548222738E+00  0.20368047394E+02 -0.36091031933E+01  0.20687893058E+02  0.00000000000E+00 0. -1.
         -3    1    6    6    0  503  0.54078388536E+03  0.65796981091E+03  0.19625182727E+03  0.87400587095E+03  0.00000000000E+00 0.  1.
<mgrwt>
<rscale>  0 0.30921857E+04</rscale>
<asrwt>0</asrwt>
<pdfrwt beam="1">  1        1 0.61329705E+00 0.30921857E+04</pdfrwt>
<pdfrwt beam="2">  1       -2 0.92251527E-01 0.30921857E+04</pdfrwt>
<totfact> 0.73088594E-02</totfact>
</mgrwt>
</event>
<event>
12    4  0.4320235E-008  0.1434231E+04  0.7818608E-02  0.8929406E-01
         -2   -1    0    0    0  501 -0.00000000000E+00  0.00000000000E+00  0.19036943246E+03  0.19036943246E+03  0.00000000000E+00 0.  1.
          1   -1    0    0  501    0  0.00000000000E+00 -0.00000000000E+00 -0.27013521299E+04  0.27013521299E+04  0.00000000000E+00 0. -1.
        -24    2    1    2    0    0 -0.33648758854E+03  0.32058618964E+02 -0.23692890302E+03  0.42050799221E+03  0.80249698691E+02 0.  0.
        254    2    1    2    0    0  0.33648758854E+03 -0.32058618964E+02 -0.22740537944E+04  0.24712135702E+04  0.90626938441E+03 0.  0.
         23    2    4    4    0    0 -0.24739755743E+03 -0.96315165419E+02 -0.29755001470E+03  0.40722629622E+03  0.82553513406E+02 0.  0.
         23    2    4    4    0    0  0.58388514597E+03  0.64256546455E+02 -0.19765037797E+04  0.20639872739E+04  0.91790567393E+02 0.  0.
          3    1    3    3  502    0 -0.18544306826E+03  0.35876840373E+02 -0.17407689371E+03  0.25686386309E+03  0.00000000000E+00 0. -1.
         -4    1    3    3    0  502 -0.15104452028E+03 -0.38182214089E+01 -0.62852009313E+02  0.16364412912E+03  0.00000000000E+00 0.  1.
         11    1    5    5    0    0 -0.55405988777E+02 -0.61573878858E+02 -0.84183275553E+02  0.11810160893E+03  0.00000000000E+00 0. -1.
        -11    1    5    5    0    0 -0.19199156865E+03 -0.34741286561E+02 -0.21336673914E+03  0.28912468729E+03  0.00000000000E+00 0.  1.
          2    1    6    6  503    0  0.39215275430E+03  0.83391949907E+02 -0.13879565542E+04  0.14447011443E+04  0.00000000000E+00 0. -1.
         -2    1    6    6    0  503  0.19173239166E+03 -0.19135403452E+02 -0.58854722557E+03  0.61928612967E+03  0.00000000000E+00 0.  1.
<mgrwt>
<rscale>  0 0.14342313E+04</rscale>
<asrwt>0</asrwt>
<pdfrwt beam="1">  1        1 0.41559264E+00 0.14342313E+04</pdfrwt>
<pdfrwt beam="2">  1       -2 0.29287604E-01 0.14342313E+04</pdfrwt>
<totfact> 0.90088359E+00</totfact>
</mgrwt>
</event>
<event>
12    4  0.4320235E-008  0.1287025E+04  0.7818608E-02  0.9039918E-01
         -2   -1    0    0    0  501 -0.00000000000E+00  0.00000000000E+00  0.30142071540E+03  0.30142071540E+03  0.00000000000E+00 0.  1.
          1   -1    0    0  501    0  0.00000000000E+00 -0.00000000000E+00 -0.13738549410E+04  0.13738549410E+04  0.00000000000E+00 0. -1.
        -24    2    1    2    0    0 -0.12964304519E+03  0.21914339811E+03 -0.34498005154E+02  0.26863104780E+03  0.78366953367E+02 0.  0.
        254    2    1    2    0    0  0.12964304519E+03 -0.21914339811E+03 -0.10379362204E+04  0.14066446086E+04  0.91460718842E+03 0.  0.
         23    2    4    4    0    0 -0.17618819210E+03 -0.82143728397E+01 -0.10025652651E+04  0.10220747981E+04  0.91597091231E+02 0.  0.
         23    2    4    4    0    0  0.30583123728E+03 -0.21092902527E+03 -0.35370955331E+02  0.38456981052E+03  0.92838759565E+02 0.  0.
          3    1    3    3  502    0  0.81963434189E+01  0.35527220915E+02 -0.22045250010E-01  0.36460443735E+02  0.00000000000E+00 0. -1.
         -4    1    3    3    0  502 -0.13783938860E+03  0.18361617720E+03 -0.34475959904E+02  0.23217060406E+03  0.00000000000E+00 0.  1.
         11    1    5    5    0    0 -0.16800278793E+02  0.49371505700E+01 -0.34113758384E+03  0.34158670339E+03  0.00000000000E+00 0.  1.
        -11    1    5    5    0    0 -0.15938791331E+03 -0.13151523410E+02 -0.66142768126E+03  0.68048809469E+03  0.00000000000E+00 0. -1.
          3    1    6    6  503    0  0.16114638026E+03 -0.11082711805E+03 -0.65120376497E+02  0.20613459050E+03  0.00000000000E+00 0. -1.
         -3    1    6    6    0  503  0.14468485702E+03 -0.10010190723E+03  0.29749421166E+02  0.17843522001E+03  0.00000000000E+00 0.  1.
<mgrwt>
<rscale>  0 0.12870250E+04</rscale>
<asrwt>0</asrwt>
<pdfrwt beam="1">  1        1 0.21136230E+00 0.12870250E+04</pdfrwt>
<pdfrwt beam="2">  1       -2 0.46372418E-01 0.12870250E+04</pdfrwt>
<totfact> 0.30488361E+01</totfact>
</mgrwt>
</event>
<event>
12    4  0.4320235E-008  0.2765224E+04  0.7818608E-02  0.8314147E-01
          1   -1    0    0  501    0  0.00000000000E+00  0.00000000000E+00  0.21730669367E+04  0.21730669367E+04  0.00000000000E+00 0. -1.
         -2   -1    0    0    0  501 -0.00000000000E+00 -0.00000000000E+00 -0.87968589525E+03  0.87968589525E+03  0.00000000000E+00 0.  1.
        -24    2    1    2    0    0  0.67960172842E+02  0.23473268757E+02 -0.78201352557E+03  0.78932497666E+03  0.79493302736E+02 0.  0.
        254    2    1    2    0    0 -0.67960172842E+02 -0.23473268757E+02  0.20753945670E+04  0.22634278553E+04  0.90037407109E+03 0.  0.
         23    2    4    4    0    0 -0.46100532820E+03  0.97364119581E+02  0.10330287570E+04  0.11391575582E+04  0.92335503098E+02 0.  0.
         23    2    4    4    0    0  0.39304515536E+03 -0.12083738834E+03  0.10423658100E+04  0.11242702971E+04  0.91493445340E+02 0.  0.
          3    1    3    3  502    0  0.74232239904E+02 -0.59163194589E+01 -0.46938298674E+03  0.47525342347E+03  0.00000000000E+00 0. -1.
         -4    1    3    3    0  502 -0.62720670625E+01  0.29389588216E+02 -0.31263053883E+03  0.31407155320E+03  0.00000000000E+00 0.  1.
         11    1    5    5    0    0 -0.20739243526E+03  0.21643292665E+02  0.55282477367E+03  0.59084285957E+03  0.00000000000E+00 0.  1.
        -11    1    5    5    0    0 -0.25361289294E+03  0.75720826916E+02  0.48020398334E+03  0.54831469861E+03  0.00000000000E+00 0. -1.
          1    1    6    6  503    0  0.34450334484E+03 -0.96767339160E+02  0.96978014147E+03  0.10336924085E+04  0.00000000000E+00 0. -1.
         -1    1    6    6    0  503  0.48541810522E+02 -0.24070049178E+02  0.72585668559E+02  0.90577888672E+02  0.00000000000E+00 0.  1.
<mgrwt>
<rscale>  0 0.27652243E+04</rscale>
<asrwt>0</asrwt>
<pdfrwt beam="1">  1        1 0.33431799E+00 0.27652243E+04</pdfrwt>
<pdfrwt beam="2">  1       -2 0.13533629E+00 0.27652243E+04</pdfrwt>
<totfact> 0.68005133E-01</totfact>
</mgrwt>
</event>
<event>
12    4  0.4320235E-008  0.1620056E+04  0.7818608E-02  0.8808321E-01
          1   -1    0    0  501    0  0.00000000000E+00  0.00000000000E+00  0.14978842843E+04  0.14978842843E+04  0.00000000000E+00 0. -1.
         -2   -1    0    0    0  501 -0.00000000000E+00 -0.00000000000E+00 -0.43804820982E+03  0.43804820982E+03  0.00000000000E+00 0.  1.
        -24    2    1    2    0    0 -0.37590201576E+03  0.31379482602E+03  0.62790804762E+02  0.50088021494E+03  0.84668685269E+02 0.  0.
        254    2    1    2    0    0  0.37590201576E+03 -0.31379482602E+03  0.99704526969E+03  0.14350522792E+04  0.90857374815E+03 0.  0.
         23    2    4    4    0    0 -0.17666425097E+03  0.86806796267E+02  0.60487114659E+03  0.64271899294E+03  0.92048478872E+02 0.  0.
         23    2    4    4    0    0  0.55256626673E+03 -0.40060162228E+03  0.39217412310E+03  0.79233328622E+03  0.90445313441E+02 0.  0.
          3    1    3    3  502    0 -0.71249742050E+02  0.43884611227E+02  0.41241212023E+02  0.93291062883E+02  0.00000000000E+00 0. -1.
         -4    1    3    3    0  502 -0.30465227371E+03  0.26991021479E+03  0.21549592739E+02  0.40758915205E+03  0.00000000000E+00 0.  1.
         11    1    5    5    0    0 -0.35738615107E+02  0.54305365579E+01  0.35951555245E+02  0.50982876161E+02  0.00000000000E+00 0. -1.
        -11    1    5    5    0    0 -0.14092563586E+03  0.81376259709E+02  0.56891959134E+03  0.59173611678E+03  0.00000000000E+00 0.  1.
          1    1    6    6  503    0  0.16297011140E+03 -0.69571315598E+02  0.97628249921E+02  0.20231337164E+03  0.00000000000E+00 0. -1.
         -1    1    6    6    0  503  0.38959615533E+03 -0.33103030669E+03  0.29454587318E+03  0.59001991458E+03  0.00000000000E+00 0.  1.
<mgrwt>
<rscale>  0 0.16200562E+04</rscale>
<asrwt>0</asrwt>
<pdfrwt beam="1">  1        1 0.23044373E+00 0.16200562E+04</pdfrwt>
<pdfrwt beam="2">  1       -2 0.67392033E-01 0.16200562E+04</pdfrwt>
<totfact> 0.11140535E+01</totfact>
</mgrwt>
</event>
<event>
12    4  0.4320235E-008  0.1597294E+04  0.7818608E-02  0.8822212E-01
          1   -1    0    0  501    0  0.00000000000E+00  0.00000000000E+00  0.61539135468E+03  0.61539135468E+03  0.00000000000E+00 0. -1.
         -2   -1    0    0    0  501 -0.00000000000E+00 -0.00000000000E+00 -0.10364743071E+04  0.10364743071E+04  0.00000000000E+00 0.  1.
        -24    2    1    2    0    0 -0.65061713277E+02 -0.44588467875E+03 -0.42427308654E+03  0.62387304821E+03  0.78509585694E+02 0.  0.
        254    2    1    2    0    0  0.65061713277E+02  0.44588467875E+03  0.31901341401E+01  0.10279926135E+04  0.92396561801E+03 0.  0.
         23    2    4    4    0    0 -0.35509956601E+03  0.23536307137E+03  0.23773580182E+03  0.49495092705E+03  0.83466349947E+02 0.  0.
         23    2    4    4    0    0  0.42016127928E+03  0.21052160738E+03 -0.23454566768E+03  0.53304168650E+03  0.90922612908E+02 0.  0.
          1    1    3    3  502    0 -0.38821560055E+02 -0.78373392532E+02 -0.62413643074E+02  0.10744749892E+03  0.00000000000E+00 0. -1.
         -2    1    3    3    0  502 -0.26240153222E+02 -0.36751128622E+03 -0.36185944346E+03  0.51642554930E+03  0.00000000000E+00 0.  1.
         11    1    5    5    0    0 -0.50343482409E+02  0.95559255050E+01  0.90110853798E+01  0.52028661265E+02  0.00000000000E+00 0. -1.
        -11    1    5    5    0    0 -0.30475608360E+03  0.22580714587E+03  0.22872471644E+03  0.44292226578E+03  0.00000000000E+00 0.  1.
          3    1    6    6  503    0  0.83168197823E+02  0.70109978105E+02 -0.23264566081E+02  0.11123667648E+03  0.00000000000E+00 0. -1.
         -3    1    6    6    0  503  0.33699308146E+03  0.14041162927E+03 -0.21128110160E+03  0.42180501002E+03  0.00000000000E+00 0.  1.
<mgrwt>
<rscale>  0 0.15972944E+04</rscale>
<asrwt>0</asrwt>
<pdfrwt beam="1">  1        1 0.94675593E-01 0.15972944E+04</pdfrwt>
<pdfrwt beam="2">  1       -2 0.15945759E+00 0.15972944E+04</pdfrwt>
<totfact> 0.70443444E+00</totfact>
</mgrwt>
</event>
<event>
12    4  0.4320235E-008  0.1182359E+04  0.7818608E-02  0.9128439E-01
         -2   -1    0    0    0  501 -0.00000000000E+00  0.00000000000E+00  0.20257823964E+04  0.20257823964E+04  0.00000000000E+00 0.  1.
          1   -1    0    0  501    0  0.00000000000E+00 -0.00000000000E+00 -0.17252260752E+03  0.17252260752E+03  0.00000000000E+00 0. -1.
        -24    2    1    2    0    0  0.13092809179E+02 -0.74290469533E+00 -0.43929753437E+02  0.92813575633E+02  0.80700452447E+02 0.  0.
        254    2    1    2    0    0 -0.13092809179E+02  0.74290469533E+00  0.18971895423E+04  0.21054914283E+04  0.91301370282E+03 0.  0.
         23    2    4    4    0    0 -0.10596754589E+03  0.29916624493E+03  0.16855195989E+04  0.17170026980E+04  0.79952385808E+02 0.  0.
         23    2    4    4    0    0  0.92874736709E+02 -0.29842334023E+03  0.21166994341E+03  0.38848873021E+03  0.91853806921E+02 0.  0.
          1    1    3    3  502    0 -0.17813711361E+02 -0.10645935463E+02 -0.54791517967E+02  0.58589885607E+02  0.00000000000E+00 0. -1.
         -2    1    3    3    0  502  0.30906520540E+02  0.99030307675E+01  0.10861764530E+02  0.34223690026E+02  0.00000000000E+00 0.  1.
         11    1    5    5    0    0  0.28510586839E+01  0.73178030572E+02  0.49119740511E+03  0.49662666409E+03  0.00000000000E+00 0. -1.
        -11    1    5    5    0    0 -0.10881860457E+03  0.22598821435E+03  0.11943221938E+04  0.12203760340E+04  0.00000000000E+00 0.  1.
          3    1    6    6  503    0  0.65286589143E+02 -0.72517498289E+02  0.52877312897E+02  0.11098259548E+03  0.00000000000E+00 0. -1.
         -3    1    6    6    0  503  0.27588147565E+02 -0.22590584194E+03  0.15879263051E+03  0.27750613473E+03  0.00000000000E+00 0.  1.
<mgrwt>
<rscale>  0 0.11823591E+04</rscale>
<asrwt>0</asrwt>
<pdfrwt beam="1">  1        1 0.26541941E-01 0.11823591E+04</pdfrwt>
<pdfrwt beam="2">  1       -2 0.31165881E+00 0.11823591E+04</pdfrwt>
<totfact> 0.42444309E+00</totfact>
</mgrwt>
</event>
<event>
12    4  0.4320235E-008  0.1673722E+04  0.7818608E-02  0.8776495E-01
          1   -1    0    0  501    0  0.00000000000E+00  0.00000000000E+00  0.10914703323E+04  0.10914703323E+04  0.00000000000E+00 0. -1.
         -2   -1    0    0    0  501 -0.00000000000E+00 -0.00000000000E+00 -0.64164452238E+03  0.64164452238E+03  0.00000000000E+00 0.  1.
        -24    2    1    2    0    0 -0.24294606784E+03 -0.29066320404E+03 -0.31082782343E+03  0.49594565787E+03  0.76421657173E+02 0.  0.
        254    2    1    2    0    0  0.24294606784E+03  0.29066320404E+03  0.76065363335E+03  0.12371691968E+04  0.89915837401E+03 0.  0.
         23    2    4    4    0    0  0.28121516053E+03 -0.27107879939E+03  0.26275329704E+03  0.48011524258E+03  0.94369852501E+02 0.  0.
         23    2    4    4    0    0 -0.38269092690E+02  0.56174200343E+03  0.49790033631E+03  0.75705395423E+03  0.90594386381E+02 0.  0.
          1    1    3    3  502    0 -0.30281101872E+01 -0.17709821416E+02 -0.36293512173E+02  0.40497237582E+02  0.00000000000E+00 0. -1.
         -2    1    3    3    0  502 -0.23991795765E+03 -0.27295338262E+03 -0.27453431125E+03  0.45544842029E+03  0.00000000000E+00 0.  1.
         11    1    5    5    0    0  0.22579608696E+02 -0.77125479270E+00 -0.61095974968E+00  0.22601036140E+02  0.00000000000E+00 0. -1.
        -11    1    5    5    0    0  0.25863555183E+03 -0.27030754460E+03  0.26336425679E+03  0.45751420644E+03  0.00000000000E+00 0.  1.
          1    1    6    6  503    0 -0.22348552568E+02  0.42787149345E+03  0.42630525359E+03  0.60440850586E+03  0.00000000000E+00 0. -1.
         -1    1    6    6    0  503 -0.15920540122E+02  0.13387050998E+03  0.71595082715E+02  0.15264544837E+03  0.00000000000E+00 0.  1.
<mgrwt>
<rscale>  0 0.16737216E+04</rscale>
<asrwt>0</asrwt>
<pdfrwt beam="1">  1        1 0.16791851E+00 0.16737216E+04</pdfrwt>
<pdfrwt beam="2">  1       -2 0.98714542E-01 0.16737216E+04</pdfrwt>
<totfact> 0.91653805E+00</totfact>
</mgrwt>
</event>
<event>
12    4  0.4320235E-008  0.1581885E+04  0.7818608E-02  0.8831755E-01
          1   -1    0    0  501    0  0.00000000000E+00  0.00000000000E+00  0.87892042237E+03  0.87892042237E+03  0.00000000000E+00 0. -1.
         -2   -1    0    0    0  501 -0.00000000000E+00 -0.00000000000E+00 -0.71177058756E+03  0.71177058756E+03  0.00000000000E+00 0.  1.
        -24    2    1    2    0    0  0.45163338326E+03 -0.74635943478E+02  0.31417437880E+03  0.56119344641E+03  0.81788184184E+02 0.  0.
        254    2    1    2    0    0 -0.45163338326E+03  0.74635943478E+02 -0.14702454399E+03  0.10294975635E+04  0.91033278520E+03 0.  0.
         23    2    4    4    0    0  0.16345386786E+03  0.21837261900E+03  0.15155501757E+03  0.32492750232E+03  0.90582508046E+02 0.  0.
         23    2    4    4    0    0 -0.61508725112E+03 -0.14373667552E+03 -0.29857956156E+03  0.70457006119E+03  0.90976140679E+02 0.  0.
          1    1    3    3  502    0  0.62080754760E+02 -0.30344347826E+01  0.79138573077E+02  0.10062873176E+03  0.00000000000E+00 0. -1.
         -2    1    3    3    0  502  0.38955262850E+03 -0.71601508695E+02  0.23503580572E+03  0.46056471466E+03  0.00000000000E+00 0.  1.
         11    1    5    5    0    0  0.24159630261E+01  0.61547669524E+02  0.44275345390E+02  0.75856830349E+02  0.00000000000E+00 0.  1.
        -11    1    5    5    0    0  0.16103790483E+03  0.15682494948E+03  0.10727967218E+03  0.24907067197E+03  0.00000000000E+00 0. -1.
          3    1    6    6  503    0 -0.47728818121E+03 -0.73193645160E+02 -0.23796429924E+03  0.53831990984E+03  0.00000000000E+00 0. -1.
         -3    1    6    6    0  503 -0.13779906991E+03 -0.70543030363E+02 -0.60615262317E+02  0.16625015136E+03  0.00000000000E+00 0.  1.
<mgrwt>
<rscale>  0 0.15818846E+04</rscale>
<asrwt>0</asrwt>
<pdfrwt beam="1">  1        1 0.13521853E+00 0.15818846E+04</pdfrwt>
<pdfrwt beam="2">  1       -2 0.10950317E+00 0.15818846E+04</pdfrwt>
<totfact> 0.10594442E+01</totfact>
</mgrwt>
</event>
<event>
12    4  0.4320235E-008  0.2115795E+04  0.7818608E-02  0.8554317E-01
         -2   -1    0    0    0  501 -0.00000000000E+00  0.00000000000E+00  0.12201344524E+04  0.12201344524E+04  0.00000000000E+00 0.  1.
          1   -1    0    0  501    0  0.00000000000E+00 -0.00000000000E+00 -0.91723246956E+03  0.91723246956E+03  0.00000000000E+00 0. -1.
        -24    2    1    2    0    0  0.37274295731E+03 -0.74683766908E+03 -0.11932321193E+03  0.84695591691E+03  0.79952986826E+02 0.  0.
        254    2    1    2    0    0 -0.37274295731E+03  0.74683766908E+03  0.42222519477E+03  0.12904110050E+04  0.88892217356E+03 0.  0.
         23    2    4    4    0    0 -0.60241181029E+03  0.70398124208E+03  0.44995336785E+03  0.10340338812E+04  0.90986019563E+02 0.  0.
         23    2    4    4    0    0  0.22966885298E+03  0.42856426996E+02 -0.27728173082E+02  0.25637712389E+03  0.10186227322E+03 0.  0.
          1    1    3    3  502    0  0.28805661700E+03 -0.60094837295E+03 -0.64269246089E+02  0.66951183525E+03  0.00000000000E+00 0. -1.
         -2    1    3    3    0  502  0.84686340319E+02 -0.14588929613E+03 -0.55053965845E+02  0.17744408166E+03  0.00000000000E+00 0.  1.
         11    1    5    5    0    0 -0.35038095613E+03  0.43779081638E+03  0.22673064712E+03  0.60484245855E+03  0.00000000000E+00 0. -1.
        -11    1    5    5    0    0 -0.25203085416E+03  0.26619042570E+03  0.22322272073E+03  0.42919142260E+03  0.00000000000E+00 0.  1.
          2    1    6    6  503    0  0.20321542672E+03  0.57103506238E+02  0.60458523178E+01  0.21117261283E+03  0.00000000000E+00 0. -1.
         -2    1    6    6    0  503  0.26453426264E+02 -0.14247079242E+02 -0.33774025399E+02  0.45204511055E+02  0.00000000000E+00 0.  1.
<mgrwt>
<rscale>  0 0.21157948E+04</rscale>
<asrwt>0</asrwt>
<pdfrwt beam="1">  1        1 0.14111269E+00 0.21157948E+04</pdfrwt>
<pdfrwt beam="2">  1       -2 0.18771299E+00 0.21157948E+04</pdfrwt>
<totfact> 0.22768722E+00</totfact>
</mgrwt>
</event>
<event>
12    4  0.4320235E-008  0.3986668E+04  0.7818608E-02  0.8007241E-01
          1   -1    0    0  501    0  0.00000000000E+00  0.00000000000E+00  0.15963379371E+04  0.15963379371E+04  0.00000000000E+00 0. -1.
         -2   -1    0    0    0  501 -0.00000000000E+00 -0.00000000000E+00 -0.24890602740E+04  0.24890602740E+04  0.00000000000E+00 0.  1.
        -24    2    1    2    0    0  0.17838091935E+03  0.16590736374E+04 -0.13377936248E+04  0.21401917335E+04  0.79898603353E+02 0.  0.
        254    2    1    2    0    0 -0.17838091935E+03 -0.16590736374E+04  0.44507128794E+03  0.19452064776E+04  0.89520651379E+03 0.  0.
         23    2    4    4    0    0 -0.24309293988E+03 -0.58351128994E+03  0.57036148934E+03  0.85642973172E+03  0.92628580631E+02 0.  0.
         23    2    4    4    0    0  0.64712020530E+02 -0.10755623475E+04 -0.12529020140E+03  0.10887767459E+04  0.93355015131E+02 0.  0.
          1    1    3    3  502    0 -0.50755899500E+01  0.14452021070E+03 -0.12771261163E+03  0.19293098269E+03  0.00000000000E+00 0. -1.
         -2    1    3    3    0  502  0.18345650930E+03  0.15145534267E+04 -0.12100810131E+04  0.19472607508E+04  0.00000000000E+00 0.  1.
         11    1    5    5    0    0 -0.20451232612E+03 -0.38449515161E+03  0.40697781219E+03  0.59606438643E+03  0.00000000000E+00 0.  1.
        -11    1    5    5    0    0 -0.38580613754E+02 -0.19901613833E+03  0.16338367715E+03  0.26036534530E+03  0.00000000000E+00 0. -1.
          3    1    6    6  503    0  0.31300985753E+02 -0.66599024909E+03 -0.12220568753E+03  0.67783257052E+03  0.00000000000E+00 0. -1.
         -3    1    6    6    0  503  0.33411034777E+02 -0.40957209841E+03 -0.30845138727E+01  0.41094417536E+03  0.00000000000E+00 0.  1.
<mgrwt>
<rscale>  0 0.39866685E+04</rscale>
<asrwt>0</asrwt>
<pdfrwt beam="1">  1        1 0.24559045E+00 0.39866685E+04</pdfrwt>
<pdfrwt beam="2">  1       -2 0.38293235E+00 0.39866685E+04</pdfrwt>
<totfact> 0.36996848E-02</totfact>
</mgrwt>
</event>
<event>
12    4  0.4320235E-008  0.2012112E+04  0.7818608E-02  0.8600979E-01
         -2   -1    0    0    0  501 -0.00000000000E+00  0.00000000000E+00  0.37718875967E+03  0.37718875967E+03  0.00000000000E+00 0.  1.
          1   -1    0    0  501    0  0.00000000000E+00 -0.00000000000E+00 -0.26834004439E+04  0.26834004439E+04  0.00000000000E+00 0. -1.
        -24    2    1    2    0    0  0.60370934483E+03  0.36101663947E+03 -0.15072290224E+04  0.16652092697E+04  0.79903684841E+02 0.  0.
        254    2    1    2    0    0 -0.60370934483E+03 -0.36101663947E+03 -0.79898266179E+03  0.13953799339E+04  0.90217175690E+03 0.  0.
         23    2    4    4    0    0 -0.13051996804E+03  0.22441476351E+03 -0.51735814878E+03  0.58658658254E+03  0.95010086668E+02 0.  0.
         23    2    4    4    0    0 -0.47318937679E+03 -0.58543140297E+03 -0.28162451302E+03  0.80879335132E+03  0.90532894082E+02 0.  0.
          3    1    3    3  502    0  0.29437185885E+03  0.16364774865E+03 -0.63122545542E+03  0.71545856099E+03  0.00000000000E+00 0. -1.
         -4    1    3    3    0  502  0.30933748598E+03  0.19736889082E+03 -0.87600356702E+03  0.94975070873E+03  0.00000000000E+00 0.  1.
         11    1    5    5    0    0 -0.19144771172E+02  0.72556422901E+02 -0.76354176860E+02  0.10705567286E+03  0.00000000000E+00 0.  1.
        -11    1    5    5    0    0 -0.11137519687E+03  0.15185834061E+03 -0.44100397192E+03  0.47953090968E+03  0.00000000000E+00 0. -1.
          3    1    6    6  503    0 -0.20311580290E+03 -0.31428088225E+03 -0.11583644918E+03  0.39172258716E+03  0.00000000000E+00 0. -1.
         -3    1    6    6    0  503 -0.27007357389E+03 -0.27115052073E+03 -0.16578806384E+03  0.41707076416E+03  0.00000000000E+00 0.  1.
<mgrwt>
<rscale>  0 0.20121118E+04</rscale>
<asrwt>0</asrwt>
<pdfrwt beam="1">  1        1 0.41283082E+00 0.20121118E+04</pdfrwt>
<pdfrwt beam="2">  1       -2 0.58029042E-01 0.20121118E+04</pdfrwt>
<totfact> 0.22830390E+00</totfact>
</mgrwt>
</event>
<event>
12    4  0.4320235E-008  0.2227663E+04  0.7818608E-02  0.8507001E-01
         -2   -1    0    0    0  501 -0.00000000000E+00  0.00000000000E+00  0.71188347015E+03  0.71188347015E+03  0.00000000000E+00 0.  1.
          1   -1    0    0  501    0  0.00000000000E+00 -0.00000000000E+00 -0.17427303840E+04  0.17427303840E+04  0.00000000000E+00 0. -1.
        -24    2    1    2    0    0  0.18520748493E+03 -0.68682981744E+03 -0.10855341417E+04  0.13001499667E+04  0.77256407793E+02 0.  0.
        254    2    1    2    0    0 -0.18520748493E+03  0.68682981744E+03  0.54687227865E+02  0.11544638874E+04  0.90761179140E+03 0.  0.
         23    2    4    4    0    0 -0.38739525669E+03  0.45428331228E+03  0.36585828458E+03  0.70618533549E+03  0.91635314891E+02 0.  0.
         23    2    4    4    0    0  0.20218777176E+03  0.23254650515E+03 -0.31117105671E+03  0.44827855194E+03  0.95752083452E+02 0.  0.
          3    1    3    3  502    0  0.18702111889E+03 -0.66829658596E+03 -0.10724231423E+04  0.12773756776E+04  0.00000000000E+00 0. -1.
         -4    1    3    3    0  502 -0.18136339621E+01 -0.18533231474E+02 -0.13110999423E+02  0.22774289076E+02  0.00000000000E+00 0.  1.
         11    1    5    5    0    0 -0.18187810380E+03  0.27241958964E+03  0.17008181503E+03  0.36907980339E+03  0.00000000000E+00 0. -1.
        -11    1    5    5    0    0 -0.20551715289E+03  0.18186372264E+03  0.19577646954E+03  0.33710553210E+03  0.00000000000E+00 0.  1.
          4    1    6    6  503    0  0.17457073442E+03  0.18739086442E+03 -0.29951199709E+03  0.39407830921E+03  0.00000000000E+00 0. -1.
         -4    1    6    6    0  503  0.27617037335E+02  0.45155640731E+02 -0.11659059622E+02  0.54200242733E+02  0.00000000000E+00 0.  1.
<mgrwt>
<rscale>  0 0.22276633E+04</rscale>
<asrwt>0</asrwt>
<pdfrwt beam="1">  1        1 0.26811236E+00 0.22276633E+04</pdfrwt>
<pdfrwt beam="2">  1       -2 0.10952054E+00 0.22276633E+04</pdfrwt>
<totfact> 0.23637511E+00</totfact>
</mgrwt>
</event>
<event>
12    4  0.4320235E-008  0.2633424E+04  0.7818608E-02  0.8356936E-01
         -2   -1    0    0    0  501 -0.00000000000E+00  0.00000000000E+00  0.45185976041E+03  0.45185976041E+03  0.00000000000E+00 0.  1.
          1   -1    0    0  501    0  0.00000000000E+00 -0.00000000000E+00 -0.38368781868E+04  0.38368781868E+04  0.00000000000E+00 0. -1.
        -24    2    1    2    0    0 -0.60550654028E+03 -0.72651409620E+03 -0.25996751875E+04  0.27676769222E+04  0.85226539159E+02 0.  0.
        254    2    1    2    0    0  0.60550654028E+03  0.72651409620E+03 -0.78534323895E+03  0.15210610251E+04  0.89576879645E+03 0.  0.
         23    2    4    4    0    0 -0.31822857627E+02  0.14074831100E+03  0.16151364987E+03  0.23492972876E+03  0.91008444917E+02 0.  0.
         23    2    4    4    0    0  0.63732939790E+03  0.58576578520E+03 -0.94685688882E+03  0.12861312963E+04  0.91024320196E+02 0.  0.
          1    1    3    3  502    0 -0.41750823120E+03 -0.55242149224E+03 -0.19504470611E+04  0.20697164942E+04  0.00000000000E+00 0. -1.
         -2    1    3    3    0  502 -0.18799830907E+03 -0.17409260396E+03 -0.64922812633E+03  0.69796042795E+03  0.00000000000E+00 0.  1.
         11    1    5    5    0    0  0.29071357589E+02  0.71525423627E+02  0.87566991202E+02  0.11674334245E+03  0.00000000000E+00 0.  1.
        -11    1    5    5    0    0 -0.60894215216E+02  0.69222887374E+02  0.73946658664E+02  0.11818638632E+03  0.00000000000E+00 0. -1.
          4    1    6    6  503    0  0.55071042554E+03  0.53466584888E+03 -0.80545133786E+03  0.11126101745E+04  0.00000000000E+00 0. -1.
         -4    1    6    6    0  503  0.86618972362E+02  0.51099936322E+02 -0.14140555096E+03  0.17352112179E+03  0.00000000000E+00 0.  1.
<mgrwt>
<rscale>  0 0.26334243E+04</rscale>
<asrwt>0</asrwt>
<pdfrwt beam="1">  1        1 0.59028894E+00 0.26334243E+04</pdfrwt>
<pdfrwt beam="2">  1       -2 0.69516888E-01 0.26334243E+04</pdfrwt>
<totfact> 0.19361675E-01</totfact>
</mgrwt>
</event>
<event>
12    4  0.4320235E-008  0.1127591E+04  0.7818608E-02  0.9178709E-01
         -2   -1    0    0    0  501 -0.00000000000E+00  0.00000000000E+00  0.39914384244E+03  0.39914384244E+03  0.00000000000E+00 0.  1.
          1   -1    0    0  501    0  0.00000000000E+00 -0.00000000000E+00 -0.79636827451E+03  0.79636827451E+03  0.00000000000E+00 0. -1.
        -24    2    1    2    0    0 -0.11901362195E+03  0.15594705065E+02 -0.23023695444E+03  0.27168976805E+03  0.79992736171E+02 0.  0.
        254    2    1    2    0    0  0.11901362195E+03 -0.15594705065E+02 -0.16698747764E+03  0.92382234890E+03  0.90064170323E+03 0.  0.
         23    2    4    4    0    0 -0.23013985785E+02 -0.16021417303E+03 -0.49416712952E+03  0.52834728253E+03  0.93549314701E+02 0.  0.
         23    2    4    4    0    0  0.14202760774E+03  0.14461946797E+03  0.32717965188E+03  0.39547506636E+03  0.90925088029E+02 0.  0.
          3    1    3    3  502    0 -0.13108353964E+03  0.14767558531E+02 -0.20629013675E+03  0.24486035953E+03  0.00000000000E+00 0. -1.
         -4    1    3    3    0  502  0.12069917686E+02  0.82714653391E+00 -0.23946817689E+02  0.26829408524E+02  0.00000000000E+00 0.  1.
         11    1    5    5    0    0  0.22664683363E+02 -0.12812470449E+03 -0.31956388823E+03  0.34503725369E+03  0.00000000000E+00 0. -1.
        -11    1    5    5    0    0 -0.45678669148E+02 -0.32089468547E+02 -0.17460324129E+03  0.18331002884E+03  0.00000000000E+00 0.  1.
          4    1    6    6  503    0 -0.18821462240E+00  0.52747417807E+02  0.72744677363E+02  0.89856071552E+02  0.00000000000E+00 0. -1.
         -4    1    6    6    0  503  0.14221582236E+03  0.91872050163E+02  0.25443497452E+03  0.30561899481E+03  0.00000000000E+00 0.  1.
<mgrwt>
<rscale>  0 0.11275912E+04</rscale>
<asrwt>0</asrwt>
<pdfrwt beam="1">  1        1 0.12251820E+00 0.11275912E+04</pdfrwt>
<pdfrwt beam="2">  1       -2 0.61406745E-01 0.11275912E+04</pdfrwt>
<totfact> 0.47865924E+01</totfact>
</mgrwt>
</event>
<event>
12    4  0.4320235E-008  0.4011047E+04  0.7818608E-02  0.8002322E-01
          1   -1    0    0  501    0  0.00000000000E+00  0.00000000000E+00  0.21836694140E+04  0.21836694140E+04  0.00000000000E+00 0. -1.
         -2   -1    0    0    0  501 -0.00000000000E+00 -0.00000000000E+00 -0.18419111838E+04  0.18419111838E+04  0.00000000000E+00 0.  1.
        -24    2    1    2    0    0  0.12502211655E+04  0.14291327728E+04  0.33130027369E+02  0.19007235949E+04  0.78607508713E+02 0.  0.
        254    2    1    2    0    0 -0.12502211655E+04 -0.14291327728E+04  0.30862820280E+03  0.21248570029E+04  0.90238155471E+03 0.  0.
         23    2    4    4    0    0  0.62899939189E+02 -0.25962812315E+03  0.22773456194E+03  0.36243340492E+03  0.90176369500E+02 0.  0.
         23    2    4    4    0    0 -0.13131211047E+04 -0.11695046497E+04  0.80893640862E+02  0.17624235980E+04  0.86976988382E+02 0.  0.
          3    1    3    3  502    0  0.43971071860E+03  0.44698440400E+03  0.61180011843E+01  0.62703907646E+03  0.00000000000E+00 0. -1.
         -4    1    3    3    0  502  0.81051044687E+03  0.98214836885E+03  0.27012026185E+02  0.12736845184E+04  0.00000000000E+00 0.  1.
         11    1    5    5    0    0  0.70613853068E+02 -0.26236272983E+03  0.22729631013E+03  0.35423739335E+03  0.00000000000E+00 0. -1.
        -11    1    5    5    0    0 -0.77139138785E+01  0.27346066741E+01  0.43825180890E+00  0.81960115687E+01  0.00000000000E+00 0.  1.
          2    1    6    6  503    0 -0.12478466390E+04 -0.10927715994E+04  0.61515179638E+02  0.16598358714E+04  0.00000000000E+00 0. -1.
         -2    1    6    6    0  503 -0.65274465701E+02 -0.76733050328E+02  0.19378461224E+02  0.10258772658E+03  0.00000000000E+00 0.  1.
<mgrwt>
<rscale>  0 0.40110473E+04</rscale>
<asrwt>0</asrwt>
<pdfrwt beam="1">  1        1 0.33594914E+00 0.40110473E+04</pdfrwt>
<pdfrwt beam="2">  1       -2 0.28337095E+00 0.40110473E+04</pdfrwt>
<totfact> 0.61727317E-02</totfact>
</mgrwt>
</event>
<event>
12    4  0.4320235E-008  0.2421612E+04  0.7818608E-02  0.8431457E-01
          1   -1    0    0  501    0  0.00000000000E+00  0.00000000000E+00  0.61551358599E+03  0.61551358599E+03  0.00000000000E+00 0. -1.
         -2   -1    0    0    0  501 -0.00000000000E+00 -0.00000000000E+00 -0.23818330105E+04  0.23818330105E+04  0.00000000000E+00 0.  1.
        -24    2    1    2    0    0  0.83907201458E+03  0.48713579854E+03 -0.30255289036E+03  0.10193058521E+04  0.78121935990E+02 0.  0.
        254    2    1    2    0    0 -0.83907201458E+03 -0.48713579854E+03 -0.14637665341E+04  0.19780407443E+04  0.91032389173E+03 0.  0.
         23    2    4    4    0    0 -0.72485942991E+03  0.58419805840E+02 -0.60781014514E+03  0.95267504087E+03  0.96553063726E+02 0.  0.
         23    2    4    4    0    0 -0.11421258468E+03 -0.54555560438E+03 -0.85595638899E+03  0.10253657034E+04  0.89655194965E+02 0.  0.
          3    1    3    3  502    0  0.79957349186E+03  0.44314459669E+03 -0.28733986534E+03  0.95825836844E+03  0.00000000000E+00 0. -1.
         -4    1    3    3    0  502  0.39498522721E+02  0.43991201848E+02 -0.15213025013E+02  0.61047483709E+02  0.00000000000E+00 0.  1.
         11    1    5    5    0    0 -0.35192254203E+02  0.96054940728E+01 -0.79622750453E+01  0.37338426536E+02  0.00000000000E+00 0.  1.
        -11    1    5    5    0    0 -0.68966717571E+03  0.48814311767E+02 -0.59984787010E+03  0.91533661433E+03  0.00000000000E+00 0. -1.
          2    1    6    6  503    0 -0.25404019707E+02 -0.27008566524E+03 -0.35466233495E+03  0.44651651998E+03  0.00000000000E+00 0. -1.
         -2    1    6    6    0  503 -0.88808564968E+02 -0.27546993914E+03 -0.50129405404E+03  0.57884918346E+03  0.00000000000E+00 0.  1.
<mgrwt>
<rscale>  0 0.24216115E+04</rscale>
<asrwt>0</asrwt>
<pdfrwt beam="1">  1        1 0.94694400E-01 0.24216115E+04</pdfrwt>
<pdfrwt beam="2">  1       -2 0.36643584E+00 0.24216115E+04</pdfrwt>
<totfact> 0.31673745E-01</totfact>
</mgrwt>
</event>
<event>
12    4  0.4320235E-008  0.1353897E+04  0.7818608E-02  0.8987884E-01
          1   -1    0    0  501    0  0.00000000000E+00  0.00000000000E+00  0.15861795301E+04  0.15861795301E+04  0.00000000000E+00 0. -1.
         -2   -1    0    0    0  501 -0.00000000000E+00 -0.00000000000E+00 -0.28890742868E+03  0.28890742868E+03  0.00000000000E+00 0.  1.
        -24    2    1    2    0    0  0.33035623827E+03 -0.19676723392E+03  0.26727256095E+03  0.47500297212E+03  0.79627967321E+02 0.  0.
        254    2    1    2    0    0 -0.33035623827E+03  0.19676723392E+03  0.10299995405E+04  0.14000839867E+04  0.86688149584E+03 0.  0.
         23    2    4    4    0    0  0.57540802253E+02  0.32760976354E+03  0.89540214978E+03  0.95965241860E+03  0.92458929292E+02 0.  0.
         23    2    4    4    0    0 -0.38789704052E+03 -0.13084252962E+03  0.13459739072E+03  0.44043156809E+03  0.90992455577E+02 0.  0.
          3    1    3    3  502    0  0.15002610258E+02  0.67214945627E+01  0.18416468689E+02  0.24686496768E+02  0.00000000000E+00 0. -1.
         -4    1    3    3    0  502  0.31535362801E+03 -0.20348872848E+03  0.24885609226E+03  0.45031647535E+03  0.00000000000E+00 0.  1.
         11    1    5    5    0    0  0.51774167443E+02  0.30339599498E+03  0.87472421253E+03  0.92729291067E+03  0.00000000000E+00 0. -1.
        -11    1    5    5    0    0  0.57666348098E+01  0.24213768558E+02  0.20677937247E+02  0.32359507932E+02  0.00000000000E+00 0.  1.
          3    1    6    6  503    0 -0.35470938886E+03 -0.10486740820E+03  0.93399909017E+02  0.38149635234E+03  0.00000000000E+00 0. -1.
         -3    1    6    6    0  503 -0.33187651669E+02 -0.25975121420E+02  0.41197481704E+02  0.58935215744E+02  0.00000000000E+00 0.  1.
<mgrwt>
<rscale>  0 0.13538967E+04</rscale>
<asrwt>0</asrwt>
<pdfrwt beam="1">  1        1 0.24402762E+00 0.13538967E+04</pdfrwt>
<pdfrwt beam="2">  1       -2 0.44447298E-01 0.13538967E+04</pdfrwt>
<totfact> 0.23512009E+01</totfact>
</mgrwt>
</event>
<event>
12    4  0.4320235E-008  0.1393713E+04  0.7818608E-02  0.8958382E-01
          1   -1    0    0  501    0  0.00000000000E+00  0.00000000000E+00  0.20003423114E+04  0.20003423114E+04  0.00000000000E+00 0. -1.
         -2   -1    0    0    0  501 -0.00000000000E+00 -0.00000000000E+00 -0.24276295855E+03  0.24276295855E+03  0.00000000000E+00 0.  1.
        -24    2    1    2    0    0  0.15895701938E+03  0.29983109275E+02 -0.67439615829E+02  0.20156986710E+03  0.99579057474E+02 0.  0.
        254    2    1    2    0    0 -0.15895701938E+03 -0.29983109275E+02  0.18250189687E+04  0.20415354028E+04  0.90055885103E+03 0.  0.
         23    2    4    4    0    0 -0.11552332197E+03  0.37534880094E+01 -0.54954488881E+02  0.15861004932E+03  0.93687914415E+02 0.  0.
         23    2    4    4    0    0 -0.43433697408E+02 -0.33736597284E+02  0.18799734576E+04  0.18829253535E+04  0.89905738034E+02 0.  0.
          3    1    3    3  502    0  0.36844448445E+02  0.51847613809E+02 -0.83173122594E+01  0.64147222248E+02  0.00000000000E+00 0. -1.
         -4    1    3    3    0  502  0.12211257093E+03 -0.21864504534E+02 -0.59122303569E+02  0.13742264485E+03  0.00000000000E+00 0.  1.
         11    1    5    5    0    0 -0.51933805621E+02 -0.44568427731E+02 -0.31741800467E+02  0.75438762010E+02  0.00000000000E+00 0.  1.
        -11    1    5    5    0    0 -0.63589516348E+02  0.48321915740E+02 -0.23212688414E+02  0.83171287314E+02  0.00000000000E+00 0. -1.
          1    1    6    6  503    0 -0.54243181647E+02 -0.52123104404E+02  0.10561048725E+04  0.10587807339E+04  0.00000000000E+00 0. -1.
         -1    1    6    6    0  503  0.10809484239E+02  0.18386507120E+02  0.82386858501E+03  0.82414461956E+03  0.00000000000E+00 0.  1.
<mgrwt>
<rscale>  0 0.13937131E+04</rscale>
<asrwt>0</asrwt>
<pdfrwt beam="1">  1        1 0.30774496E+00 0.13937131E+04</pdfrwt>
<pdfrwt beam="2">  1       -2 0.37348149E-01 0.13937131E+04</pdfrwt>
<totfact> 0.17259127E+01</totfact>
</mgrwt>
</event>
<event>
12    4  0.4320235E-008  0.2279417E+04  0.7818608E-02  0.8486081E-01
         -2   -1    0    0    0  501 -0.00000000000E+00  0.00000000000E+00  0.69162636105E+03  0.69162636105E+03  0.00000000000E+00 0.  1.
          1   -1    0    0  501    0  0.00000000000E+00 -0.00000000000E+00 -0.18780876564E+04  0.18780876564E+04  0.00000000000E+00 0. -1.
        -24    2    1    2    0    0  0.77601210019E+03 -0.53804262864E+03 -0.27532875572E+03  0.98651728713E+03  0.75668911726E+02 0.  0.
        254    2    1    2    0    0 -0.77601210019E+03  0.53804262864E+03 -0.91113253966E+03  0.15831967304E+04  0.88581303462E+03 0.  0.
         23    2    4    4    0    0 -0.38256181889E+03 -0.10475365411E+03 -0.11699309636E+02  0.40633802377E+03  0.87446225729E+02 0.  0.
         23    2    4    4    0    0 -0.39345028131E+03  0.64279628275E+03 -0.89943323002E+03  0.11768587066E+04  0.89588475930E+02 0.  0.
          1    1    3    3  502    0  0.49192977718E+03 -0.36181551537E+03 -0.14448253339E+03  0.62751938241E+03  0.00000000000E+00 0. -1.
         -2    1    3    3    0  502  0.28408232302E+03 -0.17622711327E+03 -0.13084622232E+03  0.35899790473E+03  0.00000000000E+00 0.  1.
         11    1    5    5    0    0 -0.27933306175E+03 -0.49735118194E+02  0.22077439567E+02  0.28458382720E+03  0.00000000000E+00 0.  1.
        -11    1    5    5    0    0 -0.10322875714E+03 -0.55018535914E+02 -0.33776749203E+02  0.12175419657E+03  0.00000000000E+00 0. -1.
          3    1    6    6  503    0 -0.26259523279E+03  0.49974563497E+03 -0.64968491665E+03  0.86069300385E+03  0.00000000000E+00 0. -1.
         -3    1    6    6    0  503 -0.13085504852E+03  0.14305064778E+03 -0.24974831337E+03  0.31616570273E+03  0.00000000000E+00 0.  1.
<mgrwt>
<rscale>  0 0.22794165E+04</rscale>
<asrwt>0</asrwt>
<pdfrwt beam="1">  1        1 0.28893657E+00 0.22794165E+04</pdfrwt>
<pdfrwt beam="2">  1       -2 0.10640405E+00 0.22794165E+04</pdfrwt>
<totfact> 0.20417059E+00</totfact>
</mgrwt>
</event>
<event>
12    4  0.4320235E-008  0.1492388E+04  0.7818608E-02  0.8889530E-01
         -2   -1    0    0    0  501 -0.00000000000E+00  0.00000000000E+00  0.12447585512E+04  0.12447585512E+04  0.00000000000E+00 0.  1.
          1   -1    0    0  501    0  0.00000000000E+00 -0.00000000000E+00 -0.44732030150E+03  0.44732030150E+03  0.00000000000E+00 0. -1.
        -24    2    1    2    0    0  0.22359552023E+03  0.39505327521E+03  0.39667218674E+03  0.60846896649E+03  0.82605160466E+02 0.  0.
        254    2    1    2    0    0 -0.22359552023E+03 -0.39505327521E+03  0.40076606295E+03  0.10836098862E+04  0.89862945717E+03 0.  0.
         23    2    4    4    0    0 -0.32717799167E+03  0.42236732586E+02  0.50683094178E+03  0.61170662029E+03  0.92076087837E+02 0.  0.
         23    2    4    4    0    0  0.10358247143E+03 -0.43729000779E+03 -0.10606487883E+03  0.47190326589E+03  0.97422043367E+02 0.  0.
          1    1    3    3  502    0  0.28749371227E+02  0.19676339320E+02  0.12237918930E+02  0.36924941906E+02  0.00000000000E+00 0. -1.
         -2    1    3    3    0  502  0.19484614901E+03  0.37537693589E+03  0.38443426781E+03  0.57154402459E+03  0.00000000000E+00 0.  1.
         11    1    5    5    0    0 -0.14299796231E+03  0.20781034194E+01  0.29698007821E+03  0.32962084672E+03  0.00000000000E+00 0. -1.
        -11    1    5    5    0    0 -0.18418002935E+03  0.40158629167E+02  0.20985086357E+03  0.28208577357E+03  0.00000000000E+00 0.  1.
          1    1    6    6  503    0  0.81425042730E+02 -0.23573015142E+03 -0.15657124071E+02  0.24988774961E+03  0.00000000000E+00 0. -1.
         -1    1    6    6    0  503  0.22157428703E+02 -0.20155985637E+03 -0.90407754762E+02  0.22201551628E+03  0.00000000000E+00 0.  1.
<mgrwt>
<rscale>  0 0.14923884E+04</rscale>
<asrwt>0</asrwt>
<pdfrwt beam="1">  1        1 0.68818508E-01 0.14923884E+04</pdfrwt>
<pdfrwt beam="2">  1       -2 0.19150131E+00 0.14923884E+04</pdfrwt>
<totfact> 0.66094014E+00</totfact>
</mgrwt>
</event>
<event>
12    4  0.4320235E-008  0.1322108E+04  0.7818608E-02  0.9012215E-01
          1   -1    0    0  501    0  0.00000000000E+00  0.00000000000E+00  0.86911670267E+03  0.86911670267E+03  0.00000000000E+00 0. -1.
         -2   -1    0    0    0  501 -0.00000000000E+00 -0.00000000000E+00 -0.50280023823E+03  0.50280023823E+03  0.00000000000E+00 0.  1.
        -24    2    1    2    0    0 -0.22256033446E+03 -0.87687468897E+02 -0.17243877862E+03  0.31011402267E+03  0.95986353267E+02 0.  0.
        254    2    1    2    0    0  0.22256033446E+03  0.87687468897E+02  0.53875524305E+03  0.10618029182E+04  0.88314553192E+03 0.  0.
         23    2    4    4    0    0  0.53943933496E+03  0.72266738316E+02  0.47008431657E+03  0.72527047326E+03  0.93918672961E+02 0.  0.
         23    2    4    4    0    0 -0.31687900050E+03  0.15420730581E+02  0.68670926481E+02  0.33653244496E+03  0.88816048559E+02 0.  0.
          3    1    3    3  502    0 -0.36261399101E+02 -0.14205837329E+02 -0.81172234038E+02  0.90031252672E+02  0.00000000000E+00 0. -1.
         -4    1    3    3    0  502 -0.18629893536E+03 -0.73481631568E+02 -0.91266544578E+02  0.22008277000E+03  0.00000000000E+00 0.  1.
         11    1    5    5    0    0  0.13960595638E+03 -0.14492328326E+02  0.89332507011E+02  0.16637351786E+03  0.00000000000E+00 0.  1.
        -11    1    5    5    0    0  0.39983337858E+03  0.86759066642E+02  0.38075180956E+03  0.55889695539E+03  0.00000000000E+00 0. -1.
          2    1    6    6  503    0 -0.75259679198E+01  0.16239089419E+02 -0.48866693827E+01  0.18553375864E+02  0.00000000000E+00 0.  1.
         -2    1    6    6    0  503 -0.30935303258E+03 -0.81835883821E+00  0.73557595864E+02  0.31797906910E+03  0.00000000000E+00 0. -1.
<mgrwt>
<rscale>  0 0.13221075E+04</rscale>
<asrwt>0</asrwt>
<pdfrwt beam="1">  1        1 0.13371026E+00 0.13221075E+04</pdfrwt>
<pdfrwt beam="2">  1       -2 0.77353883E-01 0.13221075E+04</pdfrwt>
<totfact> 0.24733561E+01</totfact>
</mgrwt>
</event>
<event>
12    4  0.4320235E-008  0.1566660E+04  0.7818608E-02  0.8841296E-01
          1   -1    0    0  501    0  0.00000000000E+00  0.00000000000E+00  0.16867064491E+04  0.16867064491E+04  0.00000000000E+00 0. -1.
         -2   -1    0    0    0  501 -0.00000000000E+00 -0.00000000000E+00 -0.36378938192E+03  0.36378938192E+03  0.00000000000E+00 0.  1.
        -24    2    1    2    0    0  0.43522905498E+03  0.42577685080E+03  0.62603402800E+03  0.87724087908E+03  0.83202756896E+02 0.  0.
        254    2    1    2    0    0 -0.43522905498E+03 -0.42577685080E+03  0.69688303915E+03  0.11732549519E+04  0.72122878129E+03 0.  0.
         23    2    4    4    0    0 -0.24988095822E+03 -0.16643422779E+03  0.77318547496E+03  0.83387765475E+03  0.85996040288E+02 0.  0.
         23    2    4    4    0    0 -0.18534809676E+03 -0.25934262300E+03 -0.76302435805E+02  0.33937729716E+03  0.87990766803E+02 0.  0.
          3    1    3    3  502    0  0.33543727758E+02  0.10847809162E+02  0.53181758551E+02  0.63805611650E+02  0.00000000000E+00 0. -1.
         -4    1    3    3    0  502  0.40168532722E+03  0.41492904163E+03  0.57285226945E+03  0.81343526743E+03  0.00000000000E+00 0.  1.
         11    1    5    5    0    0 -0.42919876879E+00 -0.14906653932E+02  0.85920620752E+02  0.87205192583E+02  0.00000000000E+00 0. -1.
        -11    1    5    5    0    0 -0.24945175945E+03 -0.15152757386E+03  0.68726485420E+03  0.74667246217E+03  0.00000000000E+00 0.  1.
          2    1    6    6  503    0 -0.75950469674E+01  0.53308886059E+01  0.47334781393E+01  0.10416761832E+02  0.00000000000E+00 0. -1.
         -2    1    6    6    0  503 -0.17775304979E+03 -0.26467351161E+03 -0.81035913944E+02  0.32896053533E+03  0.00000000000E+00 0.  1.
<mgrwt>
<rscale>  0 0.15666600E+04</rscale>
<asrwt>0</asrwt>
<pdfrwt beam="1">  1        1 0.25949329E+00 0.15666600E+04</pdfrwt>
<pdfrwt beam="2">  1       -2 0.55967598E-01 0.15666600E+04</pdfrwt>
<totfact> 0.12321295E+01</totfact>
</mgrwt>
</event>
<event>
12    4  0.4320235E-008  0.3262487E+04  0.7818608E-02  0.8172507E-01
         -2   -1    0    0    0  501 -0.00000000000E+00  0.00000000000E+00  0.11211433106E+04  0.11211433106E+04  0.00000000000E+00 0.  1.
          1   -1    0    0  501    0  0.00000000000E+00 -0.00000000000E+00 -0.23734304951E+04  0.23734304951E+04  0.00000000000E+00 0. -1.
        -24    2    1    2    0    0 -0.73060765688E+03 -0.91367137754E+03 -0.15983840312E+04  0.19823720927E+04  0.79904119587E+02 0.  0.
        254    2    1    2    0    0  0.73060765688E+03  0.91367137754E+03  0.34609684676E+03  0.15122017130E+04  0.89352563426E+03 0.  0.
         23    2    4    4    0    0 -0.68544341533E+02  0.41781558175E+03 -0.13080506723E+03  0.45379369524E+03  0.97726992779E+02 0.  0.
         23    2    4    4    0    0  0.79915199841E+03  0.49585579579E+03  0.47690191399E+03  0.10584080178E+04  0.90968179792E+02 0.  0.
          3    1    3    3  502    0 -0.55772898106E+03 -0.65764376305E+03 -0.11337769006E+04  0.14244321660E+04  0.00000000000E+00 0. -1.
         -4    1    3    3    0  502 -0.17287867581E+03 -0.25602761449E+03 -0.46460713062E+03  0.55793992665E+03  0.00000000000E+00 0.  1.
         11    1    5    5    0    0  0.30607246925E+01  0.53920255297E+02  0.13773684851E+02  0.55735772725E+02  0.00000000000E+00 0.  1.
        -11    1    5    5    0    0 -0.71605066225E+02  0.36389532645E+03 -0.14457875208E+03  0.39805792251E+03  0.00000000000E+00 0. -1.
          3    1    6    6  503    0  0.69322343727E+03  0.41030103343E+03  0.37625936975E+03  0.88908761399E+03  0.00000000000E+00 0. -1.
         -3    1    6    6    0  503  0.10592856114E+03  0.85554762354E+02  0.10064254424E+03  0.16932040379E+03  0.00000000000E+00 0.  1.
<mgrwt>
<rscale>  0 0.32624872E+04</rscale>
<asrwt>0</asrwt>
<pdfrwt beam="1">  1        1 0.36514315E+00 0.32624872E+04</pdfrwt>
<pdfrwt beam="2">  1       -2 0.17248359E+00 0.32624872E+04</pdfrwt>
<totfact> 0.24827705E-01</totfact>
</mgrwt>
</event>
<event>
12    4  0.4320235E-008  0.1562197E+04  0.7818608E-02  0.8844114E-01
         -2   -1    0    0    0  501 -0.00000000000E+00  0.00000000000E+00  0.79838680661E+03  0.79838680661E+03  0.00000000000E+00 0.  1.
          1   -1    0    0  501    0  0.00000000000E+00 -0.00000000000E+00 -0.76418495596E+03  0.76418495596E+03  0.00000000000E+00 0. -1.
        -24    2    1    2    0    0 -0.16291133320E+02 -0.47306659800E+03  0.22468205116E+03  0.52979454769E+03  0.78376217527E+02 0.  0.
        254    2    1    2    0    0  0.16291133320E+02  0.47306659800E+03 -0.19048020051E+03  0.10327772149E+04  0.89793577811E+03 0.  0.
         23    2    4    4    0    0 -0.14256985891E+03  0.45203801791E+03 -0.48520576828E+03  0.68502887234E+03  0.95788225091E+02 0.  0.
         23    2    4    4    0    0  0.15886099223E+03  0.21028580099E+02  0.29472556777E+03  0.34774834254E+03  0.91579110092E+02 0.  0.
          3    1    3    3  502    0 -0.15038780000E+02 -0.91415699829E+02  0.13537514543E+02  0.93628304369E+02  0.00000000000E+00 0. -1.
         -4    1    3    3    0  502 -0.12523533200E+01 -0.38165089818E+03  0.21114453662E+03  0.43616624332E+03  0.00000000000E+00 0.  1.
         11    1    5    5    0    0 -0.13432038677E+03  0.27263359126E+03 -0.30021611387E+03  0.42720107258E+03  0.00000000000E+00 0. -1.
        -11    1    5    5    0    0 -0.82494721359E+01  0.17940442664E+03 -0.18498965441E+03  0.25782779976E+03  0.00000000000E+00 0.  1.
          4    1    6    6  503    0  0.78836530402E+02 -0.27647825488E+02  0.91068214390E+02  0.12358406229E+03  0.00000000000E+00 0. -1.
         -4    1    6    6    0  503  0.80024461828E+02  0.48676405587E+02  0.20365735338E+03  0.22416428025E+03  0.00000000000E+00 0.  1.
<mgrwt>
<rscale>  0 0.15621974E+04</rscale>
<asrwt>0</asrwt>
<pdfrwt beam="1">  1        1 0.11756692E+00 0.15621974E+04</pdfrwt>
<pdfrwt beam="2">  1       -2 0.12282874E+00 0.15621974E+04</pdfrwt>
<totfact> 0.10042892E+01</totfact>
</mgrwt>
</event>
<event>
12    4  0.4320235E-008  0.1848023E+04  0.7818608E-02  0.8681170E-01
          1   -1    0    0  501    0  0.00000000000E+00  0.00000000000E+00  0.13286920811E+04  0.13286920811E+04  0.00000000000E+00 0. -1.
         -2   -1    0    0    0  501 -0.00000000000E+00 -0.00000000000E+00 -0.64258440254E+03  0.64258440254E+03  0.00000000000E+00 0.  1.
        -24    2    1    2    0    0  0.16664955907E+03 -0.58549596977E+03 -0.11290245144E+03  0.62416696864E+03  0.79119119317E+02 0.  0.
        254    2    1    2    0    0 -0.16664955907E+03  0.58549596977E+03  0.79901013001E+03  0.13471095150E+04  0.89761308557E+03 0.  0.
         23    2    4    4    0    0  0.17726110745E+03  0.18613445287E+02  0.62375210171E+03  0.65522480391E+03  0.92113509954E+02 0.  0.
         23    2    4    4    0    0 -0.34391066652E+03  0.56688252449E+03  0.17525802830E+03  0.69188471109E+03  0.91426111399E+02 0.  0.
          1    1    3    3  502    0  0.78195879287E+02 -0.21479416854E+03 -0.73155786393E+01  0.22870209458E+03  0.00000000000E+00 0. -1.
         -2    1    3    3    0  502  0.88453679786E+02 -0.37070180123E+03 -0.10558687280E+03  0.39546487406E+03  0.00000000000E+00 0.  1.
         11    1    5    5    0    0  0.87018255733E+02 -0.20787245189E+02  0.41333922390E+03  0.42291086580E+03  0.00000000000E+00 0. -1.
        -11    1    5    5    0    0  0.90242851712E+02  0.39400690476E+02  0.21041287781E+03  0.23231393811E+03  0.00000000000E+00 0.  1.
          4    1    6    6  503    0 -0.94677920715E+02  0.21559339295E+03  0.30211985069E+02  0.23739668025E+03  0.00000000000E+00 0. -1.
         -4    1    6    6    0  503 -0.24923274580E+03  0.35128913154E+03  0.14504604323E+03  0.45448803084E+03  0.00000000000E+00 0.  1.
<mgrwt>
<rscale>  0 0.18480225E+04</rscale>
<asrwt>0</asrwt>
<pdfrwt beam="1">  1        1 0.20441417E+00 0.18480225E+04</pdfrwt>
<pdfrwt beam="2">  1       -2 0.98859139E-01 0.18480225E+04</pdfrwt>
<totfact> 0.60387240E+00</totfact>
</mgrwt>
</event>
<event>
12    4  0.4320235E-008  0.1161463E+04  0.7818608E-02  0.9147273E-01
          3   -1    0    0  501    0  0.00000000000E+00  0.00000000000E+00  0.36391333619E+03  0.36391333619E+03  0.00000000000E+00 0. -1.
         -4   -1    0    0    0  501 -0.00000000000E+00 -0.00000000000E+00 -0.92672894913E+03  0.92672894913E+03  0.00000000000E+00 0.  1.
        -24    2    1    2    0    0  0.18604691764E+03 -0.54116103995E+02  0.61556078136E+01  0.20774661374E+03  0.74691068656E+02 0.  0.
        254    2    1    2    0    0 -0.18604691764E+03  0.54116103995E+02 -0.56897122076E+03  0.10828956716E+04  0.90077343279E+03 0.  0.
         23    2    4    4    0    0  0.27679629563E+03 -0.53776696525E+02 -0.51690987684E+03  0.59539750557E+03  0.88285029892E+02 0.  0.
         23    2    4    4    0    0 -0.46284321327E+03  0.10789280052E+03 -0.52061343918E+02  0.48749816601E+03  0.95285790426E+02 0.  0.
          3    1    3    3  502    0  0.22018966706E+02 -0.27763875884E+02  0.20600708178E+02  0.40988496878E+02  0.00000000000E+00 0. -1.
         -4    1    3    3    0  502  0.16402795093E+03 -0.26352228111E+02 -0.14445100365E+02  0.16675811686E+03  0.00000000000E+00 0.  1.
         11    1    5    5    0    0  0.13821751016E+03 -0.15760175652E+02 -0.16842473121E+03  0.21844759860E+03  0.00000000000E+00 0.  1.
        -11    1    5    5    0    0  0.13857878548E+03 -0.38016520873E+02 -0.34848514563E+03  0.37694990697E+03  0.00000000000E+00 0. -1.
          3    1    6    6  503    0 -0.43744639906E+03  0.12368215978E+03 -0.52289459378E+02  0.45759241281E+03  0.00000000000E+00 0. -1.
         -3    1    6    6    0  503 -0.25396814215E+02 -0.15789359259E+02  0.22811546012E+00  0.29905753204E+02  0.00000000000E+00 0.  1.
<mgrwt>
<rscale>  0 0.11614629E+04</rscale>
<asrwt>0</asrwt>
<pdfrwt beam="1">  1        3 0.55986668E-01 0.11614629E+04</pdfrwt>
<pdfrwt beam="2">  1       -4 0.14257368E+00 0.11614629E+04</pdfrwt>
<totfact> 0.24184207E+00</totfact>
</mgrwt>
</event>
<event>
12    4  0.4320235E-008  0.1371556E+04  0.7818608E-02  0.8974669E-01
          1   -1    0    0  501    0  0.00000000000E+00  0.00000000000E+00  0.58249214930E+03  0.58249214930E+03  0.00000000000E+00 0. -1.
         -2   -1    0    0    0  501 -0.00000000000E+00 -0.00000000000E+00 -0.80737836913E+03  0.80737836913E+03  0.00000000000E+00 0.  1.
        -24    2    1    2    0    0  0.18819040647E+03 -0.25495738274E+03  0.22378108029E+02  0.32717434792E+03  0.78252016671E+02 0.  0.
        254    2    1    2    0    0 -0.18819040647E+03  0.25495738274E+03 -0.24726432786E+03  0.10626961705E+04  0.98375027668E+03 0.  0.
         23    2    4    4    0    0 -0.19408345254E+03  0.61537265917E+03 -0.22606540389E+03  0.68976478642E+03  0.91203056642E+02 0.  0.
         23    2    4    4    0    0  0.58930460757E+01 -0.36041527643E+03 -0.21198923970E+02  0.37293138409E+03  0.93244428181E+02 0.  0.
          1    1    3    3  502    0  0.17401240158E+03 -0.25850213032E+03  0.23612182115E+02  0.31250792378E+03  0.00000000000E+00 0. -1.
         -2    1    3    3    0  502  0.14178004893E+02  0.35447475736E+01 -0.12340740861E+01  0.14666424137E+02  0.00000000000E+00 0.  1.
         11    1    5    5    0    0 -0.10731574734E+03  0.36925027461E+03 -0.87777535464E+02  0.39442024626E+03  0.00000000000E+00 0.  1.
        -11    1    5    5    0    0 -0.86767705203E+02  0.24612238456E+03 -0.13828786843E+03  0.29534454016E+03  0.00000000000E+00 0. -1.
          2    1    6    6  503    0  0.84354761543E+01 -0.94781582948E+01  0.15545998340E+02  0.20066659089E+02  0.00000000000E+00 0. -1.
         -2    1    6    6    0  503 -0.25424300786E+01 -0.35093711813E+03 -0.36744922309E+02  0.35286472500E+03  0.00000000000E+00 0.  1.
<mgrwt>
<rscale>  0 0.13715561E+04</rscale>
<asrwt>0</asrwt>
<pdfrwt beam="1">  1        1 0.89614177E-01 0.13715561E+04</pdfrwt>
<pdfrwt beam="2">  1       -2 0.12421206E+00 0.13715561E+04</pdfrwt>
<totfact> 0.14883398E+01</totfact>
</mgrwt>
</event>
<event>
12    4  0.4320235E-008  0.1258228E+04  0.7818608E-02  0.9063363E-01
          1   -1    0    0  501    0  0.00000000000E+00  0.00000000000E+00  0.14382746182E+04  0.14382746182E+04  0.00000000000E+00 0. -1.
         -2   -1    0    0    0  501 -0.00000000000E+00 -0.00000000000E+00 -0.27517994845E+03  0.27517994845E+03  0.00000000000E+00 0.  1.
        -24    2    1    2    0    0 -0.90679709031E+02 -0.24703270514E+03  0.14867639088E+03  0.31091047027E+03  0.72888162837E+02 0.  0.
        254    2    1    2    0    0  0.90679709031E+02  0.24703270514E+03  0.10144182789E+04  0.14025440964E+04  0.93211454810E+03 0.  0.
         23    2    4    4    0    0  0.29945041734E+01  0.15818027932E+03 -0.14470776103E+03  0.23303257845E+03  0.91290079953E+02 0.  0.
         23    2    4    4    0    0  0.87685204857E+02  0.88852425826E+02  0.11591260399E+04  0.11695115180E+04  0.92739233798E+02 0.  0.
          3    1    3    3  502    0 -0.28932772590E+02 -0.24324472137E+02  0.41577435814E+02  0.56191355593E+02  0.00000000000E+00 0. -1.
         -4    1    3    3    0  502 -0.61746936440E+02 -0.22270823300E+03  0.10709895506E+03  0.25471911468E+03  0.00000000000E+00 0.  1.
         11    1    5    5    0    0 -0.29863471370E+02  0.13991187438E+03 -0.99637953669E+02  0.17434127832E+03  0.00000000000E+00 0. -1.
        -11    1    5    5    0    0  0.32857975544E+02  0.18268404937E+02 -0.45069807358E+02  0.58691300131E+02  0.00000000000E+00 0.  1.
          3    1    6    6  503    0  0.46851784086E+02 -0.10106008272E+02  0.31533134331E+03  0.31895309554E+03  0.00000000000E+00 0. -1.
         -3    1    6    6    0  503  0.40833420771E+02  0.98958434098E+02  0.84379469662E+03  0.85055842244E+03  0.00000000000E+00 0.  1.
<mgrwt>
<rscale>  0 0.12582279E+04</rscale>
<asrwt>0</asrwt>
<pdfrwt beam="1">  1        1 0.22127301E+00 0.12582279E+04</pdfrwt>
<pdfrwt beam="2">  1       -2 0.42335377E-01 0.12582279E+04</pdfrwt>
<totfact> 0.33024436E+01</totfact>
</mgrwt>
</event>
<event>
12    4  0.4320235E-008  0.2792775E+04  0.7818608E-02  0.8305515E-01
         -2   -1    0    0    0  501 -0.00000000000E+00  0.00000000000E+00  0.98639064738E+03  0.98639064738E+03  0.00000000000E+00 0.  1.
          1   -1    0    0  501    0  0.00000000000E+00 -0.00000000000E+00 -0.19768012934E+04  0.19768012934E+04  0.00000000000E+00 0. -1.
        -24    2    1    2    0    0  0.86059191532E+03  0.90077356636E+03 -0.52422819794E+03  0.13539877846E+04  0.80350823276E+02 0.  0.
        254    2    1    2    0    0 -0.86059191532E+03 -0.90077356636E+03 -0.46618244809E+03  0.16092041562E+04  0.90564920291E+03 0.  0.
         23    2    4    4    0    0 -0.15973626054E+03  0.15285296076E+01  0.20850527440E+03  0.27936608857E+03  0.95147005489E+02 0.  0.
         23    2    4    4    0    0 -0.70085565478E+03 -0.90230209597E+03 -0.67468772249E+03  0.13298380676E+04  0.88983379978E+02 0.  0.
          3    1    3    3  502    0  0.12893299828E+03  0.17587370910E+03 -0.79338143917E+02  0.23205564134E+03  0.00000000000E+00 0. -1.
         -4    1    3    3    0  502  0.73165891704E+03  0.72489985726E+03 -0.44489005402E+03  0.11219321433E+04  0.00000000000E+00 0.  1.
         11    1    5    5    0    0 -0.11092258509E+03  0.31759246968E+02  0.18345781625E+03  0.21672387961E+03  0.00000000000E+00 0.  1.
        -11    1    5    5    0    0 -0.48813675452E+02 -0.30230717360E+02  0.25047458157E+02  0.62642208960E+02  0.00000000000E+00 0. -1.
          4    1    6    6  503    0 -0.13322679578E+03 -0.15893920572E+03 -0.84827386248E+02  0.22406859593E+03  0.00000000000E+00 0. -1.
         -4    1    6    6    0  503 -0.56762885900E+03 -0.74336289025E+03 -0.58986033624E+03  0.11057694717E+04  0.00000000000E+00 0.  1.
<mgrwt>
<rscale>  0 0.27927752E+04</rscale>
<asrwt>0</asrwt>
<pdfrwt beam="1">  1        1 0.30412327E+00 0.27927752E+04</pdfrwt>
<pdfrwt beam="2">  1       -2 0.15175241E+00 0.27927752E+04</pdfrwt>
<totfact> 0.68351711E-01</totfact>
</mgrwt>
</event>
<event>
12    4  0.4320235E-008  0.3421510E+04  0.7818608E-02  0.8132647E-01
          3   -1    0    0  501    0  0.00000000000E+00  0.00000000000E+00  0.19618141155E+04  0.19618141155E+04  0.00000000000E+00 0. -1.
         -4   -1    0    0    0  501 -0.00000000000E+00 -0.00000000000E+00 -0.14918242766E+04  0.14918242766E+04  0.00000000000E+00 0.  1.
        -24    2    1    2    0    0  0.14624528159E+04  0.18454417187E+03 -0.38729392571E+03  0.15262592329E+04  0.81522211098E+02 0.  0.
        254    2    1    2    0    0 -0.14624528159E+04 -0.18454417187E+03  0.85728376463E+03  0.19273791593E+04  0.89834858514E+03 0.  0.
         23    2    4    4    0    0 -0.55537859523E+03 -0.20906627963E+03 -0.95977799121E+02  0.60809107051E+03  0.91700157003E+02 0.  0.
         23    2    4    4    0    0 -0.90707422066E+03  0.24522107760E+02  0.95326156375E+03  0.13192880888E+04  0.91806735414E+02 0.  0.
          1    1    3    3  502    0  0.21799800468E+03  0.56579719341E+02 -0.53924943424E+02  0.23158647242E+03  0.00000000000E+00 0. -1.
         -2    1    3    3    0  502  0.12444548112E+04  0.12796445253E+03 -0.33336898228E+03  0.12946727604E+04  0.00000000000E+00 0.  1.
         11    1    5    5    0    0 -0.47757833702E+03 -0.20409724875E+03 -0.10416111222E+03  0.52970396661E+03  0.00000000000E+00 0.  1.
        -11    1    5    5    0    0 -0.77800258211E+02 -0.49690308738E+01  0.81833130978E+01  0.78387103906E+02  0.00000000000E+00 0. -1.
          1    1    6    6  503    0 -0.85047890271E+02  0.29426701890E+02  0.94939897843E+02  0.13081536082E+03  0.00000000000E+00 0. -1.
         -1    1    6    6    0  503 -0.82202633039E+03 -0.49045941297E+01  0.85832166591E+03  0.11884727279E+04  0.00000000000E+00 0.  1.
<mgrwt>
<rscale>  0 0.34215096E+04</rscale>
<asrwt>0</asrwt>
<pdfrwt beam="1">  1        3 0.30181756E+00 0.34215096E+04</pdfrwt>
<pdfrwt beam="2">  1       -4 0.22951143E+00 0.34215096E+04</pdfrwt>
<totfact> 0.60046891E-03</totfact>
</mgrwt>
</event>
<event>
12    4  0.4320235E-008  0.1612926E+04  0.7818608E-02  0.8812646E-01
          1   -1    0    0  501    0  0.00000000000E+00  0.00000000000E+00  0.19309878694E+04  0.19309878694E+04  0.00000000000E+00 0. -1.
         -2   -1    0    0    0  501 -0.00000000000E+00 -0.00000000000E+00 -0.33681337045E+03  0.33681337045E+03  0.00000000000E+00 0.  1.
        -24    2    1    2    0    0  0.19014076589E+03  0.41054896591E+03  0.99250646903E+03  0.10937696338E+04  0.80987384940E+02 0.  0.
        254    2    1    2    0    0 -0.19014076589E+03 -0.41054896591E+03  0.60166802989E+03  0.11740316060E+04  0.90091166573E+03 0.  0.
         23    2    4    4    0    0  0.29627083226E+03 -0.37810336822E+03  0.17650317788E+03  0.52085150352E+03  0.96924474777E+02 0.  0.
         23    2    4    4    0    0 -0.48641159816E+03 -0.32445597685E+02  0.42516485201E+03  0.65318010248E+03  0.90720092906E+02 0.  0.
          1    1    3    3  502    0  0.18469591200E+03  0.39838247682E+03  0.98506090393E+03  0.10785018137E+04  0.00000000000E+00 0. -1.
         -4    1    3    3    0  502  0.54448538935E+01  0.12166489092E+02  0.74455651021E+01  0.15267820095E+02  0.00000000000E+00 0.  1.
         11    1    5    5    0    0 -0.13720990510E+01  0.45824310395E+01  0.41016919818E+01  0.63012068012E+01  0.00000000000E+00 0.  1.
        -11    1    5    5    0    0  0.29764293132E+03 -0.38268579926E+03  0.17240148590E+03  0.51455029672E+03  0.00000000000E+00 0. -1.
          3    1    6    6  503    0 -0.26100314569E+03 -0.61522008076E+02  0.21654137867E+03  0.34467052124E+03  0.00000000000E+00 0. -1.
         -3    1    6    6    0  503 -0.22540845247E+03  0.29076410391E+02  0.20862347335E+03  0.30850958124E+03  0.00000000000E+00 0.  1.
<mgrwt>
<rscale>  0 0.16129260E+04</rscale>
<asrwt>0</asrwt>
<pdfrwt beam="1">  1        1 0.29707505E+00 0.16129260E+04</pdfrwt>
<pdfrwt beam="2">  1       -2 0.51817443E-01 0.16129260E+04</pdfrwt>
<totfact> 0.98268619E+00</totfact>
</mgrwt>
</event>
<event>
12    4  0.4320235E-008  0.2908509E+04  0.7818608E-02  0.8270350E-01
          1   -1    0    0  501    0  0.00000000000E+00  0.00000000000E+00  0.33453441878E+04  0.33453441878E+04  0.00000000000E+00 0. -1.
         -2   -1    0    0    0  501 -0.00000000000E+00 -0.00000000000E+00 -0.63217891297E+03  0.63217891297E+03  0.00000000000E+00 0.  1.
        -24    2    1    2    0    0 -0.11382796319E+04 -0.10443133495E+03  0.21187674913E+04  0.24086823869E+04  0.77386916488E+02 0.  0.
        254    2    1    2    0    0  0.11382796319E+04  0.10443133495E+03  0.59439778351E+03  0.15688407138E+04  0.89519050275E+03 0.  0.
         23    2    4    4    0    0  0.35871610479E+03 -0.33613147466E+03  0.19882024767E+02  0.50062799890E+03  0.92582321668E+02 0.  0.
         23    2    4    4    0    0  0.77956352710E+03  0.44056280961E+03  0.57451575874E+03  0.10682127149E+04  0.95891424416E+02 0.  0.
          3    1    3    3  502    0 -0.95210332236E+03 -0.10821703731E+03  0.18136825900E+04  0.20512572244E+04  0.00000000000E+00 0. -1.
         -4    1    3    3    0  502 -0.18617630953E+03  0.37857023565E+01  0.30508490134E+03  0.35742516251E+03  0.00000000000E+00 0.  1.
         11    1    5    5    0    0  0.26276864686E+03 -0.29715323755E+03  0.15815015127E+02  0.39698554516E+03  0.00000000000E+00 0.  1.
        -11    1    5    5    0    0  0.95947457927E+02 -0.38978237105E+02  0.40670096408E+01  0.10364245374E+03  0.00000000000E+00 0. -1.
          3    1    6    6  503    0  0.10735210498E+03  0.30330774937E+02  0.92401510497E+02  0.14485326884E+03  0.00000000000E+00 0. -1.
         -3    1    6    6    0  503  0.67221142213E+03  0.41023203468E+03  0.48211424825E+03  0.92335944609E+03  0.00000000000E+00 0.  1.
<mgrwt>
<rscale>  0 0.29085089E+04</rscale>
<asrwt>0</asrwt>
<pdfrwt beam="1">  1        1 0.51466833E+00 0.29085089E+04</pdfrwt>
<pdfrwt beam="2">  1       -2 0.97258296E-01 0.29085089E+04</pdfrwt>
<totfact> 0.21937475E-01</totfact>
</mgrwt>
</event>
<event>
12    4  0.4320235E-008  0.1661738E+04  0.7818608E-02  0.8783493E-01
         -2   -1    0    0    0  501 -0.00000000000E+00  0.00000000000E+00  0.46390534975E+03  0.46390534975E+03  0.00000000000E+00 0.  1.
          1   -1    0    0  501    0  0.00000000000E+00 -0.00000000000E+00 -0.14881120604E+04  0.14881120604E+04  0.00000000000E+00 0. -1.
        -24    2    1    2    0    0  0.44375882899E+03  0.23768416564E+03  0.24243625576E+02  0.51256921725E+03  0.93401221572E+02 0.  0.
        254    2    1    2    0    0 -0.44375882899E+03 -0.23768416564E+03 -0.10484503362E+04  0.14394481929E+04  0.84814346169E+03 0.  0.
         23    2    4    4    0    0 -0.36835259686E+03  0.11255724824E+03 -0.80566095723E+02  0.40333466352E+03  0.88516581886E+02 0.  0.
         23    2    4    4    0    0 -0.75406232125E+02 -0.35024141388E+03 -0.96788424049E+03  0.10361135294E+04  0.91521554361E+02 0.  0.
          3    1    3    3  502    0  0.12108432519E+03  0.77495514204E+02 -0.33785071922E+02  0.14767667254E+03  0.00000000000E+00 0. -1.
         -4    1    3    3    0  502  0.32267450380E+03  0.16018865144E+03  0.58028697497E+02  0.36489254471E+03  0.00000000000E+00 0.  1.
         11    1    5    5    0    0 -0.12906174069E+02 -0.12872744851E+02 -0.50666839061E+01  0.18919518358E+02  0.00000000000E+00 0. -1.
        -11    1    5    5    0    0 -0.35544642280E+03  0.12542999309E+03 -0.75499411817E+02  0.38441514516E+03  0.00000000000E+00 0.  1.
          3    1    6    6  503    0 -0.42086474590E+02 -0.74107213631E+02 -0.15390205103E+03  0.17592325533E+03  0.00000000000E+00 0. -1.
         -3    1    6    6    0  503 -0.33319757536E+02 -0.27613420025E+03 -0.81398218946E+03  0.86019027403E+03  0.00000000000E+00 0.  1.
<mgrwt>
<rscale>  0 0.16617378E+04</rscale>
<asrwt>0</asrwt>
<pdfrwt beam="1">  1        1 0.22894032E+00 0.16617378E+04</pdfrwt>
<pdfrwt beam="2">  1       -2 0.71370053E-01 0.16617378E+04</pdfrwt>
<totfact> 0.99504401E+00</totfact>
</mgrwt>
</event>
<event>
12    4  0.4320235E-008  0.1290533E+04  0.7818608E-02  0.9037107E-01
          1   -1    0    0  501    0  0.00000000000E+00  0.00000000000E+00  0.12848115786E+04  0.12848115786E+04  0.00000000000E+00 0. -1.
         -2   -1    0    0    0  501 -0.00000000000E+00 -0.00000000000E+00 -0.32406982635E+03  0.32406982635E+03  0.00000000000E+00 0.  1.
        -24    2    1    2    0    0  0.75625174044E+01  0.22681113991E+03 -0.47212540682E+02  0.24590117534E+03  0.82084585495E+02 0.  0.
        254    2    1    2    0    0 -0.75625174044E+01 -0.22681113991E+03  0.10079542929E+04  0.13629802296E+04  0.88895599711E+03 0.  0.
         23    2    4    4    0    0  0.27502331618E+02  0.18504213945E+03 -0.57745205566E+02  0.21615621794E+03  0.91608024585E+02 0.  0.
         23    2    4    4    0    0 -0.35064849023E+02 -0.41185327937E+03  0.10656994985E+04  0.11468240117E+04  0.92936673529E+02 0.  0.
          1    1    3    3  502    0 -0.11408934526E+02  0.50625439906E+01  0.10128726321E+02  0.16074334685E+02  0.00000000000E+00 0. -1.
         -2    1    3    3    0  502  0.18971451931E+02  0.22174859592E+03 -0.57341267003E+02  0.22982684065E+03  0.00000000000E+00 0.  1.
         11    1    5    5    0    0  0.79880094042E+01  0.16191821640E+03 -0.77839370507E+02  0.17983404766E+03  0.00000000000E+00 0.  1.
        -11    1    5    5    0    0  0.19514322214E+02  0.23123923051E+02  0.20094164941E+02  0.36322170274E+02  0.00000000000E+00 0. -1.
          3    1    6    6  503    0  0.15794638010E+02 -0.72047288352E+02  0.27456370287E+03  0.28429827520E+03  0.00000000000E+00 0. -1.
         -3    1    6    6    0  503 -0.50859487033E+02 -0.33980599102E+03  0.79113579562E+03  0.86252573647E+03  0.00000000000E+00 0.  1.
<mgrwt>
<rscale>  0 0.12905327E+04</rscale>
<asrwt>0</asrwt>
<pdfrwt beam="1">  1        1 0.19766332E+00 0.12905327E+04</pdfrwt>
<pdfrwt beam="2">  1       -2 0.49856897E-01 0.12905327E+04</pdfrwt>
<totfact> 0.30446250E+01</totfact>
</mgrwt>
</event>
<event>
12    4  0.4320235E-008  0.1602670E+04  0.7818608E-02  0.8818910E-01
         -2   -1    0    0    0  501 -0.00000000000E+00  0.00000000000E+00  0.15485366274E+04  0.15485366274E+04  0.00000000000E+00 0.  1.
          1   -1    0    0  501    0  0.00000000000E+00 -0.00000000000E+00 -0.41467373114E+03  0.41467373114E+03  0.00000000000E+00 0. -1.
        -24    2    1    2    0    0  0.26806222753E+03  0.30418987018E+03  0.83280136655E+03  0.92984361573E+03  0.81622292593E+02 0.  0.
        254    2    1    2    0    0 -0.26806222753E+03 -0.30418987018E+03  0.30106152966E+03  0.10333667428E+04  0.90156527520E+03 0.  0.
         23    2    4    4    0    0  0.24565055520E+03  0.10772329947E+03 -0.40873968172E+02  0.28592470605E+03  0.90187314720E+02 0.  0.
         23    2    4    4    0    0 -0.51371278274E+03 -0.41191316965E+03  0.34193549784E+03  0.74744203671E+03  0.90423620139E+02 0.  0.
          1    1    3    3  502    0  0.11261651605E+03  0.98213683116E+02  0.38545757070E+03  0.41340772374E+03  0.00000000000E+00 0. -1.
         -2    1    3    3    0  502  0.15544571148E+03  0.20597618706E+03  0.44734379584E+03  0.51643589199E+03  0.00000000000E+00 0.  1.
         11    1    5    5    0    0 -0.54272062945E+01 -0.50734521999E+00 -0.91878955267E+01  0.10683135848E+02  0.00000000000E+00 0. -1.
        -11    1    5    5    0    0  0.25107776150E+03  0.10823064469E+03 -0.31686072645E+02  0.27524157020E+03  0.00000000000E+00 0.  1.
          3    1    6    6  503    0 -0.14104614752E+03 -0.64709320271E+02  0.85824752126E+02  0.17733358378E+03  0.00000000000E+00 0. -1.
         -3    1    6    6    0  503 -0.37266663522E+03 -0.34720384938E+03  0.25611074571E+03  0.57010845292E+03  0.00000000000E+00 0.  1.
<mgrwt>
<rscale>  0 0.16026696E+04</rscale>
<asrwt>0</asrwt>
<pdfrwt beam="1">  1        1 0.63795959E-01 0.16026696E+04</pdfrwt>
<pdfrwt beam="2">  1       -2 0.23823640E+00 0.16026696E+04</pdfrwt>
<totfact> 0.36423216E+00</totfact>
</mgrwt>
</event>
<event>
12    4  0.4320235E-008  0.2792881E+04  0.7818608E-02  0.8305482E-01
          1   -1    0    0  501    0  0.00000000000E+00  0.00000000000E+00  0.23068978576E+04  0.23068978576E+04  0.00000000000E+00 0. -1.
         -2   -1    0    0    0  501 -0.00000000000E+00 -0.00000000000E+00 -0.84531101344E+03  0.84531101344E+03  0.00000000000E+00 0.  1.
        -24    2    1    2    0    0  0.39814335843E+03  0.99443632470E+02  0.19853664499E+04  0.20292640049E+04  0.88460676743E+02 0.  0.
        254    2    1    2    0    0 -0.39814335843E+03 -0.99443632470E+02 -0.52377960571E+03  0.11229448662E+04  0.90457333987E+03 0.  0.
         23    2    4    4    0    0 -0.33422311710E+03 -0.15798336536E+02  0.19045598818E+03  0.39543306359E+03  0.90217209595E+02 0.  0.
         23    2    4    4    0    0 -0.63920241335E+02 -0.83645295934E+02 -0.71423559389E+03  0.72751180258E+03  0.89769741756E+02 0.  0.
          3    1    3    3  502    0  0.36924711911E+03  0.68868661218E+02  0.18392171251E+04  0.18771803219E+04  0.00000000000E+00 0. -1.
         -4    1    3    3    0  502  0.28896239320E+02  0.30574971252E+02  0.14614932475E+03  0.15208368302E+03  0.00000000000E+00 0.  1.
         11    1    5    5    0    0 -0.22302763309E+03 -0.52961840442E+02  0.12987013055E+03  0.26346258268E+03  0.00000000000E+00 0.  1.
        -11    1    5    5    0    0 -0.11119548401E+03  0.37163503906E+02  0.60585857630E+02  0.13197048091E+03  0.00000000000E+00 0. -1.
          4    1    6    6  503    0 -0.17644112203E+02 -0.27414362748E+02 -0.52624028113E+02  0.61904364266E+02  0.00000000000E+00 0. -1.
         -4    1    6    6    0  503 -0.46276129133E+02 -0.56230933186E+02 -0.66161156577E+03  0.66560743831E+03  0.00000000000E+00 0.  1.
<mgrwt>
<rscale>  0 0.27928811E+04</rscale>
<asrwt>0</asrwt>
<pdfrwt beam="1">  1        1 0.35490736E+00 0.27928811E+04</pdfrwt>
<pdfrwt beam="2">  1       -2 0.13004785E+00 0.27928811E+04</pdfrwt>
<totfact> 0.60836879E-01</totfact>
</mgrwt>
</event>
<event>
12    4  0.4320235E-008  0.1543009E+04  0.7818608E-02  0.8856346E-01
          1   -1    0    0  501    0  0.00000000000E+00  0.00000000000E+00  0.54728586098E+03  0.54728586098E+03  0.00000000000E+00 0. -1.
         -2   -1    0    0    0  501 -0.00000000000E+00 -0.00000000000E+00 -0.10875831304E+04  0.10875831304E+04  0.00000000000E+00 0.  1.
        -24    2    1    2    0    0  0.27821158407E+03 -0.39125826839E+03  0.23204220508E+01  0.48757646585E+03  0.85092347466E+02 0.  0.
        254    2    1    2    0    0 -0.27821158407E+03  0.39125826839E+03 -0.54261769152E+03  0.11472925256E+04  0.88958499426E+03 0.  0.
         23    2    4    4    0    0 -0.32439466411E+03  0.34640236367E+03  0.10111840326E+03  0.49395677335E+03  0.92422220309E+02 0.  0.
         23    2    4    4    0    0  0.46183080040E+02  0.44855904718E+02 -0.64373609478E+03  0.65333575223E+03  0.91140091883E+02 0.  0.
          1    1    3    3  502    0  0.15759577717E+02 -0.31667260478E+02 -0.22129212069E+02  0.41723874494E+02  0.00000000000E+00 0. -1.
         -2    1    3    3    0  502  0.26245200635E+03 -0.35959100791E+03  0.24449634119E+02  0.44585259135E+03  0.00000000000E+00 0.  1.
         11    1    5    5    0    0 -0.28896019976E+03  0.33004500341E+03  0.11331961433E+03  0.45306626040E+03  0.00000000000E+00 0.  1.
        -11    1    5    5    0    0 -0.35434464345E+02  0.16357360263E+02 -0.12201211067E+02  0.40890512955E+02  0.00000000000E+00 0. -1.
          4    1    6    6  503    0  0.62083450231E+02  0.22599124394E+02 -0.24781620539E+03  0.25647211714E+03  0.00000000000E+00 0. -1.
         -4    1    6    6    0  503 -0.15900370191E+02  0.22256780324E+02 -0.39591988938E+03  0.39686363508E+03  0.00000000000E+00 0.  1.
<mgrwt>
<rscale>  0 0.15430086E+04</rscale>
<asrwt>0</asrwt>
<pdfrwt beam="1">  1        1 0.84197826E-01 0.15430086E+04</pdfrwt>
<pdfrwt beam="2">  1       -2 0.16732048E+00 0.15430086E+04</pdfrwt>
<totfact> 0.73320768E+00</totfact>
</mgrwt>
</event>
<event>
12    4  0.4320235E-008  0.1109191E+04  0.7818608E-02  0.9196280E-01
         -2   -1    0    0    0  501 -0.00000000000E+00  0.00000000000E+00  0.51323920870E+03  0.51323920870E+03  0.00000000000E+00 0.  1.
          1   -1    0    0  501    0  0.00000000000E+00 -0.00000000000E+00 -0.59928395505E+03  0.59928395505E+03  0.00000000000E+00 0. -1.
        -24    2    1    2    0    0 -0.81010202460E+02 -0.47958869065E+02 -0.15305052061E+03  0.19647533055E+03  0.79469413194E+02 0.  0.
        254    2    1    2    0    0  0.81010202460E+02  0.47958869065E+02  0.67005774257E+02  0.91604783321E+03  0.90873051721E+03 0.  0.
         23    2    4    4    0    0 -0.22265089144E+03  0.33138528248E+03  0.21843022620E+03  0.46482618173E+03  0.94667790743E+02 0.  0.
         23    2    4    4    0    0  0.30366109390E+03 -0.28342641342E+03 -0.15142445194E+03  0.45122165147E+03  0.90172181635E+02 0.  0.
          3    1    3    3  502    0 -0.71188007684E+01 -0.45535398827E+02 -0.81278609585E+02  0.93436407501E+02  0.00000000000E+00 0. -1.
         -4    1    3    3    0  502 -0.73891401692E+02 -0.24234702378E+01 -0.71771911023E+02  0.10303892305E+03  0.00000000000E+00 0.  1.
         11    1    5    5    0    0 -0.22580063151E+03  0.32397459871E+03  0.19573879512E+03  0.44074838822E+03  0.00000000000E+00 0.  1.
        -11    1    5    5    0    0  0.31497400649E+01  0.74106837681E+01  0.22691431076E+02  0.24077793518E+02  0.00000000000E+00 0. -1.
          1    1    6    6  503    0  0.43562858874E+02 -0.69533243681E+02 -0.14833040160E+00  0.82052523740E+02  0.00000000000E+00 0. -1.
         -1    1    6    6    0  503  0.26009823503E+03 -0.21389316974E+03 -0.15127612154E+03  0.36916912773E+03  0.00000000000E+00 0.  1.
<mgrwt>
<rscale>  0 0.11091907E+04</rscale>
<asrwt>0</asrwt>
<pdfrwt beam="1">  1        1 0.92197532E-01 0.11091907E+04</pdfrwt>
<pdfrwt beam="2">  1       -2 0.78959878E-01 0.11091907E+04</pdfrwt>
<totfact> 0.42586949E+01</totfact>
</mgrwt>
</event>
<event>
12    4  0.4320235E-008  0.2243156E+04  0.7818608E-02  0.8500677E-01
         -2   -1    0    0    0  501 -0.00000000000E+00  0.00000000000E+00  0.71596709704E+03  0.71596709704E+03  0.00000000000E+00 0.  1.
          1   -1    0    0  501    0  0.00000000000E+00 -0.00000000000E+00 -0.17569756236E+04  0.17569756236E+04  0.00000000000E+00 0. -1.
        -24    2    1    2    0    0 -0.75689107636E+03  0.28353422619E+03 -0.90793970332E+03  0.12181331615E+04  0.78855154599E+02 0.  0.
        254    2    1    2    0    0  0.75689107636E+03 -0.28353422619E+03 -0.13306882320E+03  0.12548095591E+04  0.95055981347E+03 0.  0.
         23    2    4    4    0    0 -0.18744743121E+03  0.52425863174E+02 -0.12438294384E+03  0.24841215588E+03  0.91391858892E+02 0.  0.
         23    2    4    4    0    0  0.94433850757E+03 -0.33596008936E+03 -0.86858793641E+01  0.10063974032E+04  0.90088235461E+02 0.  0.
          3    1    3    3  502    0 -0.72546272370E+03  0.25339714223E+03 -0.85472451590E+03  0.11493738614E+04  0.00000000000E+00 0. -1.
         -4    1    3    3    0  502 -0.31428352660E+02  0.30137083957E+02 -0.53215187420E+02  0.68759300117E+02  0.00000000000E+00 0.  1.
         11    1    5    5    0    0 -0.13854792574E+03  0.40280746567E+01 -0.11266666143E+03  0.17862119054E+03  0.00000000000E+00 0. -1.
        -11    1    5    5    0    0 -0.48899505477E+02  0.48397788518E+02 -0.11716282404E+02  0.69790965337E+02  0.00000000000E+00 0.  1.
          2    1    6    6  503    0  0.72824372342E+03 -0.27300327097E+03  0.28558404314E+02  0.77825785516E+03  0.00000000000E+00 0. -1.
         -2    1    6    6    0  503  0.21609478416E+03 -0.62956818391E+02 -0.37244283678E+02  0.22813954806E+03  0.00000000000E+00 0.  1.
<mgrwt>
<rscale>  0 0.22431556E+04</rscale>
<asrwt>0</asrwt>
<pdfrwt beam="1">  1        1 0.27030394E+00 0.22431556E+04</pdfrwt>
<pdfrwt beam="2">  1       -2 0.11014879E+00 0.22431556E+04</pdfrwt>
<totfact> 0.22767415E+00</totfact>
</mgrwt>
</event>
<event>
12    4  0.4320235E-008  0.2075515E+04  0.7818608E-02  0.8572107E-01
         -2   -1    0    0    0  501 -0.00000000000E+00  0.00000000000E+00  0.16623038489E+04  0.16623038489E+04  0.00000000000E+00 0.  1.
          1   -1    0    0  501    0  0.00000000000E+00 -0.00000000000E+00 -0.64786016884E+03  0.64786016884E+03  0.00000000000E+00 0. -1.
        -24    2    1    2    0    0 -0.45392454620E+03 -0.25546793778E+03  0.11411809061E+04  0.12569213745E+04  0.79032401361E+02 0.  0.
        254    2    1    2    0    0  0.45392454620E+03  0.25546793778E+03 -0.12673722601E+03  0.10532426432E+04  0.90661258550E+03 0.  0.
         23    2    4    4    0    0 -0.55368995783E+02 -0.27713969365E+03 -0.88553290237E+02  0.30978136753E+03  0.90833226114E+02 0.  0.
         23    2    4    4    0    0  0.50929354198E+03  0.53260763143E+03 -0.38183935772E+02  0.74346127570E+03  0.90696496935E+02 0.  0.
          3    1    3    3  502    0 -0.77694648762E+02 -0.74925533631E+02  0.27608898157E+03  0.29643788520E+03  0.00000000000E+00 0. -1.
         -4    1    3    3    0  502 -0.37622989744E+03 -0.18054240415E+03  0.86509192454E+03  0.96048348935E+03  0.00000000000E+00 0.  1.
         11    1    5    5    0    0 -0.16178410993E+02 -0.11642625422E+03 -0.83676960030E+02  0.14428668440E+03  0.00000000000E+00 0. -1.
        -11    1    5    5    0    0 -0.39190584790E+02 -0.16071343942E+03 -0.48763302065E+01  0.16549468313E+03  0.00000000000E+00 0.  1.
          1    1    6    6  503    0  0.61050684603E+02  0.66700702661E+02 -0.34920222871E+02  0.96930860882E+02  0.00000000000E+00 0. -1.
         -1    1    6    6    0  503  0.44824285738E+03  0.46590692877E+03 -0.32637129012E+01  0.64653041482E+03  0.00000000000E+00 0.  1.
<mgrwt>
<rscale>  0 0.20755148E+04</rscale>
<asrwt>0</asrwt>
<pdfrwt beam="1">  1        1 0.99670796E-01 0.20755148E+04</pdfrwt>
<pdfrwt beam="2">  1       -2 0.25573905E+00 0.20755148E+04</pdfrwt>
<totfact> 0.14637611E+00</totfact>
</mgrwt>
</event>
<event>
12    4  0.4320235E-008  0.2264952E+04  0.7818608E-02  0.8491870E-01
         -4   -1    0    0    0  501 -0.00000000000E+00  0.00000000000E+00  0.85878401824E+03  0.85878401824E+03  0.00000000000E+00 0.  1.
          3   -1    0    0  501    0  0.00000000000E+00 -0.00000000000E+00 -0.14933929710E+04  0.14933929710E+04  0.00000000000E+00 0. -1.
        -24    2    1    2    0    0 -0.35286640168E+03  0.87244486534E+03 -0.11336347090E+03  0.95119311044E+03  0.79008330760E+02 0.  0.
        254    2    1    2    0    0  0.35286640168E+03 -0.87244486534E+03 -0.52124548184E+03  0.14009838788E+04  0.89743202292E+03 0.  0.
         23    2    4    4    0    0 -0.70088036440E+02 -0.59906243643E+03 -0.62846339293E+03  0.87575229135E+03  0.90485932373E+02 0.  0.
         23    2    4    4    0    0  0.42295443812E+03 -0.27338242890E+03  0.10721791109E+03  0.52523158742E+03  0.10365389914E+03 0.  0.
          3    1    3    3  502    0 -0.24367297116E+03  0.61389971446E+03 -0.43228873334E+02  0.66190491143E+03  0.00000000000E+00 0. -1.
         -4    1    3    3    0  502 -0.10919343052E+03  0.25854515088E+03 -0.70134597563E+02  0.28928819901E+03  0.00000000000E+00 0.  1.
         11    1    5    5    0    0  0.11012013689E+02 -0.25338009228E+02 -0.49245052376E+02  0.56465514614E+02  0.00000000000E+00 0.  1.
        -11    1    5    5    0    0 -0.81100050129E+02 -0.57372442720E+03 -0.57921834056E+03  0.81928677674E+03  0.00000000000E+00 0. -1.
          1    1    6    6  503    0  0.36962710591E+03 -0.26997828197E+03  0.77981692548E+02  0.46432059455E+03  0.00000000000E+00 0. -1.
         -1    1    6    6    0  503  0.53327332215E+02 -0.34041469365E+01  0.29236218540E+02  0.60910992867E+02  0.00000000000E+00 0.  1.
<mgrwt>
<rscale>  0 0.22649521E+04</rscale>
<asrwt>0</asrwt>
<pdfrwt beam="1">  1        3 0.22975276E+00 0.22649521E+04</pdfrwt>
<pdfrwt beam="2">  1       -4 0.13212062E+00 0.22649521E+04</pdfrwt>
<totfact> 0.83703160E-02</totfact>
</mgrwt>
</event>
<event>
12    4  0.4320235E-008  0.1192505E+04  0.7818608E-02  0.9119442E-01
          1   -1    0    0  501    0  0.00000000000E+00  0.00000000000E+00  0.22433578258E+04  0.22433578258E+04  0.00000000000E+00 0. -1.
         -2   -1    0    0    0  501 -0.00000000000E+00 -0.00000000000E+00 -0.15847551710E+03  0.15847551710E+03  0.00000000000E+00 0.  1.
        -24    2    1    2    0    0 -0.13036880655E+03  0.60617455148E+02  0.90004900578E+03  0.91509979457E+03  0.81540907690E+02 0.  0.
        254    2    1    2    0    0  0.13036880655E+03 -0.60617455148E+02  0.11848333030E+04  0.14867335484E+04  0.88649658005E+03 0.  0.
         23    2    4    4    0    0 -0.15167166213E+03  0.47945416116E+01  0.11695075978E+04  0.11829077218E+04  0.92170365705E+02 0.  0.
         23    2    4    4    0    0  0.28204046868E+03 -0.65411996760E+02  0.15325705156E+02  0.30382582654E+03  0.90827861027E+02 0.  0.
          3    1    3    3  502    0 -0.27481776355E+02 -0.89155029335E+00  0.39759908474E+03  0.39854871105E+03  0.00000000000E+00 0. -1.
         -2    1    3    3    0  502 -0.10288703019E+03  0.61509005441E+02  0.50244992104E+03  0.51655108352E+03  0.00000000000E+00 0.  1.
         11    1    5    5    0    0 -0.10505904605E+03 -0.36307338516E+02  0.61875214519E+03  0.62865717459E+03  0.00000000000E+00 0. -1.
        -11    1    5    5    0    0 -0.46612616081E+02  0.41101880128E+02  0.55075545261E+03  0.55425054723E+03  0.00000000000E+00 0.  1.
          3    1    6    6  503    0  0.16648156374E+03 -0.28540857693E+02  0.52631284684E+02  0.17692016208E+03  0.00000000000E+00 0. -1.
         -3    1    6    6    0  503  0.11555890494E+03 -0.36871139067E+02 -0.37305579528E+02  0.12690566446E+03  0.00000000000E+00 0.  1.
<mgrwt>
<rscale>  0 0.11925054E+04</rscale>
<asrwt>0</asrwt>
<pdfrwt beam="1">  1        1 0.34513195E+00 0.11925054E+04</pdfrwt>
<pdfrwt beam="2">  1       -2 0.24380850E-01 0.11925054E+04</pdfrwt>
<totfact> 0.26662956E+01</totfact>
</mgrwt>
</event>
<event>
12    4  0.4320235E-008  0.1494785E+04  0.7818608E-02  0.8887928E-01
         -2   -1    0    0    0  501 -0.00000000000E+00  0.00000000000E+00  0.10167958507E+04  0.10167958507E+04  0.00000000000E+00 0.  1.
          1   -1    0    0  501    0  0.00000000000E+00 -0.00000000000E+00 -0.54936870155E+03  0.54936870155E+03  0.00000000000E+00 0. -1.
        -24    2    1    2    0    0 -0.22343809951E+03 -0.31474257086E+03 -0.13638261948E+03  0.41700033590E+03  0.79382561200E+02 0.  0.
        254    2    1    2    0    0  0.22343809951E+03  0.31474257086E+03  0.60380976864E+03  0.11491642164E+04  0.89833439723E+03 0.  0.
         23    2    4    4    0    0 -0.67210177653E+02  0.25402521379E+03 -0.16219396206E+03  0.32238769337E+03  0.92633289283E+02 0.  0.
         23    2    4    4    0    0  0.29064827716E+03  0.60717357073E+02  0.76600373071E+03  0.82677652300E+03  0.92923006134E+02 0.  0.
          3    1    3    3  502    0 -0.14438390181E+03 -0.22265137373E+03 -0.55385941232E+02  0.27108660574E+03  0.00000000000E+00 0. -1.
         -4    1    3    3    0  502 -0.79054197696E+02 -0.92091197130E+02 -0.80996678245E+02  0.14591373016E+03  0.00000000000E+00 0.  1.
         11    1    5    5    0    0 -0.45780289674E+02  0.74232769599E+02 -0.13835744732E+02  0.88304964964E+02  0.00000000000E+00 0.  1.
        -11    1    5    5    0    0 -0.21429887979E+02  0.17979244419E+03 -0.14835821733E+03  0.23408272840E+03  0.00000000000E+00 0. -1.
          2    1    6    6  503    0  0.27163495742E+03  0.58750042614E+02  0.61888886608E+03  0.67842504830E+03  0.00000000000E+00 0. -1.
         -2    1    6    6    0  503  0.19013319740E+02  0.19673144597E+01  0.14711486462E+03  0.14835147470E+03  0.00000000000E+00 0.  1.
<mgrwt>
<rscale>  0 0.14947854E+04</rscale>
<asrwt>0</asrwt>
<pdfrwt beam="1">  1        1 0.84518262E-01 0.14947854E+04</pdfrwt>
<pdfrwt beam="2">  1       -2 0.15643013E+00 0.14947854E+04</pdfrwt>
<totfact> 0.88023196E+00</totfact>
</mgrwt>
</event>
<event>
12    4  0.4320235E-008  0.1243830E+04  0.7818608E-02  0.9075334E-01
         -2   -1    0    0    0  501 -0.00000000000E+00  0.00000000000E+00  0.29051917263E+03  0.29051917263E+03  0.00000000000E+00 0.  1.
          1   -1    0    0  501    0  0.00000000000E+00 -0.00000000000E+00 -0.13313356019E+04  0.13313356019E+04  0.00000000000E+00 0. -1.
        -24    2    1    2    0    0 -0.21084469752E+03 -0.37196474932E+02 -0.50550532169E+03  0.55465464447E+03  0.79164892193E+02 0.  0.
        254    2    1    2    0    0  0.21084469752E+03  0.37196474932E+02 -0.53531110762E+03  0.10672001301E+04  0.89806406872E+03 0.  0.
         23    2    4    4    0    0  0.43392687978E+03  0.30567817054E+03 -0.43741868540E+03  0.69401626864E+03  0.92691929810E+02 0.  0.
         23    2    4    4    0    0 -0.22308218226E+03 -0.26848169561E+03 -0.97892422213E+02  0.37318386146E+03  0.88516592849E+02 0.  0.
          1    1    3    3  502    0 -0.87046477810E+02  0.83774331091E+01 -0.28063961739E+03  0.29394874644E+03  0.00000000000E+00 0. -1.
         -2    1    3    3    0  502 -0.12379821971E+03 -0.45573908041E+02 -0.22486570430E+03  0.26070589803E+03  0.00000000000E+00 0.  1.
         11    1    5    5    0    0  0.19773906379E+03  0.13588341987E+03 -0.13901287961E+03  0.27728977954E+03  0.00000000000E+00 0.  1.
        -11    1    5    5    0    0  0.23618781599E+03  0.16979475067E+03 -0.29840580580E+03  0.41672648910E+03  0.00000000000E+00 0. -1.
          1    1    6    6  503    0 -0.10351887341E+03 -0.75098030517E+02 -0.62297557266E+01  0.12804171663E+03  0.00000000000E+00 0. -1.
         -1    1    6    6    0  503 -0.11956330884E+03 -0.19338366509E+03 -0.91662666486E+02  0.24514214483E+03  0.00000000000E+00 0.  1.
<mgrwt>
<rscale>  0 0.12438304E+04</rscale>
<asrwt>0</asrwt>
<pdfrwt beam="1">  1        1 0.20482086E+00 0.12438304E+04</pdfrwt>
<pdfrwt beam="2">  1       -2 0.44695258E-01 0.12438304E+04</pdfrwt>
<totfact> 0.35294730E+01</totfact>
</mgrwt>
</event>
<event>
12    4  0.4320235E-008  0.1899822E+04  0.7818608E-02  0.8654945E-01
          1   -1    0    0  501    0  0.00000000000E+00  0.00000000000E+00  0.31227058275E+04  0.31227058275E+04  0.00000000000E+00 0. -1.
         -2   -1    0    0    0  501 -0.00000000000E+00 -0.00000000000E+00 -0.28895814724E+03  0.28895814724E+03  0.00000000000E+00 0.  1.
        -24    2    1    2    0    0  0.14005599811E+03 -0.26310300800E+03  0.22286114027E+04  0.22498568258E+04  0.79423401627E+02 0.  0.
        254    2    1    2    0    0 -0.14005599811E+03  0.26310300800E+03  0.60513627756E+03  0.11618071490E+04  0.94592127663E+03 0.  0.
         23    2    4    4    0    0  0.39644383450E+03  0.12910325719E+03  0.31432142054E+03  0.52994037461E+03  0.90573066113E+02 0.  0.
         23    2    4    4    0    0 -0.53649983261E+03  0.13399975081E+03  0.29081485701E+03  0.63186677437E+03  0.94309786801E+02 0.  0.
          1    1    3    3  502    0  0.93801194702E+02 -0.10495085950E+03  0.11823583459E+04  0.11907076069E+04  0.00000000000E+00 0. -1.
         -2    1    3    3    0  502  0.46254803410E+02 -0.15815214850E+03  0.10462530568E+04  0.10591492189E+04  0.00000000000E+00 0.  1.
         11    1    5    5    0    0  0.17906010422E+03  0.10023006842E+03  0.17863282949E+03  0.27206299879E+03  0.00000000000E+00 0. -1.
        -11    1    5    5    0    0  0.21738373028E+03  0.28873188767E+02  0.13568859105E+03  0.25787737582E+03  0.00000000000E+00 0.  1.
          4    1    6    6  503    0 -0.36361261433E+03  0.77159407160E+02  0.14625168453E+03  0.39944619492E+03  0.00000000000E+00 0. -1.
         -4    1    6    6    0  503 -0.17288721828E+03  0.56840343651E+02  0.14456317249E+03  0.23242057945E+03  0.00000000000E+00 0.  1.
<mgrwt>
<rscale>  0 0.18998224E+04</rscale>
<asrwt>0</asrwt>
<pdfrwt beam="1">  1        1 0.48041626E+00 0.18998224E+04</pdfrwt>
<pdfrwt beam="2">  1       -2 0.44455102E-01 0.18998224E+04</pdfrwt>
<totfact> 0.19206811E+00</totfact>
</mgrwt>
</event>
<event>
12    4  0.4320235E-008  0.1571639E+04  0.7818608E-02  0.8838163E-01
          1   -1    0    0  501    0  0.00000000000E+00  0.00000000000E+00  0.16791264051E+04  0.16791264051E+04  0.00000000000E+00 0. -1.
         -2   -1    0    0    0  501 -0.00000000000E+00 -0.00000000000E+00 -0.36775790432E+03  0.36775790432E+03  0.00000000000E+00 0.  1.
        -24    2    1    2    0    0  0.13498704611E+02 -0.18654404981E+03 -0.18623674137E+03  0.27629496660E+03  0.81693862571E+02 0.  0.
        254    2    1    2    0    0 -0.13498704611E+02  0.18654404981E+03  0.14976052422E+04  0.17705893429E+04  0.92584246072E+03 0.  0.
         23    2    4    4    0    0  0.13411720886E+03  0.75560696911E+02 -0.68252779592E+02  0.19128145822E+03  0.90737587061E+02 0.  0.
         23    2    4    4    0    0 -0.14761591347E+03  0.11098335290E+03  0.15658580218E+04  0.15793078846E+04  0.90522304330E+02 0.  0.
          1    1    3    3  502    0  0.17291325967E+02 -0.36711963468E+01 -0.33990779741E+02  0.38312409788E+02  0.00000000000E+00 0. -1.
         -2    1    3    3    0  502 -0.37926213561E+01 -0.18287285347E+03 -0.15224596163E+03  0.23798255681E+03  0.00000000000E+00 0.  1.
         11    1    5    5    0    0  0.32060839162E+02  0.66582258060E+02 -0.13514883267E+02  0.75124873150E+02  0.00000000000E+00 0. -1.
        -11    1    5    5    0    0  0.10205636970E+03  0.89784388507E+01 -0.54737896325E+02  0.11615658507E+03  0.00000000000E+00 0.  1.
          1    1    6    6  503    0 -0.92703167959E+02  0.18695251793E+02  0.88413854075E+03  0.88918184250E+03  0.00000000000E+00 0. -1.
         -1    1    6    6    0  503 -0.54912745516E+02  0.92288101109E+02  0.68171948104E+03  0.69012604215E+03  0.00000000000E+00 0.  1.
<mgrwt>
<rscale>  0 0.15716386E+04</rscale>
<asrwt>0</asrwt>
<pdfrwt beam="1">  1        1 0.25832714E+00 0.15716386E+04</pdfrwt>
<pdfrwt beam="2">  1       -2 0.56578140E-01 0.15716386E+04</pdfrwt>
<totfact> 0.12184329E+01</totfact>
</mgrwt>
</event>
<event>
12    4  0.4320235E-008  0.2396241E+04  0.7818608E-02  0.8440912E-01
          1   -1    0    0  501    0  0.00000000000E+00  0.00000000000E+00  0.17648991228E+04  0.17648991228E+04  0.00000000000E+00 0. -1.
         -2   -1    0    0    0  501 -0.00000000000E+00 -0.00000000000E+00 -0.81335648996E+03  0.81335648996E+03  0.00000000000E+00 0.  1.
        -24    2    1    2    0    0  0.28409629291E+03 -0.47165026133E+03 -0.49478845559E+03  0.74458224887E+03  0.80140107925E+02 0.  0.
        254    2    1    2    0    0 -0.28409629291E+03  0.47165026133E+03  0.14463310884E+04  0.18336733639E+04  0.98352413057E+03 0.  0.
         23    2    4    4    0    0 -0.86981327211E+02  0.24823737502E+03 -0.68962764849E+02  0.28696104938E+03  0.91669162129E+02 0.  0.
         23    2    4    4    0    0 -0.19711496570E+03  0.22341288630E+03  0.15152938533E+04  0.15467123145E+04  0.86231633325E+02 0.  0.
          1    1    3    3  502    0  0.23883473146E+03 -0.40959259545E+03 -0.45873500411E+03  0.65973170849E+03  0.00000000000E+00 0. -1.
         -2    1    3    3    0  502  0.45261561451E+02 -0.62057665874E+02 -0.36053451482E+02  0.84850540378E+02  0.00000000000E+00 0.  1.
         11    1    5    5    0    0 -0.44071573752E+02  0.16871497980E+03 -0.18199405554E+01  0.17438566513E+03  0.00000000000E+00 0. -1.
        -11    1    5    5    0    0 -0.42909753459E+02  0.79522395226E+02 -0.67142824294E+02  0.11257538425E+03  0.00000000000E+00 0.  1.
          3    1    6    6  503    0 -0.34801740787E+02  0.20593939797E+01  0.20948801625E+03  0.21236909195E+03  0.00000000000E+00 0. -1.
         -3    1    6    6    0  503 -0.16231322491E+03  0.22135349232E+03  0.13058058370E+04  0.13343432226E+04  0.00000000000E+00 0.  1.
<mgrwt>
<rscale>  0 0.23962405E+04</rscale>
<asrwt>0</asrwt>
<pdfrwt beam="1">  1        1 0.27152294E+00 0.23962405E+04</pdfrwt>
<pdfrwt beam="2">  1       -2 0.12513177E+00 0.23962405E+04</pdfrwt>
<totfact> 0.16208264E+00</totfact>
</mgrwt>
</event>
<event>
12    4  0.4320235E-008  0.2396364E+04  0.7818608E-02  0.8440866E-01
         -2   -1    0    0    0  501 -0.00000000000E+00  0.00000000000E+00  0.80082376385E+03  0.80082376385E+03  0.00000000000E+00 0.  1.
          1   -1    0    0  501    0  0.00000000000E+00 -0.00000000000E+00 -0.17927046954E+04  0.17927046954E+04  0.00000000000E+00 0. -1.
        -24    2    1    2    0    0 -0.41295451390E+03  0.64322901308E+03 -0.11682746586E+04  0.13983302948E+04  0.78657114271E+02 0.  0.
        254    2    1    2    0    0  0.41295451390E+03 -0.64322901308E+03  0.17639372697E+03  0.11951981645E+04  0.90172551906E+03 0.  0.
         23    2    4    4    0    0  0.66368182629E+02  0.29832127739E+02  0.38619637427E+03  0.40430808973E+03  0.94987896138E+02 0.  0.
         23    2    4    4    0    0  0.34658633127E+03 -0.67306114082E+03 -0.20980264730E+03  0.79089007478E+03  0.91414305604E+02 0.  0.
          1    1    3    3  502    0 -0.33940071308E+03  0.57152207136E+03 -0.10349792009E+04  0.12300456367E+04  0.00000000000E+00 0. -1.
         -4    1    3    3    0  502 -0.73553800827E+02  0.71706941725E+02 -0.13329545763E+03  0.16828465804E+03  0.00000000000E+00 0.  1.
         11    1    5    5    0    0  0.77114600579E+02  0.17639606364E+02  0.37784183419E+03  0.38603402570E+03  0.00000000000E+00 0. -1.
        -11    1    5    5    0    0 -0.10746417950E+02  0.12192521374E+02  0.83545400781E+01  0.18274064029E+02  0.00000000000E+00 0.  1.
          4    1    6    6  503    0  0.27806309784E+03 -0.51204261472E+03 -0.19841091916E+03  0.61552710624E+03  0.00000000000E+00 0. -1.
         -4    1    6    6    0  503  0.68523233438E+02 -0.16101852610E+03 -0.11391728138E+02  0.17536296855E+03  0.00000000000E+00 0.  1.
<mgrwt>
<rscale>  0 0.23963643E+04</rscale>
<asrwt>0</asrwt>
<pdfrwt beam="1">  1        1 0.27580072E+00 0.23963643E+04</pdfrwt>
<pdfrwt beam="2">  1       -2 0.12320366E+00 0.23963643E+04</pdfrwt>
<totfact> 0.16133882E+00</totfact>
</mgrwt>
</event>
<event>
12    4  0.4320235E-008  0.2723440E+04  0.7818608E-02  0.8327439E-01
          1   -1    0    0  501    0  0.00000000000E+00  0.00000000000E+00  0.16536857284E+04  0.16536857284E+04  0.00000000000E+00 0. -1.
         -2   -1    0    0    0  501 -0.00000000000E+00 -0.00000000000E+00 -0.11213018776E+04  0.11213018776E+04  0.00000000000E+00 0.  1.
        -24    2    1    2    0    0 -0.23331334332E+03 -0.71507288529E+03  0.12052092492E+04  0.14230236585E+04  0.81869718274E+02 0.  0.
        254    2    1    2    0    0  0.23331334332E+03  0.71507288529E+03 -0.67282539844E+03  0.13519639474E+04  0.89963778874E+03 0.  0.
         23    2    4    4    0    0  0.46228959519E+02 -0.19486714589E+03 -0.36551414172E+02  0.22208708682E+03  0.88748785972E+02 0.  0.
         23    2    4    4    0    0  0.18708438380E+03  0.90994003118E+03 -0.63627398427E+03  0.11298768606E+04  0.93732118757E+02 0.  0.
          3    1    3    3  502    0 -0.20573612224E+03 -0.66025608925E+03  0.11408996623E+04  0.13341354860E+04  0.00000000000E+00 0. -1.
         -4    1    3    3    0  502 -0.27577221080E+02 -0.54816796039E+02  0.64309586901E+02  0.88888172541E+02  0.00000000000E+00 0.  1.
         11    1    5    5    0    0  0.22977379093E+01  0.90953300922E+01 -0.62153162918E+01  0.11253212234E+02  0.00000000000E+00 0.  1.
        -11    1    5    5    0    0  0.43931221609E+02 -0.20396247598E+03 -0.30336097880E+02  0.21083387459E+03  0.00000000000E+00 0. -1.
          2    1    6    6  503    0  0.14179271480E+03  0.45738819608E+03 -0.32311603546E+03  0.57767907029E+03  0.00000000000E+00 0. -1.
         -2    1    6    6    0  503  0.45291669005E+02  0.45255183509E+03 -0.31315794881E+03  0.55219779032E+03  0.00000000000E+00 0.  1.
<mgrwt>
<rscale>  0 0.27234397E+04</rscale>
<asrwt>0</asrwt>
<pdfrwt beam="1">  1        1 0.25441319E+00 0.27234397E+04</pdfrwt>
<pdfrwt beam="2">  1       -2 0.17250798E+00 0.27234397E+04</pdfrwt>
<totfact> 0.80289684E-01</totfact>
</mgrwt>
</event>
<event>
12    4  0.4320235E-008  0.1747718E+04  0.7818608E-02  0.8734607E-01
          1   -1    0    0  501    0  0.00000000000E+00  0.00000000000E+00  0.68159242187E+03  0.68159242187E+03  0.00000000000E+00 0. -1.
         -2   -1    0    0    0  501 -0.00000000000E+00 -0.00000000000E+00 -0.11203611345E+04  0.11203611345E+04  0.00000000000E+00 0.  1.
        -24    2    1    2    0    0 -0.55342352991E+03 -0.10702376804E+03  0.15123621512E+03  0.58913337744E+03  0.80461501788E+02 0.  0.
        254    2    1    2    0    0  0.55342352991E+03  0.10702376804E+03 -0.59000492779E+03  0.12128201790E+04  0.89727101888E+03 0.  0.
         23    2    4    4    0    0  0.71767248865E+03  0.25961441201E+03 -0.27702136989E+03  0.81717287711E+03  0.92613324197E+02 0.  0.
         23    2    4    4    0    0 -0.16424895874E+03 -0.15259064397E+03 -0.31298355790E+03  0.39564730187E+03  0.91194598985E+02 0.  0.
          1    1    3    3  502    0 -0.46078357697E+03 -0.61778530583E+02  0.13940986454E+03  0.48535883837E+03  0.00000000000E+00 0. -1.
         -2    1    3    3    0  502 -0.92639952934E+02 -0.45245237456E+02  0.11826350584E+02  0.10377453907E+03  0.00000000000E+00 0.  1.
         11    1    5    5    0    0  0.33367021508E+03  0.10608210270E+03 -0.80332958625E+02  0.35922501192E+03  0.00000000000E+00 0.  1.
        -11    1    5    5    0    0  0.38400227357E+03  0.15353230930E+03 -0.19668841127E+03  0.45794786519E+03  0.00000000000E+00 0. -1.
          1    1    6    6  503    0 -0.44680312567E+02 -0.98682104524E+02 -0.11340459182E+03  0.15682821662E+03  0.00000000000E+00 0. -1.
         -1    1    6    6    0  503 -0.11956864618E+03 -0.53908539443E+02 -0.19957896608E+03  0.23881908524E+03  0.00000000000E+00 0.  1.
<mgrwt>
<rscale>  0 0.17477181E+04</rscale>
<asrwt>0</asrwt>
<pdfrwt beam="1">  1        1 0.10486037E+00 0.17477181E+04</pdfrwt>
<pdfrwt beam="2">  1       -2 0.17236325E+00 0.17477181E+04</pdfrwt>
<totfact> 0.48244375E+00</totfact>
</mgrwt>
</event>
<event>
12    4  0.4320235E-008  0.1450552E+04  0.7818608E-02  0.8918018E-01
          1   -1    0    0  501    0  0.00000000000E+00  0.00000000000E+00  0.14053898154E+04  0.14053898154E+04  0.00000000000E+00 0. -1.
         -2   -1    0    0    0  501 -0.00000000000E+00 -0.00000000000E+00 -0.37429151716E+03  0.37429151716E+03  0.00000000000E+00 0.  1.
        -24    2    1    2    0    0 -0.41413566227E+03  0.82537397776E+02  0.16462525427E+03  0.46047034612E+03  0.81306189889E+02 0.  0.
        254    2    1    2    0    0  0.41413566227E+03 -0.82537397776E+02  0.86647304394E+03  0.13192109864E+04  0.90067825664E+03 0.  0.
         23    2    4    4    0    0  0.55319837963E+03  0.24259481212E+03  0.66177475703E+03  0.90066310714E+03  0.91474113390E+02 0.  0.
         23    2    4    4    0    0 -0.13906271737E+03 -0.32513220989E+03  0.20469828690E+03  0.41854787927E+03  0.90727863993E+02 0.  0.
          1    1    3    3  502    0 -0.80444451941E+01  0.92459559671E+01 -0.63466162438E+01  0.13801461443E+02  0.00000000000E+00 0. -1.
         -2    1    3    3    0  502 -0.40609121707E+03  0.73291441809E+02  0.17097187052E+03  0.44666888467E+03  0.00000000000E+00 0.  1.
         11    1    5    5    0    0  0.38301724023E+03  0.18233724198E+03  0.52021398456E+03  0.67124635258E+03  0.00000000000E+00 0. -1.
        -11    1    5    5    0    0  0.17018113940E+03  0.60257570135E+02  0.14156077248E+03  0.22941675456E+03  0.00000000000E+00 0.  1.
          3    1    6    6  503    0 -0.10918877859E+03 -0.29267450367E+03  0.14518818919E+03  0.34447084746E+03  0.00000000000E+00 0. -1.
         -3    1    6    6    0  503 -0.29873938779E+02 -0.32457706222E+02  0.59510097713E+02  0.74077031806E+02  0.00000000000E+00 0.  1.
<mgrwt>
<rscale>  0 0.14505523E+04</rscale>
<asrwt>0</asrwt>
<pdfrwt beam="1">  1        1 0.21621381E+00 0.14505523E+04</pdfrwt>
<pdfrwt beam="2">  1       -2 0.57583311E-01 0.14505523E+04</pdfrwt>
<totfact> 0.18328529E+01</totfact>
</mgrwt>
</event>
<event>
12    4  0.4320235E-008  0.2255668E+04  0.7818608E-02  0.8495609E-01
          1   -1    0    0  501    0  0.00000000000E+00  0.00000000000E+00  0.10342900297E+04  0.10342900297E+04  0.00000000000E+00 0. -1.
         -2   -1    0    0    0  501 -0.00000000000E+00 -0.00000000000E+00 -0.12298383699E+04  0.12298383699E+04  0.00000000000E+00 0.  1.
        -24    2    1    2    0    0 -0.30969802008E+03 -0.60649808323E+03  0.57715940639E+03  0.89730436823E+03  0.91045923860E+02 0.  0.
        254    2    1    2    0    0  0.30969802008E+03  0.60649808323E+03 -0.77270774654E+03  0.13668240314E+04  0.89854208731E+03 0.  0.
         23    2    4    4    0    0  0.37770814262E+03  0.14248220164E+03  0.48909806744E+02  0.41631449992E+03  0.89224295264E+02 0.  0.
         23    2    4    4    0    0 -0.68010122539E+02  0.46401588160E+03 -0.82161755328E+03  0.95050953148E+03  0.92069812858E+02 0.  0.
          3    1    3    3  502    0 -0.22071257102E+03 -0.34398405686E+03  0.36934049797E+03  0.55086429710E+03  0.00000000000E+00 0. -1.
         -4    1    3    3    0  502 -0.88985449062E+02 -0.26251402637E+03  0.20781890843E+03  0.34644007113E+03  0.00000000000E+00 0.  1.
         11    1    5    5    0    0  0.15837100999E+03  0.10721080625E+03  0.20161311648E+02  0.19230707806E+03  0.00000000000E+00 0.  1.
        -11    1    5    5    0    0  0.21933713262E+03  0.35271395389E+02  0.28748495095E+02  0.22400742186E+03  0.00000000000E+00 0. -1.
          2    1    6    6  503    0 -0.61227601102E+02  0.42782321617E+03 -0.79565362969E+03  0.90545360006E+03  0.00000000000E+00 0. -1.
         -2    1    6    6    0  503 -0.67825214363E+01  0.36192665432E+02 -0.25963923594E+02  0.45055931424E+02  0.00000000000E+00 0.  1.
<mgrwt>
<rscale>  0 0.22556680E+04</rscale>
<asrwt>0</asrwt>
<pdfrwt beam="1">  1        1 0.15912154E+00 0.22556680E+04</pdfrwt>
<pdfrwt beam="2">  1       -2 0.18920590E+00 0.22556680E+04</pdfrwt>
<totfact> 0.17764587E+00</totfact>
</mgrwt>
</event>
<event>
12    4  0.4320235E-008  0.1242393E+04  0.7818608E-02  0.9076539E-01
         -2   -1    0    0    0  501 -0.00000000000E+00  0.00000000000E+00  0.20545870810E+03  0.20545870810E+03  0.00000000000E+00 0.  1.
          1   -1    0    0  501    0  0.00000000000E+00 -0.00000000000E+00 -0.18781624488E+04  0.18781624488E+04  0.00000000000E+00 0. -1.
        -24    2    1    2    0    0  0.23450230862E+03  0.15248752928E+03 -0.31146049945E+03  0.42691686816E+03  0.83705377765E+02 0.  0.
        254    2    1    2    0    0 -0.23450230862E+03 -0.15248752928E+03 -0.13612432413E+04  0.16567042888E+04  0.90191028332E+03 0.  0.
         23    2    4    4    0    0  0.17291124152E+03 -0.37913493615E+03 -0.40399117411E+03  0.58833950962E+03  0.96399753983E+02 0.  0.
         23    2    4    4    0    0 -0.40741355015E+03  0.22664740687E+03 -0.95725206718E+03  0.10683647792E+04  0.87846077568E+02 0.  0.
          3    1    3    3  502    0  0.11942880348E+03  0.33319390091E+02 -0.16030802203E+03  0.20266248490E+03  0.00000000000E+00 0. -1.
         -4    1    3    3    0  502  0.11507350514E+03  0.11916813918E+03 -0.15115247742E+03  0.22425438326E+03  0.00000000000E+00 0.  1.
         11    1    5    5    0    0  0.14800042613E+03 -0.21108561361E+03 -0.24059346542E+03  0.35262795977E+03  0.00000000000E+00 0.  1.
        -11    1    5    5    0    0  0.24910815397E+02 -0.16804932253E+03 -0.16339770869E+03  0.23571154985E+03  0.00000000000E+00 0. -1.
          1    1    6    6  503    0 -0.11273525135E+03  0.69492246309E+02 -0.19020425158E+03  0.23176726799E+03  0.00000000000E+00 0. -1.
         -1    1    6    6    0  503 -0.29467829880E+03  0.15715516056E+03 -0.76704781560E+03  0.83659751117E+03  0.00000000000E+00 0.  1.
<mgrwt>
<rscale>  0 0.12423926E+04</rscale>
<asrwt>0</asrwt>
<pdfrwt beam="1">  1        1 0.28894806E+00 0.12423926E+04</pdfrwt>
<pdfrwt beam="2">  1       -2 0.31609033E-01 0.12423926E+04</pdfrwt>
<totfact> 0.29058002E+01</totfact>
</mgrwt>
</event>
<event>
12    4  0.4320235E-008  0.1481104E+04  0.7818608E-02  0.8897117E-01
         -4   -1    0    0    0  501 -0.00000000000E+00  0.00000000000E+00  0.65926110060E+03  0.65926110060E+03  0.00000000000E+00 0.  1.
          1   -1    0    0  501    0  0.00000000000E+00 -0.00000000000E+00 -0.83186607896E+03  0.83186607896E+03  0.00000000000E+00 0. -1.
        -24    2    1    2    0    0 -0.46514359586E+02  0.28485134692E+02  0.40511262087E+03  0.41761308191E+03  0.85495391984E+02 0.  0.
        254    2    1    2    0    0  0.46514359586E+02 -0.28485134692E+02 -0.57771759923E+03  0.10735140977E+04  0.90316106252E+03 0.  0.
         23    2    4    4    0    0  0.23392961107E+03 -0.37384200029E+03 -0.12575842523E+03  0.46786068933E+03  0.92722915104E+02 0.  0.
         23    2    4    4    0    0 -0.18741525149E+03  0.34535686560E+03 -0.45195917400E+03  0.60565340832E+03  0.90294600790E+02 0.  0.
          1    1    3    3  502    0 -0.59916410157E+02  0.21770900748E+02  0.16278814851E+03  0.17482542613E+03  0.00000000000E+00 0. -1.
         -2    1    3    3    0  502  0.13402050571E+02  0.67142339443E+01  0.24232447236E+03  0.24278765579E+03  0.00000000000E+00 0.  1.
         11    1    5    5    0    0  0.22640162800E+03 -0.37520543977E+03 -0.11230115365E+03  0.45238077800E+03  0.00000000000E+00 0. -1.
        -11    1    5    5    0    0  0.75279830782E+01  0.13634394790E+01 -0.13457271580E+02  0.15479911331E+02  0.00000000000E+00 0.  1.
          3    1    6    6  503    0 -0.12649553079E+03  0.30234508252E+03 -0.35219436067E+03  0.48109722086E+03  0.00000000000E+00 0. -1.
         -3    1    6    6    0  503 -0.60919720695E+02  0.43011783080E+02 -0.99764813337E+02  0.12455618746E+03  0.00000000000E+00 0.  1.
<mgrwt>
<rscale>  0 0.14811036E+04</rscale>
<asrwt>0</asrwt>
<pdfrwt beam="1">  1        1 0.12797940E+00 0.14811036E+04</pdfrwt>
<pdfrwt beam="2">  1       -4 0.10142479E+00 0.14811036E+04</pdfrwt>
<totfact> 0.77753344E+00</totfact>
</mgrwt>
</event>
<event>
12    4  0.4320235E-008  0.1498208E+04  0.7818608E-02  0.8885646E-01
          1   -1    0    0  501    0  0.00000000000E+00  0.00000000000E+00  0.12392538710E+04  0.12392538710E+04  0.00000000000E+00 0. -1.
         -2   -1    0    0    0  501 -0.00000000000E+00 -0.00000000000E+00 -0.45281823062E+03  0.45281823062E+03  0.00000000000E+00 0.  1.
        -24    2    1    2    0    0 -0.60995025875E+02  0.33537746901E+03 -0.11907180776E+03  0.37206504006E+03  0.89754435707E+02 0.  0.
        254    2    1    2    0    0  0.60995025875E+02 -0.33537746901E+03  0.90550744818E+03  0.13200070616E+04  0.89792898609E+03 0.  0.
         23    2    4    4    0    0  0.33152576136E+03 -0.35334727312E+03  0.15724252357E+03  0.51929442437E+03  0.10088539085E+03 0.  0.
         23    2    4    4    0    0 -0.27053073549E+03  0.17969804111E+02  0.74826492461E+03  0.80071263724E+03  0.87923474246E+02 0.  0.
          1    1    3    3  502    0 -0.28337621734E+02  0.18394856769E+02 -0.13315421753E+02  0.36313799272E+02  0.00000000000E+00 0. -1.
         -2    1    3    3    0  502 -0.32657404141E+02  0.31698261224E+03 -0.10575638601E+03  0.33575124079E+03  0.00000000000E+00 0.  1.
         11    1    5    5    0    0  0.28077275949E+03 -0.28690916478E+03  0.88543254056E+02  0.41108407795E+03  0.00000000000E+00 0. -1.
        -11    1    5    5    0    0  0.50753001877E+02 -0.66438108344E+02  0.68699269513E+02  0.10821034642E+03  0.00000000000E+00 0.  1.
          4    1    6    6  503    0 -0.15390308000E+03 -0.11738177276E+02  0.52316121338E+03  0.54545540425E+03  0.00000000000E+00 0. -1.
         -4    1    6    6    0  503 -0.11662765549E+03  0.29707981387E+02  0.22510371123E+03  0.25525723299E+03  0.00000000000E+00 0.  1.
<mgrwt>
<rscale>  0 0.14982079E+04</rscale>
<asrwt>0</asrwt>
<pdfrwt beam="1">  1        1 0.19065444E+00 0.14982079E+04</pdfrwt>
<pdfrwt beam="2">  1       -2 0.69664344E-01 0.14982079E+04</pdfrwt>
<totfact> 0.15948698E+01</totfact>
</mgrwt>
</event>
<event>
12    4  0.4320235E-008  0.1747322E+04  0.7818608E-02  0.8734826E-01
          1   -1    0    0  501    0  0.00000000000E+00  0.00000000000E+00  0.18992814138E+04  0.18992814138E+04  0.00000000000E+00 0. -1.
         -2   -1    0    0    0  501 -0.00000000000E+00 -0.00000000000E+00 -0.40188023805E+03  0.40188023805E+03  0.00000000000E+00 0.  1.
        -24    2    1    2    0    0  0.25624343356E+03 -0.28988106311E+03 -0.11585092111E+03  0.41161544418E+03  0.79461374119E+02 0.  0.
        254    2    1    2    0    0 -0.25624343356E+03  0.28988106311E+03  0.16132520969E+04  0.18895462077E+04  0.90449478433E+03 0.  0.
         23    2    4    4    0    0 -0.26098764700E+03  0.26196736843E+03  0.12556677421E+03  0.39881620166E+03  0.80906698793E+02 0.  0.
         23    2    4    4    0    0  0.47442134416E+01  0.27913694680E+02  0.14876853226E+04  0.14907300060E+04  0.90921117867E+02 0.  0.
          3    1    3    3  502    0  0.16290656095E+03 -0.23000637564E+03 -0.10254964097E+03  0.29992984063E+03  0.00000000000E+00 0. -1.
         -4    1    3    3    0  502  0.93336872610E+02 -0.59874687467E+02 -0.13301280135E+02  0.11168560355E+03  0.00000000000E+00 0.  1.
         11    1    5    5    0    0 -0.66161813499E+02  0.23804144270E+02  0.31604718515E+02  0.77090084203E+02  0.00000000000E+00 0. -1.
        -11    1    5    5    0    0 -0.19482583350E+03  0.23816322416E+03  0.93962055694E+02  0.32172611745E+03  0.00000000000E+00 0.  1.
          1    1    6    6  503    0  0.20056961743E+02  0.47716585630E+02  0.13352565001E+04  0.13362593593E+04  0.00000000000E+00 0. -1.
         -1    1    6    6    0  503 -0.15312748301E+02 -0.19802890949E+02  0.15242882255E+03  0.15447064671E+03  0.00000000000E+00 0.  1.
<mgrwt>
<rscale>  0 0.17473221E+04</rscale>
<asrwt>0</asrwt>
<pdfrwt beam="1">  1        1 0.29219714E+00 0.17473221E+04</pdfrwt>
<pdfrwt beam="2">  1       -2 0.61827730E-01 0.17473221E+04</pdfrwt>
<totfact> 0.70540128E+00</totfact>
</mgrwt>
</event>
<event>
12    4  0.4320235E-008  0.1649478E+04  0.7818608E-02  0.8790716E-01
         -2   -1    0    0    0  501 -0.00000000000E+00  0.00000000000E+00  0.97711427885E+03  0.97711427885E+03  0.00000000000E+00 0.  1.
          1   -1    0    0  501    0  0.00000000000E+00 -0.00000000000E+00 -0.69612536718E+03  0.69612536718E+03  0.00000000000E+00 0. -1.
        -24    2    1    2    0    0  0.49737569201E+03 -0.10294411937E+03 -0.16818571744E+03  0.54116675872E+03  0.81209325037E+02 0.  0.
        254    2    1    2    0    0 -0.49737569201E+03  0.10294411937E+03  0.44917462912E+03  0.11320728873E+04  0.90656003885E+03 0.  0.
         23    2    4    4    0    0 -0.20052713661E+03 -0.10183262200E+03 -0.24395978904E+03  0.34547791835E+03  0.96216412205E+02 0.  0.
         23    2    4    4    0    0 -0.29684855540E+03  0.20477674137E+03  0.69313441816E+03  0.78659496896E+03  0.90795070971E+02 0.  0.
          1    1    3    3  502    0  0.45572838723E+03 -0.11682926513E+03 -0.15336219305E+03  0.49483068051E+03  0.00000000000E+00 0. -1.
         -2    1    3    3    0  502  0.41647304777E+02  0.13885145757E+02 -0.14823524393E+02  0.46336078203E+02  0.00000000000E+00 0.  1.
         11    1    5    5    0    0 -0.17645468441E+02 -0.51096125048E+02 -0.65926939181E+02  0.85255720402E+02  0.00000000000E+00 0. -1.
        -11    1    5    5    0    0 -0.18288166817E+03 -0.50736496951E+02 -0.17803284986E+03  0.26022219795E+03  0.00000000000E+00 0.  1.
          2    1    6    6  503    0 -0.21877109558E+02 -0.77555608736E+01  0.60290357104E+02  0.64604054105E+02  0.00000000000E+00 0. -1.
         -2    1    6    6    0  503 -0.27497144584E+03  0.21253230224E+03  0.63284406106E+03  0.72199091486E+03  0.00000000000E+00 0.  1.
<mgrwt>
<rscale>  0 0.16494775E+04</rscale>
<asrwt>0</asrwt>
<pdfrwt beam="1">  1        1 0.10709621E+00 0.16494775E+04</pdfrwt>
<pdfrwt beam="2">  1       -2 0.15032527E+00 0.16494775E+04</pdfrwt>
<totfact> 0.68449581E+00</totfact>
</mgrwt>
</event>
<event>
12    4  0.4320235E-008  0.1818049E+04  0.7818608E-02  0.8696760E-01
          1   -1    0    0  501    0  0.00000000000E+00  0.00000000000E+00  0.91745166872E+03  0.91745166872E+03  0.00000000000E+00 0. -1.
         -2   -1    0    0    0  501 -0.00000000000E+00 -0.00000000000E+00 -0.90067424964E+03  0.90067424964E+03  0.00000000000E+00 0.  1.
        -24    2    1    2    0    0  0.58608516711E+03  0.19949837686E+03 -0.27446742936E+03  0.68313976494E+03  0.89733734909E+02 0.  0.
        254    2    1    2    0    0 -0.58608516711E+03 -0.19949837686E+03  0.29124484844E+03  0.11349861534E+04  0.90557969348E+03 0.  0.
         23    2    4    4    0    0  0.12922522443E+03  0.15889862103E+02 -0.18512186228E+03  0.24460230094E+03  0.92782193250E+02 0.  0.
         23    2    4    4    0    0 -0.71531039154E+03 -0.21538823897E+03  0.47636671072E+03  0.89038385249E+03  0.88301256811E+02 0.  0.
          3    1    3    3  502    0  0.38162865094E+03  0.14799941176E+03 -0.13787572513E+03  0.43191893762E+03  0.00000000000E+00 0. -1.
         -2    1    3    3    0  502  0.20445651617E+03  0.51498965106E+02 -0.13659170422E+03  0.25122082731E+03  0.00000000000E+00 0.  1.
         11    1    5    5    0    0  0.56746644256E+02 -0.38938114268E+02 -0.85451550769E+02  0.10971930507E+03  0.00000000000E+00 0.  1.
        -11    1    5    5    0    0  0.72478580172E+02  0.54827976371E+02 -0.99670311512E+02  0.13488299587E+03  0.00000000000E+00 0. -1.
          4    1    6    6  503    0 -0.29653382665E+03 -0.13493102368E+03  0.20866660808E+03  0.38688557072E+03  0.00000000000E+00 0. -1.
         -4    1    6    6    0  503 -0.41877656489E+03 -0.80457215282E+02  0.26770010264E+03  0.50349828177E+03  0.00000000000E+00 0.  1.
<mgrwt>
<rscale>  0 0.18180485E+04</rscale>
<asrwt>0</asrwt>
<pdfrwt beam="1">  1        1 0.14114641E+00 0.18180485E+04</pdfrwt>
<pdfrwt beam="2">  1       -2 0.13856527E+00 0.18180485E+04</pdfrwt>
<totfact> 0.53626835E+00</totfact>
</mgrwt>
</event>
<event>
12    4  0.4320235E-008  0.2020409E+04  0.7818608E-02  0.8597138E-01
         -2   -1    0    0    0  501 -0.00000000000E+00  0.00000000000E+00  0.10005186620E+04  0.10005186620E+04  0.00000000000E+00 0.  1.
          1   -1    0    0  501    0  0.00000000000E+00 -0.00000000000E+00 -0.10199840786E+04  0.10199840786E+04  0.00000000000E+00 0. -1.
        -24    2    1    2    0    0  0.30334237723E+03 -0.74775794087E+03 -0.10212515866E+03  0.81747736466E+03  0.81738349291E+02 0.  0.
        254    2    1    2    0    0 -0.30334237723E+03  0.74775794087E+03  0.82659742049E+02  0.12030253760E+04  0.88841369098E+03 0.  0.
         23    2    4    4    0    0  0.26130765931E+03  0.24896757114E+03  0.21922671147E+03  0.43208481564E+03  0.91489849651E+02 0.  0.
         23    2    4    4    0    0 -0.56465003654E+03  0.49879036974E+03 -0.13656696942E+03  0.77094056033E+03  0.89873876755E+02 0.  0.
          3    1    3    3  502    0  0.30971448204E+02 -0.54539113625E+02  0.12349925088E+02  0.63923909209E+02  0.00000000000E+00 0. -1.
         -4    1    3    3    0  502  0.27237092902E+03 -0.69321882725E+03 -0.11447508375E+03  0.75355345545E+03  0.00000000000E+00 0.  1.
         11    1    5    5    0    0  0.12466395118E+03  0.70839232942E+02  0.53508065487E+02  0.15304381960E+03  0.00000000000E+00 0. -1.
        -11    1    5    5    0    0  0.13664370814E+03  0.17812833819E+03  0.16571864598E+03  0.27904099603E+03  0.00000000000E+00 0.  1.
          4    1    6    6  503    0 -0.40065804972E+02  0.46529529455E+02  0.11994005283E+02  0.62562944321E+02  0.00000000000E+00 0. -1.
         -4    1    6    6    0  503 -0.52458423157E+03  0.45226084028E+03 -0.14856097470E+03  0.70837761601E+03  0.00000000000E+00 0.  1.
<mgrwt>
<rscale>  0 0.20204090E+04</rscale>
<asrwt>0</asrwt>
<pdfrwt beam="1">  1        1 0.15692063E+00 0.20204090E+04</pdfrwt>
<pdfrwt beam="2">  1       -2 0.15392595E+00 0.20204090E+04</pdfrwt>
<totfact> 0.33143508E+00</totfact>
</mgrwt>
</event>
<event>
12    4  0.4320235E-008  0.2208152E+04  0.7818608E-02  0.8515043E-01
         -2   -1    0    0    0  501 -0.00000000000E+00  0.00000000000E+00  0.61215524502E+03  0.61215524502E+03  0.00000000000E+00 0.  1.
          1   -1    0    0  501    0  0.00000000000E+00 -0.00000000000E+00 -0.19912980962E+04  0.19912980962E+04  0.00000000000E+00 0. -1.
        -24    2    1    2    0    0  0.34167385122E+03  0.85268995639E+03 -0.63689321416E+03  0.11204944277E+04  0.77804973508E+02 0.  0.
        254    2    1    2    0    0 -0.34167385122E+03 -0.85268995639E+03 -0.74224963706E+03  0.14829589136E+04  0.89688986687E+03 0.  0.
         23    2    4    4    0    0 -0.39792615529E+03 -0.38479324623E+03  0.42755356850E+02  0.56279408120E+03  0.92185084972E+02 0.  0.
         23    2    4    4    0    0  0.56252304071E+02 -0.46789671016E+03 -0.78500499391E+03  0.92016483237E+03  0.91535922867E+02 0.  0.
          1    1    3    3  502    0  0.34061482638E+03  0.85433472351E+03 -0.63650199656E+03  0.11184994731E+04  0.00000000000E+00 0. -1.
         -2    1    3    3    0  502  0.10590248345E+01 -0.16447671267E+01 -0.39121760504E+00  0.19949545648E+01  0.00000000000E+00 0.  1.
         11    1    5    5    0    0 -0.21671440523E+03 -0.21879231773E+03  0.69172333978E+02  0.31562639864E+03  0.00000000000E+00 0.  1.
        -11    1    5    5    0    0 -0.18121175005E+03 -0.16600092850E+03 -0.26416977128E+02  0.24716768256E+03  0.00000000000E+00 0. -1.
          3    1    6    6  503    0  0.61351856771E+02 -0.18799674439E+03 -0.37064504055E+03  0.42010066926E+03  0.00000000000E+00 0. -1.
         -3    1    6    6    0  503 -0.50995527004E+01 -0.27989996577E+03 -0.41435995336E+03  0.50006416311E+03  0.00000000000E+00 0.  1.
<mgrwt>
<rscale>  0 0.22081518E+04</rscale>
<asrwt>0</asrwt>
<pdfrwt beam="1">  1        1 0.30635356E+00 0.22081518E+04</pdfrwt>
<pdfrwt beam="2">  1       -2 0.94177729E-01 0.22081518E+04</pdfrwt>
<totfact> 0.22993371E+00</totfact>
</mgrwt>
</event>
<event>
12    4  0.4320235E-008  0.1273252E+04  0.7818608E-02  0.9051050E-01
         -2   -1    0    0    0  501 -0.00000000000E+00  0.00000000000E+00  0.31107034100E+03  0.31107034100E+03  0.00000000000E+00 0.  1.
          1   -1    0    0  501    0  0.00000000000E+00 -0.00000000000E+00 -0.13028971167E+04  0.13028971167E+04  0.00000000000E+00 0. -1.
        -24    2    1    2    0    0  0.16337759182E+03 -0.23252481968E+03 -0.78358780090E+02  0.30563281946E+03  0.80692581059E+02 0.  0.
        254    2    1    2    0    0 -0.16337759182E+03  0.23252481968E+03 -0.91346799560E+03  0.13083346382E+04  0.89249970160E+03 0.  0.
         23    2    4    4    0    0 -0.37082286970E+03  0.24226729488E+03 -0.99649725337E+02  0.46354623567E+03  0.93498673702E+02 0.  0.
         23    2    4    4    0    0  0.20744527788E+03 -0.97424752015E+01 -0.81381827026E+03  0.84478840257E+03  0.90767885034E+02 0.  0.
          3    1    3    3  502    0  0.11180459108E+03 -0.12900966959E+03 -0.83137431043E+02  0.18988310582E+03  0.00000000000E+00 0. -1.
         -4    1    3    3    0  502  0.51573000736E+02 -0.10351515009E+03  0.47786509532E+01  0.11574971364E+03  0.00000000000E+00 0.  1.
         11    1    5    5    0    0 -0.66822997813E+02  0.17134433657E+02 -0.42343537685E+02  0.80943665825E+02  0.00000000000E+00 0.  1.
        -11    1    5    5    0    0 -0.30399987189E+03  0.22513286122E+03 -0.57306187651E+02  0.38260256985E+03  0.00000000000E+00 0. -1.
          3    1    6    6  503    0  0.11891888702E+03 -0.50461880876E+02 -0.46927550816E+03  0.48673155401E+03  0.00000000000E+00 0. -1.
         -3    1    6    6    0  503  0.88526390861E+02  0.40719405674E+02 -0.34454276210E+03  0.35805684855E+03  0.00000000000E+00 0.  1.
<mgrwt>
<rscale>  0 0.12732520E+04</rscale>
<asrwt>0</asrwt>
<pdfrwt beam="1">  1        1 0.20044571E+00 0.12732520E+04</pdfrwt>
<pdfrwt beam="2">  1       -2 0.47856975E-01 0.12732520E+04</pdfrwt>
<totfact> 0.32158455E+01</totfact>
</mgrwt>
</event>
<event>
12    4  0.4320235E-008  0.2780027E+04  0.7818608E-02  0.8309496E-01
          1   -1    0    0  501    0  0.00000000000E+00  0.00000000000E+00  0.20962414323E+04  0.20962414323E+04  0.00000000000E+00 0. -1.
         -2   -1    0    0    0  501 -0.00000000000E+00 -0.00000000000E+00 -0.92171508830E+03  0.92171508830E+03  0.00000000000E+00 0.  1.
        -24    2    1    2    0    0 -0.71221240962E+03  0.98168014819E+03  0.82217319191E+03  0.14673705914E+04  0.79153429201E+02 0.  0.
        254    2    1    2    0    0  0.71221240962E+03 -0.98168014819E+03  0.35235315204E+03  0.15505859291E+04  0.89956742385E+03 0.  0.
         23    2    4    4    0    0  0.15660915653E+03 -0.29810977705E+03  0.54213876992E+03  0.64487943558E+03  0.92515801363E+02 0.  0.
         23    2    4    4    0    0  0.55560325309E+03 -0.68357037113E+03 -0.18978561788E+03  0.90570649353E+03  0.91226336893E+02 0.  0.
          1    1    3    3  502    0 -0.67692554094E+03  0.90012730526E+03  0.75358226637E+03  0.13551175542E+04  0.00000000000E+00 0. -1.
         -2    1    3    3    0  502 -0.35286868678E+02  0.81552842931E+02  0.68590925540E+02  0.11225303719E+03  0.00000000000E+00 0.  1.
         11    1    5    5    0    0 -0.10419497513E+02 -0.14716760710E+02  0.14687959193E+02  0.23256937018E+02  0.00000000000E+00 0.  1.
        -11    1    5    5    0    0  0.16702865404E+03 -0.28339301634E+03  0.52745081073E+03  0.62162249856E+03  0.00000000000E+00 0. -1.
          1    1    6    6  503    0  0.43121842745E+03 -0.52237676983E+03 -0.18444955317E+03  0.70203166560E+03  0.00000000000E+00 0. -1.
         -1    1    6    6    0  503  0.12438482564E+03 -0.16119360130E+03 -0.53360647055E+01  0.20367482794E+03  0.00000000000E+00 0.  1.
<mgrwt>
<rscale>  0 0.27800269E+04</rscale>
<asrwt>0</asrwt>
<pdfrwt beam="1">  1        1 0.32249868E+00 0.27800269E+04</pdfrwt>
<pdfrwt beam="2">  1       -2 0.14180232E+00 0.27800269E+04</pdfrwt>
<totfact> 0.67887559E-01</totfact>
</mgrwt>
</event>
<event>
12    4  0.4320235E-008  0.1454240E+04  0.7818608E-02  0.8915466E-01
          1   -1    0    0  501    0  0.00000000000E+00  0.00000000000E+00  0.68570908720E+03  0.68570908720E+03  0.00000000000E+00 0. -1.
         -2   -1    0    0    0  501 -0.00000000000E+00 -0.00000000000E+00 -0.77103158894E+03  0.77103158894E+03  0.00000000000E+00 0.  1.
        -24    2    1    2    0    0  0.37293653956E+03 -0.14149736474E+03 -0.21268252158E+03  0.45892291821E+03  0.79203681147E+02 0.  0.
        254    2    1    2    0    0 -0.37293653956E+03  0.14149736474E+03  0.12736001984E+03  0.99781775793E+03  0.90571327505E+03 0.  0.
         23    2    4    4    0    0 -0.62979938441E+03  0.13545915503E+03  0.25311981200E+03  0.69828575496E+03  0.92395395309E+02 0.  0.
         23    2    4    4    0    0  0.25686284485E+03  0.60382097148E+01 -0.12575979216E+03  0.29953200296E+03  0.88819561104E+02 0.  0.
          1    1    3    3  502    0  0.26754536698E+03 -0.82980771425E+02 -0.11133171302E+03  0.30143172053E+03  0.00000000000E+00 0. -1.
         -2    1    3    3    0  502  0.10539117258E+03 -0.58516593318E+02 -0.10135080856E+03  0.15749119768E+03  0.00000000000E+00 0.  1.
         11    1    5    5    0    0 -0.59315729377E+03  0.13511589241E+03  0.21452982128E+03  0.64506970457E+03  0.00000000000E+00 0.  1.
        -11    1    5    5    0    0 -0.36642090635E+02  0.34326262086E+00  0.38589990723E+02  0.53216050392E+02  0.00000000000E+00 0. -1.
          3    1    6    6  503    0  0.45898468164E+02  0.34626695685E+02 -0.14389311583E+02  0.59268285969E+02  0.00000000000E+00 0. -1.
         -3    1    6    6    0  503  0.21096437668E+03 -0.28588485970E+02 -0.11137048058E+03  0.24026371699E+03  0.00000000000E+00 0.  1.
<mgrwt>
<rscale>  0 0.14542398E+04</rscale>
<asrwt>0</asrwt>
<pdfrwt beam="1">  1        1 0.10549371E+00 0.14542398E+04</pdfrwt>
<pdfrwt beam="2">  1       -2 0.11862024E+00 0.14542398E+04</pdfrwt>
<totfact> 0.13055876E+01</totfact>
</mgrwt>
</event>
<event>
12    4  0.4320235E-008  0.1610115E+04  0.7818608E-02  0.8814358E-01
         -2   -1    0    0    0  501 -0.00000000000E+00  0.00000000000E+00  0.94777897632E+03  0.94777897632E+03  0.00000000000E+00 0.  1.
          1   -1    0    0  501    0  0.00000000000E+00 -0.00000000000E+00 -0.68382774731E+03  0.68382774731E+03  0.00000000000E+00 0. -1.
        -24    2    1    2    0    0  0.52902753305E+03 -0.14001475160E+03  0.89749015694E+02  0.56019296394E+03  0.79290665478E+02 0.  0.
        254    2    1    2    0    0 -0.52902753305E+03  0.14001475160E+03  0.17420221331E+03  0.10714137597E+04  0.90449254941E+03 0.  0.
         23    2    4    4    0    0 -0.44024968601E+02  0.52623904443E+02  0.47403210340E+03  0.48784433114E+03  0.92618481916E+02 0.  0.
         23    2    4    4    0    0 -0.48500256445E+03  0.87390847157E+02 -0.29982989009E+03  0.58356942856E+03  0.88264756640E+02 0.  0.
          3    1    3    3  502    0  0.29907954518E+03 -0.63981504463E+02  0.87019569145E+02  0.31798523971E+03  0.00000000000E+00 0. -1.
         -4    1    3    3    0  502  0.22994798787E+03 -0.76033247137E+02  0.27294465491E+01  0.24220772423E+03  0.00000000000E+00 0.  1.
         11    1    5    5    0    0  0.57715845735E+01  0.40008992941E+02  0.72231735177E+02  0.82773511894E+02  0.00000000000E+00 0.  1.
        -11    1    5    5    0    0 -0.49796553175E+02  0.12614911502E+02  0.40180036822E+03  0.40507081924E+03  0.00000000000E+00 0. -1.
          1    1    6    6  503    0 -0.26270139096E+03  0.58726140639E+01 -0.17708647142E+03  0.31686925816E+03  0.00000000000E+00 0. -1.
         -1    1    6    6    0  503 -0.22230117350E+03  0.81518233093E+02 -0.12274341867E+03  0.26670017040E+03  0.00000000000E+00 0.  1.
<mgrwt>
<rscale>  0 0.16101150E+04</rscale>
<asrwt>0</asrwt>
<pdfrwt beam="1">  1        1 0.10520427E+00 0.16101150E+04</pdfrwt>
<pdfrwt beam="2">  1       -2 0.14581215E+00 0.16101150E+04</pdfrwt>
<totfact> 0.76469491E+00</totfact>
</mgrwt>
</event>
<event>
12    4  0.4320235E-008  0.1494111E+04  0.7818608E-02  0.8888378E-01
         -2   -1    0    0    0  501 -0.00000000000E+00  0.00000000000E+00  0.53685094767E+03  0.53685094767E+03  0.00000000000E+00 0.  1.
          1   -1    0    0  501    0  0.00000000000E+00 -0.00000000000E+00 -0.10395664609E+04  0.10395664609E+04  0.00000000000E+00 0. -1.
        -24    2    1    2    0    0 -0.35262154867E+03 -0.28554139014E+03 -0.29924555205E+02  0.46046602234E+03  0.72509562512E+02 0.  0.
        254    2    1    2    0    0  0.35262154867E+03  0.28554139014E+03 -0.47279095807E+03  0.11159513863E+04  0.90329417382E+03 0.  0.
         23    2    4    4    0    0  0.56703179466E+02 -0.28682927912E+03  0.91294457372E+01  0.30611211126E+03  0.90194190277E+02 0.  0.
         23    2    4    4    0    0  0.29591836920E+03  0.57237066926E+03 -0.48192040381E+03  0.80983927502E+03  0.91741547304E+02 0.  0.
          3    1    3    3  502    0 -0.28541725918E+03 -0.24076024741E+03  0.25861271353E+01  0.37341022565E+03  0.00000000000E+00 0. -1.
         -4    1    3    3    0  502 -0.67204289489E+02 -0.44781142731E+02 -0.32510682340E+02  0.87055796684E+02  0.00000000000E+00 0.  1.
         11    1    5    5    0    0  0.57346716161E+02 -0.12422012212E+03 -0.27192436216E+02  0.13949449158E+03  0.00000000000E+00 0. -1.
        -11    1    5    5    0    0 -0.64353669522E+00 -0.16260915700E+03  0.36321881953E+02  0.16661761968E+03  0.00000000000E+00 0.  1.
          3    1    6    6  503    0  0.20408507221E+03  0.44175832935E+03 -0.31982420006E+03  0.58231319510E+03  0.00000000000E+00 0. -1.
         -3    1    6    6    0  503  0.91833296989E+02  0.13061233991E+03 -0.16209620375E+03  0.22752607992E+03  0.00000000000E+00 0.  1.
<mgrwt>
<rscale>  0 0.14941114E+04</rscale>
<asrwt>0</asrwt>
<pdfrwt beam="1">  1        1 0.15993330E+00 0.14941114E+04</pdfrwt>
<pdfrwt beam="2">  1       -2 0.82592455E-01 0.14941114E+04</pdfrwt>
<totfact> 0.15386346E+01</totfact>
</mgrwt>
</event>
<event>
12    4  0.4320235E-008  0.1641222E+04  0.7818608E-02  0.8795617E-01
         -2   -1    0    0    0  501 -0.00000000000E+00  0.00000000000E+00  0.57513016324E+03  0.57513016324E+03  0.00000000000E+00 0.  1.
          1   -1    0    0  501    0  0.00000000000E+00 -0.00000000000E+00 -0.11708693864E+04  0.11708693864E+04  0.00000000000E+00 0. -1.
        -24    2    1    2    0    0 -0.57268936602E+02 -0.44839031466E+03 -0.57890721366E+03  0.73894660234E+03  0.81085841552E+02 0.  0.
        254    2    1    2    0    0  0.57268936602E+02  0.44839031466E+03 -0.16832009531E+02  0.10070529473E+04  0.89974369506E+03 0.  0.
         23    2    4    4    0    0 -0.67209406185E+01 -0.25059475531E+03 -0.11704399940E+03  0.29151404936E+03  0.91859897408E+02 0.  0.
         23    2    4    4    0    0  0.63989877221E+02  0.69898506997E+03  0.10021198987E+03  0.71553889797E+03  0.96325693153E+02 0.  0.
          1    1    3    3  502    0 -0.41308404933E+02 -0.43218161911E+03 -0.53084053061E+03  0.68576891527E+03  0.00000000000E+00 0. -1.
         -2    1    3    3    0  502 -0.15960531670E+02 -0.16208695558E+02 -0.48066683054E+02  0.53177687075E+02  0.00000000000E+00 0.  1.
         11    1    5    5    0    0  0.31896199366E+02 -0.42766527946E+02 -0.39388307711E+02  0.66315776636E+02  0.00000000000E+00 0.  1.
        -11    1    5    5    0    0 -0.38617139984E+02 -0.20782822736E+03 -0.77655691687E+02  0.22519827273E+03  0.00000000000E+00 0. -1.
          2    1    6    6  503    0  0.34647595155E+02  0.63087485515E+03  0.10792586396E+03  0.64097701271E+03  0.00000000000E+00 0. -1.
         -2    1    6    6    0  503  0.29342282066E+02  0.68110214819E+02 -0.77138740879E+01  0.74561885256E+02  0.00000000000E+00 0.  1.
<mgrwt>
<rscale>  0 0.16412219E+04</rscale>
<asrwt>0</asrwt>
<pdfrwt beam="1">  1        1 0.18013375E+00 0.16412219E+04</pdfrwt>
<pdfrwt beam="2">  1       -2 0.88481565E-01 0.16412219E+04</pdfrwt>
<totfact> 0.10347982E+01</totfact>
</mgrwt>
</event>
<event>
12    4  0.4320235E-008  0.1440615E+04  0.7818608E-02  0.8924933E-01
         -2   -1    0    0    0  501 -0.00000000000E+00  0.00000000000E+00  0.39027112331E+03  0.39027112331E+03  0.00000000000E+00 0.  1.
          1   -1    0    0  501    0  0.00000000000E+00 -0.00000000000E+00 -0.13294415108E+04  0.13294415108E+04  0.00000000000E+00 0. -1.
        -24    2    1    2    0    0  0.41899585288E+03  0.10842756384E+03 -0.30140041671E+03  0.53354046836E+03  0.80679358329E+02 0.  0.
        254    2    1    2    0    0 -0.41899585288E+03 -0.10842756384E+03 -0.63776997074E+03  0.11861721657E+04  0.90163174844E+03 0.  0.
         23    2    4    4    0    0  0.13444575828E+03 -0.33765164734E+03 -0.36077476072E+03  0.52013725705E+03  0.91104562622E+02 0.  0.
         23    2    4    4    0    0 -0.55344161116E+03  0.22922408350E+03 -0.27699521002E+03  0.66603490865E+03  0.89637356920E+02 0.  0.
          1    1    3    3  502    0  0.45251985958E+02  0.31593183327E+02 -0.17326852442E+02  0.57845408474E+02  0.00000000000E+00 0. -1.
         -2    1    3    3    0  502  0.37374386692E+03  0.76834380513E+02 -0.28407356426E+03  0.47569505989E+03  0.00000000000E+00 0.  1.
         11    1    5    5    0    0  0.16396175681E+02 -0.30976117013E+02 -0.82113454943E+02  0.89280310734E+02  0.00000000000E+00 0.  1.
        -11    1    5    5    0    0  0.11804958260E+03 -0.30667553033E+03 -0.27866130578E+03  0.43085694632E+03  0.00000000000E+00 0. -1.
          2    1    6    6  503    0 -0.51365184226E+03  0.20858128326E+03 -0.22747740842E+03  0.59924146896E+03  0.00000000000E+00 0. -1.
         -2    1    6    6    0  503 -0.39789768899E+02  0.20642800236E+02 -0.49517801598E+02  0.66793439690E+02  0.00000000000E+00 0.  1.
<mgrwt>
<rscale>  0 0.14406146E+04</rscale>
<asrwt>0</asrwt>
<pdfrwt beam="1">  1        1 0.20452946E+00 0.14406146E+04</pdfrwt>
<pdfrwt beam="2">  1       -2 0.60041712E-01 0.14406146E+04</pdfrwt>
<totfact> 0.19003404E+01</totfact>
</mgrwt>
</event>
<event>
12    4  0.4320235E-008  0.1068723E+04  0.7818608E-02  0.9236225E-01
          1   -1    0    0  501    0  0.00000000000E+00  0.00000000000E+00  0.50045160959E+03  0.50045160959E+03  0.00000000000E+00 0. -1.
         -2   -1    0    0    0  501 -0.00000000000E+00 -0.00000000000E+00 -0.57056881323E+03  0.57056881323E+03  0.00000000000E+00 0.  1.
        -24    2    1    2    0    0 -0.75348146548E+02  0.12224506798E+03 -0.26525710294E+02  0.16661564670E+03  0.80224438826E+02 0.  0.
        254    2    1    2    0    0  0.75348146548E+02 -0.12224506798E+03 -0.43591493344E+02  0.90440477612E+03  0.89186690764E+03 0.  0.
         23    2    4    4    0    0  0.31061417512E+03 -0.37557835795E+03 -0.17214129046E+03  0.52468843989E+03  0.90139149832E+02 0.  0.
         23    2    4    4    0    0 -0.23526602857E+03  0.25333328997E+03  0.12854979712E+03  0.37971633623E+03  0.90175305114E+02 0.  0.
          1    1    3    3  502    0 -0.34427423170E+02  0.50074721362E+02  0.28441711874E+02  0.67094382477E+02  0.00000000000E+00 0. -1.
         -2    1    3    3    0  502 -0.40920723378E+02  0.72170346615E+02 -0.54967422168E+02  0.99521264220E+02  0.00000000000E+00 0.  1.
         11    1    5    5    0    0  0.21753610636E+03 -0.30410468066E+03 -0.10041128889E+03  0.38714860365E+03  0.00000000000E+00 0. -1.
        -11    1    5    5    0    0  0.93078068757E+02 -0.71473677288E+02 -0.71730001577E+02  0.13753983625E+03  0.00000000000E+00 0.  1.
          1    1    6    6  503    0 -0.17034419788E+03  0.23301904763E+03  0.11272518006E+03  0.30987414950E+03  0.00000000000E+00 0. -1.
         -1    1    6    6    0  503 -0.64921830685E+02  0.20314242343E+02  0.15824617057E+02  0.69842186724E+02  0.00000000000E+00 0.  1.
<mgrwt>
<rscale>  0 0.10687228E+04</rscale>
<asrwt>0</asrwt>
<pdfrwt beam="1">  1        1 0.76992555E-01 0.10687228E+04</pdfrwt>
<pdfrwt beam="2">  1       -2 0.87779817E-01 0.10687228E+04</pdfrwt>
<totfact> 0.43287468E+01</totfact>
</mgrwt>
</event>
<event>
12    4  0.4320235E-008  0.2057030E+04  0.7818608E-02  0.8580412E-01
         -4   -1    0    0    0  501 -0.00000000000E+00  0.00000000000E+00  0.15720176115E+04  0.15720176115E+04  0.00000000000E+00 0.  1.
          3   -1    0    0  501    0  0.00000000000E+00 -0.00000000000E+00 -0.67292082227E+03  0.67292082227E+03  0.00000000000E+00 0. -1.
        -24    2    1    2    0    0  0.82626186304E+03  0.73048701179E+02  0.36518901855E+03  0.90981394058E+03  0.79709523478E+02 0.  0.
        254    2    1    2    0    0 -0.82626186304E+03 -0.73048701179E+02  0.53390777072E+03  0.13351244932E+04  0.89969724115E+03 0.  0.
         23    2    4    4    0    0 -0.20293171954E+03 -0.43099067098E+03  0.11670149467E+03  0.49896740205E+03  0.91733244706E+02 0.  0.
         23    2    4    4    0    0 -0.62333014350E+03  0.35794196980E+03  0.41720627605E+03  0.83615709118E+03  0.91840529275E+02 0.  0.
          1    1    3    3  502    0  0.20235997485E+03  0.36086230230E+02  0.12294125591E+03  0.23951268826E+03  0.00000000000E+00 0. -1.
         -2    1    3    3    0  502  0.62390188820E+03  0.36962470949E+02  0.24224776264E+03  0.67030125232E+03  0.00000000000E+00 0.  1.
         11    1    5    5    0    0 -0.55024870759E+02 -0.16848570507E+03  0.83216718225E+02  0.19580651523E+03  0.00000000000E+00 0.  1.
        -11    1    5    5    0    0 -0.14790684878E+03 -0.26250496591E+03  0.33484776447E+02  0.30316088682E+03  0.00000000000E+00 0. -1.
          1    1    6    6  503    0 -0.53067186256E+03  0.31340594550E+03  0.39164829164E+03  0.73022208727E+03  0.00000000000E+00 0. -1.
         -1    1    6    6    0  503 -0.92658280945E+02  0.44536024298E+02  0.25557984411E+02  0.10593500392E+03  0.00000000000E+00 0.  1.
<mgrwt>
<rscale>  0 0.20570303E+04</rscale>
<asrwt>0</asrwt>
<pdfrwt beam="1">  1        3 0.10352628E+00 0.20570303E+04</pdfrwt>
<pdfrwt beam="2">  1       -4 0.24184886E+00 0.20570303E+04</pdfrwt>
<totfact> 0.12090324E-01</totfact>
</mgrwt>
</event>
<event>
12    4  0.4320235E-008  0.1279904E+04  0.7818608E-02  0.9045655E-01
          1   -1    0    0  501    0  0.00000000000E+00  0.00000000000E+00  0.23010610539E+04  0.23010610539E+04  0.00000000000E+00 0. -1.
         -2   -1    0    0    0  501 -0.00000000000E+00 -0.00000000000E+00 -0.17797804038E+03  0.17797804038E+03  0.00000000000E+00 0.  1.
        -24    2    1    2    0    0  0.12864985675E+03  0.11795919236E+03  0.22546827827E+02  0.19281205966E+03  0.78758962656E+02 0.  0.
        254    2    1    2    0    0 -0.12864985675E+03 -0.11795919236E+03  0.21005361857E+04  0.22862270346E+04  0.88550360233E+03 0.  0.
         23    2    4    4    0    0 -0.31261388721E+03 -0.46396824910E+02  0.22564728132E+03  0.39885258731E+03  0.91030670639E+02 0.  0.
         23    2    4    4    0    0  0.18396403045E+03 -0.71562367452E+02  0.18748889044E+04  0.18873744473E+04  0.89498400710E+02 0.  0.
          1    1    3    3  502    0 -0.25629037332E+01  0.25177082666E+02  0.19722416101E+02  0.32084695167E+02  0.00000000000E+00 0. -1.
         -2    1    3    3    0  502  0.13121276049E+03  0.92782109697E+02  0.28244117260E+01  0.16072736449E+03  0.00000000000E+00 0.  1.
         11    1    5    5    0    0 -0.11608164646E+03  0.23438233246E+01  0.13188880129E+03  0.17571311294E+03  0.00000000000E+00 0.  1.
        -11    1    5    5    0    0 -0.19653224075E+03 -0.48740648235E+02  0.93758480030E+02  0.22313947437E+03  0.00000000000E+00 0. -1.
          2    1    6    6  503    0  0.17879231069E+03 -0.41041003539E+02  0.16880784941E+04  0.16980165066E+04  0.00000000000E+00 0. -1.
         -2    1    6    6    0  503  0.51717197619E+01 -0.30521363913E+02  0.18681041023E+03  0.18935794071E+03  0.00000000000E+00 0.  1.
<mgrwt>
<rscale>  0 0.12799036E+04</rscale>
<asrwt>0</asrwt>
<pdfrwt beam="1">  1        1 0.35400937E+00 0.12799036E+04</pdfrwt>
<pdfrwt beam="2">  1       -2 0.27381239E-01 0.12799036E+04</pdfrwt>
<totfact> 0.19562766E+01</totfact>
</mgrwt>
</event>
<event>
12    4  0.4320235E-008  0.1306908E+04  0.7818608E-02  0.9024105E-01
          1   -1    0    0  501    0  0.00000000000E+00  0.00000000000E+00  0.35281330381E+04  0.35281330381E+04  0.00000000000E+00 0. -1.
         -2   -1    0    0    0  501 -0.00000000000E+00 -0.00000000000E+00 -0.12102780189E+03  0.12102780189E+03  0.00000000000E+00 0.  1.
        -24    2    1    2    0    0 -0.75810249623E+02  0.21843303229E+02  0.18551114147E+04  0.18585520989E+04  0.80951957889E+02 0.  0.
        254    2    1    2    0    0  0.75810249623E+02 -0.21843303229E+02  0.15519938216E+04  0.17906087411E+04  0.88959008420E+03 0.  0.
         23    2    4    4    0    0 -0.89096945499E+02  0.21431571000E+03  0.39165622565E+02  0.24821188174E+03  0.78776284455E+02 0.  0.
         23    2    4    4    0    0  0.16490719512E+03 -0.23615901323E+03  0.15128281990E+04  0.15423968594E+04  0.85868793769E+02 0.  0.
          3    1    3    3  502    0 -0.47747024580E+02 -0.17240586732E+02  0.13967499204E+04  0.13976721204E+04  0.00000000000E+00 0. -1.
         -4    1    3    3    0  502 -0.28063225044E+02  0.39083889960E+02  0.45836149429E+03  0.46087997842E+03  0.00000000000E+00 0.  1.
         11    1    5    5    0    0 -0.60351796863E+01  0.94749873173E+02  0.38962891781E+02  0.10262586807E+03  0.00000000000E+00 0.  1.
        -11    1    5    5    0    0 -0.83061765812E+02  0.11956583683E+03  0.20273078396E+00  0.14558601367E+03  0.00000000000E+00 0. -1.
          2    1    6    6  503    0  0.81026702001E+02 -0.90473438986E+02  0.84755498561E+03  0.85621272079E+03  0.00000000000E+00 0. -1.
         -2    1    6    6    0  503  0.83880493121E+02 -0.14568557425E+03  0.66527321337E+03  0.68618413862E+03  0.00000000000E+00 0.  1.
<mgrwt>
<rscale>  0 0.13069081E+04</rscale>
<asrwt>0</asrwt>
<pdfrwt beam="1">  1        1 0.54278962E+00 0.13069081E+04</pdfrwt>
<pdfrwt beam="2">  1       -2 0.18619664E-01 0.13069081E+04</pdfrwt>
<totfact> 0.50500970E+00</totfact>
</mgrwt>
</event>
<event>
12    4  0.4320235E-008  0.2435362E+04  0.7818608E-02  0.8426382E-01
         -2   -1    0    0    0  501 -0.00000000000E+00  0.00000000000E+00  0.12145546789E+04  0.12145546789E+04  0.00000000000E+00 0.  1.
          1   -1    0    0  501    0  0.00000000000E+00 -0.00000000000E+00 -0.12208151052E+04  0.12208151052E+04  0.00000000000E+00 0. -1.
        -24    2    1    2    0    0  0.68678654773E+03  0.55742735319E+02  0.78947975858E+03  0.10508755855E+04  0.79235045274E+02 0.  0.
        254    2    1    2    0    0 -0.68678654773E+03 -0.55742735319E+02 -0.79574018489E+03  0.13844941986E+04  0.89935461828E+03 0.  0.
         23    2    4    4    0    0 -0.74065495275E+03 -0.11311379273E+03 -0.93421801473E+03  0.12008373054E+04  0.88783139849E+02 0.  0.
         23    2    4    4    0    0  0.53868405023E+02  0.57371057411E+02  0.13847782984E+03  0.18365689317E+03  0.91435779446E+02 0.  0.
          1    1    3    3  502    0  0.20476469328E+03  0.38005629517E+01  0.18490762622E+03  0.27592363821E+03  0.00000000000E+00 0. -1.
         -2    1    3    3    0  502  0.48202185445E+03  0.51942172367E+02  0.60457213236E+03  0.77495194733E+03  0.00000000000E+00 0.  1.
         11    1    5    5    0    0 -0.98535239495E+02 -0.36500174012E+02 -0.97473706124E+02  0.14332682760E+03  0.00000000000E+00 0. -1.
        -11    1    5    5    0    0 -0.64211971325E+03 -0.76613618718E+02 -0.83674430861E+03  0.10575104778E+04  0.00000000000E+00 0.  1.
          4    1    6    6  503    0  0.49356861240E+02 -0.15770213066E+01  0.24202144421E+02  0.54993913684E+02  0.00000000000E+00 0. -1.
         -4    1    6    6    0  503  0.45115437833E+01  0.58948078718E+02  0.11427568542E+03  0.12866297949E+03  0.00000000000E+00 0.  1.
<mgrwt>
<rscale>  0 0.24353617E+04</rscale>
<asrwt>0</asrwt>
<pdfrwt beam="1">  1        1 0.18781771E+00 0.24353617E+04</pdfrwt>
<pdfrwt beam="2">  1       -2 0.18685457E+00 0.24353617E+04</pdfrwt>
<totfact> 0.13164566E+00</totfact>
</mgrwt>
</event>
<event>
12    4  0.4320235E-008  0.1339103E+04  0.7818608E-02  0.8999118E-01
          1   -1    0    0  501    0  0.00000000000E+00  0.00000000000E+00  0.20857933798E+04  0.20857933798E+04  0.00000000000E+00 0. -1.
         -2   -1    0    0    0  501 -0.00000000000E+00 -0.00000000000E+00 -0.21492991611E+03  0.21492991611E+03  0.00000000000E+00 0.  1.
        -24    2    1    2    0    0  0.89736128722E+01 -0.10370106016E+03  0.11015985371E+04  0.11088642549E+04  0.72292206996E+02 0.  0.
        254    2    1    2    0    0 -0.89736128722E+01  0.10370106016E+03  0.76926492659E+03  0.11918590410E+04  0.90439206697E+03 0.  0.
         23    2    4    4    0    0 -0.18414924871E+03  0.33760046820E+03  0.34928203227E+02  0.39652262727E+03  0.90139850365E+02 0.  0.
         23    2    4    4    0    0  0.17517563584E+03 -0.23389940805E+03  0.73433672337E+03  0.79533641377E+03  0.88961515862E+02 0.  0.
          1    1    3    3  502    0  0.37402368886E+00 -0.33118296690E+02  0.71593620838E+03  0.71670190173E+03  0.00000000000E+00 0. -1.
         -2    1    3    3    0  502  0.85995891833E+01 -0.70582763467E+02  0.38566232873E+03  0.39216235316E+03  0.00000000000E+00 0.  1.
         11    1    5    5    0    0 -0.63508507677E+02  0.13423034882E+03  0.56942539156E+02  0.15903952294E+03  0.00000000000E+00 0. -1.
        -11    1    5    5    0    0 -0.12064074103E+03  0.20337011938E+03 -0.22014335929E+02  0.23748310432E+03  0.00000000000E+00 0.  1.
          1    1    6    6  503    0  0.44922534857E+02 -0.90398518819E+02  0.15998529422E+03  0.18916981976E+03  0.00000000000E+00 0. -1.
         -1    1    6    6    0  503  0.13025310098E+03 -0.14350088923E+03  0.57435142915E+03  0.60616659400E+03  0.00000000000E+00 0.  1.
<mgrwt>
<rscale>  0 0.13391033E+04</rscale>
<asrwt>0</asrwt>
<pdfrwt beam="1">  1        1 0.32089128E+00 0.13391033E+04</pdfrwt>
<pdfrwt beam="2">  1       -2 0.33066142E-01 0.13391033E+04</pdfrwt>
<totfact> 0.19162369E+01</totfact>
</mgrwt>
</event>
<event>
12    4  0.4320235E-008  0.4605041E+04  0.7818608E-02  0.7892501E-01
          1   -1    0    0  501    0  0.00000000000E+00  0.00000000000E+00  0.12448213873E+04  0.12448213873E+04  0.00000000000E+00 0. -1.
         -2   -1    0    0    0  501 -0.00000000000E+00 -0.00000000000E+00 -0.42589256398E+04  0.42589256398E+04  0.00000000000E+00 0.  1.
        -24    2    1    2    0    0  0.71291798089E+03 -0.55972197126E+03 -0.38634556526E+04  0.39690853513E+04  0.76211634211E+02 0.  0.
        254    2    1    2    0    0 -0.71291798089E+03  0.55972197126E+03  0.84935140013E+03  0.15346616759E+04  0.90124798247E+03 0.  0.
         23    2    4    4    0    0  0.66733268292E+02 -0.17188327047E+03  0.12252921038E+03  0.23882127621E+03  0.89582402362E+02 0.  0.
         23    2    4    4    0    0 -0.77965124918E+03  0.73160524173E+03  0.72682218976E+03  0.12958403997E+04  0.88484720703E+02 0.  0.
          1    1    3    3  502    0  0.23533068509E+03 -0.15018469390E+03 -0.12867783142E+04  0.13167134858E+04  0.00000000000E+00 0. -1.
         -2    1    3    3    0  502  0.47758729579E+03 -0.40953727735E+03 -0.25766773384E+04  0.26523718655E+04  0.00000000000E+00 0.  1.
         11    1    5    5    0    0  0.20063440786E+02 -0.13565570522E+03  0.51620795557E+02  0.14652548771E+03  0.00000000000E+00 0.  1.
        -11    1    5    5    0    0  0.46669827506E+02 -0.36227565249E+02  0.70908414818E+02  0.92295788502E+02  0.00000000000E+00 0. -1.
          1    1    6    6  503    0 -0.13011180101E+01 -0.22510418114E+01  0.40207205230E+01  0.47881406451E+01  0.00000000000E+00 0. -1.
         -1    1    6    6    0  503 -0.77835013117E+03  0.73385628354E+03  0.72280146924E+03  0.12910522590E+04  0.00000000000E+00 0.  1.
<mgrwt>
<rscale>  0 0.46050415E+04</rscale>
<asrwt>0</asrwt>
<pdfrwt beam="1">  1        1 0.19151098E+00 0.46050415E+04</pdfrwt>
<pdfrwt beam="2">  1       -2 0.65521933E+00 0.46050415E+04</pdfrwt>
<totfact> 0.21021835E-03</totfact>
</mgrwt>
</event>
<event>
12    4  0.4320235E-008  0.1479426E+04  0.7818608E-02  0.8898251E-01
          1   -1    0    0  501    0  0.00000000000E+00  0.00000000000E+00  0.26758931477E+04  0.26758931477E+04  0.00000000000E+00 0. -1.
         -2   -1    0    0    0  501 -0.00000000000E+00 -0.00000000000E+00 -0.20448334161E+03  0.20448334161E+03  0.00000000000E+00 0.  1.
        -24    2    1    2    0    0  0.15342964942E+03  0.36462574509E+03  0.32096966464E+03  0.51554069530E+03  0.79171280093E+02 0.  0.
        254    2    1    2    0    0 -0.15342964942E+03 -0.36462574509E+03  0.21504401414E+04  0.23648357940E+04  0.90086788120E+03 0.  0.
         23    2    4    4    0    0 -0.20296780986E+03 -0.82615478414E+02  0.20256654928E+04  0.20394854092E+04  0.90326057647E+02 0.  0.
         23    2    4    4    0    0  0.49538160440E+02 -0.28201026667E+03  0.12477464863E+03  0.32535038475E+03  0.91106202131E+02 0.  0.
          3    1    3    3  502    0  0.12435539485E+02  0.26746512983E+02  0.13316661836E+01  0.29526122906E+02  0.00000000000E+00 0. -1.
         -4    1    3    3    0  502  0.14099410993E+03  0.33787923210E+03  0.31963799846E+03  0.48601457240E+03  0.00000000000E+00 0.  1.
         11    1    5    5    0    0 -0.32481664610E+02 -0.31134347947E+02  0.76265575931E+03  0.76398181482E+03  0.00000000000E+00 0. -1.
        -11    1    5    5    0    0 -0.17048614524E+03 -0.51481130467E+02  0.12630097335E+04  0.12755035944E+04  0.00000000000E+00 0.  1.
          3    1    6    6  503    0  0.23770081401E+00 -0.17174456421E+03  0.36069270936E+02  0.17549143610E+03  0.00000000000E+00 0. -1.
         -3    1    6    6    0  503  0.49300459626E+02 -0.11026570246E+03  0.88705377699E+02  0.14985894865E+03  0.00000000000E+00 0.  1.
<mgrwt>
<rscale>  0 0.14794263E+04</rscale>
<asrwt>0</asrwt>
<pdfrwt beam="1">  1        1 0.41167584E+00 0.14794263E+04</pdfrwt>
<pdfrwt beam="2">  1       -2 0.31458978E-01 0.14794263E+04</pdfrwt>
<totfact> 0.81778326E+00</totfact>
</mgrwt>
</event>
<event>
12    4  0.4320235E-008  0.1462809E+04  0.7818608E-02  0.8909568E-01
         -2   -1    0    0    0  501 -0.00000000000E+00  0.00000000000E+00  0.26606335567E+03  0.26606335567E+03  0.00000000000E+00 0.  1.
          1   -1    0    0  501    0  0.00000000000E+00 -0.00000000000E+00 -0.20106220725E+04  0.20106220725E+04  0.00000000000E+00 0. -1.
        -24    2    1    2    0    0 -0.17839683454E+03 -0.18485175823E+03 -0.10919880164E+04  0.11246296447E+04  0.79739617276E+02 0.  0.
        254    2    1    2    0    0  0.17839683454E+03  0.18485175823E+03 -0.65257070036E+03  0.11520557835E+04  0.91399584580E+03 0.  0.
         23    2    4    4    0    0  0.87480993727E+02  0.42719507900E+03 -0.23091516467E+01  0.44596511299E+03  0.93439766900E+02 0.  0.
         23    2    4    4    0    0  0.90915840811E+02 -0.24234332077E+03 -0.65026154871E+03  0.70609067047E+03  0.93423647707E+02 0.  0.
          3    1    3    3  502    0 -0.13893869789E+03 -0.17780211128E+03 -0.98123741343E+03  0.10068487543E+04  0.00000000000E+00 0. -1.
         -4    1    3    3    0  502 -0.39458136647E+02 -0.70496469454E+01 -0.11075060301E+03  0.11778089038E+03  0.00000000000E+00 0.  1.
         11    1    5    5    0    0  0.90876908169E+02  0.22051690088E+03  0.11609956015E+02  0.23879092757E+03  0.00000000000E+00 0. -1.
        -11    1    5    5    0    0 -0.33959144416E+01  0.20667817812E+03 -0.13919107661E+02  0.20717418542E+03  0.00000000000E+00 0.  1.
          4    1    6    6  503    0  0.95486826314E+01 -0.12094865097E+03 -0.37929758947E+03  0.39822909850E+03  0.00000000000E+00 0. -1.
         -4    1    6    6    0  503  0.81367158180E+02 -0.12139466980E+03 -0.27096395924E+03  0.30786157197E+03  0.00000000000E+00 0.  1.
<mgrwt>
<rscale>  0 0.14628094E+04</rscale>
<asrwt>0</asrwt>
<pdfrwt beam="1">  1        1 0.30932646E+00 0.14628094E+04</pdfrwt>
<pdfrwt beam="2">  1       -2 0.40932825E-01 0.14628094E+04</pdfrwt>
<totfact> 0.14121724E+01</totfact>
</mgrwt>
</event>
<event>
12    4  0.4320235E-008  0.1998094E+04  0.7818608E-02  0.8607512E-01
         -2   -1    0    0    0  501 -0.00000000000E+00  0.00000000000E+00  0.59781973426E+03  0.59781973426E+03  0.00000000000E+00 0.  1.
          1   -1    0    0  501    0  0.00000000000E+00 -0.00000000000E+00 -0.16695576558E+04  0.16695576558E+04  0.00000000000E+00 0. -1.
        -24    2    1    2    0    0 -0.54893764546E+02 -0.24931954473E+02  0.46853067115E+03  0.47936254513E+03  0.81440359346E+02 0.  0.
        254    2    1    2    0    0  0.54893764546E+02  0.24931954473E+02 -0.15402685927E+04  0.17880148449E+04  0.90605453496E+03 0.  0.
         23    2    4    4    0    0  0.23641572249E+03 -0.34599606892E+03 -0.10795538052E+04  0.11615889401E+04  0.90811749114E+02 0.  0.
         23    2    4    4    0    0 -0.18152195794E+03  0.37092802339E+03 -0.46071478747E+03  0.62642590486E+03  0.98048351002E+02 0.  0.
          3    1    3    3  502    0 -0.34484431012E+02 -0.30127509629E+02  0.97318043631E+02  0.10755298431E+03  0.00000000000E+00 0. -1.
         -4    1    3    3    0  502 -0.20409333534E+02  0.51955551559E+01  0.37121262752E+03  0.37180956082E+03  0.00000000000E+00 0.  1.
         11    1    5    5    0    0  0.16334931871E+03 -0.29918772445E+03 -0.82486556803E+03  0.89252422920E+03  0.00000000000E+00 0. -1.
        -11    1    5    5    0    0  0.73066403780E+02 -0.46808344474E+02 -0.25468823718E+03  0.26906471087E+03  0.00000000000E+00 0.  1.
          1    1    6    6  503    0 -0.37474944066E+02  0.18744163428E+03 -0.21030034957E+03  0.28419179215E+03  0.00000000000E+00 0. -1.
         -1    1    6    6    0  503 -0.14404701388E+03  0.18348638911E+03 -0.25041443790E+03  0.34223411271E+03  0.00000000000E+00 0.  1.
<mgrwt>
<rscale>  0 0.19980936E+04</rscale>
<asrwt>0</asrwt>
<pdfrwt beam="1">  1        1 0.25685502E+00 0.19980936E+04</pdfrwt>
<pdfrwt beam="2">  1       -2 0.91972268E-01 0.19980936E+04</pdfrwt>
<totfact> 0.40931663E+00</totfact>
</mgrwt>
</event>
<event>
12    4  0.4320235E-008  0.2531926E+04  0.7818608E-02  0.8391699E-01
         -2   -1    0    0    0  501 -0.00000000000E+00  0.00000000000E+00  0.15792187523E+04  0.15792187523E+04  0.00000000000E+00 0.  1.
          1   -1    0    0  501    0  0.00000000000E+00 -0.00000000000E+00 -0.10148452803E+04  0.10148452803E+04  0.00000000000E+00 0. -1.
        -24    2    1    2    0    0  0.21151099976E+03 -0.12517048110E+03 -0.85808446693E+03  0.89595507806E+03  0.77601528081E+02 0.  0.
        254    2    1    2    0    0 -0.21151099976E+03  0.12517048110E+03  0.14224579389E+04  0.16981089545E+04  0.89430580966E+03 0.  0.
         23    2    4    4    0    0  0.31734548197E+03 -0.76611937858E+02  0.67817474351E+03  0.75848191339E+03  0.93788518766E+02 0.  0.
         23    2    4    4    0    0 -0.52885648173E+03  0.20178241896E+03  0.74428319536E+03  0.93962704113E+03  0.92391442544E+02 0.  0.
          1    1    3    3  502    0  0.70627346551E+02 -0.54491466656E+02 -0.19564579293E+03  0.21502283207E+03  0.00000000000E+00 0. -1.
         -2    1    3    3    0  502  0.14088365321E+03 -0.70679014443E+02 -0.66243867400E+03  0.68093224599E+03  0.00000000000E+00 0.  1.
         11    1    5    5    0    0  0.31243575654E+03 -0.54670625221E+02  0.63358498473E+03  0.70854422029E+03  0.00000000000E+00 0. -1.
        -11    1    5    5    0    0  0.49097254261E+01 -0.21941312637E+02  0.44589758779E+02  0.49937693098E+02  0.00000000000E+00 0.  1.
          3    1    6    6  503    0 -0.17198480545E+03  0.22629406435E+02  0.20369537743E+03  0.26754937886E+03  0.00000000000E+00 0. -1.
         -3    1    6    6    0  503 -0.35687167628E+03  0.17915301252E+03  0.54058781793E+03  0.67207766227E+03  0.00000000000E+00 0.  1.
<mgrwt>
<rscale>  0 0.25319263E+04</rscale>
<asrwt>0</asrwt>
<pdfrwt beam="1">  1        1 0.15613004E+00 0.25319263E+04</pdfrwt>
<pdfrwt beam="2">  1       -2 0.24295673E+00 0.25319263E+04</pdfrwt>
<totfact> 0.81301263E-01</totfact>
</mgrwt>
</event>
<event>
12    4  0.4320235E-008  0.1231881E+04  0.7818608E-02  0.9085400E-01
          1   -1    0    0  501    0  0.00000000000E+00  0.00000000000E+00  0.71915787887E+03  0.71915787887E+03  0.00000000000E+00 0. -1.
         -2   -1    0    0    0  501 -0.00000000000E+00 -0.00000000000E+00 -0.52753701514E+03  0.52753701514E+03  0.00000000000E+00 0.  1.
        -24    2    1    2    0    0 -0.20454957312E+03 -0.46327280839E+02 -0.14552174425E+03  0.26743757295E+03  0.79746677447E+02 0.  0.
        254    2    1    2    0    0  0.20454957312E+03  0.46327280839E+02  0.33714260799E+03  0.97925732105E+03  0.89514971815E+03 0.  0.
         23    2    4    4    0    0  0.13191016529E+03 -0.17373015882E+03 -0.24863578139E+03  0.34280033692E+03  0.90054757879E+02 0.  0.
         23    2    4    4    0    0  0.72639407828E+02  0.22005743966E+03  0.58577838937E+03  0.63645698413E+03  0.90771200724E+02 0.  0.
          1    1    3    3  502    0 -0.30763632401E+02  0.21702133463E+02 -0.21417204146E+02  0.43313742725E+02  0.00000000000E+00 0. -1.
         -2    1    3    3    0  502 -0.17378594072E+03 -0.68029414303E+02 -0.12410454011E+03  0.22412383023E+03  0.00000000000E+00 0.  1.
         11    1    5    5    0    0  0.12567836615E+03 -0.17295939040E+03 -0.19680133792E+03  0.29058693888E+03  0.00000000000E+00 0. -1.
        -11    1    5    5    0    0  0.62317991427E+01 -0.77076841941E+00 -0.51834443471E+02  0.52213398035E+02  0.00000000000E+00 0.  1.
          1    1    6    6  503    0  0.90895534573E+02  0.20069302163E+03  0.49410118747E+03  0.54099507446E+03  0.00000000000E+00 0. -1.
         -1    1    6    6    0  503 -0.18256126745E+02  0.19364418028E+02  0.91677201903E+02  0.95461909671E+02  0.00000000000E+00 0.  1.
<mgrwt>
<rscale>  0 0.12318805E+04</rscale>
<asrwt>0</asrwt>
<pdfrwt beam="1">  1        1 0.11063967E+00 0.12318805E+04</pdfrwt>
<pdfrwt beam="2">  1       -2 0.81159541E-01 0.12318805E+04</pdfrwt>
<totfact> 0.30259293E+01</totfact>
</mgrwt>
</event>
<event>
12    4  0.4320235E-008  0.2984800E+04  0.7818608E-02  0.8248085E-01
          1   -1    0    0  501    0  0.00000000000E+00  0.00000000000E+00  0.21977933741E+04  0.21977933741E+04  0.00000000000E+00 0. -1.
         -2   -1    0    0    0  501 -0.00000000000E+00 -0.00000000000E+00 -0.10134065981E+04  0.10134065981E+04  0.00000000000E+00 0.  1.
        -24    2    1    2    0    0 -0.14654903002E+03 -0.89792962256E+03 -0.54319568835E+03  0.10627938541E+04  0.81945074003E+02 0.  0.
        254    2    1    2    0    0  0.14654903002E+03  0.89792962256E+03  0.17275824643E+04  0.21484061181E+04  0.89629986711E+03 0.  0.
         23    2    4    4    0    0  0.17266720022E+03  0.41491187547E+03  0.15624616997E+04  0.16285978184E+04  0.95280977347E+02 0.  0.
         23    2    4    4    0    0 -0.26118170196E+02  0.48301774709E+03  0.16512076467E+03  0.51980829969E+03  0.94591218837E+02 0.  0.
          3    1    3    3  502    0 -0.70826763319E+02 -0.44337077885E+03 -0.31572708739E+03  0.54888766760E+03  0.00000000000E+00 0. -1.
         -4    1    3    3    0  502 -0.75722266704E+02 -0.45455884372E+03 -0.22746860096E+03  0.51390618648E+03  0.00000000000E+00 0.  1.
         11    1    5    5    0    0  0.12990379872E+03  0.38120553686E+03  0.14227190464E+04  0.14786217039E+04  0.00000000000E+00 0. -1.
        -11    1    5    5    0    0  0.42763401495E+02  0.33706338616E+02  0.13974265324E+03  0.14997611445E+03  0.00000000000E+00 0.  1.
          3    1    6    6  503    0 -0.86806480927E+01  0.34685486200E+03  0.16093255467E+03  0.38246952310E+03  0.00000000000E+00 0. -1.
         -3    1    6    6    0  503 -0.17437522104E+02  0.13616288509E+03  0.41882100005E+01  0.13733877659E+03  0.00000000000E+00 0.  1.
<mgrwt>
<rscale>  0 0.29848004E+04</rscale>
<asrwt>0</asrwt>
<pdfrwt beam="1">  1        1 0.33812206E+00 0.29848004E+04</pdfrwt>
<pdfrwt beam="2">  1       -2 0.15590871E+00 0.29848004E+04</pdfrwt>
<totfact> 0.44266696E-01</totfact>
</mgrwt>
</event>
<event>
12    4  0.4320235E-008  0.1167592E+04  0.7818608E-02  0.9141706E-01
         -2   -1    0    0    0  501 -0.00000000000E+00  0.00000000000E+00  0.36864882322E+03  0.36864882322E+03  0.00000000000E+00 0.  1.
          1   -1    0    0  501    0  0.00000000000E+00 -0.00000000000E+00 -0.92450510104E+03  0.92450510104E+03  0.00000000000E+00 0. -1.
        -24    2    1    2    0    0  0.11665333640E+03  0.18019449998E+03 -0.27605899891E+02  0.22840797421E+03  0.73007247973E+02 0.  0.
        254    2    1    2    0    0 -0.11665333640E+03 -0.18019449998E+03 -0.52825037793E+03  0.10647459501E+04  0.89919820822E+03 0.  0.
         23    2    4    4    0    0  0.35929042893E+03  0.65904404759E+02 -0.26551849701E+03  0.46107432280E+03  0.93040077377E+02 0.  0.
         23    2    4    4    0    0 -0.47594376533E+03 -0.24609890474E+03 -0.26273188091E+03  0.60367162725E+03  0.91127677644E+02 0.  0.
          1    1    3    3  502    0  0.11738345724E+03  0.16880127082E+03 -0.80468388652E+01  0.20576077536E+03  0.00000000000E+00 0. -1.
         -2    1    3    3    0  502 -0.73012084042E+00  0.11393229161E+02 -0.19559061025E+02  0.22647198841E+02  0.00000000000E+00 0.  1.
         11    1    5    5    0    0  0.27874698786E+03  0.82413531819E+02 -0.23348406056E+03  0.37283599612E+03  0.00000000000E+00 0.  1.
        -11    1    5    5    0    0  0.80543441069E+02 -0.16509127060E+02 -0.32034436455E+02  0.88238326676E+02  0.00000000000E+00 0. -1.
          3    1    6    6  503    0 -0.89771313490E+02 -0.67001356210E+02 -0.92273715853E+02  0.14512928408E+03  0.00000000000E+00 0. -1.
         -3    1    6    6    0  503 -0.38617245184E+03 -0.17909754853E+03 -0.17045816506E+03  0.45854234318E+03  0.00000000000E+00 0.  1.
<mgrwt>
<rscale>  0 0.11675919E+04</rscale>
<asrwt>0</asrwt>
<pdfrwt beam="1">  1        1 0.14223155E+00 0.11675919E+04</pdfrwt>
<pdfrwt beam="2">  1       -2 0.56715203E-01 0.11675919E+04</pdfrwt>
<totfact> 0.44058798E+01</totfact>
</mgrwt>
</event>
<event>
12    4  0.4320235E-008  0.1905475E+04  0.7818608E-02  0.8652136E-01
          1   -1    0    0  501    0  0.00000000000E+00  0.00000000000E+00  0.11957671259E+04  0.11957671259E+04  0.00000000000E+00 0. -1.
         -2   -1    0    0    0  501 -0.00000000000E+00 -0.00000000000E+00 -0.75910168045E+03  0.75910168045E+03  0.00000000000E+00 0.  1.
        -24    2    1    2    0    0 -0.48376130111E+03  0.17364413479E+03 -0.36876245477E+03  0.63762527943E+03  0.80018541103E+02 0.  0.
        254    2    1    2    0    0  0.48376130111E+03 -0.17364413479E+03  0.80542790022E+03  0.13172435269E+04  0.90677402078E+03 0.  0.
         23    2    4    4    0    0  0.19930787547E+03 -0.20047829721E+03 -0.13768709434E+03  0.32742452902E+03  0.91290247992E+02 0.  0.
         23    2    4    4    0    0  0.28445342564E+03  0.26834162414E+02  0.94311499456E+03  0.98981899790E+03  0.92961992260E+02 0.  0.
          1    1    3    3  502    0 -0.77170840425E+02  0.55636365065E+02 -0.88201957773E+02  0.12973175820E+03  0.00000000000E+00 0. -1.
         -2    1    3    3    0  502 -0.40659046069E+03  0.11800776973E+03 -0.28056049700E+03  0.50789352124E+03  0.00000000000E+00 0.  1.
         11    1    5    5    0    0  0.16729994370E+03 -0.18233867601E+03 -0.14909621018E+03  0.28890542367E+03  0.00000000000E+00 0.  1.
        -11    1    5    5    0    0  0.32007931766E+02 -0.18139621194E+02  0.11409115836E+02  0.38519105352E+02  0.00000000000E+00 0. -1.
          3    1    6    6  503    0  0.79249990932E+02  0.25725960332E+02  0.16164755791E+03  0.18185796402E+03  0.00000000000E+00 0. -1.
         -3    1    6    6    0  503  0.20520343471E+03  0.11082020821E+01  0.78146743665E+03  0.80796103388E+03  0.00000000000E+00 0.  1.
<mgrwt>
<rscale>  0 0.19054751E+04</rscale>
<asrwt>0</asrwt>
<pdfrwt beam="1">  1        1 0.18396417E+00 0.19054751E+04</pdfrwt>
<pdfrwt beam="2">  1       -2 0.11678487E+00 0.19054751E+04</pdfrwt>
<totfact> 0.50130674E+00</totfact>
</mgrwt>
</event>
<event>
12    4  0.4320235E-008  0.1286216E+04  0.7818608E-02  0.9040568E-01
          1   -1    0    0  501    0  0.00000000000E+00  0.00000000000E+00  0.79857675717E+03  0.79857675717E+03  0.00000000000E+00 0. -1.
         -2   -1    0    0    0  501 -0.00000000000E+00 -0.00000000000E+00 -0.51790593797E+03  0.51790593797E+03  0.00000000000E+00 0.  1.
        -24    2    1    2    0    0 -0.29833931154E+03 -0.34964985782E+02  0.23309294953E+03  0.38859226443E+03  0.80266617077E+02 0.  0.
        254    2    1    2    0    0  0.29833931154E+03  0.34964985782E+02  0.47577869674E+02  0.92789043071E+03  0.87663453199E+03 0.  0.
         23    2    4    4    0    0  0.36584250906E+03  0.38779162505E+03 -0.54132113802E+02  0.54274811541E+03  0.86151872594E+02 0.  0.
         23    2    4    4    0    0 -0.67503197521E+02 -0.35282663926E+03  0.10170998348E+03  0.38514231530E+03  0.94585216829E+02 0.  0.
          3    1    3    3  502    0 -0.51109683100E+02  0.97890320083E+01  0.76562235005E+02  0.92573217958E+02  0.00000000000E+00 0. -1.
         -4    1    3    3    0  502 -0.24722962844E+03 -0.44754017791E+02  0.15653071452E+03  0.29601904647E+03  0.00000000000E+00 0.  1.
         11    1    5    5    0    0  0.40315473298E+02  0.56369533448E+02  0.20428350632E+02  0.72250807593E+02  0.00000000000E+00 0.  1.
        -11    1    5    5    0    0  0.32552703576E+03  0.33142209160E+03 -0.74560464434E+02  0.47049730782E+03  0.00000000000E+00 0. -1.
          4    1    6    6  503    0 -0.27356048492E+02 -0.11561516948E+03  0.80738533483E+02  0.14364515861E+03  0.00000000000E+00 0. -1.
         -4    1    6    6    0  503 -0.40147149029E+02 -0.23721146979E+03  0.20971449993E+02  0.24149715669E+03  0.00000000000E+00 0.  1.
<mgrwt>
<rscale>  0 0.12862156E+04</rscale>
<asrwt>0</asrwt>
<pdfrwt beam="1">  1        1 0.12285796E+00 0.12862156E+04</pdfrwt>
<pdfrwt beam="2">  1       -2 0.79677836E-01 0.12862156E+04</pdfrwt>
<totfact> 0.26655609E+01</totfact>
</mgrwt>
</event>
<event>
12    4  0.4320235E-008  0.2030588E+04  0.7818608E-02  0.8592452E-01
          1   -1    0    0  501    0  0.00000000000E+00  0.00000000000E+00  0.23411239033E+04  0.23411239033E+04  0.00000000000E+00 0. -1.
         -2   -1    0    0    0  501 -0.00000000000E+00 -0.00000000000E+00 -0.44031076250E+03  0.44031076250E+03  0.00000000000E+00 0.  1.
        -24    2    1    2    0    0  0.30847482280E+03  0.73646530292E+03  0.94302036631E+03  0.12382643125E+04  0.80456433202E+02 0.  0.
        254    2    1    2    0    0 -0.30847482280E+03 -0.73646530292E+03  0.95779277450E+03  0.15431703533E+04  0.90910388940E+03 0.  0.
         23    2    4    4    0    0  0.18137444769E+03 -0.24863185982E+03 -0.41973402465E+02  0.32465225087E+03  0.94460708702E+02 0.  0.
         23    2    4    4    0    0 -0.48984927050E+03 -0.48783344310E+03  0.99976617697E+03  0.12185181024E+04  0.85558058292E+02 0.  0.
          3    1    3    3  502    0  0.13005250368E+03  0.36877860580E+03  0.51259306171E+03  0.64471928831E+03  0.00000000000E+00 0. -1.
         -4    1    3    3    0  502  0.17842231912E+03  0.36768669712E+03  0.43042730460E+03  0.59354502419E+03  0.00000000000E+00 0.  1.
         11    1    5    5    0    0  0.54924528120E+02 -0.12351142528E+03 -0.55775156417E+02  0.14622805489E+03  0.00000000000E+00 0. -1.
        -11    1    5    5    0    0  0.12644991957E+03 -0.12512043454E+03  0.13801753952E+02  0.17842419598E+03  0.00000000000E+00 0.  1.
          2    1    6    6  503    0 -0.11716380399E+03 -0.85030721099E+02  0.25778077817E+03  0.29564930254E+03  0.00000000000E+00 0. -1.
         -2    1    6    6    0  503 -0.37268546651E+03 -0.40280272200E+03  0.74198539880E+03  0.92286879990E+03  0.00000000000E+00 0.  1.
<mgrwt>
<rscale>  0 0.20305881E+04</rscale>
<asrwt>0</asrwt>
<pdfrwt beam="1">  1        1 0.36017290E+00 0.20305881E+04</pdfrwt>
<pdfrwt beam="2">  1       -2 0.67740119E-01 0.20305881E+04</pdfrwt>
<totfact> 0.28308686E+00</totfact>
</mgrwt>
</event>
<event>
12    4  0.4320235E-008  0.1795317E+04  0.7818608E-02  0.8708794E-01
          1   -1    0    0  501    0  0.00000000000E+00  0.00000000000E+00  0.29316322818E+04  0.29316322818E+04  0.00000000000E+00 0. -1.
         -2   -1    0    0    0  501 -0.00000000000E+00 -0.00000000000E+00 -0.27486086762E+03  0.27486086762E+03  0.00000000000E+00 0.  1.
        -24    2    1    2    0    0 -0.49155055363E+03 -0.29954425868E+03  0.16142693366E+04  0.17156633446E+04  0.79287523514E+02 0.  0.
        254    2    1    2    0    0  0.49155055363E+03  0.29954425868E+03  0.10425020776E+04  0.14908298048E+04  0.89689141782E+03 0.  0.
         23    2    4    4    0    0  0.56457485560E+03  0.50050203623E+03  0.99490482541E+03  0.12518048329E+04  0.89065550711E+02 0.  0.
         23    2    4    4    0    0 -0.73024301968E+02 -0.20095777755E+03  0.47597252152E+02  0.23902497181E+03  0.95660136437E+02 0.  0.
          3    1    3    3  502    0 -0.40429089286E+03 -0.25158295046E+03  0.14136305514E+04  0.14916757164E+04  0.00000000000E+00 0. -1.
         -4    1    3    3    0  502 -0.87259660774E+02 -0.47961308213E+02  0.20063878516E+03  0.22398762822E+03  0.00000000000E+00 0.  1.
         11    1    5    5    0    0  0.11988462059E+03  0.10531235951E+03  0.27448556594E+03  0.31749856886E+03  0.00000000000E+00 0. -1.
        -11    1    5    5    0    0  0.44469023501E+03  0.39518967671E+03  0.72041925948E+03  0.93430626409E+03  0.00000000000E+00 0.  1.
          4    1    6    6  503    0 -0.81930173987E+01 -0.24916852164E+01  0.28046697140E+02  0.29324925401E+02  0.00000000000E+00 0. -1.
         -4    1    6    6    0  503 -0.64831284569E+02 -0.19846609233E+03  0.19550555012E+02  0.20970004641E+03  0.00000000000E+00 0.  1.
<mgrwt>
<rscale>  0 0.17953172E+04</rscale>
<asrwt>0</asrwt>
<pdfrwt beam="1">  1        1 0.45102033E+00 0.17953172E+04</pdfrwt>
<pdfrwt beam="2">  1       -2 0.42286289E-01 0.17953172E+04</pdfrwt>
<totfact> 0.29541662E+00</totfact>
</mgrwt>
</event>
<event>
12    4  0.4320235E-008  0.1271764E+04  0.7818608E-02  0.9052261E-01
         -2   -1    0    0    0  501 -0.00000000000E+00  0.00000000000E+00  0.63494726437E+03  0.63494726437E+03  0.00000000000E+00 0.  1.
          1   -1    0    0  501    0  0.00000000000E+00 -0.00000000000E+00 -0.63681799280E+03  0.63681799280E+03  0.00000000000E+00 0. -1.
        -24    2    1    2    0    0  0.19214105764E+03  0.19014699128E+03 -0.11243762369E+03  0.30366151349E+03  0.80585552245E+02 0.  0.
        254    2    1    2    0    0 -0.19214105764E+03 -0.19014699128E+03  0.11056689527E+03  0.96810374367E+03  0.92299824261E+03 0.  0.
         23    2    4    4    0    0 -0.68595196674E+02 -0.52935573378E+03 -0.82888770473E+02  0.54795106253E+03  0.91962083309E+02 0.  0.
         23    2    4    4    0    0 -0.12354586097E+03  0.33920874250E+03  0.19345566574E+03  0.42015268114E+03  0.93685805286E+02 0.  0.
          3    1    3    3  502    0  0.16439269907E+03  0.18119779647E+03 -0.12145065654E+03  0.27314439941E+03  0.00000000000E+00 0. -1.
         -4    1    3    3    0  502  0.27748358572E+02  0.89491948086E+01  0.90130328441E+01  0.30517114087E+02  0.00000000000E+00 0.  1.
         11    1    5    5    0    0 -0.76486938223E+02 -0.27142210435E+03 -0.64279132560E+02  0.28922658476E+03  0.00000000000E+00 0. -1.
        -11    1    5    5    0    0  0.78917415496E+01 -0.25793362943E+03 -0.18609637913E+02  0.25872447777E+03  0.00000000000E+00 0.  1.
          2    1    6    6  503    0 -0.28464639293E+02  0.13762999052E+02  0.43058947338E+01  0.31909192445E+02  0.00000000000E+00 0. -1.
         -2    1    6    6    0  503 -0.95081221676E+02  0.32544574345E+03  0.18914977101E+03  0.38824348870E+03  0.00000000000E+00 0.  1.
<mgrwt>
<rscale>  0 0.12717639E+04</rscale>
<asrwt>0</asrwt>
<pdfrwt beam="1">  1        1 0.97971998E-01 0.12717639E+04</pdfrwt>
<pdfrwt beam="2">  1       -2 0.97684195E-01 0.12717639E+04</pdfrwt>
<totfact> 0.23623906E+01</totfact>
</mgrwt>
</event>
<event>
12    4  0.4320235E-008  0.1526635E+04  0.7818608E-02  0.8866931E-01
          1   -1    0    0  501    0  0.00000000000E+00  0.00000000000E+00  0.13010561750E+04  0.13010561750E+04  0.00000000000E+00 0. -1.
         -4   -1    0    0    0  501 -0.00000000000E+00 -0.00000000000E+00 -0.44783138442E+03  0.44783138442E+03  0.00000000000E+00 0.  1.
        -24    2    1    2    0    0 -0.62437424337E+02 -0.65900273111E+01  0.80783364779E+03  0.81420875613E+03  0.79992722416E+02 0.  0.
        254    2    1    2    0    0  0.62437424337E+02  0.65900273111E+01  0.45391142764E+02  0.93467880327E+03  0.93146242491E+03 0.  0.
         23    2    4    4    0    0  0.29717662006E+03  0.26939091479E+03  0.28141018922E+03  0.49863217358E+03  0.92503737541E+02 0.  0.
         23    2    4    4    0    0 -0.23473919572E+03 -0.26280088747E+03 -0.23601904645E+03  0.43604662969E+03  0.10131572685E+03 0.  0.
          3    1    3    3  502    0 -0.45983539008E+02 -0.47546473889E+00  0.77965525573E+03  0.78101026223E+03  0.00000000000E+00 0. -1.
         -4    1    3    3    0  502 -0.16453885330E+02 -0.61145625722E+01  0.28178392056E+02  0.33198493893E+02  0.00000000000E+00 0.  1.
         11    1    5    5    0    0  0.18682643792E+02  0.57226230377E+02  0.27707087110E+02  0.66268886352E+02  0.00000000000E+00 0.  1.
        -11    1    5    5    0    0  0.27849397627E+03  0.21216468441E+03  0.25370310211E+03  0.43236328723E+03  0.00000000000E+00 0. -1.
          4    1    6    6  503    0 -0.18379783912E+03 -0.25555287555E+03 -0.19548909644E+03  0.37054676452E+03  0.00000000000E+00 0. -1.
         -4    1    6    6    0  503 -0.50941356605E+02 -0.72480119255E+01 -0.40529950007E+02  0.65499865169E+02  0.00000000000E+00 0.  1.
<mgrwt>
<rscale>  0 0.15266352E+04</rscale>
<asrwt>0</asrwt>
<pdfrwt beam="1">  1        1 0.20016249E+00 0.15266352E+04</pdfrwt>
<pdfrwt beam="2">  1       -4 0.68897136E-01 0.15266352E+04</pdfrwt>
<totfact> 0.82719531E+00</totfact>
</mgrwt>
</event>
<event>
12    4  0.4320235E-008  0.1844547E+04  0.7818608E-02  0.8682962E-01
          1   -1    0    0  501    0  0.00000000000E+00  0.00000000000E+00  0.13958541719E+04  0.13958541719E+04  0.00000000000E+00 0. -1.
         -2   -1    0    0    0  501 -0.00000000000E+00 -0.00000000000E+00 -0.60936740813E+03  0.60936740813E+03  0.00000000000E+00 0.  1.
        -24    2    1    2    0    0 -0.56199943836E+03  0.63559171472E+02 -0.14660882377E+03  0.58957714356E+03  0.78891850121E+02 0.  0.
        254    2    1    2    0    0  0.56199943836E+03 -0.63559171472E+02  0.93309558751E+03  0.14156444364E+04  0.90194160453E+03 0.  0.
         23    2    4    4    0    0  0.60276217057E+03 -0.11660831862E+03  0.16933438743E+03  0.64356159698E+03  0.92615657973E+02 0.  0.
         23    2    4    4    0    0 -0.40762732211E+02  0.53049147146E+02  0.76376120008E+03  0.77208283945E+03  0.91131377014E+02 0.  0.
          1    1    3    3  502    0 -0.50141299444E+02 -0.12360054262E+02 -0.27823205632E+02  0.58660477521E+02  0.00000000000E+00 0. -1.
         -2    1    3    3    0  502 -0.51185813891E+03  0.75919225734E+02 -0.11878561813E+03  0.53091666604E+03  0.00000000000E+00 0.  1.
         11    1    5    5    0    0  0.54400376930E+03 -0.80040641437E+02  0.13445294589E+03  0.56606024410E+03  0.00000000000E+00 0.  1.
        -11    1    5    5    0    0  0.58758401266E+02 -0.36567677181E+02  0.34881441537E+02  0.77501352875E+02  0.00000000000E+00 0. -1.
          1    1    6    6  503    0 -0.32805485262E+01  0.69486873687E+02  0.39740469705E+03  0.40344724667E+03  0.00000000000E+00 0. -1.
         -1    1    6    6    0  503 -0.37482183685E+02 -0.16437726541E+02  0.36635650304E+03  0.36863559278E+03  0.00000000000E+00 0.  1.
<mgrwt>
<rscale>  0 0.18445466E+04</rscale>
<asrwt>0</asrwt>
<pdfrwt beam="1">  1        1 0.21474680E+00 0.18445466E+04</pdfrwt>
<pdfrwt beam="2">  1       -2 0.93748832E-01 0.18445466E+04</pdfrwt>
<totfact> 0.61331981E+00</totfact>
</mgrwt>
</event>
<event>
12    4  0.4320235E-008  0.2067293E+04  0.7818608E-02  0.8575789E-01
         -2   -1    0    0    0  501 -0.00000000000E+00  0.00000000000E+00  0.10447078010E+04  0.10447078010E+04  0.00000000000E+00 0.  1.
          1   -1    0    0  501    0  0.00000000000E+00 -0.00000000000E+00 -0.10227024478E+04  0.10227024478E+04  0.00000000000E+00 0. -1.
        -24    2    1    2    0    0  0.17761095993E+03 -0.57796654183E+03 -0.53774652644E+03  0.81311207670E+03  0.79930882777E+02 0.  0.
        254    2    1    2    0    0 -0.17761095993E+03  0.57796654183E+03  0.55975187963E+03  0.12542981721E+04  0.94570120077E+03 0.  0.
         23    2    4    4    0    0  0.17514591660E+03 -0.16132776196E+03 -0.60927894625E+01  0.25459062527E+03  0.89869491545E+02 0.  0.
         23    2    4    4    0    0 -0.35275687653E+03  0.73929430379E+03  0.56584466909E+03  0.99970754680E+03  0.90782751875E+02 0.  0.
          3    1    3    3  502    0  0.18240005897E+03 -0.51472308113E+03 -0.49041808803E+03  0.73397515818E+03  0.00000000000E+00 0. -1.
         -4    1    3    3    0  502 -0.47890990378E+01 -0.63243460708E+02 -0.47328438408E+02  0.79136918527E+02  0.00000000000E+00 0.  1.
         11    1    5    5    0    0  0.16072327126E+03 -0.95642186850E+02  0.39350357160E+00  0.18702821358E+03  0.00000000000E+00 0.  1.
        -11    1    5    5    0    0  0.14422645343E+02 -0.65685575109E+02 -0.64862930341E+01  0.67562411690E+02  0.00000000000E+00 0. -1.
          1    1    6    6  503    0 -0.81595091089E+01  0.31308321112E+02  0.44174631235E+01  0.32654288236E+02  0.00000000000E+00 0. -1.
         -1    1    6    6    0  503 -0.34459736742E+03  0.70798598268E+03  0.56142720596E+03  0.96705325857E+03  0.00000000000E+00 0.  1.
<mgrwt>
<rscale>  0 0.20672931E+04</rscale>
<asrwt>0</asrwt>
<pdfrwt beam="1">  1        1 0.15733884E+00 0.20672931E+04</pdfrwt>
<pdfrwt beam="2">  1       -2 0.16072428E+00 0.20672931E+04</pdfrwt>
<totfact> 0.29223779E+00</totfact>
</mgrwt>
</event>
<event>
12    4  0.4320235E-008  0.1700684E+04  0.7818608E-02  0.8760974E-01
         -2   -1    0    0    0  501 -0.00000000000E+00  0.00000000000E+00  0.84665492166E+03  0.84665492166E+03  0.00000000000E+00 0.  1.
          1   -1    0    0  501    0  0.00000000000E+00 -0.00000000000E+00 -0.85404549069E+03  0.85404549069E+03  0.00000000000E+00 0. -1.
        -24    2    1    2    0    0  0.20591724729E+03  0.52332596792E+03  0.23832356926E+03  0.61616208854E+03  0.81151797613E+02 0.  0.
        254    2    1    2    0    0 -0.20591724729E+03 -0.52332596792E+03 -0.24571413830E+03  0.10845383238E+04  0.89419011213E+03 0.  0.
         23    2    4    4    0    0 -0.33464518589E+03 -0.63159246294E+03 -0.41301374411E+03  0.83048850636E+03  0.90743411201E+02 0.  0.
         23    2    4    4    0    0  0.12872793860E+03  0.10826649503E+03  0.16729960581E+03  0.25404981746E+03  0.90882536956E+02 0.  0.
          3    1    3    3  502    0  0.16178685600E+03  0.39603737154E+03  0.21722260509E+03  0.47979813109E+03  0.00000000000E+00 0. -1.
         -4    1    3    3    0  502  0.44130391287E+02  0.12728859638E+03  0.21100964176E+02  0.13636395745E+03  0.00000000000E+00 0.  1.
         11    1    5    5    0    0 -0.27776597582E+03 -0.43738261527E+03 -0.29904405416E+03  0.59823476645E+03  0.00000000000E+00 0. -1.
        -11    1    5    5    0    0 -0.56879210075E+02 -0.19420984767E+03 -0.11396968995E+03  0.23225373990E+03  0.00000000000E+00 0.  1.
          3    1    6    6  503    0  0.13067064562E+03  0.79655270899E+02  0.16535874411E+03  0.22530711054E+03  0.00000000000E+00 0. -1.
         -3    1    6    6    0  503 -0.19427070174E+01  0.28611224129E+02  0.19408617063E+01  0.28742706916E+02  0.00000000000E+00 0.  1.
<mgrwt>
<rscale>  0 0.17006844E+04</rscale>
<asrwt>0</asrwt>
<pdfrwt beam="1">  1        1 0.13139161E+00 0.17006844E+04</pdfrwt>
<pdfrwt beam="2">  1       -2 0.13025460E+00 0.17006844E+04</pdfrwt>
<totfact> 0.71582072E+00</totfact>
</mgrwt>
</event>
<event>
12    4  0.4320235E-008  0.1168584E+04  0.7818608E-02  0.9140808E-01
         -2   -1    0    0    0  501 -0.00000000000E+00  0.00000000000E+00  0.39545103528E+03  0.39545103528E+03  0.00000000000E+00 0.  1.
          1   -1    0    0  501    0  0.00000000000E+00 -0.00000000000E+00 -0.86331073603E+03  0.86331073603E+03  0.00000000000E+00 0. -1.
        -24    2    1    2    0    0 -0.18544446704E+03 -0.11192764854E+03 -0.93033088707E+02  0.24897127337E+03  0.80088017242E+02 0.  0.
        254    2    1    2    0    0  0.18544446704E+03  0.11192764854E+03 -0.37482661204E+03  0.10097904979E+04  0.91228526885E+03 0.  0.
         23    2    4    4    0    0  0.99800395977E+02  0.38094998887E+03 -0.53595799588E+03  0.67216783863E+03  0.97342780337E+02 0.  0.
         23    2    4    4    0    0  0.85644071067E+02 -0.26902234033E+03  0.16113138384E+03  0.33762265930E+03  0.91202032386E+02 0.  0.
          3    1    3    3  502    0 -0.10152978177E+03 -0.65991571878E+02 -0.94011105740E+02  0.15330124640E+03  0.00000000000E+00 0. -1.
         -4    1    3    3    0  502 -0.83914685275E+02 -0.45936076664E+02  0.97801703337E+00  0.95670026975E+02  0.00000000000E+00 0.  1.
         11    1    5    5    0    0 -0.84243062768E+01  0.12470114920E+03 -0.13286590975E+03  0.18241352889E+03  0.00000000000E+00 0. -1.
        -11    1    5    5    0    0  0.10822470225E+03  0.25624883967E+03 -0.40309208613E+03  0.48975430974E+03  0.00000000000E+00 0.  1.
          1    1    6    6  503    0  0.76101156623E+02 -0.92476259668E+02  0.60289580306E+02  0.13408235579E+03  0.00000000000E+00 0. -1.
         -1    1    6    6    0  503  0.95429144444E+01 -0.17654608066E+03  0.10084180354E+03  0.20354030351E+03  0.00000000000E+00 0.  1.
<mgrwt>
<rscale>  0 0.11685840E+04</rscale>
<asrwt>0</asrwt>
<pdfrwt beam="1">  1        1 0.13281703E+00 0.11685840E+04</pdfrwt>
<pdfrwt beam="2">  1       -2 0.60838622E-01 0.11685840E+04</pdfrwt>
<totfact> 0.42671617E+01</totfact>
</mgrwt>
</event>
<event>
12    4  0.4320235E-008  0.1797433E+04  0.7818608E-02  0.8707666E-01
         -2   -1    0    0    0  501 -0.00000000000E+00  0.00000000000E+00  0.74633146212E+03  0.74633146212E+03  0.00000000000E+00 0.  1.
          1   -1    0    0  501    0  0.00000000000E+00 -0.00000000000E+00 -0.10822151343E+04  0.10822151343E+04  0.00000000000E+00 0. -1.
        -24    2    1    2    0    0 -0.39303090611E+03 -0.33476485467E+03  0.31344731830E+03  0.60922818404E+03  0.79805750406E+02 0.  0.
        254    2    1    2    0    0  0.39303090611E+03  0.33476485467E+03 -0.64933099053E+03  0.12193184124E+04  0.89362511969E+03 0.  0.
         23    2    4    4    0    0 -0.48941704069E+02  0.24258449888E+03 -0.70806540028E+03  0.75545650172E+03  0.90085434038E+02 0.  0.
         23    2    4    4    0    0  0.44197261018E+03  0.92180355785E+02  0.58734409753E+02  0.46386191070E+03  0.88775757788E+02 0.  0.
          3    1    3    3  502    0 -0.18811887219E+03 -0.19002568510E+03  0.19989599675E+03  0.33385158467E+03  0.00000000000E+00 0. -1.
         -4    1    3    3    0  502 -0.20491203392E+03 -0.14473916956E+03  0.11355132155E+03  0.27537659936E+03  0.00000000000E+00 0.  1.
         11    1    5    5    0    0  0.25344953629E+02  0.70279446505E+02 -0.17291808154E+03  0.18836727475E+03  0.00000000000E+00 0. -1.
        -11    1    5    5    0    0 -0.74286657698E+02  0.17230505238E+03 -0.53514731874E+03  0.56708922697E+03  0.00000000000E+00 0.  1.
          1    1    6    6  503    0  0.27909317941E+03  0.87918316291E+02  0.68879904014E+02  0.30061116797E+03  0.00000000000E+00 0. -1.
         -1    1    6    6    0  503  0.16287943077E+03  0.42620394938E+01 -0.10145494261E+02  0.16325074273E+03  0.00000000000E+00 0.  1.
<mgrwt>
<rscale>  0 0.17974328E+04</rscale>
<asrwt>0</asrwt>
<pdfrwt beam="1">  1        1 0.16649463E+00 0.17974328E+04</pdfrwt>
<pdfrwt beam="2">  1       -2 0.11482023E+00 0.17974328E+04</pdfrwt>
<totfact> 0.64062025E+00</totfact>
</mgrwt>
</event>
<event>
12    4  0.4320235E-008  0.2023090E+04  0.7818608E-02  0.8595901E-01
         -2   -1    0    0    0  501 -0.00000000000E+00  0.00000000000E+00  0.91032256461E+03  0.91032256461E+03  0.00000000000E+00 0.  1.
          1   -1    0    0  501    0  0.00000000000E+00 -0.00000000000E+00 -0.11240228986E+04  0.11240228986E+04  0.00000000000E+00 0. -1.
        -24    2    1    2    0    0  0.16135868384E+03  0.12082230594E+03 -0.87784297760E+03  0.90396186875E+03  0.76838222000E+02 0.  0.
        254    2    1    2    0    0 -0.16135868384E+03 -0.12082230594E+03  0.66414264366E+03  0.11303835944E+04  0.89221464062E+03 0.  0.
         23    2    4    4    0    0  0.20238263840E+03  0.20468333496E+03  0.53968368164E+03  0.61855615387E+03  0.92191319156E+02 0.  0.
         23    2    4    4    0    0 -0.36374132224E+03 -0.32550564090E+03  0.12445896202E+03  0.51182744054E+03  0.90640078898E+02 0.  0.
          1    1    3    3  502    0  0.13006445653E+03  0.56788466469E+02 -0.64625602426E+03  0.66165590882E+03  0.00000000000E+00 0. -1.
         -2    1    3    3    0  502  0.31294227304E+02  0.64033839475E+02 -0.23158695334E+03  0.24230595993E+03  0.00000000000E+00 0.  1.
         11    1    5    5    0    0  0.16117474920E+03  0.18365895480E+03  0.50407213041E+03  0.56017552973E+03  0.00000000000E+00 0. -1.
        -11    1    5    5    0    0  0.41207889199E+02  0.21024380164E+02  0.35611551225E+02  0.58380624133E+02  0.00000000000E+00 0.  1.
          2    1    6    6  503    0 -0.11413103793E+03 -0.55828231500E+02  0.52013432332E+02  0.13728831849E+03  0.00000000000E+00 0.  1.
         -2    1    6    6    0  503 -0.24961028431E+03 -0.26967740941E+03  0.72445529689E+02  0.37453912205E+03  0.00000000000E+00 0. -1.
<mgrwt>
<rscale>  0 0.20230901E+04</rscale>
<asrwt>0</asrwt>
<pdfrwt beam="1">  1        1 0.17292660E+00 0.20230901E+04</pdfrwt>
<pdfrwt beam="2">  1       -2 0.14004963E+00 0.20230901E+04</pdfrwt>
<totfact> 0.35435291E+00</totfact>
</mgrwt>
</event>
<event>
12    4  0.4320235E-008  0.2130665E+04  0.7818608E-02  0.8547854E-01
          1   -1    0    0  501    0  0.00000000000E+00  0.00000000000E+00  0.17164443213E+04  0.17164443213E+04  0.00000000000E+00 0. -1.
         -2   -1    0    0    0  501 -0.00000000000E+00 -0.00000000000E+00 -0.66121154858E+03  0.66121154858E+03  0.00000000000E+00 0.  1.
        -24    2    1    2    0    0 -0.30134674586E+03 -0.45473689940E+03 -0.32373279737E+03  0.63931060424E+03  0.79496010534E+02 0.  0.
        254    2    1    2    0    0  0.30134674586E+03  0.45473689940E+03  0.13789655701E+04  0.17383452656E+04  0.90702960822E+03 0.  0.
         23    2    4    4    0    0  0.20929700961E+03 -0.24224620770E+03  0.30652783818E+03  0.45271628303E+03  0.92218512032E+02 0.  0.
         23    2    4    4    0    0  0.92049736253E+02  0.69698310710E+03  0.10724377319E+04  0.12856289826E+04  0.91981447015E+02 0.  0.
          3    1    3    3  502    0 -0.18850252840E+03 -0.34778730826E+03 -0.22413314699E+03  0.45467008102E+03  0.00000000000E+00 0. -1.
         -4    1    3    3    0  502 -0.11284421746E+03 -0.10694959114E+03 -0.99599650378E+02  0.18464052322E+03  0.00000000000E+00 0.  1.
         11    1    5    5    0    0  0.14310094022E+03 -0.18376304026E+03  0.27145102243E+03  0.35767637836E+03  0.00000000000E+00 0. -1.
        -11    1    5    5    0    0  0.66196069386E+02 -0.58483167446E+02  0.35076815753E+02  0.95039904672E+02  0.00000000000E+00 0.  1.
          4    1    6    6  503    0  0.85460600724E+02  0.47765114136E+03  0.67001878744E+03  0.82727220589E+03  0.00000000000E+00 0. -1.
         -4    1    6    6    0  503  0.65891355295E+01  0.21933196574E+03  0.40241894447E+03  0.45835677673E+03  0.00000000000E+00 0.  1.
<mgrwt>
<rscale>  0 0.21306645E+04</rscale>
<asrwt>0</asrwt>
<pdfrwt beam="1">  1        1 0.26406836E+00 0.21306645E+04</pdfrwt>
<pdfrwt beam="2">  1       -2 0.10172485E+00 0.21306645E+04</pdfrwt>
<totfact> 0.29665106E+00</totfact>
</mgrwt>
</event>
<event>
12    4  0.4320235E-008  0.1269182E+04  0.7818608E-02  0.9054367E-01
         -2   -1    0    0    0  501 -0.00000000000E+00  0.00000000000E+00  0.10818285506E+04  0.10818285506E+04  0.00000000000E+00 0.  1.
          1   -1    0    0  501    0  0.00000000000E+00 -0.00000000000E+00 -0.37224558006E+03  0.37224558006E+03  0.00000000000E+00 0. -1.
        -24    2    1    2    0    0 -0.16417792281E+03 -0.16821417825E+03 -0.53079626958E+02  0.25351979966E+03  0.78768279899E+02 0.  0.
        254    2    1    2    0    0  0.16417792281E+03  0.16821417825E+03  0.76266259754E+03  0.12005543310E+04  0.89689802316E+03 0.  0.
         23    2    4    4    0    0 -0.29885624178E+03  0.12412336666E+03  0.61864690569E+03  0.70464480182E+03  0.95281894426E+02 0.  0.
         23    2    4    4    0    0  0.46303416460E+03  0.44090811595E+02  0.14401569185E+03  0.49590952921E+03  0.94027147200E+02 0.  0.
          3    1    3    3  502    0 -0.15862659548E+03 -0.13603688165E+03 -0.25011292636E+02  0.21046138535E+03  0.00000000000E+00 0. -1.
         -2    1    3    3    0  502 -0.55513273351E+01 -0.32177296605E+02 -0.28068334323E+02  0.43058414319E+02  0.00000000000E+00 0.  1.
         11    1    5    5    0    0 -0.25753733021E+03  0.12987861487E+03  0.58007490209E+03  0.64782777271E+03  0.00000000000E+00 0.  1.
        -11    1    5    5    0    0 -0.41318911572E+02 -0.57552482100E+01  0.38572003597E+02  0.56817029110E+02  0.00000000000E+00 0. -1.
          3    1    6    6  503    0  0.12164140317E+03 -0.16538249002E+02  0.70164541120E+02  0.14139733899E+03  0.00000000000E+00 0. -1.
         -3    1    6    6    0  503  0.34139276143E+03  0.60629060597E+02  0.73851150727E+02  0.35451219021E+03  0.00000000000E+00 0.  1.
<mgrwt>
<rscale>  0 0.12691823E+04</rscale>
<asrwt>0</asrwt>
<pdfrwt beam="1">  1        1 0.57268551E-01 0.12691823E+04</pdfrwt>
<pdfrwt beam="2">  1       -2 0.16643516E+00 0.12691823E+04</pdfrwt>
<totfact> 0.12822059E+01</totfact>
</mgrwt>
</event>
<event>
12    4  0.4320235E-008  0.1303060E+04  0.7818608E-02  0.9027142E-01
         -2   -1    0    0    0  501 -0.00000000000E+00  0.00000000000E+00  0.29790047005E+03  0.29790047005E+03  0.00000000000E+00 0.  1.
          1   -1    0    0  501    0  0.00000000000E+00 -0.00000000000E+00 -0.14249425289E+04  0.14249425289E+04  0.00000000000E+00 0. -1.
        -24    2    1    2    0    0  0.11472175431E+03  0.27427338074E+03 -0.10096567200E+03  0.32357385716E+03  0.78224074439E+02 0.  0.
        254    2    1    2    0    0 -0.11472175431E+03 -0.27427338074E+03 -0.10260763869E+04  0.13992691418E+04  0.90373359528E+03 0.  0.
         23    2    4    4    0    0  0.23834235135E+02 -0.21583278366E+03 -0.11575075342E+04  0.11811761937E+04  0.90562948397E+02 0.  0.
         23    2    4    4    0    0 -0.13855598945E+03 -0.58440597074E+02  0.13143114732E+03  0.21809294810E+03  0.87620328281E+02 0.  0.
          3    1    3    3  502    0  0.20763014609E+02  0.16470600369E+02  0.89693622606E+01  0.27979151372E+02  0.00000000000E+00 0. -1.
         -4    1    3    3    0  502  0.93958739702E+02  0.25780278037E+03 -0.10993503426E+03  0.29559470579E+03  0.00000000000E+00 0.  1.
         11    1    5    5    0    0  0.64932742344E+01 -0.21753017196E+03 -0.10842566570E+04  0.11058815654E+04  0.00000000000E+00 0. -1.
        -11    1    5    5    0    0  0.17340960901E+02  0.16973882959E+01 -0.73250877144E+02  0.75294628324E+02  0.00000000000E+00 0.  1.
          1    1    6    6  503    0 -0.12430988410E+03 -0.56367834834E+02  0.14441205057E+03  0.19870863202E+03  0.00000000000E+00 0. -1.
         -1    1    6    6    0  503 -0.14246105343E+02 -0.20727622397E+01 -0.12980903250E+02  0.19384316081E+02  0.00000000000E+00 0.  1.
<mgrwt>
<rscale>  0 0.13030596E+04</rscale>
<asrwt>0</asrwt>
<pdfrwt beam="1">  1        1 0.21922193E+00 0.13030596E+04</pdfrwt>
<pdfrwt beam="2">  1       -2 0.45830842E-01 0.13030596E+04</pdfrwt>
<totfact> 0.28707492E+01</totfact>
</mgrwt>
</event>
<event>
12    4  0.4320235E-008  0.1828224E+04  0.7818608E-02  0.8691433E-01
         -4   -1    0    0    0  501 -0.00000000000E+00  0.00000000000E+00  0.10290645770E+04  0.10290645770E+04  0.00000000000E+00 0.  1.
          3   -1    0    0  501    0  0.00000000000E+00 -0.00000000000E+00 -0.81199996438E+03  0.81199996438E+03  0.00000000000E+00 0. -1.
        -24    2    1    2    0    0 -0.59472405419E+03  0.24876103590E+03 -0.16339591473E+03  0.67020515068E+03  0.83053991036E+02 0.  0.
        254    2    1    2    0    0  0.59472405419E+03 -0.24876103590E+03  0.38046052737E+03  0.11708593907E+04  0.90032368975E+03 0.  0.
         23    2    4    4    0    0  0.75996300547E+03 -0.34826338326E+03  0.43963835130E+03  0.94923722548E+03  0.94542458651E+02 0.  0.
         23    2    4    4    0    0 -0.16523895128E+03  0.99502347364E+02 -0.59177823936E+02  0.22162216524E+03  0.91704640715E+02 0.  0.
          3    1    3    3  502    0 -0.18410443357E+03  0.48721931190E+02 -0.20096167613E+02  0.19149967360E+03  0.00000000000E+00 0. -1.
         -4    1    3    3    0  502 -0.41061962062E+03  0.20003910471E+03 -0.14329974712E+03  0.47870547707E+03  0.00000000000E+00 0.  1.
         11    1    5    5    0    0  0.11921450296E+03 -0.94455858297E+02  0.78108273019E+02  0.17098218971E+03  0.00000000000E+00 0. -1.
        -11    1    5    5    0    0  0.64074850251E+03 -0.25380752497E+03  0.36153007828E+03  0.77825503577E+03  0.00000000000E+00 0.  1.
          2    1    6    6  503    0 -0.12741716268E+03  0.11588891197E+03 -0.50660762000E+02  0.17953240952E+03  0.00000000000E+00 0. -1.
         -2    1    6    6    0  503 -0.37821788604E+02 -0.16386564602E+02 -0.85170619364E+01  0.42089755721E+02  0.00000000000E+00 0.  1.
<mgrwt>
<rscale>  0 0.18282236E+04</rscale>
<asrwt>0</asrwt>
<pdfrwt beam="1">  1        3 0.12492307E+00 0.18282236E+04</pdfrwt>
<pdfrwt beam="2">  1       -4 0.15831763E+00 0.18282236E+04</pdfrwt>
<totfact> 0.28487865E-01</totfact>
</mgrwt>
</event>
<event>
12    4  0.4320235E-008  0.1330602E+04  0.7818608E-02  0.9005644E-01
         -2   -1    0    0    0  501 -0.00000000000E+00  0.00000000000E+00  0.57497257726E+03  0.57497257726E+03  0.00000000000E+00 0.  1.
          1   -1    0    0  501    0  0.00000000000E+00 -0.00000000000E+00 -0.76981984868E+03  0.76981984868E+03  0.00000000000E+00 0. -1.
        -24    2    1    2    0    0 -0.16555201068E+02  0.28244972463E+03 -0.27857604486E+03  0.40500216122E+03  0.79813634157E+02 0.  0.
        254    2    1    2    0    0  0.16555201068E+02 -0.28244972463E+03  0.83728773435E+02  0.93979026472E+03  0.89226863249E+03 0.  0.
         23    2    4    4    0    0 -0.18412787259E+03  0.72104428467E+01  0.40541772548E+03  0.45450905387E+03  0.90883903813E+02 0.  0.
         23    2    4    4    0    0  0.20068307366E+03 -0.28966016748E+03 -0.32168895204E+03  0.48528121084E+03  0.88528882618E+02 0.  0.
          1    1    3    3  502    0 -0.49195439690E+01  0.27942555106E+03 -0.27584307518E+03  0.39267320079E+03  0.00000000000E+00 0. -1.
         -2    1    3    3    0  502 -0.11635657099E+02  0.30241735703E+01 -0.27329696820E+01  0.12328960427E+02  0.00000000000E+00 0.  1.
         11    1    5    5    0    0 -0.10115490762E+03 -0.25047319797E+02  0.13977656943E+03  0.17434785037E+03  0.00000000000E+00 0. -1.
        -11    1    5    5    0    0 -0.82972964969E+02  0.32257762643E+02  0.26564115604E+03  0.28016120351E+03  0.00000000000E+00 0.  1.
          3    1    6    6  503    0  0.50299410331E+02 -0.74648480421E+02 -0.34815725690E+02  0.96511973683E+02  0.00000000000E+00 0. -1.
         -3    1    6    6    0  503  0.15038366333E+03 -0.21501168706E+03 -0.28687322635E+03  0.38876923716E+03  0.00000000000E+00 0.  1.
<mgrwt>
<rscale>  0 0.13306018E+04</rscale>
<asrwt>0</asrwt>
<pdfrwt beam="1">  1        1 0.11843382E+00 0.13306018E+04</pdfrwt>
<pdfrwt beam="2">  1       -2 0.88457319E-01 0.13306018E+04</pdfrwt>
<totfact> 0.22203650E+01</totfact>
</mgrwt>
</event>
<event>
12    4  0.4320235E-008  0.1267626E+04  0.7818608E-02  0.9055639E-01
         -2   -1    0    0    0  501 -0.00000000000E+00  0.00000000000E+00  0.30259904745E+03  0.30259904745E+03  0.00000000000E+00 0.  1.
          3   -1    0    0  501    0  0.00000000000E+00 -0.00000000000E+00 -0.13275623535E+04  0.13275623535E+04  0.00000000000E+00 0. -1.
        -24    2    1    2    0    0  0.27130058901E+03 -0.14031801556E+03 -0.19852516645E+03  0.37232421180E+03  0.76941028642E+02 0.  0.
        254    2    1    2    0    0 -0.27130058901E+03  0.14031801556E+03 -0.82643813961E+03  0.12578371892E+04  0.89769774466E+03 0.  0.
         23    2    4    4    0    0  0.73590491946E+02 -0.19871743944E+03  0.64703880288E+02  0.23963012830E+03  0.91278831201E+02 0.  0.
         23    2    4    4    0    0 -0.34489108095E+03  0.33903545500E+03 -0.89114201990E+03  0.10182070609E+04  0.93362849632E+02 0.  0.
          3    1    3    3  502    0  0.58636424069E+02 -0.20780826017E+02 -0.79306173811E+02  0.10079455423E+03  0.00000000000E+00 0. -1.
         -4    1    3    3    0  502  0.21266416494E+03 -0.11953718955E+03 -0.11921899264E+03  0.27152965757E+03  0.00000000000E+00 0.  1.
         11    1    5    5    0    0  0.35264070224E+02 -0.14725076685E+03  0.83306219844E+02  0.17281860216E+03  0.00000000000E+00 0.  1.
        -11    1    5    5    0    0  0.38326421722E+02 -0.51466672584E+02 -0.18602339556E+02  0.66811526145E+02  0.00000000000E+00 0. -1.
          1    1    6    6  503    0 -0.30390657857E+02  0.21895584919E+02 -0.29480653761E+02  0.47666735467E+02  0.00000000000E+00 0. -1.
         -1    1    6    6    0  503 -0.31450042310E+03  0.31713987008E+03 -0.86166136614E+03  0.97054032540E+03  0.00000000000E+00 0.  1.
<mgrwt>
<rscale>  0 0.12676263E+04</rscale>
<asrwt>0</asrwt>
<pdfrwt beam="1">  1        3 0.20424036E+00 0.12676263E+04</pdfrwt>
<pdfrwt beam="2">  1       -2 0.46553700E-01 0.12676263E+04</pdfrwt>
<totfact> 0.24412298E+00</totfact>
</mgrwt>
</event>
<event>
12    4  0.4320235E-008  0.1998282E+04  0.7818608E-02  0.8607424E-01
          1   -1    0    0  501    0  0.00000000000E+00  0.00000000000E+00  0.78315688491E+03  0.78315688491E+03  0.00000000000E+00 0. -1.
         -2   -1    0    0    0  501 -0.00000000000E+00 -0.00000000000E+00 -0.12746910347E+04  0.12746910347E+04  0.00000000000E+00 0.  1.
        -24    2    1    2    0    0  0.65265078566E+03  0.45070528193E+03 -0.15714243751E+03  0.81248048873E+03  0.79639812407E+02 0.  0.
        254    2    1    2    0    0 -0.65265078566E+03 -0.45070528193E+03 -0.33439171233E+03  0.12453674309E+04  0.90001884512E+03 0.  0.
         23    2    4    4    0    0 -0.60956056252E+03 -0.50065868112E+02 -0.50350913879E+03  0.79816636943E+03  0.97352092557E+02 0.  0.
         23    2    4    4    0    0 -0.43090223141E+02 -0.40063941382E+03  0.16911742646E+03  0.44720106149E+03  0.94970407152E+02 0.  0.
          3    1    3    3  502    0  0.38797319646E+03  0.27342039560E+03 -0.54345966430E+02  0.47773988526E+03  0.00000000000E+00 0. -1.
         -4    1    3    3    0  502  0.26467758920E+03  0.17728488633E+03 -0.10279647108E+03  0.33474060347E+03  0.00000000000E+00 0.  1.
         11    1    5    5    0    0 -0.93361516021E+02  0.21942935143E+02 -0.10397213702E+03  0.14144988637E+03  0.00000000000E+00 0.  1.
        -11    1    5    5    0    0 -0.51619904650E+03 -0.72008803255E+02 -0.39953700176E+03  0.65671648307E+03  0.00000000000E+00 0. -1.
          4    1    6    6  503    0 -0.28593172020E+02 -0.30118360922E+03  0.80150975655E+02  0.31297494284E+03  0.00000000000E+00 0. -1.
         -4    1    6    6    0  503 -0.14497051121E+02 -0.99455804597E+02  0.88966450805E+02  0.13422611865E+03  0.00000000000E+00 0.  1.
<mgrwt>
<rscale>  0 0.19982823E+04</rscale>
<asrwt>0</asrwt>
<pdfrwt beam="1">  1        1 0.12048568E+00 0.19982823E+04</pdfrwt>
<pdfrwt beam="2">  1       -2 0.19610631E+00 0.19982823E+04</pdfrwt>
<totfact> 0.26226531E+00</totfact>
</mgrwt>
</event>
<event>
12    4  0.4320235E-008  0.1673182E+04  0.7818608E-02  0.8776809E-01
          1   -1    0    0  501    0  0.00000000000E+00  0.00000000000E+00  0.14395894893E+04  0.14395894893E+04  0.00000000000E+00 0. -1.
         -2   -1    0    0    0  501 -0.00000000000E+00 -0.00000000000E+00 -0.48616943464E+03  0.48616943464E+03  0.00000000000E+00 0.  1.
        -24    2    1    2    0    0  0.43538239922E+02  0.56111591669E+03  0.55010063079E+03  0.79097370768E+03  0.79259396546E+02 0.  0.
        254    2    1    2    0    0 -0.43538239922E+02 -0.56111591669E+03  0.40331942388E+03  0.11347852163E+04  0.89906856195E+03 0.  0.
         23    2    4    4    0    0  0.33116974999E+03 -0.18370830391E+03  0.44758474762E+03  0.59359743539E+03  0.92755941983E+02 0.  0.
         23    2    4    4    0    0 -0.37470798991E+03 -0.37740761278E+03 -0.44265323733E+02  0.54118778088E+03  0.89901120094E+02 0.  0.
          3    1    3    3  502    0  0.62466069815E+02  0.51021904992E+03  0.49970271049E+03  0.71688791847E+03  0.00000000000E+00 0. -1.
         -4    1    3    3    0  502 -0.18927829894E+02  0.50896866768E+02  0.50397920305E+02  0.74085789206E+02  0.00000000000E+00 0.  1.
         11    1    5    5    0    0  0.28204556089E+03 -0.14000834758E+03  0.41288109938E+03  0.51925219117E+03  0.00000000000E+00 0.  1.
        -11    1    5    5    0    0  0.49124189103E+02 -0.43699956327E+02  0.34703648240E+02  0.74345244227E+02  0.00000000000E+00 0. -1.
          2    1    6    6  503    0 -0.13200937520E+03 -0.15537533665E+03  0.23842718548E+02  0.20527163858E+03  0.00000000000E+00 0. -1.
         -2    1    6    6    0  503 -0.24269861472E+03 -0.22203227613E+03 -0.68108042281E+02  0.33591614229E+03  0.00000000000E+00 0.  1.
<mgrwt>
<rscale>  0 0.16731819E+04</rscale>
<asrwt>0</asrwt>
<pdfrwt beam="1">  1        1 0.22147530E+00 0.16731819E+04</pdfrwt>
<pdfrwt beam="2">  1       -2 0.74795298E-01 0.16731819E+04</pdfrwt>
<totfact> 0.96893553E+00</totfact>
</mgrwt>
</event>
<event>
12    4  0.4320235E-008  0.1020587E+04  0.7818608E-02  0.9286249E-01
         -2   -1    0    0    0  501 -0.00000000000E+00  0.00000000000E+00  0.30144800746E+03  0.30144800746E+03  0.00000000000E+00 0.  1.
          1   -1    0    0  501    0  0.00000000000E+00 -0.00000000000E+00 -0.86382878556E+03  0.86382878556E+03  0.00000000000E+00 0. -1.
        -24    2    1    2    0    0 -0.38699451050E+02 -0.50085320045E+01  0.48104773201E+02  0.84192845660E+02  0.57023093140E+02 0.  0.
        254    2    1    2    0    0  0.38699451050E+02  0.50085320045E+01 -0.61048555130E+03  0.10810839474E+04  0.89136253006E+03 0.  0.
         23    2    4    4    0    0  0.23241808042E+03  0.16799832864E+03 -0.72756314168E+03  0.78731323821E+03  0.90952775640E+02 0.  0.
         23    2    4    4    0    0 -0.19371862937E+03 -0.16298979664E+03  0.11707759039E+03  0.29377070915E+03  0.92203504332E+02 0.  0.
          1    1    3    3  502    0 -0.69375403002E+01  0.16387991239E+01 -0.13102206897E+02  0.14915862482E+02  0.00000000000E+00 0. -1.
         -2    1    3    3    0  502 -0.31761910750E+02 -0.66473311283E+01  0.61206980098E+02  0.69276983179E+02  0.00000000000E+00 0.  1.
         11    1    5    5    0    0  0.14552969210E+03  0.59874428227E+02 -0.31621830490E+03  0.35321077955E+03  0.00000000000E+00 0. -1.
        -11    1    5    5    0    0  0.86888388314E+02  0.10812390041E+03 -0.41134483679E+03  0.43410245866E+03  0.00000000000E+00 0.  1.
          1    1    6    6  503    0 -0.18086225716E+03 -0.10910781192E+03  0.10931506387E+03  0.23783492989E+03  0.00000000000E+00 0. -1.
         -1    1    6    6    0  503 -0.12856372209E+02 -0.53881984717E+02  0.77625265169E+01  0.55935779259E+02  0.00000000000E+00 0.  1.
<mgrwt>
<rscale>  0 0.10205870E+04</rscale>
<asrwt>0</asrwt>
<pdfrwt beam="1">  1        1 0.13289673E+00 0.10205870E+04</pdfrwt>
<pdfrwt beam="2">  1       -2 0.46376617E-01 0.10205870E+04</pdfrwt>
<totfact> 0.75418431E+01</totfact>
</mgrwt>
</event>
<event>
12    4  0.4320235E-008  0.2462092E+04  0.7818608E-02  0.8416616E-01
         -2   -1    0    0    0  501 -0.00000000000E+00  0.00000000000E+00  0.11145563375E+04  0.11145563375E+04  0.00000000000E+00 0.  1.
          1   -1    0    0  501    0  0.00000000000E+00 -0.00000000000E+00 -0.13597104511E+04  0.13597104511E+04  0.00000000000E+00 0. -1.
        -24    2    1    2    0    0  0.93824089421E+03  0.33898595781E+03  0.26958952188E+03  0.10364694637E+04  0.79893577725E+02 0.  0.
        254    2    1    2    0    0 -0.93824089421E+03 -0.33898595781E+03 -0.51474363551E+03  0.14377973249E+04  0.89838337138E+03 0.  0.
         23    2    4    4    0    0 -0.43713246683E+03 -0.51052385481E+03 -0.58531187247E+03  0.89565971646E+03  0.88864727213E+02 0.  0.
         23    2    4    4    0    0 -0.50110842737E+03  0.17153789700E+03  0.70568236960E+02  0.54213760842E+03  0.91642808237E+02 0.  0.
          1    1    3    3  502    0  0.47466211567E+03  0.15179923911E+03  0.97926090233E+02  0.50787464221E+03  0.00000000000E+00 0. -1.
         -2    1    3    3    0  502  0.46357877854E+03  0.18718671870E+03  0.17166343165E+03  0.52859482152E+03  0.00000000000E+00 0.  1.
         11    1    5    5    0    0 -0.69338799551E+02 -0.82660740405E+02 -0.14075727134E+03  0.17735071627E+03  0.00000000000E+00 0. -1.
        -11    1    5    5    0    0 -0.36779366728E+03 -0.42786311441E+03 -0.44455460113E+03  0.71830900019E+03  0.00000000000E+00 0.  1.
          2    1    6    6  503    0 -0.99777417689E+02  0.46037943925E+02 -0.20779752345E+02  0.11183391019E+03  0.00000000000E+00 0. -1.
         -2    1    6    6    0  503 -0.40133100968E+03  0.12549995308E+03  0.91347989305E+02  0.43030369823E+03  0.00000000000E+00 0.  1.
<mgrwt>
<rscale>  0 0.24620917E+04</rscale>
<asrwt>0</asrwt>
<pdfrwt beam="1">  1        1 0.20918622E+00 0.24620917E+04</pdfrwt>
<pdfrwt beam="2">  1       -2 0.17147021E+00 0.24620917E+04</pdfrwt>
<totfact> 0.13353190E+00</totfact>
</mgrwt>
</event>
<event>
12    4  0.4320235E-008  0.1078224E+04  0.7818608E-02  0.9226680E-01
         -2   -1    0    0    0  501 -0.00000000000E+00  0.00000000000E+00  0.18475551344E+03  0.18475551344E+03  0.00000000000E+00 0.  1.
          1   -1    0    0  501    0  0.00000000000E+00 -0.00000000000E+00 -0.15731163142E+04  0.15731163142E+04  0.00000000000E+00 0. -1.
        -24    2    1    2    0    0 -0.95539357375E+00  0.88544519494E+02  0.15539385599E+00  0.11694199906E+03  0.76382997377E+02 0.  0.
        254    2    1    2    0    0  0.95539357375E+00 -0.88544519494E+02 -0.13885161946E+04  0.16409298285E+04  0.86996116859E+03 0.  0.
         23    2    4    4    0    0  0.25353136431E+02  0.37799747043E+03 -0.72809111313E+03  0.82667191481E+03  0.98716343800E+02 0.  0.
         23    2    4    4    0    0 -0.24397742857E+02 -0.46654198993E+03 -0.66042508146E+03  0.81425791373E+03  0.92725312831E+02 0.  0.
          3    1    3    3  502    0  0.15893659983E+02  0.63350779781E+02 -0.32018870108E+02  0.72740207379E+02  0.00000000000E+00 0. -1.
         -4    1    3    3    0  502 -0.16849053557E+02  0.25193739712E+02  0.32174263964E+02  0.44201791684E+02  0.00000000000E+00 0.  1.
         11    1    5    5    0    0  0.12353309475E+02  0.62340908689E+02 -0.21427422569E+03  0.22350041823E+03  0.00000000000E+00 0.  1.
        -11    1    5    5    0    0  0.12999826956E+02  0.31565656174E+03 -0.51381688744E+03  0.60317149658E+03  0.00000000000E+00 0. -1.
          3    1    6    6  503    0 -0.48279853656E+02 -0.37868235348E+03 -0.49126370378E+03  0.62215054108E+03  0.00000000000E+00 0.  1.
         -3    1    6    6    0  503  0.23882110799E+02 -0.87859636442E+02 -0.16916137768E+03  0.19210737266E+03  0.00000000000E+00 0. -1.
<mgrwt>
<rscale>  0 0.10782243E+04</rscale>
<asrwt>0</asrwt>
<pdfrwt beam="1">  1        1 0.24201789E+00 0.10782243E+04</pdfrwt>
<pdfrwt beam="2">  1       -2 0.28423925E-01 0.10782243E+04</pdfrwt>
<totfact> 0.57822856E+01</totfact>
</mgrwt>
</event>
<event>
12    4  0.4320235E-008  0.3076368E+04  0.7818608E-02  0.8222254E-01
         -2   -1    0    0    0  501 -0.00000000000E+00  0.00000000000E+00  0.14173125962E+04  0.14173125962E+04  0.00000000000E+00 0.  1.
          1   -1    0    0  501    0  0.00000000000E+00 -0.00000000000E+00 -0.16693631453E+04  0.16693631453E+04  0.00000000000E+00 0. -1.
        -24    2    1    2    0    0 -0.10247650440E+04 -0.23880202145E+03  0.82030399559E+03  0.13371539488E+04  0.88950754514E+02 0.  0.
        254    2    1    2    0    0  0.10247650440E+04  0.23880202145E+03 -0.10723545447E+04  0.17495217927E+04  0.89650010183E+03 0.  0.
         23    2    4    4    0    0  0.76268261146E+03  0.35461384000E+03 -0.26301794288E+03  0.88631041590E+03  0.94509119711E+02 0.  0.
         23    2    4    4    0    0  0.26208243257E+03 -0.11581181855E+03 -0.80933660184E+03  0.86321137678E+03  0.89490598135E+02 0.  0.
          3    1    3    3  502    0 -0.74145502947E+02 -0.40232428497E+02  0.54933561224E+02  0.10066727402E+03  0.00000000000E+00 0. -1.
         -4    1    3    3    0  502 -0.95061954109E+03 -0.19856959295E+03  0.76537043436E+03  0.12364866748E+04  0.00000000000E+00 0.  1.
         11    1    5    5    0    0  0.12859714196E+03  0.22574852617E+02 -0.44406960948E+02  0.13790876358E+03  0.00000000000E+00 0. -1.
        -11    1    5    5    0    0  0.63408546950E+03  0.33203898738E+03 -0.21861098193E+03  0.74840165232E+03  0.00000000000E+00 0.  1.
          4    1    6    6  503    0  0.24267319558E+02 -0.94697371224E+01 -0.22671371051E+02  0.34533603708E+02  0.00000000000E+00 0. -1.
         -4    1    6    6    0  503  0.23781511301E+03 -0.10634208143E+03 -0.78666523079E+03  0.82867777308E+03  0.00000000000E+00 0.  1.
<mgrwt>
<rscale>  0 0.30763676E+04</rscale>
<asrwt>0</asrwt>
<pdfrwt beam="1">  1        1 0.25682510E+00 0.30763676E+04</pdfrwt>
<pdfrwt beam="2">  1       -2 0.21804809E+00 0.30763676E+04</pdfrwt>
<totfact> 0.37786807E-01</totfact>
</mgrwt>
</event>
<event>
12    4  0.4320235E-008  0.2175862E+04  0.7818608E-02  0.8528542E-01
          1   -1    0    0  501    0  0.00000000000E+00  0.00000000000E+00  0.29563976896E+04  0.29563976896E+04  0.00000000000E+00 0. -1.
         -2   -1    0    0    0  501 -0.00000000000E+00 -0.00000000000E+00 -0.40035019862E+03  0.40035019862E+03  0.00000000000E+00 0.  1.
        -24    2    1    2    0    0 -0.11391957001E+03  0.58529883853E+03  0.21242954193E+02  0.60212291719E+03  0.80921848050E+02 0.  0.
        254    2    1    2    0    0  0.11391957001E+03 -0.58529883853E+03  0.25348045368E+04  0.27546249711E+04  0.89842767794E+03 0.  0.
         23    2    4    4    0    0  0.40924678668E+03 -0.85804001050E+01  0.11142615423E+04  0.11905587144E+04  0.91075310012E+02 0.  0.
         23    2    4    4    0    0 -0.29532721668E+03 -0.57671843842E+03  0.14205429945E+04  0.15640662567E+04  0.92404187329E+02 0.  0.
          1    1    3    3  502    0 -0.23775397096E+02  0.19900242529E+03  0.42517839309E+02  0.20487801600E+03  0.00000000000E+00 0. -1.
         -2    1    3    3    0  502 -0.90144172911E+02  0.38629641323E+03 -0.21274885116E+02  0.39724490119E+03  0.00000000000E+00 0.  1.
         11    1    5    5    0    0  0.35942940643E+03  0.17772326561E+02  0.90735495133E+03  0.97611390806E+03  0.00000000000E+00 0.  1.
        -11    1    5    5    0    0  0.49817380250E+02 -0.26352726666E+02  0.20690659098E+03  0.21444480634E+03  0.00000000000E+00 0. -1.
          2    1    6    6  503    0 -0.11157078371E+03 -0.31338478300E+03  0.68584828129E+03  0.76226368596E+03  0.00000000000E+00 0.  1.
         -2    1    6    6    0  503 -0.18375643296E+03 -0.26333365542E+03  0.73469471323E+03  0.80180257070E+03  0.00000000000E+00 0. -1.
<mgrwt>
<rscale>  0 0.21758625E+04</rscale>
<asrwt>0</asrwt>
<pdfrwt beam="1">  1        1 0.45483040E+00 0.21758625E+04</pdfrwt>
<pdfrwt beam="2">  1       -2 0.61592340E-01 0.21758625E+04</pdfrwt>
<totfact> 0.12661172E+00</totfact>
</mgrwt>
</event>
<event>
12    4  0.4320235E-008  0.1426440E+04  0.7818608E-02  0.8934899E-01
         -2   -1    0    0    0  501 -0.00000000000E+00  0.00000000000E+00  0.11739528175E+04  0.11739528175E+04  0.00000000000E+00 0.  1.
          1   -1    0    0  501    0  0.00000000000E+00 -0.00000000000E+00 -0.43330793574E+03  0.43330793574E+03  0.00000000000E+00 0. -1.
        -24    2    1    2    0    0  0.36945922258E+03  0.17406297879E+03  0.84385311240E+02  0.42469612514E+03  0.80298693808E+02 0.  0.
        254    2    1    2    0    0 -0.36945922258E+03 -0.17406297879E+03  0.65625957051E+03  0.11825646281E+04  0.89497733938E+03 0.  0.
         23    2    4    4    0    0  0.10810805379E+03 -0.34426679892E+03  0.53723029797E+03  0.65383797441E+03  0.93170400840E+02 0.  0.
         23    2    4    4    0    0 -0.47756727637E+03  0.17020382013E+03  0.11902927254E+03  0.52872665368E+03  0.91345841433E+02 0.  0.
          1    1    3    3  502    0  0.27515308819E+03  0.16560889638E+03  0.72903824070E+02  0.32931822917E+03  0.00000000000E+00 0. -1.
         -2    1    3    3    0  502  0.94306134385E+02  0.84540824079E+01  0.11481487170E+02  0.95377895970E+02  0.00000000000E+00 0.  1.
         11    1    5    5    0    0  0.10824469263E+02 -0.18775005250E+03  0.28504344910E+03  0.34149234138E+03  0.00000000000E+00 0. -1.
        -11    1    5    5    0    0  0.97283584532E+02 -0.15651674642E+03  0.25218684887E+03  0.31234563303E+03  0.00000000000E+00 0.  1.
          1    1    6    6  503    0 -0.22070552283E+03  0.12322542003E+03  0.40103305830E+02  0.25593692014E+03  0.00000000000E+00 0. -1.
         -1    1    6    6    0  503 -0.25686175354E+03  0.46978400093E+02  0.78925966710E+02  0.27278973355E+03  0.00000000000E+00 0.  1.
<mgrwt>
<rscale>  0 0.14264404E+04</rscale>
<asrwt>0</asrwt>
<pdfrwt beam="1">  1        1 0.66662760E-01 0.14264404E+04</pdfrwt>
<pdfrwt beam="2">  1       -2 0.18060812E+00 0.14264404E+04</pdfrwt>
<totfact> 0.82226983E+00</totfact>
</mgrwt>
</event>
<event>
12    4  0.4320235E-008  0.1217035E+04  0.7818608E-02  0.9098075E-01
         -2   -1    0    0    0  501 -0.00000000000E+00  0.00000000000E+00  0.74972776497E+03  0.74972776497E+03  0.00000000000E+00 0.  1.
          1   -1    0    0  501    0  0.00000000000E+00 -0.00000000000E+00 -0.49390384747E+03  0.49390384747E+03  0.00000000000E+00 0. -1.
        -24    2    1    2    0    0 -0.24527495581E+03  0.75799882451E+02 -0.20435157914E+02  0.26913681665E+03  0.78176750201E+02 0.  0.
        254    2    1    2    0    0  0.24527495581E+03 -0.75799882451E+02  0.27625907541E+03  0.97449479578E+03  0.89856307744E+03 0.  0.
         23    2    4    4    0    0 -0.16438601425E+03  0.21485438033E+03 -0.13826756688E+03  0.31667919112E+03  0.89345529337E+02 0.  0.
         23    2    4    4    0    0  0.40966097005E+03 -0.29065426278E+03  0.41452664229E+03  0.65781560466E+03  0.92666184311E+02 0.  0.
          1    1    3    3  502    0 -0.15350518348E+03  0.68866759648E+02 -0.44461504701E+02  0.17402096811E+03  0.00000000000E+00 0. -1.
         -4    1    3    3    0  502 -0.91769772328E+02  0.69331228034E+01  0.24026346787E+02  0.95115848548E+02  0.00000000000E+00 0.  1.
         11    1    5    5    0    0  0.90300389495E+01  0.35671886406E+00 -0.52360706029E+01  0.10444390223E+02  0.00000000000E+00 0. -1.
        -11    1    5    5    0    0 -0.17341605319E+03  0.21449766146E+03 -0.13303149628E+03  0.30623480090E+03  0.00000000000E+00 0.  1.
          4    1    6    6  503    0  0.49621091959E+02 -0.11071729307E+02  0.69533434306E+02  0.86137880421E+02  0.00000000000E+00 0. -1.
         -4    1    6    6    0  503  0.36003987810E+03 -0.27958253347E+03  0.34499320798E+03  0.57167772424E+03  0.00000000000E+00 0.  1.
<mgrwt>
<rscale>  0 0.12170348E+04</rscale>
<asrwt>0</asrwt>
<pdfrwt beam="1">  1        1 0.75985207E-01 0.12170348E+04</pdfrwt>
<pdfrwt beam="2">  1       -2 0.11534273E+00 0.12170348E+04</pdfrwt>
<totfact> 0.22805303E+01</totfact>
</mgrwt>
</event>
<event>
12    4  0.4320235E-008  0.2319131E+04  0.7818608E-02  0.8470416E-01
          1   -1    0    0  501    0  0.00000000000E+00  0.00000000000E+00  0.10951486460E+04  0.10951486460E+04  0.00000000000E+00 0. -1.
         -2   -1    0    0    0  501 -0.00000000000E+00 -0.00000000000E+00 -0.12277714026E+04  0.12277714026E+04  0.00000000000E+00 0.  1.
        -24    2    1    2    0    0  0.11919738501E+03  0.96158622294E+03  0.11908756423E+03  0.98022396440E+03  0.88323788947E+02 0.  0.
        254    2    1    2    0    0 -0.11919738501E+03 -0.96158622294E+03 -0.25171032073E+03  0.13426960842E+04  0.89477293668E+03 0.  0.
         23    2    4    4    0    0 -0.27875410084E+02 -0.80979477537E+02 -0.41861298858E+03  0.43706560021E+03  0.91949934259E+02 0.  0.
         23    2    4    4    0    0 -0.91321974930E+02 -0.88060674540E+03  0.16690266785E+03  0.90563048399E+03  0.92206994509E+02 0.  0.
          1    1    3    3  502    0  0.10009911741E+03  0.92224022725E+03  0.10191857467E+03  0.93323859003E+03  0.00000000000E+00 0. -1.
         -2    1    3    3    0  502  0.19098267603E+02  0.39345995692E+02  0.17168989557E+02  0.46985374372E+02  0.00000000000E+00 0.  1.
         11    1    5    5    0    0  0.27125933451E+02 -0.33916629677E+02 -0.82362006048E+02  0.93110977196E+02  0.00000000000E+00 0. -1.
        -11    1    5    5    0    0 -0.55001343535E+02 -0.47062847860E+02 -0.33625098253E+03  0.34395462302E+03  0.00000000000E+00 0.  1.
          4    1    6    6  503    0 -0.44746848590E+02 -0.17585290176E+03  0.61049183603E+02  0.19145110690E+03  0.00000000000E+00 0. -1.
         -4    1    6    6    0  503 -0.46575126340E+02 -0.70475384365E+03  0.10585348425E+03  0.71417937709E+03  0.00000000000E+00 0.  1.
<mgrwt>
<rscale>  0 0.23191310E+04</rscale>
<asrwt>0</asrwt>
<pdfrwt beam="1">  1        1 0.16848441E+00 0.23191310E+04</pdfrwt>
<pdfrwt beam="2">  1       -2 0.18888791E+00 0.23191310E+04</pdfrwt>
<totfact> 0.15957411E+00</totfact>
</mgrwt>
</event>
<event>
12    4  0.4320235E-008  0.1192972E+04  0.7818608E-02  0.9119030E-01
         -2   -1    0    0    0  501 -0.00000000000E+00  0.00000000000E+00  0.19670113150E+03  0.19670113150E+03  0.00000000000E+00 0.  1.
          1   -1    0    0  501    0  0.00000000000E+00 -0.00000000000E+00 -0.18088135600E+04  0.18088135600E+04  0.00000000000E+00 0. -1.
        -24    2    1    2    0    0  0.36851185980E+02  0.23556155636E+03 -0.11485613737E+03  0.27693971321E+03  0.81586859986E+02 0.  0.
        254    2    1    2    0    0 -0.36851185980E+02 -0.23556155636E+03 -0.14972562912E+04  0.17285749783E+04  0.83026971370E+03 0.  0.
         23    2    4    4    0    0 -0.34430877395E+03 -0.15020639032E+02 -0.11588559787E+04  0.12125475183E+04  0.92467038217E+02 0.  0.
         23    2    4    4    0    0  0.30745758797E+03 -0.22054091732E+03 -0.33840031241E+03  0.51602746005E+03  0.92742134239E+02 0.  0.
          1    1    3    3  502    0 -0.78759144502E+01  0.64583652153E+01 -0.24679411810E+02  0.26698574437E+02  0.00000000000E+00 0. -1.
         -2    1    3    3    0  502  0.44727100430E+02  0.22910319114E+03 -0.90176725562E+02  0.25024113878E+03  0.00000000000E+00 0.  1.
         11    1    5    5    0    0 -0.83370534568E+02  0.30738150745E+01 -0.43391590331E+03  0.44186322038E+03  0.00000000000E+00 0.  1.
        -11    1    5    5    0    0 -0.26093823939E+03 -0.18094454107E+02 -0.72494007542E+03  0.77068429788E+03  0.00000000000E+00 0. -1.
          2    1    6    6  503    0  0.23959548017E+03 -0.20707201262E+03 -0.30310931665E+03  0.43836066244E+03  0.00000000000E+00 0. -1.
         -2    1    6    6    0  503  0.67862107801E+02 -0.13468904701E+02 -0.35290995762E+02  0.77666797609E+02  0.00000000000E+00 0.  1.
<mgrwt>
<rscale>  0 0.11929722E+04</rscale>
<asrwt>0</asrwt>
<pdfrwt beam="1">  1        1 0.27827902E+00 0.11929722E+04</pdfrwt>
<pdfrwt beam="2">  1       -2 0.30261711E-01 0.11929722E+04</pdfrwt>
<totfact> 0.35266897E+01</totfact>
</mgrwt>
</event>
<event>
12    4  0.4320235E-008  0.1218104E+04  0.7818608E-02  0.9097156E-01
          1   -1    0    0  501    0  0.00000000000E+00  0.00000000000E+00  0.37208874623E+03  0.37208874623E+03  0.00000000000E+00 0. -1.
         -2   -1    0    0    0  501 -0.00000000000E+00 -0.00000000000E+00 -0.99692440024E+03  0.99692440024E+03  0.00000000000E+00 0.  1.
        -24    2    1    2    0    0 -0.45177720704E+02  0.17097853193E+03  0.87550680707E+02  0.21288998359E+03  0.79889539925E+02 0.  0.
        254    2    1    2    0    0  0.45177720704E+02 -0.17097853193E+03 -0.71238633472E+03  0.11561231629E+04  0.89322549956E+03 0.  0.
         23    2    4    4    0    0  0.28414073966E+03 -0.30299070439E+03 -0.75118925614E+03  0.86343441521E+03  0.93243573276E+02 0.  0.
         23    2    4    4    0    0 -0.23896301896E+03  0.13201217246E+03  0.38802921421E+02  0.29268874768E+03  0.98135101771E+02 0.  0.
          1    1    3    3  502    0  0.19020057037E+02  0.75134989258E+02  0.46841318712E+02  0.90560136479E+02  0.00000000000E+00 0. -1.
         -2    1    3    3    0  502 -0.64197777741E+02  0.95843542674E+02  0.40709361995E+02  0.12232984711E+03  0.00000000000E+00 0.  1.
         11    1    5    5    0    0  0.82989342407E+02 -0.41253433798E+02 -0.12556155545E+03  0.15606018378E+03  0.00000000000E+00 0.  1.
        -11    1    5    5    0    0  0.20115139725E+03 -0.26173727060E+03 -0.62562770068E+03  0.70737423144E+03  0.00000000000E+00 0. -1.
          4    1    6    6  503    0 -0.16216682939E+03  0.76705398004E+02  0.70696115906E+02  0.19282048501E+03  0.00000000000E+00 0. -1.
         -4    1    6    6    0  503 -0.76796189569E+02  0.55306774459E+02 -0.31893194485E+02  0.99868262665E+02  0.00000000000E+00 0.  1.
<mgrwt>
<rscale>  0 0.12181040E+04</rscale>
<asrwt>0</asrwt>
<pdfrwt beam="1">  1        1 0.57244424E-01 0.12181040E+04</pdfrwt>
<pdfrwt beam="2">  1       -2 0.15337298E+00 0.12181040E+04</pdfrwt>
<totfact> 0.16086797E+01</totfact>
</mgrwt>
</event>
<event>
12    4  0.4320235E-008  0.3531370E+04  0.7818608E-02  0.8106396E-01
          1   -1    0    0  501    0  0.00000000000E+00  0.00000000000E+00  0.40424951797E+04  0.40424951797E+04  0.00000000000E+00 0. -1.
         -2   -1    0    0    0  501 -0.00000000000E+00 -0.00000000000E+00 -0.77121752283E+03  0.77121752283E+03  0.00000000000E+00 0.  1.
        -24    2    1    2    0    0  0.55098644581E+03  0.19921645899E+03 -0.57308871100E+03  0.82337843402E+03  0.79045012089E+02 0.  0.
        254    2    1    2    0    0 -0.55098644581E+03 -0.19921645899E+03  0.38443663679E+04  0.39903342686E+04  0.89461809899E+03 0.  0.
         23    2    4    4    0    0  0.19862148588E+03  0.11963776380E+03  0.86425585114E+03  0.89959351627E+03  0.92556086260E+02 0.  0.
         23    2    4    4    0    0 -0.74960793169E+03 -0.31885422279E+03  0.29801105168E+04  0.30907407523E+04  0.89664034098E+02 0.  0.
          1    1    3    3  502    0  0.16563284417E+03  0.62822525608E+02 -0.22577492565E+03  0.28697600221E+03  0.00000000000E+00 0. -1.
         -2    1    3    3    0  502  0.38535360164E+03  0.13639393338E+03 -0.34731378535E+03  0.53640243181E+03  0.00000000000E+00 0.  1.
         11    1    5    5    0    0  0.12080505119E+03  0.46703024811E+02  0.32433241204E+03  0.34923709199E+03  0.00000000000E+00 0.  1.
        -11    1    5    5    0    0  0.77816434686E+02  0.72934738988E+02  0.53992343910E+03  0.55035642428E+03  0.00000000000E+00 0. -1.
          1    1    6    6  503    0 -0.18928495167E+02 -0.20953535582E+02  0.68264500172E+02  0.73874085892E+02  0.00000000000E+00 0. -1.
         -1    1    6    6    0  503 -0.73067943652E+03 -0.29790068720E+03  0.29118460166E+04  0.30168666664E+04  0.00000000000E+00 0.  1.
<mgrwt>
<rscale>  0 0.35313698E+04</rscale>
<asrwt>0</asrwt>
<pdfrwt beam="1">  1        1 0.62192232E+00 0.35313698E+04</pdfrwt>
<pdfrwt beam="2">  1       -2 0.11864885E+00 0.35313698E+04</pdfrwt>
<totfact> 0.34362879E-02</totfact>
</mgrwt>
</event>
<event>
12    4  0.4320235E-008  0.2196558E+04  0.7818608E-02  0.8519862E-01
         -4   -1    0    0    0  501 -0.00000000000E+00  0.00000000000E+00  0.14197488861E+04  0.14197488861E+04  0.00000000000E+00 0.  1.
          1   -1    0    0  501    0  0.00000000000E+00 -0.00000000000E+00 -0.84959885512E+03  0.84959885512E+03  0.00000000000E+00 0. -1.
        -24    2    1    2    0    0  0.12859381469E+03 -0.21630022671E+03 -0.66967633506E+03  0.71982770615E+03  0.79770768775E+02 0.  0.
        254    2    1    2    0    0 -0.12859381469E+03  0.21630022671E+03  0.12398263660E+04  0.15495200350E+04  0.89471825949E+03 0.  0.
         23    2    4    4    0    0 -0.33008913895E+03  0.40403135672E+03  0.11145973529E+04  0.12340360213E+04  0.91200141665E+02 0.  0.
         23    2    4    4    0    0  0.20149532426E+03 -0.18773113001E+03  0.12522901308E+03  0.31548401374E+03  0.89467951428E+02 0.  0.
          1    1    3    3  502    0  0.10804267025E+03 -0.19095161093E+03 -0.63667226527E+03  0.67341466399E+03  0.00000000000E+00 0. -1.
         -2    1    3    3    0  502  0.20551144440E+02 -0.25348615785E+02 -0.33004069786E+02  0.46413042159E+02  0.00000000000E+00 0.  1.
         11    1    5    5    0    0 -0.23929609995E+03  0.34152069750E+03  0.83085422100E+03  0.92963312485E+03  0.00000000000E+00 0. -1.
        -11    1    5    5    0    0 -0.90793039002E+02  0.62510659220E+02  0.28374313191E+03  0.30440289643E+03  0.00000000000E+00 0.  1.
          1    1    6    6  503    0  0.10557631441E+03 -0.15109937798E+03  0.60037291986E+02  0.19386040498E+03  0.00000000000E+00 0. -1.
         -1    1    6    6    0  503  0.95919009850E+02 -0.36631752031E+02  0.65191721096E+02  0.12162360876E+03  0.00000000000E+00 0.  1.
<mgrwt>
<rscale>  0 0.21965582E+04</rscale>
<asrwt>0</asrwt>
<pdfrwt beam="1">  1        1 0.13070752E+00 0.21965582E+04</pdfrwt>
<pdfrwt beam="2">  1       -4 0.21842291E+00 0.21965582E+04</pdfrwt>
<totfact> 0.87854233E-01</totfact>
</mgrwt>
</event>
<event>
12    4  0.4320235E-008  0.1731450E+04  0.7818608E-02  0.8743628E-01
          1   -1    0    0  501    0  0.00000000000E+00  0.00000000000E+00  0.61976119156E+03  0.61976119156E+03  0.00000000000E+00 0. -1.
         -2   -1    0    0    0  501 -0.00000000000E+00 -0.00000000000E+00 -0.12093045518E+04  0.12093045518E+04  0.00000000000E+00 0.  1.
        -24    2    1    2    0    0 -0.55850246294E+03  0.23871275666E+03 -0.38851150547E+03  0.72540022525E+03  0.79721487757E+02 0.  0.
        254    2    1    2    0    0  0.55850246294E+03 -0.23871275666E+03 -0.20103185475E+03  0.11036655181E+04  0.89930806062E+03 0.  0.
         23    2    4    4    0    0  0.38509744303E+03 -0.39475767632E+03 -0.47439050085E+03  0.73322663286E+03  0.91876461634E+02 0.  0.
         23    2    4    4    0    0  0.17340501991E+03  0.15604491966E+03  0.27335864610E+03  0.37043888523E+03  0.89892716123E+02 0.  0.
          1    1    3    3  502    0 -0.27857504881E+03  0.10600045392E+03 -0.14556721914E+03  0.33170765644E+03  0.00000000000E+00 0. -1.
         -2    1    3    3    0  502 -0.27992741413E+03  0.13271230275E+03 -0.24294428632E+03  0.39369256881E+03  0.00000000000E+00 0.  1.
         11    1    5    5    0    0  0.74208789122E+02 -0.34951963048E+02 -0.90059022335E+02  0.12181630272E+03  0.00000000000E+00 0. -1.
        -11    1    5    5    0    0  0.31088865390E+03 -0.35980571327E+03 -0.38433147852E+03  0.61141033014E+03  0.00000000000E+00 0.  1.
          1    1    6    6  503    0  0.19104951290E+02 -0.11353063623E+02  0.27586185987E+02  0.35424410718E+02  0.00000000000E+00 0. -1.
         -1    1    6    6    0  503  0.15430006862E+03  0.16739798328E+03  0.24577246011E+03  0.33501447451E+03  0.00000000000E+00 0.  1.
<mgrwt>
<rscale>  0 0.17314503E+04</rscale>
<asrwt>0</asrwt>
<pdfrwt beam="1">  1        1 0.95347876E-01 0.17314503E+04</pdfrwt>
<pdfrwt beam="2">  1       -2 0.18604685E+00 0.17314503E+04</pdfrwt>
<totfact> 0.44704239E+00</totfact>
</mgrwt>
</event>
<event>
12    4  0.4320235E-008  0.3027471E+04  0.7818608E-02  0.8235929E-01
          1   -1    0    0  501    0  0.00000000000E+00  0.00000000000E+00  0.12799707638E+04  0.12799707638E+04  0.00000000000E+00 0. -1.
         -2   -1    0    0    0  501 -0.00000000000E+00 -0.00000000000E+00 -0.17901938755E+04  0.17901938755E+04  0.00000000000E+00 0.  1.
        -24    2    1    2    0    0 -0.43280045898E+03 -0.12961096277E+04 -0.41226011869E+03  0.14295339904E+04  0.79953861198E+02 0.  0.
        254    2    1    2    0    0  0.43280045898E+03  0.12961096277E+04 -0.97962992972E+02  0.16406306489E+04  0.90269362120E+03 0.  0.
         23    2    4    4    0    0 -0.34102970678E+01  0.11669283163E+04 -0.23102700557E+02  0.11707450490E+04  0.91525457618E+02 0.  0.
         23    2    4    4    0    0  0.43621075604E+03  0.12918131144E+03 -0.74860292415E+02  0.46988559995E+03  0.90668510223E+02 0.  0.
          1    1    3    3  502    0 -0.36256034537E+02 -0.15385277337E+03 -0.25899288587E+02  0.16017474539E+03  0.00000000000E+00 0. -1.
         -2    1    3    3    0  502 -0.39654442444E+03 -0.11422568544E+04 -0.38636083010E+03  0.12693592450E+04  0.00000000000E+00 0.  1.
         11    1    5    5    0    0  0.31285521522E+02  0.19756691158E+03 -0.16922666508E+02  0.20074323164E+03  0.00000000000E+00 0. -1.
        -11    1    5    5    0    0 -0.34695818590E+02  0.96936140471E+03 -0.61800340486E+01  0.97000181731E+03  0.00000000000E+00 0.  1.
          4    1    6    6  503    0  0.55626567072E+01 -0.96338588703E+01  0.72274839361E+00  0.11147948314E+02  0.00000000000E+00 0. -1.
         -4    1    6    6    0  503  0.43064809934E+03  0.13881517031E+03 -0.75583040809E+02  0.45873765163E+03  0.00000000000E+00 0.  1.
<mgrwt>
<rscale>  0 0.30274714E+04</rscale>
<asrwt>0</asrwt>
<pdfrwt beam="1">  1        1 0.19691858E+00 0.30274714E+04</pdfrwt>
<pdfrwt beam="2">  1       -2 0.27541444E+00 0.30274714E+04</pdfrwt>
<totfact> 0.31301105E-01</totfact>
</mgrwt>
</event>
<event>
12    4  0.4320235E-008  0.1622570E+04  0.7818608E-02  0.8806801E-01
         -2   -1    0    0    0  501 -0.00000000000E+00  0.00000000000E+00  0.38730337174E+03  0.38730337174E+03  0.00000000000E+00 0.  1.
          1   -1    0    0  501    0  0.00000000000E+00 -0.00000000000E+00 -0.16994000247E+04  0.16994000247E+04  0.00000000000E+00 0. -1.
        -24    2    1    2    0    0 -0.22140803710E+03  0.12047556091E+03 -0.10887272104E+04  0.11205165169E+04  0.81819595366E+02 0.  0.
        254    2    1    2    0    0  0.22140803710E+03 -0.12047556091E+03 -0.22336944250E+03  0.96618687953E+03  0.90558671516E+03 0.  0.
         23    2    4    4    0    0 -0.20966462748E+03 -0.14679074077E+03  0.21293881285E+03  0.34524555957E+03  0.91349771724E+02 0.  0.
         23    2    4    4    0    0  0.43107266458E+03  0.26315179864E+02 -0.43630825534E+03  0.62094131996E+03  0.93204604550E+02 0.  0.
          1    1    3    3  502    0 -0.19559330374E+03  0.12799223435E+03 -0.89891070008E+03  0.92880525367E+03  0.00000000000E+00 0. -1.
         -2    1    3    3    0  502 -0.25814733360E+02 -0.75166734481E+01 -0.18981651034E+03  0.19171126320E+03  0.00000000000E+00 0.  1.
         11    1    5    5    0    0 -0.16589928940E+03 -0.63548867583E+02  0.14256426732E+03  0.22778411514E+03  0.00000000000E+00 0.  1.
        -11    1    5    5    0    0 -0.43765338080E+02 -0.83241873187E+02  0.70374545525E+02  0.11746144443E+03  0.00000000000E+00 0. -1.
          1    1    6    6  503    0  0.77469914121E+02 -0.23567221072E+02 -0.51501228852E+02  0.95965504616E+02  0.00000000000E+00 0. -1.
         -1    1    6    6    0  503  0.35360275046E+03  0.49882400936E+02 -0.38480702649E+03  0.52497581534E+03  0.00000000000E+00 0.  1.
<mgrwt>
<rscale>  0 0.16225700E+04</rscale>
<asrwt>0</asrwt>
<pdfrwt beam="1">  1        1 0.26144616E+00 0.16225700E+04</pdfrwt>
<pdfrwt beam="2">  1       -2 0.59585133E-01 0.16225700E+04</pdfrwt>
<totfact> 0.10540223E+01</totfact>
</mgrwt>
</event>
<event>
12    4  0.4320235E-008  0.1219335E+04  0.7818608E-02  0.9096099E-01
          1   -1    0    0  501    0  0.00000000000E+00  0.00000000000E+00  0.38652560282E+03  0.38652560282E+03  0.00000000000E+00 0. -1.
         -2   -1    0    0    0  501 -0.00000000000E+00 -0.00000000000E+00 -0.96163011912E+03  0.96163011912E+03  0.00000000000E+00 0.  1.
        -24    2    1    2    0    0 -0.40930805156E+01  0.25110021150E+02  0.19109508675E+03  0.20880240514E+03  0.80211256950E+02 0.  0.
        254    2    1    2    0    0  0.40930805156E+01 -0.25110021150E+02 -0.76619960305E+03  0.11393533168E+04  0.84286231516E+03 0.  0.
         23    2    4    4    0    0 -0.18932445319E+03 -0.13675283595E+03 -0.84836522437E+03  0.88374597892E+03  0.82087237959E+02 0.  0.
         23    2    4    4    0    0  0.19341753370E+03  0.11164281480E+03  0.82165621315E+02  0.25560733787E+03  0.93324495219E+02 0.  0.
          3    1    3    3  502    0  0.25763054869E+02  0.17155780835E+02  0.16638403605E+03  0.16923859863E+03  0.00000000000E+00 0. -1.
         -4    1    3    3    0  502 -0.29856135384E+02  0.79542403152E+01  0.24711050696E+02  0.39563806511E+02  0.00000000000E+00 0.  1.
         11    1    5    5    0    0 -0.10156299263E+03 -0.50201447507E+02 -0.27770390419E+03  0.29992446584E+03  0.00000000000E+00 0. -1.
        -11    1    5    5    0    0 -0.87761460553E+02 -0.86551388446E+02 -0.57066132017E+03  0.58382151309E+03  0.00000000000E+00 0.  1.
          4    1    6    6  503    0  0.12458106171E+02  0.42561549153E+02 -0.20497745727E+01  0.44394723239E+02  0.00000000000E+00 0. -1.
         -4    1    6    6    0  503  0.18095942753E+03  0.69081265650E+02  0.84215395888E+02  0.21121261463E+03  0.00000000000E+00 0.  1.
<mgrwt>
<rscale>  0 0.12193353E+04</rscale>
<asrwt>0</asrwt>
<pdfrwt beam="1">  1        1 0.59465478E-01 0.12193353E+04</pdfrwt>
<pdfrwt beam="2">  1       -2 0.14794309E+00 0.12193353E+04</pdfrwt>
<totfact> 0.16834089E+01</totfact>
</mgrwt>
</event>
<event>
12    4  0.4320235E-008  0.1669500E+04  0.7818608E-02  0.8778953E-01
          3   -1    0    0  501    0  0.00000000000E+00  0.00000000000E+00  0.26885261313E+03  0.26885261313E+03  0.00000000000E+00 0. -1.
         -4   -1    0    0    0  501 -0.00000000000E+00 -0.00000000000E+00 -0.25917820417E+04  0.25917820417E+04  0.00000000000E+00 0.  1.
        -24    2    1    2    0    0 -0.57188456818E+03 -0.11684447163E+03 -0.90384816282E+03  0.10785653474E+04  0.75213809985E+02 0.  0.
        254    2    1    2    0    0  0.57188456818E+03  0.11684447163E+03 -0.14190812658E+04  0.17820693075E+04  0.90624212437E+03 0.  0.
         23    2    4    4    0    0  0.59756845619E+03  0.40032211632E+03 -0.71948036377E+03  0.10213757909E+04  0.90612668941E+02 0.  0.
         23    2    4    4    0    0 -0.25683888016E+02 -0.28347764469E+03 -0.69960090199E+03  0.76069351657E+03  0.90520533252E+02 0.  0.
          1    1    3    3  502    0 -0.34252344969E+03 -0.58932713434E+02 -0.47181077627E+03  0.58600408437E+03  0.00000000000E+00 0. -1.
         -2    1    3    3    0  502 -0.22936111849E+03 -0.57911758199E+02 -0.43203738655E+03  0.49256126298E+03  0.00000000000E+00 0.  1.
         11    1    5    5    0    0  0.57775935010E+03  0.36471066116E+03 -0.66596584646E+03  0.95411227937E+03  0.00000000000E+00 0.  1.
        -11    1    5    5    0    0  0.19809106087E+02  0.35611455157E+02 -0.53514517314E+02  0.67263511547E+02  0.00000000000E+00 0. -1.
          2    1    6    6  503    0 -0.21037919840E+02 -0.66040704308E+02 -0.27541876178E+03  0.28400609683E+03  0.00000000000E+00 0. -1.
         -2    1    6    6    0  503 -0.46459681763E+01 -0.21743694038E+03 -0.42418214022E+03  0.47668741975E+03  0.00000000000E+00 0.  1.
<mgrwt>
<rscale>  0 0.16694998E+04</rscale>
<asrwt>0</asrwt>
<pdfrwt beam="1">  1        3 0.41361940E-01 0.16694998E+04</pdfrwt>
<pdfrwt beam="2">  1       -4 0.39873571E+00 0.16694998E+04</pdfrwt>
<totfact> 0.89140930E-02</totfact>
</mgrwt>
</event>
<event>
12    4  0.4320235E-008  0.1207724E+04  0.7818608E-02  0.9106122E-01
         -2   -1    0    0    0  501 -0.00000000000E+00  0.00000000000E+00  0.53747920284E+03  0.53747920284E+03  0.00000000000E+00 0.  1.
          1   -1    0    0  501    0  0.00000000000E+00 -0.00000000000E+00 -0.67844380770E+03  0.67844380770E+03  0.00000000000E+00 0. -1.
        -24    2    1    2    0    0  0.13702025226E+03  0.13422571834E+03 -0.21369818141E+03  0.29768860545E+03  0.78488853262E+02 0.  0.
        254    2    1    2    0    0 -0.13702025226E+03 -0.13422571834E+03  0.72733576550E+02  0.91823440509E+03  0.89502690269E+03 0.  0.
         23    2    4    4    0    0  0.27521718663E+03 -0.33404983033E+03 -0.18288263441E+02  0.44273678814E+03  0.91365278030E+02 0.  0.
         23    2    4    4    0    0 -0.41223743890E+03  0.19982411200E+03  0.91021839991E+02  0.47549761695E+03  0.89127025134E+02 0.  0.
          3    1    3    3  502    0  0.54430047449E+02  0.61794870243E+02 -0.14888776649E+03  0.17014347787E+03  0.00000000000E+00 0. -1.
         -4    1    3    3    0  502  0.82590204816E+02  0.72430848093E+02 -0.64810414921E+02  0.12754512758E+03  0.00000000000E+00 0.  1.
         11    1    5    5    0    0  0.13369002328E+03 -0.15221238423E+03  0.36599042181E+02  0.20586675819E+03  0.00000000000E+00 0. -1.
        -11    1    5    5    0    0  0.14152716335E+03 -0.18183744610E+03 -0.54887305622E+02  0.23687002995E+03  0.00000000000E+00 0.  1.
          1    1    6    6  503    0 -0.29401750634E+03  0.17183055176E+03  0.37038954479E+02  0.34255498348E+03  0.00000000000E+00 0. -1.
         -1    1    6    6    0  503 -0.11821993255E+03  0.27993560233E+02  0.53982885512E+02  0.13294263348E+03  0.00000000000E+00 0.  1.
<mgrwt>
<rscale>  0 0.12077242E+04</rscale>
<asrwt>0</asrwt>
<pdfrwt beam="1">  1        1 0.10437597E+00 0.12077242E+04</pdfrwt>
<pdfrwt beam="2">  1       -2 0.82689108E-01 0.12077242E+04</pdfrwt>
<totfact> 0.31748003E+01</totfact>
</mgrwt>
</event>
<event>
12    4  0.4320235E-008  0.1478631E+04  0.7818608E-02  0.8898789E-01
          1   -1    0    0  501    0  0.00000000000E+00  0.00000000000E+00  0.43762599894E+03  0.43762599894E+03  0.00000000000E+00 0. -1.
         -2   -1    0    0    0  501 -0.00000000000E+00 -0.00000000000E+00 -0.12489830370E+04  0.12489830370E+04  0.00000000000E+00 0.  1.
        -24    2    1    2    0    0 -0.35695888452E+03  0.30466268304E+03 -0.26999793943E+03  0.54826235196E+03  0.86334950081E+02 0.  0.
        254    2    1    2    0    0  0.35695888452E+03 -0.30466268304E+03 -0.54135909864E+03  0.11383466840E+04  0.88460415079E+03 0.  0.
         23    2    4    4    0    0 -0.35091816922E+02  0.20929325052E+03  0.72799985602E+02  0.24234915944E+03  0.91641567265E+02 0.  0.
         23    2    4    4    0    0  0.39205070144E+03 -0.51395593356E+03 -0.61415908424E+03  0.89599752455E+03  0.88123374265E+02 0.  0.
          1    1    3    3  502    0 -0.34998279542E+03  0.27377469886E+03 -0.24186475573E+03  0.50590424280E+03  0.00000000000E+00 0. -1.
         -2    1    3    3    0  502 -0.69760890984E+01  0.30887984183E+02 -0.28133183698E+02  0.42358109153E+02  0.00000000000E+00 0.  1.
         11    1    5    5    0    0 -0.18179055002E+02  0.39816199161E+02  0.56184838051E+02  0.71221792895E+02  0.00000000000E+00 0. -1.
        -11    1    5    5    0    0 -0.16912761920E+02  0.16947705136E+03  0.16615147551E+02  0.17112736655E+03  0.00000000000E+00 0.  1.
          1    1    6    6  503    0  0.58667945532E+02 -0.36434679568E+02 -0.80738764736E+02  0.10624576151E+03  0.00000000000E+00 0. -1.
         -1    1    6    6    0  503  0.33338275591E+03 -0.47752125399E+03 -0.53342031951E+03  0.78975176303E+03  0.00000000000E+00 0.  1.
<mgrwt>
<rscale>  0 0.14786311E+04</rscale>
<asrwt>0</asrwt>
<pdfrwt beam="1">  1        1 0.67327078E-01 0.14786311E+04</pdfrwt>
<pdfrwt beam="2">  1       -2 0.19215123E+00 0.14786311E+04</pdfrwt>
<totfact> 0.67473485E+00</totfact>
</mgrwt>
</event>
<event>
12    4  0.4320235E-008  0.1380561E+04  0.7818608E-02  0.8968011E-01
          1   -1    0    0  501    0  0.00000000000E+00  0.00000000000E+00  0.45112757860E+03  0.45112757860E+03  0.00000000000E+00 0. -1.
         -2   -1    0    0    0  501 -0.00000000000E+00 -0.00000000000E+00 -0.10562137291E+04  0.10562137291E+04  0.00000000000E+00 0.  1.
        -24    2    1    2    0    0  0.21474237022E+03 -0.97297542568E+02  0.16953469351E+03  0.30141183813E+03  0.80783578184E+02 0.  0.
        254    2    1    2    0    0 -0.21474237022E+03  0.97297542568E+02 -0.77462084396E+03  0.12059294695E+04  0.89367070904E+03 0.  0.
         23    2    4    4    0    0  0.21321404661E+03  0.33463862277E+03 -0.47192250767E+03  0.62325077538E+03  0.91035368106E+02 0.  0.
         23    2    4    4    0    0 -0.42795641683E+03 -0.23734108020E+03 -0.30269833629E+03  0.58267869414E+03  0.91709840032E+02 0.  0.
          1    1    3    3  502    0  0.15155778014E+03 -0.93926655547E+02  0.89854716911E+02  0.19966433706E+03  0.00000000000E+00 0. -1.
         -4    1    3    3    0  502  0.63184590084E+02 -0.33708870210E+01  0.79679976601E+02  0.10174750107E+03  0.00000000000E+00 0.  1.
         11    1    5    5    0    0  0.21749676938E+02  0.13923628309E+02 -0.67820874321E+01  0.26700422883E+02  0.00000000000E+00 0.  1.
        -11    1    5    5    0    0  0.19146436967E+03  0.32071499446E+03 -0.46514042024E+03  0.59655035249E+03  0.00000000000E+00 0. -1.
          4    1    6    6  503    0 -0.42549657013E+03 -0.21835978696E+03 -0.28578657611E+03  0.55713759058E+03  0.00000000000E+00 0. -1.
         -4    1    6    6    0  503 -0.24598467022E+01 -0.18981293238E+02 -0.16911760186E+02  0.25541103566E+02  0.00000000000E+00 0.  1.
<mgrwt>
<rscale>  0 0.13805610E+04</rscale>
<asrwt>0</asrwt>
<pdfrwt beam="1">  1        1 0.69404243E-01 0.13805610E+04</pdfrwt>
<pdfrwt beam="2">  1       -2 0.16249442E+00 0.13805610E+04</pdfrwt>
<totfact> 0.10508090E+01</totfact>
</mgrwt>
</event>
<event>
12    4  0.4320235E-008  0.3130963E+04  0.7818608E-02  0.8207291E-01
         -2   -1    0    0    0  501 -0.00000000000E+00  0.00000000000E+00  0.14851089667E+04  0.14851089667E+04  0.00000000000E+00 0.  1.
          1   -1    0    0  501    0  0.00000000000E+00 -0.00000000000E+00 -0.16502036436E+04  0.16502036436E+04  0.00000000000E+00 0. -1.
        -24    2    1    2    0    0  0.54438726826E+03  0.51996709994E+03 -0.13042986538E+04  0.15082734479E+04  0.83489713725E+02 0.  0.
        254    2    1    2    0    0 -0.54438726826E+03 -0.51996709994E+03  0.11392039769E+04  0.16270391624E+04  0.88473015781E+03 0.  0.
         23    2    4    4    0    0  0.19492376620E+03 -0.15740828971E+03  0.54515777762E+03  0.60677961054E+03  0.90619252748E+02 0.  0.
         23    2    4    4    0    0 -0.73931103445E+03 -0.36255881024E+03  0.59404619928E+03  0.10202595519E+04  0.10004483870E+03 0.  0.
          1    1    3    3  502    0  0.35606589850E+03  0.36294807059E+03 -0.80703184157E+03  0.95384203059E+03  0.00000000000E+00 0. -1.
         -2    1    3    3    0  502  0.18832136975E+03  0.15701902936E+03 -0.49726681225E+03  0.55443141727E+03  0.00000000000E+00 0.  1.
         11    1    5    5    0    0  0.10729828468E+02 -0.24197052513E+02  0.13752738451E+03  0.14005144790E+03  0.00000000000E+00 0.  1.
        -11    1    5    5    0    0  0.18419393773E+03 -0.13321123720E+03  0.40763039311E+03  0.46672816264E+03  0.00000000000E+00 0. -1.
          1    1    6    6  503    0 -0.54978431024E+03 -0.30398355819E+03  0.41407280557E+03  0.75241283863E+03  0.00000000000E+00 0. -1.
         -1    1    6    6    0  503 -0.18952672422E+03 -0.58575252048E+02  0.17997339371E+03  0.26784671323E+03  0.00000000000E+00 0.  1.
<mgrwt>
<rscale>  0 0.31309629E+04</rscale>
<asrwt>0</asrwt>
<pdfrwt beam="1">  1        1 0.25387748E+00 0.31309629E+04</pdfrwt>
<pdfrwt beam="2">  1       -2 0.22847830E+00 0.31309629E+04</pdfrwt>
<totfact> 0.33312575E-01</totfact>
</mgrwt>
</event>
<event>
12    4  0.4320235E-008  0.1728117E+04  0.7818608E-02  0.8745489E-01
         -2   -1    0    0    0  501 -0.00000000000E+00  0.00000000000E+00  0.18591121262E+04  0.18591121262E+04  0.00000000000E+00 0.  1.
          1   -1    0    0  501    0  0.00000000000E+00 -0.00000000000E+00 -0.40158806903E+03  0.40158806903E+03  0.00000000000E+00 0. -1.
        -24    2    1    2    0    0  0.59589389189E+03  0.15900191723E+03  0.55882572780E+03  0.83601121786E+03  0.79103870065E+02 0.  0.
        254    2    1    2    0    0 -0.59589389189E+03 -0.15900191723E+03  0.89869832935E+03  0.14246889774E+04  0.91744692216E+03 0.  0.
         23    2    4    4    0    0 -0.73188020129E+03  0.11606949221E+03  0.79048062955E+03  0.10873005138E+04  0.90785602512E+02 0.  0.
         23    2    4    4    0    0  0.13598630941E+03 -0.27507140944E+03  0.10821769980E+03  0.33738846353E+03  0.89237593734E+02 0.  0.
          3    1    3    3  502    0  0.55911077160E+03  0.12806599985E+03  0.51074442797E+03  0.76802709974E+03  0.00000000000E+00 0. -1.
         -4    1    3    3    0  502  0.36783120285E+02  0.30935917382E+02  0.48081299836E+02  0.67984118116E+02  0.00000000000E+00 0.  1.
         11    1    5    5    0    0 -0.55331783272E+03  0.86686456357E+02  0.53752144085E+03  0.77627602378E+03  0.00000000000E+00 0. -1.
        -11    1    5    5    0    0 -0.17856236858E+03  0.29383035855E+02  0.25295918870E+03  0.31102449006E+03  0.00000000000E+00 0.  1.
          1    1    6    6  503    0  0.32105113046E+02 -0.16446016281E+03  0.63499084608E+02  0.17919268172E+03  0.00000000000E+00 0. -1.
         -1    1    6    6    0  503  0.10388119636E+03 -0.11061124663E+03  0.44718615191E+02  0.15819578181E+03  0.00000000000E+00 0.  1.
<mgrwt>
<rscale>  0 0.17281172E+04</rscale>
<asrwt>0</asrwt>
<pdfrwt beam="1">  1        1 0.61782781E-01 0.17281172E+04</pdfrwt>
<pdfrwt beam="2">  1       -2 0.28601725E+00 0.17281172E+04</pdfrwt>
<totfact> 0.19201101E+00</totfact>
</mgrwt>
</event>
<event>
12    4  0.4320235E-008  0.2922684E+04  0.7818608E-02  0.8266160E-01
          1   -1    0    0  501    0  0.00000000000E+00  0.00000000000E+00  0.23097215290E+04  0.23097215290E+04  0.00000000000E+00 0. -1.
         -2   -1    0    0    0  501 -0.00000000000E+00 -0.00000000000E+00 -0.92457893674E+03  0.92457893674E+03  0.00000000000E+00 0.  1.
        -24    2    1    2    0    0 -0.12483325402E+03 -0.55430934846E+03  0.19483232922E+04  0.20310602824E+04  0.80000154581E+02 0.  0.
        254    2    1    2    0    0  0.12483325402E+03  0.55430934846E+03 -0.56318069986E+03  0.12032401834E+04  0.89876150519E+03 0.  0.
         23    2    4    4    0    0 -0.26346616872E+03  0.48295473445E+03 -0.57146879618E+03  0.79852761757E+03  0.91706452475E+02 0.  0.
         23    2    4    4    0    0  0.38829942275E+03  0.71354614002E+02  0.82880963195E+01  0.40471256585E+03  0.88632080939E+02 0.  0.
          3    1    3    3  502    0 -0.92940176365E+02 -0.51380875609E+03  0.17837637857E+04  0.18586152258E+04  0.00000000000E+00 0. -1.
         -4    1    3    3    0  502 -0.31893077656E+02 -0.40500592369E+02  0.16455950641E+03  0.17244505657E+03  0.00000000000E+00 0.  1.
         11    1    5    5    0    0 -0.44476878047E+02  0.13439941025E+03 -0.10406860106E+03  0.17570335194E+03  0.00000000000E+00 0.  1.
        -11    1    5    5    0    0 -0.21898929068E+03  0.34855532420E+03 -0.46740019513E+03  0.62282426564E+03  0.00000000000E+00 0. -1.
          1    1    6    6  503    0  0.39116149916E+03  0.64270469039E+02  0.11124961583E+02  0.39656244954E+03  0.00000000000E+00 0. -1.
         -1    1    6    6    0  503 -0.28620764173E+01  0.70841449624E+01 -0.28368652634E+01  0.81501163053E+01  0.00000000000E+00 0.  1.
<mgrwt>
<rscale>  0 0.29226836E+04</rscale>
<asrwt>0</asrwt>
<pdfrwt beam="1">  1        1 0.35534177E+00 0.29226836E+04</pdfrwt>
<pdfrwt beam="2">  1       -2 0.14224291E+00 0.29226836E+04</pdfrwt>
<totfact> 0.47576010E-01</totfact>
</mgrwt>
</event>
<event>
12    4  0.4320235E-008  0.1590528E+04  0.7818608E-02  0.8826388E-01
          1   -1    0    0  501    0  0.00000000000E+00  0.00000000000E+00  0.77763451496E+03  0.77763451496E+03  0.00000000000E+00 0. -1.
         -2   -1    0    0    0  501 -0.00000000000E+00 -0.00000000000E+00 -0.81329340867E+03  0.81329340867E+03  0.00000000000E+00 0.  1.
        -24    2    1    2    0    0 -0.62493423256E+02  0.44829887365E+03  0.28049257248E+03  0.53854253826E+03  0.80465360503E+02 0.  0.
        254    2    1    2    0    0  0.62493423256E+02 -0.44829887365E+03 -0.31615146619E+03  0.10523853854E+04  0.89592741988E+03 0.  0.
         23    2    4    4    0    0  0.43508969893E+03 -0.20451774032E+03  0.15414484863E+02  0.48978414990E+03  0.92305768679E+02 0.  0.
         23    2    4    4    0    0 -0.37259627567E+03 -0.24378113332E+03 -0.33156595105E+03  0.56260123546E+03  0.91252093884E+02 0.  0.
          1    1    3    3  502    0 -0.44179654807E+02  0.43390983179E+03  0.26193281585E+03  0.50876161809E+03  0.00000000000E+00 0. -1.
         -2    1    3    3    0  502 -0.18313768449E+02  0.14389041860E+02  0.18559756626E+02  0.29780920175E+02  0.00000000000E+00 0.  1.
         11    1    5    5    0    0  0.33665818490E+03 -0.11453576136E+03  0.66642775103E+00  0.35560879940E+03  0.00000000000E+00 0.  1.
        -11    1    5    5    0    0  0.98431514031E+02 -0.89981978961E+02  0.14748057112E+02  0.13417535050E+03  0.00000000000E+00 0. -1.
          2    1    6    6  503    0 -0.25617300440E+03 -0.20818785795E+03 -0.21426830623E+03  0.39354504118E+03  0.00000000000E+00 0.  1.
         -2    1    6    6    0  503 -0.11642327127E+03 -0.35593275376E+02 -0.11729764482E+03  0.16905619428E+03  0.00000000000E+00 0. -1.
<mgrwt>
<rscale>  0 0.15905282E+04</rscale>
<asrwt>0</asrwt>
<pdfrwt beam="1">  1        1 0.11963608E+00 0.15905282E+04</pdfrwt>
<pdfrwt beam="2">  1       -2 0.12512206E+00 0.15905282E+04</pdfrwt>
<totfact> 0.93055033E+00</totfact>
</mgrwt>
</event>
<event>
12    4  0.4320235E-008  0.1233764E+04  0.7818608E-02  0.9083806E-01
          3   -1    0    0  501    0  0.00000000000E+00  0.00000000000E+00  0.11291984741E+04  0.11291984741E+04  0.00000000000E+00 0. -1.
         -4   -1    0    0    0  501 -0.00000000000E+00 -0.00000000000E+00 -0.33700293808E+03  0.33700293808E+03  0.00000000000E+00 0.  1.
        -24    2    1    2    0    0 -0.40788676217E+02  0.28050831698E+03  0.23500118129E+03  0.37954120693E+03  0.92072474443E+02 0.  0.
        254    2    1    2    0    0  0.40788676217E+02 -0.28050831698E+03  0.55719435468E+03  0.10866602052E+04  0.88882856654E+03 0.  0.
         23    2    4    4    0    0 -0.23535199307E+03  0.50517112548E+02  0.59064845619E+03  0.64430820355E+03  0.91241016284E+02 0.  0.
         23    2    4    4    0    0  0.27614066928E+03 -0.33102542952E+03 -0.33454101512E+02  0.44235200166E+03  0.93405632837E+02 0.  0.
          3    1    3    3  502    0 -0.25173744350E+01  0.87237639736E+02  0.12917920016E+03  0.15589743011E+03  0.00000000000E+00 0. -1.
         -4    1    3    3    0  502 -0.38271301782E+02  0.19327067724E+03  0.10582198113E+03  0.22364377682E+03  0.00000000000E+00 0.  1.
         11    1    5    5    0    0 -0.24286575183E+03  0.45071540276E+02  0.57843642634E+03  0.62897052115E+03  0.00000000000E+00 0. -1.
        -11    1    5    5    0    0  0.75137587676E+01  0.54455722720E+01  0.12212029853E+02  0.15337682397E+02  0.00000000000E+00 0.  1.
          1    1    6    6  503    0  0.24161882434E+03 -0.26411921824E+03 -0.59112254949E+02  0.36281245349E+03  0.00000000000E+00 0. -1.
         -1    1    6    6    0  503  0.34521844938E+02 -0.66906211279E+02  0.25658153438E+02  0.79539548173E+02  0.00000000000E+00 0.  1.
<mgrwt>
<rscale>  0 0.12337637E+04</rscale>
<asrwt>0</asrwt>
<pdfrwt beam="1">  1        3 0.17372284E+00 0.12337637E+04</pdfrwt>
<pdfrwt beam="2">  1       -4 0.51846606E-01 0.12337637E+04</pdfrwt>
<totfact> 0.17665696E+00</totfact>
</mgrwt>
</event>
<event>
12    4  0.4320235E-008  0.1880683E+04  0.7818608E-02  0.8664532E-01
         -2   -1    0    0    0  501 -0.00000000000E+00  0.00000000000E+00  0.46358305007E+03  0.46358305007E+03  0.00000000000E+00 0.  1.
          1   -1    0    0  501    0  0.00000000000E+00 -0.00000000000E+00 -0.19074088978E+04  0.19074088978E+04  0.00000000000E+00 0. -1.
        -24    2    1    2    0    0 -0.59308493031E+03  0.39623329037E+03 -0.33466759826E+03  0.79207178290E+03  0.81392585558E+02 0.  0.
        254    2    1    2    0    0  0.59308493031E+03 -0.39623329037E+03 -0.11091582495E+04  0.15789201649E+04  0.86833536723E+03 0.  0.
         23    2    4    4    0    0  0.22495642153E+03 -0.31148235161E+03  0.90593713523E+01  0.39522219408E+03  0.92151307809E+02 0.  0.
         23    2    4    4    0    0  0.36812850878E+03 -0.84750938761E+02 -0.11182176208E+04  0.11836979709E+04  0.89604230688E+02 0.  0.
          3    1    3    3  502    0 -0.36839299618E+03  0.24084697033E+03 -0.24940135792E+03  0.50588704281E+03  0.00000000000E+00 0. -1.
         -4    1    3    3    0  502 -0.22469193413E+03  0.15538632004E+03 -0.85266240342E+02  0.28618474009E+03  0.00000000000E+00 0.  1.
         11    1    5    5    0    0  0.21116068867E+03 -0.24887706381E+03 -0.15043055356E+02  0.32673371856E+03  0.00000000000E+00 0. -1.
        -11    1    5    5    0    0  0.13795732861E+02 -0.62605287793E+02  0.24102426709E+02  0.68488475513E+02  0.00000000000E+00 0.  1.
          2    1    6    6  503    0  0.29746212548E+03 -0.50503685059E+02 -0.97167312479E+03  0.10174394330E+04  0.00000000000E+00 0. -1.
         -2    1    6    6    0  503  0.70666383306E+02 -0.34247253702E+02 -0.14654449602E+03  0.16625853791E+03  0.00000000000E+00 0.  1.
<mgrwt>
<rscale>  0 0.18806833E+04</rscale>
<asrwt>0</asrwt>
<pdfrwt beam="1">  1        1 0.29344752E+00 0.18806833E+04</pdfrwt>
<pdfrwt beam="2">  1       -2 0.71320470E-01 0.18806833E+04</pdfrwt>
<totfact> 0.50567400E+00</totfact>
</mgrwt>
</event>
<event>
12    4  0.4320235E-008  0.1095693E+04  0.7818608E-02  0.9209400E-01
         -2   -1    0    0    0  501 -0.00000000000E+00  0.00000000000E+00  0.42226721086E+03  0.42226721086E+03  0.00000000000E+00 0.  1.
          1   -1    0    0  501    0  0.00000000000E+00 -0.00000000000E+00 -0.71077179503E+03  0.71077179503E+03  0.00000000000E+00 0. -1.
        -24    2    1    2    0    0 -0.30153337483E+01  0.66416795136E+01 -0.22319802282E+03  0.23724021469E+03  0.80077199822E+02 0.  0.
        254    2    1    2    0    0  0.30153337483E+01 -0.66416795136E+01 -0.65306561344E+02  0.89579879120E+03  0.89338531620E+03 0.  0.
         23    2    4    4    0    0 -0.43118549966E+02  0.43116965819E+03 -0.50028745810E+02  0.44569312120E+03  0.91504094886E+02 0.  0.
         23    2    4    4    0    0  0.46133883714E+02 -0.43781133771E+03 -0.15277815534E+02  0.45010567000E+03  0.92491079921E+02 0.  0.
          3    1    3    3  502    0 -0.35898970417E+02 -0.17051129165E+02 -0.10361068225E+03  0.11097139523E+03  0.00000000000E+00 0. -1.
         -4    1    3    3    0  502  0.32883636668E+02  0.23692808679E+02 -0.11958734057E+03  0.12626881946E+03  0.00000000000E+00 0.  1.
         11    1    5    5    0    0  0.25876777094E+02  0.14298464907E+03 -0.84333917389E+00  0.14530976802E+03  0.00000000000E+00 0.  1.
        -11    1    5    5    0    0 -0.68995327060E+02  0.28818500912E+03 -0.49185406636E+02  0.30038335318E+03  0.00000000000E+00 0. -1.
          3    1    6    6  503    0  0.51551340666E+02 -0.44042762759E+03 -0.12856890835E+02  0.44362071132E+03  0.00000000000E+00 0. -1.
         -3    1    6    6    0  503 -0.54174569522E+01  0.26162898874E+01 -0.24209247000E+01  0.64849586743E+01  0.00000000000E+00 0.  1.
<mgrwt>
<rscale>  0 0.10956927E+04</rscale>
<asrwt>0</asrwt>
<pdfrwt beam="1">  1        1 0.10934951E+00 0.10956927E+04</pdfrwt>
<pdfrwt beam="2">  1       -2 0.64964186E-01 0.10956927E+04</pdfrwt>
<totfact> 0.50803056E+01</totfact>
</mgrwt>
</event>
<event>
12    4  0.4320235E-008  0.1375830E+04  0.7818608E-02  0.8971503E-01
         -2   -1    0    0    0  501 -0.00000000000E+00  0.00000000000E+00  0.16606718371E+03  0.16606718371E+03  0.00000000000E+00 0.  1.
          1   -1    0    0  501    0  0.00000000000E+00 -0.00000000000E+00 -0.28496101905E+04  0.28496101905E+04  0.00000000000E+00 0. -1.
        -24    2    1    2    0    0  0.22325061165E+03 -0.16693199089E+03 -0.14217279385E+04  0.14510500220E+04  0.80800433462E+02 0.  0.
        254    2    1    2    0    0 -0.22325061165E+03  0.16693199089E+03 -0.12618150683E+04  0.15646273522E+04  0.88214191578E+03 0.  0.
         23    2    4    4    0    0 -0.43424284064E+02  0.12307044408E+03  0.99565641190E+02  0.18755640376E+03  0.90730838374E+02 0.  0.
         23    2    4    4    0    0 -0.17982632758E+03  0.43861546815E+02 -0.13613807095E+04  0.13770709485E+04  0.93303899045E+02 0.  0.
          1    1    3    3  502    0  0.19785602056E+03 -0.14876785358E+03 -0.10851540734E+04  0.11130311056E+04  0.00000000000E+00 0. -1.
         -2    1    3    3    0  502  0.25394591085E+02 -0.18164137316E+02 -0.33657386508E+03  0.33801891633E+03  0.00000000000E+00 0.  1.
         11    1    5    5    0    0 -0.48719206107E+01  0.10637344381E+03  0.99214265934E+02  0.14554214415E+03  0.00000000000E+00 0. -1.
        -11    1    5    5    0    0 -0.38552363454E+02  0.16697000269E+02  0.35137525588E+00  0.42014259608E+02  0.00000000000E+00 0.  1.
          3    1    6    6  503    0 -0.14068202616E+03  0.54653501088E+02 -0.79251925832E+03  0.80676217839E+03  0.00000000000E+00 0. -1.
         -3    1    6    6    0  503 -0.39144301417E+02 -0.10791954273E+02 -0.56886145118E+03  0.57030877009E+03  0.00000000000E+00 0.  1.
<mgrwt>
<rscale>  0 0.13758296E+04</rscale>
<asrwt>0</asrwt>
<pdfrwt beam="1">  1        1 0.43840156E+00 0.13758296E+04</pdfrwt>
<pdfrwt beam="2">  1       -2 0.25548798E-01 0.13758296E+04</pdfrwt>
<totfact> 0.91466667E+00</totfact>
</mgrwt>
</event>
<event>
12    4  0.4320235E-008  0.2407940E+04  0.7818608E-02  0.8436537E-01
          1   -1    0    0  501    0  0.00000000000E+00  0.00000000000E+00  0.31177352156E+04  0.31177352156E+04  0.00000000000E+00 0. -1.
         -2   -1    0    0    0  501 -0.00000000000E+00 -0.00000000000E+00 -0.46493493432E+03  0.46493493432E+03  0.00000000000E+00 0.  1.
        -24    2    1    2    0    0  0.15947556453E+03  0.50218965624E+03  0.24642736578E+04  0.25210566655E+04  0.73858943138E+02 0.  0.
        254    2    1    2    0    0 -0.15947556453E+03 -0.50218965624E+03  0.18852662348E+03  0.10616134844E+04  0.90213856810E+03 0.  0.
         23    2    4    4    0    0 -0.31797998796E+03 -0.51279284202E+03  0.43973982956E+03  0.75203226177E+03  0.90075709648E+02 0.  0.
         23    2    4    4    0    0  0.15850442344E+03  0.10603185781E+02 -0.25121320609E+03  0.30958122266E+03  0.86581630352E+02 0.  0.
          1    1    3    3  502    0  0.14315309655E+03  0.47857683859E+03  0.22444085947E+04  0.22993256706E+04  0.00000000000E+00 0. -1.
         -2    1    3    3    0  502  0.16322467973E+02  0.23612817649E+02  0.21986506309E+03  0.22173099486E+03  0.00000000000E+00 0.  1.
         11    1    5    5    0    0 -0.20309945578E+03 -0.32852336454E+03  0.33348118418E+03  0.51028099140E+03  0.00000000000E+00 0.  1.
        -11    1    5    5    0    0 -0.11488053218E+03 -0.18426947749E+03  0.10625864539E+03  0.24175127037E+03  0.00000000000E+00 0. -1.
          2    1    6    6  503    0  0.18459105194E+01 -0.83899777858E+01  0.40347718979E+01  0.94909692424E+01  0.00000000000E+00 0. -1.
         -2    1    6    6    0  503  0.15665851292E+03  0.18993163566E+02 -0.25524797798E+03  0.30009025342E+03  0.00000000000E+00 0.  1.
<mgrwt>
<rscale>  0 0.24079402E+04</rscale>
<asrwt>0</asrwt>
<pdfrwt beam="1">  1        1 0.47965156E+00 0.24079402E+04</pdfrwt>
<pdfrwt beam="2">  1       -2 0.71528453E-01 0.24079402E+04</pdfrwt>
<totfact> 0.68374033E-01</totfact>
</mgrwt>
</event>
<event>
12    4  0.4320235E-008  0.1675043E+04  0.7818608E-02  0.8775728E-01
         -2   -1    0    0    0  501 -0.00000000000E+00  0.00000000000E+00  0.34962423424E+03  0.34962423424E+03  0.00000000000E+00 0.  1.
          1   -1    0    0  501    0  0.00000000000E+00 -0.00000000000E+00 -0.20062744510E+04  0.20062744510E+04  0.00000000000E+00 0. -1.
        -24    2    1    2    0    0 -0.11593836949E+03  0.47051366528E+03 -0.11736776985E+03  0.50504336758E+03  0.80428819462E+02 0.  0.
        254    2    1    2    0    0  0.11593836949E+03 -0.47051366528E+03 -0.15392824469E+04  0.18508553177E+04  0.90633886641E+03 0.  0.
         23    2    4    4    0    0  0.49292487143E+03 -0.30289436580E+03 -0.10671067765E+04  0.12171886161E+04  0.90062916877E+02 0.  0.
         23    2    4    4    0    0 -0.37698650193E+03 -0.16761929948E+03 -0.47217567047E+03  0.63366670160E+03  0.91479903486E+02 0.  0.
          1    1    3    3  502    0 -0.45135859932E+02  0.28629213292E+03 -0.10134026753E+03  0.30703465773E+03  0.00000000000E+00 0. -1.
         -2    1    3    3    0  502 -0.70802509561E+02  0.18422153237E+03 -0.16027502311E+02  0.19800870985E+03  0.00000000000E+00 0.  1.
         11    1    5    5    0    0  0.47068611923E+03 -0.30621619492E+03 -0.10064710780E+04  0.11525180310E+04  0.00000000000E+00 0. -1.
        -11    1    5    5    0    0  0.22238752198E+02  0.33218291196E+01 -0.60635698450E+02  0.64670585080E+02  0.00000000000E+00 0.  1.
          2    1    6    6  503    0 -0.37307153650E+03 -0.16792630452E+03 -0.47635647974E+03  0.62793081696E+03  0.00000000000E+00 0. -1.
         -2    1    6    6    0  503 -0.39149654352E+01  0.30700503328E+00  0.41808092767E+01  0.57358846448E+01  0.00000000000E+00 0.  1.
<mgrwt>
<rscale>  0 0.16750429E+04</rscale>
<asrwt>0</asrwt>
<pdfrwt beam="1">  1        1 0.30865761E+00 0.16750429E+04</pdfrwt>
<pdfrwt beam="2">  1       -2 0.53788343E-01 0.16750429E+04</pdfrwt>
<totfact> 0.80474144E+00</totfact>
</mgrwt>
</event>
<event>
12    4  0.4320235E-008  0.1335636E+04  0.7818608E-02  0.9001773E-01
          1   -1    0    0  501    0  0.00000000000E+00  0.00000000000E+00  0.10194492462E+04  0.10194492462E+04  0.00000000000E+00 0. -1.
         -2   -1    0    0    0  501 -0.00000000000E+00 -0.00000000000E+00 -0.43747245317E+03  0.43747245317E+03  0.00000000000E+00 0.  1.
        -24    2    1    2    0    0  0.53146657770E+02  0.20483910366E+03 -0.15551798576E+03  0.27450514459E+03  0.79897464850E+02 0.  0.
        254    2    1    2    0    0 -0.53146657770E+02 -0.20483910366E+03  0.73749477877E+03  0.11824165548E+04  0.89968146289E+03 0.  0.
         23    2    4    4    0    0  0.25171837568E+02 -0.10470538865E+03 -0.19215066935E+03  0.23988226623E+03  0.94998853168E+02 0.  0.
         23    2    4    4    0    0 -0.78318495338E+02 -0.10013371501E+03  0.92964544812E+03  0.94253428854E+03  0.89273054536E+02 0.  0.
          3    1    3    3  502    0  0.58305073589E+02  0.89835762623E+02 -0.49416949148E+02  0.11794905983E+03  0.00000000000E+00 0. -1.
         -4    1    3    3    0  502 -0.51584158191E+01  0.11500334103E+03 -0.10610103661E+03  0.15655608475E+03  0.00000000000E+00 0.  1.
         11    1    5    5    0    0  0.44718254325E+02 -0.10737584594E+03 -0.18571107555E+03  0.21912986593E+03  0.00000000000E+00 0. -1.
        -11    1    5    5    0    0 -0.19546416757E+02  0.26704572898E+01 -0.64395938061E+01  0.20752400308E+02  0.00000000000E+00 0.  1.
          1    1    6    6  503    0 -0.65647290656E+02 -0.14178127109E+02  0.34609278170E+03  0.35254900312E+03  0.00000000000E+00 0. -1.
         -1    1    6    6    0  503 -0.12671204683E+02 -0.85955587901E+02  0.58355266643E+03  0.58998528542E+03  0.00000000000E+00 0.  1.
<mgrwt>
<rscale>  0 0.13356361E+04</rscale>
<asrwt>0</asrwt>
<pdfrwt beam="1">  1        1 0.15683834E+00 0.13356361E+04</pdfrwt>
<pdfrwt beam="2">  1       -2 0.67303455E-01 0.13356361E+04</pdfrwt>
<totfact> 0.25420066E+01</totfact>
</mgrwt>
</event>
<event>
12    4  0.4320235E-008  0.2841132E+04  0.7818608E-02  0.8290611E-01
         -2   -1    0    0    0  501 -0.00000000000E+00  0.00000000000E+00  0.88737748412E+03  0.88737748412E+03  0.00000000000E+00 0.  1.
          1   -1    0    0  501    0  0.00000000000E+00 -0.00000000000E+00 -0.22741255435E+04  0.22741255435E+04  0.00000000000E+00 0. -1.
        -24    2    1    2    0    0 -0.10869807841E+04 -0.58448646305E+03 -0.25646526128E+03  0.12629367517E+04  0.77994601969E+02 0.  0.
        254    2    1    2    0    0  0.10869807841E+04  0.58448646305E+03 -0.11302827981E+04  0.18985662760E+04  0.89658410089E+03 0.  0.
         23    2    4    4    0    0  0.10983752372E+04  0.18867162719E+03 -0.84848037325E+03  0.14038807680E+04  0.94536354183E+02 0.  0.
         23    2    4    4    0    0 -0.11394453077E+02  0.39581483586E+03 -0.28180242486E+03  0.49468550800E+03  0.92205896361E+02 0.  0.
          1    1    3    3  502    0 -0.50844251703E+03 -0.25240063861E+03 -0.15285571347E+03  0.58786456317E+03  0.00000000000E+00 0. -1.
         -2    1    3    3    0  502 -0.57853826709E+03 -0.33208582444E+03 -0.10360954780E+03  0.67507218849E+03  0.00000000000E+00 0.  1.
         11    1    5    5    0    0  0.36840992887E+02 -0.71062438458E+01 -0.16322106239E+02  0.40916605561E+02  0.00000000000E+00 0. -1.
        -11    1    5    5    0    0  0.10615342443E+04  0.19577787104E+03 -0.83215826701E+03  0.13629641624E+04  0.00000000000E+00 0.  1.
          3    1    6    6  503    0  0.39314002744E+02  0.12857169944E+03 -0.87755052048E+02  0.16055286316E+03  0.00000000000E+00 0. -1.
         -3    1    6    6    0  503 -0.50708455821E+02  0.26724313641E+03 -0.19404737281E+03  0.33413264484E+03  0.00000000000E+00 0.  1.
<mgrwt>
<rscale>  0 0.28411320E+04</rscale>
<asrwt>0</asrwt>
<pdfrwt beam="1">  1        1 0.34986546E+00 0.28411320E+04</pdfrwt>
<pdfrwt beam="2">  1       -2 0.13651961E+00 0.28411320E+04</pdfrwt>
<totfact> 0.56373498E-01</totfact>
</mgrwt>
</event>
<event>
12    4  0.4320235E-008  0.2178689E+04  0.7818608E-02  0.8527351E-01
         -2   -1    0    0    0  501 -0.00000000000E+00  0.00000000000E+00  0.86129058130E+03  0.86129058130E+03  0.00000000000E+00 0.  1.
          3   -1    0    0  501    0  0.00000000000E+00 -0.00000000000E+00 -0.13777825471E+04  0.13777825471E+04  0.00000000000E+00 0. -1.
        -24    2    1    2    0    0  0.15567484436E+03 -0.36625250892E+03 -0.10451707085E+04  0.11213606654E+04  0.81806934552E+02 0.  0.
        254    2    1    2    0    0 -0.15567484436E+03  0.36625250892E+03  0.52867874265E+03  0.11177124630E+04  0.90077987303E+03 0.  0.
         23    2    4    4    0    0  0.24034374996E+03 -0.10547723751E+03 -0.27153935306E+02  0.28306441336E+03  0.10245760162E+03 0.  0.
         23    2    4    4    0    0 -0.39601859432E+03  0.47172974643E+03  0.55583267796E+03  0.83464804968E+03  0.91256343535E+02 0.  0.
          3    1    3    3  502    0  0.68856238475E+02 -0.13583300044E+03 -0.51019029928E+03  0.53243396498E+03  0.00000000000E+00 0. -1.
         -4    1    3    3    0  502  0.86818605885E+02 -0.23041950848E+03 -0.53498040918E+03  0.58892670038E+03  0.00000000000E+00 0.  1.
         11    1    5    5    0    0  0.16223747265E+03 -0.11586953374E+03 -0.39691606111E+02  0.20327855268E+03  0.00000000000E+00 0.  1.
        -11    1    5    5    0    0  0.78106277311E+02  0.10392296233E+02  0.12537670805E+02  0.79785860687E+02  0.00000000000E+00 0. -1.
          4    1    6    6  503    0 -0.29686795541E+03  0.33976600990E+03  0.35133082989E+03  0.57184340205E+03  0.00000000000E+00 0.  1.
         -4    1    6    6    0  503 -0.99150638911E+02  0.13196373653E+03  0.20450184807E+03  0.26280464763E+03  0.00000000000E+00 0. -1.
<mgrwt>
<rscale>  0 0.21786887E+04</rscale>
<asrwt>0</asrwt>
<pdfrwt beam="1">  1        3 0.21196655E+00 0.21786887E+04</pdfrwt>
<pdfrwt beam="2">  1       -2 0.13250624E+00 0.21786887E+04</pdfrwt>
<totfact> 0.19358151E-01</totfact>
</mgrwt>
</event>
<event>
12    4  0.4320235E-008  0.1872198E+04  0.7818608E-02  0.8668820E-01
          1   -1    0    0  501    0  0.00000000000E+00  0.00000000000E+00  0.90120656097E+03  0.90120656097E+03  0.00000000000E+00 0. -1.
         -2   -1    0    0    0  501 -0.00000000000E+00 -0.00000000000E+00 -0.97234204711E+03  0.97234204711E+03  0.00000000000E+00 0.  1.
        -24    2    1    2    0    0  0.19073585811E+03 -0.62585338663E+03 -0.31564398707E+03  0.73143543870E+03  0.85405182991E+02 0.  0.
        254    2    1    2    0    0 -0.19073585811E+03  0.62585338663E+03  0.24450850093E+03  0.11421131694E+04  0.90364011394E+03 0.  0.
         23    2    4    4    0    0 -0.27127273594E+03  0.53026544890E+02  0.43737503990E+03  0.52526151079E+03  0.90564990237E+02 0.  0.
         23    2    4    4    0    0  0.80536877835E+02  0.57282684174E+03 -0.19286653897E+03  0.61685165859E+03  0.93229220425E+02 0.  0.
          1    1    3    3  502    0  0.12220560809E+03 -0.30478322890E+03 -0.19353454337E+03  0.38115960797E+03  0.00000000000E+00 0. -1.
         -2    1    3    3    0  502  0.68530250019E+02 -0.32107015773E+03 -0.12210944370E+03  0.35027583073E+03  0.00000000000E+00 0.  1.
         11    1    5    5    0    0  0.31722886583E+01  0.80407697944E+01  0.35528137128E+02  0.36564544603E+02  0.00000000000E+00 0. -1.
        -11    1    5    5    0    0 -0.27444502460E+03  0.44985775096E+02  0.40184690278E+03  0.48869696619E+03  0.00000000000E+00 0.  1.
          4    1    6    6  503    0  0.16981459291E+02  0.67179273790E+02  0.65447234323E+01  0.69600705394E+02  0.00000000000E+00 0. -1.
         -4    1    6    6    0  503  0.63555418544E+02  0.50564756795E+03 -0.19941126240E+03  0.54725095320E+03  0.00000000000E+00 0.  1.
<mgrwt>
<rscale>  0 0.18721977E+04</rscale>
<asrwt>0</asrwt>
<pdfrwt beam="1">  1        1 0.13864716E+00 0.18721977E+04</pdfrwt>
<pdfrwt beam="2">  1       -2 0.14959109E+00 0.18721977E+04</pdfrwt>
<totfact> 0.45021737E+00</totfact>
</mgrwt>
</event>
<event>
12    4  0.4320235E-008  0.1105020E+04  0.7818608E-02  0.9200313E-01
         -2   -1    0    0    0  501 -0.00000000000E+00  0.00000000000E+00  0.44114661108E+03  0.44114661108E+03  0.00000000000E+00 0.  1.
          1   -1    0    0  501    0  0.00000000000E+00 -0.00000000000E+00 -0.69198590600E+03  0.69198590600E+03  0.00000000000E+00 0. -1.
        -24    2    1    2    0    0  0.16861849635E+03  0.34126334606E+02  0.95719432452E+02  0.21220498189E+03  0.79195584260E+02 0.  0.
        254    2    1    2    0    0 -0.16861849635E+03 -0.34126334606E+02 -0.34655872737E+03  0.92092753519E+03  0.83570794511E+03 0.  0.
         23    2    4    4    0    0  0.16080590068E+03  0.13816185150E+03  0.16346967098E+03  0.28313188473E+03  0.92163419626E+02 0.  0.
         23    2    4    4    0    0 -0.32942439703E+03 -0.17228818610E+03 -0.51002839835E+03  0.63779565046E+03  0.91927537745E+02 0.  0.
          3    1    3    3  502    0  0.29014684958E+02  0.21722099846E+02 -0.88857702175E+01  0.37318339691E+02  0.00000000000E+00 0. -1.
         -4    1    3    3    0  502  0.13960381139E+03  0.12404234760E+02  0.10460520267E+03  0.17488664220E+03  0.00000000000E+00 0.  1.
         11    1    5    5    0    0 -0.11293808565E+02  0.38917196391E+01  0.33087478115E+01  0.12395297727E+02  0.00000000000E+00 0. -1.
        -11    1    5    5    0    0  0.17209970924E+03  0.13427013186E+03  0.16016092317E+03  0.27073658700E+03  0.00000000000E+00 0.  1.
          1    1    6    6  503    0 -0.17256961101E+02  0.17571300698E+01 -0.32265196712E+01  0.17643713943E+02  0.00000000000E+00 0. -1.
         -1    1    6    6    0  503 -0.31216743593E+03 -0.17404531617E+03 -0.50680187868E+03  0.62015193652E+03  0.00000000000E+00 0.  1.
<mgrwt>
<rscale>  0 0.11050199E+04</rscale>
<asrwt>0</asrwt>
<pdfrwt beam="1">  1        1 0.10645937E+00 0.11050199E+04</pdfrwt>
<pdfrwt beam="2">  1       -2 0.67868710E-01 0.11050199E+04</pdfrwt>
<totfact> 0.48112300E+01</totfact>
</mgrwt>
</event>
<event>
12    4  0.4320235E-008  0.2738884E+04  0.7818608E-02  0.8322498E-01
          1   -1    0    0  501    0  0.00000000000E+00  0.00000000000E+00  0.16156240288E+04  0.16156240288E+04  0.00000000000E+00 0. -1.
         -2   -1    0    0    0  501 -0.00000000000E+00 -0.00000000000E+00 -0.11607723785E+04  0.11607723785E+04  0.00000000000E+00 0.  1.
        -24    2    1    2    0    0  0.45467886358E+03  0.52176041302E+03  0.12220018344E+04  0.14065405517E+04  0.78109171712E+02 0.  0.
        254    2    1    2    0    0 -0.45467886358E+03 -0.52176041302E+03 -0.76715018411E+03  0.13698558556E+04  0.89945475842E+03 0.  0.
         23    2    4    4    0    0 -0.10475233447E+03 -0.69420038229E+03 -0.62521423676E+03  0.94451466022E+03  0.91257214363E+02 0.  0.
         23    2    4    4    0    0 -0.34992652911E+03  0.17243996927E+03 -0.14193594734E+03  0.42534119533E+03  0.92656357147E+02 0.  0.
          3    1    3    3  502    0  0.41013174765E+03  0.42893198602E+03  0.10354322810E+04  0.11934448909E+04  0.00000000000E+00 0. -1.
         -4    1    3    3    0  502  0.44547115928E+02  0.92828426997E+02  0.18656955339E+03  0.21309566079E+03  0.00000000000E+00 0.  1.
         11    1    5    5    0    0 -0.11163356763E+03 -0.67471425400E+03 -0.62025004420E+03  0.92326133641E+03  0.00000000000E+00 0.  1.
        -11    1    5    5    0    0  0.68812331575E+01 -0.19486128287E+02 -0.49641925673E+01  0.21253323816E+02  0.00000000000E+00 0. -1.
          3    1    6    6  503    0 -0.22002533124E+03  0.84771772646E+02 -0.42083015791E+02  0.23951697235E+03  0.00000000000E+00 0. -1.
         -3    1    6    6    0  503 -0.12990119787E+03  0.87668196626E+02 -0.99852931552E+02  0.18582422298E+03  0.00000000000E+00 0.  1.
<mgrwt>
<rscale>  0 0.27388843E+04</rscale>
<asrwt>0</asrwt>
<pdfrwt beam="1">  1        1 0.24855754E+00 0.27388843E+04</pdfrwt>
<pdfrwt beam="2">  1       -2 0.17858037E+00 0.27388843E+04</pdfrwt>
<totfact> 0.77193580E-01</totfact>
</mgrwt>
</event>
<event>
12    4  0.4320235E-008  0.2047855E+04  0.7818608E-02  0.8584568E-01
         -2   -1    0    0    0  501 -0.00000000000E+00  0.00000000000E+00  0.73560328909E+03  0.73560328909E+03  0.00000000000E+00 0.  1.
          1   -1    0    0  501    0  0.00000000000E+00 -0.00000000000E+00 -0.14252618121E+04  0.14252618121E+04  0.00000000000E+00 0. -1.
        -24    2    1    2    0    0 -0.43638034945E+03 -0.92329984099E+02 -0.10095431886E+04  0.11065152953E+04  0.79031726269E+02 0.  0.
        254    2    1    2    0    0  0.43638034945E+03  0.92329984099E+02  0.31988466554E+03  0.10543498059E+04  0.90020813075E+03 0.  0.
         23    2    4    4    0    0 -0.22733392041E+03  0.10328346780E+03  0.27509966574E+03  0.38288967666E+03  0.92609353269E+02 0.  0.
         23    2    4    4    0    0  0.66371426986E+03 -0.10953483704E+02  0.44784999799E+02  0.67146012927E+03  0.90644349922E+02 0.  0.
          3    1    3    3  502    0 -0.43690084059E+03 -0.84707582853E+02 -0.99717076453E+03  0.10919740165E+04  0.00000000000E+00 0. -1.
         -4    1    3    3    0  502  0.52049113679E+00 -0.76224012465E+01 -0.12372424063E+02  0.14541278794E+02  0.00000000000E+00 0.  1.
         11    1    5    5    0    0 -0.21788380043E+03  0.74914133485E+02  0.26539111936E+03  0.35145116890E+03  0.00000000000E+00 0. -1.
        -11    1    5    5    0    0 -0.94501199775E+01  0.28369334318E+02  0.97085463759E+01  0.31438507757E+02  0.00000000000E+00 0.  1.
          2    1    6    6  503    0  0.46354146578E+03  0.33941873194E+02  0.34313710153E+02  0.46604739240E+03  0.00000000000E+00 0. -1.
         -2    1    6    6    0  503  0.20017280408E+03 -0.44895356898E+02  0.10471289647E+02  0.20541273687E+03  0.00000000000E+00 0.  1.
<mgrwt>
<rscale>  0 0.20478548E+04</rscale>
<asrwt>0</asrwt>
<pdfrwt beam="1">  1        1 0.21927104E+00 0.20478548E+04</pdfrwt>
<pdfrwt beam="2">  1       -2 0.11316974E+00 0.20478548E+04</pdfrwt>
<totfact> 0.36670312E+00</totfact>
</mgrwt>
</event>
<event>
12    4  0.4320235E-008  0.1477790E+04  0.7818608E-02  0.8899358E-01
         -2   -1    0    0    0  501 -0.00000000000E+00  0.00000000000E+00  0.70730786396E+03  0.70730786396E+03  0.00000000000E+00 0.  1.
          1   -1    0    0  501    0  0.00000000000E+00 -0.00000000000E+00 -0.77189299036E+03  0.77189299036E+03  0.00000000000E+00 0. -1.
        -24    2    1    2    0    0  0.21929590502E+03 -0.18749468168E+03  0.33527452157E+03  0.44936253809E+03  0.79200607348E+02 0.  0.
        254    2    1    2    0    0 -0.21929590502E+03  0.18749468168E+03 -0.39985964798E+03  0.10298383162E+04  0.90412071643E+03 0.  0.
         23    2    4    4    0    0 -0.29574264248E+03 -0.24288685862E+03  0.48607396837E+02  0.39685726431E+03  0.93141143102E+02 0.  0.
         23    2    4    4    0    0  0.76446737459E+02  0.43038154030E+03 -0.44846704481E+03  0.63298105192E+03  0.92032319893E+02 0.  0.
          1    1    3    3  502    0  0.76110581582E+02 -0.11420511692E+03  0.13526907362E+03  0.19270015993E+03  0.00000000000E+00 0. -1.
         -2    1    3    3    0  502  0.14318532344E+03 -0.73289564765E+02  0.20000544795E+03  0.25666237816E+03  0.00000000000E+00 0.  1.
         11    1    5    5    0    0  0.32006177495E+01 -0.49891401000E+01  0.11590058960E+02  0.13017870011E+02  0.00000000000E+00 0.  1.
        -11    1    5    5    0    0 -0.29894326023E+03 -0.23789771852E+03  0.37017337877E+02  0.38383939430E+03  0.00000000000E+00 0. -1.
          3    1    6    6  503    0  0.65278086804E+02  0.37469368230E+03 -0.33824292682E+03  0.50898414682E+03  0.00000000000E+00 0. -1.
         -3    1    6    6    0  503  0.11168650655E+02  0.55687858004E+02 -0.11022411800E+03  0.12399690510E+03  0.00000000000E+00 0.  1.
<mgrwt>
<rscale>  0 0.14777902E+04</rscale>
<asrwt>0</asrwt>
<pdfrwt beam="1">  1        1 0.11875277E+00 0.14777902E+04</pdfrwt>
<pdfrwt beam="2">  1       -2 0.10881659E+00 0.14777902E+04</pdfrwt>
<totfact> 0.13400810E+01</totfact>
</mgrwt>
</event>
<event>
12    4  0.4320235E-008  0.2167627E+04  0.7818608E-02  0.8532025E-01
         -2   -1    0    0    0  501 -0.00000000000E+00  0.00000000000E+00  0.82551023845E+03  0.82551023845E+03  0.00000000000E+00 0.  1.
          1   -1    0    0  501    0  0.00000000000E+00 -0.00000000000E+00 -0.14229401538E+04  0.14229401538E+04  0.00000000000E+00 0. -1.
        -24    2    1    2    0    0 -0.10367598548E+03  0.69936051054E+02  0.66682270996E+03  0.68309058529E+03  0.79501320701E+02 0.  0.
        254    2    1    2    0    0  0.10367598548E+03 -0.69936051054E+02 -0.12642526253E+04  0.15653598069E+04  0.91453641995E+03 0.  0.
         23    2    4    4    0    0 -0.94219209117E+02 -0.71353022215E+02  0.10210171641E+03  0.18171066611E+03  0.92873529805E+02 0.  0.
         23    2    4    4    0    0  0.19789519460E+03  0.14169711610E+01 -0.13663543417E+04  0.13836491408E+04  0.91631009876E+02 0.  0.
          1    1    3    3  502    0 -0.64632865675E+02  0.36072226920E+02  0.19721602350E+03  0.21064845788E+03  0.00000000000E+00 0. -1.
         -2    1    3    3    0  502 -0.39043119805E+02  0.33863824134E+02  0.46960668646E+03  0.47244212742E+03  0.00000000000E+00 0.  1.
         11    1    5    5    0    0 -0.81837963510E+02 -0.16510261487E+02  0.26694353072E+02  0.87650610333E+02  0.00000000000E+00 0.  1.
        -11    1    5    5    0    0 -0.12381245607E+02 -0.54842760728E+02  0.75407363343E+02  0.94060055780E+02  0.00000000000E+00 0. -1.
          3    1    6    6  503    0  0.47048999455E+02 -0.10303902962E+02 -0.63412569572E+03  0.63595218118E+03  0.00000000000E+00 0. -1.
         -3    1    6    6    0  503  0.15084619514E+03  0.11720874123E+02 -0.73222864596E+03  0.74769695963E+03  0.00000000000E+00 0.  1.
<mgrwt>
<rscale>  0 0.21676270E+04</rscale>
<asrwt>0</asrwt>
<pdfrwt beam="1">  1        1 0.21891387E+00 0.21676270E+04</pdfrwt>
<pdfrwt beam="2">  1       -2 0.12700158E+00 0.21676270E+04</pdfrwt>
<totfact> 0.27371137E+00</totfact>
</mgrwt>
</event>
<event>
12    4  0.4320235E-008  0.1102941E+04  0.7818608E-02  0.9202330E-01
         -2   -1    0    0    0  501 -0.00000000000E+00  0.00000000000E+00  0.69436163941E+03  0.69436163941E+03  0.00000000000E+00 0.  1.
          1   -1    0    0  501    0  0.00000000000E+00 -0.00000000000E+00 -0.43798478109E+03  0.43798478109E+03  0.00000000000E+00 0. -1.
        -24    2    1    2    0    0 -0.13156406566E+03 -0.10428207404E+03  0.72749471540E+02  0.19961995223E+03  0.79823463827E+02 0.  0.
        254    2    1    2    0    0  0.13156406566E+03  0.10428207404E+03  0.18362738678E+03  0.93272646827E+03  0.89893036054E+03 0.  0.
         23    2    4    4    0    0  0.34024190730E+03  0.88806214366E+02  0.45201640984E+03  0.57970551814E+03  0.89936387513E+02 0.  0.
         23    2    4    4    0    0 -0.20867784164E+03  0.15475859673E+02 -0.26838902306E+03  0.35302095013E+03  0.93835919067E+02 0.  0.
          1    1    3    3  502    0 -0.37695391305E+02 -0.51384897986E+02  0.65871224889E+02  0.91653524401E+02  0.00000000000E+00 0. -1.
         -2    1    3    3    0  502 -0.93868674360E+02 -0.52897176053E+02  0.68782466513E+01  0.10796642783E+03  0.00000000000E+00 0.  1.
         11    1    5    5    0    0  0.18639289365E+03  0.63284492869E+01  0.20382552206E+03  0.27627378362E+03  0.00000000000E+00 0. -1.
        -11    1    5    5    0    0  0.15384901366E+03  0.82477765079E+02  0.24819088778E+03  0.30343173452E+03  0.00000000000E+00 0.  1.
          1    1    6    6  503    0 -0.21861453289E+03  0.13651980720E+02 -0.25344146825E+03  0.33497950445E+03  0.00000000000E+00 0. -1.
         -1    1    6    6    0  503  0.99366912554E+01  0.18238789534E+01 -0.14947554808E+02  0.18041445681E+02  0.00000000000E+00 0.  1.
<mgrwt>
<rscale>  0 0.11029412E+04</rscale>
<asrwt>0</asrwt>
<pdfrwt beam="1">  1        1 0.67382274E-01 0.11029412E+04</pdfrwt>
<pdfrwt beam="2">  1       -2 0.10682487E+00 0.11029412E+04</pdfrwt>
<totfact> 0.32617064E+01</totfact>
</mgrwt>
</event>
<event>
12    4  0.4320235E-008  0.2136093E+04  0.7818608E-02  0.8545509E-01
          1   -1    0    0  501    0  0.00000000000E+00  0.00000000000E+00  0.18817190849E+04  0.18817190849E+04  0.00000000000E+00 0. -1.
         -2   -1    0    0    0  501 -0.00000000000E+00 -0.00000000000E+00 -0.60621358978E+03  0.60621358978E+03  0.00000000000E+00 0.  1.
        -24    2    1    2    0    0 -0.68948489570E+03  0.39061945040E+03  0.96675404483E+03  0.12524110370E+04  0.77117092947E+02 0.  0.
        254    2    1    2    0    0  0.68948489570E+03 -0.39061945040E+03  0.30875145031E+03  0.12355216377E+04  0.89622167049E+03 0.  0.
         23    2    4    4    0    0  0.52495113938E+02  0.25858465740E+03  0.37111251541E+02  0.28178815916E+03  0.91681839126E+02 0.  0.
         23    2    4    4    0    0  0.63698978176E+03 -0.64920410780E+03  0.27164019877E+03  0.95373347851E+03  0.92721059017E+02 0.  0.
          3    1    3    3  502    0 -0.29219598290E+03  0.15188765177E+03  0.45904718217E+03  0.56495368539E+03  0.00000000000E+00 0. -1.
         -4    1    3    3    0  502 -0.39728891280E+03  0.23873179863E+03  0.50770686266E+03  0.68745735163E+03  0.00000000000E+00 0.  1.
         11    1    5    5    0    0  0.59427897261E+02  0.10034874709E+03  0.40231119338E+02  0.12336972473E+03  0.00000000000E+00 0. -1.
        -11    1    5    5    0    0 -0.69327833226E+01  0.15823591031E+03 -0.31198677970E+01  0.15841843444E+03  0.00000000000E+00 0.  1.
          2    1    6    6  503    0  0.21241128096E+03 -0.17456051703E+03  0.50068777999E+02  0.27945806289E+03  0.00000000000E+00 0. -1.
         -2    1    6    6    0  503  0.42457850081E+03 -0.47464359077E+03  0.22157142077E+03  0.67427541562E+03  0.00000000000E+00 0.  1.
<mgrwt>
<rscale>  0 0.21360933E+04</rscale>
<asrwt>0</asrwt>
<pdfrwt beam="1">  1        1 0.28949524E+00 0.21360933E+04</pdfrwt>
<pdfrwt beam="2">  1       -2 0.93263630E-01 0.21360933E+04</pdfrwt>
<totfact> 0.28086942E+00</totfact>
</mgrwt>
</event>
<event>
12    4  0.4320235E-008  0.2174557E+04  0.7818608E-02  0.8529093E-01
         -2   -1    0    0    0  501 -0.00000000000E+00  0.00000000000E+00  0.10713240045E+04  0.10713240045E+04  0.00000000000E+00 0.  1.
          1   -1    0    0  501    0  0.00000000000E+00 -0.00000000000E+00 -0.11034701561E+04  0.11034701561E+04  0.00000000000E+00 0. -1.
        -24    2    1    2    0    0  0.27449947167E+03 -0.45652378577E+03 -0.73837848023E+03  0.91464596361E+03  0.87238361816E+02 0.  0.
        254    2    1    2    0    0 -0.27449947167E+03  0.45652378577E+03  0.70623232863E+03  0.12601481970E+04  0.89746612722E+03 0.  0.
         23    2    4    4    0    0 -0.30357127264E+02  0.65800755716E+03  0.28332095098E+03  0.72301596505E+03  0.92659721515E+02 0.  0.
         23    2    4    4    0    0 -0.24414234440E+03 -0.20148377139E+03  0.42291137764E+03  0.53713223196E+03  0.97240972855E+02 0.  0.
          3    1    3    3  502    0  0.26537177826E+03 -0.45851640227E+03 -0.71862101714E+03  0.89279092632E+03  0.00000000000E+00 0. -1.
         -4    1    3    3    0  502  0.91276934094E+01  0.19926164967E+01 -0.19757463086E+02  0.21855037292E+02  0.00000000000E+00 0.  1.
         11    1    5    5    0    0  0.26045245788E+01  0.27839232169E+03  0.16683118783E+03  0.32456388209E+03  0.00000000000E+00 0. -1.
        -11    1    5    5    0    0 -0.32961651843E+02  0.37961523547E+03  0.11648976315E+03  0.39845208296E+03  0.00000000000E+00 0.  1.
          1    1    6    6  503    0 -0.23979967737E+03 -0.20935332295E+03  0.39217089724E+03  0.50510465424E+03  0.00000000000E+00 0. -1.
         -1    1    6    6    0  503 -0.43426670325E+01  0.78695515584E+01  0.30740480404E+02  0.32027577713E+02  0.00000000000E+00 0.  1.
<mgrwt>
<rscale>  0 0.21745566E+04</rscale>
<asrwt>0</asrwt>
<pdfrwt beam="1">  1        1 0.16976464E+00 0.21745566E+04</pdfrwt>
<pdfrwt beam="2">  1       -2 0.16481908E+00 0.21745566E+04</pdfrwt>
<totfact> 0.23451690E+00</totfact>
</mgrwt>
</event>
<event>
12    4  0.4320235E-008  0.2017087E+04  0.7818608E-02  0.8598673E-01
          1   -1    0    0  501    0  0.00000000000E+00  0.00000000000E+00  0.21767572170E+04  0.21767572170E+04  0.00000000000E+00 0. -1.
         -2   -1    0    0    0  501 -0.00000000000E+00 -0.00000000000E+00 -0.46728234432E+03  0.46728234432E+03  0.00000000000E+00 0.  1.
        -24    2    1    2    0    0 -0.31483503386E+03 -0.53653479384E+03  0.13552343157E+04  0.14934954875E+04  0.82933931659E+02 0.  0.
        254    2    1    2    0    0  0.31483503386E+03  0.53653479384E+03  0.35424055693E+03  0.11505440738E+04  0.90070783837E+03 0.  0.
         23    2    4    4    0    0  0.61045657556E+03  0.38954719439E+03  0.34609890288E+03  0.80779342758E+03  0.91331942741E+02 0.  0.
         23    2    4    4    0    0 -0.29562154170E+03  0.14698759945E+03  0.81416540498E+01  0.34275064625E+03  0.91729322811E+02 0.  0.
          1    1    3    3  502    0 -0.30298199724E+03 -0.51050980110E+03  0.12401983862E+04  0.13749583211E+04  0.00000000000E+00 0. -1.
         -2    1    3    3    0  502 -0.11853036615E+02 -0.26024992741E+02  0.11503592958E+03  0.11853716640E+03  0.00000000000E+00 0.  1.
         11    1    5    5    0    0  0.47999323328E+02  0.50620872949E+02  0.11224073514E+02  0.70656830132E+02  0.00000000000E+00 0. -1.
        -11    1    5    5    0    0  0.56245725223E+03  0.33892632144E+03  0.33487482937E+03  0.73713659745E+03  0.00000000000E+00 0.  1.
          4    1    6    6  503    0 -0.31789362156E+02 -0.83144527904E+01  0.15903512560E+02  0.36505004907E+02  0.00000000000E+00 0. -1.
         -4    1    6    6    0  503 -0.26383217954E+03  0.15530205224E+03 -0.77618585101E+01  0.30624564134E+03  0.00000000000E+00 0.  1.
<mgrwt>
<rscale>  0 0.20170872E+04</rscale>
<asrwt>0</asrwt>
<pdfrwt beam="1">  1        1 0.33488572E+00 0.20170872E+04</pdfrwt>
<pdfrwt beam="2">  1       -2 0.71889593E-01 0.20170872E+04</pdfrwt>
<totfact> 0.32236846E+00</totfact>
</mgrwt>
</event>
<event>
12    4  0.4320235E-008  0.1365135E+04  0.7818608E-02  0.8979450E-01
         -2   -1    0    0    0  501 -0.00000000000E+00  0.00000000000E+00  0.24233494217E+03  0.24233494217E+03  0.00000000000E+00 0.  1.
          1   -1    0    0  501    0  0.00000000000E+00 -0.00000000000E+00 -0.19225387839E+04  0.19225387839E+04  0.00000000000E+00 0. -1.
        -24    2    1    2    0    0 -0.37309119472E+03  0.28121943021E+02 -0.35280614140E+03  0.51989334792E+03  0.76348127334E+02 0.  0.
        254    2    1    2    0    0  0.37309119472E+03 -0.28121943021E+02 -0.13273977004E+04  0.16449803782E+04  0.89665372714E+03 0.  0.
         23    2    4    4    0    0  0.24317327138E+03  0.41361191540E+03 -0.53947509952E+03  0.72780941975E+03  0.92006043246E+02 0.  0.
         23    2    4    4    0    0  0.12991792333E+03 -0.44173385842E+03 -0.78792260083E+03  0.91717095842E+03  0.91504500345E+02 0.  0.
          3    1    3    3  502    0 -0.14272896204E+03  0.17832562421E+02 -0.18679883625E+03  0.23576123963E+03  0.00000000000E+00 0. -1.
         -4    1    3    3    0  502 -0.23036223268E+03  0.10289380599E+02 -0.16600730514E+03  0.28413210829E+03  0.00000000000E+00 0.  1.
         11    1    5    5    0    0  0.39845336436E+02  0.13120622985E+03 -0.11529287204E+03  0.17915125433E+03  0.00000000000E+00 0.  1.
        -11    1    5    5    0    0  0.20332793495E+03  0.28240568555E+03 -0.42418222749E+03  0.54865816542E+03  0.00000000000E+00 0. -1.
          4    1    6    6  503    0  0.11819597651E+03 -0.44138059357E+03 -0.75852994110E+03  0.88552514859E+03  0.00000000000E+00 0. -1.
         -4    1    6    6    0  503  0.11721946825E+02 -0.35326485246E+00 -0.29392659735E+02  0.31645809829E+02  0.00000000000E+00 0.  1.
<mgrwt>
<rscale>  0 0.13651349E+04</rscale>
<asrwt>0</asrwt>
<pdfrwt beam="1">  1        1 0.29577521E+00 0.13651349E+04</pdfrwt>
<pdfrwt beam="2">  1       -2 0.37282298E-01 0.13651349E+04</pdfrwt>
<totfact> 0.19596021E+01</totfact>
</mgrwt>
</event>
<event>
12    4  0.4320235E-008  0.1655136E+04  0.7818608E-02  0.8787374E-01
         -2   -1    0    0    0  501 -0.00000000000E+00  0.00000000000E+00  0.93877827201E+03  0.93877827201E+03  0.00000000000E+00 0.  1.
          1   -1    0    0  501    0  0.00000000000E+00 -0.00000000000E+00 -0.72953162626E+03  0.72953162626E+03  0.00000000000E+00 0. -1.
        -24    2    1    2    0    0  0.47230044063E+03  0.12345508888E+03  0.37779715894E+03  0.62232169047E+03  0.79023591026E+02 0.  0.
        254    2    1    2    0    0 -0.47230044063E+03 -0.12345508888E+03 -0.16855051318E+03  0.10459882078E+04  0.90960056627E+03 0.  0.
         23    2    4    4    0    0 -0.49487001544E+03 -0.13115319634E+03  0.27865391790E+03  0.58915186744E+03  0.85757937573E+02 0.  0.
         23    2    4    4    0    0  0.22569574813E+02  0.76981074544E+01 -0.44720443109E+03  0.45683634035E+03  0.90216362793E+02 0.  0.
          1    1    3    3  502    0  0.82690302153E+02  0.35389405437E+02  0.10680446742E+03  0.13963269799E+03  0.00000000000E+00 0. -1.
         -2    1    3    3    0  502  0.38961013848E+03  0.88065683445E+02  0.27099269152E+03  0.48268899248E+03  0.00000000000E+00 0.  1.
         11    1    5    5    0    0 -0.42777540823E+03 -0.92236170413E+02  0.20921668714E+03  0.48504735150E+03  0.00000000000E+00 0.  1.
        -11    1    5    5    0    0 -0.67094607211E+02 -0.38917025923E+02  0.69437230768E+02  0.10410451595E+03  0.00000000000E+00 0. -1.
          1    1    6    6  503    0 -0.71062669446E+01  0.14878791101E+02 -0.11593136414E+02  0.20156345562E+02  0.00000000000E+00 0. -1.
         -1    1    6    6    0  503  0.29675841757E+02 -0.71806836466E+01 -0.43561129467E+03  0.43667999479E+03  0.00000000000E+00 0.  1.
<mgrwt>
<rscale>  0 0.16551356E+04</rscale>
<asrwt>0</asrwt>
<pdfrwt beam="1">  1        1 0.11223563E+00 0.16551356E+04</pdfrwt>
<pdfrwt beam="2">  1       -2 0.14442743E+00 0.16551356E+04</pdfrwt>
<totfact> 0.70785677E+00</totfact>
</mgrwt>
</event>
<event>
12    4  0.4320235E-008  0.1643771E+04  0.7818608E-02  0.8794100E-01
          1   -1    0    0  501    0  0.00000000000E+00  0.00000000000E+00  0.20462783853E+04  0.20462783853E+04  0.00000000000E+00 0. -1.
         -2   -1    0    0    0  501 -0.00000000000E+00 -0.00000000000E+00 -0.33010948406E+03  0.33010948406E+03  0.00000000000E+00 0.  1.
        -24    2    1    2    0    0  0.12909987305E+03  0.50775714565E+03  0.92127005876E+03  0.10629495496E+04  0.81480841547E+02 0.  0.
        254    2    1    2    0    0 -0.12909987305E+03 -0.50775714565E+03  0.79489884243E+03  0.13134383198E+04  0.90486018474E+03 0.  0.
         23    2    4    4    0    0  0.17728986044E+03 -0.65924780223E+03  0.56666099997E+03  0.89181079973E+03  0.90456919338E+02 0.  0.
         23    2    4    4    0    0 -0.30638973349E+03  0.15149065658E+03  0.22823784246E+03  0.42162752003E+03  0.94091259414E+02 0.  0.
          3    1    3    3  502    0  0.11332166374E+03  0.49497215687E+03  0.90113565327E+03  0.10343523100E+04  0.00000000000E+00 0. -1.
         -4    1    3    3    0  502  0.15778209306E+02  0.12784988775E+02  0.20134405492E+02  0.28597239577E+02  0.00000000000E+00 0.  1.
         11    1    5    5    0    0  0.60833559543E+02 -0.27326659586E+03  0.28845311478E+03  0.40197083702E+03  0.00000000000E+00 0.  1.
        -11    1    5    5    0    0  0.11645630090E+03 -0.38598120637E+03  0.27820788519E+03  0.48983996271E+03  0.00000000000E+00 0. -1.
          3    1    6    6  503    0 -0.19795256370E+03  0.92231910354E+02  0.19713450196E+03  0.29420053472E+03  0.00000000000E+00 0. -1.
         -3    1    6    6    0  503 -0.10843716979E+03  0.59258746228E+02  0.31103340498E+02  0.12742698532E+03  0.00000000000E+00 0.  1.
<mgrwt>
<rscale>  0 0.16437712E+04</rscale>
<asrwt>0</asrwt>
<pdfrwt beam="1">  1        1 0.31481205E+00 0.16437712E+04</pdfrwt>
<pdfrwt beam="2">  1       -2 0.50786076E-01 0.16437712E+04</pdfrwt>
<totfact> 0.85325639E+00</totfact>
</mgrwt>
</event>
<event>
12    4  0.4320235E-008  0.1667876E+04  0.7818608E-02  0.8779901E-01
         -2   -1    0    0    0  501 -0.00000000000E+00  0.00000000000E+00  0.33826029087E+03  0.33826029087E+03  0.00000000000E+00 0.  1.
          1   -1    0    0  501    0  0.00000000000E+00 -0.00000000000E+00 -0.20559698193E+04  0.20559698193E+04  0.00000000000E+00 0. -1.
        -24    2    1    2    0    0 -0.47267591790E+03  0.24122690762E+03 -0.24479740261E+03  0.58977071370E+03  0.79314450703E+02 0.  0.
        254    2    1    2    0    0  0.47267591790E+03 -0.24122690762E+03 -0.14729121259E+04  0.18044593965E+04  0.89721270544E+03 0.  0.
         23    2    4    4    0    0  0.59049470902E+03 -0.41095111193E+03 -0.13831895802E+04  0.15618074792E+04  0.92002008499E+02 0.  0.
         23    2    4    4    0    0 -0.11781879112E+03  0.16972420430E+03 -0.89722545649E+02  0.24265191728E+03  0.90234387544E+02 0.  0.
          1    1    3    3  502    0 -0.10427968443E+03  0.31767922263E+02 -0.79383409360E+02  0.13485243473E+03  0.00000000000E+00 0. -1.
         -2    1    3    3    0  502 -0.36839623347E+03  0.20945898536E+03 -0.16541399325E+03  0.45491827898E+03  0.00000000000E+00 0.  1.
         11    1    5    5    0    0  0.56668077211E+03 -0.39994553640E+03 -0.13605821165E+04  0.15271762260E+04  0.00000000000E+00 0. -1.
        -11    1    5    5    0    0  0.23813936911E+02 -0.11005575527E+02 -0.22607463757E+02  0.34631253246E+02  0.00000000000E+00 0.  1.
          2    1    6    6  503    0 -0.74566158274E+02  0.16200055122E+03 -0.54923448832E+02  0.18660352565E+03  0.00000000000E+00 0. -1.
         -2    1    6    6    0  503 -0.43252632847E+02  0.77236530890E+01 -0.34799096817E+02  0.56048391632E+02  0.00000000000E+00 0.  1.
<mgrwt>
<rscale>  0 0.16678764E+04</rscale>
<asrwt>0</asrwt>
<pdfrwt beam="1">  1        1 0.31630305E+00 0.16678764E+04</pdfrwt>
<pdfrwt beam="2">  1       -2 0.52040045E-01 0.16678764E+04</pdfrwt>
<totfact> 0.79774561E+00</totfact>
</mgrwt>
</event>
<event>
12    4  0.4320235E-008  0.1261401E+04  0.7818608E-02  0.9060748E-01
         -2   -1    0    0    0  501 -0.00000000000E+00  0.00000000000E+00  0.12270857514E+04  0.12270857514E+04  0.00000000000E+00 0.  1.
          1   -1    0    0  501    0  0.00000000000E+00 -0.00000000000E+00 -0.32416873584E+03  0.32416873584E+03  0.00000000000E+00 0. -1.
        -24    2    1    2    0    0 -0.18616454985E+03  0.13802206558E+03  0.47639428066E+01  0.24598934672E+03  0.82345208381E+02 0.  0.
        254    2    1    2    0    0  0.18616454985E+03 -0.13802206558E+03  0.89815307270E+03  0.13052651405E+04  0.91833044962E+03 0.  0.
         23    2    4    4    0    0 -0.47972901964E+02  0.10611585520E+03  0.94109493379E+03  0.95270823435E+03  0.91822281303E+02 0.  0.
         23    2    4    4    0    0  0.23413745181E+03 -0.24413792079E+03 -0.42941861089E+02  0.35255690612E+03  0.89603001672E+02 0.  0.
          3    1    3    3  502    0 -0.14203799548E+03  0.12223345783E+03 -0.27065328197E+02  0.18933658486E+03  0.00000000000E+00 0. -1.
         -4    1    3    3    0  502 -0.44126554365E+02  0.15788607751E+02  0.31829271003E+02  0.56652761870E+02  0.00000000000E+00 0.  1.
         11    1    5    5    0    0  0.22330379932E+02  0.60016396938E+02  0.38282777418E+03  0.38814651674E+03  0.00000000000E+00 0.  1.
        -11    1    5    5    0    0 -0.70303281896E+02  0.46099458266E+02  0.55826715961E+03  0.56456171762E+03  0.00000000000E+00 0. -1.
          4    1    6    6  503    0  0.15764159070E+03 -0.10236813807E+03 -0.10673155548E+02  0.18826583084E+03  0.00000000000E+00 0. -1.
         -4    1    6    6    0  503  0.76495861108E+02 -0.14176978272E+03 -0.32268705541E+02  0.16429107528E+03  0.00000000000E+00 0.  1.
<mgrwt>
<rscale>  0 0.12614005E+04</rscale>
<asrwt>0</asrwt>
<pdfrwt beam="1">  1        1 0.49872114E-01 0.12614005E+04</pdfrwt>
<pdfrwt beam="2">  1       -2 0.18878242E+00 0.12614005E+04</pdfrwt>
<totfact> 0.10753221E+01</totfact>
</mgrwt>
</event>
<event>
12    4  0.4320235E-008  0.1778109E+04  0.7818608E-02  0.8718028E-01
          1   -1    0    0  501    0  0.00000000000E+00  0.00000000000E+00  0.10313339536E+04  0.10313339536E+04  0.00000000000E+00 0. -1.
         -2   -1    0    0    0  501 -0.00000000000E+00 -0.00000000000E+00 -0.76640369361E+03  0.76640369361E+03  0.00000000000E+00 0.  1.
        -24    2    1    2    0    0 -0.45890543396E+03  0.35144190721E+03 -0.21658057594E+03  0.62253416399E+03  0.80845704906E+02 0.  0.
        254    2    1    2    0    0  0.45890543396E+03 -0.35144190721E+03  0.48151083597E+03  0.11752034833E+04  0.90285377024E+03 0.  0.
         23    2    4    4    0    0 -0.22570585625E+03 -0.23679231563E+03  0.27096007753E+02  0.34058151926E+03  0.90817637819E+02 0.  0.
         23    2    4    4    0    0  0.68461129021E+03 -0.11464959157E+03  0.45441482822E+03  0.83462196399E+03  0.90905660665E+02 0.  0.
          3    1    3    3  502    0 -0.12323513935E+03  0.70007379574E+02 -0.22837946642E+02  0.14356010787E+03  0.00000000000E+00 0. -1.
         -4    1    3    3    0  502 -0.33567029461E+03  0.28143452764E+03 -0.19374262930E+03  0.47897405612E+03  0.00000000000E+00 0.  1.
         11    1    5    5    0    0 -0.12331586805E+03 -0.15989826716E+03  0.55512251352E+02  0.20941792952E+03  0.00000000000E+00 0.  1.
        -11    1    5    5    0    0 -0.10238998820E+03 -0.76894048472E+02 -0.28416243598E+02  0.13116358975E+03  0.00000000000E+00 0. -1.
          2    1    6    6  503    0  0.16667582038E+03 -0.17943528833E+02  0.66538992299E+02  0.18036140613E+03  0.00000000000E+00 0. -1.
         -2    1    6    6    0  503  0.51793546983E+03 -0.96706062741E+02  0.38787583592E+03  0.65426055786E+03  0.00000000000E+00 0.  1.
<mgrwt>
<rscale>  0 0.17781093E+04</rscale>
<asrwt>0</asrwt>
<pdfrwt beam="1">  1        1 0.15866676E+00 0.17781093E+04</pdfrwt>
<pdfrwt beam="2">  1       -2 0.11790826E+00 0.17781093E+04</pdfrwt>
<totfact> 0.65760374E+00</totfact>
</mgrwt>
</event>
<event>
12    4  0.4320235E-008  0.1167050E+04  0.7818608E-02  0.9142196E-01
          1   -1    0    0  501    0  0.00000000000E+00  0.00000000000E+00  0.16979362891E+03  0.16979362891E+03  0.00000000000E+00 0. -1.
         -2   -1    0    0    0  501 -0.00000000000E+00 -0.00000000000E+00 -0.20053852236E+04  0.20053852236E+04  0.00000000000E+00 0.  1.
        -24    2    1    2    0    0 -0.16103863797E+03 -0.15004664597E+03 -0.24815342651E+03  0.34140784450E+03  0.80819269422E+02 0.  0.
        254    2    1    2    0    0  0.16103863797E+03  0.15004664597E+03 -0.15874381682E+04  0.18337710080E+04  0.89123999749E+03 0.  0.
         23    2    4    4    0    0 -0.33777056721E+03  0.25117323634E+02 -0.93208605924E+03  0.99571369973E+03  0.89115172471E+02 0.  0.
         23    2    4    4    0    0  0.49880920518E+03  0.12492932234E+03 -0.65535210892E+03  0.83805730827E+03  0.91846102352E+02 0.  0.
          3    1    3    3  502    0 -0.12792033590E+03 -0.14116867815E+03 -0.23953386562E+03  0.30605339535E+03  0.00000000000E+00 0. -1.
         -4    1    3    3    0  502 -0.33118302075E+02 -0.88779678256E+01 -0.86195608960E+01  0.35354449156E+02  0.00000000000E+00 0.  1.
         11    1    5    5    0    0 -0.88106332445E+02  0.56295468781E+01 -0.14513265352E+03  0.16987614527E+03  0.00000000000E+00 0. -1.
        -11    1    5    5    0    0 -0.24966423477E+03  0.19487776756E+02 -0.78695340573E+03  0.82583755446E+03  0.00000000000E+00 0.  1.
          4    1    6    6  503    0  0.95204588793E+02  0.25855536126E+02 -0.19043144092E+03  0.21446807726E+03  0.00000000000E+00 0. -1.
         -4    1    6    6    0  503  0.40360461639E+03  0.99073786213E+02 -0.46492066801E+03  0.62358923101E+03  0.00000000000E+00 0.  1.
<mgrwt>
<rscale>  0 0.11670504E+04</rscale>
<asrwt>0</asrwt>
<pdfrwt beam="1">  1        1 0.26122096E-01 0.11670504E+04</pdfrwt>
<pdfrwt beam="2">  1       -2 0.30852081E+00 0.11670504E+04</pdfrwt>
<totfact> 0.45357247E+00</totfact>
</mgrwt>
</event>
<event>
12    4  0.4320235E-008  0.1011168E+04  0.7818608E-02  0.9296380E-01
         -2   -1    0    0    0  501 -0.00000000000E+00  0.00000000000E+00  0.29981025154E+03  0.29981025154E+03  0.00000000000E+00 0.  1.
          1   -1    0    0  501    0  0.00000000000E+00 -0.00000000000E+00 -0.85259026882E+03  0.85259026882E+03  0.00000000000E+00 0. -1.
        -24    2    1    2    0    0  0.55628335296E+02  0.26550387873E+02 -0.15675670543E+03  0.18634315696E+03  0.79697381781E+02 0.  0.
        254    2    1    2    0    0 -0.55628335296E+02 -0.26550387873E+02 -0.39602331184E+03  0.96605736341E+03  0.87899541016E+03 0.  0.
         23    2    4    4    0    0  0.43657831369E+01  0.29362734079E+03  0.13509928959E+03  0.33632969203E+03  0.92896546610E+02 0.  0.
         23    2    4    4    0    0 -0.59994118433E+02 -0.32017772866E+03 -0.53112260143E+03  0.62972767138E+03  0.91392834298E+02 0.  0.
          1    1    3    3  502    0  0.75781783399E+02  0.19230518773E+02 -0.11054027147E+03  0.13539513715E+03  0.00000000000E+00 0. -1.
         -2    1    3    3    0  502 -0.20153448103E+02  0.73198690996E+01 -0.46216433956E+02  0.50948019802E+02  0.00000000000E+00 0.  1.
         11    1    5    5    0    0  0.34952896179E+02  0.94550350002E+02  0.15236847606E+02  0.10194917931E+03  0.00000000000E+00 0. -1.
        -11    1    5    5    0    0 -0.30587113042E+02  0.19907699079E+03  0.11986244198E+03  0.23438051272E+03  0.00000000000E+00 0.  1.
          2    1    6    6  503    0  0.71561920675E+01 -0.16820099881E+03 -0.31447460765E+03  0.35670305009E+03  0.00000000000E+00 0.  1.
         -2    1    6    6    0  503 -0.67150310501E+02 -0.15197672985E+03 -0.21664799378E+03  0.27302462128E+03  0.00000000000E+00 0. -1.
<mgrwt>
<rscale>  0 0.10111682E+04</rscale>
<asrwt>0</asrwt>
<pdfrwt beam="1">  1        1 0.13116773E+00 0.10111682E+04</pdfrwt>
<pdfrwt beam="2">  1       -2 0.46124655E-01 0.10111682E+04</pdfrwt>
<totfact> 0.77968054E+01</totfact>
</mgrwt>
</event>
<event>
12    4  0.4320235E-008  0.1811910E+04  0.7818608E-02  0.8699991E-01
          1   -1    0    0  501    0  0.00000000000E+00  0.00000000000E+00  0.26427677964E+04  0.26427677964E+04  0.00000000000E+00 0. -1.
         -2   -1    0    0    0  501 -0.00000000000E+00 -0.00000000000E+00 -0.31056624554E+03  0.31056624554E+03  0.00000000000E+00 0.  1.
        -24    2    1    2    0    0 -0.35382667859E+03 -0.18363232148E+02 -0.64502678805E+02  0.36876550011E+03  0.79352830569E+02 0.  0.
        254    2    1    2    0    0  0.35382667859E+03  0.18363232148E+02  0.23967042297E+04  0.25845685419E+04  0.90015157399E+03 0.  0.
         23    2    4    4    0    0 -0.21224882957E+03 -0.20962427851E+03  0.48307373243E+03  0.57397309209E+03  0.84219805811E+02 0.  0.
         23    2    4    4    0    0  0.56607550816E+03  0.22798751066E+03  0.19136304973E+04  0.20105954498E+04  0.89958860595E+02 0.  0.
          3    1    3    3  502    0 -0.14014850140E+03 -0.63404003712E+01  0.13585944475E+02  0.14094815007E+03  0.00000000000E+00 0. -1.
         -4    1    3    3    0  502 -0.21367817719E+03 -0.12022831776E+02 -0.78088623280E+02  0.22781735004E+03  0.00000000000E+00 0.  1.
         11    1    5    5    0    0 -0.36871286576E+02 -0.63737052563E+02  0.67435929905E+02  0.99847425031E+02  0.00000000000E+00 0. -1.
        -11    1    5    5    0    0 -0.17537754299E+03 -0.14588722595E+03  0.41563780252E+03  0.47412566706E+03  0.00000000000E+00 0.  1.
          3    1    6    6  503    0  0.17552821162E+03  0.44642447100E+02  0.46296198628E+03  0.49712865729E+03  0.00000000000E+00 0. -1.
         -3    1    6    6    0  503  0.39054729654E+03  0.18334506356E+03  0.14506685110E+04  0.15134667925E+04  0.00000000000E+00 0.  1.
<mgrwt>
<rscale>  0 0.18119100E+04</rscale>
<asrwt>0</asrwt>
<pdfrwt beam="1">  1        1 0.40657965E+00 0.18119100E+04</pdfrwt>
<pdfrwt beam="2">  1       -2 0.47779424E-01 0.18119100E+04</pdfrwt>
<totfact> 0.37061763E+00</totfact>
</mgrwt>
</event>
<event>
12    4  0.4320235E-008  0.1666843E+04  0.7818608E-02  0.8780504E-01
         -4   -1    0    0    0  501 -0.00000000000E+00  0.00000000000E+00  0.79587436496E+03  0.79587436496E+03  0.00000000000E+00 0.  1.
          3   -1    0    0  501    0  0.00000000000E+00 -0.00000000000E+00 -0.87274048552E+03  0.87274048552E+03  0.00000000000E+00 0. -1.
        -24    2    1    2    0    0  0.37162526558E+03  0.15449226027E+02 -0.47923980970E+03  0.61186819646E+03  0.79798985209E+02 0.  0.
        254    2    1    2    0    0 -0.37162526558E+03 -0.15449226027E+02  0.40237368914E+03  0.10567466540E+04  0.90358446669E+03 0.  0.
         23    2    4    4    0    0 -0.35190988831E+03  0.40325175154E+03  0.27361891969E+03  0.60773546711E+03  0.89568633809E+02 0.  0.
         23    2    4    4    0    0 -0.19715377267E+02 -0.41870097756E+03  0.12875476945E+03  0.44901118690E+03  0.96612890403E+02 0.  0.
          3    1    3    3  502    0  0.32884737934E+03 -0.77128219004E+01 -0.38969652180E+03  0.50996418073E+03  0.00000000000E+00 0. -1.
         -4    1    3    3    0  502  0.42777886235E+02  0.23162047927E+02 -0.89543287901E+02  0.10190401574E+03  0.00000000000E+00 0.  1.
         11    1    5    5    0    0 -0.63410312112E+02  0.59512125684E+02  0.82835500043E+02  0.12010112761E+03  0.00000000000E+00 0. -1.
        -11    1    5    5    0    0 -0.28849957620E+03  0.34373962585E+03  0.19078341965E+03  0.48763433950E+03  0.00000000000E+00 0.  1.
          4    1    6    6  503    0 -0.18412577411E+02 -0.27813066235E+02 -0.90162639367E+01  0.34552607365E+02  0.00000000000E+00 0. -1.
         -4    1    6    6    0  503 -0.13027998558E+01 -0.39088791133E+03  0.13777103338E+03  0.41445857954E+03  0.00000000000E+00 0.  1.
<mgrwt>
<rscale>  0 0.16668435E+04</rscale>
<asrwt>0</asrwt>
<pdfrwt beam="1">  1        3 0.13426777E+00 0.16668435E+04</pdfrwt>
<pdfrwt beam="2">  1       -4 0.12244221E+00 0.16668435E+04</pdfrwt>
<totfact> 0.47185055E-01</totfact>
</mgrwt>
</event>
<event>
12    4  0.4320235E-008  0.2501044E+04  0.7818608E-02  0.8402614E-01
          1   -1    0    0  501    0  0.00000000000E+00  0.00000000000E+00  0.99794659564E+03  0.99794659564E+03  0.00000000000E+00 0. -1.
         -4   -1    0    0    0  501 -0.00000000000E+00 -0.00000000000E+00 -0.15670235922E+04  0.15670235922E+04  0.00000000000E+00 0.  1.
        -24    2    1    2    0    0 -0.13764559711E+03  0.10795762921E+04 -0.26685843831E+03  0.11252549830E+04  0.10273300155E+03 0.  0.
        254    2    1    2    0    0  0.13764559711E+03 -0.10795762921E+04 -0.30221855823E+03  0.14397152049E+04  0.89275558423E+03 0.  0.
         23    2    4    4    0    0 -0.12774687277E+03 -0.53846865848E+02  0.20254408538E+03  0.26258433768E+03  0.93314947399E+02 0.  0.
         23    2    4    4    0    0  0.26539246988E+03 -0.10257294263E+04 -0.50476264360E+03  0.11771308672E+04  0.91091893329E+02 0.  0.
          3    1    3    3  502    0 -0.64037858739E+02  0.62272897591E+03 -0.20315134264E+03  0.65815096506E+03  0.00000000000E+00 0. -1.
         -4    1    3    3    0  502 -0.73607738369E+02  0.45684731624E+03 -0.63707095672E+02  0.46710401790E+03  0.00000000000E+00 0.  1.
         11    1    5    5    0    0 -0.32419017380E+02 -0.60023090459E+02  0.59190291753E+02  0.90317521633E+02  0.00000000000E+00 0. -1.
        -11    1    5    5    0    0 -0.95327855394E+02  0.61762246108E+01  0.14335379362E+03  0.17226681605E+03  0.00000000000E+00 0.  1.
          1    1    6    6  503    0  0.59961646392E+02 -0.26433617328E+03 -0.17308183649E+03  0.32159964811E+03  0.00000000000E+00 0. -1.
         -1    1    6    6    0  503  0.20543082349E+03 -0.76139325302E+03 -0.33168080711E+03  0.85553121906E+03  0.00000000000E+00 0.  1.
<mgrwt>
<rscale>  0 0.25010445E+04</rscale>
<asrwt>0</asrwt>
<pdfrwt beam="1">  1        1 0.15353025E+00 0.25010445E+04</pdfrwt>
<pdfrwt beam="2">  1       -4 0.24108055E+00 0.25010445E+04</pdfrwt>
<totfact> 0.46644441E-01</totfact>
</mgrwt>
</event>
<event>
12    4  0.4320235E-008  0.1333793E+04  0.7818608E-02  0.9003188E-01
         -2   -1    0    0    0  501 -0.00000000000E+00  0.00000000000E+00  0.90663759631E+03  0.90663759631E+03  0.00000000000E+00 0.  1.
          1   -1    0    0  501    0  0.00000000000E+00 -0.00000000000E+00 -0.49054952959E+03  0.49054952959E+03  0.00000000000E+00 0. -1.
        -24    2    1    2    0    0  0.20541870349E+03  0.62475798337E+00 -0.19662967311E+03  0.29550768520E+03  0.80401054728E+02 0.  0.
        254    2    1    2    0    0 -0.20541870349E+03 -0.62475798337E+00  0.61271773983E+03  0.11016794407E+04  0.89223165562E+03 0.  0.
         23    2    4    4    0    0 -0.63545078139E+02 -0.30495299319E+03 -0.73593330329E+02  0.33266604728E+03  0.90644446778E+02 0.  0.
         23    2    4    4    0    0 -0.14187362535E+03  0.30432823521E+03  0.68631107016E+03  0.76901339342E+03  0.87263474161E+02 0.  0.
          3    1    3    3  502    0  0.13719412900E+03  0.54319011706E+01 -0.76244369035E+02  0.15705075101E+03  0.00000000000E+00 0. -1.
         -4    1    3    3    0  502  0.68224574487E+02 -0.48071431872E+01 -0.12038530407E+03  0.13845693419E+03  0.00000000000E+00 0.  1.
         11    1    5    5    0    0 -0.53508114073E+02 -0.30503563867E+03 -0.81095509816E+02  0.32013487914E+03  0.00000000000E+00 0.  1.
        -11    1    5    5    0    0 -0.10036964066E+02  0.82645475050E-01  0.75021794870E+01  0.12531168142E+02  0.00000000000E+00 0. -1.
          3    1    6    6  503    0  0.12204987028E+02  0.17559740336E+02  0.43034625953E+02  0.48055022838E+02  0.00000000000E+00 0. -1.
         -3    1    6    6    0  503 -0.15407861237E+03  0.28676849487E+03  0.64327644421E+03  0.72095837058E+03  0.00000000000E+00 0.  1.
<mgrwt>
<rscale>  0 0.13337926E+04</rscale>
<asrwt>0</asrwt>
<pdfrwt beam="1">  1        1 0.75469158E-01 0.13337926E+04</pdfrwt>
<pdfrwt beam="2">  1       -2 0.13948271E+00 0.13337926E+04</pdfrwt>
<totfact> 0.14131518E+01</totfact>
</mgrwt>
</event>
<event>
12    4  0.4320235E-008  0.2025204E+04  0.7818608E-02  0.8594927E-01
          1   -1    0    0  501    0  0.00000000000E+00  0.00000000000E+00  0.20130623959E+04  0.20130623959E+04  0.00000000000E+00 0. -1.
         -2   -1    0    0    0  501 -0.00000000000E+00 -0.00000000000E+00 -0.50935459145E+03  0.50935459145E+03  0.00000000000E+00 0.  1.
        -24    2    1    2    0    0  0.12877814352E+02 -0.65418463133E+03  0.51252816070E+01  0.65909173084E+03  0.79071304417E+02 0.  0.
        254    2    1    2    0    0 -0.12877814352E+02  0.65418463133E+03  0.14985825229E+04  0.18633252566E+04  0.89336894050E+03 0.  0.
         23    2    4    4    0    0 -0.29310968075E+02  0.67251202978E+03  0.46157990944E+03  0.82194177122E+03  0.96957204100E+02 0.  0.
         23    2    4    4    0    0  0.16433153723E+02 -0.18327398453E+02  0.10370026134E+04  0.10413834853E+04  0.92191112174E+02 0.  0.
          1    1    3    3  502    0 -0.29562296213E+02 -0.20525240742E+03 -0.13157951168E+02  0.20778741971E+03  0.00000000000E+00 0. -1.
         -2    1    3    3    0  502  0.42440110565E+02 -0.44893222391E+03  0.18283232775E+02  0.45130431113E+03  0.00000000000E+00 0.  1.
         11    1    5    5    0    0 -0.14656264682E+02  0.56275717185E+03  0.34072292189E+03  0.65802929271E+03  0.00000000000E+00 0.  1.
        -11    1    5    5    0    0 -0.14654703393E+02  0.10975485793E+03  0.12085698755E+03  0.16391247851E+03  0.00000000000E+00 0. -1.
          3    1    6    6  503    0  0.80574728358E+01 -0.48287374104E+02  0.32158909294E+03  0.32529392565E+03  0.00000000000E+00 0. -1.
         -3    1    6    6    0  503  0.83756808870E+01  0.29959975651E+02  0.71541352050E+03  0.71608955968E+03  0.00000000000E+00 0.  1.
<mgrwt>
<rscale>  0 0.20252038E+04</rscale>
<asrwt>0</asrwt>
<pdfrwt beam="1">  1        1 0.30970190E+00 0.20252038E+04</pdfrwt>
<pdfrwt beam="2">  1       -2 0.78362246E-01 0.20252038E+04</pdfrwt>
<totfact> 0.34370067E+00</totfact>
</mgrwt>
</event>
<event>
12    4  0.4320235E-008  0.2389796E+04  0.7818608E-02  0.8443334E-01
         -2   -1    0    0    0  501 -0.00000000000E+00  0.00000000000E+00  0.18553837996E+04  0.18553837996E+04  0.00000000000E+00 0.  1.
          1   -1    0    0  501    0  0.00000000000E+00 -0.00000000000E+00 -0.76953432141E+03  0.76953432141E+03  0.00000000000E+00 0. -1.
        -24    2    1    2    0    0  0.32530344689E+03 -0.29255572623E+03  0.14831949837E+04  0.15484502931E+04  0.80123437336E+02 0.  0.
        254    2    1    2    0    0 -0.32530344689E+03  0.29255572623E+03 -0.39734550544E+03  0.10764678279E+04  0.89971570418E+03 0.  0.
         23    2    4    4    0    0 -0.60256402476E+03  0.12808948712E+03 -0.10337298565E+03  0.63105593596E+03  0.89751320345E+02 0.  0.
         23    2    4    4    0    0  0.27726057787E+03  0.16446623911E+03 -0.29397251978E+03  0.44541189195E+03  0.89718109964E+02 0.  0.
          1    1    3    3  502    0  0.11356620532E+03 -0.15429654525E+03  0.61051290844E+03  0.63986773496E+03  0.00000000000E+00 0. -1.
         -2    1    3    3    0  502  0.21173724157E+03 -0.13825918098E+03  0.87268207522E+03  0.90858255816E+03  0.00000000000E+00 0.  1.
         11    1    5    5    0    0 -0.45911500558E+03  0.81848006728E+02 -0.41721575742E+02  0.46821616209E+03  0.00000000000E+00 0. -1.
        -11    1    5    5    0    0 -0.14344901918E+03  0.46241480388E+02 -0.61651409911E+02  0.16283977388E+03  0.00000000000E+00 0.  1.
          3    1    6    6  503    0  0.25637046582E+03  0.11714182529E+03 -0.23511002952E+03  0.36704870107E+03  0.00000000000E+00 0. -1.
         -3    1    6    6    0  503  0.20890112055E+02  0.47324413827E+02 -0.58862490264E+02  0.78363190886E+02  0.00000000000E+00 0.  1.
<mgrwt>
<rscale>  0 0.23897962E+04</rscale>
<asrwt>0</asrwt>
<pdfrwt beam="1">  1        1 0.11838990E+00 0.23897962E+04</pdfrwt>
<pdfrwt beam="2">  1       -2 0.28544366E+00 0.23897962E+04</pdfrwt>
<totfact> 0.72156614E-01</totfact>
</mgrwt>
</event>
<event>
12    4  0.4320235E-008  0.1502541E+04  0.7818608E-02  0.8882765E-01
          3   -1    0    0  501    0  0.00000000000E+00  0.00000000000E+00  0.62274232103E+03  0.62274232103E+03  0.00000000000E+00 0. -1.
         -4   -1    0    0    0  501 -0.00000000000E+00 -0.00000000000E+00 -0.90632600790E+03  0.90632600790E+03  0.00000000000E+00 0.  1.
        -24    2    1    2    0    0  0.75675743833E+02  0.41334047136E+03 -0.37822625176E+03  0.57125172346E+03  0.81830743401E+02 0.  0.
        254    2    1    2    0    0 -0.75675743833E+02 -0.41334047136E+03  0.94642564897E+02  0.95781660547E+03  0.85549884346E+03 0.  0.
         23    2    4    4    0    0 -0.86462787855E+01 -0.22840374789E+03 -0.37043168319E+03  0.44459761051E+03  0.90577994921E+02 0.  0.
         23    2    4    4    0    0 -0.67029465048E+02 -0.18493672346E+03  0.46507424809E+03  0.51321899496E+03  0.91679548890E+02 0.  0.
          1    1    3    3  502    0  0.79089400549E+01  0.14971866098E+01 -0.87270458661E-01  0.80498768108E+01  0.00000000000E+00 0. -1.
         -2    1    3    3    0  502  0.67766803778E+02  0.41184328475E+03 -0.37813898131E+03  0.56320184665E+03  0.00000000000E+00 0.  1.
         11    1    5    5    0    0  0.31947273173E+00 -0.54780621431E+02 -0.17331278280E+03  0.18176451587E+03  0.00000000000E+00 0. -1.
        -11    1    5    5    0    0 -0.89657515173E+01 -0.17362312646E+03 -0.19711890039E+03  0.26283309463E+03  0.00000000000E+00 0.  1.
          2    1    6    6  503    0 -0.13629129731E+02 -0.64750362124E+02  0.67781913969E+02  0.94724603106E+02  0.00000000000E+00 0. -1.
         -2    1    6    6    0  503 -0.53400335317E+02 -0.12018636134E+03  0.39729233412E+03  0.41849439186E+03  0.00000000000E+00 0.  1.
<mgrwt>
<rscale>  0 0.15025413E+04</rscale>
<asrwt>0</asrwt>
<pdfrwt beam="1">  1        3 0.95806511E-01 0.15025413E+04</pdfrwt>
<pdfrwt beam="2">  1       -4 0.13943477E+00 0.15025413E+04</pdfrwt>
<totfact> 0.77173300E-01</totfact>
</mgrwt>
</event>
<event>
12    4  0.4320235E-008  0.2291041E+04  0.7818608E-02  0.8481462E-01
         -2   -1    0    0    0  501 -0.00000000000E+00  0.00000000000E+00  0.50275377355E+03  0.50275377355E+03  0.00000000000E+00 0.  1.
          1   -1    0    0  501    0  0.00000000000E+00 -0.00000000000E+00 -0.26100595634E+04  0.26100595634E+04  0.00000000000E+00 0. -1.
        -24    2    1    2    0    0  0.92198616824E+03 -0.17783017089E+03 -0.12013521664E+04  0.15268713782E+04  0.80044449645E+02 0.  0.
        254    2    1    2    0    0 -0.92198616824E+03  0.17783017089E+03 -0.90595362352E+03  0.15859419588E+04  0.90154193716E+03 0.  0.
         23    2    4    4    0    0 -0.12947533251E+03 -0.26212938101E+03 -0.50525803250E+03  0.59066965986E+03  0.90162595119E+02 0.  0.
         23    2    4    4    0    0 -0.79251083573E+03  0.43995955190E+03 -0.40069559102E+03  0.99527229889E+03  0.91499509386E+02 0.  0.
          1    1    3    3  502    0  0.48268899188E+03 -0.11347994195E+03 -0.68968792134E+03  0.84943262767E+03  0.00000000000E+00 0. -1.
         -2    1    3    3    0  502  0.43929717636E+03 -0.64350228944E+02 -0.51166424503E+03  0.67743875056E+03  0.00000000000E+00 0.  1.
         11    1    5    5    0    0 -0.13924662140E+03 -0.20393827854E+03 -0.40712690862E+03  0.47616463828E+03  0.00000000000E+00 0.  1.
        -11    1    5    5    0    0  0.97712888958E+01 -0.58191102471E+02 -0.98131123877E+02  0.11450502158E+03  0.00000000000E+00 0. -1.
          3    1    6    6  503    0 -0.31328242489E+03  0.16383150338E+03 -0.20448131788E+03  0.40841063724E+03  0.00000000000E+00 0. -1.
         -3    1    6    6    0  503 -0.47922841084E+03  0.27612804853E+03 -0.19621427313E+03  0.58686166165E+03  0.00000000000E+00 0.  1.
<mgrwt>
<rscale>  0 0.22910411E+04</rscale>
<asrwt>0</asrwt>
<pdfrwt beam="1">  1        1 0.40154764E+00 0.22910411E+04</pdfrwt>
<pdfrwt beam="2">  1       -2 0.77346732E-01 0.22910411E+04</pdfrwt>
<totfact> 0.13457144E+00</totfact>
</mgrwt>
</event>
<event>
12    4  0.4320235E-008  0.1173136E+04  0.7818608E-02  0.9136701E-01
         -2   -1    0    0    0  501 -0.00000000000E+00  0.00000000000E+00  0.73694302951E+03  0.73694302951E+03  0.00000000000E+00 0.  1.
          1   -1    0    0  501    0  0.00000000000E+00 -0.00000000000E+00 -0.46687763884E+03  0.46687763884E+03  0.00000000000E+00 0. -1.
        -24    2    1    2    0    0  0.17635195720E+03 -0.36147713772E+02 -0.10564537600E+03  0.22359355290E+03  0.80165213202E+02 0.  0.
        254    2    1    2    0    0 -0.17635195720E+03  0.36147713772E+02  0.37571076666E+03  0.98022711545E+03  0.88728797336E+03 0.  0.
         23    2    4    4    0    0 -0.27354072197E+03 -0.20184158439E+03  0.55249175777E+03  0.65540308102E+03  0.93496012935E+02 0.  0.
         23    2    4    4    0    0  0.97188764776E+02  0.23798929816E+03 -0.17678099111E+03  0.32482403443E+03  0.90413342419E+02 0.  0.
          3    1    3    3  502    0  0.17282838334E+03 -0.42505149530E+02 -0.11488545059E+03  0.21183721246E+03  0.00000000000E+00 0. -1.
         -4    1    3    3    0  502  0.35235738553E+01  0.63574357581E+01  0.92400745861E+01  0.11756340438E+02  0.00000000000E+00 0.  1.
         11    1    5    5    0    0 -0.15271291621E+03 -0.11064476422E+03  0.39071407203E+03  0.43384442454E+03  0.00000000000E+00 0. -1.
        -11    1    5    5    0    0 -0.12082780576E+03 -0.91196820172E+02  0.16177768575E+03  0.22155865648E+03  0.00000000000E+00 0.  1.
          2    1    6    6  503    0  0.80565170473E+02  0.14631102253E+03 -0.64814150454E+02  0.17916064329E+03  0.00000000000E+00 0. -1.
         -2    1    6    6    0  503  0.16623594303E+02  0.91678275637E+02 -0.11196684066E+03  0.14566339114E+03  0.00000000000E+00 0.  1.
<mgrwt>
<rscale>  0 0.11731363E+04</rscale>
<asrwt>0</asrwt>
<pdfrwt beam="1">  1        1 0.71827328E-01 0.11731363E+04</pdfrwt>
<pdfrwt beam="2">  1       -2 0.11337585E+00 0.11731363E+04</pdfrwt>
<totfact> 0.25768199E+01</totfact>
</mgrwt>
</event>
<event>
12    4  0.4320235E-008  0.1164053E+04  0.7818608E-02  0.9144916E-01
          1   -1    0    0  501    0  0.00000000000E+00  0.00000000000E+00  0.60131515563E+03  0.60131515563E+03  0.00000000000E+00 0. -1.
         -2   -1    0    0    0  501 -0.00000000000E+00 -0.00000000000E+00 -0.56335655624E+03  0.56335655624E+03  0.00000000000E+00 0.  1.
        -24    2    1    2    0    0 -0.21628306213E+03  0.51006621793E+02  0.11375412313E+02  0.23616931493E+03  0.79161271319E+02 0.  0.
        254    2    1    2    0    0  0.21628306213E+03 -0.51006621793E+02  0.26583187079E+02  0.92850239695E+03  0.90112707033E+03 0.  0.
         23    2    4    4    0    0 -0.25724843080E+03 -0.16117965327E+02 -0.25266737360E+03  0.37036093558E+03  0.83005282745E+02 0.  0.
         23    2    4    4    0    0  0.47353149293E+03 -0.34888656466E+02  0.27925056068E+03  0.55814146137E+03  0.89954000008E+02 0.  0.
          3    1    3    3  502    0 -0.22193911646E+03  0.51461123340E+02  0.53461993541E+01  0.22788988674E+03  0.00000000000E+00 0. -1.
         -4    1    3    3    0  502  0.56560543291E+01 -0.45450154626E+00  0.60292129594E+01  0.82794281891E+01  0.00000000000E+00 0.  1.
         11    1    5    5    0    0 -0.10937634180E+03  0.62546455605E+01 -0.55270469260E+02  0.12270749573E+03  0.00000000000E+00 0.  1.
        -11    1    5    5    0    0 -0.14787208900E+03 -0.22372610888E+02 -0.19739690434E+03  0.24765343984E+03  0.00000000000E+00 0. -1.
          2    1    6    6  503    0  0.24288799741E+03 -0.13021053019E+02  0.19453412740E+03  0.31146051729E+03  0.00000000000E+00 0. -1.
         -2    1    6    6    0  503  0.23064349552E+03 -0.21867603447E+02  0.84716433281E+02  0.24668094408E+03  0.00000000000E+00 0.  1.
<mgrwt>
<rscale>  0 0.11640530E+04</rscale>
<asrwt>0</asrwt>
<pdfrwt beam="1">  1        1 0.92510024E-01 0.11640530E+04</pdfrwt>
<pdfrwt beam="2">  1       -2 0.86670239E-01 0.11640530E+04</pdfrwt>
<totfact> 0.34178525E+01</totfact>
</mgrwt>
</event>
<event>
12    4  0.4320235E-008  0.1607846E+04  0.7818608E-02  0.8815743E-01
         -2   -1    0    0    0  501 -0.00000000000E+00  0.00000000000E+00  0.10503774837E+04  0.10503774837E+04  0.00000000000E+00 0.  1.
          1   -1    0    0  501    0  0.00000000000E+00 -0.00000000000E+00 -0.61529483803E+03  0.61529483803E+03  0.00000000000E+00 0. -1.
        -24    2    1    2    0    0  0.10710370003E+03  0.33887815618E+03  0.64364294073E+03  0.73965450001E+03  0.80640789519E+02 0.  0.
        254    2    1    2    0    0 -0.10710370003E+03 -0.33887815618E+03 -0.20856029506E+03  0.92601782172E+03  0.82927800054E+03 0.  0.
         23    2    4    4    0    0 -0.43886516504E+03 -0.24392651274E+03  0.44764933811E+01  0.51008177034E+03  0.89780826069E+02 0.  0.
         23    2    4    4    0    0  0.33176146501E+03 -0.94951643439E+02 -0.21303678844E+03  0.41593605139E+03  0.92393946534E+02 0.  0.
          1    1    3    3  502    0 -0.12995691038E+02  0.35601321059E+02  0.57648705252E+02  0.68990689690E+02  0.00000000000E+00 0. -1.
         -2    1    3    3    0  502  0.12009939107E+03  0.30327683512E+03  0.58599423548E+03  0.67066381032E+03  0.00000000000E+00 0.  1.
         11    1    5    5    0    0 -0.43333326744E+03 -0.22115640688E+03  0.66263530716E+01  0.48655090744E+03  0.00000000000E+00 0. -1.
        -11    1    5    5    0    0 -0.55318976023E+01 -0.22770105859E+02 -0.21498596905E+01  0.23530862896E+02  0.00000000000E+00 0.  1.
          4    1    6    6  503    0  0.29302823261E+03 -0.54844715289E+02 -0.15718685375E+03  0.33701809283E+03  0.00000000000E+00 0. -1.
         -4    1    6    6    0  503  0.38733232398E+02 -0.40106928150E+02 -0.55849934694E+02  0.78917958558E+02  0.00000000000E+00 0.  1.
<mgrwt>
<rscale>  0 0.16078456E+04</rscale>
<asrwt>0</asrwt>
<pdfrwt beam="1">  1        1 0.94660744E-01 0.16078456E+04</pdfrwt>
<pdfrwt beam="2">  1       -2 0.16159654E+00 0.16078456E+04</pdfrwt>
<totfact> 0.67884318E+00</totfact>
</mgrwt>
</event>
<event>
12    4  0.4320235E-008  0.1500539E+04  0.7818608E-02  0.8884095E-01
         -2   -1    0    0    0  501 -0.00000000000E+00  0.00000000000E+00  0.10890228814E+04  0.10890228814E+04  0.00000000000E+00 0.  1.
          1   -1    0    0  501    0  0.00000000000E+00 -0.00000000000E+00 -0.51688919764E+03  0.51688919764E+03  0.00000000000E+00 0. -1.
        -24    2    1    2    0    0 -0.23889553449E+03  0.30273877797E+02  0.62825687155E+03  0.67748845216E+03  0.79349367292E+02 0.  0.
        254    2    1    2    0    0  0.23889553449E+03 -0.30273877797E+02 -0.56123187778E+02  0.92842362689E+03  0.89489275038E+03 0.  0.
         23    2    4    4    0    0  0.18509082326E+03  0.24468332754E+03 -0.37551688069E+03  0.49355228079E+03  0.91936840030E+02 0.  0.
         23    2    4    4    0    0  0.53804711233E+02 -0.27495720534E+03  0.31939369291E+03  0.43487134610E+03  0.92759607969E+02 0.  0.
          1    1    3    3  502    0 -0.82842146273E+02  0.24040148210E+02  0.13598701220E+03  0.16103793780E+03  0.00000000000E+00 0. -1.
         -2    1    3    3    0  502 -0.15605338822E+03  0.62337295871E+01  0.49226985935E+03  0.51645051436E+03  0.00000000000E+00 0.  1.
         11    1    5    5    0    0 -0.88279514906E+01  0.14524121654E+02 -0.36225632650E+02  0.40014738513E+02  0.00000000000E+00 0.  1.
        -11    1    5    5    0    0  0.19391877475E+03  0.23015920589E+03 -0.33929124804E+03  0.45353754227E+03  0.00000000000E+00 0. -1.
          1    1    6    6  503    0  0.23137646161E+02 -0.23866832888E+03  0.29872311418E+03  0.38305798624E+03  0.00000000000E+00 0. -1.
         -1    1    6    6    0  503  0.30667065072E+02 -0.36288876458E+02  0.20670578734E+02  0.51813359860E+02  0.00000000000E+00 0.  1.
<mgrwt>
<rscale>  0 0.15005388E+04</rscale>
<asrwt>0</asrwt>
<pdfrwt beam="1">  1        1 0.79521415E-01 0.15005388E+04</pdfrwt>
<pdfrwt beam="2">  1       -2 0.16754198E+00 0.15005388E+04</pdfrwt>
<totfact> 0.79401417E+00</totfact>
</mgrwt>
</event>
<event>
12    4  0.4320235E-008  0.1974574E+04  0.7818608E-02  0.8618601E-01
         -2   -1    0    0    0  501 -0.00000000000E+00  0.00000000000E+00  0.14509302006E+04  0.14509302006E+04  0.00000000000E+00 0.  1.
          1   -1    0    0  501    0  0.00000000000E+00 -0.00000000000E+00 -0.67180050819E+03  0.67180050819E+03  0.00000000000E+00 0. -1.
        -24    2    1    2    0    0 -0.57435843585E+03  0.30322468372E+03  0.77234353535E+03  0.10123519776E+04  0.80679417114E+02 0.  0.
        254    2    1    2    0    0  0.57435843585E+03 -0.30322468372E+03  0.67861570923E+01  0.11103787312E+04  0.90058983623E+03 0.  0.
         23    2    4    4    0    0  0.24313392984E+03 -0.52129378936E+02 -0.42714353449E+03  0.50275782798E+03  0.92099156080E+02 0.  0.
         23    2    4    4    0    0  0.33122450601E+03 -0.25109530479E+03  0.43392969159E+03  0.60762090322E+03  0.90275463539E+02 0.  0.
          1    1    3    3  502    0 -0.29392854260E+01  0.13480926104E+02  0.16114285547E+02  0.21214263270E+02  0.00000000000E+00 0. -1.
         -2    1    3    3    0  502 -0.57141915043E+03  0.28974375762E+03  0.75622924981E+03  0.99113771436E+03  0.00000000000E+00 0.  1.
         11    1    5    5    0    0  0.12065324629E+03 -0.16374324392E+02 -0.29464922236E+03  0.31881575961E+03  0.00000000000E+00 0. -1.
        -11    1    5    5    0    0  0.12248068355E+03 -0.35755054545E+02 -0.13249431213E+03  0.18394206837E+03  0.00000000000E+00 0.  1.
          3    1    6    6  503    0  0.19826162917E+03 -0.18644980693E+03  0.23374194811E+03  0.35875688483E+03  0.00000000000E+00 0. -1.
         -3    1    6    6    0  503  0.13296287684E+03 -0.64645497863E+02  0.20018774347E+03  0.24886401839E+03  0.00000000000E+00 0.  1.
<mgrwt>
<rscale>  0 0.19745740E+04</rscale>
<asrwt>0</asrwt>
<pdfrwt beam="1">  1        1 0.10335392E+00 0.19745740E+04</pdfrwt>
<pdfrwt beam="2">  1       -2 0.22322003E+00 0.19745740E+04</pdfrwt>
<totfact> 0.22251958E+00</totfact>
</mgrwt>
</event>
<event>
12    4  0.4320235E-008  0.2567215E+04  0.7818608E-02  0.8379423E-01
         -2   -1    0    0    0  501 -0.00000000000E+00  0.00000000000E+00  0.94255328853E+03  0.94255328853E+03  0.00000000000E+00 0.  1.
          1   -1    0    0  501    0  0.00000000000E+00 -0.00000000000E+00 -0.17480695138E+04  0.17480695138E+04  0.00000000000E+00 0. -1.
        -24    2    1    2    0    0  0.69203818891E+03  0.29170417018E+03 -0.12291401165E+04  0.14425389162E+04  0.78261873844E+02 0.  0.
        254    2    1    2    0    0 -0.69203818891E+03 -0.29170417018E+03  0.42362389121E+03  0.12480838862E+04  0.90235691826E+03 0.  0.
         23    2    4    4    0    0 -0.74143391317E+03 -0.51773157470E+03  0.40832651300E+03  0.99650093512E+03  0.92267770306E+02 0.  0.
         23    2    4    4    0    0  0.49395724268E+02  0.22602740452E+03  0.15297378212E+02  0.25158295105E+03  0.97630150624E+02 0.  0.
          3    1    3    3  502    0  0.64104828159E+03  0.24840202355E+03 -0.11367013544E+04  0.13284338274E+04  0.00000000000E+00 0. -1.
         -4    1    3    3    0  502  0.50989907319E+02  0.43302146633E+02 -0.92438762070E+02  0.11410508878E+03  0.00000000000E+00 0.  1.
         11    1    5    5    0    0 -0.43581172168E+03 -0.26907359845E+03  0.19175718436E+03  0.54690335151E+03  0.00000000000E+00 0.  1.
        -11    1    5    5    0    0 -0.30562219149E+03 -0.24865797625E+03  0.21656932863E+03  0.44959758361E+03  0.00000000000E+00 0. -1.
          4    1    6    6  503    0  0.12124440071E+02  0.17421625702E+03 -0.24529330190E+02  0.17635190472E+03  0.00000000000E+00 0. -1.
         -4    1    6    6    0  503  0.37271284197E+02  0.51811147497E+02  0.39826708402E+02  0.75231046336E+02  0.00000000000E+00 0.  1.
<mgrwt>
<rscale>  0 0.25672154E+04</rscale>
<asrwt>0</asrwt>
<pdfrwt beam="1">  1        1 0.26893377E+00 0.25672154E+04</pdfrwt>
<pdfrwt beam="2">  1       -2 0.14500820E+00 0.25672154E+04</pdfrwt>
<totfact> 0.11235674E+00</totfact>
</mgrwt>
</event>
<event>
12    4  0.4320235E-008  0.1357360E+04  0.7818608E-02  0.8985275E-01
          1   -1    0    0  501    0  0.00000000000E+00  0.00000000000E+00  0.10567711443E+04  0.10567711443E+04  0.00000000000E+00 0. -1.
         -2   -1    0    0    0  501 -0.00000000000E+00 -0.00000000000E+00 -0.43586226261E+03  0.43586226261E+03  0.00000000000E+00 0.  1.
        -24    2    1    2    0    0 -0.21590605580E+03 -0.28573394162E+03  0.26996344317E+03  0.45566866115E+03  0.80587578320E+02 0.  0.
        254    2    1    2    0    0  0.21590605580E+03  0.28573394162E+03  0.35094543849E+03  0.10369647457E+04  0.90767498192E+03 0.  0.
         23    2    4    4    0    0  0.21050596831E+02  0.51647440919E+03 -0.49323553756E+02  0.52740058940E+03  0.92355973082E+02 0.  0.
         23    2    4    4    0    0  0.19485545897E+03 -0.23074046757E+03  0.40026899225E+03  0.50956415635E+03  0.90722378782E+02 0.  0.
          1    1    3    3  502    0 -0.20915752354E+03 -0.25406803614E+03  0.26580731761E+03  0.42302596461E+03  0.00000000000E+00 0. -1.
         -2    1    3    3    0  502 -0.67485322604E+01 -0.31665905474E+02  0.41561255581E+01  0.32642696531E+02  0.00000000000E+00 0.  1.
         11    1    5    5    0    0  0.26710360412E+02  0.39263801000E+03 -0.75447165039E+02  0.40071227204E+03  0.00000000000E+00 0.  1.
        -11    1    5    5    0    0 -0.56597635815E+01  0.12383639919E+03  0.26123611282E+02  0.12668831736E+03  0.00000000000E+00 0. -1.
          3    1    6    6  503    0 -0.30796037970E+01 -0.55987554024E+01  0.41713820948E+02  0.42200389568E+02  0.00000000000E+00 0. -1.
         -3    1    6    6    0  503  0.19793506277E+03 -0.22514171217E+03  0.35855517130E+03  0.46736376678E+03  0.00000000000E+00 0.  1.
<mgrwt>
<rscale>  0 0.13573602E+04</rscale>
<asrwt>0</asrwt>
<pdfrwt beam="1">  1        1 0.16258018E+00 0.13573602E+04</pdfrwt>
<pdfrwt beam="2">  1       -2 0.67055733E-01 0.13573602E+04</pdfrwt>
<totfact> 0.23943052E+01</totfact>
</mgrwt>
</event>
<event>
12    4  0.4320235E-008  0.1248531E+04  0.7818608E-02  0.9071407E-01
         -2   -1    0    0    0  501 -0.00000000000E+00  0.00000000000E+00  0.17195873314E+04  0.17195873314E+04  0.00000000000E+00 0.  1.
          1   -1    0    0  501    0  0.00000000000E+00 -0.00000000000E+00 -0.22662837254E+03  0.22662837254E+03  0.00000000000E+00 0. -1.
        -24    2    1    2    0    0 -0.27845102267E+02  0.25656091478E+03  0.15655517217E+03  0.31222007509E+03  0.79831075661E+02 0.  0.
        254    2    1    2    0    0  0.27845102267E+02 -0.25656091478E+03  0.13364037867E+04  0.16339956289E+04  0.90408394595E+03 0.  0.
         23    2    4    4    0    0  0.32460037390E+03 -0.28502763461E+03  0.25857701402E+03  0.51233982653E+03  0.94994054780E+02 0.  0.
         23    2    4    4    0    0 -0.29675527163E+03  0.28466719835E+02  0.10778267727E+04  0.11216558023E+04  0.86759101034E+02 0.  0.
          3    1    3    3  502    0 -0.49463611621E+02  0.20597300072E+03  0.14294461811E+03  0.25554782282E+03  0.00000000000E+00 0. -1.
         -4    1    3    3    0  502  0.21618509354E+02  0.50587914057E+02  0.13610554063E+02  0.56672252268E+02  0.00000000000E+00 0.  1.
         11    1    5    5    0    0 -0.51552478033E+01 -0.13542749801E+01 -0.14993693450E+01  0.55370343207E+01  0.00000000000E+00 0. -1.
        -11    1    5    5    0    0  0.32975562170E+03 -0.28367335963E+03  0.26007638336E+03  0.50680279221E+03  0.00000000000E+00 0.  1.
          3    1    6    6  503    0 -0.12383486354E+03  0.54380590539E+02  0.44257043986E+03  0.46277523302E+03  0.00000000000E+00 0. -1.
         -3    1    6    6    0  503 -0.17292040809E+03 -0.25913870704E+02  0.63525633282E+03  0.65888056931E+03  0.00000000000E+00 0.  1.
<mgrwt>
<rscale>  0 0.12485308E+04</rscale>
<asrwt>0</asrwt>
<pdfrwt beam="1">  1        1 0.34865905E-01 0.12485308E+04</pdfrwt>
<pdfrwt beam="2">  1       -2 0.26455189E+00 0.12485308E+04</pdfrwt>
<totfact> 0.57083755E+00</totfact>
</mgrwt>
</event>
<event>
12    4  0.4320235E-008  0.1078596E+04  0.7818608E-02  0.9226308E-01
          1   -1    0    0  501    0  0.00000000000E+00  0.00000000000E+00  0.15522171223E+04  0.15522171223E+04  0.00000000000E+00 0. -1.
         -2   -1    0    0    0  501 -0.00000000000E+00 -0.00000000000E+00 -0.18737236385E+03  0.18737236385E+03  0.00000000000E+00 0.  1.
        -24    2    1    2    0    0 -0.42723283031E+02  0.13234394519E+03  0.14622636297E+03  0.21662774387E+03  0.78773291460E+02 0.  0.
        254    2    1    2    0    0  0.42723283031E+02 -0.13234394519E+03  0.12186183955E+04  0.15229617423E+04  0.90279647535E+03 0.  0.
         23    2    4    4    0    0 -0.26179790463E+03 -0.29046242819E+03  0.20959525884E+03  0.45313636774E+03  0.92172827776E+02 0.  0.
         23    2    4    4    0    0  0.30452118766E+03  0.15811848300E+03  0.10090231367E+04  0.10698253746E+04  0.93080789220E+02 0.  0.
          1    1    3    3  502    0  0.42479831797E+01  0.10230366193E+03  0.10921115568E+03  0.14970357755E+03  0.00000000000E+00 0. -1.
         -2    1    3    3    0  502 -0.46971266211E+02  0.30040283255E+02  0.37015207287E+02  0.66924166323E+02  0.00000000000E+00 0.  1.
         11    1    5    5    0    0 -0.12808550185E+03 -0.93858166488E+02  0.12005926321E+03  0.19907153962E+03  0.00000000000E+00 0. -1.
        -11    1    5    5    0    0 -0.13371240277E+03 -0.19660426170E+03  0.89535995623E+02  0.25406482812E+03  0.00000000000E+00 0.  1.
          3    1    6    6  503    0  0.41231444210E+02  0.12034345165E+02  0.57323620682E+02  0.71629986342E+02  0.00000000000E+00 0. -1.
         -3    1    6    6    0  503  0.26328974345E+03  0.14608413784E+03  0.95169951601E+03  0.99819538824E+03  0.00000000000E+00 0.  1.
<mgrwt>
<rscale>  0 0.10785965E+04</rscale>
<asrwt>0</asrwt>
<pdfrwt beam="1">  1        1 0.23880263E+00 0.10785965E+04</pdfrwt>
<pdfrwt beam="2">  1       -2 0.28826518E-01 0.10785965E+04</pdfrwt>
<totfact> 0.58226989E+01</totfact>
</mgrwt>
</event>
<event>
12    4  0.4320235E-008  0.2264944E+04  0.7818608E-02  0.8491873E-01
          1   -1    0    0  501    0  0.00000000000E+00  0.00000000000E+00  0.33300377607E+04  0.33300377607E+04  0.00000000000E+00 0. -1.
         -2   -1    0    0    0  501 -0.00000000000E+00 -0.00000000000E+00 -0.38512861415E+03  0.38512861415E+03  0.00000000000E+00 0.  1.
        -24    2    1    2    0    0 -0.10503113095E+03 -0.18358594595E+03 -0.28034813629E+03  0.36019697576E+03  0.80071504349E+02 0.  0.
        254    2    1    2    0    0  0.10503113095E+03  0.18358594595E+03  0.32252572829E+04  0.33549693991E+04  0.89933296965E+03 0.  0.
         23    2    4    4    0    0 -0.74401963484E+02  0.13166997967E+03  0.31154218150E+04  0.31204207121E+04  0.91102683167E+02 0.  0.
         23    2    4    4    0    0  0.17943309443E+03  0.51915966282E+02  0.10983546784E+03  0.23454868708E+03  0.89764991399E+02 0.  0.
          1    1    3    3  502    0  0.82198397377E+00 -0.46667519363E+02 -0.28735241136E+02  0.54811012619E+02  0.00000000000E+00 0. -1.
         -2    1    3    3    0  502 -0.10585311492E+03 -0.13691842659E+03 -0.25161289515E+03  0.30538596314E+03  0.00000000000E+00 0.  1.
         11    1    5    5    0    0 -0.28834295314E+02  0.10078370363E+03  0.13202597965E+04  0.13244148526E+04  0.00000000000E+00 0.  1.
        -11    1    5    5    0    0 -0.45567668169E+02  0.30886276043E+02  0.17951620186E+04  0.17960058595E+04  0.00000000000E+00 0. -1.
          2    1    6    6  503    0  0.13992669878E+02 -0.13813273833E+02  0.37602573445E+02  0.42432945620E+02  0.00000000000E+00 0.  1.
         -2    1    6    6    0  503  0.16544042455E+03  0.65729240115E+02  0.72232894398E+02  0.19211574146E+03  0.00000000000E+00 0. -1.
<mgrwt>
<rscale>  0 0.22649440E+04</rscale>
<asrwt>0</asrwt>
<pdfrwt beam="1">  1        1 0.51231348E+00 0.22649440E+04</pdfrwt>
<pdfrwt beam="2">  1       -2 0.59250558E-01 0.22649440E+04</pdfrwt>
<totfact> 0.71909871E-01</totfact>
</mgrwt>
</event>
<event>
12    4  0.4320235E-008  0.1654084E+04  0.7818608E-02  0.8787994E-01
          1   -1    0    0  501    0  0.00000000000E+00  0.00000000000E+00  0.84215321518E+03  0.84215321518E+03  0.00000000000E+00 0. -1.
         -2   -1    0    0    0  501 -0.00000000000E+00 -0.00000000000E+00 -0.81220207809E+03  0.81220207809E+03  0.00000000000E+00 0.  1.
        -24    2    1    2    0    0  0.31291145746E+02  0.53598458029E+03  0.22649626724E+03  0.58820174995E+03  0.80138214768E+02 0.  0.
        254    2    1    2    0    0 -0.31291145746E+02 -0.53598458029E+03 -0.19654513016E+03  0.10661535433E+04  0.89988598369E+03 0.  0.
         23    2    4    4    0    0  0.37709344245E+03 -0.36046749661E+03 -0.28932974295E+03  0.60328742261E+03  0.90042954602E+02 0.  0.
         23    2    4    4    0    0 -0.40838458820E+03 -0.17551708367E+03  0.92784612793E+02  0.46286612070E+03  0.89732061078E+02 0.  0.
          3    1    3    3  502    0  0.38946001408E+02  0.46089101459E+03  0.22071976805E+03  0.51249832621E+03  0.00000000000E+00 0. -1.
         -4    1    3    3    0  502 -0.76548556627E+01  0.75093565696E+02  0.57764991932E+01  0.75703423748E+02  0.00000000000E+00 0.  1.
         11    1    5    5    0    0  0.26270927422E+03 -0.19388500721E+03 -0.19472803554E+03  0.38016649853E+03  0.00000000000E+00 0.  1.
        -11    1    5    5    0    0  0.11438416823E+03 -0.16658248940E+03 -0.94601707414E+02  0.22312092408E+03  0.00000000000E+00 0. -1.
          3    1    6    6  503    0 -0.21640011073E+02 -0.66519149848E+01  0.27858401231E+02  0.35897473050E+02  0.00000000000E+00 0. -1.
         -3    1    6    6    0  503 -0.38674457713E+03 -0.16886516869E+03  0.64926211563E+02  0.42696864765E+03  0.00000000000E+00 0.  1.
<mgrwt>
<rscale>  0 0.16540841E+04</rscale>
<asrwt>0</asrwt>
<pdfrwt beam="1">  1        1 0.12956203E+00 0.16540841E+04</pdfrwt>
<pdfrwt beam="2">  1       -2 0.12495417E+00 0.16540841E+04</pdfrwt>
<totfact> 0.81673185E+00</totfact>
</mgrwt>
</event>
<event>
12    4  0.4320235E-008  0.1608860E+04  0.7818608E-02  0.8815123E-01
          1   -1    0    0  501    0  0.00000000000E+00  0.00000000000E+00  0.13977464706E+04  0.13977464706E+04  0.00000000000E+00 0. -1.
         -2   -1    0    0    0  501 -0.00000000000E+00 -0.00000000000E+00 -0.46296510309E+03  0.46296510309E+03  0.00000000000E+00 0.  1.
        -24    2    1    2    0    0  0.35542322246E+03  0.33180594311E+03  0.59869831521E+03  0.77535392340E+03  0.79455540690E+02 0.  0.
        254    2    1    2    0    0 -0.35542322246E+03 -0.33180594311E+03  0.33608305230E+03  0.10853576503E+04  0.91029037129E+03 0.  0.
         23    2    4    4    0    0  0.78122791387E+00  0.27468473411E+03 -0.20261252297E+02  0.29146006763E+03  0.95321242185E+02 0.  0.
         23    2    4    4    0    0 -0.35620445037E+03 -0.60649067722E+03  0.35634430460E+03  0.79389758266E+03  0.92625894398E+02 0.  0.
          1    1    3    3  502    0  0.21905878278E+03  0.21566913321E+03  0.31734487372E+03  0.44182314812E+03  0.00000000000E+00 0. -1.
         -2    1    3    3    0  502  0.13636443967E+03  0.11613680990E+03  0.28135344149E+03  0.33353077528E+03  0.00000000000E+00 0.  1.
         11    1    5    5    0    0  0.13675111873E+02  0.45133350473E+01  0.12416394802E+02  0.19014356099E+02  0.00000000000E+00 0.  1.
        -11    1    5    5    0    0 -0.12893883959E+02  0.27017139906E+03 -0.32677647099E+02  0.27244571154E+03  0.00000000000E+00 0. -1.
          1    1    6    6  503    0 -0.32678826765E+03 -0.49741240994E+03  0.28142628926E+03  0.65833914795E+03  0.00000000000E+00 0. -1.
         -1    1    6    6    0  503 -0.29416182722E+02 -0.10907826728E+03  0.74918015339E+02  0.13555843471E+03  0.00000000000E+00 0.  1.
<mgrwt>
<rscale>  0 0.16088603E+04</rscale>
<asrwt>0</asrwt>
<pdfrwt beam="1">  1        1 0.21503792E+00 0.16088603E+04</pdfrwt>
<pdfrwt beam="2">  1       -2 0.71225401E-01 0.16088603E+04</pdfrwt>
<totfact> 0.11608456E+01</totfact>
</mgrwt>
</event>
<event>
12    4  0.4320235E-008  0.1545915E+04  0.7818608E-02  0.8854481E-01
         -2   -1    0    0    0  501 -0.00000000000E+00  0.00000000000E+00  0.46720977157E+03  0.46720977157E+03  0.00000000000E+00 0.  1.
          1   -1    0    0  501    0  0.00000000000E+00 -0.00000000000E+00 -0.12787901302E+04  0.12787901302E+04  0.00000000000E+00 0. -1.
        -24    2    1    2    0    0  0.14622236851E+03  0.23235834726E+03  0.21215409622E+03  0.35638613130E+03  0.81426847205E+02 0.  0.
        254    2    1    2    0    0 -0.14622236851E+03 -0.23235834726E+03 -0.10237344548E+04  0.13896137704E+04  0.89867837093E+03 0.  0.
         23    2    4    4    0    0  0.33751517308E+03 -0.46675837140E+02 -0.18222801905E+03  0.39709891928E+03  0.91571692844E+02 0.  0.
         23    2    4    4    0    0 -0.48373754159E+03 -0.18568251012E+03 -0.84150643576E+03  0.99251485115E+03  0.92046969524E+02 0.  0.
          1    1    3    3  502    0 -0.11255268018E+01  0.90789998441E+01  0.33433223315E+02  0.34662306183E+02  0.00000000000E+00 0. -1.
         -2    1    3    3    0  502  0.14734789531E+03  0.22327934742E+03  0.17872087290E+03  0.32172382512E+03  0.00000000000E+00 0.  1.
         11    1    5    5    0    0 -0.39104490468E+01 -0.71773098548E+01 -0.91784415066E+01  0.12290206548E+02  0.00000000000E+00 0. -1.
        -11    1    5    5    0    0  0.34142562213E+03 -0.39498527285E+02 -0.17304957754E+03  0.38480871273E+03  0.00000000000E+00 0.  1.
          3    1    6    6  503    0 -0.57109442549E+02 -0.25887640705E+02 -0.16872816785E+03  0.18000236942E+03  0.00000000000E+00 0. -1.
         -3    1    6    6    0  503 -0.42662809904E+03 -0.15979486942E+03 -0.67277826791E+03  0.81251248173E+03  0.00000000000E+00 0.  1.
<mgrwt>
<rscale>  0 0.15459149E+04</rscale>
<asrwt>0</asrwt>
<pdfrwt beam="1">  1        1 0.19673694E+00 0.15459149E+04</pdfrwt>
<pdfrwt beam="2">  1       -2 0.71878427E-01 0.15459149E+04</pdfrwt>
<totfact> 0.13891699E+01</totfact>
</mgrwt>
</event>
<event>
12    4  0.4320235E-008  0.3353594E+04  0.7818608E-02  0.8149391E-01
         -2   -1    0    0    0  501 -0.00000000000E+00  0.00000000000E+00  0.12989409722E+04  0.12989409722E+04  0.00000000000E+00 0.  1.
          1   -1    0    0  501    0  0.00000000000E+00 -0.00000000000E+00 -0.21645695382E+04  0.21645695382E+04  0.00000000000E+00 0. -1.
        -24    2    1    2    0    0  0.76078538679E+03 -0.10477128118E+04  0.46235116421E+03  0.13771930174E+04  0.79971665548E+02 0.  0.
        254    2    1    2    0    0 -0.76078538679E+03  0.10477128118E+04 -0.13279797302E+04  0.20863174930E+04  0.95535018567E+03 0.  0.
         23    2    4    4    0    0 -0.54714536222E+03  0.20921939576E+03 -0.13205193825E+03  0.60737167957E+03  0.91224118475E+02 0.  0.
         23    2    4    4    0    0 -0.21364002457E+03  0.83849341605E+03 -0.11959277919E+04  0.14789458135E+04  0.91236872223E+02 0.  0.
          3    1    3    3  502    0  0.56482342459E+03 -0.77844675212E+03  0.38013536854E+03  0.10341700756E+04  0.00000000000E+00 0. -1.
         -4    1    3    3    0  502  0.19596196220E+03 -0.26926605969E+03  0.82215795677E+02  0.34302294178E+03  0.00000000000E+00 0.  1.
         11    1    5    5    0    0 -0.40982875882E+03  0.14299252818E+03 -0.58100210937E+02  0.43792934268E+03  0.00000000000E+00 0.  1.
        -11    1    5    5    0    0 -0.13731660340E+03  0.66226867581E+02 -0.73951727309E+02  0.16944233689E+03  0.00000000000E+00 0. -1.
          2    1    6    6  503    0 -0.98215710782E+02  0.41884295439E+03 -0.51825990953E+03  0.67354961222E+03  0.00000000000E+00 0. -1.
         -2    1    6    6    0  503 -0.11542431379E+03  0.41965046166E+03 -0.67766788238E+03  0.80539620125E+03  0.00000000000E+00 0.  1.
<mgrwt>
<rscale>  0 0.33535939E+04</rscale>
<asrwt>0</asrwt>
<pdfrwt beam="1">  1        1 0.33301069E+00 0.33535939E+04</pdfrwt>
<pdfrwt beam="2">  1       -2 0.19983708E+00 0.33535939E+04</pdfrwt>
<totfact> 0.22304939E-01</totfact>
</mgrwt>
</event>
<event>
12    4  0.4320235E-008  0.1325298E+04  0.7818608E-02  0.9009741E-01
          1   -1    0    0  501    0  0.00000000000E+00  0.00000000000E+00  0.47640174558E+04  0.47640174558E+04  0.00000000000E+00 0. -1.
         -2   -1    0    0    0  501 -0.00000000000E+00 -0.00000000000E+00 -0.92170907380E+02  0.92170907380E+02  0.00000000000E+00 0.  1.
        -24    2    1    2    0    0  0.24685786109E+03  0.20240543251E+03  0.70315449392E+03  0.77631297631E+03  0.79553957677E+02 0.  0.
        254    2    1    2    0    0 -0.24685786109E+03 -0.20240543251E+03  0.39686920545E+04  0.40798753869E+04  0.89048289497E+03 0.  0.
         23    2    4    4    0    0 -0.41511025660E+03 -0.45723687969E+03  0.25023263166E+04  0.25790576250E+04  0.92299236644E+02 0.  0.
         23    2    4    4    0    0  0.16825239550E+03  0.25483144719E+03  0.14663657379E+04  0.15008177619E+04  0.94749891581E+02 0.  0.
          1    1    3    3  502    0  0.58621686005E+02  0.83273953215E+02  0.16531959642E+03  0.19416905602E+03  0.00000000000E+00 0. -1.
         -2    1    3    3    0  502  0.18823617509E+03  0.11913147929E+03  0.53783489749E+03  0.58214392029E+03  0.00000000000E+00 0.  1.
         11    1    5    5    0    0 -0.34353215604E+03 -0.40629741407E+03  0.22434623387E+04  0.23056919127E+04  0.00000000000E+00 0. -1.
        -11    1    5    5    0    0 -0.71578100552E+02 -0.50939465624E+02  0.25886397790E+03  0.27336571235E+03  0.00000000000E+00 0.  1.
          2    1    6    6  503    0  0.55873224913E+02  0.16244472779E+03  0.70040406934E+03  0.72116292694E+03  0.00000000000E+00 0. -1.
         -2    1    6    6    0  503  0.11237917059E+03  0.92386719398E+02  0.76596166859E+03  0.77965483495E+03  0.00000000000E+00 0.  1.
<mgrwt>
<rscale>  0 0.13252982E+04</rscale>
<asrwt>0</asrwt>
<pdfrwt beam="1">  1        1 0.73292557E+00 0.13252982E+04</pdfrwt>
<pdfrwt beam="2">  1       -2 0.14180143E-01 0.13252982E+04</pdfrwt>
<totfact> 0.58237544E-01</totfact>
</mgrwt>
</event>
<event>
12    4  0.4320235E-008  0.1649822E+04  0.7818608E-02  0.8790512E-01
          3   -1    0    0  501    0  0.00000000000E+00  0.00000000000E+00  0.27902021607E+03  0.27902021607E+03  0.00000000000E+00 0. -1.
         -4   -1    0    0    0  501 -0.00000000000E+00 -0.00000000000E+00 -0.24388138182E+04  0.24388138182E+04  0.00000000000E+00 0.  1.
        -24    2    1    2    0    0  0.88081738854E+02 -0.54365034845E+03 -0.57466358343E+03  0.79984242371E+03  0.78711972162E+02 0.  0.
        254    2    1    2    0    0 -0.88081738854E+02  0.54365034845E+03 -0.15851300187E+04  0.19179916106E+04  0.92883827869E+03 0.  0.
         23    2    4    4    0    0 -0.18181123764E+03  0.66755594880E+03 -0.15910092290E+04  0.17373647104E+04  0.91866747998E+02 0.  0.
         23    2    4    4    0    0  0.93729498787E+02 -0.12390560035E+03  0.58792102537E+01  0.18062690018E+03  0.91943978678E+02 0.  0.
          3    1    3    3  502    0  0.11879888057E+02 -0.12953285187E+03 -0.91996984345E+02  0.15932148814E+03  0.00000000000E+00 0. -1.
         -4    1    3    3    0  502  0.76201850798E+02 -0.41411749658E+03 -0.48266659908E+03  0.64052093557E+03  0.00000000000E+00 0.  1.
         11    1    5    5    0    0 -0.89116164988E+02  0.17806554906E+03 -0.42150941542E+03  0.46617509362E+03  0.00000000000E+00 0. -1.
        -11    1    5    5    0    0 -0.92695072653E+02  0.48949039973E+03 -0.11694998136E+04  0.12711896168E+04  0.00000000000E+00 0.  1.
          1    1    6    6  503    0  0.10417262687E+03 -0.71934620287E+02  0.12471484079E+02  0.12720874066E+03  0.00000000000E+00 0. -1.
         -1    1    6    6    0  503 -0.10443128081E+02 -0.51970980062E+02 -0.65922738251E+01  0.53418159524E+02  0.00000000000E+00 0.  1.
<mgrwt>
<rscale>  0 0.16498222E+04</rscale>
<asrwt>0</asrwt>
<pdfrwt beam="1">  1        3 0.42926187E-01 0.16498222E+04</pdfrwt>
<pdfrwt beam="2">  1       -4 0.37520213E+00 0.16498222E+04</pdfrwt>
<totfact> 0.12008094E-01</totfact>
</mgrwt>
</event>
<event>
12    4  0.4320235E-008  0.1291373E+04  0.7818608E-02  0.9036435E-01
          1   -1    0    0  501    0  0.00000000000E+00  0.00000000000E+00  0.86439953428E+03  0.86439953428E+03  0.00000000000E+00 0. -1.
         -2   -1    0    0    0  501 -0.00000000000E+00 -0.00000000000E+00 -0.48231288764E+03  0.48231288764E+03  0.00000000000E+00 0.  1.
        -24    2    1    2    0    0 -0.89482147136E+02  0.69829074920E+02 -0.22291917154E+03  0.26214453440E+03  0.78381410537E+02 0.  0.
        254    2    1    2    0    0  0.89482147136E+02 -0.69829074920E+02  0.60500581818E+03  0.10845678875E+04  0.89295705845E+03 0.  0.
         23    2    4    4    0    0 -0.24554408288E+03  0.55668198642E+02  0.65936408370E+03  0.71172765016E+03  0.91675559168E+02 0.  0.
         23    2    4    4    0    0  0.33502623002E+03 -0.12549727356E+03 -0.54358265520E+02  0.37284023736E+03  0.89793547040E+02 0.  0.
          1    1    3    3  502    0  0.14029710174E+02  0.66282302340E+01 -0.37499863357E+02  0.40583321148E+02  0.00000000000E+00 0. -1.
         -2    1    3    3    0  502 -0.10351185731E+03  0.63200844686E+02 -0.18541930818E+03  0.22156121326E+03  0.00000000000E+00 0.  1.
         11    1    5    5    0    0 -0.99372903526E+02 -0.56847585809E+01  0.16635625693E+03  0.19385998725E+03  0.00000000000E+00 0. -1.
        -11    1    5    5    0    0 -0.14617117936E+03  0.61352957223E+02  0.49300782677E+03  0.51786766291E+03  0.00000000000E+00 0.  1.
          1    1    6    6  503    0  0.26131720348E+03 -0.56341786763E+02 -0.47745217171E+02  0.27155235873E+03  0.00000000000E+00 0. -1.
         -1    1    6    6    0  503  0.73709026536E+02 -0.69155486800E+02 -0.66130483488E+01  0.10128787862E+03  0.00000000000E+00 0.  1.
<mgrwt>
<rscale>  0 0.12913730E+04</rscale>
<asrwt>0</asrwt>
<pdfrwt beam="1">  1        1 0.13298454E+00 0.12913730E+04</pdfrwt>
<pdfrwt beam="2">  1       -2 0.74201983E-01 0.12913730E+04</pdfrwt>
<totfact> 0.27442451E+01</totfact>
</mgrwt>
</event>
<event>
12    4  0.4320235E-008  0.1359724E+04  0.7818608E-02  0.8983500E-01
          1   -1    0    0  501    0  0.00000000000E+00  0.00000000000E+00  0.11537693088E+04  0.11537693088E+04  0.00000000000E+00 0. -1.
         -2   -1    0    0    0  501 -0.00000000000E+00 -0.00000000000E+00 -0.40061072490E+03  0.40061072490E+03  0.00000000000E+00 0.  1.
        -24    2    1    2    0    0  0.27576392237E+03  0.23991024067E+03  0.99104312454E+02  0.38681899594E+03  0.78769324088E+02 0.  0.
        254    2    1    2    0    0 -0.27576392237E+03 -0.23991024067E+03  0.65405427144E+03  0.11675610378E+04  0.89543795008E+03 0.  0.
         23    2    4    4    0    0  0.11045643523E+03 -0.43956121917E+03  0.12906874762E+03  0.47994857399E+03  0.90979132653E+02 0.  0.
         23    2    4    4    0    0 -0.38622035760E+03  0.19965097850E+03  0.52498552382E+03  0.68761246377E+03  0.90412511684E+02 0.  0.
          3    1    3    3  502    0  0.98132214314E+02  0.10112148276E+03  0.76312996284E+02  0.16024718145E+03  0.00000000000E+00 0. -1.
         -4    1    3    3    0  502  0.17763170806E+03  0.13878875791E+03  0.22791316170E+02  0.22657181449E+03  0.00000000000E+00 0.  1.
         11    1    5    5    0    0  0.78741598330E+02 -0.41151563175E+03  0.12592390729E+03  0.43749535416E+03  0.00000000000E+00 0. -1.
        -11    1    5    5    0    0  0.31714836897E+02 -0.28045587417E+02  0.31448403314E+01  0.42453219827E+02  0.00000000000E+00 0.  1.
          3    1    6    6  503    0 -0.31878266633E+03  0.20056463317E+03  0.44460069842E+03  0.58268202432E+03  0.00000000000E+00 0. -1.
         -3    1    6    6    0  503 -0.67437691273E+02 -0.91365466120E+00  0.80384825405E+02  0.10493043946E+03  0.00000000000E+00 0.  1.
<mgrwt>
<rscale>  0 0.13597240E+04</rscale>
<asrwt>0</asrwt>
<pdfrwt beam="1">  1        1 0.17750297E+00 0.13597240E+04</pdfrwt>
<pdfrwt beam="2">  1       -2 0.61632420E-01 0.13597240E+04</pdfrwt>
<totfact> 0.24253621E+01</totfact>
</mgrwt>
</event>
<event>
12    4  0.4320235E-008  0.1271605E+04  0.7818608E-02  0.9052391E-01
          1   -1    0    0  501    0  0.00000000000E+00  0.00000000000E+00  0.92352208454E+03  0.92352208454E+03  0.00000000000E+00 0. -1.
         -2   -1    0    0    0  501 -0.00000000000E+00 -0.00000000000E+00 -0.43772051067E+03  0.43772051067E+03  0.00000000000E+00 0.  1.
        -24    2    1    2    0    0  0.22983336064E+03  0.14240092111E+03 -0.28149472679E+02  0.28441738983E+03  0.83662792414E+02 0.  0.
        254    2    1    2    0    0 -0.22983336064E+03 -0.14240092111E+03  0.51395104654E+03  0.10768252054E+04  0.90681059141E+03 0.  0.
         23    2    4    4    0    0  0.13409694656E+03 -0.99937449161E+02 -0.19574276483E+03  0.27293083795E+03  0.90589886301E+02 0.  0.
         23    2    4    4    0    0 -0.36393030720E+03 -0.42463471947E+02  0.70969381138E+03  0.80389436742E+03  0.91282162069E+02 0.  0.
          3    1    3    3  502    0  0.11811138204E+03  0.42080118833E+02 -0.45237609216E+02  0.13329469703E+03  0.00000000000E+00 0. -1.
         -4    1    3    3    0  502  0.11172197860E+03  0.10032080227E+03  0.17088136537E+02  0.15112269281E+03  0.00000000000E+00 0.  1.
         11    1    5    5    0    0  0.27896075652E+02 -0.71474103570E+02 -0.55340180878E+02  0.94600603262E+02  0.00000000000E+00 0. -1.
        -11    1    5    5    0    0  0.10620087091E+03 -0.28463345591E+02 -0.14040258395E+03  0.17833023469E+03  0.00000000000E+00 0.  1.
          1    1    6    6  503    0 -0.19283430987E+03  0.23076685769E+02  0.37719634028E+03  0.42425780324E+03  0.00000000000E+00 0. -1.
         -1    1    6    6    0  503 -0.17109599733E+03 -0.65540157715E+02  0.33249747110E+03  0.37963656418E+03  0.00000000000E+00 0.  1.
<mgrwt>
<rscale>  0 0.12716046E+04</rscale>
<asrwt>0</asrwt>
<pdfrwt beam="1">  1        1 0.14208032E+00 0.12716046E+04</pdfrwt>
<pdfrwt beam="2">  1       -2 0.67341617E-01 0.12716046E+04</pdfrwt>
<totfact> 0.30389350E+01</totfact>
</mgrwt>
</event>
<event>
12    4  0.4320235E-008  0.1710567E+04  0.7818608E-02  0.8755360E-01
          3   -1    0    0  501    0  0.00000000000E+00  0.00000000000E+00  0.63188736075E+03  0.63188736075E+03  0.00000000000E+00 0. -1.
         -4   -1    0    0    0  501 -0.00000000000E+00 -0.00000000000E+00 -0.11576589426E+04  0.11576589426E+04  0.00000000000E+00 0.  1.
        -24    2    1    2    0    0  0.50115224872E+03  0.20618424302E+03 -0.49776467477E+03  0.74031391523E+03  0.81421761080E+02 0.  0.
        254    2    1    2    0    0 -0.50115224872E+03 -0.20618424302E+03 -0.28006907040E+02  0.10492323881E+04  0.89801931989E+03 0.  0.
         23    2    4    4    0    0 -0.12249857078E+03 -0.13803941590E+03  0.41006624023E+03  0.45892354861E+03  0.91628171985E+02 0.  0.
         23    2    4    4    0    0 -0.37865367793E+03 -0.68144827114E+02 -0.43807314727E+03  0.59030883948E+03  0.92380291906E+02 0.  0.
          1    1    3    3  502    0  0.28656457825E+03  0.14190818039E+03 -0.33712223305E+03  0.46465964876E+03  0.00000000000E+00 0. -1.
         -2    1    3    3    0  502  0.21458767047E+03  0.64276062624E+02 -0.16064244172E+03  0.27565426648E+03  0.00000000000E+00 0.  1.
         11    1    5    5    0    0 -0.92767992372E+02 -0.36474627168E+02  0.21555804745E+03  0.23749014855E+03  0.00000000000E+00 0. -1.
        -11    1    5    5    0    0 -0.29730578411E+02 -0.10156478873E+03  0.19450819278E+03  0.22143340006E+03  0.00000000000E+00 0.  1.
          1    1    6    6  503    0 -0.17492298811E+03 -0.47808991865E+02 -0.27087113212E+03  0.32596766970E+03  0.00000000000E+00 0. -1.
         -1    1    6    6    0  503 -0.20373068982E+03 -0.20335835248E+02 -0.16720201515E+03  0.26434116978E+03  0.00000000000E+00 0.  1.
<mgrwt>
<rscale>  0 0.17105672E+04</rscale>
<asrwt>0</asrwt>
<pdfrwt beam="1">  1        3 0.97213440E-01 0.17105672E+04</pdfrwt>
<pdfrwt beam="2">  1       -4 0.17810138E+00 0.17105672E+04</pdfrwt>
<totfact> 0.37656386E-01</totfact>
</mgrwt>
</event>
<event>
12    4  0.4320235E-008  0.1374414E+04  0.7818608E-02  0.8972550E-01
          3   -1    0    0  501    0  0.00000000000E+00  0.00000000000E+00  0.29196466683E+03  0.29196466683E+03  0.00000000000E+00 0. -1.
         -4   -1    0    0    0  501 -0.00000000000E+00 -0.00000000000E+00 -0.16175024433E+04  0.16175024433E+04  0.00000000000E+00 0.  1.
        -24    2    1    2    0    0 -0.88019939094E+02 -0.36108821833E+03 -0.23856301028E+03  0.44882248112E+03  0.79981864165E+02 0.  0.
        254    2    1    2    0    0  0.88019939094E+02  0.36108821833E+03 -0.10869747662E+04  0.14606446290E+04  0.90212880392E+03 0.  0.
         23    2    4    4    0    0  0.18682265491E+03  0.63556899483E+03 -0.76517751103E+03  0.10163807170E+04  0.93179863376E+02 0.  0.
         23    2    4    4    0    0 -0.98802715818E+02 -0.27448077650E+03 -0.32179725519E+03  0.44426391204E+03  0.93355646676E+02 0.  0.
          3    1    3    3  502    0 -0.51060162722E+02 -0.11269540265E+03 -0.11511307765E+03  0.16899235084E+03  0.00000000000E+00 0. -1.
         -4    1    3    3    0  502 -0.36959776372E+02 -0.24839281568E+03 -0.12344993263E+03  0.27983013029E+03  0.00000000000E+00 0.  1.
         11    1    5    5    0    0  0.56346939594E+02  0.35607363921E+03 -0.41669545578E+03  0.55099774683E+03  0.00000000000E+00 0.  1.
        -11    1    5    5    0    0  0.13047571532E+03  0.27949535562E+03 -0.34848205525E+03  0.46538297018E+03  0.00000000000E+00 0. -1.
          3    1    6    6  503    0 -0.82338129759E+02 -0.98796620814E+02 -0.11620534636E+03  0.17333211595E+03  0.00000000000E+00 0. -1.
         -3    1    6    6    0  503 -0.16464586058E+02 -0.17568415569E+03 -0.20559190884E+03  0.27093179609E+03  0.00000000000E+00 0.  1.
<mgrwt>
<rscale>  0 0.13744141E+04</rscale>
<asrwt>0</asrwt>
<pdfrwt beam="1">  1        3 0.44917640E-01 0.13744141E+04</pdfrwt>
<pdfrwt beam="2">  1       -4 0.24884653E+00 0.13744141E+04</pdfrwt>
<totfact> 0.70829496E-01</totfact>
</mgrwt>
</event>
<event>
12    4  0.4320235E-008  0.1999163E+04  0.7818608E-02  0.8607012E-01
         -2   -1    0    0    0  501 -0.00000000000E+00  0.00000000000E+00  0.61411285665E+03  0.61411285665E+03  0.00000000000E+00 0.  1.
          1   -1    0    0  501    0  0.00000000000E+00 -0.00000000000E+00 -0.16270027034E+04  0.16270027034E+04  0.00000000000E+00 0. -1.
        -24    2    1    2    0    0 -0.40033283799E+03 -0.66102598405E+03 -0.20629631551E+03  0.80565635613E+03  0.96448232867E+02 0.  0.
        254    2    1    2    0    0  0.40033283799E+03  0.66102598405E+03 -0.80659353126E+03  0.14354592039E+04  0.90151443069E+03 0.  0.
         23    2    4    4    0    0  0.67315937171E+03  0.56079217952E+03 -0.61761076415E+03  0.10758427435E+04  0.91450229184E+02 0.  0.
         23    2    4    4    0    0 -0.27282653372E+03  0.10023380453E+03 -0.18898276711E+03  0.35961646044E+03  0.95542552220E+02 0.  0.
          3    1    3    3  502    0 -0.39607961102E+03 -0.62648720723E+03 -0.18198668376E+03  0.76320667722E+03  0.00000000000E+00 0. -1.
         -2    1    3    3    0  502 -0.42532269744E+01 -0.34538776818E+02 -0.24309631759E+02  0.42449678915E+02  0.00000000000E+00 0.  1.
         11    1    5    5    0    0  0.58196420079E+03  0.48669222909E+03 -0.57060495124E+03  0.94928481881E+03  0.00000000000E+00 0. -1.
        -11    1    5    5    0    0  0.91195170920E+02  0.74099950429E+02 -0.47005812910E+02  0.12655792468E+03  0.00000000000E+00 0.  1.
          2    1    6    6  503    0 -0.14921533771E+03  0.12284298167E+02 -0.63060290699E+02  0.16245836775E+03  0.00000000000E+00 0. -1.
         -2    1    6    6    0  503 -0.12361119601E+03  0.87949506362E+02 -0.12592247641E+03  0.19715809269E+03  0.00000000000E+00 0.  1.
<mgrwt>
<rscale>  0 0.19991631E+04</rscale>
<asrwt>0</asrwt>
<pdfrwt beam="1">  1        1 0.25030810E+00 0.19991631E+04</pdfrwt>
<pdfrwt beam="2">  1       -2 0.94478903E-01 0.19991631E+04</pdfrwt>
<totfact> 0.41110443E+00</totfact>
</mgrwt>
</event>
<event>
12    4  0.4320235E-008  0.2930673E+04  0.7818608E-02  0.8263810E-01
          1   -1    0    0  501    0  0.00000000000E+00  0.00000000000E+00  0.20124931670E+04  0.20124931670E+04  0.00000000000E+00 0. -1.
         -2   -1    0    0    0  501 -0.00000000000E+00 -0.00000000000E+00 -0.10669404485E+04  0.10669404485E+04  0.00000000000E+00 0.  1.
        -24    2    1    2    0    0 -0.37636508266E+03 -0.12164319667E+03  0.17572640843E+04  0.18026584532E+04  0.71782269726E+02 0.  0.
        254    2    1    2    0    0  0.37636508266E+03  0.12164319667E+03 -0.81171136574E+03  0.12767751624E+04  0.90268030406E+03 0.  0.
         23    2    4    4    0    0  0.51749431260E+03  0.39965828433E+03 -0.55214508481E+03  0.86102688725E+03  0.94741744085E+02 0.  0.
         23    2    4    4    0    0 -0.14112922994E+03 -0.27801508766E+03 -0.25956628093E+03  0.41574827516E+03  0.90896235322E+02 0.  0.
          3    1    3    3  502    0 -0.30520358598E+03 -0.79655329068E+02  0.14851382441E+04  0.15182653933E+04  0.00000000000E+00 0. -1.
         -4    1    3    3    0  502 -0.71161496681E+02 -0.41987867601E+02  0.27212584012E+03  0.28439305986E+03  0.00000000000E+00 0.  1.
         11    1    5    5    0    0  0.42407291335E+03  0.34791849275E+03 -0.41845598821E+03  0.68992066754E+03  0.00000000000E+00 0. -1.
        -11    1    5    5    0    0  0.93421399252E+02  0.51739791576E+02 -0.13368909660E+03  0.17110621970E+03  0.00000000000E+00 0.  1.
          1    1    6    6  503    0 -0.13082656660E+03 -0.16174670947E+03 -0.16488181763E+03  0.26544981134E+03  0.00000000000E+00 0. -1.
         -1    1    6    6    0  503 -0.10302663340E+02 -0.11626837819E+03 -0.94684463297E+02  0.15029846382E+03  0.00000000000E+00 0.  1.
<mgrwt>
<rscale>  0 0.29306725E+04</rscale>
<asrwt>0</asrwt>
<pdfrwt beam="1">  1        1 0.30961433E+00 0.29306725E+04</pdfrwt>
<pdfrwt beam="2">  1       -2 0.16414469E+00 0.29306725E+04</pdfrwt>
<totfact> 0.51655055E-01</totfact>
</mgrwt>
</event>
<event>
12    4  0.4320235E-008  0.2088864E+04  0.7818608E-02  0.8566165E-01
         -2   -1    0    0    0  501 -0.00000000000E+00  0.00000000000E+00  0.65524393362E+03  0.65524393362E+03  0.00000000000E+00 0.  1.
          1   -1    0    0  501    0  0.00000000000E+00 -0.00000000000E+00 -0.16647818368E+04  0.16647818368E+04  0.00000000000E+00 0. -1.
        -24    2    1    2    0    0  0.47526905339E+03 -0.46396786720E+03 -0.99589062884E+03  0.11997241814E+04  0.79956937354E+02 0.  0.
        254    2    1    2    0    0 -0.47526905339E+03  0.46396786720E+03 -0.13647274302E+02  0.11203015890E+04  0.90207679681E+03 0.  0.
         23    2    4    4    0    0 -0.18380665373E+03  0.51242827723E+03  0.34026770607E+03  0.64805113324E+03  0.88433784495E+02 0.  0.
         23    2    4    4    0    0 -0.29146239966E+03 -0.48460410024E+02 -0.35391498037E+03  0.47225045578E+03  0.10230316660E+03 0.  0.
          1    1    3    3  502    0  0.41212257121E+03 -0.43487808340E+03 -0.90335637974E+03  0.10839818771E+04  0.00000000000E+00 0. -1.
         -2    1    3    3    0  502  0.63146482187E+02 -0.29089783803E+02 -0.92534249104E+02  0.11574230424E+03  0.00000000000E+00 0.  1.
         11    1    5    5    0    0 -0.13777868968E+03  0.41348726255E+03  0.22953803809E+03  0.49258744864E+03  0.00000000000E+00 0. -1.
        -11    1    5    5    0    0 -0.46027964053E+02  0.98941014674E+02  0.11072966798E+03  0.15546368460E+03  0.00000000000E+00 0.  1.
          3    1    6    6  503    0 -0.21766325166E+03 -0.72301019007E+02 -0.22184041769E+03  0.31908917153E+03  0.00000000000E+00 0. -1.
         -3    1    6    6    0  503 -0.73799148005E+02  0.23840608983E+02 -0.13207456268E+03  0.15316128424E+03  0.00000000000E+00 0.  1.
<mgrwt>
<rscale>  0 0.20888640E+04</rscale>
<asrwt>0</asrwt>
<pdfrwt beam="1">  1        1 0.25612028E+00 0.20888640E+04</pdfrwt>
<pdfrwt beam="2">  1       -2 0.10080676E+00 0.20888640E+04</pdfrwt>
<totfact> 0.32995692E+00</totfact>
</mgrwt>
</event>
<event>
12    4  0.4320235E-008  0.1674602E+04  0.7818608E-02  0.8775984E-01
         -2   -1    0    0    0  501 -0.00000000000E+00  0.00000000000E+00  0.96483972519E+03  0.96483972519E+03  0.00000000000E+00 0.  1.
          1   -1    0    0  501    0  0.00000000000E+00 -0.00000000000E+00 -0.72662129912E+03  0.72662129912E+03  0.00000000000E+00 0. -1.
        -24    2    1    2    0    0 -0.29956402218E+03 -0.20790236494E+03 -0.38678832301E+03  0.53778164870E+03  0.81497841240E+02 0.  0.
        254    2    1    2    0    0  0.29956402218E+03  0.20790236494E+03  0.62500674908E+03  0.11536793756E+04  0.89854363754E+03 0.  0.
         23    2    4    4    0    0  0.20504714406E+03  0.53200183347E+03  0.54714896446E+03  0.79554718892E+03  0.91940515408E+02 0.  0.
         23    2    4    4    0    0  0.94516878123E+02 -0.32409946853E+03  0.77857784616E+02  0.35813218669E+03  0.90680332841E+02 0.  0.
          3    1    3    3  502    0 -0.24947541739E+03 -0.18511672223E+03 -0.28264083789E+03  0.41999050939E+03  0.00000000000E+00 0. -1.
         -4    1    3    3    0  502 -0.50088604789E+02 -0.22785642711E+02 -0.10414748512E+03  0.11779113931E+03  0.00000000000E+00 0.  1.
         11    1    5    5    0    0  0.75007793352E+02  0.29831250635E+03  0.25576323278E+03  0.40003918776E+03  0.00000000000E+00 0. -1.
        -11    1    5    5    0    0  0.13003935070E+03  0.23368932713E+03  0.29138573169E+03  0.39550800115E+03  0.00000000000E+00 0.  1.
          4    1    6    6  503    0  0.31966428866E+01  0.36800018186E+01  0.10062819418E+02  0.11181291239E+02  0.00000000000E+00 0. -1.
         -4    1    6    6    0  503  0.91320235236E+02 -0.32777947035E+03  0.67794965198E+02  0.34695089545E+03  0.00000000000E+00 0.  1.
<mgrwt>
<rscale>  0 0.16746022E+04</rscale>
<asrwt>0</asrwt>
<pdfrwt beam="1">  1        1 0.11178789E+00 0.16746022E+04</pdfrwt>
<pdfrwt beam="2">  1       -2 0.14843688E+00 0.16746022E+04</pdfrwt>
<totfact> 0.66156455E+00</totfact>
</mgrwt>
</event>
<event>
12    4  0.4320235E-008  0.1229408E+04  0.7818608E-02  0.9087498E-01
          1   -1    0    0  501    0  0.00000000000E+00  0.00000000000E+00  0.58556843043E+03  0.58556843043E+03  0.00000000000E+00 0. -1.
         -2   -1    0    0    0  501 -0.00000000000E+00 -0.00000000000E+00 -0.64528910413E+03  0.64528910413E+03  0.00000000000E+00 0.  1.
        -24    2    1    2    0    0 -0.22843023357E+03 -0.10358912728E+03  0.10379878041E+03  0.28152109973E+03  0.74624820821E+02 0.  0.
        254    2    1    2    0    0  0.22843023357E+03  0.10358912728E+03 -0.16351945411E+03  0.94933643482E+03  0.90088288679E+03 0.  0.
         23    2    4    4    0    0 -0.67598827342E+02  0.35928426331E+03 -0.34163878367E+03  0.50876903573E+03  0.92054820024E+02 0.  0.
         23    2    4    4    0    0  0.29602906091E+03 -0.25569513603E+03  0.17811932956E+03  0.44056739909E+03  0.96746731673E+02 0.  0.
          3    1    3    3  502    0 -0.17043165856E+03 -0.88112840648E+02  0.44106817175E+02  0.19686603121E+03  0.00000000000E+00 0. -1.
         -4    1    3    3    0  502 -0.57998575013E+02 -0.15476286635E+02  0.59691963233E+02  0.84655068520E+02  0.00000000000E+00 0.  1.
         11    1    5    5    0    0 -0.14458697557E+02  0.77660565063E+02 -0.27754534130E+02  0.83728916544E+02  0.00000000000E+00 0. -1.
        -11    1    5    5    0    0 -0.53140129785E+02  0.28162369825E+03 -0.31388424954E+03  0.42504011918E+03  0.00000000000E+00 0.  1.
          3    1    6    6  503    0  0.39235604062E+02 -0.30559557342E+02  0.62812310558E+02  0.80116824255E+02  0.00000000000E+00 0. -1.
         -3    1    6    6    0  503  0.25679345685E+03 -0.22513557869E+03  0.11530701900E+03  0.36045057484E+03  0.00000000000E+00 0.  1.
<mgrwt>
<rscale>  0 0.12294079E+04</rscale>
<asrwt>0</asrwt>
<pdfrwt beam="1">  1        1 0.90087451E-01 0.12294079E+04</pdfrwt>
<pdfrwt beam="2">  1       -2 0.99275247E-01 0.12294079E+04</pdfrwt>
<totfact> 0.25766471E+01</totfact>
</mgrwt>
</event>
<event>
12    4  0.4320235E-008  0.2705249E+04  0.7818608E-02  0.8333304E-01
          1   -1    0    0  501    0  0.00000000000E+00  0.00000000000E+00  0.16502742153E+04  0.16502742153E+04  0.00000000000E+00 0. -1.
         -2   -1    0    0    0  501 -0.00000000000E+00 -0.00000000000E+00 -0.11086597391E+04  0.11086597391E+04  0.00000000000E+00 0.  1.
        -24    2    1    2    0    0 -0.49392347052E+03  0.98272993808E+03  0.73983286058E+03  0.13279995050E+04  0.80693852332E+02 0.  0.
        254    2    1    2    0    0  0.49392347052E+03 -0.98272993808E+03 -0.19821838441E+03  0.14309344494E+04  0.89362427493E+03 0.  0.
         23    2    4    4    0    0  0.35111249459E+03 -0.10532750705E+04 -0.37632939896E+03  0.11759112524E+04  0.92060301239E+02 0.  0.
         23    2    4    4    0    0  0.14281097593E+03  0.70545132445E+02  0.17811101454E+03  0.25502319700E+03  0.89116255232E+02 0.  0.
          3    1    3    3  502    0 -0.44165025352E+03  0.83387145411E+03  0.60927795821E+03  0.11232168886E+04  0.00000000000E+00 0. -1.
         -4    1    3    3    0  502 -0.52273217003E+02  0.14885848397E+03  0.13055490237E+03  0.20478261645E+03  0.00000000000E+00 0.  1.
         11    1    5    5    0    0  0.26486970406E+03 -0.66213931277E+03 -0.25576783241E+03  0.75762894199E+03  0.00000000000E+00 0.  1.
        -11    1    5    5    0    0  0.86242790528E+02 -0.39113575776E+03 -0.12056156655E+03  0.41828231046E+03  0.00000000000E+00 0. -1.
          1    1    6    6  503    0  0.15373800061E+03  0.74385005998E+02  0.16415021590E+03  0.23688350582E+03  0.00000000000E+00 0. -1.
         -1    1    6    6    0  503 -0.10927024680E+02 -0.38398735531E+01  0.13960798645E+02  0.18139691179E+02  0.00000000000E+00 0.  1.
<mgrwt>
<rscale>  0 0.27052487E+04</rscale>
<asrwt>0</asrwt>
<pdfrwt beam="1">  1        1 0.25388834E+00 0.27052487E+04</pdfrwt>
<pdfrwt beam="2">  1       -2 0.17056304E+00 0.27052487E+04</pdfrwt>
<totfact> 0.83452322E-01</totfact>
</mgrwt>
</event>
<event>
12    4  0.4320235E-008  0.2530663E+04  0.7818608E-02  0.8392143E-01
         -2   -1    0    0    0  501 -0.00000000000E+00  0.00000000000E+00  0.19547595093E+04  0.19547595093E+04  0.00000000000E+00 0.  1.
          1   -1    0    0  501    0  0.00000000000E+00 -0.00000000000E+00 -0.81905901430E+03  0.81905901430E+03  0.00000000000E+00 0. -1.
        -24    2    1    2    0    0  0.35122591379E+03 -0.47245844359E+03  0.15229964055E+04  0.16348781719E+04  0.82048536176E+02 0.  0.
        254    2    1    2    0    0 -0.35122591379E+03  0.47245844359E+03 -0.38729591052E+03  0.11389403517E+04  0.89476833817E+03 0.  0.
         23    2    4    4    0    0  0.10534705313E+03 -0.14972267908E+03 -0.29318117038E+03  0.35616802444E+03  0.85939401524E+02 0.  0.
         23    2    4    4    0    0 -0.45657296692E+03  0.62218112267E+03 -0.94114740131E+02  0.78277232725E+03  0.91141145924E+02 0.  0.
          1    1    3    3  502    0  0.10046150538E+03 -0.79078439853E+02  0.33521444770E+03  0.35876822554E+03  0.00000000000E+00 0. -1.
         -2    1    3    3    0  502  0.25076440841E+03 -0.39338000374E+03  0.11877819578E+04  0.12761099463E+04  0.00000000000E+00 0.  1.
         11    1    5    5    0    0  0.86404101726E+02 -0.13321129175E+03 -0.17908471248E+03  0.23933710805E+03  0.00000000000E+00 0. -1.
        -11    1    5    5    0    0  0.18942951402E+02 -0.16511387327E+02 -0.11409645790E+03  0.11683091639E+03  0.00000000000E+00 0.  1.
          4    1    6    6  503    0 -0.33952041739E+03  0.43654804098E+03 -0.10555305146E+03  0.56301843005E+03  0.00000000000E+00 0. -1.
         -4    1    6    6    0  503 -0.11705254952E+03  0.18563308169E+03  0.11438311332E+02  0.21975389720E+03  0.00000000000E+00 0.  1.
<mgrwt>
<rscale>  0 0.25306627E+04</rscale>
<asrwt>0</asrwt>
<pdfrwt beam="1">  1        1 0.12600908E+00 0.25306627E+04</pdfrwt>
<pdfrwt beam="2">  1       -2 0.30073223E+00 0.25306627E+04</pdfrwt>
<totfact> 0.52023641E-01</totfact>
</mgrwt>
</event>
<event>
12    4  0.4320235E-008  0.1814298E+04  0.7818608E-02  0.8698733E-01
          1   -1    0    0  501    0  0.00000000000E+00  0.00000000000E+00  0.34008600610E+04  0.34008600610E+04  0.00000000000E+00 0. -1.
         -2   -1    0    0    0  501 -0.00000000000E+00 -0.00000000000E+00 -0.24197381655E+03  0.24197381655E+03  0.00000000000E+00 0.  1.
        -24    2    1    2    0    0  0.15551663125E+03  0.62205188351E+03  0.74921237567E+03  0.98929727658E+03  0.79094558678E+02 0.  0.
        254    2    1    2    0    0 -0.15551663125E+03 -0.62205188351E+03  0.24096738688E+04  0.26535366010E+04  0.90752100278E+03 0.  0.
         23    2    4    4    0    0 -0.29672341059E+03 -0.70577903640E+03  0.11791088812E+04  0.14086805756E+04  0.88962799061E+02 0.  0.
         23    2    4    4    0    0  0.14120677934E+03  0.83727152889E+02  0.12305649876E+04  0.12448560254E+04  0.91797302321E+02 0.  0.
          3    1    3    3  502    0  0.59475532669E+02  0.32605300972E+03  0.43718999414E+03  0.54861917130E+03  0.00000000000E+00 0. -1.
         -4    1    3    3    0  502  0.96041098586E+02  0.29599887379E+03  0.31202238153E+03  0.44067810529E+03  0.00000000000E+00 0.  1.
         11    1    5    5    0    0 -0.27564201839E+03 -0.67691370212E+03  0.10869095779E+04  0.13097950652E+04  0.00000000000E+00 0. -1.
        -11    1    5    5    0    0 -0.21081392197E+02 -0.28865334282E+02  0.92199303302E+02  0.98885510311E+02  0.00000000000E+00 0.  1.
          4    1    6    6  503    0  0.12339115591E+03  0.85398640610E+02  0.12006989826E+04  0.12100398142E+04  0.00000000000E+00 0. -1.
         -4    1    6    6    0  503  0.17815623424E+02 -0.16714877217E+01  0.29866004975E+02  0.34816211201E+02  0.00000000000E+00 0.  1.
<mgrwt>
<rscale>  0 0.18142978E+04</rscale>
<asrwt>0</asrwt>
<pdfrwt beam="1">  1        1 0.52320920E+00 0.18142978E+04</pdfrwt>
<pdfrwt beam="2">  1       -2 0.37226744E-01 0.18142978E+04</pdfrwt>
<totfact> 0.16918761E+00</totfact>
</mgrwt>
</event>
<event>
12    4  0.4320235E-008  0.2416897E+04  0.7818608E-02  0.8433205E-01
          1   -1    0    0  501    0  0.00000000000E+00  0.00000000000E+00  0.31061614621E+04  0.31061614621E+04  0.00000000000E+00 0. -1.
         -2   -1    0    0    0  501 -0.00000000000E+00 -0.00000000000E+00 -0.47014545352E+03  0.47014545352E+03  0.00000000000E+00 0.  1.
        -24    2    1    2    0    0  0.39071017962E+03  0.47678355608E+03  0.24061457875E+04  0.24851436009E+04  0.80150872843E+02 0.  0.
        254    2    1    2    0    0 -0.39071017962E+03 -0.47678355608E+03  0.22987022109E+03  0.10911633148E+04  0.87052860787E+03 0.  0.
         23    2    4    4    0    0  0.23494933371E+02  0.21095443120E+03  0.15854985370E+03  0.28025635844E+03  0.91388108643E+02 0.  0.
         23    2    4    4    0    0 -0.41420511299E+03 -0.68773798728E+03  0.71320367397E+02  0.81090695632E+03  0.89073465349E+02 0.  0.
          1    1    3    3  502    0  0.38262873283E+03  0.43694052465E+03  0.22622852471E+04  0.23356490122E+04  0.00000000000E+00 0. -1.
         -2    1    3    3    0  502  0.80814467902E+01  0.39843031431E+02  0.14386054045E+03  0.14949458865E+03  0.00000000000E+00 0.  1.
         11    1    5    5    0    0  0.34006588568E+00  0.20757977320E+03  0.14511578204E+03  0.25327468899E+03  0.00000000000E+00 0. -1.
        -11    1    5    5    0    0  0.23154867485E+02  0.33746579980E+01  0.13434071662E+02  0.26981669449E+02  0.00000000000E+00 0.  1.
          4    1    6    6  503    0 -0.16881798045E+03 -0.29259948658E+03 -0.13616363691E+02  0.33808190639E+03  0.00000000000E+00 0.  1.
         -4    1    6    6    0  503 -0.24538713255E+03 -0.39513850070E+03  0.84936731088E+02  0.47282504993E+03  0.00000000000E+00 0. -1.
<mgrwt>
<rscale>  0 0.24168969E+04</rscale>
<asrwt>0</asrwt>
<pdfrwt beam="1">  1        1 0.47787098E+00 0.24168969E+04</pdfrwt>
<pdfrwt beam="2">  1       -2 0.72330072E-01 0.24168969E+04</pdfrwt>
<totfact> 0.67994485E-01</totfact>
</mgrwt>
</event>
<event>
12    4  0.4320235E-008  0.2063481E+04  0.7818608E-02  0.8577503E-01
         -2   -1    0    0    0  501 -0.00000000000E+00  0.00000000000E+00  0.10029437690E+04  0.10029437690E+04  0.00000000000E+00 0.  1.
          1   -1    0    0  501    0  0.00000000000E+00 -0.00000000000E+00 -0.10613638344E+04  0.10613638344E+04  0.00000000000E+00 0. -1.
        -24    2    1    2    0    0  0.73517012222E+03  0.37355389576E+03  0.98830760537E+02  0.83440884584E+03  0.80330449671E+02 0.  0.
        254    2    1    2    0    0 -0.73517012222E+03 -0.37355389576E+03 -0.15725082588E+03  0.12298987576E+04  0.89883564127E+03 0.  0.
         23    2    4    4    0    0  0.17426726286E+03 -0.11559521419E+03  0.96820213280E+02  0.24650497925E+03  0.87516962041E+02 0.  0.
         23    2    4    4    0    0 -0.90943738508E+03 -0.25795868157E+03 -0.25407103916E+03  0.98339377834E+03  0.94298417504E+02 0.  0.
          3    1    3    3  502    0  0.53465307990E+03  0.25574371415E+03  0.10430747432E+03  0.60177970419E+03  0.00000000000E+00 0. -1.
         -4    1    3    3    0  502  0.20051704233E+03  0.11781018161E+03 -0.54767137828E+01  0.23262914166E+03  0.00000000000E+00 0.  1.
         11    1    5    5    0    0  0.77691278299E+02 -0.67961568713E+01  0.14417629174E+02  0.79309460362E+02  0.00000000000E+00 0.  1.
        -11    1    5    5    0    0  0.96575984560E+02 -0.10879905732E+03  0.82402584106E+02  0.16719551888E+03  0.00000000000E+00 0. -1.
          1    1    6    6  503    0 -0.82472770084E+03 -0.26113479920E+03 -0.23642096374E+03  0.89680657668E+03  0.00000000000E+00 0. -1.
         -1    1    6    6    0  503 -0.84709684246E+02  0.31761176255E+01 -0.17650075417E+02  0.86587201655E+02  0.00000000000E+00 0.  1.
<mgrwt>
<rscale>  0 0.20634808E+04</rscale>
<asrwt>0</asrwt>
<pdfrwt beam="1">  1        1 0.16328674E+00 0.20634808E+04</pdfrwt>
<pdfrwt beam="2">  1       -2 0.15429904E+00 0.20634808E+04</pdfrwt>
<totfact> 0.30490912E+00</totfact>
</mgrwt>
</event>
<event>
12    4  0.4320235E-008  0.1115288E+04  0.7818608E-02  0.9190418E-01
          1   -1    0    0  501    0  0.00000000000E+00  0.00000000000E+00  0.30675522532E+03  0.30675522532E+03  0.00000000000E+00 0. -1.
         -2   -1    0    0    0  501 -0.00000000000E+00 -0.00000000000E+00 -0.10137301083E+04  0.10137301083E+04  0.00000000000E+00 0.  1.
        -24    2    1    2    0    0  0.84250399911E+02 -0.85752661484E+02 -0.25234182665E+03  0.28995359088E+03  0.77104076099E+02 0.  0.
        254    2    1    2    0    0 -0.84250399911E+02  0.85752661484E+02 -0.45463305638E+03  0.10305317428E+04  0.91698026592E+03 0.  0.
         23    2    4    4    0    0 -0.48560333776E+03  0.13188021703E+03 -0.22799795741E+03  0.55918955179E+03  0.86642327738E+02 0.  0.
         23    2    4    4    0    0  0.40135293785E+03 -0.46127555549E+02 -0.22663509897E+03  0.47134219099E+03  0.87109476056E+02 0.  0.
          1    1    3    3  502    0  0.71563907113E+02 -0.29125850958E+02 -0.96259215207E+02  0.12343234790E+03  0.00000000000E+00 0. -1.
         -2    1    3    3    0  502  0.12686492797E+02 -0.56626810526E+02 -0.15608261144E+03  0.16652124298E+03  0.00000000000E+00 0.  1.
         11    1    5    5    0    0 -0.10162559227E+03 -0.79657162120E+01 -0.44187942577E+02  0.11110260082E+03  0.00000000000E+00 0. -1.
        -11    1    5    5    0    0 -0.38397774549E+03  0.13984593325E+03 -0.18381001483E+03  0.44808695097E+03  0.00000000000E+00 0.  1.
          1    1    6    6  503    0  0.19316511250E+02 -0.12626242966E+02 -0.36774382580E+02  0.43415490697E+02  0.00000000000E+00 0. -1.
         -1    1    6    6    0  503  0.38203642660E+03 -0.33501312584E+02 -0.18986071639E+03  0.42792670030E+03  0.00000000000E+00 0.  1.
<mgrwt>
<rscale>  0 0.11152883E+04</rscale>
<asrwt>0</asrwt>
<pdfrwt beam="1">  1        1 0.47193112E-01 0.11152883E+04</pdfrwt>
<pdfrwt beam="2">  1       -2 0.15595848E+00 0.11152883E+04</pdfrwt>
<totfact> 0.19952624E+01</totfact>
</mgrwt>
</event>
<event>
12    4  0.4320235E-008  0.1972079E+04  0.7818608E-02  0.8619787E-01
         -2   -1    0    0    0  501 -0.00000000000E+00  0.00000000000E+00  0.92549862384E+03  0.92549862384E+03  0.00000000000E+00 0.  1.
          1   -1    0    0  501    0  0.00000000000E+00 -0.00000000000E+00 -0.10505401611E+04  0.10505401611E+04  0.00000000000E+00 0. -1.
        -24    2    1    2    0    0  0.18501913827E+03  0.36762623802E+02  0.70385848585E+03  0.73328476092E+03  0.81891394338E+02 0.  0.
        254    2    1    2    0    0 -0.18501913827E+03 -0.36762623802E+02 -0.82890002308E+03  0.12427540240E+04  0.90652012875E+03 0.  0.
         23    2    4    4    0    0  0.92353720839E+02  0.32295897821E+03 -0.66704151668E+03  0.75183883384E+03  0.86518990675E+02 0.  0.
         23    2    4    4    0    0 -0.27737285911E+03 -0.35972160201E+03 -0.16185850641E+03  0.49091519014E+03  0.92001162427E+02 0.  0.
          1    1    3    3  502    0 -0.64357428190E+01 -0.42486900509E+01  0.12084753860E+02  0.14335669801E+02  0.00000000000E+00 0. -1.
         -2    1    3    3    0  502  0.19145488109E+03  0.41011313853E+02  0.69177373199E+03  0.71894909112E+03  0.00000000000E+00 0.  1.
         11    1    5    5    0    0  0.23426538937E+02  0.74650832370E+02 -0.86285226653E+02  0.11647613420E+03  0.00000000000E+00 0. -1.
        -11    1    5    5    0    0  0.68927181902E+02  0.24830814584E+03 -0.58075629002E+03  0.63536269964E+03  0.00000000000E+00 0.  1.
          1    1    6    6  503    0 -0.19302841471E+03 -0.19795627083E+03 -0.13075616032E+03  0.30584935427E+03  0.00000000000E+00 0. -1.
         -1    1    6    6    0  503 -0.84344444400E+02 -0.16176533118E+03 -0.31102346092E+02  0.18506583587E+03  0.00000000000E+00 0.  1.
<mgrwt>
<rscale>  0 0.19720786E+04</rscale>
<asrwt>0</asrwt>
<pdfrwt beam="1">  1        1 0.16162156E+00 0.19720786E+04</pdfrwt>
<pdfrwt beam="2">  1       -2 0.14238440E+00 0.19720786E+04</pdfrwt>
<totfact> 0.38740057E+00</totfact>
</mgrwt>
</event>
<event>
12    4  0.4320235E-008  0.3048773E+04  0.7818608E-02  0.8229939E-01
         -4   -1    0    0    0  501 -0.00000000000E+00  0.00000000000E+00  0.12318453422E+04  0.12318453422E+04  0.00000000000E+00 0.  1.
          1   -1    0    0  501    0  0.00000000000E+00 -0.00000000000E+00 -0.18864012838E+04  0.18864012838E+04  0.00000000000E+00 0. -1.
        -24    2    1    2    0    0 -0.11346131834E+04  0.61353357251E+03 -0.82972222307E+03  0.15359073049E+04  0.82472790850E+02 0.  0.
        254    2    1    2    0    0  0.11346131834E+04 -0.61353357251E+03  0.17516628143E+03  0.15823393211E+04  0.89963547094E+03 0.  0.
         23    2    4    4    0    0  0.63630060640E+03 -0.28453502075E+03 -0.34698130606E+03  0.78400251423E+03  0.91789301229E+02 0.  0.
         23    2    4    4    0    0  0.49831257697E+03 -0.32899855176E+03  0.52214758748E+03  0.79833680691E+03  0.90266730979E+02 0.  0.
          3    1    3    3  502    0 -0.93555204339E+03  0.52104152991E+03 -0.72095656141E+03  0.12909377465E+04  0.00000000000E+00 0. -1.
         -4    1    3    3    0  502 -0.19906113998E+03  0.92492042601E+02 -0.10876566165E+03  0.24496955841E+03  0.00000000000E+00 0.  1.
         11    1    5    5    0    0 -0.15403548475E+01 -0.36339765904E+01 -0.81358118000E+01  0.90426717601E+01  0.00000000000E+00 0.  1.
        -11    1    5    5    0    0  0.63784096125E+03 -0.28090104416E+03 -0.33884549426E+03  0.77495984247E+03  0.00000000000E+00 0. -1.
          2    1    6    6  503    0  0.10201575239E+03 -0.67638882675E+02  0.62017046870E+02  0.13721642135E+03  0.00000000000E+00 0.  1.
         -2    1    6    6    0  503  0.39629682458E+03 -0.26135966909E+03  0.46013054061E+03  0.66112038556E+03  0.00000000000E+00 0. -1.
<mgrwt>
<rscale>  0 0.30487733E+04</rscale>
<asrwt>0</asrwt>
<pdfrwt beam="1">  1        1 0.29021558E+00 0.30487733E+04</pdfrwt>
<pdfrwt beam="2">  1       -4 0.18951467E+00 0.30487733E+04</pdfrwt>
<totfact> 0.22744227E-01</totfact>
</mgrwt>
</event>
<event>
12    4  0.4320235E-008  0.1442186E+04  0.7818608E-02  0.8923836E-01
          1   -1    0    0  501    0  0.00000000000E+00  0.00000000000E+00  0.15569282214E+04  0.15569282214E+04  0.00000000000E+00 0. -1.
         -2   -1    0    0    0  501 -0.00000000000E+00 -0.00000000000E+00 -0.33397495523E+03  0.33397495523E+03  0.00000000000E+00 0.  1.
        -24    2    1    2    0    0  0.39692868493E+03 -0.27435379806E+03  0.20219857119E+03  0.52915822419E+03  0.79383730105E+02 0.  0.
        254    2    1    2    0    0 -0.39692868493E+03  0.27435379806E+03  0.10207546950E+04  0.13617449524E+04  0.76130597053E+03 0.  0.
         23    2    4    4    0    0 -0.76442290073E+02 -0.21754841533E+03  0.10308646108E+03  0.26846151744E+03  0.90961701620E+02 0.  0.
         23    2    4    4    0    0 -0.32048639486E+03  0.49190221339E+03  0.91766823390E+03  0.10932834350E+04  0.92056313877E+02 0.  0.
          3    1    3    3  502    0 -0.34631248994E+01 -0.39851433402E+00 -0.18921484044E+00  0.34911101385E+01  0.00000000000E+00 0. -1.
         -4    1    3    3    0  502  0.40039180983E+03 -0.27395528372E+03  0.20238778603E+03  0.52566711405E+03  0.00000000000E+00 0.  1.
         11    1    5    5    0    0 -0.43276283350E+02 -0.74538176038E+02 -0.47266721686E+01  0.86319857608E+02  0.00000000000E+00 0.  1.
        -11    1    5    5    0    0 -0.33166006723E+02 -0.14301023930E+03  0.10781313324E+03  0.18214165983E+03  0.00000000000E+00 0. -1.
          2    1    6    6  503    0 -0.24296682848E+03  0.43376758433E+03  0.75753191593E+03  0.90611356938E+03  0.00000000000E+00 0. -1.
         -2    1    6    6    0  503 -0.77519566375E+02  0.58134629066E+02  0.16013631797E+03  0.18716986563E+03  0.00000000000E+00 0.  1.
<mgrwt>
<rscale>  0 0.14421859E+04</rscale>
<asrwt>0</asrwt>
<pdfrwt beam="1">  1        1 0.23952742E+00 0.14421859E+04</pdfrwt>
<pdfrwt beam="2">  1       -2 0.51380763E-01 0.14421859E+04</pdfrwt>
<totfact> 0.18234717E+01</totfact>
</mgrwt>
</event>
<event>
12    4  0.4320235E-008  0.1907990E+04  0.7818608E-02  0.8650889E-01
         -2   -1    0    0    0  501 -0.00000000000E+00  0.00000000000E+00  0.92241661984E+03  0.92241661984E+03  0.00000000000E+00 0.  1.
          1   -1    0    0  501    0  0.00000000000E+00 -0.00000000000E+00 -0.98665434823E+03  0.98665434823E+03  0.00000000000E+00 0. -1.
        -24    2    1    2    0    0  0.21009259814E+02  0.70220065330E+03 -0.25923940478E+03  0.75302592340E+03  0.79472170136E+02 0.  0.
        254    2    1    2    0    0 -0.21009259814E+02 -0.70220065330E+03  0.19500167639E+03  0.11560450447E+04  0.89715513989E+03 0.  0.
         23    2    4    4    0    0 -0.27379294181E+03 -0.80136913255E+03  0.12914637470E+03  0.86145693737E+03  0.90962669583E+02 0.  0.
         23    2    4    4    0    0  0.25278368199E+03  0.99168479253E+02  0.65855301687E+02  0.29458810730E+03  0.93334104410E+02 0.  0.
          1    1    3    3  502    0 -0.19545425971E+01  0.55377958846E+03 -0.23186707446E+03  0.60036488326E+03  0.00000000000E+00 0. -1.
         -2    1    3    3    0  502  0.22963802411E+02  0.14842106484E+03 -0.27372330321E+02  0.15266104014E+03  0.00000000000E+00 0.  1.
         11    1    5    5    0    0 -0.14236658522E+03 -0.54620798833E+03  0.75828264290E+02  0.56952729238E+03  0.00000000000E+00 0.  1.
        -11    1    5    5    0    0 -0.13142635658E+03 -0.25516114422E+03  0.53318110413E+02  0.29192964499E+03  0.00000000000E+00 0. -1.
          3    1    6    6  503    0 -0.78739315682E+01  0.66209690187E+01  0.46896658042E+01  0.11306148524E+02  0.00000000000E+00 0. -1.
         -3    1    6    6    0  503  0.26065761356E+03  0.92547510234E+02  0.61165635883E+02  0.28328195878E+03  0.00000000000E+00 0.  1.
<mgrwt>
<rscale>  0 0.19079899E+04</rscale>
<asrwt>0</asrwt>
<pdfrwt beam="1">  1        1 0.15179298E+00 0.19079899E+04</pdfrwt>
<pdfrwt beam="2">  1       -2 0.14191025E+00 0.19079899E+04</pdfrwt>
<totfact> 0.44041008E+00</totfact>
</mgrwt>
</event>
<event>
12    4  0.4320235E-008  0.1623870E+04  0.7818608E-02  0.8806016E-01
          1   -1    0    0  501    0  0.00000000000E+00  0.00000000000E+00  0.11695897337E+04  0.11695897337E+04  0.00000000000E+00 0. -1.
         -2   -1    0    0    0  501 -0.00000000000E+00 -0.00000000000E+00 -0.56364930425E+03  0.56364930425E+03  0.00000000000E+00 0.  1.
        -24    2    1    2    0    0 -0.46206659447E+03 -0.19363627841E+03 -0.37263672355E+02  0.50866073516E+03  0.79665652446E+02 0.  0.
        254    2    1    2    0    0  0.46206659447E+03  0.19363627841E+03  0.64320410181E+03  0.12245783028E+04  0.91371765718E+03 0.  0.
         23    2    4    4    0    0 -0.17372668723E+03  0.15277706620E+03 -0.75765182046E+02  0.25952129178E+03  0.89939670139E+02 0.  0.
         23    2    4    4    0    0  0.63579328170E+03  0.40859212209E+02  0.71896928386E+03  0.96505701101E+03  0.92280177174E+02 0.  0.
          1    1    3    3  502    0 -0.22396594707E+01 -0.58612573045E+01 -0.92561171914E+01  0.11182402121E+02  0.00000000000E+00 0. -1.
         -2    1    3    3    0  502 -0.45982693500E+03 -0.18777502110E+03 -0.28007555164E+02  0.49747833304E+03  0.00000000000E+00 0.  1.
         11    1    5    5    0    0 -0.17658298923E+03  0.13355727287E+03 -0.86049572832E+02  0.23753657867E+03  0.00000000000E+00 0.  1.
        -11    1    5    5    0    0  0.28563020005E+01  0.19219793325E+02  0.10284390786E+02  0.21984713107E+02  0.00000000000E+00 0. -1.
          4    1    6    6  503    0  0.18002393354E+03 -0.32957347453E+01  0.26400176420E+03  0.31955658343E+03  0.00000000000E+00 0. -1.
         -4    1    6    6    0  503  0.45576934816E+03  0.44154946955E+02  0.45496751965E+03  0.64550042758E+03  0.00000000000E+00 0.  1.
<mgrwt>
<rscale>  0 0.16238700E+04</rscale>
<asrwt>0</asrwt>
<pdfrwt beam="1">  1        1 0.17993688E+00 0.16238700E+04</pdfrwt>
<pdfrwt beam="2">  1       -2 0.86715278E-01 0.16238700E+04</pdfrwt>
<totfact> 0.10877253E+01</totfact>
</mgrwt>
</event>
<event>
12    4  0.4320235E-008  0.1871593E+04  0.7818608E-02  0.8669127E-01
          1   -1    0    0  501    0  0.00000000000E+00  0.00000000000E+00  0.26943990537E+04  0.26943990537E+04  0.00000000000E+00 0. -1.
         -2   -1    0    0    0  501 -0.00000000000E+00 -0.00000000000E+00 -0.32501307444E+03  0.32501307444E+03  0.00000000000E+00 0.  1.
        -24    2    1    2    0    0  0.54584413772E+03  0.31318190595E+02  0.16210651810E+03  0.57582847099E+03  0.79832656546E+02 0.  0.
        254    2    1    2    0    0 -0.54584413772E+03 -0.31318190595E+02  0.22072794612E+04  0.24435836572E+04  0.89447851742E+03 0.  0.
         23    2    4    4    0    0 -0.18182494819E+02 -0.35049836338E+03  0.44137841843E+03  0.57091275276E+03  0.89144585717E+02 0.  0.
         23    2    4    4    0    0 -0.52766164290E+03  0.31918017278E+03  0.17659010428E+04  0.18726709044E+04  0.90482215760E+02 0.  0.
          1    1    3    3  502    0  0.18696030837E+03  0.25962184986E+02  0.92566342528E+02  0.21023015893E+03  0.00000000000E+00 0. -1.
         -2    1    3    3    0  502  0.35888382935E+03  0.53560056093E+01  0.69540175577E+02  0.36559831207E+03  0.00000000000E+00 0.  1.
         11    1    5    5    0    0  0.14923795549E+01 -0.24274561574E+02  0.35796499495E+01  0.24582421161E+02  0.00000000000E+00 0. -1.
        -11    1    5    5    0    0 -0.19674874374E+02 -0.32622380180E+03  0.43779876849E+03  0.54633033160E+03  0.00000000000E+00 0.  1.
          3    1    6    6  503    0 -0.31884450051E+03  0.20458691184E+03  0.12091294943E+04  0.12670879030E+04  0.00000000000E+00 0. -1.
         -3    1    6    6    0  503 -0.20881714239E+03  0.11459326094E+03  0.55677154844E+03  0.60558300138E+03  0.00000000000E+00 0.  1.
<mgrwt>
<rscale>  0 0.18715928E+04</rscale>
<asrwt>0</asrwt>
<pdfrwt beam="1">  1        1 0.41452292E+00 0.18715928E+04</pdfrwt>
<pdfrwt beam="2">  1       -2 0.50002013E-01 0.18715928E+04</pdfrwt>
<totfact> 0.30915733E+00</totfact>
</mgrwt>
</event>
<event>
12    4  0.4320235E-008  0.2333645E+04  0.7818608E-02  0.8464772E-01
         -2   -1    0    0    0  501 -0.00000000000E+00  0.00000000000E+00  0.10049252608E+04  0.10049252608E+04  0.00000000000E+00 0.  1.
          1   -1    0    0  501    0  0.00000000000E+00 -0.00000000000E+00 -0.13548018549E+04  0.13548018549E+04  0.00000000000E+00 0. -1.
        -24    2    1    2    0    0  0.38971733289E+03  0.65630709602E+03  0.49226335483E+03  0.91184234267E+03  0.80713341808E+02 0.  0.
        254    2    1    2    0    0 -0.38971733289E+03 -0.65630709602E+03 -0.84213994891E+03  0.14478847730E+04  0.89696823716E+03 0.  0.
         23    2    4    4    0    0 -0.13829113082E+03 -0.80470699491E+03 -0.78677134219E+03  0.11374068708E+04  0.89484413632E+02 0.  0.
         23    2    4    4    0    0 -0.25142620208E+03  0.14839989889E+03 -0.55368606723E+02  0.31047790222E+03  0.89962103530E+02 0.  0.
          3    1    3    3  502    0  0.95240575198E+02  0.16530636311E+03  0.16587354154E+03  0.25280623535E+03  0.00000000000E+00 0. -1.
         -4    1    3    3    0  502  0.29447675770E+03  0.49100073291E+03  0.32638981329E+03  0.65903610733E+03  0.00000000000E+00 0.  1.
         11    1    5    5    0    0 -0.70266946853E+02 -0.20055448553E+03 -0.22771383874E+03  0.31146932087E+03  0.00000000000E+00 0.  1.
        -11    1    5    5    0    0 -0.68024183963E+02 -0.60415250938E+03 -0.55905750345E+03  0.82593754991E+03  0.00000000000E+00 0. -1.
          3    1    6    6  503    0 -0.22939317309E+03  0.14527386626E+03 -0.74029314323E+02  0.28143571817E+03  0.00000000000E+00 0. -1.
         -3    1    6    6    0  503 -0.22033028987E+02  0.31260326275E+01  0.18660707600E+02  0.29042184051E+02  0.00000000000E+00 0.  1.
<mgrwt>
<rscale>  0 0.23336449E+04</rscale>
<asrwt>0</asrwt>
<pdfrwt beam="1">  1        1 0.20843105E+00 0.23336449E+04</pdfrwt>
<pdfrwt beam="2">  1       -2 0.15460389E+00 0.23336449E+04</pdfrwt>
<totfact> 0.18079838E+00</totfact>
</mgrwt>
</event>
<event>
12    4  0.4320235E-008  0.2574386E+04  0.7818608E-02  0.8376954E-01
         -2   -1    0    0    0  501 -0.00000000000E+00  0.00000000000E+00  0.57638987848E+03  0.57638987848E+03  0.00000000000E+00 0.  1.
          1   -1    0    0  501    0  0.00000000000E+00 -0.00000000000E+00 -0.28745567679E+04  0.28745567679E+04  0.00000000000E+00 0. -1.
        -24    2    1    2    0    0  0.26247139196E+03 -0.73885768691E+02  0.46141246487E+03  0.54176092242E+03  0.79076519389E+02 0.  0.
        254    2    1    2    0    0 -0.26247139196E+03  0.73885768691E+02 -0.27595793543E+04  0.29091857240E+04  0.87962095552E+03 0.  0.
         23    2    4    4    0    0  0.32307531226E+02  0.28783629869E+03 -0.22792489211E+04  0.22996712141E+04  0.98074142314E+02 0.  0.
         23    2    4    4    0    0 -0.29477892318E+03 -0.21395053000E+03 -0.48033043324E+03  0.60951450986E+03  0.90117533210E+02 0.  0.
          1    1    3    3  502    0  0.27323133432E+02 -0.14944165201E+02  0.11366327002E+03  0.11785253771E+03  0.00000000000E+00 0. -1.
         -2    1    3    3    0  502  0.23514825852E+03 -0.58941603490E+02  0.34774919485E+03  0.42390838471E+03  0.00000000000E+00 0.  1.
         11    1    5    5    0    0 -0.27829035604E+02  0.13986344945E+03 -0.90417792006E+03  0.91535454926E+03  0.00000000000E+00 0. -1.
        -11    1    5    5    0    0  0.60136566830E+02  0.14797284924E+03 -0.13750710010E+04  0.13843166648E+04  0.00000000000E+00 0.  1.
          4    1    6    6  503    0 -0.35990420929E+02 -0.70872665040E+02 -0.98840689765E+02  0.12683740380E+03  0.00000000000E+00 0. -1.
         -4    1    6    6    0  503 -0.25878850225E+03 -0.14307786496E+03 -0.38148974348E+03  0.48267710606E+03  0.00000000000E+00 0.  1.
<mgrwt>
<rscale>  0 0.25743857E+04</rscale>
<asrwt>0</asrwt>
<pdfrwt beam="1">  1        1 0.44223951E+00 0.25743857E+04</pdfrwt>
<pdfrwt beam="2">  1       -2 0.88675365E-01 0.25743857E+04</pdfrwt>
<totfact> 0.62541947E-01</totfact>
</mgrwt>
</event>
<event>
12    4  0.4320235E-008  0.1537071E+04  0.7818608E-02  0.8860169E-01
         -2   -1    0    0    0  501 -0.00000000000E+00  0.00000000000E+00  0.20788147820E+03  0.20788147820E+03  0.00000000000E+00 0.  1.
          1   -1    0    0  501    0  0.00000000000E+00 -0.00000000000E+00 -0.28412656074E+04  0.28412656074E+04  0.00000000000E+00 0. -1.
        -24    2    1    2    0    0  0.28616027870E+02  0.35483610433E+03 -0.16397389279E+03  0.40018139038E+03  0.80809465459E+02 0.  0.
        254    2    1    2    0    0 -0.28616027870E+02 -0.35483610433E+03 -0.24694102364E+04  0.26489656952E+04  0.89011504918E+03 0.  0.
         23    2    4    4    0    0  0.64938815101E+02 -0.29767048878E+03 -0.24822115216E+04  0.25024330250E+04  0.89287384091E+02 0.  0.
         23    2    4    4    0    0 -0.93554842971E+02 -0.57165615552E+02  0.12801285267E+02  0.14653267016E+03  0.96371854169E+02 0.  0.
          1    1    3    3  502    0  0.38671035175E+02  0.89554450276E+02 -0.63170908371E+02  0.11621536985E+03  0.00000000000E+00 0. -1.
         -2    1    3    3    0  502 -0.10055007305E+02  0.26528165405E+03 -0.10080298441E+03  0.28396602053E+03  0.00000000000E+00 0.  1.
         11    1    5    5    0    0  0.73550076792E+02 -0.12952003364E+03 -0.11245712303E+04  0.11343921301E+04  0.00000000000E+00 0.  1.
        -11    1    5    5    0    0 -0.86112616915E+01 -0.16815045514E+03 -0.13576402913E+04  0.13680408949E+04  0.00000000000E+00 0. -1.
          1    1    6    6  503    0 -0.82545377884E+01 -0.58237880552E+02  0.16674410701E+02  0.61137746912E+02  0.00000000000E+00 0. -1.
         -1    1    6    6    0  503 -0.85300305183E+02  0.10722650000E+01 -0.38731254340E+01  0.85394923251E+02  0.00000000000E+00 0.  1.
<mgrwt>
<rscale>  0 0.15370706E+04</rscale>
<asrwt>0</asrwt>
<pdfrwt beam="1">  1        1 0.43711779E+00 0.15370706E+04</pdfrwt>
<pdfrwt beam="2">  1       -2 0.31981766E-01 0.15370706E+04</pdfrwt>
<totfact> 0.60239643E+00</totfact>
</mgrwt>
</event>
<event>
12    4  0.4320235E-008  0.2882156E+04  0.7818608E-02  0.8278206E-01
         -2   -1    0    0    0  501 -0.00000000000E+00  0.00000000000E+00  0.20010931243E+04  0.20010931243E+04  0.00000000000E+00 0.  1.
          1   -1    0    0  501    0  0.00000000000E+00 -0.00000000000E+00 -0.10377856527E+04  0.10377856527E+04  0.00000000000E+00 0. -1.
        -24    2    1    2    0    0  0.10357538623E+04 -0.11817406729E+03 -0.39148421617E+03  0.11152656884E+04  0.61696763993E+02 0.  0.
        254    2    1    2    0    0 -0.10357538623E+04  0.11817406729E+03  0.13547916878E+04  0.19236130887E+04  0.88208595047E+03 0.  0.
         23    2    4    4    0    0 -0.86005240072E+03 -0.15313633107E+03  0.51283685319E+03  0.10170345839E+04  0.90646781441E+02 0.  0.
         23    2    4    4    0    0 -0.17570146157E+03  0.27131039836E+03  0.84195483464E+03  0.90657850476E+03  0.92283833180E+02 0.  0.
          3    1    3    3  502    0  0.50740980461E+03 -0.34930791703E+02 -0.21298516694E+03  0.55140507013E+03  0.00000000000E+00 0. -1.
         -2    1    3    3    0  502  0.52834405768E+03 -0.83243275585E+02 -0.17849904922E+03  0.56386061823E+03  0.00000000000E+00 0.  1.
         11    1    5    5    0    0 -0.80470777638E+03 -0.16373260167E+03  0.48968351479E+03  0.95611344248E+03  0.00000000000E+00 0.  1.
        -11    1    5    5    0    0 -0.55344624332E+02  0.10596270608E+02  0.23153338398E+02  0.60921141423E+02  0.00000000000E+00 0. -1.
          4    1    6    6  503    0 -0.14126969386E+03  0.17310029426E+03  0.66211666644E+03  0.69879848186E+03  0.00000000000E+00 0. -1.
         -4    1    6    6    0  503 -0.34431767715E+02  0.98210104094E+02  0.17983816820E+03  0.20778002290E+03  0.00000000000E+00 0.  1.
<mgrwt>
<rscale>  0 0.28821560E+04</rscale>
<asrwt>0</asrwt>
<pdfrwt beam="1">  1        1 0.15965933E+00 0.28821560E+04</pdfrwt>
<pdfrwt beam="2">  1       -2 0.30786048E+00 0.28821560E+04</pdfrwt>
<totfact> 0.30340689E-01</totfact>
</mgrwt>
</event>
<event>
12    4  0.4320235E-008  0.2393045E+04  0.7818608E-02  0.8442112E-01
          1   -1    0    0  501    0  0.00000000000E+00  0.00000000000E+00  0.32963290589E+04  0.32963290589E+04  0.00000000000E+00 0. -1.
         -2   -1    0    0    0  501 -0.00000000000E+00 -0.00000000000E+00 -0.43432117541E+03  0.43432117541E+03  0.00000000000E+00 0.  1.
        -24    2    1    2    0    0 -0.79852720556E+03  0.41109854837E+03  0.46314925977E+03  0.10134485587E+04  0.76961222809E+02 0.  0.
        254    2    1    2    0    0  0.79852720556E+03 -0.41109854837E+03  0.23988586237E+04  0.27172016756E+04  0.90665017226E+03 0.  0.
         23    2    4    4    0    0 -0.46428241010E+02 -0.26440703742E+03  0.12424927578E+04  0.12746366476E+04  0.94040773919E+02 0.  0.
         23    2    4    4    0    0  0.84495544657E+03 -0.14669151095E+03  0.11563658658E+04  0.14425650280E+04  0.91344064609E+02 0.  0.
          3    1    3    3  502    0 -0.59022261903E+02  0.40678007941E+02  0.59285823073E+02  0.93022236845E+02  0.00000000000E+00 0. -1.
         -4    1    3    3    0  502 -0.73950494366E+03  0.37042054043E+03  0.40386343670E+03  0.92042632186E+03  0.00000000000E+00 0.  1.
         11    1    5    5    0    0 -0.52986737918E+02 -0.11595526150E+03  0.72947805574E+03  0.74053457102E+03  0.00000000000E+00 0. -1.
        -11    1    5    5    0    0  0.65584969077E+01 -0.14845177593E+03  0.51301470210E+03  0.53410207660E+03  0.00000000000E+00 0.  1.
          4    1    6    6  503    0  0.25115476795E+03 -0.84585512946E+02  0.37570376704E+03  0.45976814486E+03  0.00000000000E+00 0. -1.
         -4    1    6    6    0  503  0.59380067863E+03 -0.62105998000E+02  0.78066209881E+03  0.98279688310E+03  0.00000000000E+00 0.  1.
<mgrwt>
<rscale>  0 0.23930445E+04</rscale>
<asrwt>0</asrwt>
<pdfrwt beam="1">  1        1 0.50712753E+00 0.23930445E+04</pdfrwt>
<pdfrwt beam="2">  1       -2 0.66818644E-01 0.23930445E+04</pdfrwt>
<totfact> 0.58333012E-01</totfact>
</mgrwt>
</event>
<event>
12    4  0.4320235E-008  0.2197391E+04  0.7818608E-02  0.8519515E-01
         -2   -1    0    0    0  501 -0.00000000000E+00  0.00000000000E+00  0.78850548787E+03  0.78850548787E+03  0.00000000000E+00 0.  1.
          1   -1    0    0  501    0  0.00000000000E+00 -0.00000000000E+00 -0.15309109908E+04  0.15309109908E+04  0.00000000000E+00 0. -1.
        -24    2    1    2    0    0 -0.31243608626E+03 -0.55148869048E+03 -0.99612529212E+03  0.11833810675E+04  0.79806450967E+02 0.  0.
        254    2    1    2    0    0  0.31243608626E+03  0.55148869048E+03  0.25371978915E+03  0.11360354112E+04  0.90799044068E+03 0.  0.
         23    2    4    4    0    0 -0.19229534240E+03 -0.12761361519E+03  0.11530298187E+03  0.27362027159E+03  0.91162173658E+02 0.  0.
         23    2    4    4    0    0  0.50473142865E+03  0.67910230567E+03  0.13841680728E+03  0.86241513961E+03  0.93096207518E+02 0.  0.
          3    1    3    3  502    0 -0.19886376611E+03 -0.41301718206E+03 -0.68067994150E+03  0.82064314590E+03  0.00000000000E+00 0. -1.
         -4    1    3    3    0  502 -0.11357232015E+03 -0.13847150842E+03 -0.31544535063E+03  0.36273792162E+03  0.00000000000E+00 0.  1.
         11    1    5    5    0    0 -0.50318577004E+02  0.41508000028E+01  0.44767546572E+02  0.67478304354E+02  0.00000000000E+00 0.  1.
        -11    1    5    5    0    0 -0.14197676539E+03 -0.13176441519E+03  0.70535435298E+02  0.20614196723E+03  0.00000000000E+00 0. -1.
          1    1    6    6  503    0  0.38506183918E+03  0.56076512745E+03  0.13808270567E+03  0.69411597141E+03  0.00000000000E+00 0. -1.
         -1    1    6    6    0  503  0.11966958948E+03  0.11833717822E+03  0.33410160935E+00  0.16829916820E+03  0.00000000000E+00 0.  1.
<mgrwt>
<rscale>  0 0.21973909E+04</rscale>
<asrwt>0</asrwt>
<pdfrwt beam="1">  1        1 0.23552477E+00 0.21973909E+04</pdfrwt>
<pdfrwt beam="2">  1       -2 0.12130854E+00 0.21973909E+04</pdfrwt>
<totfact> 0.25767369E+00</totfact>
</mgrwt>
</event>
<event>
12    4  0.4320235E-008  0.1696194E+04  0.7818608E-02  0.8763538E-01
          1   -1    0    0  501    0  0.00000000000E+00  0.00000000000E+00  0.10310923771E+04  0.10310923771E+04  0.00000000000E+00 0. -1.
         -2   -1    0    0    0  501 -0.00000000000E+00 -0.00000000000E+00 -0.69757946531E+03  0.69757946531E+03  0.00000000000E+00 0.  1.
        -24    2    1    2    0    0  0.27446135732E+03 -0.46451732431E+02 -0.42950844747E+03  0.51796100576E+03  0.79494005690E+02 0.  0.
        254    2    1    2    0    0 -0.27446135732E+03  0.46451732431E+02  0.76302135922E+03  0.12107108366E+04  0.89784872621E+03 0.  0.
         23    2    4    4    0    0 -0.25922305286E+03  0.96730762188E+02 -0.12488652709E+03  0.31661854918E+03  0.89984607279E+02 0.  0.
         23    2    4    4    0    0 -0.15238304460E+02 -0.50279029758E+02  0.88790788631E+03  0.89409228744E+03  0.90886836956E+02 0.  0.
          3    1    3    3  502    0  0.96606644527E+02  0.60559304151E+01 -0.95800124787E+02  0.13618803901E+03  0.00000000000E+00 0. -1.
         -4    1    3    3    0  502  0.17785471279E+03 -0.52507662846E+02 -0.33370832268E+03  0.38177296676E+03  0.00000000000E+00 0.  1.
         11    1    5    5    0    0 -0.19249212051E+03  0.11062663162E+03 -0.10513667742E+03  0.24565257789E+03  0.00000000000E+00 0.  1.
        -11    1    5    5    0    0 -0.66730932348E+02 -0.13895869433E+02 -0.19749849664E+02  0.70965971289E+02  0.00000000000E+00 0. -1.
          4    1    6    6  503    0  0.10200195014E+02  0.24045328737E+02  0.25221530249E+03  0.25356415485E+03  0.00000000000E+00 0. -1.
         -4    1    6    6    0  503 -0.25438499474E+02 -0.74324358495E+02  0.63569258381E+03  0.64052813259E+03  0.00000000000E+00 0.  1.
<mgrwt>
<rscale>  0 0.16961944E+04</rscale>
<asrwt>0</asrwt>
<pdfrwt beam="1">  1        1 0.15862960E+00 0.16961944E+04</pdfrwt>
<pdfrwt beam="2">  1       -2 0.10731992E+00 0.16961944E+04</pdfrwt>
<totfact> 0.83296054E+00</totfact>
</mgrwt>
</event>
<event>
12    4  0.4320235E-008  0.1312777E+04  0.7818608E-02  0.9019494E-01
         -2   -1    0    0    0  501 -0.00000000000E+00  0.00000000000E+00  0.10370889701E+04  0.10370889701E+04  0.00000000000E+00 0.  1.
          1   -1    0    0  501    0  0.00000000000E+00 -0.00000000000E+00 -0.41543759827E+03  0.41543759827E+03  0.00000000000E+00 0. -1.
        -24    2    1    2    0    0 -0.32588145203E+02  0.14140205713E+03  0.48466945395E+03  0.51228803589E+03  0.80486167458E+02 0.  0.
        254    2    1    2    0    0  0.32588145203E+02 -0.14140205713E+03  0.13698191785E+03  0.94023853244E+03  0.91881876510E+03 0.  0.
         23    2    4    4    0    0  0.35029514316E+03 -0.24355713795E+03 -0.17894902594E+03  0.47152910871E+03  0.91050424000E+02 0.  0.
         23    2    4    4    0    0 -0.31770699796E+03  0.10215508082E+03  0.31593094379E+03  0.46870942373E+03  0.92210441723E+02 0.  0.
          3    1    3    3  502    0  0.10856080074E+02  0.10609440379E+03  0.26641903624E+03  0.28697208900E+03  0.00000000000E+00 0. -1.
         -4    1    3    3    0  502 -0.43444225277E+02  0.35307653346E+02  0.21825041771E+03  0.22531594689E+03  0.00000000000E+00 0.  1.
         11    1    5    5    0    0  0.22351374993E+03 -0.13948542905E+03 -0.15523471288E+03  0.30579796829E+03  0.00000000000E+00 0.  1.
        -11    1    5    5    0    0  0.12678139323E+03 -0.10407170890E+03 -0.23714313055E+02  0.16573114042E+03  0.00000000000E+00 0. -1.
          3    1    6    6  503    0 -0.73833097264E+02  0.22068226553E+02  0.25653843344E+02  0.81218548086E+02  0.00000000000E+00 0. -1.
         -3    1    6    6    0  503 -0.24387390069E+03  0.80086854265E+02  0.29027710045E+03  0.38749087565E+03  0.00000000000E+00 0.  1.
<mgrwt>
<rscale>  0 0.13127768E+04</rscale>
<asrwt>0</asrwt>
<pdfrwt beam="1">  1        1 0.63913477E-01 0.13127768E+04</pdfrwt>
<pdfrwt beam="2">  1       -2 0.15955215E+00 0.13127768E+04</pdfrwt>
<totfact> 0.12404306E+01</totfact>
</mgrwt>
</event>
<event>
12    4  0.4320235E-008  0.1875876E+04  0.7818608E-02  0.8666958E-01
         -2   -1    0    0    0  501 -0.00000000000E+00  0.00000000000E+00  0.21679119785E+04  0.21679119785E+04  0.00000000000E+00 0.  1.
          1   -1    0    0  501    0  0.00000000000E+00 -0.00000000000E+00 -0.40579506835E+03  0.40579506835E+03  0.00000000000E+00 0. -1.
        -24    2    1    2    0    0 -0.13464451348E+02  0.12175795519E+03  0.16653897506E+04  0.16718715497E+04  0.81395124371E+02 0.  0.
        254    2    1    2    0    0  0.13464451348E+02 -0.12175795519E+03  0.96727159577E+02  0.90183549715E+03  0.88822566356E+03 0.  0.
         23    2    4    4    0    0 -0.24212419482E+03  0.17531061891E+03  0.31531568867E+03  0.44380747112E+03  0.90460759916E+02 0.  0.
         23    2    4    4    0    0  0.25558864617E+03 -0.29706857410E+03 -0.21858852909E+03  0.45802802603E+03  0.91833729128E+02 0.  0.
          1    1    3    3  502    0  0.22970468711E+02  0.43313579979E+02  0.32316158908E+03  0.32685948250E+03  0.00000000000E+00 0. -1.
         -2    1    3    3    0  502 -0.36434920058E+02  0.78444375215E+02  0.13422281615E+04  0.13450120672E+04  0.00000000000E+00 0.  1.
         11    1    5    5    0    0 -0.37082853535E+01 -0.67789729330E+01 -0.10743108077E+01  0.78012818178E+01  0.00000000000E+00 0. -1.
        -11    1    5    5    0    0 -0.23841590947E+03  0.18208959184E+03  0.31638999947E+03  0.43600618930E+03  0.00000000000E+00 0.  1.
          4    1    6    6  503    0  0.63943713246E+02 -0.38785255599E+02 -0.74656026716E+02  0.10567221414E+03  0.00000000000E+00 0. -1.
         -4    1    6    6    0  503  0.19164493292E+03 -0.25828331850E+03 -0.14393250237E+03  0.35235581189E+03  0.00000000000E+00 0.  1.
<mgrwt>
<rscale>  0 0.18758763E+04</rscale>
<asrwt>0</asrwt>
<pdfrwt beam="1">  1        1 0.62430012E-01 0.18758763E+04</pdfrwt>
<pdfrwt beam="2">  1       -2 0.33352491E+00 0.18758763E+04</pdfrwt>
<totfact> 0.95509475E-01</totfact>
</mgrwt>
</event>
<event>
12    4  0.4320235E-008  0.1821708E+04  0.7818608E-02  0.8694840E-01
         -2   -1    0    0    0  501 -0.00000000000E+00  0.00000000000E+00  0.91131891073E+03  0.91131891073E+03  0.00000000000E+00 0.  1.
          1   -1    0    0  501    0  0.00000000000E+00 -0.00000000000E+00 -0.91038941134E+03  0.91038941134E+03  0.00000000000E+00 0. -1.
        -24    2    1    2    0    0  0.26242669559E+03 -0.25430100873E+02  0.53693989198E+03  0.60363397037E+03  0.80963337322E+02 0.  0.
        254    2    1    2    0    0 -0.26242669559E+03  0.25430100873E+02 -0.53601039259E+03  0.12180743517E+04  0.10615477025E+04 0.  0.
         23    2    4    4    0    0  0.92384767959E+02  0.36241361950E+02  0.28665264414E+03  0.31720126473E+03  0.92728217299E+02 0.  0.
         23    2    4    4    0    0 -0.35481146355E+03 -0.10811261077E+02 -0.82266303673E+03  0.90087308698E+03  0.93753873543E+02 0.  0.
          3    1    3    3  502    0  0.64849570984E+02  0.16684859416E+02  0.82064039159E+02  0.10591674992E+03  0.00000000000E+00 0. -1.
         -4    1    3    3    0  502  0.19757712461E+03 -0.42114960289E+02  0.45487585282E+03  0.49771722045E+03  0.00000000000E+00 0.  1.
         11    1    5    5    0    0  0.13239842473E+02  0.41680925470E+02  0.44532975537E+02  0.62416174882E+02  0.00000000000E+00 0.  1.
        -11    1    5    5    0    0  0.79144925486E+02 -0.54395635201E+01  0.24211966860E+03  0.25478508984E+03  0.00000000000E+00 0. -1.
          1    1    6    6  503    0 -0.30841773804E+03  0.80756050943E+01 -0.76271669931E+03  0.82275359613E+03  0.00000000000E+00 0. -1.
         -1    1    6    6    0  503 -0.46393725508E+02 -0.18886866171E+02 -0.59946337422E+02  0.78119490849E+02  0.00000000000E+00 0.  1.
<mgrwt>
<rscale>  0 0.18217081E+04</rscale>
<asrwt>0</asrwt>
<pdfrwt beam="1">  1        1 0.14005991E+00 0.18217081E+04</pdfrwt>
<pdfrwt beam="2">  1       -2 0.14020291E+00 0.18217081E+04</pdfrwt>
<totfact> 0.52690690E+00</totfact>
</mgrwt>
</event>
<event>
12    4  0.4320235E-008  0.1521016E+04  0.7818608E-02  0.8870596E-01
         -2   -1    0    0    0  501 -0.00000000000E+00  0.00000000000E+00  0.21086271316E+03  0.21086271316E+03  0.00000000000E+00 0.  1.
          1   -1    0    0  501    0  0.00000000000E+00 -0.00000000000E+00 -0.27428871560E+04  0.27428871560E+04  0.00000000000E+00 0. -1.
        -24    2    1    2    0    0 -0.22997007175E+03  0.32536892800E+03 -0.28270586843E+03  0.49518258778E+03  0.80820875929E+02 0.  0.
        254    2    1    2    0    0  0.22997007175E+03 -0.32536892800E+03 -0.22493185745E+04  0.24585672814E+04  0.90904777361E+03 0.  0.
         23    2    4    4    0    0 -0.16205960621E+03 -0.43175589577E+03 -0.62763270510E+03  0.78430692849E+03  0.92401710348E+02 0.  0.
         23    2    4    4    0    0  0.39202967796E+03  0.10638696777E+03 -0.16216858694E+04  0.16742603529E+04  0.90979202176E+02 0.  0.
          3    1    3    3  502    0  0.55905329248E+01  0.46261098878E+01 -0.40022812626E+00  0.72674021239E+01  0.00000000000E+00 0. -1.
         -4    1    3    3    0  502 -0.23556060468E+03  0.32074281811E+03 -0.28230564031E+03  0.48791518566E+03  0.00000000000E+00 0.  1.
         11    1    5    5    0    0 -0.15705431913E+03 -0.40518697209E+03 -0.61823649641E+03  0.75568439643E+03  0.00000000000E+00 0. -1.
        -11    1    5    5    0    0 -0.50052870844E+01 -0.26568923673E+02 -0.93962086862E+01  0.28622532062E+02  0.00000000000E+00 0.  1.
          2    1    6    6  503    0  0.33546458309E+03  0.11259138622E+03 -0.14767655394E+04  0.15185683275E+04  0.00000000000E+00 0. -1.
         -2    1    6    6    0  503  0.56565094874E+02 -0.62044184501E+01 -0.14492032991E+03  0.15569202544E+03  0.00000000000E+00 0.  1.
<mgrwt>
<rscale>  0 0.15210163E+04</rscale>
<asrwt>0</asrwt>
<pdfrwt beam="1">  1        1 0.42198262E+00 0.15210163E+04</pdfrwt>
<pdfrwt beam="2">  1       -2 0.32440419E-01 0.15210163E+04</pdfrwt>
<totfact> 0.68970019E+00</totfact>
</mgrwt>
</event>
<event>
12    4  0.4320235E-008  0.1970348E+04  0.7818608E-02  0.8620611E-01
          1   -1    0    0  501    0  0.00000000000E+00  0.00000000000E+00  0.14060689163E+04  0.14060689163E+04  0.00000000000E+00 0. -1.
         -2   -1    0    0    0  501 -0.00000000000E+00 -0.00000000000E+00 -0.69027051702E+03  0.69027051702E+03  0.00000000000E+00 0.  1.
        -24    2    1    2    0    0 -0.24582497517E+03  0.43504995188E+03 -0.34908821801E+03  0.61460223610E+03  0.78580822164E+02 0.  0.
        254    2    1    2    0    0  0.24582497517E+03 -0.43504995188E+03  0.10648866173E+04  0.14817371972E+04  0.90103453589E+03 0.  0.
         23    2    4    4    0    0  0.21328429826E+03  0.17795960466E+03  0.70875647707E+03  0.76638782476E+03  0.88626978853E+02 0.  0.
         23    2    4    4    0    0  0.32540676908E+02 -0.61300955654E+03  0.35613014022E+03  0.71534937245E+03  0.89757650551E+02 0.  0.
          3    1    3    3  502    0 -0.27899038174E+02  0.57850730173E+02 -0.15906210889E+02  0.66166992205E+02  0.00000000000E+00 0. -1.
         -4    1    3    3    0  502 -0.21792593700E+03  0.37719922171E+03 -0.33318200712E+03  0.54843524389E+03  0.00000000000E+00 0.  1.
         11    1    5    5    0    0 -0.41848761782E+01 -0.44061664752E+01  0.31275077340E+02  0.31859974172E+02  0.00000000000E+00 0. -1.
        -11    1    5    5    0    0  0.21746917444E+03  0.18236577113E+03  0.67748139973E+03  0.73452785059E+03  0.00000000000E+00 0.  1.
          3    1    6    6  503    0  0.63382991359E+02 -0.36317136891E+03  0.21293365806E+03  0.42573652594E+03  0.00000000000E+00 0. -1.
         -3    1    6    6    0  503 -0.30842314450E+02 -0.24983818763E+03  0.14319648217E+03  0.28961284651E+03  0.00000000000E+00 0.  1.
<mgrwt>
<rscale>  0 0.19703481E+04</rscale>
<asrwt>0</asrwt>
<pdfrwt beam="1">  1        1 0.21631829E+00 0.19703481E+04</pdfrwt>
<pdfrwt beam="2">  1       -2 0.10619546E+00 0.19703481E+04</pdfrwt>
<totfact> 0.44416776E+00</totfact>
</mgrwt>
</event>
<event>
12    4  0.1140225E-007  0.1892723E+04  0.7818608E-02  0.8658487E-01
         -2   -1    0    0    0  501 -0.00000000000E+00  0.00000000000E+00  0.47940649076E+03  0.47940649076E+03  0.00000000000E+00 0.  1.
          1   -1    0    0  501    0  0.00000000000E+00 -0.00000000000E+00 -0.18681425173E+04  0.18681425173E+04  0.00000000000E+00 0. -1.
        -24    2    1    2    0    0 -0.84409505034E+02  0.28862861346E+02 -0.14339671960E+04  0.14390930427E+04  0.82272942791E+02 0.  0.
        254    2    1    2    0    0  0.84409505034E+02 -0.28862861346E+02  0.45231169429E+02  0.90845596536E+03  0.90293319410E+03 0.  0.
         23    2    4    4    0    0  0.94900075300E+01  0.33994046204E+03 -0.24022440169E+03  0.42651753685E+03  0.92519555205E+02 0.  0.
         23    2    4    4    0    0  0.74919497504E+02 -0.36880332339E+03  0.28545557112E+03  0.48193842851E+03  0.95660563147E+02 0.  0.
          1    1    3    3  502    0 -0.96921895965E+02  0.27187465214E+02 -0.13801048771E+04  0.13837711097E+04  0.00000000000E+00 0. -1.
         -2    1    3    3    0  502  0.12512390931E+02  0.16753961312E+01 -0.53862318879E+02  0.55321933029E+02  0.00000000000E+00 0.  1.
         11    1    5    5    0    0 -0.10086225932E+02  0.32298252632E+03 -0.20457524353E+03  0.38245323182E+03  0.00000000000E+00 0. -1.
        -11    1    5    5    0    0  0.19576233462E+02  0.16957935724E+02 -0.35649158159E+02  0.44064305033E+02  0.00000000000E+00 0.  1.
          3    1    6    6  503    0  0.36245444691E+02 -0.33470508627E+03  0.25087023083E+03  0.41985366469E+03  0.00000000000E+00 0. -1.
         -3    1    6    6    0  503  0.38674052813E+02 -0.34098237117E+02  0.34585340294E+02  0.62084763821E+02  0.00000000000E+00 0.  1.
<mgrwt>
<rscale>  0 0.18927225E+04</rscale>
<asrwt>0</asrwt>
<pdfrwt beam="1">  1        1 0.28740654E+00 0.18927225E+04</pdfrwt>
<pdfrwt beam="2">  1       -2 0.73754846E-01 0.18927225E+04</pdfrwt>
<totfact> 0.49882488E+00</totfact>
</mgrwt>
</event>
<event>
12    4  0.4320235E-008  0.1235093E+04  0.7818608E-02  0.9082682E-01
         -2   -1    0    0    0  501 -0.00000000000E+00  0.00000000000E+00  0.28270054530E+03  0.28270054530E+03  0.00000000000E+00 0.  1.
          1   -1    0    0  501    0  0.00000000000E+00 -0.00000000000E+00 -0.13490030590E+04  0.13490030590E+04  0.00000000000E+00 0. -1.
        -24    2    1    2    0    0  0.15801418295E+03  0.20131573106E+03 -0.98643324092E+02  0.28441391637E+03  0.75261310452E+02 0.  0.
        254    2    1    2    0    0 -0.15801418295E+03 -0.20131573106E+03 -0.96765918959E+03  0.13472896879E+04  0.90184737642E+03 0.  0.
         23    2    4    4    0    0  0.25815179324E+03  0.20221254340E+03 -0.26533906060E+03  0.43158128314E+03  0.91243223384E+02 0.  0.
         23    2    4    4    0    0 -0.41616597619E+03 -0.40352827446E+03 -0.70232012899E+03  0.91570840477E+03  0.96120398248E+02 0.  0.
          3    1    3    3  502    0  0.14914210657E+02  0.72995659679E+02 -0.30003592147E+02  0.80318214330E+02  0.00000000000E+00 0. -1.
         -4    1    3    3    0  502  0.14309997229E+03  0.12832007138E+03 -0.68639731945E+02  0.20409570204E+03  0.00000000000E+00 0.  1.
         11    1    5    5    0    0  0.60985660405E+02  0.18897808366E+02 -0.89821729809E+02  0.11020127532E+03  0.00000000000E+00 0.  1.
        -11    1    5    5    0    0  0.19716613283E+03  0.18331473504E+03 -0.17551733080E+03  0.32138000782E+03  0.00000000000E+00 0. -1.
          4    1    6    6  503    0 -0.31257442606E+03 -0.24031665890E+03 -0.46924284553E+03  0.61289780262E+03  0.00000000000E+00 0. -1.
         -4    1    6    6    0  503 -0.10359155012E+03 -0.16321161556E+03 -0.23307728346E+03  0.30281060215E+03  0.00000000000E+00 0.  1.
<mgrwt>
<rscale>  0 0.12350934E+04</rscale>
<asrwt>0</asrwt>
<pdfrwt beam="1">  1        1 0.20753893E+00 0.12350934E+04</pdfrwt>
<pdfrwt beam="2">  1       -2 0.43492393E-01 0.12350934E+04</pdfrwt>
<totfact> 0.36231576E+01</totfact>
</mgrwt>
</event>
<event>
12    4  0.4320235E-008  0.1063436E+04  0.7818608E-02  0.9241581E-01
          1   -1    0    0  501    0  0.00000000000E+00  0.00000000000E+00  0.26730261907E+03  0.26730261907E+03  0.00000000000E+00 0. -1.
         -2   -1    0    0    0  501 -0.00000000000E+00 -0.00000000000E+00 -0.10576919902E+04  0.10576919902E+04  0.00000000000E+00 0.  1.
        -24    2    1    2    0    0 -0.83134839463E+02 -0.77236016374E+02 -0.13908636250E+02  0.13594349590E+03  0.73555286401E+02 0.  0.
        254    2    1    2    0    0  0.83134839463E+02  0.77236016374E+02 -0.77648073488E+03  0.11890511134E+04  0.89333275704E+03 0.  0.
         23    2    4    4    0    0  0.47585677735E+03  0.10933923162E+03 -0.40879207039E+03  0.64300412947E+03  0.89154997478E+02 0.  0.
         23    2    4    4    0    0 -0.39272193788E+03 -0.32103215245E+02 -0.36768866449E+03  0.54604698390E+03  0.87813539429E+02 0.  0.
          3    1    3    3  502    0 -0.84682021196E+01 -0.49679004324E+02  0.12793495035E+02  0.51994109599E+02  0.00000000000E+00 0. -1.
         -4    1    3    3    0  502 -0.74666637344E+02 -0.27557012050E+02 -0.26702131285E+02  0.83949386302E+02  0.00000000000E+00 0.  1.
         11    1    5    5    0    0  0.35838012995E+03  0.46910033114E+02 -0.27342728090E+03  0.45321004699E+03  0.00000000000E+00 0.  1.
        -11    1    5    5    0    0  0.11747664740E+03  0.62429198506E+02 -0.13536478949E+03  0.18979408248E+03  0.00000000000E+00 0. -1.
          3    1    6    6  503    0 -0.19581299888E+03 -0.43195172013E+02 -0.23205107996E+03  0.30668592587E+03  0.00000000000E+00 0. -1.
         -3    1    6    6    0  503 -0.19690893900E+03  0.11091956768E+02 -0.13563758453E+03  0.23936105803E+03  0.00000000000E+00 0.  1.
<mgrwt>
<rscale>  0 0.10634356E+04</rscale>
<asrwt>0</asrwt>
<pdfrwt beam="1">  1        1 0.41123480E-01 0.10634356E+04</pdfrwt>
<pdfrwt beam="2">  1       -2 0.16272184E+00 0.10634356E+04</pdfrwt>
<totfact> 0.21334614E+01</totfact>
</mgrwt>
</event>
<event>
12    4  0.4320235E-008  0.2113665E+04  0.7818608E-02  0.8555248E-01
          1   -1    0    0  501    0  0.00000000000E+00  0.00000000000E+00  0.31273807484E+04  0.31273807484E+04  0.00000000000E+00 0. -1.
         -2   -1    0    0    0  501 -0.00000000000E+00 -0.00000000000E+00 -0.35713417681E+03  0.35713417681E+03  0.00000000000E+00 0.  1.
        -24    2    1    2    0    0 -0.53290851101E+03 -0.28449272794E+03  0.21599968975E+04  0.22444028536E+04  0.82643685561E+02 0.  0.
        254    2    1    2    0    0  0.53290851101E+03  0.28449272794E+03  0.61024967403E+03  0.12401120715E+04  0.89473219008E+03 0.  0.
         23    2    4    4    0    0 -0.96964628513E+02  0.40682355143E+03  0.29800814950E+03  0.52090414158E+03  0.87319679210E+02 0.  0.
         23    2    4    4    0    0  0.62987313952E+03 -0.12233082348E+03  0.31224152454E+03  0.71920792996E+03  0.89779032081E+02 0.  0.
          1    1    3    3  502    0 -0.34564715555E+03 -0.14606784293E+03  0.12523749417E+04  0.13073831747E+04  0.00000000000E+00 0. -1.
         -2    1    3    3    0  502 -0.18726135546E+03 -0.13842488501E+03  0.90762195581E+03  0.93701967893E+03  0.00000000000E+00 0.  1.
         11    1    5    5    0    0 -0.27850304702E+02  0.26605611985E+03  0.21665120166E+03  0.34423718794E+03  0.00000000000E+00 0. -1.
        -11    1    5    5    0    0 -0.69114323812E+02  0.14076743158E+03  0.81356947836E+02  0.17666695365E+03  0.00000000000E+00 0.  1.
          1    1    6    6  503    0  0.16820095932E+03 -0.63603064703E+02  0.58286296635E+02  0.18903493045E+03  0.00000000000E+00 0. -1.
         -1    1    6    6    0  503  0.46167218020E+03 -0.58727758778E+02  0.25395522790E+03  0.53017299950E+03  0.00000000000E+00 0.  1.
<mgrwt>
<rscale>  0 0.21136646E+04</rscale>
<asrwt>0</asrwt>
<pdfrwt beam="1">  1        1 0.48113548E+00 0.21136646E+04</pdfrwt>
<pdfrwt beam="2">  1       -2 0.54943722E-01 0.21136646E+04</pdfrwt>
<totfact> 0.12133159E+00</totfact>
</mgrwt>
</event>
<event>
12    4  0.4320235E-008  0.1362505E+04  0.7818608E-02  0.8981415E-01
         -2   -1    0    0    0  501 -0.00000000000E+00  0.00000000000E+00  0.68079169730E+03  0.68079169730E+03  0.00000000000E+00 0.  1.
          1   -1    0    0  501    0  0.00000000000E+00 -0.00000000000E+00 -0.68171382050E+03  0.68171382050E+03  0.00000000000E+00 0. -1.
        -24    2    1    2    0    0 -0.23975211520E+03 -0.24229570032E+03 -0.18794223307E+03  0.39749959420E+03  0.80593804241E+02 0.  0.
        254    2    1    2    0    0  0.23975211520E+03  0.24229570032E+03  0.18702010987E+03  0.96500592361E+03  0.88321663705E+03 0.  0.
         23    2    4    4    0    0  0.15976983865E+03  0.54167825267E+03 -0.34470271343E+02  0.57306492509E+03  0.90958660969E+02 0.  0.
         23    2    4    4    0    0  0.79982276552E+02 -0.29938255235E+03  0.22149038122E+03  0.39194099852E+03  0.92372507451E+02 0.  0.
          3    1    3    3  502    0 -0.20512230458E+03 -0.20698955517E+03 -0.19020887353E+03  0.34799317716E+03  0.00000000000E+00 0. -1.
         -4    1    3    3    0  502 -0.34629810623E+02 -0.35306145146E+02  0.22666404521E+01  0.49506417037E+02  0.00000000000E+00 0.  1.
         11    1    5    5    0    0  0.15864299654E+03  0.40026358738E+03 -0.29280947666E+02  0.43155059220E+03  0.00000000000E+00 0.  1.
        -11    1    5    5    0    0  0.11268421037E+01  0.14141466530E+03 -0.51893236774E+01  0.14151433289E+03  0.00000000000E+00 0. -1.
          1    1    6    6  503    0  0.14600439341E+02 -0.36673934142E+01 -0.24904062007E+01  0.15258595167E+02  0.00000000000E+00 0. -1.
         -1    1    6    6    0  503  0.65381837211E+02 -0.29571515894E+03  0.22398078742E+03  0.37668240335E+03  0.00000000000E+00 0.  1.
<mgrwt>
<rscale>  0 0.13625052E+04</rscale>
<asrwt>0</asrwt>
<pdfrwt beam="1">  1        1 0.10487905E+00 0.13625052E+04</pdfrwt>
<pdfrwt beam="2">  1       -2 0.10473718E+00 0.13625052E+04</pdfrwt>
<totfact> 0.17956705E+01</totfact>
</mgrwt>
</event>
<event>
12    4  0.4320235E-008  0.1684215E+04  0.7818608E-02  0.8770419E-01
         -4   -1    0    0    0  501 -0.00000000000E+00  0.00000000000E+00  0.14386310833E+04  0.14386310833E+04  0.00000000000E+00 0.  1.
          3   -1    0    0  501    0  0.00000000000E+00 -0.00000000000E+00 -0.49293043305E+03  0.49293043305E+03  0.00000000000E+00 0. -1.
        -24    2    1    2    0    0  0.22730680987E+03  0.71944805042E+02  0.96986396416E+03  0.10020005115E+04  0.80774224697E+02 0.  0.
        254    2    1    2    0    0 -0.22730680987E+03 -0.71944805042E+02 -0.24163313906E+02  0.92956100481E+03  0.89813994185E+03 0.  0.
         23    2    4    4    0    0  0.24935770716E+03 -0.72668796707E+02 -0.27024340385E+03  0.38534030146E+03  0.89418289335E+02 0.  0.
         23    2    4    4    0    0 -0.47666451703E+03  0.72399166477E+00  0.24608008995E+03  0.54422070335E+03  0.91712470997E+02 0.  0.
          3    1    3    3  502    0  0.60572366630E+02  0.11943775686E+02  0.13370046323E+03  0.14726669428E+03  0.00000000000E+00 0. -1.
         -4    1    3    3    0  502  0.16673444324E+03  0.60001029356E+02  0.83616350093E+03  0.85473381726E+03  0.00000000000E+00 0.  1.
         11    1    5    5    0    0  0.19572038505E+03 -0.76386445504E+02 -0.25303158146E+03  0.32888651447E+03  0.00000000000E+00 0. -1.
        -11    1    5    5    0    0  0.53637322106E+02  0.37176487972E+01 -0.17211822387E+02  0.56453786987E+02  0.00000000000E+00 0.  1.
          3    1    6    6  503    0 -0.18622836699E+03 -0.60410131086E-01  0.14731320372E+03  0.23744933841E+03  0.00000000000E+00 0. -1.
         -3    1    6    6    0  503 -0.29043615004E+03  0.78440179585E+00  0.98766886222E+02  0.30677136494E+03  0.00000000000E+00 0.  1.
<mgrwt>
<rscale>  0 0.16842150E+04</rscale>
<asrwt>0</asrwt>
<pdfrwt beam="1">  1        3 0.75835452E-01 0.16842150E+04</pdfrwt>
<pdfrwt beam="2">  1       -4 0.22132786E+00 0.16842150E+04</pdfrwt>
<totfact> 0.34147936E-01</totfact>
</mgrwt>
</event>
<event>
12    4  0.4320235E-008  0.1324656E+04  0.7818608E-02  0.9010238E-01
         -2   -1    0    0    0  501 -0.00000000000E+00  0.00000000000E+00  0.25836247766E+03  0.25836247766E+03  0.00000000000E+00 0.  1.
          1   -1    0    0  501    0  0.00000000000E+00 -0.00000000000E+00 -0.16979180996E+04  0.16979180996E+04  0.00000000000E+00 0. -1.
        -24    2    1    2    0    0  0.18531589722E+03  0.30534007264E+03 -0.48233836998E+03  0.60558902783E+03  0.80704558413E+02 0.  0.
        254    2    1    2    0    0 -0.18531589722E+03 -0.30534007264E+03 -0.95721725191E+03  0.13506915494E+04  0.88347510011E+03 0.  0.
         23    2    4    4    0    0  0.25406181466E+03  0.10663185160E+03 -0.53880326564E+03  0.61196095065E+03  0.90936728618E+02 0.  0.
         23    2    4    4    0    0 -0.43937771188E+03 -0.41197192424E+03 -0.41841398627E+03  0.73873059874E+03  0.88763694997E+02 0.  0.
          3    1    3    3  502    0  0.77989868395E+02  0.79886981005E+02 -0.19689789355E+03  0.22634736533E+03  0.00000000000E+00 0. -1.
         -4    1    3    3    0  502  0.10732602883E+03  0.22545309164E+03 -0.28544047642E+03  0.37924166250E+03  0.00000000000E+00 0.  1.
         11    1    5    5    0    0  0.74367437186E+01  0.13612480968E+02 -0.44553092707E+01  0.16138605143E+02  0.00000000000E+00 0.  1.
        -11    1    5    5    0    0  0.24662507094E+03  0.93019370634E+02 -0.53434795637E+03  0.59582234550E+03  0.00000000000E+00 0. -1.
          1    1    6    6  503    0 -0.16920227075E+03 -0.10202505706E+03 -0.14065407638E+03  0.24253265738E+03  0.00000000000E+00 0. -1.
         -1    1    6    6    0  503 -0.27017544113E+03 -0.30994686719E+03 -0.27775990989E+03  0.49619794136E+03  0.00000000000E+00 0.  1.
<mgrwt>
<rscale>  0 0.13246559E+04</rscale>
<asrwt>0</asrwt>
<pdfrwt beam="1">  1        1 0.26121816E+00 0.13246559E+04</pdfrwt>
<pdfrwt beam="2">  1       -2 0.39748074E-01 0.13246559E+04</pdfrwt>
<totfact> 0.24649780E+01</totfact>
</mgrwt>
</event>
<event>
12    4  0.4320235E-008  0.1503979E+04  0.7818608E-02  0.8881811E-01
         -2   -1    0    0    0  501 -0.00000000000E+00  0.00000000000E+00  0.58589520401E+03  0.58589520401E+03  0.00000000000E+00 0.  1.
          1   -1    0    0  501    0  0.00000000000E+00 -0.00000000000E+00 -0.96517009426E+03  0.96517009426E+03  0.00000000000E+00 0. -1.
        -24    2    1    2    0    0  0.24752755429E+03 -0.50189471332E+02 -0.47820086216E+03  0.54672526695E+03  0.80271911593E+02 0.  0.
        254    2    1    2    0    0 -0.24752755429E+03  0.50189471332E+02  0.98925971912E+02  0.10043400313E+04  0.96701793025E+03 0.  0.
         23    2    4    4    0    0 -0.90960166370E+02 -0.36423046674E+03 -0.22334703202E+03  0.44782469863E+03  0.98617844321E+02 0.  0.
         23    2    4    4    0    0 -0.15656738792E+03  0.41441993808E+03  0.32227300394E+03  0.55651533269E+03  0.97939748913E+02 0.  0.
          1    1    3    3  502    0  0.25328171900E+03 -0.45177222751E+02 -0.46681590734E+03  0.53301941989E+03  0.00000000000E+00 0. -1.
         -2    1    3    3    0  502 -0.57541647156E+01 -0.50122485809E+01 -0.11384954815E+02  0.13705847057E+02  0.00000000000E+00 0.  1.
         11    1    5    5    0    0  0.55079080655E+01 -0.76139508101E+02 -0.10927695994E+02  0.77116640778E+02  0.00000000000E+00 0. -1.
        -11    1    5    5    0    0 -0.96468074435E+02 -0.28809095864E+03 -0.21241933603E+03  0.37070805785E+03  0.00000000000E+00 0.  1.
          1    1    6    6  503    0 -0.11902076782E+03  0.17771818794E+03  0.15921054808E+03  0.26664151237E+03  0.00000000000E+00 0. -1.
         -1    1    6    6    0  503 -0.37546620097E+02  0.23670175014E+03  0.16306245585E+03  0.28987382032E+03  0.00000000000E+00 0.  1.
<mgrwt>
<rscale>  0 0.15039794E+04</rscale>
<asrwt>0</asrwt>
<pdfrwt beam="1">  1        1 0.14848771E+00 0.15039794E+04</pdfrwt>
<pdfrwt beam="2">  1       -2 0.90137724E-01 0.15039794E+04</pdfrwt>
<totfact> 0.14389902E+01</totfact>
</mgrwt>
</event>
<event>
12    4  0.4320235E-008  0.2161936E+04  0.7818608E-02  0.8534440E-01
          1   -1    0    0  501    0  0.00000000000E+00  0.00000000000E+00  0.11426791393E+04  0.11426791393E+04  0.00000000000E+00 0. -1.
         -2   -1    0    0    0  501 -0.00000000000E+00 -0.00000000000E+00 -0.10225899173E+04  0.10225899173E+04  0.00000000000E+00 0.  1.
        -24    2    1    2    0    0  0.29844046838E+03 -0.60594494795E+03  0.63137946982E+03  0.92812725769E+03  0.80896096556E+02 0.  0.
        254    2    1    2    0    0 -0.29844046838E+03  0.60594494795E+03 -0.51129024779E+03  0.12371417989E+04  0.90159088277E+03 0.  0.
         23    2    4    4    0    0  0.29521042744E+03  0.13184337517E+03 -0.28157936464E+03  0.43821765070E+03  0.90641595024E+02 0.  0.
         23    2    4    4    0    0 -0.59365089582E+03  0.47410157278E+03 -0.22971088315E+03  0.79892414816E+03  0.91208646784E+02 0.  0.
          1    1    3    3  502    0  0.24995151233E+03 -0.50468185454E+03  0.48217267160E+03  0.74139734155E+03  0.00000000000E+00 0. -1.
         -2    1    3    3    0  502  0.48488956050E+02 -0.10126309341E+03  0.14920679822E+03  0.18672991614E+03  0.00000000000E+00 0.  1.
         11    1    5    5    0    0  0.76711425775E+02 -0.28361461569E+01 -0.44061557058E+02  0.88510493049E+02  0.00000000000E+00 0. -1.
        -11    1    5    5    0    0  0.21849900167E+03  0.13467952133E+03 -0.23751780758E+03  0.34970715766E+03  0.00000000000E+00 0.  1.
          1    1    6    6  503    0 -0.20967992891E+03  0.19373299900E+03 -0.45668042630E+02  0.28910848761E+03  0.00000000000E+00 0. -1.
         -1    1    6    6    0  503 -0.38397096691E+03  0.28036857378E+03 -0.18404284052E+03  0.50981566055E+03  0.00000000000E+00 0.  1.
<mgrwt>
<rscale>  0 0.21619363E+04</rscale>
<asrwt>0</asrwt>
<pdfrwt beam="1">  1        1 0.17579679E+00 0.21619363E+04</pdfrwt>
<pdfrwt beam="2">  1       -2 0.15732153E+00 0.21619363E+04</pdfrwt>
<totfact> 0.24922809E+00</totfact>
</mgrwt>
</event>
<event>
12    4  0.4320235E-008  0.2893548E+04  0.7818608E-02  0.8274800E-01
          1   -1    0    0  501    0  0.00000000000E+00  0.00000000000E+00  0.23764004204E+04  0.23764004204E+04  0.00000000000E+00 0. -1.
         -2   -1    0    0    0  501 -0.00000000000E+00 -0.00000000000E+00 -0.88080912126E+03  0.88080912126E+03  0.00000000000E+00 0.  1.
        -24    2    1    2    0    0 -0.37075159850E+03 -0.12331700123E+03 -0.72614580182E+03  0.83114061847E+03  0.10413055067E+03 0.  0.
        254    2    1    2    0    0  0.37075159850E+03  0.12331700123E+03  0.22217371009E+04  0.24260689232E+04  0.89276583925E+03 0.  0.
         23    2    4    4    0    0  0.11465527476E+03 -0.62238934274E+02 -0.20836128795E+02  0.15952610597E+03  0.89414301166E+02 0.  0.
         23    2    4    4    0    0  0.25609632373E+03  0.18555593551E+03  0.22425732297E+04  0.22665428172E+04  0.89807122532E+02 0.  0.
          1    1    3    3  502    0 -0.71714118392E+02 -0.47104433384E+02 -0.91445571927E+02  0.12539551446E+03  0.00000000000E+00 0. -1.
         -2    1    3    3    0  502 -0.29903748011E+03 -0.76212567850E+02 -0.63470022989E+03  0.70574510401E+03  0.00000000000E+00 0.  1.
         11    1    5    5    0    0  0.49834489772E+02 -0.39109768786E+02  0.33663091312E+02  0.71737396816E+02  0.00000000000E+00 0.  1.
        -11    1    5    5    0    0  0.64820784993E+02 -0.23129165488E+02 -0.54499220107E+02  0.87788709158E+02  0.00000000000E+00 0. -1.
          3    1    6    6  503    0  0.24377167799E+03  0.19418189321E+03  0.20720552827E+04  0.20953625780E+04  0.00000000000E+00 0. -1.
         -3    1    6    6    0  503  0.12324645745E+02 -0.86259576983E+01  0.17051794704E+03  0.17118023923E+03  0.00000000000E+00 0.  1.
<mgrwt>
<rscale>  0 0.28935481E+04</rscale>
<asrwt>0</asrwt>
<pdfrwt beam="1">  1        1 0.36560006E+00 0.28935481E+04</pdfrwt>
<pdfrwt beam="2">  1       -2 0.13550910E+00 0.28935481E+04</pdfrwt>
<totfact> 0.48667340E-01</totfact>
</mgrwt>
</event>
<event>
12    4  0.4320235E-008  0.1932588E+04  0.7818608E-02  0.8638803E-01
         -2   -1    0    0    0  501 -0.00000000000E+00  0.00000000000E+00  0.98994544901E+03  0.98994544901E+03  0.00000000000E+00 0.  1.
          1   -1    0    0  501    0  0.00000000000E+00 -0.00000000000E+00 -0.94320769971E+03  0.94320769971E+03  0.00000000000E+00 0. -1.
        -24    2    1    2    0    0  0.36287645981E+02  0.75732259060E+03 -0.19875023489E+02  0.76264423462E+03  0.79855573084E+02 0.  0.
        254    2    1    2    0    0 -0.36287645981E+02 -0.75732259060E+03  0.66612772787E+02  0.11705089141E+04  0.88926911392E+03 0.  0.
         23    2    4    4    0    0  0.36588060751E+02  0.16252906006E+03 -0.11992745291E+03  0.22458790414E+03  0.91119433553E+02 0.  0.
         23    2    4    4    0    0 -0.72875706732E+02 -0.91985165066E+03  0.18654022569E+03  0.94592100995E+03  0.92365434084E+02 0.  0.
          1    1    3    3  502    0  0.26397648042E+02  0.70449535461E+02  0.33518571202E+01  0.75307422045E+02  0.00000000000E+00 0. -1.
         -2    1    3    3    0  502  0.98899979389E+01  0.68687305514E+03 -0.23226880609E+02  0.68733681258E+03  0.00000000000E+00 0.  1.
         11    1    5    5    0    0  0.18928960127E+02 -0.33972905563E+01 -0.23065206914E+00  0.19232792699E+02  0.00000000000E+00 0.  1.
        -11    1    5    5    0    0  0.17659100624E+02  0.16592635061E+03 -0.11969680084E+03  0.20535511144E+03  0.00000000000E+00 0. -1.
          2    1    6    6  503    0 -0.20265059354E+02 -0.67989458841E+03  0.16059596809E+03  0.69889798179E+03  0.00000000000E+00 0. -1.
         -2    1    6    6    0  503 -0.52610647378E+02 -0.23995706225E+03  0.25944257606E+02  0.24702302817E+03  0.00000000000E+00 0.  1.
<mgrwt>
<rscale>  0 0.19325881E+04</rscale>
<asrwt>0</asrwt>
<pdfrwt beam="1">  1        1 0.14510888E+00 0.19325881E+04</pdfrwt>
<pdfrwt beam="2">  1       -2 0.15229930E+00 0.19325881E+04</pdfrwt>
<totfact> 0.39486705E+00</totfact>
</mgrwt>
</event>
<event>
12    4  0.4320235E-008  0.1197011E+04  0.7818608E-02  0.9115477E-01
          1   -1    0    0  501    0  0.00000000000E+00  0.00000000000E+00  0.27211288801E+03  0.27211288801E+03  0.00000000000E+00 0. -1.
         -2   -1    0    0    0  501 -0.00000000000E+00 -0.00000000000E+00 -0.13163986484E+04  0.13163986484E+04  0.00000000000E+00 0.  1.
        -24    2    1    2    0    0  0.17524063632E+03  0.46229865224E+02 -0.38863561622E+01  0.19850737844E+03  0.80892487124E+02 0.  0.
        254    2    1    2    0    0 -0.17524063632E+03 -0.46229865224E+02 -0.10403994043E+04  0.13900041580E+04  0.90378877944E+03 0.  0.
         23    2    4    4    0    0  0.28915566922E+03  0.21962432077E+03 -0.48982317063E+03  0.61662966016E+03  0.91975844548E+02 0.  0.
         23    2    4    4    0    0 -0.46439630555E+03 -0.26585418600E+03 -0.55057623363E+03  0.77337449785E+03  0.92906125043E+02 0.  0.
          3    1    3    3  502    0  0.17233803649E+03  0.32040907658E+02  0.13581343073E+02  0.17581658473E+03  0.00000000000E+00 0. -1.
         -4    1    3    3    0  502  0.29025998272E+01  0.14188957566E+02 -0.17467699235E+02  0.22690793708E+02  0.00000000000E+00 0.  1.
         11    1    5    5    0    0  0.16258753446E+03  0.17392338222E+03 -0.28226004254E+03  0.36926248233E+03  0.00000000000E+00 0. -1.
        -11    1    5    5    0    0  0.12656813477E+03  0.45700938557E+02 -0.20756312809E+03  0.24736717782E+03  0.00000000000E+00 0.  1.
          3    1    6    6  503    0 -0.39882517852E+03 -0.25389084296E+03 -0.50958460427E+03  0.69512484639E+03  0.00000000000E+00 0. -1.
         -3    1    6    6    0  503 -0.65571127030E+02 -0.11963343040E+02 -0.40991629363E+02  0.78249651466E+02  0.00000000000E+00 0.  1.
<mgrwt>
<rscale>  0 0.11970113E+04</rscale>
<asrwt>0</asrwt>
<pdfrwt beam="1">  1        1 0.41863522E-01 0.11970113E+04</pdfrwt>
<pdfrwt beam="2">  1       -2 0.20252286E+00 0.11970113E+04</pdfrwt>
<totfact> 0.11006172E+01</totfact>
</mgrwt>
</event>
<event>
12    4  0.4320235E-008  0.1321689E+04  0.7818608E-02  0.9012540E-01
         -2   -1    0    0    0  501 -0.00000000000E+00  0.00000000000E+00  0.21074515063E+04  0.21074515063E+04  0.00000000000E+00 0.  1.
          1   -1    0    0  501    0  0.00000000000E+00 -0.00000000000E+00 -0.20722436970E+03  0.20722436970E+03  0.00000000000E+00 0. -1.
        -24    2    1    2    0    0 -0.53976694622E+02 -0.32027907370E+03  0.29470828409E+03  0.44544084625E+03  0.77925645264E+02 0.  0.
        254    2    1    2    0    0  0.53976694622E+02  0.32027907370E+03  0.16055188525E+04  0.18692350297E+04  0.90047578646E+03 0.  0.
         23    2    4    4    0    0 -0.20225472704E+03 -0.22409735282E+03  0.79966104575E+03  0.85945043284E+03  0.89836853642E+02 0.  0.
         23    2    4    4    0    0  0.25623142166E+03  0.54437642652E+03  0.80585780677E+03  0.10097845969E+04  0.90872945416E+02 0.  0.
          3    1    3    3  502    0 -0.77050161740E+01 -0.19982563500E+03  0.14065143786E+03  0.24448410715E+03  0.00000000000E+00 0. -1.
         -4    1    3    3    0  502 -0.46271678448E+02 -0.12045343870E+03  0.15405684623E+03  0.20095673910E+03  0.00000000000E+00 0.  1.
         11    1    5    5    0    0 -0.12970415568E+03 -0.18596681571E+03  0.65569757039E+03  0.69379112733E+03  0.00000000000E+00 0. -1.
        -11    1    5    5    0    0 -0.72550571361E+02 -0.38130537108E+02  0.14396347535E+03  0.16565930551E+03  0.00000000000E+00 0.  1.
          3    1    6    6  503    0  0.95609463427E+02  0.30925853437E+03  0.42275443063E+03  0.53245029739E+03  0.00000000000E+00 0. -1.
         -3    1    6    6    0  503  0.16062195823E+03  0.23511789215E+03  0.38310337614E+03  0.47733429951E+03  0.00000000000E+00 0.  1.
<mgrwt>
<rscale>  0 0.13216888E+04</rscale>
<asrwt>0</asrwt>
<pdfrwt beam="1">  1        1 0.31880674E-01 0.13216888E+04</pdfrwt>
<pdfrwt beam="2">  1       -2 0.32422329E+00 0.13216888E+04</pdfrwt>
<totfact> 0.27620512E+00</totfact>
</mgrwt>
</event>
<event>
12    4  0.4320235E-008  0.2147417E+04  0.7818608E-02  0.8540639E-01
         -2   -1    0    0    0  501 -0.00000000000E+00  0.00000000000E+00  0.11288568568E+04  0.11288568568E+04  0.00000000000E+00 0.  1.
          1   -1    0    0  501    0  0.00000000000E+00 -0.00000000000E+00 -0.10212540274E+04  0.10212540274E+04  0.00000000000E+00 0. -1.
        -24    2    1    2    0    0 -0.39643118681E+02  0.41434676518E+03 -0.69778380939E+03  0.81634429176E+03  0.79126097943E+02 0.  0.
        254    2    1    2    0    0  0.39643118681E+02 -0.41434676518E+03  0.80538663872E+03  0.13337665924E+04  0.97827954416E+03 0.  0.
         23    2    4    4    0    0  0.10513609207E+03  0.15775721923E+03 -0.11664938387E+03  0.24239079608E+03  0.95944156619E+02 0.  0.
         23    2    4    4    0    0 -0.65492973391E+02 -0.57210398442E+03  0.92203602258E+03  0.10913757963E+04  0.96738840839E+02 0.  0.
          1    1    3    3  502    0 -0.40582037316E+02  0.16783766333E+03 -0.23026340921E+03  0.28781525430E+03  0.00000000000E+00 0. -1.
         -2    1    3    3    0  502  0.93891863419E+00  0.24650910185E+03 -0.46752040017E+03  0.52852903746E+03  0.00000000000E+00 0.  1.
         11    1    5    5    0    0  0.63959041744E+02  0.12806196729E+03 -0.36852258030E+02  0.14781310974E+03  0.00000000000E+00 0. -1.
        -11    1    5    5    0    0  0.41177050329E+02  0.29695251938E+02 -0.79797125837E+02  0.94577686339E+02  0.00000000000E+00 0.  1.
          1    1    6    6  503    0 -0.77501005605E+02 -0.25619127590E+03  0.41210470044E+03  0.49139664207E+03  0.00000000000E+00 0. -1.
         -1    1    6    6    0  503  0.12008032214E+02 -0.31591270851E+03  0.50993132215E+03  0.59997915426E+03  0.00000000000E+00 0.  1.
<mgrwt>
<rscale>  0 0.21474167E+04</rscale>
<asrwt>0</asrwt>
<pdfrwt beam="1">  1        1 0.15711600E+00 0.21474167E+04</pdfrwt>
<pdfrwt beam="2">  1       -2 0.17367029E+00 0.21474167E+04</pdfrwt>
<totfact> 0.23478777E+00</totfact>
</mgrwt>
</event>
<event>
12    4  0.4320235E-008  0.1623278E+04  0.7818608E-02  0.8806374E-01
          1   -1    0    0  501    0  0.00000000000E+00  0.00000000000E+00  0.10433142187E+04  0.10433142187E+04  0.00000000000E+00 0. -1.
         -2   -1    0    0    0  501 -0.00000000000E+00 -0.00000000000E+00 -0.63140889539E+03  0.63140889539E+03  0.00000000000E+00 0.  1.
        -24    2    1    2    0    0  0.34199328300E+03  0.44053223313E+03  0.16154496789E+03  0.58675482468E+03  0.84595470218E+02 0.  0.
        254    2    1    2    0    0 -0.34199328300E+03 -0.44053223313E+03  0.25036035543E+03  0.10879682894E+04  0.89998146491E+03 0.  0.
         23    2    4    4    0    0  0.60880856655E+02 -0.53066585685E+03  0.36071719596E+03  0.65123663392E+03  0.93163982078E+02 0.  0.
         23    2    4    4    0    0 -0.40287413966E+03  0.90133623715E+02 -0.11035684053E+03  0.43673165551E+03  0.90134699999E+02 0.  0.
          3    1    3    3  502    0  0.96923281289E+02  0.19155543934E+03  0.57955609633E+02  0.22236560319E+03  0.00000000000E+00 0. -1.
         -4    1    3    3    0  502  0.24507000171E+03  0.24897679380E+03  0.10358935826E+03  0.36438922149E+03  0.00000000000E+00 0.  1.
         11    1    5    5    0    0 -0.23028937103E+01 -0.43552345798E+02  0.32423846970E+01  0.43733547792E+02  0.00000000000E+00 0. -1.
        -11    1    5    5    0    0  0.63183750365E+02 -0.48711351105E+03  0.35747481127E+03  0.60750308612E+03  0.00000000000E+00 0.  1.
          3    1    6    6  503    0 -0.30301103264E+03  0.90554966164E+02 -0.50378433841E+02  0.32024033848E+03  0.00000000000E+00 0. -1.
         -3    1    6    6    0  503 -0.99863107023E+02 -0.42134244846E+00 -0.59978406690E+02  0.11649131703E+03  0.00000000000E+00 0.  1.
<mgrwt>
<rscale>  0 0.16232780E+04</rscale>
<asrwt>0</asrwt>
<pdfrwt beam="1">  1        1 0.16050988E+00 0.16232780E+04</pdfrwt>
<pdfrwt beam="2">  1       -2 0.97139830E-01 0.16232780E+04</pdfrwt>
<totfact> 0.10401539E+01</totfact>
</mgrwt>
</event>
<event>
12    4  0.4320235E-008  0.1478061E+04  0.7818608E-02  0.8899174E-01
          1   -1    0    0  501    0  0.00000000000E+00  0.00000000000E+00  0.36937173871E+04  0.36937173871E+04  0.00000000000E+00 0. -1.
         -2   -1    0    0    0  501 -0.00000000000E+00 -0.00000000000E+00 -0.14786359348E+03  0.14786359348E+03  0.00000000000E+00 0.  1.
        -24    2    1    2    0    0  0.40778042143E+02 -0.34130158568E+03  0.19018380341E+04  0.19343047748E+04  0.79983951286E+02 0.  0.
        254    2    1    2    0    0 -0.40778042143E+02  0.34130158568E+03  0.16440157594E+04  0.19072762058E+04  0.90375056667E+03 0.  0.
         23    2    4    4    0    0 -0.40733563339E+02 -0.50445738770E+02 -0.79528649241E+02  0.13754362195E+03  0.91593919820E+02 0.  0.
         23    2    4    4    0    0 -0.44478803958E-01  0.39174732445E+03  0.17235444087E+04  0.17697325838E+04  0.88781312109E+02 0.  0.
          3    1    3    3  502    0 -0.40617539848E-01 -0.27476301613E+03  0.14987365270E+04  0.15237145054E+04  0.00000000000E+00 0. -1.
         -4    1    3    3    0  502  0.40818659682E+02 -0.66538569557E+02  0.40310150712E+03  0.41059026932E+03  0.00000000000E+00 0.  1.
         11    1    5    5    0    0  0.62580934169E+01  0.18068041275E+02  0.42150789109E+01  0.19580212944E+02  0.00000000000E+00 0.  1.
        -11    1    5    5    0    0 -0.46991656756E+02 -0.68513780045E+02 -0.83743728152E+02  0.11796340901E+03  0.00000000000E+00 0. -1.
          1    1    6    6  503    0 -0.36373268354E+02  0.28517396488E+03  0.11644071033E+04  0.11993711299E+04  0.00000000000E+00 0. -1.
         -1    1    6    6    0  503  0.36328789550E+02  0.10657335957E+03  0.55913730534E+03  0.57036145394E+03  0.00000000000E+00 0.  1.
<mgrwt>
<rscale>  0 0.14780613E+04</rscale>
<asrwt>0</asrwt>
<pdfrwt beam="1">  1        1 0.56826414E+00 0.14780613E+04</pdfrwt>
<pdfrwt beam="2">  1       -2 0.22748248E-01 0.14780613E+04</pdfrwt>
<totfact> 0.25654189E+00</totfact>
</mgrwt>
</event>
<event>
12    4  0.4320235E-008  0.1675973E+04  0.7818608E-02  0.8775188E-01
         -2   -1    0    0    0  501 -0.00000000000E+00  0.00000000000E+00  0.33501332454E+03  0.33501332454E+03  0.00000000000E+00 0.  1.
          1   -1    0    0  501    0  0.00000000000E+00 -0.00000000000E+00 -0.20961003178E+04  0.20961003178E+04  0.00000000000E+00 0. -1.
        -24    2    1    2    0    0  0.80646714009E+02  0.87924175389E+02  0.21577045637E+03  0.26033980278E+03  0.83578525791E+02 0.  0.
        254    2    1    2    0    0 -0.80646714009E+02 -0.87924175389E+02 -0.19768574496E+04  0.21707738395E+04  0.88885270614E+03 0.  0.
         23    2    4    4    0    0 -0.31635256922E+03 -0.37958637477E+03 -0.97266750405E+03  0.10949663011E+04  0.93297176320E+02 0.  0.
         23    2    4    4    0    0  0.23570585521E+03  0.29166219939E+03 -0.10041899455E+04  0.10758075384E+04  0.91325375938E+02 0.  0.
          3    1    3    3  502    0 -0.13461855194E+02  0.12798640139E+02  0.80597033861E+01  0.20248099994E+02  0.00000000000E+00 0. -1.
         -4    1    3    3    0  502  0.94108569203E+02  0.75125535250E+02  0.20771075298E+03  0.24009170279E+03  0.00000000000E+00 0.  1.
         11    1    5    5    0    0 -0.15847427908E+03 -0.19901243832E+03 -0.39937809369E+03  0.47352181518E+03  0.00000000000E+00 0. -1.
        -11    1    5    5    0    0 -0.15787829014E+03 -0.18057393645E+03 -0.57328941036E+03  0.62144448590E+03  0.00000000000E+00 0.  1.
          3    1    6    6  503    0  0.14546906937E+03  0.21159663378E+03 -0.78060882065E+03  0.82175696921E+03  0.00000000000E+00 0. -1.
         -3    1    6    6    0  503  0.90236785836E+02  0.80065565604E+02 -0.22358112490E+03  0.25405056923E+03  0.00000000000E+00 0.  1.
<mgrwt>
<rscale>  0 0.16759732E+04</rscale>
<asrwt>0</asrwt>
<pdfrwt beam="1">  1        1 0.32247697E+00 0.16759732E+04</pdfrwt>
<pdfrwt beam="2">  1       -2 0.51540512E-01 0.16759732E+04</pdfrwt>
<totfact> 0.76375013E+00</totfact>
</mgrwt>
</event>
<event>
12    4  0.4320235E-008  0.1633623E+04  0.7818608E-02  0.8800154E-01
         -2   -1    0    0    0  501 -0.00000000000E+00  0.00000000000E+00  0.64624054584E+03  0.64624054584E+03  0.00000000000E+00 0.  1.
          1   -1    0    0  501    0  0.00000000000E+00 -0.00000000000E+00 -0.10324039875E+04  0.10324039875E+04  0.00000000000E+00 0. -1.
        -24    2    1    2    0    0 -0.13751504061E+03  0.27221210249E+03  0.35017529069E+03  0.47111159581E+03  0.79458079300E+02 0.  0.
        254    2    1    2    0    0  0.13751504061E+03 -0.27221210249E+03 -0.73633873230E+03  0.12075329375E+04  0.90715558273E+03 0.  0.
         23    2    4    4    0    0  0.49460368831E+03 -0.24918929154E+03 -0.57967833576E+03  0.80690549585E+03  0.91331236596E+02 0.  0.
         23    2    4    4    0    0 -0.35708864771E+03 -0.23022810954E+02 -0.15666039654E+03  0.40062744163E+03  0.88980419170E+02 0.  0.
          3    1    3    3  502    0 -0.27745184482E+02  0.12415850974E+02  0.17887640549E+02  0.35269197634E+02  0.00000000000E+00 0. -1.
         -4    1    3    3    0  502 -0.10976985613E+03  0.25979625152E+03  0.33228765014E+03  0.43584239818E+03  0.00000000000E+00 0.  1.
         11    1    5    5    0    0  0.28506807048E+03 -0.13090394614E+03 -0.39010412076E+03  0.50058053593E+03  0.00000000000E+00 0. -1.
        -11    1    5    5    0    0  0.20953561784E+03 -0.11828534539E+03 -0.18957421500E+03  0.30632495992E+03  0.00000000000E+00 0.  1.
          3    1    6    6  503    0 -0.15585103403E+02  0.64041626963E-01  0.11401713783E+02  0.19310583279E+02  0.00000000000E+00 0. -1.
         -3    1    6    6    0  503 -0.34150354430E+03 -0.23086852581E+02 -0.16806211033E+03  0.38131685835E+03  0.00000000000E+00 0.  1.
<mgrwt>
<rscale>  0 0.16336234E+04</rscale>
<asrwt>0</asrwt>
<pdfrwt beam="1">  1        1 0.15883138E+00 0.16336234E+04</pdfrwt>
<pdfrwt beam="2">  1       -2 0.99421623E-01 0.16336234E+04</pdfrwt>
<totfact> 0.10031032E+01</totfact>
</mgrwt>
</event>
<event>
12    4  0.4320235E-008  0.2020882E+04  0.7818608E-02  0.8596919E-01
         -2   -1    0    0    0  501 -0.00000000000E+00  0.00000000000E+00  0.81565915794E+03  0.81565915794E+03  0.00000000000E+00 0.  1.
          1   -1    0    0  501    0  0.00000000000E+00 -0.00000000000E+00 -0.12517374910E+04  0.12517374910E+04  0.00000000000E+00 0. -1.
        -24    2    1    2    0    0  0.17804687484E+03 -0.12051106500E+03  0.61935166878E+03  0.66367831019E+03  0.10319303936E+03 0.  0.
        254    2    1    2    0    0 -0.17804687484E+03  0.12051106500E+03 -0.10554300018E+04  0.14037183387E+04  0.90014947608E+03 0.  0.
         23    2    4    4    0    0 -0.42516070835E+03  0.18688342286E+03 -0.10276216887E+04  0.11313473618E+04  0.90848645725E+02 0.  0.
         23    2    4    4    0    0  0.24711383351E+03 -0.66372357856E+02 -0.27808313170E+02  0.27237097691E+03  0.89118517608E+02 0.  0.
          3    1    3    3  502    0 -0.94766513519E+01 -0.18670093091E+02  0.10050448920E+03  0.10266222113E+03  0.00000000000E+00 0. -1.
         -4    1    3    3    0  502  0.18752352619E+03 -0.10184097191E+03  0.51884717958E+03  0.56101608907E+03  0.00000000000E+00 0.  1.
         11    1    5    5    0    0 -0.39920419105E+03  0.17684581030E+03 -0.89482244481E+03  0.99566341427E+03  0.00000000000E+00 0. -1.
        -11    1    5    5    0    0 -0.25956517296E+02  0.10037612554E+02 -0.13279924386E+03  0.13568394756E+03  0.00000000000E+00 0.  1.
          1    1    6    6  503    0  0.17755239202E+03 -0.65586239055E+02 -0.55879703430E+02  0.19735487813E+03  0.00000000000E+00 0. -1.
         -1    1    6    6    0  503  0.69561441491E+02 -0.78611880071E+00  0.28071390260E+02  0.75016098780E+02  0.00000000000E+00 0.  1.
<mgrwt>
<rscale>  0 0.20208821E+04</rscale>
<asrwt>0</asrwt>
<pdfrwt beam="1">  1        1 0.19257500E+00 0.20208821E+04</pdfrwt>
<pdfrwt beam="2">  1       -2 0.12548602E+00 0.20208821E+04</pdfrwt>
<totfact> 0.37797376E+00</totfact>
</mgrwt>
</event>
<event>
12    4  0.4320235E-008  0.3106221E+04  0.7818608E-02  0.8214033E-01
          1   -1    0    0  501    0  0.00000000000E+00  0.00000000000E+00  0.17116731552E+04  0.17116731552E+04  0.00000000000E+00 0. -1.
         -2   -1    0    0    0  501 -0.00000000000E+00 -0.00000000000E+00 -0.14092362926E+04  0.14092362926E+04  0.00000000000E+00 0.  1.
        -24    2    1    2    0    0 -0.64118173292E+03  0.18609229572E+03  0.13999472525E+04  0.15532155903E+04  0.82957839530E+02 0.  0.
        254    2    1    2    0    0  0.64118173292E+03 -0.18609229572E+03 -0.10975103899E+04  0.15676938574E+04  0.89854917374E+03 0.  0.
         23    2    4    4    0    0  0.63909747796E+03 -0.16733121084E+03 -0.24598043098E+03  0.71098931306E+03  0.92488433887E+02 0.  0.
         23    2    4    4    0    0  0.20842549578E+01 -0.18761084885E+02 -0.85152995890E+03  0.85670454439E+03  0.92103653785E+02 0.  0.
          1    1    3    3  502    0 -0.50306836438E+03  0.17477670006E+03  0.10650362408E+04  0.11907673444E+04  0.00000000000E+00 0. -1.
         -2    1    3    3    0  502 -0.13811336854E+03  0.11315595668E+02  0.33491101164E+03  0.36244824595E+03  0.00000000000E+00 0.  1.
         11    1    5    5    0    0  0.97588490636E+02 -0.34875016173E+02 -0.74862768516E+02  0.12784449291E+03  0.00000000000E+00 0.  1.
        -11    1    5    5    0    0  0.54150898733E+03 -0.13245619467E+03 -0.17111766246E+03  0.58314482015E+03  0.00000000000E+00 0. -1.
          3    1    6    6  503    0  0.27056081059E+02 -0.35860016141E+02 -0.73288031964E+03  0.73425576961E+03  0.00000000000E+00 0. -1.
         -3    1    6    6    0  503 -0.24971826102E+02  0.17098931257E+02 -0.11864963926E+03  0.12244877478E+03  0.00000000000E+00 0.  1.
<mgrwt>
<rscale>  0 0.31062208E+04</rscale>
<asrwt>0</asrwt>
<pdfrwt beam="1">  1        1 0.26333433E+00 0.31062208E+04</pdfrwt>
<pdfrwt beam="2">  1       -2 0.21680558E+00 0.31062208E+04</pdfrwt>
<totfact> 0.35915434E-01</totfact>
</mgrwt>
</event>
<event>
12    4  0.4320235E-008  0.1223267E+04  0.7818608E-02  0.9092731E-01
          1   -1    0    0  501    0  0.00000000000E+00  0.00000000000E+00  0.14398216709E+04  0.14398216709E+04  0.00000000000E+00 0. -1.
         -2   -1    0    0    0  501 -0.00000000000E+00 -0.00000000000E+00 -0.25982084827E+03  0.25982084827E+03  0.00000000000E+00 0.  1.
        -24    2    1    2    0    0 -0.74441873040E+02  0.11957936122E+02  0.63671606641E+03  0.64596933251E+03  0.78641239933E+02 0.  0.
        254    2    1    2    0    0  0.74441873040E+02 -0.11957936122E+02  0.54328475618E+03  0.10536731866E+04  0.89965786454E+03 0.  0.
         23    2    4    4    0    0 -0.12441562066E+03 -0.14711899228E+03 -0.18439608905E+03  0.28207131238E+03  0.91864373179E+02 0.  0.
         23    2    4    4    0    0  0.19885749370E+03  0.13516105616E+03  0.72768084523E+03  0.77160187425E+03  0.89650576862E+02 0.  0.
          3    1    3    3  502    0 -0.40516337799E+02 -0.14644067179E+01  0.55499525621E+03  0.55647412567E+03  0.00000000000E+00 0. -1.
         -4    1    3    3    0  502 -0.33925535240E+02  0.13422342839E+02  0.81720810200E+02  0.89495206846E+02  0.00000000000E+00 0.  1.
         11    1    5    5    0    0 -0.10794483898E+03 -0.86643813428E+02 -0.16723376120E+03  0.21708608788E+03  0.00000000000E+00 0. -1.
        -11    1    5    5    0    0 -0.16470781681E+02 -0.60475178850E+02 -0.17162327851E+02  0.64985224501E+02  0.00000000000E+00 0.  1.
          3    1    6    6  503    0  0.12561341105E+03  0.12888966202E+03  0.56756690201E+03  0.59541872852E+03  0.00000000000E+00 0. -1.
         -3    1    6    6    0  503  0.73244082645E+02  0.62713941363E+01  0.16011394321E+03  0.17618314573E+03  0.00000000000E+00 0.  1.
<mgrwt>
<rscale>  0 0.12232672E+04</rscale>
<asrwt>0</asrwt>
<pdfrwt beam="1">  1        1 0.22151102E+00 0.12232672E+04</pdfrwt>
<pdfrwt beam="2">  1       -2 0.39972439E-01 0.12232672E+04</pdfrwt>
<totfact> 0.36982824E+01</totfact>
</mgrwt>
</event>
<event>
12    4  0.4320235E-008  0.1602284E+04  0.7818608E-02  0.8819146E-01
         -2   -1    0    0    0  501 -0.00000000000E+00  0.00000000000E+00  0.35394388510E+03  0.35394388510E+03  0.00000000000E+00 0.  1.
          1   -1    0    0  501    0  0.00000000000E+00 -0.00000000000E+00 -0.18133628571E+04  0.18133628571E+04  0.00000000000E+00 0. -1.
        -24    2    1    2    0    0 -0.43002841742E+03 -0.17695216317E+03 -0.11354325185E+03  0.48532079063E+03  0.80048060166E+02 0.  0.
        254    2    1    2    0    0  0.43002841742E+03  0.17695216317E+03 -0.13458757201E+04  0.16819859516E+04  0.89524230203E+03 0.  0.
         23    2    4    4    0    0  0.47876042605E+03 -0.65129262449E+02 -0.24384036592E+03  0.54889830783E+03  0.91530661011E+02 0.  0.
         23    2    4    4    0    0 -0.48732008629E+02  0.24208142562E+03 -0.11020353542E+04  0.11330876437E+04  0.91801204404E+02 0.  0.
          3    1    3    3  502    0 -0.10132011200E+02 -0.13999616111E+01  0.93986847232E+01  0.13890745768E+02  0.00000000000E+00 0. -1.
         -4    1    3    3    0  502 -0.41989640622E+03 -0.17555220156E+03 -0.12294193657E+03  0.47143004486E+03  0.00000000000E+00 0.  1.
         11    1    5    5    0    0  0.40036658262E+03 -0.34979751319E+02 -0.23207697111E+03  0.46408695737E+03  0.00000000000E+00 0. -1.
        -11    1    5    5    0    0  0.78393843434E+02 -0.30149511130E+02 -0.11763394812E+02  0.84811350463E+02  0.00000000000E+00 0.  1.
          1    1    6    6  503    0 -0.73382681571E+02  0.21191767917E+03 -0.92140344053E+03  0.94830291622E+03  0.00000000000E+00 0. -1.
         -1    1    6    6    0  503  0.24650672942E+02  0.30163746451E+02 -0.18063191368E+03  0.18478472750E+03  0.00000000000E+00 0.  1.
<mgrwt>
<rscale>  0 0.16022842E+04</rscale>
<asrwt>0</asrwt>
<pdfrwt beam="1">  1        1 0.27897890E+00 0.16022842E+04</pdfrwt>
<pdfrwt beam="2">  1       -2 0.54452906E-01 0.16022842E+04</pdfrwt>
<totfact> 0.10666517E+01</totfact>
</mgrwt>
</event>
<event>
12    4  0.4320235E-008  0.1477723E+04  0.7818608E-02  0.8899403E-01
          1   -1    0    0  501    0  0.00000000000E+00  0.00000000000E+00  0.33846636289E+04  0.33846636289E+04  0.00000000000E+00 0. -1.
         -2   -1    0    0    0  501 -0.00000000000E+00 -0.00000000000E+00 -0.16129126294E+03  0.16129126294E+03  0.00000000000E+00 0.  1.
        -24    2    1    2    0    0  0.12567757206E+03  0.10686058364E+03  0.21036564945E+04  0.21116036547E+04  0.79279956065E+02 0.  0.
        254    2    1    2    0    0 -0.12567757206E+03 -0.10686058364E+03  0.11197158716E+04  0.14343512372E+04  0.88112757427E+03 0.  0.
         23    2    4    4    0    0  0.19403753664E+03  0.15028658968E+03  0.94265489549E+03  0.97822833762E+03  0.89976685046E+02 0.  0.
         23    2    4    4    0    0 -0.31971510870E+03 -0.25714717332E+03  0.17706097606E+03  0.45612289956E+03  0.91406185693E+02 0.  0.
          1    1    3    3  502    0  0.11690827258E+03  0.80376163299E+02  0.19680541840E+04  0.19731612055E+04  0.00000000000E+00 0. -1.
         -4    1    3    3    0  502  0.87692994776E+01  0.26484420337E+02  0.13560231051E+03  0.13844244923E+03  0.00000000000E+00 0.  1.
         11    1    5    5    0    0  0.13619183958E+03  0.15101972916E+03  0.74917186353E+03  0.77628194419E+03  0.00000000000E+00 0. -1.
        -11    1    5    5    0    0  0.57845697059E+02 -0.73313947239E+00  0.19348303196E+03  0.20194639343E+03  0.00000000000E+00 0.  1.
          4    1    6    6  503    0 -0.54949577612E+02 -0.90373171246E+02  0.27385549932E+02  0.10925536374E+03  0.00000000000E+00 0. -1.
         -4    1    6    6    0  503 -0.26476553109E+03 -0.16677400207E+03  0.14967542612E+03  0.34686753582E+03  0.00000000000E+00 0.  1.
<mgrwt>
<rscale>  0 0.14777235E+04</rscale>
<asrwt>0</asrwt>
<pdfrwt beam="1">  1        1 0.52071743E+00 0.14777235E+04</pdfrwt>
<pdfrwt beam="2">  1       -2 0.24814043E-01 0.14777235E+04</pdfrwt>
<totfact> 0.38465121E+00</totfact>
</mgrwt>
</event>
<event>
12    4  0.4320235E-008  0.1741332E+04  0.7818608E-02  0.8738136E-01
         -2   -1    0    0    0  501 -0.00000000000E+00  0.00000000000E+00  0.84419670631E+03  0.84419670631E+03  0.00000000000E+00 0.  1.
          1   -1    0    0  501    0  0.00000000000E+00 -0.00000000000E+00 -0.89796495064E+03  0.89796495064E+03  0.00000000000E+00 0. -1.
        -24    2    1    2    0    0  0.26963288966E+03 -0.56173975126E+03  0.38397727290E+02  0.63199941899E+03  0.98465409220E+02 0.  0.
        254    2    1    2    0    0 -0.26963288966E+03  0.56173975126E+03 -0.92165971623E+02  0.11101622380E+04  0.91417295131E+03 0.  0.
         23    2    4    4    0    0 -0.36803804707E+03 -0.12294653585E+03  0.37752880876E+02  0.40001225860E+03  0.89535871304E+02 0.  0.
         23    2    4    4    0    0  0.98405157407E+02  0.68468628712E+03 -0.12991885250E+03  0.71014997935E+03  0.94631908794E+02 0.  0.
          3    1    3    3  502    0  0.15768301443E+03 -0.25613030937E+03 -0.19553470276E+02  0.30141168958E+03  0.00000000000E+00 0. -1.
         -4    1    3    3    0  502  0.11194987524E+03 -0.30560944189E+03  0.57951197567E+02  0.33058772942E+03  0.00000000000E+00 0.  1.
         11    1    5    5    0    0 -0.80348935146E+02 -0.59815627704E+02  0.32913918556E+02  0.10543807060E+03  0.00000000000E+00 0.  1.
        -11    1    5    5    0    0 -0.28768911192E+03 -0.63130908151E+02  0.48389623200E+01  0.29457418801E+03  0.00000000000E+00 0. -1.
          4    1    6    6  503    0  0.19436487307E+01 -0.20388933095E+01 -0.46837507904E+01  0.54655628972E+01  0.00000000000E+00 0. -1.
         -4    1    6    6    0  503  0.96461508677E+02  0.68672518043E+03 -0.12523510171E+03  0.70468441645E+03  0.00000000000E+00 0.  1.
<mgrwt>
<rscale>  0 0.17413317E+04</rscale>
<asrwt>0</asrwt>
<pdfrwt beam="1">  1        1 0.13814845E+00 0.17413317E+04</pdfrwt>
<pdfrwt beam="2">  1       -2 0.12987642E+00 0.17413317E+04</pdfrwt>
<totfact> 0.66077943E+00</totfact>
</mgrwt>
</event>
<event>
12    4  0.4320235E-008  0.1969462E+04  0.7818608E-02  0.8621033E-01
          1   -1    0    0  501    0  0.00000000000E+00  0.00000000000E+00  0.77325760279E+03  0.77325760279E+03  0.00000000000E+00 0. -1.
         -2   -1    0    0    0  501 -0.00000000000E+00 -0.00000000000E+00 -0.12540388129E+04  0.12540388129E+04  0.00000000000E+00 0.  1.
        -24    2    1    2    0    0 -0.43317716131E+03 -0.66176442722E+03 -0.24991825557E+03  0.83326548721E+03  0.79357592615E+02 0.  0.
        254    2    1    2    0    0  0.43317716131E+03  0.66176442722E+03 -0.23086295459E+03  0.11940309285E+04  0.86419763032E+03 0.  0.
         23    2    4    4    0    0  0.59278812802E+02 -0.19263866378E+03  0.25335071310E+02  0.22255446123E+03  0.90911990099E+02 0.  0.
         23    2    4    4    0    0  0.37389834851E+03  0.85440309100E+03 -0.25619802590E+03  0.97147646729E+03  0.91238594384E+02 0.  0.
          3    1    3    3  502    0 -0.86743235771E+02 -0.87406739488E+02 -0.54220339419E+02  0.13455174568E+03  0.00000000000E+00 0. -1.
         -4    1    3    3    0  502 -0.34643392554E+03 -0.57435768773E+03 -0.19569791615E+03  0.69871374153E+03  0.00000000000E+00 0.  1.
         11    1    5    5    0    0  0.54345037224E+01 -0.73455825795E+01 -0.22045941154E+02  0.23864512052E+02  0.00000000000E+00 0.  1.
        -11    1    5    5    0    0  0.53844309080E+02 -0.18529308120E+03  0.47381012464E+02  0.19868994918E+03  0.00000000000E+00 0. -1.
          3    1    6    6  503    0  0.34791155961E+03  0.80819143139E+03 -0.26217351509E+03  0.91812351843E+03  0.00000000000E+00 0. -1.
         -3    1    6    6    0  503  0.25986788896E+02  0.46211659606E+02  0.59754891953E+01  0.53352948858E+02  0.00000000000E+00 0.  1.
<mgrwt>
<rscale>  0 0.19694619E+04</rscale>
<asrwt>0</asrwt>
<pdfrwt beam="1">  1        1 0.11896271E+00 0.19694619E+04</pdfrwt>
<pdfrwt beam="2">  1       -2 0.19292905E+00 0.19694619E+04</pdfrwt>
<totfact> 0.28165505E+00</totfact>
</mgrwt>
</event>
<event>
12    4  0.4320235E-008  0.1228067E+04  0.7818608E-02  0.9088638E-01
         -2   -1    0    0    0  501 -0.00000000000E+00  0.00000000000E+00  0.44337503645E+03  0.44337503645E+03  0.00000000000E+00 0.  1.
          1   -1    0    0  501    0  0.00000000000E+00 -0.00000000000E+00 -0.85037982149E+03  0.85037982149E+03  0.00000000000E+00 0. -1.
        -24    2    1    2    0    0 -0.15476855716E+03 -0.22505172006E+03 -0.76556871856E+02  0.29448580589E+03  0.79116068268E+02 0.  0.
        254    2    1    2    0    0  0.15476855716E+03  0.22505172006E+03 -0.33044791319E+03  0.99926905204E+03  0.90263017458E+03 0.  0.
         23    2    4    4    0    0  0.35632977905E+03  0.54622366140E+02  0.18335275862E+03  0.41437705273E+03  0.90197524425E+02 0.  0.
         23    2    4    4    0    0 -0.20156122190E+03  0.17042935392E+03 -0.51380067181E+03  0.58489199931E+03  0.91839151011E+02 0.  0.
          3    1    3    3  502    0 -0.13796783978E+03 -0.20070067700E+03 -0.92926480720E+02  0.26067454303E+03  0.00000000000E+00 0. -1.
         -4    1    3    3    0  502 -0.16800717379E+02 -0.24351043057E+02  0.16369608864E+02  0.33811262869E+02  0.00000000000E+00 0.  1.
         11    1    5    5    0    0  0.10544465108E+03  0.34039508631E+02  0.99865409235E+02  0.14916555417E+03  0.00000000000E+00 0.  1.
        -11    1    5    5    0    0  0.25088512797E+03  0.20582857509E+02  0.83487349388E+02  0.26521149856E+03  0.00000000000E+00 0. -1.
          1    1    6    6  503    0 -0.14011107556E+03  0.10692408424E+03 -0.24407204876E+03  0.30105653667E+03  0.00000000000E+00 0. -1.
         -1    1    6    6    0  503 -0.61450146336E+02  0.63505269678E+02 -0.26972862305E+03  0.28383546264E+03  0.00000000000E+00 0.  1.
<mgrwt>
<rscale>  0 0.12280671E+04</rscale>
<asrwt>0</asrwt>
<pdfrwt beam="1">  1        1 0.13082767E+00 0.12280671E+04</pdfrwt>
<pdfrwt beam="2">  1       -2 0.68211543E-01 0.12280671E+04</pdfrwt>
<totfact> 0.34075941E+01</totfact>
</mgrwt>
</event>
<event>
12    4  0.4320235E-008  0.1235763E+04  0.7818608E-02  0.9082117E-01
         -2   -1    0    0    0  501 -0.00000000000E+00  0.00000000000E+00  0.83906069394E+03  0.83906069394E+03  0.00000000000E+00 0.  1.
          1   -1    0    0  501    0  0.00000000000E+00 -0.00000000000E+00 -0.45500558113E+03  0.45500558113E+03  0.00000000000E+00 0. -1.
        -24    2    1    2    0    0  0.29139379667E+02 -0.24052340015E+03  0.23192699146E+03  0.34492790711E+03  0.80526531453E+02 0.  0.
        254    2    1    2    0    0 -0.29139379667E+02  0.24052340015E+03  0.15212812135E+03  0.94913836797E+03  0.90499727446E+03 0.  0.
         23    2    4    4    0    0 -0.65640321440E+02 -0.33256326710E+03  0.10242400944E+03  0.36570886412E+03  0.91352707466E+02 0.  0.
         23    2    4    4    0    0  0.36500941773E+02  0.57308666725E+03  0.49704111911E+02  0.58342950385E+03  0.90326299030E+02 0.  0.
          3    1    3    3  502    0  0.32592782946E+02 -0.23152873269E+03  0.18818020858E+03  0.30013269476E+03  0.00000000000E+00 0. -1.
         -4    1    3    3    0  502 -0.34534032788E+01 -0.89946674521E+01  0.43746782879E+02  0.44795212345E+02  0.00000000000E+00 0.  1.
         11    1    5    5    0    0 -0.18018396506E+02 -0.24215080038E+03  0.40363060936E+02  0.24615208597E+03  0.00000000000E+00 0. -1.
        -11    1    5    5    0    0 -0.47621924934E+02 -0.90412466722E+02  0.62060948504E+02  0.11955677815E+03  0.00000000000E+00 0.  1.
          4    1    6    6  503    0  0.18775483548E+02  0.44167807899E+03  0.73516165048E+00  0.44207757770E+03  0.00000000000E+00 0. -1.
         -4    1    6    6    0  503  0.17725458224E+02  0.13140858826E+03  0.48968950260E+02  0.14135192615E+03  0.00000000000E+00 0.  1.
<mgrwt>
<rscale>  0 0.12357626E+04</rscale>
<asrwt>0</asrwt>
<pdfrwt beam="1">  1        1 0.70000859E-01 0.12357626E+04</pdfrwt>
<pdfrwt beam="2">  1       -2 0.12908626E+00 0.12357626E+04</pdfrwt>
<totfact> 0.19233783E+01</totfact>
</mgrwt>
</event>
<event>
12    4  0.4320235E-008  0.1878130E+04  0.7818608E-02  0.8665819E-01
         -2   -1    0    0    0  501 -0.00000000000E+00  0.00000000000E+00  0.17400930824E+04  0.17400930824E+04  0.00000000000E+00 0.  1.
          1   -1    0    0  501    0  0.00000000000E+00 -0.00000000000E+00 -0.50677946777E+03  0.50677946777E+03  0.00000000000E+00 0. -1.
        -24    2    1    2    0    0 -0.56285526150E+03  0.30581548351E+03  0.87226049319E+03  0.10852020857E+04  0.80598036480E+02 0.  0.
        254    2    1    2    0    0  0.56285526150E+03 -0.30581548351E+03  0.36105312146E+03  0.11616704645E+04  0.89932739098E+03 0.  0.
         23    2    4    4    0    0  0.67054549938E+03 -0.67423456362E+02  0.50712766923E+03  0.84843150749E+03  0.92088874445E+02 0.  0.
         23    2    4    4    0    0 -0.10769023788E+03 -0.23839202715E+03 -0.14607454777E+03  0.31323895699E+03  0.91394336396E+02 0.  0.
          3    1    3    3  502    0 -0.30267336963E+03  0.17949357859E+03  0.41451726490E+03  0.54374044942E+03  0.00000000000E+00 0. -1.
         -4    1    3    3    0  502 -0.26018189188E+03  0.12632190492E+03  0.45774322830E+03  0.54146163629E+03  0.00000000000E+00 0.  1.
         11    1    5    5    0    0  0.98259688810E+02  0.20256240477E+02  0.59871736935E+02  0.11683281477E+03  0.00000000000E+00 0. -1.
        -11    1    5    5    0    0  0.57228581057E+03 -0.87679696839E+02  0.44725593230E+03  0.73159869272E+03  0.00000000000E+00 0.  1.
          3    1    6    6  503    0 -0.15972467410E+02 -0.38555215473E+02  0.10832116590E+02  0.43115648031E+02  0.00000000000E+00 0. -1.
         -3    1    6    6    0  503 -0.91717770465E+02 -0.19983681168E+03 -0.15690666436E+03  0.27012330896E+03  0.00000000000E+00 0.  1.
<mgrwt>
<rscale>  0 0.18781304E+04</rscale>
<asrwt>0</asrwt>
<pdfrwt beam="1">  1        1 0.77966073E-01 0.18781304E+04</pdfrwt>
<pdfrwt beam="2">  1       -2 0.26770662E+00 0.18781304E+04</pdfrwt>
<totfact> 0.17870531E+00</totfact>
</mgrwt>
</event>
<event>
12    4  0.4320235E-008  0.2639125E+04  0.7818608E-02  0.8355032E-01
         -2   -1    0    0    0  501 -0.00000000000E+00  0.00000000000E+00  0.65570052243E+03  0.65570052243E+03  0.00000000000E+00 0.  1.
          1   -1    0    0  501    0  0.00000000000E+00 -0.00000000000E+00 -0.26555492690E+04  0.26555492690E+04  0.00000000000E+00 0. -1.
        -24    2    1    2    0    0 -0.15884751354E+02 -0.10352113876E+04 -0.15443373243E+04  0.18610000484E+04  0.80177718081E+02 0.  0.
        254    2    1    2    0    0  0.15884751354E+02  0.10352113876E+04 -0.45551142222E+03  0.14502497430E+04  0.90764459953E+03 0.  0.
         23    2    4    4    0    0  0.17633070479E+02 -0.14415610062E+03  0.23027070685E+02  0.17418747375E+03  0.93376247017E+02 0.  0.
         23    2    4    4    0    0 -0.17483191259E+01  0.11793674882E+04 -0.47853849291E+03  0.12760622693E+04  0.91788327291E+02 0.  0.
          1    1    3    3  502    0 -0.26402095711E+02 -0.67093161120E+03 -0.10621690569E+04  0.12566023249E+04  0.00000000000E+00 0. -1.
         -2    1    3    3    0  502  0.10517344357E+02 -0.36427977638E+03 -0.48216826743E+03  0.60439772346E+03  0.00000000000E+00 0.  1.
         11    1    5    5    0    0 -0.22709372032E+02 -0.50945286261E+02  0.43306908714E+02  0.70616047133E+02  0.00000000000E+00 0.  1.
        -11    1    5    5    0    0  0.40342442511E+02 -0.93210814358E+02 -0.20279838029E+02  0.10357142662E+03  0.00000000000E+00 0. -1.
          4    1    6    6  503    0  0.13931232839E+02  0.10353835365E+04 -0.44696429964E+03  0.11278254439E+04  0.00000000000E+00 0. -1.
         -4    1    6    6    0  503 -0.15679551965E+02  0.14398395172E+03 -0.31574193274E+02  0.14823682533E+03  0.00000000000E+00 0.  1.
<mgrwt>
<rscale>  0 0.26391249E+04</rscale>
<asrwt>0</asrwt>
<pdfrwt beam="1">  1        1 0.40854604E+00 0.26391249E+04</pdfrwt>
<pdfrwt beam="2">  1       -2 0.10087700E+00 0.26391249E+04</pdfrwt>
<totfact> 0.65849915E-01</totfact>
</mgrwt>
</event>
<event>
12    4  0.4320235E-008  0.1322986E+04  0.7818608E-02  0.9011533E-01
         -2   -1    0    0    0  501 -0.00000000000E+00  0.00000000000E+00  0.42231954128E+03  0.42231954128E+03  0.00000000000E+00 0.  1.
          1   -1    0    0  501    0  0.00000000000E+00 -0.00000000000E+00 -0.10361177894E+04  0.10361177894E+04  0.00000000000E+00 0. -1.
        -24    2    1    2    0    0  0.12544530859E+01  0.11270015690E+03  0.21254326729E+03  0.25394287813E+03  0.81298498554E+02 0.  0.
        254    2    1    2    0    0 -0.12544530859E+01 -0.11270015690E+03 -0.82634151544E+03  0.12044944526E+04  0.86905908148E+03 0.  0.
         23    2    4    4    0    0 -0.50578457865E+02  0.34002618295E+03 -0.57793717099E+03  0.67878757575E+03  0.92548440793E+02 0.  0.
         23    2    4    4    0    0  0.49324004779E+02 -0.45272633985E+03 -0.24840434445E+03  0.52570687681E+03  0.85258464354E+02 0.  0.
          1    1    3    3  502    0  0.17013318635E+01  0.86298043810E+00 -0.71614065803E+01  0.74111409078E+01  0.00000000000E+00 0. -1.
         -2    1    3    3    0  502 -0.44687877761E+00  0.11183717646E+03  0.21970467387E+03  0.24653173723E+03  0.00000000000E+00 0.  1.
         11    1    5    5    0    0 -0.69446910275E+02  0.30216012685E+03 -0.53605392836E+03  0.61925554476E+03  0.00000000000E+00 0. -1.
        -11    1    5    5    0    0  0.18868452410E+02  0.37866056106E+02 -0.41883242629E+02  0.59532030996E+02  0.00000000000E+00 0.  1.
          1    1    6    6  503    0  0.32135794625E+02 -0.38812705914E+03 -0.17666800110E+03  0.42765278667E+03  0.00000000000E+00 0. -1.
         -1    1    6    6    0  503  0.17188210153E+02 -0.64599280713E+02 -0.71736343352E+02  0.98054090146E+02  0.00000000000E+00 0.  1.
<mgrwt>
<rscale>  0 0.13229857E+04</rscale>
<asrwt>0</asrwt>
<pdfrwt beam="1">  1        1 0.15940273E+00 0.13229857E+04</pdfrwt>
<pdfrwt beam="2">  1       -2 0.64972239E-01 0.13229857E+04</pdfrwt>
<totfact> 0.26654616E+01</totfact>
</mgrwt>
</event>
<event>
12    4  0.4320235E-008  0.3774812E+04  0.7818608E-02  0.8051582E-01
         -2   -1    0    0    0  501 -0.00000000000E+00  0.00000000000E+00  0.11921237842E+04  0.11921237842E+04  0.00000000000E+00 0.  1.
          1   -1    0    0  501    0  0.00000000000E+00 -0.00000000000E+00 -0.29881974594E+04  0.29881974594E+04  0.00000000000E+00 0. -1.
        -24    2    1    2    0    0 -0.41508328406E+03  0.16202321473E+04 -0.17445314414E+03  0.16835440049E+04  0.80250687994E+02 0.  0.
        254    2    1    2    0    0  0.41508328406E+03 -0.16202321473E+04 -0.16216205310E+04  0.24967772387E+04  0.89821884262E+03 0.  0.
         23    2    4    4    0    0  0.34258348406E+03 -0.63070607152E+03 -0.12295570160E+04  0.14263612688E+04  0.86847115210E+02 0.  0.
         23    2    4    4    0    0  0.72499799998E+02 -0.98952607581E+03 -0.39206351499E+03  0.10704159699E+04  0.87512702339E+02 0.  0.
          1    1    3    3  502    0 -0.27940210921E+02  0.12608381007E+03 -0.34804219240E+02  0.13375020084E+03  0.00000000000E+00 0. -1.
         -4    1    3    3    0  502 -0.38714307314E+03  0.14941483373E+04 -0.13964892490E+03  0.15497938040E+04  0.00000000000E+00 0.  1.
         11    1    5    5    0    0  0.44539337850E+02 -0.34228726988E+02 -0.97518675230E+02  0.11253999461E+03  0.00000000000E+00 0.  1.
        -11    1    5    5    0    0  0.29804414621E+03 -0.59647734453E+03 -0.11320383408E+04  0.13138212742E+04  0.00000000000E+00 0. -1.
          3    1    6    6  503    0  0.70649367993E+02 -0.98913893360E+03 -0.38611904266E+03  0.10641781234E+04  0.00000000000E+00 0. -1.
         -3    1    6    6    0  503  0.18504320053E+01 -0.38714220990E+00 -0.59444723312E+01  0.62378465029E+01  0.00000000000E+00 0.  1.
<mgrwt>
<rscale>  0 0.37748119E+04</rscale>
<asrwt>0</asrwt>
<pdfrwt beam="1">  1        1 0.45972269E+00 0.37748119E+04</pdfrwt>
<pdfrwt beam="2">  1       -2 0.18340366E+00 0.37748119E+04</pdfrwt>
<totfact> 0.73507043E-02</totfact>
</mgrwt>
</event>
<event>
12    4  0.4320235E-008  0.1329461E+04  0.7818608E-02  0.9006523E-01
          1   -1    0    0  501    0  0.00000000000E+00  0.00000000000E+00  0.18437668714E+04  0.18437668714E+04  0.00000000000E+00 0. -1.
         -4   -1    0    0    0  501 -0.00000000000E+00 -0.00000000000E+00 -0.23965439010E+03  0.23965439010E+03  0.00000000000E+00 0.  1.
        -24    2    1    2    0    0  0.18608990369E+03 -0.25490386731E+03  0.48987037441E+03  0.58789801141E+03  0.77753805489E+02 0.  0.
        254    2    1    2    0    0 -0.18608990369E+03  0.25490386731E+03  0.11142421069E+04  0.14955232501E+04  0.94628160979E+03 0.  0.
         23    2    4    4    0    0 -0.18626849960E+02  0.45230740630E+03  0.11307024056E+04  0.12214218141E+04  0.91947640130E+02 0.  0.
         23    2    4    4    0    0 -0.16746305373E+03 -0.19740353899E+03 -0.16460298660E+02  0.27410143608E+03  0.88592461614E+02 0.  0.
          1    1    3    3  502    0  0.16621639986E+03 -0.20316883627E+03  0.44472685445E+03  0.51641789540E+03  0.00000000000E+00 0. -1.
         -2    1    3    3    0  502  0.19873503833E+02 -0.51735031036E+02  0.45143519959E+02  0.71480116013E+02  0.00000000000E+00 0.  1.
         11    1    5    5    0    0 -0.57458967436E+01  0.32238584260E+03  0.68688493457E+03  0.75879942026E+03  0.00000000000E+00 0.  1.
        -11    1    5    5    0    0 -0.12880953216E+02  0.12992156370E+03  0.44381747101E+03  0.46262239379E+03  0.00000000000E+00 0. -1.
          1    1    6    6  503    0  0.84894596304E+01 -0.28226452111E+02 -0.32430374225E+01  0.29653344083E+02  0.00000000000E+00 0. -1.
         -1    1    6    6    0  503 -0.17595251336E+03 -0.16917708688E+03 -0.13217261238E+02  0.24444809199E+03  0.00000000000E+00 0.  1.
<mgrwt>
<rscale>  0 0.13294613E+04</rscale>
<asrwt>0</asrwt>
<pdfrwt beam="1">  1        1 0.28365643E+00 0.13294613E+04</pdfrwt>
<pdfrwt beam="2">  1       -4 0.36869907E-01 0.13294613E+04</pdfrwt>
<totfact> 0.13253783E+01</totfact>
</mgrwt>
</event>
<event>
12    4  0.4320235E-008  0.1522986E+04  0.7818608E-02  0.8869310E-01
          1   -1    0    0  501    0  0.00000000000E+00  0.00000000000E+00  0.14588973281E+04  0.14588973281E+04  0.00000000000E+00 0. -1.
         -2   -1    0    0    0  501 -0.00000000000E+00 -0.00000000000E+00 -0.39747231590E+03  0.39747231590E+03  0.00000000000E+00 0.  1.
        -24    2    1    2    0    0  0.39538840165E+03 -0.81093303332E+02  0.63042310110E+03  0.75288309306E+03  0.80570176908E+02 0.  0.
        254    2    1    2    0    0 -0.39538840165E+03  0.81093303332E+02  0.43100191113E+03  0.11034865510E+04  0.93220802869E+03 0.  0.
         23    2    4    4    0    0  0.50868610548E+01 -0.38121391888E+03  0.22408306369E+03  0.45144324944E+03  0.90762657151E+02 0.  0.
         23    2    4    4    0    0 -0.40047526271E+03  0.46230722221E+03  0.20691884744E+03  0.65204330152E+03  0.90756012887E+02 0.  0.
          1    1    3    3  502    0  0.38609315992E+03 -0.65168390832E+02  0.61380711187E+03  0.72806182284E+03  0.00000000000E+00 0. -1.
         -2    1    3    3    0  502  0.92952417330E+01 -0.15924912500E+02  0.16615989230E+02  0.24821270215E+02  0.00000000000E+00 0.  1.
         11    1    5    5    0    0 -0.10931372224E+02 -0.36884765216E+03  0.19911017923E+03  0.41930054719E+03  0.00000000000E+00 0.  1.
        -11    1    5    5    0    0  0.16018233279E+02 -0.12366266723E+02  0.24972884456E+02  0.32142702253E+02  0.00000000000E+00 0. -1.
          2    1    6    6  503    0 -0.13775680670E+03  0.99062989799E+02  0.46811432920E+02  0.17601626059E+03  0.00000000000E+00 0. -1.
         -2    1    6    6    0  503 -0.26271845601E+03  0.36324423241E+03  0.16010741452E+03  0.47602704093E+03  0.00000000000E+00 0.  1.
<mgrwt>
<rscale>  0 0.15229856E+04</rscale>
<asrwt>0</asrwt>
<pdfrwt beam="1">  1        1 0.22444574E+00 0.15229856E+04</pdfrwt>
<pdfrwt beam="2">  1       -2 0.61149588E-01 0.15229856E+04</pdfrwt>
<totfact> 0.14725122E+01</totfact>
</mgrwt>
</event>
<event>
12    4  0.4320235E-008  0.2091599E+04  0.7818608E-02  0.8564953E-01
          1   -1    0    0  501    0  0.00000000000E+00  0.00000000000E+00  0.79537650451E+03  0.79537650451E+03  0.00000000000E+00 0. -1.
         -2   -1    0    0    0  501 -0.00000000000E+00 -0.00000000000E+00 -0.13750679292E+04  0.13750679292E+04  0.00000000000E+00 0.  1.
        -24    2    1    2    0    0 -0.45806897685E+03  0.45945635023E+02  0.50873345152E+03  0.69080817315E+03  0.80423991887E+02 0.  0.
        254    2    1    2    0    0  0.45806897685E+03 -0.45945635023E+02 -0.10884248762E+04  0.14796362606E+04  0.89034631660E+03 0.  0.
         23    2    4    4    0    0  0.39302411059E+03 -0.28408770070E+02 -0.19810655418E+02  0.40499918297E+03  0.91415898033E+02 0.  0.
         23    2    4    4    0    0  0.65044866255E+02 -0.17536864953E+02 -0.10686142208E+04  0.10746370776E+04  0.91488356624E+02 0.  0.
          3    1    3    3  502    0 -0.45791428913E+03  0.45839066374E+02  0.49055908533E+03  0.67263283625E+03  0.00000000000E+00 0. -1.
         -4    1    3    3    0  502 -0.15468771170E+00  0.10656864923E+00  0.18174366188E+02  0.18175336902E+02  0.00000000000E+00 0.  1.
         11    1    5    5    0    0  0.35520523210E+03 -0.49288491168E+02 -0.32217793300E+02  0.36005291066E+03  0.00000000000E+00 0.  1.
        -11    1    5    5    0    0  0.37818878490E+02  0.20879721098E+02  0.12407137882E+02  0.44946272302E+02  0.00000000000E+00 0. -1.
          4    1    6    6  503    0  0.64017057090E+02 -0.65724409548E+01 -0.34569123583E+03  0.35163021928E+03  0.00000000000E+00 0. -1.
         -4    1    6    6    0  503  0.10278091653E+01 -0.10964423998E+02 -0.72292298495E+03  0.72300685831E+03  0.00000000000E+00 0.  1.
<mgrwt>
<rscale>  0 0.20915991E+04</rscale>
<asrwt>0</asrwt>
<pdfrwt beam="1">  1        1 0.12236562E+00 0.20915991E+04</pdfrwt>
<pdfrwt beam="2">  1       -2 0.21154891E+00 0.20915991E+04</pdfrwt>
<totfact> 0.20132495E+00</totfact>
</mgrwt>
</event>
<event>
12    4  0.4320235E-008  0.1370661E+04  0.7818608E-02  0.8975334E-01
         -2   -1    0    0    0  501 -0.00000000000E+00  0.00000000000E+00  0.65480333361E+03  0.65480333361E+03  0.00000000000E+00 0.  1.
          1   -1    0    0  501    0  0.00000000000E+00 -0.00000000000E+00 -0.71728072070E+03  0.71728072070E+03  0.00000000000E+00 0. -1.
        -24    2    1    2    0    0  0.26700767865E+03  0.14256821418E+03  0.19712387361E+03  0.36995348913E+03  0.79931010361E+02 0.  0.
        254    2    1    2    0    0 -0.26700767865E+03 -0.14256821418E+03 -0.25960126070E+03  0.10021305652E+04  0.91937699501E+03 0.  0.
         23    2    4    4    0    0 -0.17620541283E+03  0.20481788517E+03 -0.48901370187E+03  0.56623909226E+03  0.92160704172E+02 0.  0.
         23    2    4    4    0    0 -0.90802265820E+02 -0.34738609935E+03  0.22941244117E+03  0.43589147292E+03  0.91919282557E+02 0.  0.
          3    1    3    3  502    0  0.97045403701E+02  0.26628722317E+02  0.30352016466E+02  0.10511015239E+03  0.00000000000E+00 0. -1.
         -4    1    3    3    0  502  0.16996227495E+03  0.11593949186E+03  0.16677185714E+03  0.26484333674E+03  0.00000000000E+00 0.  1.
         11    1    5    5    0    0 -0.18520985722E+02  0.76551889034E+02 -0.17860576831E+03  0.19520050999E+03  0.00000000000E+00 0. -1.
        -11    1    5    5    0    0 -0.15768442711E+03  0.12826599613E+03 -0.31040793356E+03  0.37103858227E+03  0.00000000000E+00 0.  1.
          2    1    6    6  503    0 -0.15934627745E+01 -0.26307534683E+02  0.52163632842E+02  0.58443734446E+02  0.00000000000E+00 0. -1.
         -2    1    6    6    0  503 -0.89208803046E+02 -0.32107856466E+03  0.17724880833E+03  0.37744773847E+03  0.00000000000E+00 0.  1.
<mgrwt>
<rscale>  0 0.13706609E+04</rscale>
<asrwt>0</asrwt>
<pdfrwt beam="1">  1        1 0.11035088E+00 0.13706609E+04</pdfrwt>
<pdfrwt beam="2">  1       -2 0.10073897E+00 0.13706609E+04</pdfrwt>
<totfact> 0.18232474E+01</totfact>
</mgrwt>
</event>
<event>
12    4  0.4320235E-008  0.2002984E+04  0.7818608E-02  0.8605227E-01
         -2   -1    0    0    0  501 -0.00000000000E+00  0.00000000000E+00  0.48462740406E+03  0.48462740406E+03  0.00000000000E+00 0.  1.
          1   -1    0    0  501    0  0.00000000000E+00 -0.00000000000E+00 -0.20696028505E+04  0.20696028505E+04  0.00000000000E+00 0. -1.
        -24    2    1    2    0    0  0.71053502153E+03 -0.29246988652E+03 -0.87911797960E+03  0.11708873402E+04  0.87920930014E+02 0.  0.
        254    2    1    2    0    0 -0.71053502153E+03  0.29246988652E+03 -0.70585746687E+03  0.13833429144E+04  0.90829742048E+03 0.  0.
         23    2    4    4    0    0 -0.80872896652E+03  0.16374912123E+03 -0.21458701574E+03  0.85750684936E+03  0.91728367461E+02 0.  0.
         23    2    4    4    0    0  0.98193944984E+02  0.12872076529E+03 -0.49127045113E+03  0.52583606508E+03  0.94582371159E+02 0.  0.
          3    1    3    3  502    0  0.37791191733E+03 -0.11058051345E+03 -0.42635721884E+03  0.58036707804E+03  0.00000000000E+00 0. -1.
         -4    1    3    3    0  502  0.33262310421E+03 -0.18188937308E+03 -0.45276076076E+03  0.59052026212E+03  0.00000000000E+00 0.  1.
         11    1    5    5    0    0 -0.66147479226E+03  0.10671352230E+03 -0.14829217213E+03  0.68624138971E+03  0.00000000000E+00 0.  1.
        -11    1    5    5    0    0 -0.14725417426E+03  0.57035598935E+02 -0.66294843605E+02  0.17126545966E+03  0.00000000000E+00 0. -1.
          2    1    6    6  503    0  0.12980754536E+02  0.74400961152E+02 -0.12653632154E+03  0.14736160856E+03  0.00000000000E+00 0. -1.
         -2    1    6    6    0  503  0.85213190448E+02  0.54319804140E+02 -0.36473412959E+03  0.37847445652E+03  0.00000000000E+00 0.  1.
<mgrwt>
<rscale>  0 0.20029840E+04</rscale>
<asrwt>0</asrwt>
<pdfrwt beam="1">  1        1 0.31840044E+00 0.20029840E+04</pdfrwt>
<pdfrwt beam="2">  1       -2 0.74558061E-01 0.20029840E+04</pdfrwt>
<totfact> 0.35220463E+00</totfact>
</mgrwt>
</event>
<event>
12    4  0.4320235E-008  0.1251986E+04  0.7818608E-02  0.9068532E-01
          1   -1    0    0  501    0  0.00000000000E+00  0.00000000000E+00  0.53241039492E+03  0.53241039492E+03  0.00000000000E+00 0. -1.
         -2   -1    0    0    0  501 -0.00000000000E+00 -0.00000000000E+00 -0.73602435590E+03  0.73602435590E+03  0.00000000000E+00 0.  1.
        -24    2    1    2    0    0 -0.16122361447E+03 -0.15427844625E+02 -0.29643660571E+03  0.34687348933E+03  0.78838341807E+02 0.  0.
        254    2    1    2    0    0  0.16122361447E+03  0.15427844625E+02  0.92822644732E+02  0.92156126149E+03  0.90245667101E+03 0.  0.
         23    2    4    4    0    0  0.35306745476E+03 -0.98323380406E+02 -0.28491424382E+03  0.47300531853E+03  0.90740235197E+02 0.  0.
         23    2    4    4    0    0 -0.19184384029E+03  0.11375122503E+03  0.37773688856E+03  0.44855594295E+03  0.93668974220E+02 0.  0.
          3    1    3    3  502    0 -0.29819750745E+02  0.27917538505E+02 -0.53723193198E+02  0.67489169339E+02  0.00000000000E+00 0. -1.
         -4    1    3    3    0  502 -0.13140386373E+03 -0.43345383130E+02 -0.24271341251E+03  0.27938431999E+03  0.00000000000E+00 0.  1.
         11    1    5    5    0    0  0.81575695509E+02  0.12581496123E+02 -0.44405692779E+02  0.93727016882E+02  0.00000000000E+00 0.  1.
        -11    1    5    5    0    0  0.27149175925E+03 -0.11090487653E+03 -0.24050855105E+03  0.37927830165E+03  0.00000000000E+00 0. -1.
          4    1    6    6  503    0 -0.19432375222E+03  0.12411887872E+03  0.35318998979E+03  0.42179424560E+03  0.00000000000E+00 0. -1.
         -4    1    6    6    0  503  0.24799119330E+01 -0.10367653694E+02  0.24546898763E+02  0.26761697352E+02  0.00000000000E+00 0.  1.
<mgrwt>
<rscale>  0 0.12519857E+04</rscale>
<asrwt>0</asrwt>
<pdfrwt beam="1">  1        1 0.81909292E-01 0.12519857E+04</pdfrwt>
<pdfrwt beam="2">  1       -2 0.11323452E+00 0.12519857E+04</pdfrwt>
<totfact> 0.21443275E+01</totfact>
</mgrwt>
</event>
<event>
12    4  0.4320235E-008  0.1500364E+04  0.7818608E-02  0.8884211E-01
         -2   -1    0    0    0  501 -0.00000000000E+00  0.00000000000E+00  0.21362180832E+04  0.21362180832E+04  0.00000000000E+00 0.  1.
          1   -1    0    0  501    0  0.00000000000E+00 -0.00000000000E+00 -0.26344350522E+03  0.26344350522E+03  0.00000000000E+00 0. -1.
        -24    2    1    2    0    0 -0.33079517913E+03  0.30512313461E+03  0.98228268859E+03  0.10833733866E+04  0.79328661853E+02 0.  0.
        254    2    1    2    0    0  0.33079517913E+03 -0.30512313461E+03  0.89049188934E+03  0.13162882018E+04  0.85855299630E+03 0.  0.
         23    2    4    4    0    0 -0.25475951794E+03 -0.25242907374E+03  0.39801020456E+03  0.54366667700E+03  0.92403914959E+02 0.  0.
         23    2    4    4    0    0  0.58555469707E+03 -0.52694060869E+02  0.49248168478E+03  0.77262152481E+03  0.93567320398E+02 0.  0.
          3    1    3    3  502    0 -0.86675216761E+02  0.10187222739E+03  0.21880493702E+03  0.25644910680E+03  0.00000000000E+00 0. -1.
         -4    1    3    3    0  502 -0.24411996237E+03  0.20325090722E+03  0.76347775158E+03  0.82692427977E+03  0.00000000000E+00 0.  1.
         11    1    5    5    0    0 -0.15684696289E+03 -0.10717836510E+03  0.16142926820E+03  0.24929416428E+03  0.00000000000E+00 0.  1.
        -11    1    5    5    0    0 -0.97912555050E+02 -0.14525070864E+03  0.23658093636E+03  0.29437251272E+03  0.00000000000E+00 0. -1.
          1    1    6    6  503    0  0.12180021641E+02 -0.25464033113E+01 -0.34040244066E+01  0.12900561195E+02  0.00000000000E+00 0. -1.
         -1    1    6    6    0  503  0.57337467543E+03 -0.50147657558E+02  0.49588570919E+03  0.75972096362E+03  0.00000000000E+00 0.  1.
<mgrwt>
<rscale>  0 0.15003637E+04</rscale>
<asrwt>0</asrwt>
<pdfrwt beam="1">  1        1 0.40529771E-01 0.15003637E+04</pdfrwt>
<pdfrwt beam="2">  1       -2 0.32864892E+00 0.15003637E+04</pdfrwt>
<totfact> 0.18670885E+00</totfact>
</mgrwt>
</event>
<event>
12    4  0.4320235E-008  0.1019700E+04  0.7818608E-02  0.9287198E-01
          1   -1    0    0  501    0  0.00000000000E+00  0.00000000000E+00  0.29745696708E+04  0.29745696708E+04  0.00000000000E+00 0. -1.
         -2   -1    0    0    0  501 -0.00000000000E+00 -0.00000000000E+00 -0.87389830573E+02  0.87389830573E+02  0.00000000000E+00 0.  1.
        -24    2    1    2    0    0 -0.83943060434E+02  0.68703764363E+02  0.38416181461E+03  0.40732998154E+03  0.81060282664E+02 0.  0.
        254    2    1    2    0    0  0.83943060434E+02 -0.68703764363E+02  0.25030180257E+04  0.26546295199E+04  0.87760583770E+03 0.  0.
         23    2    4    4    0    0  0.29849532419E+03 -0.69746419925E+02  0.23588702981E+04  0.23804348134E+04  0.90756794467E+02 0.  0.
         23    2    4    4    0    0 -0.21455226375E+03  0.10426555625E+01  0.14414772755E+03  0.27419470650E+03  0.91489937720E+02 0.  0.
          1    1    3    3  502    0 -0.32889939997E+02  0.12746192384E+02  0.25629582461E+03  0.25871173782E+03  0.00000000000E+00 0. -1.
         -4    1    3    3    0  502 -0.51053120437E+02  0.55957571979E+02  0.12786599000E+03  0.14861824372E+03  0.00000000000E+00 0.  1.
         11    1    5    5    0    0  0.73947449094E+02  0.21930099330E+02  0.57954839498E+03  0.58465844440E+03  0.00000000000E+00 0.  1.
        -11    1    5    5    0    0  0.22454787509E+03 -0.91676519256E+02  0.17793219031E+04  0.17957763690E+04  0.00000000000E+00 0. -1.
          3    1    6    6  503    0 -0.30588214159E+02  0.27548769386E+02  0.53216164247E+02  0.67279519004E+02  0.00000000000E+00 0. -1.
         -3    1    6    6    0  503 -0.18396404959E+03 -0.26506113824E+02  0.90931563301E+02  0.20691518750E+03  0.00000000000E+00 0.  1.
<mgrwt>
<rscale>  0 0.10197002E+04</rscale>
<asrwt>0</asrwt>
<pdfrwt beam="1">  1        1 0.45762602E+00 0.10197002E+04</pdfrwt>
<pdfrwt beam="2">  1       -2 0.13444592E-01 0.10197002E+04</pdfrwt>
<totfact> 0.23653857E+01</totfact>
</mgrwt>
</event>
<event>
12    4  0.4320235E-008  0.1200186E+04  0.7818608E-02  0.9112694E-01
         -2   -1    0    0    0  501 -0.00000000000E+00  0.00000000000E+00  0.16406944607E+03  0.16406944607E+03  0.00000000000E+00 0.  1.
          1   -1    0    0  501    0  0.00000000000E+00 -0.00000000000E+00 -0.21948722032E+04  0.21948722032E+04  0.00000000000E+00 0. -1.
        -24    2    1    2    0    0  0.16375788724E+02 -0.23014868004E+03 -0.41895884898E+03  0.48476339596E+03  0.78945877295E+02 0.  0.
        254    2    1    2    0    0 -0.16375788724E+02  0.23014868004E+03 -0.16118439081E+04  0.18741782533E+04  0.92804458921E+03 0.  0.
         23    2    4    4    0    0  0.13396394332E+03  0.48651128088E+03 -0.14168382616E+04  0.15067697260E+04  0.91020785515E+02 0.  0.
         23    2    4    4    0    0 -0.15033973204E+03 -0.25636260083E+03 -0.19500564656E+03  0.36740852723E+03  0.92940871306E+02 0.  0.
          1    1    3    3  502    0  0.35097631330E+02 -0.21835172342E+03 -0.38968835833E+03  0.44806956543E+03  0.00000000000E+00 0. -1.
         -2    1    3    3    0  502 -0.18721842606E+02 -0.11796956620E+02 -0.29270490647E+02  0.36693830528E+02  0.00000000000E+00 0.  1.
         11    1    5    5    0    0  0.46802083127E+02  0.10583885537E+03 -0.43464062159E+03  0.44978302350E+03  0.00000000000E+00 0. -1.
        -11    1    5    5    0    0  0.87161860189E+02  0.38067242550E+03 -0.98219763997E+03  0.10569867026E+04  0.00000000000E+00 0.  1.
          2    1    6    6  503    0 -0.99304250576E+02 -0.23294850509E+03 -0.17493056286E+03  0.30777758532E+03  0.00000000000E+00 0.  1.
         -2    1    6    6    0  503 -0.51035481464E+02 -0.23414095747E+02 -0.20075083703E+02  0.59630941915E+02  0.00000000000E+00 0. -1.
<mgrwt>
<rscale>  0 0.12001858E+04</rscale>
<asrwt>0</asrwt>
<pdfrwt beam="1">  1        1 0.33767264E+00 0.12001858E+04</pdfrwt>
<pdfrwt beam="2">  1       -2 0.25241454E-01 0.12001858E+04</pdfrwt>
<totfact> 0.26991341E+01</totfact>
</mgrwt>
</event>
<event>
12    4  0.4320235E-008  0.2513948E+04  0.7818608E-02  0.8398033E-01
          1   -1    0    0  501    0  0.00000000000E+00  0.00000000000E+00  0.21953957900E+04  0.21953957900E+04  0.00000000000E+00 0. -1.
         -2   -1    0    0    0  501 -0.00000000000E+00 -0.00000000000E+00 -0.71968031538E+03  0.71968031538E+03  0.00000000000E+00 0.  1.
        -24    2    1    2    0    0 -0.39187700437E+03 -0.49924571224E+03 -0.38938337389E+03  0.74889621269E+03  0.80076574457E+02 0.  0.
        254    2    1    2    0    0  0.39187700437E+03  0.49924571224E+03  0.18650988485E+04  0.21661798927E+04  0.90051526641E+03 0.  0.
         23    2    4    4    0    0 -0.22447218997E+03  0.35205435114E+03  0.10268846152E+04  0.11119118336E+04  0.86751844497E+02 0.  0.
         23    2    4    4    0    0  0.61634919434E+03  0.14719136110E+03  0.83821423333E+03  0.10542680591E+04  0.85594470470E+02 0.  0.
          3    1    3    3  502    0 -0.12224949896E+03 -0.13215201006E+03 -0.72710268992E+02  0.19415426077E+03  0.00000000000E+00 0. -1.
         -4    1    3    3    0  502 -0.26962750542E+03 -0.36709370218E+03 -0.31667310490E+03  0.55474195192E+03  0.00000000000E+00 0.  1.
         11    1    5    5    0    0 -0.14956815618E+03  0.17284602083E+03  0.48220275448E+03  0.53363459097E+03  0.00000000000E+00 0.  1.
        -11    1    5    5    0    0 -0.74904033790E+02  0.17920833031E+03  0.54468186070E+03  0.57827724259E+03  0.00000000000E+00 0. -1.
          4    1    6    6  503    0  0.24086943922E+03  0.91624176446E+02  0.38199426606E+03  0.46079572021E+03  0.00000000000E+00 0.  1.
         -4    1    6    6    0  503  0.37547975512E+03  0.55567184654E+02  0.45621996726E+03  0.59347233891E+03  0.00000000000E+00 0. -1.
<mgrwt>
<rscale>  0 0.25139476E+04</rscale>
<asrwt>0</asrwt>
<pdfrwt beam="1">  1        1 0.33775320E+00 0.25139476E+04</pdfrwt>
<pdfrwt beam="2">  1       -2 0.11072005E+00 0.25139476E+04</pdfrwt>
<totfact> 0.11066341E+00</totfact>
</mgrwt>
</event>
<event>
12    4  0.4320235E-008  0.2190504E+04  0.7818608E-02  0.8522391E-01
          3   -1    0    0  501    0  0.00000000000E+00  0.00000000000E+00  0.16977734301E+04  0.16977734301E+04  0.00000000000E+00 0. -1.
         -4   -1    0    0    0  501 -0.00000000000E+00 -0.00000000000E+00 -0.70655873197E+03  0.70655873197E+03  0.00000000000E+00 0.  1.
        -24    2    1    2    0    0 -0.13023001837E+03 -0.21121988804E+03  0.13678436647E+04  0.13922176298E+04  0.75497938791E+02 0.  0.
        254    2    1    2    0    0  0.13023001837E+03  0.21121988804E+03 -0.37662896664E+03  0.10121145322E+04  0.90606442877E+03 0.  0.
         23    2    4    4    0    0 -0.51754887358E+02 -0.10539343199E+03 -0.56936357719E+03  0.58927864154E+03  0.96374739830E+02 0.  0.
         23    2    4    4    0    0  0.18198490572E+03  0.31661332003E+03  0.19273461055E+03  0.42283589070E+03  0.91000329835E+02 0.  0.
          1    1    3    3  502    0 -0.13706243148E+03 -0.21204796784E+03  0.13310271516E+04  0.13547633480E+04  0.00000000000E+00 0. -1.
         -2    1    3    3    0  502  0.68324131124E+01  0.82807980510E+00  0.36816513096E+02  0.37454281753E+02  0.00000000000E+00 0.  1.
         11    1    5    5    0    0  0.19850682106E+01 -0.82713601482E+02 -0.43502693530E+03  0.44282492568E+03  0.00000000000E+00 0. -1.
        -11    1    5    5    0    0 -0.53739955569E+02 -0.22679830509E+02 -0.13433664189E+03  0.14645371586E+03  0.00000000000E+00 0.  1.
          2    1    6    6  503    0  0.83135268899E+02  0.23113772489E+03  0.12281761410E+03  0.27462754256E+03  0.00000000000E+00 0. -1.
         -2    1    6    6    0  503  0.98849636825E+02  0.85475595141E+02  0.69916996448E+02  0.14820834814E+03  0.00000000000E+00 0.  1.
<mgrwt>
<rscale>  0 0.21905037E+04</rscale>
<asrwt>0</asrwt>
<pdfrwt beam="1">  1        3 0.26119591E+00 0.21905037E+04</pdfrwt>
<pdfrwt beam="2">  1       -4 0.10870134E+00 0.21905037E+04</pdfrwt>
<totfact> 0.90137777E-02</totfact>
</mgrwt>
</event>
<event>
12    4  0.4320235E-008  0.1454537E+04  0.7818608E-02  0.8915261E-01
         -2   -1    0    0    0  501 -0.00000000000E+00  0.00000000000E+00  0.13487278323E+04  0.13487278323E+04  0.00000000000E+00 0.  1.
          1   -1    0    0  501    0  0.00000000000E+00 -0.00000000000E+00 -0.39216198476E+03  0.39216198476E+03  0.00000000000E+00 0. -1.
        -24    2    1    2    0    0 -0.25975821394E+02 -0.17276592340E+03 -0.22232924673E+03  0.29401672190E+03  0.80577485799E+02 0.  0.
        254    2    1    2    0    0  0.25975821394E+02  0.17276592340E+03  0.11788950942E+04  0.14468730951E+04  0.82044213850E+03 0.  0.
         23    2    4    4    0    0  0.13010424071E+03 -0.19283158572E+03  0.51630227865E+02  0.25392232573E+03  0.87748123493E+02 0.  0.
         23    2    4    4    0    0 -0.10412841931E+03  0.36559750912E+03  0.11272648664E+04  0.11929507694E+04  0.88888654375E+02 0.  0.
          1    1    3    3  502    0 -0.25581087189E+02 -0.11459861893E+03 -0.19957823781E+03  0.23155713871E+03  0.00000000000E+00 0. -1.
         -2    1    3    3    0  502 -0.39473420474E+00 -0.58167304474E+02 -0.22751008924E+02  0.62459583188E+02  0.00000000000E+00 0.  1.
         11    1    5    5    0    0  0.49900419369E+02 -0.68037162947E+02 -0.23570194951E+02  0.87605145312E+02  0.00000000000E+00 0. -1.
        -11    1    5    5    0    0  0.80203821339E+02 -0.12479442277E+03  0.75200422816E+02  0.16631718042E+03  0.00000000000E+00 0.  1.
          1    1    6    6  503    0 -0.32554940644E+02  0.12265320025E+03  0.51427353708E+03  0.52969887920E+03  0.00000000000E+00 0. -1.
         -1    1    6    6    0  503 -0.71573478671E+02  0.24294430887E+03  0.61299132928E+03  0.66325189018E+03  0.00000000000E+00 0.  1.
<mgrwt>
<rscale>  0 0.14545374E+04</rscale>
<asrwt>0</asrwt>
<pdfrwt beam="1">  1        1 0.60332614E-01 0.14545374E+04</pdfrwt>
<pdfrwt beam="2">  1       -2 0.20749659E+00 0.14545374E+04</pdfrwt>
<totfact> 0.62067160E+00</totfact>
</mgrwt>
</event>
<event>
12    4  0.4320235E-008  0.1244269E+04  0.7818608E-02  0.9074967E-01
         -2   -1    0    0    0  501 -0.00000000000E+00  0.00000000000E+00  0.24837647320E+04  0.24837647320E+04  0.00000000000E+00 0.  1.
          1   -1    0    0  501    0  0.00000000000E+00 -0.00000000000E+00 -0.15583246059E+03  0.15583246059E+03  0.00000000000E+00 0. -1.
        -24    2    1    2    0    0  0.24123192680E+02 -0.15795889320E+03  0.49150069931E+02  0.18540689097E+03  0.80168856035E+02 0.  0.
        254    2    1    2    0    0 -0.24123192680E+02  0.15795889320E+03  0.22787822015E+04  0.24541903017E+04  0.89703331848E+03 0.  0.
         23    2    4    4    0    0 -0.42771334687E+03 -0.63367673732E+02  0.11341320501E+04  0.12170961274E+04  0.90073898248E+02 0.  0.
         23    2    4    4    0    0  0.40359015419E+03  0.22132656693E+03  0.11446501515E+04  0.12370941743E+04  0.91145844810E+02 0.  0.
          1    1    3    3  502    0  0.96205422766E+01 -0.79303940822E+02 -0.16929946525E+02  0.81659616415E+02  0.00000000000E+00 0. -1.
         -2    1    3    3    0  502  0.14502650403E+02 -0.78654952380E+02  0.66080016456E+02  0.10374727455E+03  0.00000000000E+00 0.  1.
         11    1    5    5    0    0 -0.34098498664E+03 -0.15685847863E+02  0.83760170456E+03  0.90448516982E+03  0.00000000000E+00 0. -1.
        -11    1    5    5    0    0 -0.86728360233E+02 -0.47681825869E+02  0.29653034550E+03  0.31261095757E+03  0.00000000000E+00 0.  1.
          2    1    6    6  503    0  0.39802330238E+03  0.21813419796E+03  0.11438728892E+04  0.12306300274E+04  0.00000000000E+00 0. -1.
         -2    1    6    6    0  503  0.55668518142E+01  0.31923689716E+01  0.77726223174E+00  0.64641469158E+01  0.00000000000E+00 0.  1.
<mgrwt>
<rscale>  0 0.12442687E+04</rscale>
<asrwt>0</asrwt>
<pdfrwt beam="1">  1        1 0.23974227E-01 0.12442687E+04</pdfrwt>
<pdfrwt beam="2">  1       -2 0.38211762E+00 0.12442687E+04</pdfrwt>
<totfact> 0.17486064E+00</totfact>
</mgrwt>
</event>
<event>
12    4  0.4320235E-008  0.1880748E+04  0.7818608E-02  0.8664499E-01
         -2   -1    0    0    0  501 -0.00000000000E+00  0.00000000000E+00  0.78463936460E+03  0.78463936460E+03  0.00000000000E+00 0.  1.
          1   -1    0    0  501    0  0.00000000000E+00 -0.00000000000E+00 -0.11270187775E+04  0.11270187775E+04  0.00000000000E+00 0. -1.
        -24    2    1    2    0    0 -0.34035550368E+03 -0.63272383418E+03 -0.19794883574E+03  0.75205081713E+03  0.10107111728E+03 0.  0.
        254    2    1    2    0    0  0.34035550368E+03  0.63272383418E+03 -0.14443057716E+03  0.11596073250E+04  0.89869218161E+03 0.  0.
         23    2    4    4    0    0  0.21998845849E+03  0.39910153434E+02 -0.42332925927E+03  0.48746869003E+03  0.91816772968E+02 0.  0.
         23    2    4    4    0    0  0.12036704520E+03  0.59281368075E+03  0.27889868210E+03  0.67213863494E+03  0.89830863611E+02 0.  0.
          1    1    3    3  502    0 -0.12903923278E+03 -0.17726372945E+03 -0.97734838099E+02  0.24005343562E+03  0.00000000000E+00 0. -1.
         -2    1    3    3    0  502 -0.21131627090E+03 -0.45546010473E+03 -0.10021399764E+03  0.51199738151E+03  0.00000000000E+00 0.  1.
         11    1    5    5    0    0  0.10804997795E+03  0.65404986326E+01 -0.29351222426E+03  0.31283702090E+03  0.00000000000E+00 0. -1.
        -11    1    5    5    0    0  0.11193848053E+03  0.33369654801E+02 -0.12981703501E+03  0.17463166913E+03  0.00000000000E+00 0.  1.
          2    1    6    6  503    0  0.25159672315E+00 -0.33296018235E+01  0.74874668937E+00  0.34220126854E+01  0.00000000000E+00 0.  1.
         -2    1    6    6    0  503  0.12011544847E+03  0.59614328257E+03  0.27814993541E+03  0.66871662226E+03  0.00000000000E+00 0. -1.
<mgrwt>
<rscale>  0 0.18807480E+04</rscale>
<asrwt>0</asrwt>
<pdfrwt beam="1">  1        1 0.17338750E+00 0.18807480E+04</pdfrwt>
<pdfrwt beam="2">  1       -2 0.12071375E+00 0.18807480E+04</pdfrwt>
<totfact> 0.52032625E+00</totfact>
</mgrwt>
</event>
<event>
12    4  0.4320235E-008  0.1712138E+04  0.7818608E-02  0.8754472E-01
          3   -1    0    0  501    0  0.00000000000E+00  0.00000000000E+00  0.21086834958E+04  0.21086834958E+04  0.00000000000E+00 0. -1.
         -4   -1    0    0    0  501 -0.00000000000E+00 -0.00000000000E+00 -0.34754111879E+03  0.34754111879E+03  0.00000000000E+00 0.  1.
        -24    2    1    2    0    0  0.55557934028E+02  0.25961092944E+03  0.14367240541E+04  0.14632364652E+04  0.80002667293E+02 0.  0.
        254    2    1    2    0    0 -0.55557934028E+02 -0.25961092944E+03  0.32441832291E+03  0.99298814938E+03  0.90016315069E+03 0.  0.
         23    2    4    4    0    0  0.26958992123E+02 -0.40268467229E+03 -0.18189980265E+03  0.45220827242E+03  0.92320370900E+02 0.  0.
         23    2    4    4    0    0 -0.82516926151E+02  0.14307374286E+03  0.50631812556E+03  0.54077987696E+03  0.93838649072E+02 0.  0.
          1    1    3    3  502    0  0.18198027105E+01  0.18029791866E+03  0.10003247605E+04  0.10164449211E+04  0.00000000000E+00 0. -1.
         -2    1    3    3    0  502  0.53738131317E+02  0.79313010775E+02  0.43639929361E+03  0.44679154412E+03  0.00000000000E+00 0.  1.
         11    1    5    5    0    0  0.64824953411E+01 -0.36427592943E+03 -0.18492288790E+03  0.40857734883E+03  0.00000000000E+00 0. -1.
        -11    1    5    5    0    0  0.20476496782E+02 -0.38408742863E+02  0.30230852477E+01  0.43630923588E+02  0.00000000000E+00 0.  1.
          3    1    6    6  503    0 -0.95549864226E+02  0.14280540243E+03  0.42492806392E+03  0.45835250520E+03  0.00000000000E+00 0. -1.
         -3    1    6    6    0  503  0.13032938075E+02  0.26834042201E+00  0.81390061638E+02  0.82427371758E+02  0.00000000000E+00 0.  1.
<mgrwt>
<rscale>  0 0.17121381E+04</rscale>
<asrwt>0</asrwt>
<pdfrwt beam="1">  1        3 0.32441284E+00 0.17121381E+04</pdfrwt>
<pdfrwt beam="2">  1       -4 0.53467866E-01 0.17121381E+04</pdfrwt>
<totfact> 0.20845680E-01</totfact>
</mgrwt>
</event>
<event>
12    4  0.4320235E-008  0.1423695E+04  0.7818608E-02  0.8936844E-01
         -2   -1    0    0    0  501 -0.00000000000E+00  0.00000000000E+00  0.52395948669E+03  0.52395948669E+03  0.00000000000E+00 0.  1.
          1   -1    0    0  501    0  0.00000000000E+00 -0.00000000000E+00 -0.96711018487E+03  0.96711018487E+03  0.00000000000E+00 0. -1.
        -24    2    1    2    0    0 -0.11952530061E+03 -0.10453202132E+03  0.27617062600E+03  0.32700012800E+03  0.73794498973E+02 0.  0.
        254    2    1    2    0    0  0.11952530061E+03  0.10453202132E+03 -0.71932132417E+03  0.11640695436E+04  0.90134427045E+03 0.  0.
         23    2    4    4    0    0  0.10517269260E+03  0.45898934071E+03 -0.62233986062E+03  0.78501788332E+03  0.84933296549E+02 0.  0.
         23    2    4    4    0    0  0.14352608008E+02 -0.35445731938E+03 -0.96981463554E+02  0.37905166024E+03  0.91808323350E+02 0.  0.
          3    1    3    3  502    0 -0.11481027357E+02 -0.53365272625E+02  0.71235659659E+02  0.89745114177E+02  0.00000000000E+00 0. -1.
         -4    1    3    3    0  502 -0.10804427325E+03 -0.51166748699E+02  0.20493496634E+03  0.23725501382E+03  0.00000000000E+00 0.  1.
         11    1    5    5    0    0  0.32938919224E+02  0.21121912866E+03 -0.21793455872E+03  0.30527686548E+03  0.00000000000E+00 0. -1.
        -11    1    5    5    0    0  0.72233773374E+02  0.24777021205E+03 -0.40440530190E+03  0.47974101784E+03  0.00000000000E+00 0.  1.
          2    1    6    6  503    0  0.43565844367E+02 -0.30586908246E+03 -0.90793923584E+02  0.32202083001E+03  0.00000000000E+00 0. -1.
         -2    1    6    6    0  503 -0.29213236359E+02 -0.48588236924E+02 -0.61875399700E+01  0.57030830231E+02  0.00000000000E+00 0.  1.
<mgrwt>
<rscale>  0 0.14236946E+04</rscale>
<asrwt>0</asrwt>
<pdfrwt beam="1">  1        1 0.14878618E+00 0.14236946E+04</pdfrwt>
<pdfrwt beam="2">  1       -2 0.80609152E-01 0.14236946E+04</pdfrwt>
<totfact> 0.18622205E+01</totfact>
</mgrwt>
</event>
<event>
12    4  0.4320235E-008  0.1748837E+04  0.7818608E-02  0.8733991E-01
          1   -1    0    0  501    0  0.00000000000E+00  0.00000000000E+00  0.13500175165E+04  0.13500175165E+04  0.00000000000E+00 0. -1.
         -2   -1    0    0    0  501 -0.00000000000E+00 -0.00000000000E+00 -0.56636853470E+03  0.56636853470E+03  0.00000000000E+00 0.  1.
        -24    2    1    2    0    0  0.57626126520E+03  0.38977551646E+03  0.16644975901E+03  0.71948200154E+03  0.77115687527E+02 0.  0.
        254    2    1    2    0    0 -0.57626126520E+03 -0.38977551646E+03  0.61719922274E+03  0.11969040496E+04  0.75342048313E+03 0.  0.
         23    2    4    4    0    0 -0.59882351712E+03 -0.15954802062E+03  0.69556607396E+03  0.93603798469E+03  0.91157939921E+02 0.  0.
         23    2    4    4    0    0  0.22562251915E+02 -0.23022749585E+03 -0.78366851213E+02  0.26086606491E+03  0.91629609843E+02 0.  0.
          3    1    3    3  502    0  0.49727958399E+02  0.63035183377E+02  0.19108195768E+02  0.82531371825E+02  0.00000000000E+00 0. -1.
         -4    1    3    3    0  502  0.52653330680E+03  0.32674033309E+03  0.14734156325E+03  0.63695062972E+03  0.00000000000E+00 0.  1.
         11    1    5    5    0    0 -0.28525053577E+03 -0.98926334903E+02  0.27867181922E+03  0.41086770465E+03  0.00000000000E+00 0. -1.
        -11    1    5    5    0    0 -0.31357298134E+03 -0.60621685714E+02  0.41689425473E+03  0.52517028004E+03  0.00000000000E+00 0.  1.
          4    1    6    6  503    0 -0.25519239687E+02 -0.18097316227E+02 -0.87414636452E+01  0.32483190045E+02  0.00000000000E+00 0. -1.
         -4    1    6    6    0  503  0.48081491602E+02 -0.21213017962E+03 -0.69625387568E+02  0.22838287487E+03  0.00000000000E+00 0.  1.
<mgrwt>
<rscale>  0 0.17488367E+04</rscale>
<asrwt>0</asrwt>
<pdfrwt beam="1">  1        1 0.20769500E+00 0.17488367E+04</pdfrwt>
<pdfrwt beam="2">  1       -2 0.87133621E-01 0.17488367E+04</pdfrwt>
<totfact> 0.78887696E+00</totfact>
</mgrwt>
</event>
<event>
12    4  0.4320235E-008  0.1091782E+04  0.7818608E-02  0.9213239E-01
          1   -1    0    0  501    0  0.00000000000E+00  0.00000000000E+00  0.19271622110E+04  0.19271622110E+04  0.00000000000E+00 0. -1.
         -2   -1    0    0    0  501 -0.00000000000E+00 -0.00000000000E+00 -0.15462991407E+03  0.15462991407E+03  0.00000000000E+00 0.  1.
        -24    2    1    2    0    0 -0.14009097571E+03 -0.18458769462E+02  0.42571561246E+03  0.45557696510E+03  0.79689276501E+02 0.  0.
        254    2    1    2    0    0  0.14009097571E+03  0.18458769462E+02  0.13468166845E+04  0.16262151600E+04  0.90038567144E+03 0.  0.
         23    2    4    4    0    0  0.11762281061E+01  0.42155071027E+03  0.41938562476E+03  0.60191054390E+03  0.93303889337E+02 0.  0.
         23    2    4    4    0    0  0.13891474760E+03 -0.40309194081E+03  0.92743105972E+03  0.10243046161E+04  0.85388267025E+02 0.  0.
          3    1    3    3  502    0 -0.11345944243E+03  0.17900593521E+02  0.33758353730E+03  0.35658956937E+03  0.00000000000E+00 0. -1.
         -4    1    3    3    0  502 -0.26631533276E+02 -0.36359362984E+02  0.88132075158E+02  0.98987395727E+02  0.00000000000E+00 0.  1.
         11    1    5    5    0    0 -0.62334367775E+01  0.40700653405E+03  0.37067924899E+03  0.55054180598E+03  0.00000000000E+00 0. -1.
        -11    1    5    5    0    0  0.74096648836E+01  0.14544176216E+02  0.48706375772E+02  0.51368737928E+02  0.00000000000E+00 0.  1.
          3    1    6    6  503    0  0.14264822065E+03 -0.35370880840E+03  0.85872574110E+03  0.93961073558E+03  0.00000000000E+00 0. -1.
         -3    1    6    6    0  503 -0.37334730445E+01 -0.49383132406E+02  0.68705318623E+02  0.84693880501E+02  0.00000000000E+00 0.  1.
<mgrwt>
<rscale>  0 0.10917819E+04</rscale>
<asrwt>0</asrwt>
<pdfrwt beam="1">  1        1 0.29648648E+00 0.10917819E+04</pdfrwt>
<pdfrwt beam="2">  1       -2 0.23789219E-01 0.10917819E+04</pdfrwt>
<totfact> 0.45976021E+01</totfact>
</mgrwt>
</event>
<event>
12    4  0.4320235E-008  0.2044996E+04  0.7818608E-02  0.8585868E-01
          1   -1    0    0  501    0  0.00000000000E+00  0.00000000000E+00  0.96102383290E+03  0.96102383290E+03  0.00000000000E+00 0. -1.
         -2   -1    0    0    0  501 -0.00000000000E+00 -0.00000000000E+00 -0.10879045882E+04  0.10879045882E+04  0.00000000000E+00 0.  1.
        -24    2    1    2    0    0 -0.26968854138E+03 -0.19816100947E+03  0.69426783415E+03  0.77484843134E+03  0.79890994441E+02 0.  0.
        254    2    1    2    0    0  0.26968854138E+03  0.19816100947E+03 -0.82114858948E+03  0.12740799898E+04  0.91487437353E+03 0.  0.
         23    2    4    4    0    0 -0.15637903103E+02 -0.89053244145E+02 -0.84830772116E+03  0.85819075212E+03  0.93222062457E+02 0.  0.
         23    2    4    4    0    0  0.28532644448E+03  0.28721425362E+03  0.27159131680E+02  0.41588923767E+03  0.91230653692E+02 0.  0.
          1    1    3    3  502    0 -0.76568127238E+02 -0.39825319354E+02  0.25932682235E+03  0.27331142486E+03  0.00000000000E+00 0. -1.
         -2    1    3    3    0  502 -0.19312041414E+03 -0.15833569012E+03  0.43494101180E+03  0.50153700648E+03  0.00000000000E+00 0.  1.
         11    1    5    5    0    0 -0.30236977267E+02 -0.47549010891E+02 -0.72647715366E+03  0.72865920568E+03  0.00000000000E+00 0.  1.
        -11    1    5    5    0    0  0.14599074164E+02 -0.41504233255E+02 -0.12183056750E+03  0.12953154643E+03  0.00000000000E+00 0. -1.
          4    1    6    6  503    0  0.20705286044E+03  0.15520115557E+03 -0.61768329618E+01  0.25883670330E+03  0.00000000000E+00 0.  1.
         -4    1    6    6    0  503  0.78273584040E+02  0.13201309804E+03  0.33335964642E+02  0.15705253437E+03  0.00000000000E+00 0. -1.
<mgrwt>
<rscale>  0 0.20449961E+04</rscale>
<asrwt>0</asrwt>
<pdfrwt beam="1">  1        1 0.14784982E+00 0.20449961E+04</pdfrwt>
<pdfrwt beam="2">  1       -2 0.16736994E+00 0.20449961E+04</pdfrwt>
<totfact> 0.29277078E+00</totfact>
</mgrwt>
</event>
<event>
12    4  0.4320235E-008  0.1701013E+04  0.7818608E-02  0.8760787E-01
         -2   -1    0    0    0  501 -0.00000000000E+00  0.00000000000E+00  0.26171069055E+03  0.26171069055E+03  0.00000000000E+00 0.  1.
          1   -1    0    0  501    0  0.00000000000E+00 -0.00000000000E+00 -0.27639725530E+04  0.27639725530E+04  0.00000000000E+00 0. -1.
        -24    2    1    2    0    0  0.52451993464E+03 -0.63380403834E+02 -0.14317976859E+04  0.15281940713E+04  0.78703676500E+02 0.  0.
        254    2    1    2    0    0 -0.52451993464E+03  0.63380403834E+02 -0.10704641765E+04  0.14974891723E+04  0.90412500818E+03 0.  0.
         23    2    4    4    0    0 -0.66642418370E+03 -0.20916039139E+03 -0.86879291022E+03  0.11182855190E+04  0.88837600275E+02 0.  0.
         23    2    4    4    0    0  0.14190424906E+03  0.27254079523E+03 -0.20167126632E+03  0.37920365327E+03  0.93321005292E+02 0.  0.
          3    1    3    3  502    0  0.44025993667E+03 -0.75308534841E+02 -0.12516509386E+04  0.13289583362E+04  0.00000000000E+00 0. -1.
         -4    1    3    3    0  502  0.84259997968E+02  0.11928131008E+02 -0.18014674734E+03  0.19923573511E+03  0.00000000000E+00 0.  1.
         11    1    5    5    0    0 -0.32776228551E+03 -0.12530331959E+03 -0.37381108119E+03  0.51270241088E+03  0.00000000000E+00 0. -1.
        -11    1    5    5    0    0 -0.33866189820E+03 -0.83857071804E+02 -0.49498182903E+03  0.60558310813E+03  0.00000000000E+00 0.  1.
          2    1    6    6  503    0  0.25117236780E+01  0.64125982216E+02 -0.13160649647E+02  0.65510709430E+02  0.00000000000E+00 0. -1.
         -2    1    6    6    0  503  0.13939252539E+03  0.20841481301E+03 -0.18851061667E+03  0.31369294384E+03  0.00000000000E+00 0.  1.
<mgrwt>
<rscale>  0 0.17010128E+04</rscale>
<asrwt>0</asrwt>
<pdfrwt beam="1">  1        1 0.42522655E+00 0.17010128E+04</pdfrwt>
<pdfrwt beam="2">  1       -2 0.40263182E-01 0.17010128E+04</pdfrwt>
<totfact> 0.43253128E+00</totfact>
</mgrwt>
</event>
<event>
12    4  0.4320235E-008  0.1279476E+04  0.7818608E-02  0.9046001E-01
         -2   -1    0    0    0  501 -0.00000000000E+00  0.00000000000E+00  0.14143094169E+03  0.14143094169E+03  0.00000000000E+00 0.  1.
          1   -1    0    0  501    0  0.00000000000E+00 -0.00000000000E+00 -0.28937403655E+04  0.28937403655E+04  0.00000000000E+00 0. -1.
        -24    2    1    2    0    0 -0.22235205666E+02  0.67874719146E+02 -0.10516921199E+04  0.10571179753E+04  0.79628617767E+02 0.  0.
        254    2    1    2    0    0  0.22235205666E+02 -0.67874719146E+02 -0.17006173039E+04  0.19780533319E+04  0.10077174146E+04 0.  0.
         23    2    4    4    0    0 -0.35089009808E+03 -0.14313179755E+03 -0.14753905493E+04  0.15259708301E+04  0.90549043085E+02 0.  0.
         23    2    4    4    0    0  0.37312530375E+03  0.75257078400E+02 -0.22522675466E+03  0.45208250176E+03  0.93623593407E+02 0.  0.
          1    1    3    3  502    0 -0.23537850639E+02  0.36343789229E+02 -0.94152170191E+03  0.94251685215E+03  0.00000000000E+00 0. -1.
         -2    1    3    3    0  502  0.13026449731E+01  0.31530929917E+02 -0.11017041797E+03  0.11460112312E+03  0.00000000000E+00 0.  1.
         11    1    5    5    0    0 -0.16404677838E+03 -0.53484159995E+02 -0.84343173974E+03  0.86090011062E+03  0.00000000000E+00 0. -1.
        -11    1    5    5    0    0 -0.18684331970E+03 -0.89647637551E+02 -0.63195880951E+03  0.66507071952E+03  0.00000000000E+00 0.  1.
          4    1    6    6  503    0  0.75564161879E+02  0.55488885304E+02 -0.55699018205E+02  0.10904741896E+03  0.00000000000E+00 0.  1.
         -4    1    6    6    0  503  0.29756114187E+03  0.19768193095E+02 -0.16952773645E+03  0.34303508280E+03  0.00000000000E+00 0. -1.
<mgrwt>
<rscale>  0 0.12794756E+04</rscale>
<asrwt>0</asrwt>
<pdfrwt beam="1">  1        1 0.44519079E+00 0.12794756E+04</pdfrwt>
<pdfrwt beam="2">  1       -2 0.21758608E-01 0.12794756E+04</pdfrwt>
<totfact> 0.11462520E+01</totfact>
</mgrwt>
</event>
<event>
12    4  0.4320235E-008  0.1642876E+04  0.7818608E-02  0.8794632E-01
          1   -1    0    0  501    0  0.00000000000E+00  0.00000000000E+00  0.32886161441E+03  0.32886161441E+03  0.00000000000E+00 0. -1.
         -2   -1    0    0    0  501 -0.00000000000E+00 -0.00000000000E+00 -0.20518061964E+04  0.20518061964E+04  0.00000000000E+00 0.  1.
        -24    2    1    2    0    0  0.28918495901E+03 -0.48132639750E+03 -0.75125452785E+03  0.94121051789E+03  0.78681839906E+02 0.  0.
        254    2    1    2    0    0 -0.28918495901E+03  0.48132639750E+03 -0.97169005413E+03  0.14394572929E+04  0.90141704851E+03 0.  0.
         23    2    4    4    0    0 -0.76760681811E+02  0.39370202273E+02 -0.93057205504E+03  0.93901701356E+03  0.91358563044E+02 0.  0.
         23    2    4    4    0    0 -0.21242427720E+03  0.44195619523E+03 -0.41117999093E+02  0.50044027934E+03  0.91106702779E+02 0.  0.
          3    1    3    3  502    0  0.10176553415E+03 -0.20430535667E+03 -0.36256484522E+03  0.42842755478E+03  0.00000000000E+00 0. -1.
         -4    1    3    3    0  502  0.18741942486E+03 -0.27702104083E+03 -0.38868968263E+03  0.51278296311E+03  0.00000000000E+00 0.  1.
         11    1    5    5    0    0 -0.90521546337E+02  0.50697830220E+02 -0.85970795283E+03  0.86594583231E+03  0.00000000000E+00 0.  1.
        -11    1    5    5    0    0  0.13760864526E+02 -0.11327627947E+02 -0.70864102214E+02  0.73071181255E+02  0.00000000000E+00 0. -1.
          3    1    6    6  503    0 -0.57415358526E+02  0.46428794396E+02 -0.95131080533E+01  0.74449013214E+02  0.00000000000E+00 0. -1.
         -3    1    6    6    0  503 -0.15500891868E+03  0.39552740083E+03 -0.31604891040E+02  0.42599126613E+03  0.00000000000E+00 0.  1.
<mgrwt>
<rscale>  0 0.16428759E+04</rscale>
<asrwt>0</asrwt>
<pdfrwt beam="1">  1        1 0.50594095E-01 0.16428759E+04</pdfrwt>
<pdfrwt beam="2">  1       -2 0.31566249E+00 0.16428759E+04</pdfrwt>
<totfact> 0.16597874E+00</totfact>
</mgrwt>
</event>
<event>
12    4  0.4320235E-008  0.2674404E+04  0.7818608E-02  0.8343358E-01
         -2   -1    0    0    0  501 -0.00000000000E+00  0.00000000000E+00  0.18380706638E+04  0.18380706638E+04  0.00000000000E+00 0.  1.
          1   -1    0    0  501    0  0.00000000000E+00 -0.00000000000E+00 -0.97281878749E+03  0.97281878749E+03  0.00000000000E+00 0. -1.
        -24    2    1    2    0    0 -0.50552679052E+03 -0.38488940008E+03  0.14324462717E+04  0.15689811090E+04  0.78116662838E+02 0.  0.
        254    2    1    2    0    0  0.50552679052E+03  0.38488940008E+03 -0.56719439541E+03  0.12419083422E+04  0.90384161337E+03 0.  0.
         23    2    4    4    0    0  0.37749756119E+03  0.32748987923E+03 -0.80453422345E+03  0.95148760808E+03  0.91100614358E+02 0.  0.
         23    2    4    4    0    0  0.12802922933E+03  0.57399520854E+02  0.23733982803E+03  0.29042073414E+03  0.91256891736E+02 0.  0.
          3    1    3    3  502    0 -0.21413968070E+03 -0.11977444032E+03  0.51087768355E+03  0.56674308726E+03  0.00000000000E+00 0. -1.
         -4    1    3    3    0  502 -0.29138710983E+03 -0.26511495977E+03  0.92156858813E+03  0.10022380218E+04  0.00000000000E+00 0.  1.
         11    1    5    5    0    0  0.14639097280E+03  0.18009173668E+03 -0.40892040618E+03  0.47019065189E+03  0.00000000000E+00 0. -1.
        -11    1    5    5    0    0  0.23110658840E+03  0.14739814255E+03 -0.39561381727E+03  0.48129695619E+03  0.00000000000E+00 0.  1.
          3    1    6    6  503    0  0.11428428576E+03  0.78359961226E+01  0.14577174648E+03  0.18539607029E+03  0.00000000000E+00 0. -1.
         -3    1    6    6    0  503  0.13744943575E+02  0.49563524731E+02  0.91568081556E+02  0.10502466385E+03  0.00000000000E+00 0.  1.
<mgrwt>
<rscale>  0 0.26744044E+04</rscale>
<asrwt>0</asrwt>
<pdfrwt beam="1">  1        1 0.14966443E+00 0.26744044E+04</pdfrwt>
<pdfrwt beam="2">  1       -2 0.28278010E+00 0.26744044E+04</pdfrwt>
<totfact> 0.49416088E-01</totfact>
</mgrwt>
</event>
<event>
12    4  0.4320235E-008  0.1517425E+04  0.7818608E-02  0.8872948E-01
          1   -1    0    0  501    0  0.00000000000E+00  0.00000000000E+00  0.24732581380E+04  0.24732581380E+04  0.00000000000E+00 0. -1.
         -2   -1    0    0    0  501 -0.00000000000E+00 -0.00000000000E+00 -0.23274738454E+03  0.23274738454E+03  0.00000000000E+00 0.  1.
        -24    2    1    2    0    0  0.12864030072E+03  0.30014246711E+03  0.85299048658E+02  0.34637092189E+03  0.77865655436E+02 0.  0.
        254    2    1    2    0    0 -0.12864030072E+03 -0.30014246711E+03  0.21552117049E+04  0.23596346007E+04  0.90349550554E+03 0.  0.
         23    2    4    4    0    0 -0.81323341551E+02  0.29815755654E+03  0.48156659116E+03  0.57921145557E+03  0.89822681685E+02 0.  0.
         23    2    4    4    0    0 -0.47316959167E+02 -0.59830002365E+03  0.16736451137E+04  0.17804231451E+04  0.92826699655E+02 0.  0.
          3    1    3    3  502    0  0.42422699422E+02  0.86858334155E+02  0.62685669673E+02  0.11521088846E+03  0.00000000000E+00 0. -1.
         -4    1    3    3    0  502  0.86217601297E+02  0.21328413296E+03  0.22613378985E+02  0.23116003342E+03  0.00000000000E+00 0.  1.
         11    1    5    5    0    0 -0.31974441372E+02  0.52603672401E+02  0.16122811999E+03  0.17258046798E+03  0.00000000000E+00 0.  1.
        -11    1    5    5    0    0 -0.49348900179E+02  0.24555388414E+03  0.32033847117E+03  0.40663098760E+03  0.00000000000E+00 0. -1.
          3    1    6    6  503    0 -0.52836084528E+02 -0.59018619572E+03  0.16013290327E+04  0.17074443091E+04  0.00000000000E+00 0. -1.
         -3    1    6    6    0  503  0.55191253609E+01 -0.81138279325E+01  0.72316080951E+02  0.72978836060E+02  0.00000000000E+00 0.  1.
<mgrwt>
<rscale>  0 0.15174246E+04</rscale>
<asrwt>0</asrwt>
<pdfrwt beam="1">  1        1 0.38050123E+00 0.15174246E+04</pdfrwt>
<pdfrwt beam="2">  1       -2 0.35807292E-01 0.15174246E+04</pdfrwt>
<totfact> 0.88146370E+00</totfact>
</mgrwt>
</event>
<event>
12    4  0.4320235E-008  0.1856853E+04  0.7818608E-02  0.8676636E-01
          1   -1    0    0  501    0  0.00000000000E+00  0.00000000000E+00  0.10719389923E+04  0.10719389923E+04  0.00000000000E+00 0. -1.
         -2   -1    0    0    0  501 -0.00000000000E+00 -0.00000000000E+00 -0.80412797243E+03  0.80412797243E+03  0.00000000000E+00 0.  1.
        -24    2    1    2    0    0 -0.41041285858E+02  0.33123316131E+03 -0.52671959695E+03  0.62828373436E+03  0.76857808706E+02 0.  0.
        254    2    1    2    0    0  0.41041285858E+02 -0.33123316131E+03  0.79453061684E+03  0.12477832304E+04  0.90237702467E+03 0.  0.
         23    2    4    4    0    0  0.33867813372E+03 -0.48597072965E+03  0.60229933230E+03  0.84965521769E+03  0.90989421978E+02 0.  0.
         23    2    4    4    0    0 -0.29763684786E+03  0.15473756834E+03  0.19223128454E+03  0.39812801270E+03  0.94982311416E+02 0.  0.
          1    1    3    3  502    0  0.21778581286E+02  0.55820413373E+02 -0.97926440072E+02  0.11480336588E+03  0.00000000000E+00 0. -1.
         -2    1    3    3    0  502 -0.62819867144E+02  0.27541274794E+03 -0.42879315687E+03  0.51348036848E+03  0.00000000000E+00 0.  1.
         11    1    5    5    0    0 -0.58885552732E+01 -0.78598547668E+01  0.77108959773E+01  0.12486405285E+02  0.00000000000E+00 0. -1.
        -11    1    5    5    0    0  0.34456668900E+03 -0.47811087489E+03  0.59458843633E+03  0.83716881241E+03  0.00000000000E+00 0.  1.
          4    1    6    6  503    0 -0.86799411463E+02  0.52782458065E+02  0.11045050414E+03  0.15006478459E+03  0.00000000000E+00 0. -1.
         -4    1    6    6    0  503 -0.21083743640E+03  0.10195511028E+03  0.81780780399E+02  0.24806322811E+03  0.00000000000E+00 0.  1.
<mgrwt>
<rscale>  0 0.18568534E+04</rscale>
<asrwt>0</asrwt>
<pdfrwt beam="1">  1        1 0.16491369E+00 0.18568534E+04</pdfrwt>
<pdfrwt beam="2">  1       -2 0.12371200E+00 0.18568534E+04</pdfrwt>
<totfact> 0.53951172E+00</totfact>
</mgrwt>
</event>
<event>
12    4  0.4320235E-008  0.2055816E+04  0.7818608E-02  0.8580960E-01
          1   -1    0    0  501    0  0.00000000000E+00  0.00000000000E+00  0.27763280624E+04  0.27763280624E+04  0.00000000000E+00 0. -1.
         -2   -1    0    0    0  501 -0.00000000000E+00 -0.00000000000E+00 -0.38057290313E+03  0.38057290313E+03  0.00000000000E+00 0.  1.
        -24    2    1    2    0    0  0.10518651613E+03 -0.46908676457E+03 -0.67033987501E+02  0.49169648730E+03  0.78519324179E+02 0.  0.
        254    2    1    2    0    0 -0.10518651613E+03  0.46908676457E+03  0.24627891468E+04  0.26652044783E+04  0.89826384404E+03 0.  0.
         23    2    4    4    0    0  0.13397802527E+03 -0.10372921096E+03  0.91361092066E+02  0.21217154443E+03  0.89219138429E+02 0.  0.
         23    2    4    4    0    0 -0.23916454140E+03  0.57281597553E+03  0.23714280547E+04  0.24530329338E+04  0.91551821315E+02 0.  0.
          3    1    3    3  502    0  0.16791201657E+02 -0.52941429885E+02 -0.33694892313E+02  0.64962182994E+02  0.00000000000E+00 0. -1.
         -4    1    3    3    0  502  0.88395314475E+02 -0.41614533469E+03 -0.33339095188E+02  0.42673430431E+03  0.00000000000E+00 0.  1.
         11    1    5    5    0    0  0.75888417027E+02 -0.56316910593E+02  0.67925450311E+00  0.94504537691E+02  0.00000000000E+00 0. -1.
        -11    1    5    5    0    0  0.58089608245E+02 -0.47412300368E+02  0.90681837563E+02  0.11766700674E+03  0.00000000000E+00 0.  1.
          2    1    6    6  503    0 -0.58094694028E+02  0.59902833962E+02  0.30296710621E+03  0.31424896250E+03  0.00000000000E+00 0.  1.
         -2    1    6    6    0  503 -0.18106984738E+03  0.51291314157E+03  0.20684609485E+04  0.21387839713E+04  0.00000000000E+00 0. -1.
<mgrwt>
<rscale>  0 0.20558164E+04</rscale>
<asrwt>0</asrwt>
<pdfrwt beam="1">  1        1 0.42712738E+00 0.20558164E+04</pdfrwt>
<pdfrwt beam="2">  1       -2 0.58549679E-01 0.20558164E+04</pdfrwt>
<totfact> 0.19184344E+00</totfact>
</mgrwt>
</event>
<event>
12    4  0.4320235E-008  0.1731225E+04  0.7818608E-02  0.8743753E-01
          1   -1    0    0  501    0  0.00000000000E+00  0.00000000000E+00  0.13555968272E+04  0.13555968272E+04  0.00000000000E+00 0. -1.
         -2   -1    0    0    0  501 -0.00000000000E+00 -0.00000000000E+00 -0.55273439241E+03  0.55273439241E+03  0.00000000000E+00 0.  1.
        -24    2    1    2    0    0  0.26646515750E+03 -0.56645204303E+03  0.22727165506E+03  0.67076157589E+03  0.79981805900E+02 0.  0.
        254    2    1    2    0    0 -0.26646515750E+03  0.56645204303E+03  0.57559077976E+03  0.12375696438E+04  0.89911193974E+03 0.  0.
         23    2    4    4    0    0 -0.40780213239E+03  0.71029407968E+03  0.27925913418E+03  0.87036623728E+03  0.93442303967E+02 0.  0.
         23    2    4    4    0    0  0.14133697489E+03 -0.14384203665E+03  0.29633164558E+03  0.36720340647E+03  0.79744752671E+02 0.  0.
          1    1    3    3  502    0  0.16856741043E+03 -0.35272767611E+03  0.10036484241E+03  0.40361477543E+03  0.00000000000E+00 0. -1.
         -2    1    3    3    0  502  0.97897747080E+02 -0.21372436692E+03  0.12690681265E+03  0.26714680045E+03  0.00000000000E+00 0.  1.
         11    1    5    5    0    0 -0.78504940403E+02  0.85378915913E+02  0.18748460783E+02  0.11749080701E+03  0.00000000000E+00 0.  1.
        -11    1    5    5    0    0 -0.32929719199E+03  0.62491516376E+03  0.26051067340E+03  0.75287543027E+03  0.00000000000E+00 0. -1.
          4    1    6    6  503    0  0.72098225007E+02 -0.12575869576E+03  0.18866342760E+03  0.23792287095E+03  0.00000000000E+00 0. -1.
         -4    1    6    6    0  503  0.69238749882E+02 -0.18083340890E+02  0.10766821798E+03  0.12928053553E+03  0.00000000000E+00 0.  1.
<mgrwt>
<rscale>  0 0.17312250E+04</rscale>
<asrwt>0</asrwt>
<pdfrwt beam="1">  1        1 0.20855336E+00 0.17312250E+04</pdfrwt>
<pdfrwt beam="2">  1       -2 0.85036061E-01 0.17312250E+04</pdfrwt>
<totfact> 0.82773522E+00</totfact>
</mgrwt>
</event>
<event>
12    4  0.4320235E-008  0.1515076E+04  0.7818608E-02  0.8874489E-01
          1   -1    0    0  501    0  0.00000000000E+00  0.00000000000E+00  0.93329480798E+03  0.93329480798E+03  0.00000000000E+00 0. -1.
         -2   -1    0    0    0  501 -0.00000000000E+00 -0.00000000000E+00 -0.61487965158E+03  0.61487965158E+03  0.00000000000E+00 0.  1.
        -24    2    1    2    0    0 -0.36476017599E+03 -0.64675089441E+01  0.41998940914E+03  0.56213135356E+03  0.80676763736E+02 0.  0.
        254    2    1    2    0    0  0.36476017599E+03  0.64675089441E+01 -0.10157425274E+03  0.98604310600E+03  0.91042400199E+03 0.  0.
         23    2    4    4    0    0  0.22593501581E+03  0.44190251351E+03  0.17074814303E+02  0.50492783812E+03  0.91302297947E+02 0.  0.
         23    2    4    4    0    0  0.13882516018E+03 -0.43543500457E+03 -0.11864906704E+03  0.48111526788E+03  0.92294266187E+02 0.  0.
          3    1    3    3  502    0 -0.29766858218E+03  0.21494748935E+02  0.36190647591E+03  0.46908944387E+03  0.00000000000E+00 0. -1.
         -4    1    3    3    0  502 -0.67091593815E+02 -0.27962257879E+02  0.58082933236E+02  0.93041909695E+02  0.00000000000E+00 0.  1.
         11    1    5    5    0    0  0.11778521200E+03  0.29488764352E+03 -0.21929311239E+02  0.31829698893E+03  0.00000000000E+00 0. -1.
        -11    1    5    5    0    0  0.10814980381E+03  0.14701486999E+03  0.39004125542E+02  0.18663084919E+03  0.00000000000E+00 0.  1.
          4    1    6    6  503    0  0.12429432661E+03 -0.25552238077E+03 -0.53005586572E+02  0.28905078950E+03  0.00000000000E+00 0. -1.
         -4    1    6    6    0  503  0.14530833571E+02 -0.17991262380E+03 -0.65643480471E+02  0.19206447838E+03  0.00000000000E+00 0.  1.
<mgrwt>
<rscale>  0 0.15150762E+04</rscale>
<asrwt>0</asrwt>
<pdfrwt beam="1">  1        1 0.14358382E+00 0.15150762E+04</pdfrwt>
<pdfrwt beam="2">  1       -2 0.94596869E-01 0.15150762E+04</pdfrwt>
<totfact> 0.13627893E+01</totfact>
</mgrwt>
</event>
<event>
12    4  0.4320235E-008  0.1980223E+04  0.7818608E-02  0.8615923E-01
          1   -1    0    0  501    0  0.00000000000E+00  0.00000000000E+00  0.24784513100E+04  0.24784513100E+04  0.00000000000E+00 0. -1.
         -2   -1    0    0    0  501 -0.00000000000E+00 -0.00000000000E+00 -0.39553752681E+03  0.39553752681E+03  0.00000000000E+00 0.  1.
        -24    2    1    2    0    0  0.64060576793E+03 -0.80331768585E+02  0.19510139480E+03  0.67908581138E+03  0.79145701167E+02 0.  0.
        254    2    1    2    0    0 -0.64060576793E+03  0.80331768585E+02  0.18878123884E+04  0.21949030255E+04  0.91484137115E+03 0.  0.
         23    2    4    4    0    0 -0.42384291733E+03  0.29456421262E+02  0.19050819333E+04  0.19539872618E+04  0.90656204791E+02 0.  0.
         23    2    4    4    0    0 -0.21676285061E+03  0.50875347323E+02 -0.17269544866E+02  0.24091576366E+03  0.90375514547E+02 0.  0.
          3    1    3    3  502    0  0.44078091513E+01  0.33942928334E+01  0.96539614213E+01  0.11142215959E+02  0.00000000000E+00 0. -1.
         -4    1    3    3    0  502  0.63619795878E+03 -0.83726061418E+02  0.18544743338E+03  0.66794359542E+03  0.00000000000E+00 0.  1.
         11    1    5    5    0    0 -0.99956401244E+02 -0.28297584585E+02  0.39020864969E+03  0.40380047763E+03  0.00000000000E+00 0. -1.
        -11    1    5    5    0    0 -0.32388651608E+03  0.57754005847E+02  0.15148732836E+04  0.15501867842E+04  0.00000000000E+00 0.  1.
          1    1    6    6  503    0 -0.17785410524E+03  0.37406038935E+02 -0.49796647204E+02  0.18844362704E+03  0.00000000000E+00 0. -1.
         -1    1    6    6    0  503 -0.38908745370E+02  0.13469308387E+02  0.32527102339E+02  0.52472136618E+02  0.00000000000E+00 0.  1.
<mgrwt>
<rscale>  0 0.19802227E+04</rscale>
<asrwt>0</asrwt>
<pdfrwt beam="1">  1        1 0.38130019E+00 0.19802227E+04</pdfrwt>
<pdfrwt beam="2">  1       -2 0.60851928E-01 0.19802227E+04</pdfrwt>
<totfact> 0.28785104E+00</totfact>
</mgrwt>
</event>
<event>
12    4  0.4320235E-008  0.2950628E+04  0.7818608E-02  0.8257972E-01
         -2   -1    0    0    0  501 -0.00000000000E+00  0.00000000000E+00  0.52862918571E+03  0.52862918571E+03  0.00000000000E+00 0.  1.
          1   -1    0    0  501    0  0.00000000000E+00 -0.00000000000E+00 -0.41173487289E+04  0.41173487289E+04  0.00000000000E+00 0. -1.
        -24    2    1    2    0    0 -0.61474820601E+02  0.65767651923E+03 -0.34790694927E+04  0.35424911013E+04  0.94874178542E+02 0.  0.
        254    2    1    2    0    0  0.61474820601E+02 -0.65767651923E+03 -0.10965005042E+03  0.11034868133E+04  0.87712168831E+03 0.  0.
         23    2    4    4    0    0  0.23279450462E+03 -0.73177732447E+03 -0.29268997929E+03  0.82711742582E+03  0.93618791529E+02 0.  0.
         23    2    4    4    0    0 -0.17131968402E+03  0.74100805241E+02  0.18303992887E+03  0.27636938750E+03  0.89638492380E+02 0.  0.
          3    1    3    3  502    0 -0.75741038368E+02  0.63527501856E+03 -0.33736880729E+04  0.34338145359E+04  0.00000000000E+00 0. -1.
         -4    1    3    3    0  502  0.14266217767E+02  0.22401500670E+02 -0.10538141985E+03  0.10867656532E+03  0.00000000000E+00 0.  1.
         11    1    5    5    0    0  0.13889659725E+03 -0.50423322780E+03 -0.23968142380E+03  0.57531782317E+03  0.00000000000E+00 0. -1.
        -11    1    5    5    0    0  0.93897907371E+02 -0.22754409667E+03 -0.53008555491E+02  0.25179960265E+03  0.00000000000E+00 0.  1.
          1    1    6    6  503    0 -0.11929312393E+02  0.38487746530E+02  0.17840657755E+02  0.44067042064E+02  0.00000000000E+00 0.  1.
         -1    1    6    6    0  503 -0.15939037163E+03  0.35613058711E+02  0.16519927112E+03  0.23230234544E+03  0.00000000000E+00 0. -1.
<mgrwt>
<rscale>  0 0.29506275E+04</rscale>
<asrwt>0</asrwt>
<pdfrwt beam="1">  1        1 0.63343828E+00 0.29506275E+04</pdfrwt>
<pdfrwt beam="2">  1       -2 0.81327565E-01 0.29506275E+04</pdfrwt>
<totfact> 0.75461917E-02</totfact>
</mgrwt>
</event>
<event>
12    4  0.4320235E-008  0.1948552E+04  0.7818608E-02  0.8631059E-01
          1   -1    0    0  501    0  0.00000000000E+00  0.00000000000E+00  0.85725909553E+03  0.85725909553E+03  0.00000000000E+00 0. -1.
         -2   -1    0    0    0  501 -0.00000000000E+00 -0.00000000000E+00 -0.11072659675E+04  0.11072659675E+04  0.00000000000E+00 0.  1.
        -24    2    1    2    0    0  0.56912400622E+03  0.38394982292E+03 -0.41787951844E+03  0.80772068652E+03  0.80435157306E+02 0.  0.
        254    2    1    2    0    0 -0.56912400622E+03 -0.38394982292E+03  0.16787264645E+03  0.11568043765E+04  0.91580322078E+03 0.  0.
         23    2    4    4    0    0 -0.60627588873E+03 -0.38533693769E+02 -0.19668911117E+03  0.64471675789E+03  0.88981979319E+02 0.  0.
         23    2    4    4    0    0  0.37151882509E+02 -0.34541612915E+03  0.36456175762E+03  0.51208761865E+03  0.92929486227E+02 0.  0.
          3    1    3    3  502    0  0.16352408158E+03  0.10619583371E+03 -0.16214684133E+03  0.25359274143E+03  0.00000000000E+00 0. -1.
         -4    1    3    3    0  502  0.40559992464E+03  0.27775398920E+03 -0.25573267711E+03  0.55412794508E+03  0.00000000000E+00 0.  1.
         11    1    5    5    0    0 -0.29402213154E+03  0.25081788317E+02 -0.10325558420E+03  0.31263369237E+03  0.00000000000E+00 0.  1.
        -11    1    5    5    0    0 -0.31225375719E+03 -0.63615482086E+02 -0.93433526969E+02  0.33208306551E+03  0.00000000000E+00 0. -1.
          3    1    6    6  503    0  0.19390496197E+02 -0.33754112444E+02  0.83105672485E+02  0.91770824606E+02  0.00000000000E+00 0. -1.
         -3    1    6    6    0  503  0.17761386312E+02 -0.31166201670E+03  0.28145608513E+03  0.42031679405E+03  0.00000000000E+00 0.  1.
<mgrwt>
<rscale>  0 0.19485521E+04</rscale>
<asrwt>0</asrwt>
<pdfrwt beam="1">  1        1 0.13188601E+00 0.19485521E+04</pdfrwt>
<pdfrwt beam="2">  1       -2 0.17034861E+00 0.19485521E+04</pdfrwt>
<totfact> 0.34156058E+00</totfact>
</mgrwt>
</event>
<event>
12    4  0.4320235E-008  0.1340513E+04  0.7818608E-02  0.8998041E-01
          1   -1    0    0  501    0  0.00000000000E+00  0.00000000000E+00  0.21816272616E+04  0.21816272616E+04  0.00000000000E+00 0. -1.
         -2   -1    0    0    0  501 -0.00000000000E+00 -0.00000000000E+00 -0.20592150540E+03  0.20592150540E+03  0.00000000000E+00 0.  1.
        -24    2    1    2    0    0  0.29917911573E+03  0.15428666931E+03  0.29509814986E+03  0.45466159795E+03  0.79509313837E+02 0.  0.
        254    2    1    2    0    0 -0.29917911573E+03 -0.15428666931E+03  0.16806076063E+04  0.19328871690E+04  0.89347544014E+03 0.  0.
         23    2    4    4    0    0 -0.54260369912E+03  0.12303644025E+03  0.11427764327E+04  0.12742195612E+04  0.90226243399E+02 0.  0.
         23    2    4    4    0    0  0.24342458339E+03 -0.27732310956E+03  0.53783117360E+03  0.65866760784E+03  0.91744271857E+02 0.  0.
          1    1    3    3  502    0  0.19103637434E+03  0.12009379430E+03  0.23695183296E+03  0.32720572565E+03  0.00000000000E+00 0. -1.
         -2    1    3    3    0  502  0.10814274139E+03  0.34192875002E+02  0.58146316895E+02  0.12745587230E+03  0.00000000000E+00 0.  1.
         11    1    5    5    0    0 -0.42331904378E+03  0.68001263083E+02  0.81046660707E+03  0.91688565578E+03  0.00000000000E+00 0. -1.
        -11    1    5    5    0    0 -0.11928465535E+03  0.55035177169E+02  0.33230982567E+03  0.35733390542E+03  0.00000000000E+00 0.  1.
          4    1    6    6  503    0  0.12957291235E+03 -0.10371705666E+03  0.17899195567E+03  0.24409933972E+03  0.00000000000E+00 0. -1.
         -4    1    6    6    0  503  0.11385167104E+03 -0.17360605290E+03  0.35883921794E+03  0.41456826812E+03  0.00000000000E+00 0.  1.
<mgrwt>
<rscale>  0 0.13405133E+04</rscale>
<asrwt>0</asrwt>
<pdfrwt beam="1">  1        1 0.33563495E+00 0.13405133E+04</pdfrwt>
<pdfrwt beam="2">  1       -2 0.31680233E-01 0.13405133E+04</pdfrwt>
<totfact> 0.17887847E+01</totfact>
</mgrwt>
</event>
<event>
12    4  0.4320235E-008  0.1221743E+04  0.7818608E-02  0.9094035E-01
          1   -1    0    0  501    0  0.00000000000E+00  0.00000000000E+00  0.83003689234E+03  0.83003689234E+03  0.00000000000E+00 0. -1.
         -2   -1    0    0    0  501 -0.00000000000E+00 -0.00000000000E+00 -0.44957552709E+03  0.44957552709E+03  0.00000000000E+00 0.  1.
        -24    2    1    2    0    0  0.25383830852E+03  0.93554993540E+02  0.56806400624E+02  0.28777421340E+03  0.80003794035E+02 0.  0.
        254    2    1    2    0    0 -0.25383830852E+03 -0.93554993540E+02  0.32365496463E+03  0.99183820602E+03  0.89766589949E+03 0.  0.
         23    2    4    4    0    0 -0.21023281610E+02  0.30933250189E+03 -0.11837418564E+03  0.34377493180E+03  0.89667055346E+02 0.  0.
         23    2    4    4    0    0 -0.23281502691E+03 -0.40288749543E+03  0.44202915027E+03  0.64806327422E+03  0.89861376500E+02 0.  0.
          3    1    3    3  502    0 -0.28513939617E+01 -0.30509445949E+00 -0.66068574756E+01  0.72023673786E+01  0.00000000000E+00 0. -1.
         -4    1    3    3    0  502  0.25668970248E+03  0.93860088000E+02  0.63413258100E+02  0.28057184602E+03  0.00000000000E+00 0.  1.
         11    1    5    5    0    0  0.15752909052E+02  0.19403927302E+02  0.67126418634E+01  0.25879066814E+02  0.00000000000E+00 0. -1.
        -11    1    5    5    0    0 -0.36776190662E+02  0.28992857458E+03 -0.12508682750E+03  0.31789586498E+03  0.00000000000E+00 0.  1.
          3    1    6    6  503    0 -0.70004246438E+02 -0.11212581660E+03  0.73638014991E+02  0.15131209641E+03  0.00000000000E+00 0. -1.
         -3    1    6    6    0  503 -0.16281078047E+03 -0.29076167883E+03  0.36839113528E+03  0.49675117782E+03  0.00000000000E+00 0.  1.
<mgrwt>
<rscale>  0 0.12217435E+04</rscale>
<asrwt>0</asrwt>
<pdfrwt beam="1">  1        1 0.12769798E+00 0.12217435E+04</pdfrwt>
<pdfrwt beam="2">  1       -2 0.69165466E-01 0.12217435E+04</pdfrwt>
<totfact> 0.34418018E+01</totfact>
</mgrwt>
</event>
<event>
12    4  0.4320235E-008  0.4453870E+04  0.7818608E-02  0.7918763E-01
          1   -1    0    0  501    0  0.00000000000E+00  0.00000000000E+00  0.29182313291E+04  0.29182313291E+04  0.00000000000E+00 0. -1.
         -2   -1    0    0    0  501 -0.00000000000E+00 -0.00000000000E+00 -0.16993989752E+04  0.16993989752E+04  0.00000000000E+00 0.  1.
        -24    2    1    2    0    0  0.90762352017E+03  0.67037349223E+03 -0.12949586208E+04  0.17194160691E+04  0.79326639145E+02 0.  0.
        254    2    1    2    0    0 -0.90762352017E+03 -0.67037349223E+03  0.25137909747E+04  0.28982142351E+04  0.89850966299E+03 0.  0.
         23    2    4    4    0    0 -0.87000417855E+03 -0.29858330970E+03  0.11195474472E+04  0.14518216045E+04  0.91324811611E+02 0.  0.
         23    2    4    4    0    0 -0.37619341620E+02 -0.37179018253E+03  0.13942435275E+04  0.14463926306E+04  0.92160040904E+02 0.  0.
          1    1    3    3  502    0  0.55384315870E+03  0.44651935777E+03 -0.85088001267E+03  0.11091071081E+04  0.00000000000E+00 0. -1.
         -2    1    3    3    0  502  0.35378036147E+03  0.22385413445E+03 -0.44407860816E+03  0.61030896101E+03  0.00000000000E+00 0.  1.
         11    1    5    5    0    0 -0.64609605028E+03 -0.21279179229E+03  0.76363044214E+03  0.10226690106E+04  0.00000000000E+00 0. -1.
        -11    1    5    5    0    0 -0.22390812827E+03 -0.85791517407E+02  0.35591700506E+03  0.42915259390E+03  0.00000000000E+00 0.  1.
          3    1    6    6  503    0 -0.56265542096E+02 -0.33257300893E+03  0.12921387835E+04  0.13354374764E+04  0.00000000000E+00 0. -1.
         -3    1    6    6    0  503  0.18646200476E+02 -0.39217173594E+02  0.10210474404E+03  0.11095515424E+03  0.00000000000E+00 0.  1.
<mgrwt>
<rscale>  0 0.44538699E+04</rscale>
<asrwt>0</asrwt>
<pdfrwt beam="1">  1        1 0.44895867E+00 0.44538699E+04</pdfrwt>
<pdfrwt beam="2">  1       -2 0.26144600E+00 0.44538699E+04</pdfrwt>
<totfact> 0.24869084E-02</totfact>
</mgrwt>
</event>
<event>
12    4  0.4320235E-008  0.1168050E+04  0.7818608E-02  0.9141292E-01
          1   -1    0    0  501    0  0.00000000000E+00  0.00000000000E+00  0.97172167018E+03  0.97172167018E+03  0.00000000000E+00 0. -1.
         -2   -1    0    0    0  501 -0.00000000000E+00 -0.00000000000E+00 -0.35101103040E+03  0.35101103040E+03  0.00000000000E+00 0.  1.
        -24    2    1    2    0    0 -0.17834189586E+03 -0.97082221425E+02  0.27744927580E+02  0.22414819843E+03  0.90784603978E+02 0.  0.
        254    2    1    2    0    0  0.17834189586E+03  0.97082221425E+02  0.59296571220E+03  0.10985845021E+04  0.90224652007E+03 0.  0.
         23    2    4    4    0    0  0.12031307142E+03  0.47343306619E+03  0.17781900935E+03  0.52786337025E+03  0.91684427534E+02 0.  0.
         23    2    4    4    0    0  0.58028824438E+02 -0.37635084477E+03  0.41514670285E+03  0.57072113189E+03  0.91479629843E+02 0.  0.
          1    1    3    3  502    0 -0.45940518019E+01 -0.78254302287E+01 -0.20955168810E+02  0.22835537438E+02  0.00000000000E+00 0. -1.
         -2    1    3    3    0  502 -0.17374784406E+03 -0.89256791196E+02  0.48700096390E+02  0.20131266100E+03  0.00000000000E+00 0.  1.
         11    1    5    5    0    0  0.49108965296E+02  0.98389638745E+02  0.86139451591E+01  0.11030145754E+03  0.00000000000E+00 0. -1.
        -11    1    5    5    0    0  0.71204106123E+02  0.37504342745E+03  0.16920506419E+03  0.41756191271E+03  0.00000000000E+00 0.  1.
          1    1    6    6  503    0  0.80388229072E+02 -0.24428856930E+03  0.25891541325E+03  0.36493336882E+03  0.00000000000E+00 0.  1.
         -1    1    6    6    0  503 -0.22359404633E+02 -0.13206227547E+03  0.15623128960E+03  0.20578776307E+03  0.00000000000E+00 0. -1.
<mgrwt>
<rscale>  0 0.11680497E+04</rscale>
<asrwt>0</asrwt>
<pdfrwt beam="1">  1        1 0.14949564E+00 0.11680497E+04</pdfrwt>
<pdfrwt beam="2">  1       -2 0.54001698E-01 0.11680497E+04</pdfrwt>
<totfact> 0.44727458E+01</totfact>
</mgrwt>
</event>
<event>
12    4  0.4320235E-008  0.1755217E+04  0.7818608E-02  0.8730484E-01
         -2   -1    0    0    0  501 -0.00000000000E+00  0.00000000000E+00  0.29812809020E+03  0.29812809020E+03  0.00000000000E+00 0.  1.
          1   -1    0    0  501    0  0.00000000000E+00 -0.00000000000E+00 -0.25834416589E+04  0.25834416589E+04  0.00000000000E+00 0. -1.
        -24    2    1    2    0    0  0.70347857836E+02 -0.62559534940E+03 -0.62963959301E+03  0.89427205198E+03  0.83415367768E+02 0.  0.
        254    2    1    2    0    0 -0.70347857836E+02  0.62559534940E+03 -0.16556739757E+04  0.19872976972E+04  0.90098693716E+03 0.  0.
         23    2    4    4    0    0  0.39531491246E+03  0.39542184711E+03 -0.94756227793E+03  0.11043406261E+04  0.95192598410E+02 0.  0.
         23    2    4    4    0    0 -0.46566277030E+03  0.23017350229E+03 -0.70811169780E+03  0.88295707102E+03  0.91484183915E+02 0.  0.
          3    1    3    3  502    0  0.50258617772E+02 -0.13799937499E+03 -0.15432471714E+03  0.21303960777E+03  0.00000000000E+00 0. -1.
         -4    1    3    3    0  502  0.20089240063E+02 -0.48759597441E+03 -0.47531487587E+03  0.68123244421E+03  0.00000000000E+00 0.  1.
         11    1    5    5    0    0  0.21882213572E+03  0.17180619797E+03 -0.53449280076E+03  0.60256373174E+03  0.00000000000E+00 0. -1.
        -11    1    5    5    0    0  0.17649277674E+03  0.22361564913E+03 -0.41306947717E+03  0.50177689439E+03  0.00000000000E+00 0.  1.
          3    1    6    6  503    0 -0.44280510248E+03  0.23837053861E+03 -0.68106747453E+03  0.84661075904E+03  0.00000000000E+00 0. -1.
         -3    1    6    6    0  503 -0.22857667818E+02 -0.81970363154E+01 -0.27044223270E+02  0.36346311982E+02  0.00000000000E+00 0.  1.
<mgrwt>
<rscale>  0 0.17552168E+04</rscale>
<asrwt>0</asrwt>
<pdfrwt beam="1">  1        1 0.39745256E+00 0.17552168E+04</pdfrwt>
<pdfrwt beam="2">  1       -2 0.45865860E-01 0.17552168E+04</pdfrwt>
<totfact> 0.44504916E+00</totfact>
</mgrwt>
</event>
<event>
12    4  0.4320235E-008  0.1246390E+04  0.7818608E-02  0.9073193E-01
          1   -1    0    0  501    0  0.00000000000E+00  0.00000000000E+00  0.19567590346E+04  0.19567590346E+04  0.00000000000E+00 0. -1.
         -2   -1    0    0    0  501 -0.00000000000E+00 -0.00000000000E+00 -0.19847712833E+03  0.19847712833E+03  0.00000000000E+00 0.  1.
        -24    2    1    2    0    0  0.18527296228E+03 -0.21592409623E+03  0.46492276050E+03  0.55092625662E+03  0.80107934207E+02 0.  0.
        254    2    1    2    0    0 -0.18527296228E+03  0.21592409623E+03  0.12933591457E+04  0.16043099063E+04  0.90558440228E+03 0.  0.
         23    2    4    4    0    0  0.35930759904E+02 -0.27549478448E+03  0.85568842365E+03  0.90416177002E+03  0.90096793512E+02 0.  0.
         23    2    4    4    0    0 -0.22120372218E+03  0.49141888071E+03  0.43767072209E+03  0.70014813627E+03  0.90709143548E+02 0.  0.
          1    1    3    3  502    0  0.14495126672E+03 -0.15222420912E+03  0.27169956317E+03  0.34351671312E+03  0.00000000000E+00 0. -1.
         -2    1    3    3    0  502  0.40321695559E+02 -0.63699887107E+02  0.19322319732E+03  0.20740954350E+03  0.00000000000E+00 0.  1.
         11    1    5    5    0    0 -0.27085985357E+02 -0.14015609518E+03  0.41160567576E+03  0.43565653207E+03  0.00000000000E+00 0.  1.
        -11    1    5    5    0    0  0.63016745262E+02 -0.13533868930E+03  0.44408274789E+03  0.46850523795E+03  0.00000000000E+00 0. -1.
          3    1    6    6  503    0 -0.20517400856E+03  0.48812041388E+03  0.41825804504E+03  0.67475751532E+03  0.00000000000E+00 0. -1.
         -3    1    6    6    0  503 -0.16029713622E+02  0.32984668298E+01  0.19412677045E+02  0.25390620952E+02  0.00000000000E+00 0.  1.
<mgrwt>
<rscale>  0 0.12463898E+04</rscale>
<asrwt>0</asrwt>
<pdfrwt beam="1">  1        1 0.30103984E+00 0.12463898E+04</pdfrwt>
<pdfrwt beam="2">  1       -2 0.30534944E-01 0.12463898E+04</pdfrwt>
<totfact> 0.27426717E+01</totfact>
</mgrwt>
</event>
<event>
12    4  0.4320235E-008  0.1508598E+04  0.7818608E-02  0.8878755E-01
         -2   -1    0    0    0  501 -0.00000000000E+00  0.00000000000E+00  0.46711441631E+03  0.46711441631E+03  0.00000000000E+00 0.  1.
          1   -1    0    0  501    0  0.00000000000E+00 -0.00000000000E+00 -0.12180464763E+04  0.12180464763E+04  0.00000000000E+00 0. -1.
        -24    2    1    2    0    0 -0.66086683452E+01  0.40633361452E+03  0.29562675516E+02  0.41482850965E+03  0.77833539338E+02 0.  0.
        254    2    1    2    0    0  0.66086683452E+01 -0.40633361452E+03 -0.78049473550E+03  0.12703323830E+04  0.91619956901E+03 0.  0.
         23    2    4    4    0    0 -0.13802973539E+03 -0.28038450603E+03  0.11735562180E+03  0.34764823293E+03  0.97052938220E+02 0.  0.
         23    2    4    4    0    0  0.14463840373E+03 -0.12594910849E+03 -0.89785035729E+03  0.92268415002E+03  0.91800494827E+02 0.  0.
          1    1    3    3  502    0 -0.26658974332E+02  0.27814452634E+03 -0.87064042154E+01  0.27955478876E+03  0.00000000000E+00 0. -1.
         -2    1    3    3    0  502  0.20050305986E+02  0.12818908818E+03  0.38269079731E+02  0.13527372089E+03  0.00000000000E+00 0.  1.
         11    1    5    5    0    0  0.13327238391E+02 -0.10605194090E+02  0.12104583343E+02  0.20895127727E+02  0.00000000000E+00 0.  1.
        -11    1    5    5    0    0 -0.15135697378E+03 -0.26977931194E+03  0.10525103846E+03  0.32675310520E+03  0.00000000000E+00 0. -1.
          1    1    6    6  503    0  0.12985339937E+03 -0.56624546265E+02 -0.58620969915E+03  0.60308378849E+03  0.00000000000E+00 0. -1.
         -1    1    6    6    0  503  0.14785004362E+02 -0.69324562227E+02 -0.31164065815E+03  0.31960036153E+03  0.00000000000E+00 0.  1.
<mgrwt>
<rscale>  0 0.15085981E+04</rscale>
<asrwt>0</asrwt>
<pdfrwt beam="1">  1        1 0.18739176E+00 0.15085981E+04</pdfrwt>
<pdfrwt beam="2">  1       -2 0.71863757E-01 0.15085981E+04</pdfrwt>
<totfact> 0.15423433E+01</totfact>
</mgrwt>
</event>
<event>
12    4  0.4320235E-008  0.1568162E+04  0.7818608E-02  0.8840349E-01
         -4   -1    0    0    0  501 -0.00000000000E+00  0.00000000000E+00  0.13626267324E+04  0.13626267324E+04  0.00000000000E+00 0.  1.
          3   -1    0    0  501    0  0.00000000000E+00 -0.00000000000E+00 -0.45117501412E+03  0.45117501412E+03  0.00000000000E+00 0. -1.
        -24    2    1    2    0    0  0.43612054923E+03 -0.33503560386E+03  0.28439455901E+03  0.62385321210E+03  0.76567458777E+02 0.  0.
        254    2    1    2    0    0 -0.43612054923E+03  0.33503560386E+03  0.62705715927E+03  0.11899485344E+04  0.84872071040E+03 0.  0.
         23    2    4    4    0    0 -0.33796707292E+03  0.22763503273E+03  0.82672205078E+03  0.92625326947E+03  0.91849439046E+02 0.  0.
         23    2    4    4    0    0 -0.98153476311E+02  0.10740057113E+03 -0.19966489151E+03  0.26369526495E+03  0.92196183579E+02 0.  0.
          1    1    3    3  502    0  0.16719086935E+03 -0.17389226911E+03  0.11035570632E+03  0.26527285946E+03  0.00000000000E+00 0. -1.
         -2    1    3    3    0  502  0.26892967988E+03 -0.16114333475E+03  0.17403885269E+03  0.35858035264E+03  0.00000000000E+00 0.  1.
         11    1    5    5    0    0 -0.84972553395E+02  0.20004284624E+02  0.13139159641E+03  0.15774744955E+03  0.00000000000E+00 0.  1.
        -11    1    5    5    0    0 -0.25299451952E+03  0.20763074811E+03  0.69533045437E+03  0.76850581991E+03  0.00000000000E+00 0. -1.
          2    1    6    6  503    0 -0.64265651838E+02  0.38741793104E+02 -0.16163463848E+03  0.17820425611E+03  0.00000000000E+00 0. -1.
         -2    1    6    6    0  503 -0.33887824474E+02  0.68658778024E+02 -0.38030253026E+02  0.85491008840E+02  0.00000000000E+00 0.  1.
<mgrwt>
<rscale>  0 0.15681622E+04</rscale>
<asrwt>0</asrwt>
<pdfrwt beam="1">  1        3 0.69411541E-01 0.15681622E+04</pdfrwt>
<pdfrwt beam="2">  1       -4 0.20963488E+00 0.15681622E+04</pdfrwt>
<totfact> 0.49740386E-01</totfact>
</mgrwt>
</event>
<event>
12    4  0.4320235E-008  0.1674524E+04  0.7818608E-02  0.8776029E-01
          1   -1    0    0  501    0  0.00000000000E+00  0.00000000000E+00  0.11881837914E+04  0.11881837914E+04  0.00000000000E+00 0. -1.
         -2   -1    0    0    0  501 -0.00000000000E+00 -0.00000000000E+00 -0.58998224407E+03  0.58998224407E+03  0.00000000000E+00 0.  1.
        -24    2    1    2    0    0  0.10638460278E+03 -0.23307251241E+03 -0.33587068854E+03  0.43030243991E+03  0.81918194693E+02 0.  0.
        254    2    1    2    0    0 -0.10638460278E+03  0.23307251241E+03  0.93407223587E+03  0.13478635956E+04  0.93733923991E+03 0.  0.
         23    2    4    4    0    0  0.23852578444E+03  0.40666906480E+03  0.79212397693E+03  0.92633898623E+03  0.91483574800E+02 0.  0.
         23    2    4    4    0    0 -0.34491038722E+03 -0.17359655239E+03  0.14194825893E+03  0.42152460934E+03  0.91840894202E+02 0.  0.
          3    1    3    3  502    0  0.70225861025E+02 -0.18558483164E+03 -0.19919332903E+03  0.28116077896E+03  0.00000000000E+00 0. -1.
         -4    1    3    3    0  502  0.36158741753E+02 -0.47487680770E+02 -0.13667735951E+03  0.14914166096E+03  0.00000000000E+00 0.  1.
         11    1    5    5    0    0  0.26831332479E+02  0.54613001031E+02  0.17240096190E+03  0.18282393702E+03  0.00000000000E+00 0. -1.
        -11    1    5    5    0    0  0.21169445196E+03  0.35205606377E+03  0.61972301503E+03  0.74351504920E+03  0.00000000000E+00 0.  1.
          1    1    6    6  503    0 -0.16894933161E+03 -0.65579098651E+02  0.21531059311E+02  0.18250501731E+03  0.00000000000E+00 0. -1.
         -1    1    6    6    0  503 -0.17596105561E+03 -0.10801745374E+03  0.12041719962E+03  0.23901959202E+03  0.00000000000E+00 0.  1.
<mgrwt>
<rscale>  0 0.16745236E+04</rscale>
<asrwt>0</asrwt>
<pdfrwt beam="1">  1        1 0.18279751E+00 0.16745236E+04</pdfrwt>
<pdfrwt beam="2">  1       -2 0.90766499E-01 0.16745236E+04</pdfrwt>
<totfact> 0.94487943E+00</totfact>
</mgrwt>
</event>
<event>
12    4  0.4320235E-008  0.2167534E+04  0.7818608E-02  0.8532064E-01
          1   -1    0    0  501    0  0.00000000000E+00  0.00000000000E+00  0.27962091911E+04  0.27962091911E+04  0.00000000000E+00 0. -1.
         -4   -1    0    0    0  501 -0.00000000000E+00 -0.00000000000E+00 -0.42005132820E+03  0.42005132820E+03  0.00000000000E+00 0.  1.
        -24    2    1    2    0    0  0.29659680104E+03  0.18784207802E+03  0.22069706242E+04  0.22361878547E+04  0.81009117249E+02 0.  0.
        254    2    1    2    0    0 -0.29659680104E+03 -0.18784207802E+03  0.16918723876E+03  0.98007266458E+03  0.89925735884E+03 0.  0.
         23    2    4    4    0    0 -0.10727526347E+03  0.32148118735E+03  0.23887837862E+03  0.42483887130E+03  0.92558364433E+02 0.  0.
         23    2    4    4    0    0 -0.18932153757E+03 -0.50932326536E+03 -0.69691139866E+02  0.55523379327E+03  0.90415026351E+02 0.  0.
          1    1    3    3  502    0  0.17832725930E+03  0.15812171373E+03  0.14486797504E+04  0.14681539793E+04  0.00000000000E+00 0. -1.
         -2    1    3    3    0  502  0.11826954174E+03  0.29720364289E+02  0.75829087379E+03  0.76803387544E+03  0.00000000000E+00 0.  1.
         11    1    5    5    0    0 -0.98070625488E+02  0.17872605342E+03  0.10683668887E+03  0.23016282898E+03  0.00000000000E+00 0.  1.
        -11    1    5    5    0    0 -0.92046379858E+01  0.14275513393E+03  0.13204168975E+03  0.19467604233E+03  0.00000000000E+00 0. -1.
          4    1    6    6  503    0  0.83519880827E+01 -0.11995276740E+02  0.36330072457E+01  0.15061245322E+02  0.00000000000E+00 0. -1.
         -4    1    6    6    0  503 -0.19767352565E+03 -0.49732798862E+03 -0.73324147111E+02  0.54017254795E+03  0.00000000000E+00 0.  1.
<mgrwt>
<rscale>  0 0.21675344E+04</rscale>
<asrwt>0</asrwt>
<pdfrwt beam="1">  1        1 0.43018602E+00 0.21675344E+04</pdfrwt>
<pdfrwt beam="2">  1       -4 0.64623283E-01 0.21675344E+04</pdfrwt>
<totfact> 0.84948015E-01</totfact>
</mgrwt>
</event>
<event>
12    4  0.4320235E-008  0.1896784E+04  0.7818608E-02  0.8656459E-01
          1   -1    0    0  501    0  0.00000000000E+00  0.00000000000E+00  0.27562949125E+04  0.27562949125E+04  0.00000000000E+00 0. -1.
         -2   -1    0    0    0  501 -0.00000000000E+00 -0.00000000000E+00 -0.32632480670E+03  0.32632480670E+03  0.00000000000E+00 0.  1.
        -24    2    1    2    0    0  0.17428283890E+03  0.30163099808E+02 -0.20763384828E+03  0.28284162106E+03  0.74854840362E+02 0.  0.
        254    2    1    2    0    0 -0.17428283890E+03 -0.30163099808E+02  0.26376039540E+04  0.27997780981E+04  0.92223557711E+03 0.  0.
         23    2    4    4    0    0 -0.10636070127E+03  0.23727290307E+03  0.18668532722E+03  0.33169271974E+03  0.86934570922E+02 0.  0.
         23    2    4    4    0    0 -0.67922137628E+02 -0.26743600287E+03  0.24509186268E+04  0.24680853784E+04  0.91147612092E+02 0.  0.
          1    1    3    3  502    0  0.10947156436E+03  0.12752859571E+02 -0.17827511162E+03  0.20959168460E+03  0.00000000000E+00 0. -1.
         -2    1    3    3    0  502  0.64811274537E+02  0.17410240237E+02 -0.29358736657E+02  0.73249936453E+02  0.00000000000E+00 0.  1.
         11    1    5    5    0    0 -0.38546632219E+01  0.67889438075E+02  0.14996096399E+02  0.69632730363E+02  0.00000000000E+00 0. -1.
        -11    1    5    5    0    0 -0.10250603805E+03  0.16938346499E+03  0.17168923083E+03  0.26205998938E+03  0.00000000000E+00 0.  1.
          4    1    6    6  503    0  0.30162951871E+01  0.67097548345E+01  0.70406999098E+02  0.70790284423E+02  0.00000000000E+00 0. -1.
         -4    1    6    6    0  503 -0.70938432815E+02 -0.27414575771E+03  0.23805116277E+04  0.23972950939E+04  0.00000000000E+00 0.  1.
<mgrwt>
<rscale>  0 0.18967840E+04</rscale>
<asrwt>0</asrwt>
<pdfrwt beam="1">  1        1 0.42404536E+00 0.18967840E+04</pdfrwt>
<pdfrwt beam="2">  1       -2 0.50203818E-01 0.18967840E+04</pdfrwt>
<totfact> 0.27663566E+00</totfact>
</mgrwt>
</event>
<event>
12    4  0.4320235E-008  0.2083880E+04  0.7818608E-02  0.8568378E-01
          3   -1    0    0  501    0  0.00000000000E+00  0.00000000000E+00  0.23175489026E+04  0.23175489026E+04  0.00000000000E+00 0. -1.
         -2   -1    0    0    0  501 -0.00000000000E+00 -0.00000000000E+00 -0.46844256885E+03  0.46844256885E+03  0.00000000000E+00 0.  1.
        -24    2    1    2    0    0 -0.45234544663E+01 -0.80290544316E+03  0.41244966874E+03  0.90642378276E+03  0.82533220054E+02 0.  0.
        254    2    1    2    0    0  0.45234544663E+01  0.80290544316E+03  0.14366566651E+04  0.18795676887E+04  0.90780763989E+03 0.  0.
         23    2    4    4    0    0  0.29112093523E+03  0.52456220377E+03  0.13213506778E+04  0.14540704892E+04  0.91850254043E+02 0.  0.
         23    2    4    4    0    0 -0.28659748077E+03  0.27834323938E+03  0.11530598724E+03  0.42549719957E+03  0.90218186952E+02 0.  0.
          1    1    3    3  502    0  0.65797791998E+01 -0.56110982171E+03  0.24622019548E+03  0.61279026606E+03  0.00000000000E+00 0. -1.
         -2    1    3    3    0  502 -0.11103233666E+02 -0.24179562145E+03  0.16622947326E+03  0.29363351670E+03  0.00000000000E+00 0.  1.
         11    1    5    5    0    0  0.16699160584E+02  0.97667445475E+02  0.19819124812E+03  0.22157969831E+03  0.00000000000E+00 0.  1.
        -11    1    5    5    0    0  0.27442177465E+03  0.42689475830E+03  0.11231594297E+04  0.12324907909E+04  0.00000000000E+00 0. -1.
          2    1    6    6  503    0 -0.22575904391E+03  0.21394360661E+03  0.49057532645E+02  0.31487402914E+03  0.00000000000E+00 0. -1.
         -2    1    6    6    0  503 -0.60838436855E+02  0.64399632776E+02  0.66248454593E+02  0.11062317043E+03  0.00000000000E+00 0.  1.
<mgrwt>
<rscale>  0 0.20838796E+04</rscale>
<asrwt>0</asrwt>
<pdfrwt beam="1">  1        3 0.35654598E+00 0.20838796E+04</pdfrwt>
<pdfrwt beam="2">  1       -2 0.72068089E-01 0.20838796E+04</pdfrwt>
<totfact> 0.12491756E-01</totfact>
</mgrwt>
</event>
<event>
12    4  0.4320235E-008  0.1415339E+04  0.7818608E-02  0.8942790E-01
          1   -1    0    0  501    0  0.00000000000E+00  0.00000000000E+00  0.15938787368E+04  0.15938787368E+04  0.00000000000E+00 0. -1.
         -2   -1    0    0    0  501 -0.00000000000E+00 -0.00000000000E+00 -0.31419945924E+03  0.31419945924E+03  0.00000000000E+00 0.  1.
        -24    2    1    2    0    0 -0.19672933562E+03 -0.13431937546E+03 -0.70174280299E+02  0.26097995809E+03  0.80261963536E+02 0.  0.
        254    2    1    2    0    0  0.19672933562E+03  0.13431937546E+03  0.13498535579E+04  0.16470982380E+04  0.91328191251E+03 0.  0.
         23    2    4    4    0    0  0.47068416128E+03 -0.16365060561E+03  0.56037246028E+03  0.75525730007E+03  0.89839827881E+02 0.  0.
         23    2    4    4    0    0 -0.27395482566E+03  0.29796998107E+03  0.78948109759E+03  0.89184093790E+03  0.90898288999E+02 0.  0.
          3    1    3    3  502    0 -0.71700711960E+02 -0.38655551069E+02  0.13701830365E+02  0.82601355191E+02  0.00000000000E+00 0. -1.
         -4    1    3    3    0  502 -0.12502862366E+03 -0.95663824390E+02 -0.83876110664E+02  0.17837860290E+03  0.00000000000E+00 0.  1.
         11    1    5    5    0    0 -0.33983380861E+01 -0.57906738608E+00  0.13338308138E+00  0.34499002640E+01  0.00000000000E+00 0.  1.
        -11    1    5    5    0    0  0.47408249937E+03 -0.16307153822E+03  0.56023907720E+03  0.75180739981E+03  0.00000000000E+00 0. -1.
          2    1    6    6  503    0 -0.26994775850E+03  0.30258857588E+03  0.75677918711E+03  0.85857228968E+03  0.00000000000E+00 0. -1.
         -2    1    6    6    0  503 -0.40070671679E+01 -0.46185948080E+01  0.32701910479E+02  0.33268648219E+02  0.00000000000E+00 0.  1.
<mgrwt>
<rscale>  0 0.14153386E+04</rscale>
<asrwt>0</asrwt>
<pdfrwt beam="1">  1        1 0.24521211E+00 0.14153386E+04</pdfrwt>
<pdfrwt beam="2">  1       -2 0.48338379E-01 0.14153386E+04</pdfrwt>
<totfact> 0.19522138E+01</totfact>
</mgrwt>
</event>
<event>
12    4  0.4320235E-008  0.1481351E+04  0.7818608E-02  0.8896950E-01
         -2   -1    0    0    0  501 -0.00000000000E+00  0.00000000000E+00  0.47327719921E+03  0.47327719921E+03  0.00000000000E+00 0.  1.
          1   -1    0    0  501    0  0.00000000000E+00 -0.00000000000E+00 -0.11591517052E+04  0.11591517052E+04  0.00000000000E+00 0. -1.
        -24    2    1    2    0    0 -0.32891044700E+03 -0.31053337789E+03 -0.32678919455E+03  0.56378794285E+03  0.80328114018E+02 0.  0.
        254    2    1    2    0    0  0.32891044700E+03  0.31053337789E+03 -0.35908531149E+03  0.10686409616E+04  0.89913190521E+03 0.  0.
         23    2    4    4    0    0  0.51423972435E+03  0.42870756386E+03 -0.49082839142E+02  0.67760975466E+03  0.92266923054E+02 0.  0.
         23    2    4    4    0    0 -0.18532927736E+03 -0.11817418597E+03 -0.31000247235E+03  0.39103120695E+03  0.92150923334E+02 0.  0.
          1    1    3    3  502    0 -0.24918136215E+02 -0.61009155314E+01 -0.40602424316E+01  0.25973452820E+02  0.00000000000E+00 0. -1.
         -4    1    3    3    0  502 -0.30399231078E+03 -0.30443246236E+03 -0.32272895212E+03  0.53781449003E+03  0.00000000000E+00 0.  1.
         11    1    5    5    0    0  0.67652190792E+02  0.85100077493E+02 -0.34086657457E+02  0.11393306072E+03  0.00000000000E+00 0. -1.
        -11    1    5    5    0    0  0.44658753356E+03  0.34360748637E+03 -0.14996181684E+02  0.56367669394E+03  0.00000000000E+00 0.  1.
          2    1    6    6  503    0 -0.19422359005E+03 -0.11374103537E+03 -0.30696265198E+03  0.38063879961E+03  0.00000000000E+00 0.  1.
         -2    1    6    6    0  503  0.88943126894E+01 -0.44331506027E+01 -0.30398203687E+01  0.10392407342E+02  0.00000000000E+00 0. -1.
<mgrwt>
<rscale>  0 0.14813508E+04</rscale>
<asrwt>0</asrwt>
<pdfrwt beam="1">  1        1 0.17833103E+00 0.14813508E+04</pdfrwt>
<pdfrwt beam="2">  1       -2 0.72811877E-01 0.14813508E+04</pdfrwt>
<totfact> 0.16588958E+01</totfact>
</mgrwt>
</event>
<event>
12    4  0.4320235E-008  0.2529217E+04  0.7818608E-02  0.8392650E-01
          1   -1    0    0  501    0  0.00000000000E+00  0.00000000000E+00  0.10425989841E+04  0.10425989841E+04  0.00000000000E+00 0. -1.
         -2   -1    0    0    0  501 -0.00000000000E+00 -0.00000000000E+00 -0.15338929353E+04  0.15338929353E+04  0.00000000000E+00 0.  1.
        -24    2    1    2    0    0 -0.70485257417E+03  0.84346550323E+03 -0.32507877958E+03  0.11489640943E+04  0.78683356206E+02 0.  0.
        254    2    1    2    0    0  0.70485257417E+03 -0.84346550323E+03 -0.16621517161E+03  0.14275278250E+04  0.89552051988E+03 0.  0.
         23    2    4    4    0    0  0.21439418653E+02  0.94284238591E+01 -0.30765654236E+03  0.32194037930E+03  0.91894047246E+02 0.  0.
         23    2    4    4    0    0  0.68341315552E+03 -0.85289392709E+03  0.14144137075E+03  0.11055874457E+04  0.88523142763E+02 0.  0.
          1    1    3    3  502    0 -0.35339383385E+03  0.46369661149E+03 -0.14166412469E+03  0.59997539411E+03  0.00000000000E+00 0. -1.
         -2    1    3    3    0  502 -0.35145874033E+03  0.37976889174E+03 -0.18341465490E+03  0.54898870017E+03  0.00000000000E+00 0.  1.
         11    1    5    5    0    0 -0.12056682073E+02 -0.32876797100E+02 -0.70441585633E+02  0.78665522032E+02  0.00000000000E+00 0.  1.
        -11    1    5    5    0    0  0.33496100726E+02  0.42305220959E+02 -0.23721495673E+03  0.24327485727E+03  0.00000000000E+00 0. -1.
          4    1    6    6  503    0  0.47989751971E+03 -0.65706244080E+03  0.91660275276E+02  0.81880051697E+03  0.00000000000E+00 0. -1.
         -4    1    6    6    0  503  0.20351563581E+03 -0.19583148629E+03  0.49781095475E+02  0.28678692876E+03  0.00000000000E+00 0.  1.
<mgrwt>
<rscale>  0 0.25292174E+04</rscale>
<asrwt>0</asrwt>
<pdfrwt beam="1">  1        1 0.16039985E+00 0.25292174E+04</pdfrwt>
<pdfrwt beam="2">  1       -2 0.23598353E+00 0.25292174E+04</pdfrwt>
<totfact> 0.85500743E-01</totfact>
</mgrwt>
</event>
<event>
12    4  0.4320235E-008  0.2692494E+04  0.7818608E-02  0.8337444E-01
         -2   -1    0    0    0  501 -0.00000000000E+00  0.00000000000E+00  0.86689666589E+03  0.86689666589E+03  0.00000000000E+00 0.  1.
          1   -1    0    0  501    0  0.00000000000E+00 -0.00000000000E+00 -0.20906547626E+04  0.20906547626E+04  0.00000000000E+00 0. -1.
        -24    2    1    2    0    0 -0.25050001905E+03  0.20551773010E+03 -0.18033328965E+04  0.18339434762E+04  0.79695304341E+02 0.  0.
        254    2    1    2    0    0  0.25050001905E+03 -0.20551773010E+03  0.57957479973E+03  0.11236079523E+04  0.90642158243E+03 0.  0.
         23    2    4    4    0    0 -0.89336740685E+02 -0.48317628860E+03  0.20424905407E+03  0.53905065740E+03  0.86125234676E+02 0.  0.
         23    2    4    4    0    0  0.33983675973E+03  0.27765855850E+03  0.37532574565E+03  0.58455729492E+03  0.90854374211E+02 0.  0.
          1    1    3    3  502    0 -0.25098089851E+03  0.18321973943E+03 -0.17079302150E+04  0.17359684628E+04  0.00000000000E+00 0. -1.
         -2    1    3    3    0  502  0.48087946071E+00  0.22297990670E+02 -0.95402681450E+02  0.97975013452E+02  0.00000000000E+00 0.  1.
         11    1    5    5    0    0  0.16212301878E+02 -0.49734037491E+02  0.14643340462E+02  0.54320720147E+02  0.00000000000E+00 0. -1.
        -11    1    5    5    0    0 -0.10554904256E+03 -0.43344225111E+03  0.18960571361E+03  0.48472993725E+03  0.00000000000E+00 0.  1.
          1    1    6    6  503    0  0.34098991245E+03  0.26978012800E+03  0.35049772599E+03  0.55848374531E+03  0.00000000000E+00 0.  1.
         -1    1    6    6    0  503 -0.11531527185E+01  0.78784305055E+01  0.24828019663E+02  0.26073549601E+02  0.00000000000E+00 0. -1.
<mgrwt>
<rscale>  0 0.26924945E+04</rscale>
<asrwt>0</asrwt>
<pdfrwt beam="1">  1        1 0.32163919E+00 0.26924945E+04</pdfrwt>
<pdfrwt beam="2">  1       -2 0.13336872E+00 0.26924945E+04</pdfrwt>
<totfact> 0.80821631E-01</totfact>
</mgrwt>
</event>
<event>
12    4  0.4320235E-008  0.3080198E+04  0.7818608E-02  0.8221193E-01
          1   -1    0    0  501    0  0.00000000000E+00  0.00000000000E+00  0.17775335034E+04  0.17775335034E+04  0.00000000000E+00 0. -1.
         -2   -1    0    0    0  501 -0.00000000000E+00 -0.00000000000E+00 -0.13343801230E+04  0.13343801230E+04  0.00000000000E+00 0.  1.
        -24    2    1    2    0    0 -0.59509251598E+02 -0.14046271707E+04  0.12657432664E+03  0.14136739681E+04  0.77033682832E+02 0.  0.
        254    2    1    2    0    0  0.59509251598E+02  0.14046271707E+04  0.31657905369E+03  0.16982396583E+04  0.89848583736E+03 0.  0.
         23    2    4    4    0    0 -0.20862249324E+01  0.14930059144E+04  0.38223532185E+03  0.15438849284E+04  0.91683248505E+02 0.  0.
         23    2    4    4    0    0  0.61595476530E+02 -0.88378743663E+02 -0.65656268167E+02  0.15435472990E+03  0.88937236485E+02 0.  0.
          3    1    3    3  502    0  0.14682647263E+02 -0.11025869159E+03  0.17508025569E+02  0.11260146607E+03  0.00000000000E+00 0. -1.
         -4    1    3    3    0  502 -0.74191898860E+02 -0.12943684791E+04  0.10906630107E+03  0.13010725021E+04  0.00000000000E+00 0.  1.
         11    1    5    5    0    0  0.36912964290E+01  0.43655890089E+03  0.69232323454E+02  0.44202987934E+03  0.00000000000E+00 0. -1.
        -11    1    5    5    0    0 -0.57775213614E+01  0.10564470135E+04  0.31300299840E+03  0.11018550490E+04  0.00000000000E+00 0.  1.
          2    1    6    6  503    0 -0.43015262119E-01  0.65623143738E+01 -0.37015290013E+02  0.37592519402E+02  0.00000000000E+00 0. -1.
         -2    1    6    6    0  503  0.61638491792E+02 -0.94941058037E+02 -0.28640978154E+02  0.11676221050E+03  0.00000000000E+00 0.  1.
<mgrwt>
<rscale>  0 0.30801983E+04</rscale>
<asrwt>0</asrwt>
<pdfrwt beam="1">  1        1 0.27346670E+00 0.30801983E+04</pdfrwt>
<pdfrwt beam="2">  1       -2 0.20528925E+00 0.30801983E+04</pdfrwt>
<totfact> 0.38503755E-01</totfact>
</mgrwt>
</event>
<event>
12    4  0.4320235E-008  0.1989600E+04  0.7818608E-02  0.8611499E-01
          1   -1    0    0  501    0  0.00000000000E+00  0.00000000000E+00  0.24410402362E+04  0.24410402362E+04  0.00000000000E+00 0. -1.
         -2   -1    0    0    0  501 -0.00000000000E+00 -0.00000000000E+00 -0.40541187277E+03  0.40541187277E+03  0.00000000000E+00 0.  1.
        -24    2    1    2    0    0  0.46123835882E+03  0.26346333219E+03  0.16445450586E+04  0.17300555151E+04  0.80061754561E+02 0.  0.
        254    2    1    2    0    0 -0.46123835882E+03 -0.26346333219E+03  0.39108330482E+03  0.11163965938E+04  0.90068943171E+03 0.  0.
         23    2    4    4    0    0 -0.39007038611E+03  0.26704593987E+03  0.71577239602E+02  0.48631200993E+03  0.88924853947E+02 0.  0.
         23    2    4    4    0    0 -0.71167972709E+02 -0.53050927206E+03  0.31950606521E+03  0.63008458392E+03  0.91746875174E+02 0.  0.
          1    1    3    3  502    0  0.36419692743E+03  0.23209999595E+03  0.13999955997E+04  0.14650929968E+04  0.00000000000E+00 0. -1.
         -2    1    3    3    0  502  0.97041431385E+02  0.31363336245E+02  0.24454945892E+03  0.26496251834E+03  0.00000000000E+00 0.  1.
         11    1    5    5    0    0 -0.19588994007E+03  0.12132661747E+03  0.78537939834E+02  0.24343628473E+03  0.00000000000E+00 0. -1.
        -11    1    5    5    0    0 -0.19418044604E+03  0.14571932240E+03 -0.69607002324E+01  0.24287572520E+03  0.00000000000E+00 0.  1.
          3    1    6    6  503    0 -0.13209851081E+02 -0.58465354077E+01  0.14395899022E+02  0.20394216104E+02  0.00000000000E+00 0. -1.
         -3    1    6    6    0  503 -0.57958121628E+02 -0.52466273665E+03  0.30511016619E+03  0.60969036782E+03  0.00000000000E+00 0.  1.
<mgrwt>
<rscale>  0 0.19895997E+04</rscale>
<asrwt>0</asrwt>
<pdfrwt beam="1">  1        1 0.37554464E+00 0.19895997E+04</pdfrwt>
<pdfrwt beam="2">  1       -2 0.62371059E-01 0.19895997E+04</pdfrwt>
<totfact> 0.28965661E+00</totfact>
</mgrwt>
</event>
<event>
12    4  0.4320235E-008  0.2586888E+04  0.7818608E-02  0.8372669E-01
         -2   -1    0    0    0  501 -0.00000000000E+00  0.00000000000E+00  0.70574422023E+03  0.70574422023E+03  0.00000000000E+00 0.  1.
          1   -1    0    0  501    0  0.00000000000E+00 -0.00000000000E+00 -0.23705439134E+04  0.23705439134E+04  0.00000000000E+00 0. -1.
        -24    2    1    2    0    0 -0.89475802696E+03 -0.30039723911E+03  0.17698308519E+02  0.94728197206E+03  0.78736753834E+02 0.  0.
        254    2    1    2    0    0  0.89475802696E+03  0.30039723911E+03 -0.16824980017E+04  0.21290061616E+04  0.90057608352E+03 0.  0.
         23    2    4    4    0    0 -0.38183794749E+02 -0.69849252249E+02  0.46255169028E+02  0.12795080469E+03  0.88853517313E+02 0.  0.
         23    2    4    4    0    0  0.93294182171E+03  0.37024649136E+03 -0.17287531707E+04  0.20010553569E+04  0.90399717538E+02 0.  0.
          1    1    3    3  502    0 -0.30254649070E+03 -0.13941275614E+03 -0.50095600397E+01  0.33315970841E+03  0.00000000000E+00 0. -1.
         -2    1    3    3    0  502 -0.59221153625E+03 -0.16098448297E+03  0.22707868558E+02  0.61412226366E+03  0.00000000000E+00 0.  1.
         11    1    5    5    0    0 -0.64651148198E+01 -0.33590135113E+02 -0.24696276043E+02  0.42190057323E+02  0.00000000000E+00 0.  1.
        -11    1    5    5    0    0 -0.31718679930E+02 -0.36259117137E+02  0.70951445071E+02  0.85760747371E+02  0.00000000000E+00 0. -1.
          4    1    6    6  503    0  0.65012421046E+03  0.23653389634E+03 -0.12615127559E+04  0.14387578693E+04  0.00000000000E+00 0. -1.
         -4    1    6    6    0  503  0.28281761125E+03  0.13371259502E+03 -0.46724041481E+03  0.56229748757E+03  0.00000000000E+00 0.  1.
<mgrwt>
<rscale>  0 0.25868882E+04</rscale>
<asrwt>0</asrwt>
<pdfrwt beam="1">  1        1 0.36469907E+00 0.25868882E+04</pdfrwt>
<pdfrwt beam="2">  1       -2 0.10857603E+00 0.25868882E+04</pdfrwt>
<totfact> 0.87483867E-01</totfact>
</mgrwt>
</event>
<event>
12    4  0.4320235E-008  0.2263198E+04  0.7818608E-02  0.8492575E-01
         -2   -1    0    0    0  501 -0.00000000000E+00  0.00000000000E+00  0.11948163946E+04  0.11948163946E+04  0.00000000000E+00 0.  1.
          1   -1    0    0  501    0  0.00000000000E+00 -0.00000000000E+00 -0.10717262981E+04  0.10717262981E+04  0.00000000000E+00 0. -1.
        -24    2    1    2    0    0  0.53006566590E+02 -0.89759426611E+03  0.36150983758E+03  0.97235181143E+03  0.79331707904E+02 0.  0.
        254    2    1    2    0    0 -0.53006566590E+02  0.89759426611E+03 -0.23841974114E+03  0.12941908812E+04  0.89977825126E+03 0.  0.
         23    2    4    4    0    0 -0.28529749557E+03  0.96123254603E+03 -0.24630856233E+03  0.10365564627E+04  0.91753605131E+02 0.  0.
         23    2    4    4    0    0  0.23229092898E+03 -0.63638279925E+02  0.78888211872E+01  0.25763441848E+03  0.91128226852E+02 0.  0.
          3    1    3    3  502    0 -0.16443601093E+02 -0.20102574603E+03  0.62656343064E+02  0.21120501866E+03  0.00000000000E+00 0. -1.
         -4    1    3    3    0  502  0.69450167683E+02 -0.69656852008E+03  0.29885349452E+03  0.76114679277E+03  0.00000000000E+00 0.  1.
         11    1    5    5    0    0 -0.95062193694E+02  0.23291822142E+03 -0.30052166290E+02  0.25335913490E+03  0.00000000000E+00 0.  1.
        -11    1    5    5    0    0 -0.19023530188E+03  0.72831432461E+03 -0.21625639604E+03  0.78319732785E+03  0.00000000000E+00 0. -1.
          3    1    6    6  503    0  0.13514971527E+03 -0.63414286514E+02  0.41321250758E+02  0.15490081677E+03  0.00000000000E+00 0. -1.
         -3    1    6    6    0  503  0.97141213708E+02 -0.22399341153E+00 -0.33432429571E+02  0.10273360171E+03  0.00000000000E+00 0.  1.
<mgrwt>
<rscale>  0 0.22631979E+04</rscale>
<asrwt>0</asrwt>
<pdfrwt beam="1">  1        1 0.16488097E+00 0.22631979E+04</pdfrwt>
<pdfrwt beam="2">  1       -2 0.18381791E+00 0.22631979E+04</pdfrwt>
<totfact> 0.18078841E+00</totfact>
</mgrwt>
</event>
<event>
12    4  0.4320235E-008  0.2271489E+04  0.7818608E-02  0.8489248E-01
          1   -1    0    0  501    0  0.00000000000E+00  0.00000000000E+00  0.13734071378E+04  0.13734071378E+04  0.00000000000E+00 0. -1.
         -2   -1    0    0    0  501 -0.00000000000E+00 -0.00000000000E+00 -0.93920817736E+03  0.93920817736E+03  0.00000000000E+00 0.  1.
        -24    2    1    2    0    0 -0.55072369393E+03 -0.38635317545E+03  0.87762168939E+03  0.11085856354E+04  0.78593372361E+02 0.  0.
        254    2    1    2    0    0  0.55072369393E+03  0.38635317545E+03 -0.44342272890E+03  0.12040296798E+04  0.89470575611E+03 0.  0.
         23    2    4    4    0    0 -0.74107030587E+02  0.29483893174E+03 -0.46836919733E+03  0.56577875443E+03  0.91181392319E+02 0.  0.
         23    2    4    4    0    0  0.62483072452E+03  0.91514243709E+02  0.24946468423E+02  0.63825092534E+03  0.89183105541E+02 0.  0.
          1    1    3    3  502    0 -0.31777312174E+03 -0.23629477810E+03  0.45463102129E+03  0.60291321480E+03  0.00000000000E+00 0. -1.
         -2    1    3    3    0  502 -0.23295057219E+03 -0.15005839735E+03  0.42299066810E+03  0.50567242064E+03  0.00000000000E+00 0.  1.
         11    1    5    5    0    0 -0.44701795496E+02  0.52792689902E+02 -0.14623999534E+03  0.16177594032E+03  0.00000000000E+00 0. -1.
        -11    1    5    5    0    0 -0.29405235091E+02  0.24204624183E+03 -0.32212920198E+03  0.40400281411E+03  0.00000000000E+00 0.  1.
          4    1    6    6  503    0  0.64059425113E+02  0.16324437115E+02 -0.24045635437E+02  0.70344081318E+02  0.00000000000E+00 0. -1.
         -4    1    6    6    0  503  0.56077129940E+03  0.75189806594E+02  0.48992103860E+02  0.56790684402E+03  0.00000000000E+00 0.  1.
<mgrwt>
<rscale>  0 0.22714887E+04</rscale>
<asrwt>0</asrwt>
<pdfrwt beam="1">  1        1 0.21129341E+00 0.22714887E+04</pdfrwt>
<pdfrwt beam="2">  1       -2 0.14449357E+00 0.22714887E+04</pdfrwt>
<totfact> 0.21098132E+00</totfact>
</mgrwt>
</event>
<event>
12    4  0.4320235E-008  0.1466508E+04  0.7818608E-02  0.8907035E-01
         -2   -1    0    0    0  501 -0.00000000000E+00  0.00000000000E+00  0.11993712163E+04  0.11993712163E+04  0.00000000000E+00 0.  1.
          1   -1    0    0  501    0  0.00000000000E+00 -0.00000000000E+00 -0.44828622365E+03  0.44828622365E+03  0.00000000000E+00 0. -1.
        -24    2    1    2    0    0 -0.20155924639E+03 -0.25487003914E+03 -0.11537417089E+03  0.35381248995E+03  0.79291942080E+02 0.  0.
        254    2    1    2    0    0  0.20155924639E+03  0.25487003914E+03  0.86645916350E+03  0.12938449500E+04  0.90426677805E+03 0.  0.
         23    2    4    4    0    0  0.29922431137E+03 -0.27326589684E+03  0.35391841477E+03  0.54581651229E+03  0.91912903815E+02 0.  0.
         23    2    4    4    0    0 -0.97665064987E+02  0.52813593598E+03  0.51254074873E+03  0.74802843767E+03  0.91555953720E+02 0.  0.
          3    1    3    3  502    0 -0.18003863129E+03 -0.23192079774E+03 -0.12750755744E+03  0.32009270905E+03  0.00000000000E+00 0. -1.
         -4    1    3    3    0  502 -0.21520615095E+02 -0.22949241399E+02  0.12133386545E+02  0.33719780899E+02  0.00000000000E+00 0.  1.
         11    1    5    5    0    0  0.12704551535E+03 -0.16861483999E+03  0.14878237052E+03  0.25827837891E+03  0.00000000000E+00 0.  1.
        -11    1    5    5    0    0  0.17217879602E+03 -0.10465105685E+03  0.20513604425E+03  0.28753813338E+03  0.00000000000E+00 0. -1.
          3    1    6    6  503    0 -0.85939393175E+02  0.25801794867E+03  0.22113738983E+03  0.35051474480E+03  0.00000000000E+00 0. -1.
         -3    1    6    6    0  503 -0.11725671813E+02  0.27011798730E+03  0.29140335890E+03  0.39751369287E+03  0.00000000000E+00 0.  1.
<mgrwt>
<rscale>  0 0.14665082E+04</rscale>
<asrwt>0</asrwt>
<pdfrwt beam="1">  1        1 0.68967112E-01 0.14665082E+04</pdfrwt>
<pdfrwt beam="2">  1       -2 0.18451865E+00 0.14665082E+04</pdfrwt>
<totfact> 0.73607528E+00</totfact>
</mgrwt>
</event>
<event>
12    4  0.4320235E-008  0.1841756E+04  0.7818608E-02  0.8684404E-01
          1   -1    0    0  501    0  0.00000000000E+00  0.00000000000E+00  0.11560983638E+04  0.11560983638E+04  0.00000000000E+00 0. -1.
         -2   -1    0    0    0  501 -0.00000000000E+00 -0.00000000000E+00 -0.73351545148E+03  0.73351545148E+03  0.00000000000E+00 0.  1.
        -24    2    1    2    0    0 -0.15950688380E+03  0.27355627136E+03 -0.49359945880E+03  0.59174178837E+03  0.79009105793E+02 0.  0.
        254    2    1    2    0    0  0.15950688380E+03 -0.27355627136E+03  0.91618237112E+03  0.12978720269E+04  0.86302154172E+03 0.  0.
         23    2    4    4    0    0 -0.11558977604E+03 -0.48592987298E+03  0.74057071175E+03  0.89807499539E+03  0.92762494888E+02 0.  0.
         23    2    4    4    0    0  0.27509665984E+03  0.21237360162E+03  0.17561165937E+03  0.39979703151E+03  0.90650386525E+02 0.  0.
          1    1    3    3  502    0  0.31886273131E+01  0.57967404355E+01 -0.39457115143E+02  0.40007917706E+02  0.00000000000E+00 0. -1.
         -2    1    3    3    0  502 -0.16269551111E+03  0.26775953092E+03 -0.45414234366E+03  0.55173387067E+03  0.00000000000E+00 0.  1.
         11    1    5    5    0    0  0.76231393003E+01 -0.70403879150E+02  0.14640421194E+03  0.16263152132E+03  0.00000000000E+00 0. -1.
        -11    1    5    5    0    0 -0.12321291534E+03 -0.41552599383E+03  0.59416649981E+03  0.73544347407E+03  0.00000000000E+00 0.  1.
          1    1    6    6  503    0  0.20925074461E+03  0.16389227483E+03  0.88065665856E+02  0.28000377385E+03  0.00000000000E+00 0. -1.
         -1    1    6    6    0  503  0.65845915233E+02  0.48481326790E+02  0.87545993517E+02  0.11979325766E+03  0.00000000000E+00 0.  1.
<mgrwt>
<rscale>  0 0.18417557E+04</rscale>
<asrwt>0</asrwt>
<pdfrwt beam="1">  1        1 0.17786129E+00 0.18417557E+04</pdfrwt>
<pdfrwt beam="2">  1       -2 0.11284853E+00 0.18417557E+04</pdfrwt>
<totfact> 0.58616516E+00</totfact>
</mgrwt>
</event>
<event>
12    4  0.4320235E-008  0.2062734E+04  0.7818608E-02  0.8577839E-01
          1   -1    0    0  501    0  0.00000000000E+00  0.00000000000E+00  0.14716408642E+04  0.14716408642E+04  0.00000000000E+00 0. -1.
         -2   -1    0    0    0  501 -0.00000000000E+00 -0.00000000000E+00 -0.72281075705E+03  0.72281075705E+03  0.00000000000E+00 0.  1.
        -24    2    1    2    0    0  0.33689823928E+03 -0.75476906781E+03  0.39638484352E+03  0.92011825584E+03  0.79497743424E+02 0.  0.
        254    2    1    2    0    0 -0.33689823928E+03  0.75476906781E+03  0.35244526363E+03  0.12743333654E+04  0.90362110035E+03 0.  0.
         23    2    4    4    0    0  0.26771568409E+03  0.25445167283E+03  0.29573538918E+03  0.48214443555E+03  0.92663342279E+02 0.  0.
         23    2    4    4    0    0 -0.60461392337E+03  0.50031739498E+03  0.56709874452E+02  0.79218892986E+03  0.92042374422E+02 0.  0.
          1    1    3    3  502    0  0.19889529158E+03 -0.40989267464E+03  0.25893856140E+03  0.52404247949E+03  0.00000000000E+00 0. -1.
         -2    1    3    3    0  502  0.13800294770E+03 -0.34487639318E+03  0.13744628212E+03  0.39607577635E+03  0.00000000000E+00 0.  1.
         11    1    5    5    0    0  0.27292265865E+03  0.23527415675E+03  0.27387350495E+03  0.45260071050E+03  0.00000000000E+00 0.  1.
        -11    1    5    5    0    0 -0.52069745591E+01  0.19177516089E+02  0.21861884233E+02  0.29543725047E+02  0.00000000000E+00 0. -1.
          4    1    6    6  503    0 -0.26892442412E+03  0.18793148837E+03  0.60519922690E+02  0.33361842163E+03  0.00000000000E+00 0. -1.
         -4    1    6    6    0  503 -0.33568949925E+03  0.31238590661E+03 -0.38100482371E+01  0.45857050823E+03  0.00000000000E+00 0.  1.
<mgrwt>
<rscale>  0 0.20627340E+04</rscale>
<asrwt>0</asrwt>
<pdfrwt beam="1">  1        1 0.22640629E+00 0.20627340E+04</pdfrwt>
<pdfrwt beam="2">  1       -2 0.11120166E+00 0.20627340E+04</pdfrwt>
<totfact> 0.35476309E+00</totfact>
</mgrwt>
</event>
<event>
12    4  0.4320235E-008  0.1746974E+04  0.7818608E-02  0.8735018E-01
         -2   -1    0    0    0  501 -0.00000000000E+00  0.00000000000E+00  0.20486592381E+04  0.20486592381E+04  0.00000000000E+00 0.  1.
          1   -1    0    0  501    0  0.00000000000E+00 -0.00000000000E+00 -0.37242871113E+03  0.37242871113E+03  0.00000000000E+00 0. -1.
        -24    2    1    2    0    0  0.62032143491E+03 -0.16007909383E+03  0.65066308127E+03  0.91621655359E+03  0.75275021420E+02 0.  0.
        254    2    1    2    0    0 -0.62032143491E+03  0.16007909383E+03  0.10255674457E+04  0.15048713956E+04  0.89578196724E+03 0.  0.
         23    2    4    4    0    0 -0.81010677620E+02 -0.76092565019E+02  0.88155904278E+03  0.89248209152E+03  0.83816045239E+02 0.  0.
         23    2    4    4    0    0 -0.53931075729E+03  0.23617165885E+03  0.14400840293E+03  0.61238930412E+03  0.87459100768E+02 0.  0.
          1    1    3    3  502    0  0.65679645085E+02  0.53427289578E+01  0.76202783189E+02  0.10074336056E+03  0.00000000000E+00 0. -1.
         -4    1    3    3    0  502  0.55464178983E+03 -0.16542182279E+03  0.57446029808E+03  0.81547319303E+03  0.00000000000E+00 0.  1.
         11    1    5    5    0    0 -0.26087589134E+02 -0.79103687842E+02  0.57950457976E+03  0.58546008719E+03  0.00000000000E+00 0. -1.
        -11    1    5    5    0    0 -0.54923088486E+02  0.30111228230E+01  0.30205446303E+03  0.30702200433E+03  0.00000000000E+00 0.  1.
          1    1    6    6  503    0 -0.16599947826E+03  0.11178334379E+03  0.69885583014E+02  0.21197956846E+03  0.00000000000E+00 0. -1.
         -1    1    6    6    0  503 -0.37331127904E+03  0.12438831506E+03  0.74122819912E+02  0.40040973566E+03  0.00000000000E+00 0.  1.
<mgrwt>
<rscale>  0 0.17469740E+04</rscale>
<asrwt>0</asrwt>
<pdfrwt beam="1">  1        1 0.57296726E-01 0.17469740E+04</pdfrwt>
<pdfrwt beam="2">  1       -2 0.31517834E+00 0.17469740E+04</pdfrwt>
<totfact> 0.14057743E+00</totfact>
</mgrwt>
</event>
<event>
12    4  0.4320235E-008  0.1627460E+04  0.7818608E-02  0.8803853E-01
         -2   -1    0    0    0  501 -0.00000000000E+00  0.00000000000E+00  0.16964945457E+04  0.16964945457E+04  0.00000000000E+00 0.  1.
          1   -1    0    0  501    0  0.00000000000E+00 -0.00000000000E+00 -0.39030881929E+03  0.39030881929E+03  0.00000000000E+00 0. -1.
        -24    2    1    2    0    0  0.21383143644E+03  0.42679835401E+02 -0.20009578856E+03  0.30653522931E+03  0.79875344430E+02 0.  0.
        254    2    1    2    0    0 -0.21383143644E+03 -0.42679835401E+02  0.15062815150E+04  0.17802681357E+04  0.92353948538E+03 0.  0.
         23    2    4    4    0    0 -0.44329963146E+03 -0.31984866880E+03  0.10831446629E+04  0.12170015743E+04  0.95250915567E+02 0.  0.
         23    2    4    4    0    0  0.22946819502E+03  0.27716883340E+03  0.42313685208E+03  0.56326656139E+03  0.93521167960E+02 0.  0.
          1    1    3    3  502    0  0.21544244731E+03  0.28410150006E+02 -0.19240467221E+03  0.29024497001E+03  0.00000000000E+00 0. -1.
         -2    1    3    3    0  502 -0.16110108730E+01  0.14269685395E+02 -0.76911163466E+01  0.16290259297E+02  0.00000000000E+00 0.  1.
         11    1    5    5    0    0 -0.33438369063E+03 -0.23531831233E+03  0.71168866217E+03  0.82078493683E+03  0.00000000000E+00 0.  1.
        -11    1    5    5    0    0 -0.10891594083E+03 -0.84530356475E+02  0.37145600072E+03  0.39621663747E+03  0.00000000000E+00 0. -1.
          3    1    6    6  503    0  0.62761350234E+02  0.12922992455E+03  0.12109686066E+03  0.18789308169E+03  0.00000000000E+00 0. -1.
         -3    1    6    6    0  503  0.16670684478E+03  0.14793890885E+03  0.30203999141E+03  0.37537347970E+03  0.00000000000E+00 0.  1.
<mgrwt>
<rscale>  0 0.16274603E+04</rscale>
<asrwt>0</asrwt>
<pdfrwt beam="1">  1        1 0.60047512E-01 0.16274603E+04</pdfrwt>
<pdfrwt beam="2">  1       -2 0.26099916E+00 0.16274603E+04</pdfrwt>
<totfact> 0.28562388E+00</totfact>
</mgrwt>
</event>
<event>
12    4  0.4320235E-008  0.4078646E+04  0.7818608E-02  0.7988866E-01
          1   -1    0    0  501    0  0.00000000000E+00  0.00000000000E+00  0.22143315163E+04  0.22143315163E+04  0.00000000000E+00 0. -1.
         -2   -1    0    0    0  501 -0.00000000000E+00 -0.00000000000E+00 -0.18781461176E+04  0.18781461176E+04  0.00000000000E+00 0.  1.
        -24    2    1    2    0    0  0.19059981724E+04  0.23390492531E+03  0.38082311802E+03  0.19595294387E+04  0.84786948475E+02 0.  0.
        254    2    1    2    0    0 -0.19059981724E+04 -0.23390492531E+03 -0.44637719333E+02  0.21329481951E+04  0.92732676541E+03 0.  0.
         23    2    4    4    0    0 -0.73513067416E+03  0.67820387394E+02 -0.43176245105E+03  0.86010200026E+03  0.91323182582E+02 0.  0.
         23    2    4    4    0    0 -0.11708674983E+04 -0.30172531271E+03  0.38712473172E+03  0.12728461949E+04  0.91120881939E+02 0.  0.
          3    1    3    3  502    0  0.17973046671E+04  0.20386136797E+03  0.36959550287E+03  0.18462026865E+04  0.00000000000E+00 0. -1.
         -4    1    3    3    0  502  0.10869350529E+03  0.30043557346E+02  0.11227615151E+02  0.11332675224E+03  0.00000000000E+00 0.  1.
         11    1    5    5    0    0  0.25158876171E+01  0.21550891275E+01 -0.17572171267E+01  0.37499215565E+01  0.00000000000E+00 0.  1.
        -11    1    5    5    0    0 -0.73764656177E+03  0.65665298267E+02 -0.43000523392E+03  0.85635207870E+03  0.00000000000E+00 0. -1.
          1    1    6    6  503    0 -0.94992277069E+03 -0.23912394569E+03  0.27580598405E+03  0.10176455535E+04  0.00000000000E+00 0. -1.
         -1    1    6    6    0  503 -0.22094472756E+03 -0.62601367015E+02  0.11131874767E+03  0.25520064140E+03  0.00000000000E+00 0.  1.
<mgrwt>
<rscale>  0 0.40786459E+04</rscale>
<asrwt>0</asrwt>
<pdfrwt beam="1">  1        1 0.34066639E+00 0.40786459E+04</pdfrwt>
<pdfrwt beam="2">  1       -2 0.28894556E+00 0.40786459E+04</pdfrwt>
<totfact> 0.54089903E-02</totfact>
</mgrwt>
</event>
<event>
12    4  0.4320235E-008  0.1240809E+04  0.7818608E-02  0.9077868E-01
          1   -1    0    0  501    0  0.00000000000E+00  0.00000000000E+00  0.18148342214E+04  0.18148342214E+04  0.00000000000E+00 0. -1.
         -2   -1    0    0    0  501 -0.00000000000E+00 -0.00000000000E+00 -0.21208636450E+03  0.21208636450E+03  0.00000000000E+00 0.  1.
        -24    2    1    2    0    0  0.10300315991E+03 -0.65588031023E+02 -0.41177000688E+02  0.15145353804E+03  0.79568762928E+02 0.  0.
        254    2    1    2    0    0 -0.10300315991E+03  0.65588031023E+02  0.16439248576E+04  0.18754670479E+04  0.89441392513E+03 0.  0.
         23    2    4    4    0    0 -0.10977976629E+03 -0.37730446869E+03  0.47234268154E+03  0.61969932653E+03  0.80680774123E+02 0.  0.
         23    2    4    4    0    0  0.67766063727E+01  0.44289249972E+03  0.11715821761E+04  0.12557677214E+04  0.90266749225E+02 0.  0.
          1    1    3    3  502    0  0.42888081575E+02 -0.22746537342E+02  0.22924596687E+02  0.53687332170E+02  0.00000000000E+00 0. -1.
         -2    1    3    3    0  502  0.60115078338E+02 -0.42841493681E+02 -0.64101597375E+02  0.97766205871E+02  0.00000000000E+00 0.  1.
         11    1    5    5    0    0 -0.91033286257E+01 -0.57597238429E+02  0.11985811727E+03  0.13329021248E+03  0.00000000000E+00 0. -1.
        -11    1    5    5    0    0 -0.10067643766E+03 -0.31970723026E+03  0.35248456427E+03  0.48640911405E+03  0.00000000000E+00 0.  1.
          2    1    6    6  503    0 -0.13539643232E+02  0.39336713006E+03  0.96082595288E+03  0.10383195716E+04  0.00000000000E+00 0. -1.
         -2    1    6    6    0  503  0.20316249605E+02  0.49525369657E+02  0.21075622320E+03  0.21744814980E+03  0.00000000000E+00 0.  1.
<mgrwt>
<rscale>  0 0.12408088E+04</rscale>
<asrwt>0</asrwt>
<pdfrwt beam="1">  1        1 0.27920525E+00 0.12408088E+04</pdfrwt>
<pdfrwt beam="2">  1       -2 0.32628673E-01 0.12408088E+04</pdfrwt>
<totfact> 0.30210674E+01</totfact>
</mgrwt>
</event>
<event>
12    4  0.4320235E-008  0.1228038E+04  0.7818608E-02  0.9088663E-01
         -2   -1    0    0    0  501 -0.00000000000E+00  0.00000000000E+00  0.72144333866E+03  0.72144333866E+03  0.00000000000E+00 0.  1.
          1   -1    0    0  501    0  0.00000000000E+00 -0.00000000000E+00 -0.52259014802E+03  0.52259014802E+03  0.00000000000E+00 0. -1.
        -24    2    1    2    0    0 -0.24073146983E+03  0.10008380199E+03 -0.36357481835E+02  0.27382447129E+03  0.75429215851E+02 0.  0.
        254    2    1    2    0    0  0.24073146983E+03 -0.10008380199E+03  0.23521067248E+03  0.97020901539E+03  0.90444074715E+03 0.  0.
         23    2    4    4    0    0  0.36495448010E+03  0.30619753386E+03  0.22894151694E+03  0.53634641715E+03  0.91129351663E+02 0.  0.
         23    2    4    4    0    0 -0.12422301026E+03 -0.40628133584E+03  0.62691555364E+01  0.43386259824E+03  0.87758599024E+02 0.  0.
          3    1    3    3  502    0 -0.17290240848E+03  0.94208159243E+02 -0.55759934656E+00  0.19690284671E+03  0.00000000000E+00 0. -1.
         -4    1    3    3    0  502 -0.67829061356E+02  0.58756427460E+01 -0.35799882489E+02  0.76921624582E+02  0.00000000000E+00 0.  1.
         11    1    5    5    0    0  0.35946892121E+03  0.28385417478E+03  0.23148009723E+03  0.51319989602E+03  0.00000000000E+00 0. -1.
        -11    1    5    5    0    0  0.54855588856E+01  0.22343359073E+02 -0.25385802891E+01  0.23146521139E+02  0.00000000000E+00 0.  1.
          4    1    6    6  503    0 -0.70929086281E+02 -0.32969833078E+03  0.26881176307E+02  0.33831128010E+03  0.00000000000E+00 0. -1.
         -4    1    6    6    0  503 -0.53293923982E+02 -0.76583005060E+02 -0.20612020771E+02  0.95551318137E+02  0.00000000000E+00 0.  1.
<mgrwt>
<rscale>  0 0.12280378E+04</rscale>
<asrwt>0</asrwt>
<pdfrwt beam="1">  1        1 0.80398484E-01 0.12280378E+04</pdfrwt>
<pdfrwt beam="2">  1       -2 0.11099128E+00 0.12280378E+04</pdfrwt>
<totfact> 0.23146944E+01</totfact>
</mgrwt>
</event>
<event>
12    4  0.4320235E-008  0.2374929E+04  0.7818608E-02  0.8448950E-01
         -2   -1    0    0    0  501 -0.00000000000E+00  0.00000000000E+00  0.10744744633E+04  0.10744744633E+04  0.00000000000E+00 0.  1.
          1   -1    0    0  501    0  0.00000000000E+00 -0.00000000000E+00 -0.13123361317E+04  0.13123361317E+04  0.00000000000E+00 0. -1.
        -24    2    1    2    0    0 -0.51280215726E+03  0.83325710492E+03  0.15918279259E+03  0.99445953529E+03  0.79543387484E+02 0.  0.
        254    2    1    2    0    0  0.51280215726E+03 -0.83325710492E+03 -0.39704446101E+03  0.13923510597E+04  0.90758675289E+03 0.  0.
         23    2    4    4    0    0  0.58976524000E+03 -0.60111057236E+03 -0.61927104757E+03  0.10495314718E+04  0.94142027882E+02 0.  0.
         23    2    4    4    0    0 -0.76963082734E+02 -0.23214653255E+03  0.22222658656E+03  0.34281958789E+03  0.91243001861E+02 0.  0.
          3    1    3    3  502    0 -0.48635190955E+03  0.78031900196E+03  0.13047954258E+03  0.92868769550E+03  0.00000000000E+00 0. -1.
         -2    1    3    3    0  502 -0.26450247715E+02  0.52938102959E+02  0.28703250008E+02  0.65771839796E+02  0.00000000000E+00 0.  1.
         11    1    5    5    0    0  0.30242815390E+03 -0.29786036011E+03 -0.36967600608E+03  0.56288891610E+03  0.00000000000E+00 0. -1.
        -11    1    5    5    0    0  0.28733708609E+03 -0.30325021225E+03 -0.24959504149E+03  0.48664255570E+03  0.00000000000E+00 0.  1.
          1    1    6    6  503    0  0.24796560087E+01 -0.33230231027E+02 -0.11503231861E+01  0.33342468287E+02  0.00000000000E+00 0. -1.
         -1    1    6    6    0  503 -0.79442738742E+02 -0.19891630152E+03  0.22337690975E+03  0.30947711961E+03  0.00000000000E+00 0.  1.
<mgrwt>
<rscale>  0 0.23749288E+04</rscale>
<asrwt>0</asrwt>
<pdfrwt beam="1">  1        1 0.20189787E+00 0.23749288E+04</pdfrwt>
<pdfrwt beam="2">  1       -2 0.16530376E+00 0.23749288E+04</pdfrwt>
<totfact> 0.16092704E+00</totfact>
</mgrwt>
</event>
<event>
12    4  0.4320235E-008  0.2837170E+04  0.7818608E-02  0.8291821E-01
          1   -1    0    0  501    0  0.00000000000E+00  0.00000000000E+00  0.12787538331E+04  0.12787538331E+04  0.00000000000E+00 0. -1.
         -2   -1    0    0    0  501 -0.00000000000E+00 -0.00000000000E+00 -0.15737062703E+04  0.15737062703E+04  0.00000000000E+00 0.  1.
        -24    2    1    2    0    0 -0.10518701134E+03  0.22880370514E+02 -0.14120485282E+04  0.14183998564E+04  0.79933021311E+02 0.  0.
        254    2    1    2    0    0  0.10518701134E+03 -0.22880370514E+02  0.11170960910E+04  0.14340602470E+04  0.89276945337E+03 0.  0.
         23    2    4    4    0    0  0.18447930848E+03  0.39278994862E+03  0.72455741257E+03  0.84943661175E+03  0.90788514064E+02 0.  0.
         23    2    4    4    0    0 -0.79292297145E+02 -0.41567031914E+03  0.39253867845E+03  0.58462363529E+03  0.92892939788E+02 0.  0.
          1    1    3    3  502    0 -0.52234169097E+02 -0.21843201933E+01 -0.10769814945E+04  0.10782496553E+04  0.00000000000E+00 0. -1.
         -2    1    3    3    0  502 -0.52952842238E+02  0.25064690707E+02 -0.33506703374E+03  0.34015020112E+03  0.00000000000E+00 0.  1.
         11    1    5    5    0    0  0.17304050659E+03  0.38793756045E+03  0.66867823068E+03  0.79219261794E+03  0.00000000000E+00 0.  1.
        -11    1    5    5    0    0  0.11438801892E+02  0.48523881697E+01  0.55879181884E+02  0.57243993813E+02  0.00000000000E+00 0. -1.
          3    1    6    6  503    0  0.98719470250E+01 -0.21784763695E+01  0.11497091506E+02  0.15309611701E+02  0.00000000000E+00 0. -1.
         -3    1    6    6    0  503 -0.89164244170E+02 -0.41349184277E+03  0.38104158695E+03  0.56931402359E+03  0.00000000000E+00 0.  1.
<mgrwt>
<rscale>  0 0.28371697E+04</rscale>
<asrwt>0</asrwt>
<pdfrwt beam="1">  1        1 0.19673136E+00 0.28371697E+04</pdfrwt>
<pdfrwt beam="2">  1       -2 0.24210866E+00 0.28371697E+04</pdfrwt>
<totfact> 0.51014783E-01</totfact>
</mgrwt>
</event>
<event>
12    4  0.4320235E-008  0.1266826E+04  0.7818608E-02  0.9056294E-01
          1   -1    0    0  501    0  0.00000000000E+00  0.00000000000E+00  0.85172094148E+03  0.85172094148E+03  0.00000000000E+00 0. -1.
         -2   -1    0    0    0  501 -0.00000000000E+00 -0.00000000000E+00 -0.47106069076E+03  0.47106069076E+03  0.00000000000E+00 0.  1.
        -24    2    1    2    0    0  0.73952822512E+02  0.29750886976E+03  0.12763998537E+03  0.34155985259E+03  0.79941350325E+02 0.  0.
        254    2    1    2    0    0 -0.73952822512E+02 -0.29750886976E+03  0.25302026535E+03  0.98122177966E+03  0.89710444133E+03 0.  0.
         23    2    4    4    0    0  0.19210156401E+03 -0.34055429759E+03 -0.19852045373E+03  0.44838406944E+03  0.93582384407E+02 0.  0.
         23    2    4    4    0    0 -0.26605438652E+03  0.43045427835E+02  0.45154071908E+03  0.53283771022E+03  0.85960217522E+02 0.  0.
          1    1    3    3  502    0  0.27374121038E+02  0.23967125099E+03  0.11056496611E+03  0.26536062780E+03  0.00000000000E+00 0. -1.
         -2    1    3    3    0  502  0.46578701474E+02  0.57837618765E+02  0.17075019257E+02  0.76199224786E+02  0.00000000000E+00 0.  1.
         11    1    5    5    0    0  0.11653197874E+03 -0.25788852831E+03 -0.10291785550E+03  0.30112834487E+03  0.00000000000E+00 0.  1.
        -11    1    5    5    0    0  0.75569585272E+02 -0.82665769284E+02 -0.95602598237E+02  0.14725572457E+03  0.00000000000E+00 0. -1.
          1    1    6    6  503    0 -0.17341149184E+03 -0.13620552345E+02  0.29067296398E+03  0.33874450096E+03  0.00000000000E+00 0. -1.
         -1    1    6    6    0  503 -0.92642894687E+02  0.56665980181E+02  0.16086775510E+03  0.19409320925E+03  0.00000000000E+00 0.  1.
<mgrwt>
<rscale>  0 0.12668264E+04</rscale>
<asrwt>0</asrwt>
<pdfrwt beam="1">  1        1 0.13103399E+00 0.12668264E+04</pdfrwt>
<pdfrwt beam="2">  1       -2 0.72470876E-01 0.12668264E+04</pdfrwt>
<totfact> 0.29682849E+01</totfact>
</mgrwt>
</event>
<event>
12    4  0.4320235E-008  0.1448648E+04  0.7818608E-02  0.8919339E-01
         -2   -1    0    0    0  501 -0.00000000000E+00  0.00000000000E+00  0.41946464739E+03  0.41946464739E+03  0.00000000000E+00 0.  1.
          1   -1    0    0  501    0  0.00000000000E+00 -0.00000000000E+00 -0.12507491145E+04  0.12507491145E+04  0.00000000000E+00 0. -1.
        -24    2    1    2    0    0 -0.27457891621E+03 -0.40637760826E+03 -0.20960443840E+03  0.53930002178E+03  0.79838281426E+02 0.  0.
        254    2    1    2    0    0  0.27457891621E+03  0.40637760826E+03 -0.62168002875E+03  0.11309137401E+04  0.80743017517E+03 0.  0.
         23    2    4    4    0    0 -0.19621707241E+03  0.27033067522E+03 -0.51660182763E+03  0.62162924542E+03  0.89250529284E+02 0.  0.
         23    2    4    4    0    0  0.47079598861E+03  0.13604693304E+03 -0.10507820111E+03  0.50928449472E+03  0.90397109089E+02 0.  0.
          1    1    3    3  502    0 -0.20079242324E+03 -0.24376351293E+03 -0.15964707047E+03  0.35387205962E+03  0.00000000000E+00 0. -1.
         -2    1    3    3    0  502 -0.73786492966E+02 -0.16261409533E+03 -0.49957367925E+02  0.18542796216E+03  0.00000000000E+00 0.  1.
         11    1    5    5    0    0 -0.19716472331E+03  0.25494429947E+03 -0.51293626286E+03  0.60578390017E+03  0.00000000000E+00 0.  1.
        -11    1    5    5    0    0  0.94765089980E+00  0.15386375755E+02 -0.36655647779E+01  0.15845345255E+02  0.00000000000E+00 0. -1.
          4    1    6    6  503    0 -0.93213072162E+00  0.96459244105E+01 -0.44124881761E+01  0.10648134922E+02  0.00000000000E+00 0. -1.
         -4    1    6    6    0  503  0.47172811933E+03  0.12640100863E+03 -0.10066571294E+03  0.49863635980E+03  0.00000000000E+00 0.  1.
<mgrwt>
<rscale>  0 0.14486477E+04</rscale>
<asrwt>0</asrwt>
<pdfrwt beam="1">  1        1 0.19242294E+00 0.14486477E+04</pdfrwt>
<pdfrwt beam="2">  1       -2 0.64533023E-01 0.14486477E+04</pdfrwt>
<totfact> 0.18540395E+01</totfact>
</mgrwt>
</event>
<event>
12    4  0.4320235E-008  0.1466830E+04  0.7818608E-02  0.8906815E-01
          1   -1    0    0  501    0  0.00000000000E+00  0.00000000000E+00  0.16087151113E+04  0.16087151113E+04  0.00000000000E+00 0. -1.
         -2   -1    0    0    0  501 -0.00000000000E+00 -0.00000000000E+00 -0.33436460224E+03  0.33436460224E+03  0.00000000000E+00 0.  1.
        -24    2    1    2    0    0  0.28622997929E+03 -0.27792746822E+03  0.67834306684E+03  0.79111192563E+03  0.80854708661E+02 0.  0.
        254    2    1    2    0    0 -0.28622997929E+03  0.27792746822E+03  0.59600744224E+03  0.11519677879E+04  0.90146194294E+03 0.  0.
         23    2    4    4    0    0  0.19079097493E+03  0.24995663596E+02  0.56440435777E+03  0.60348762060E+03  0.92838837976E+02 0.  0.
         23    2    4    4    0    0 -0.47702095422E+03  0.25293180463E+03  0.31603084473E+02  0.54848016733E+03  0.91149604724E+02 0.  0.
          1    1    3    3  502    0  0.25713718567E+03 -0.27483505426E+03  0.60994558059E+03  0.71671992479E+03  0.00000000000E+00 0. -1.
         -2    1    3    3    0  502  0.29092793622E+02 -0.30924139609E+01  0.68397486241E+02  0.74392000840E+02  0.00000000000E+00 0.  1.
         11    1    5    5    0    0  0.79404980556E+02 -0.17218373794E+02  0.13222890419E+03  0.15519699235E+03  0.00000000000E+00 0. -1.
        -11    1    5    5    0    0  0.11138599437E+03  0.42214037390E+02  0.43217545358E+03  0.44829062825E+03  0.00000000000E+00 0.  1.
          1    1    6    6  503    0 -0.54217475148E+02 -0.10393522211E+01  0.66154282482E+01  0.54629467830E+02  0.00000000000E+00 0. -1.
         -1    1    6    6    0  503 -0.42280347908E+03  0.25397115685E+03  0.24987656225E+02  0.49385069950E+03  0.00000000000E+00 0.  1.
<mgrwt>
<rscale>  0 0.14668298E+04</rscale>
<asrwt>0</asrwt>
<pdfrwt beam="1">  1        1 0.24749463E+00 0.14668298E+04</pdfrwt>
<pdfrwt beam="2">  1       -2 0.51440709E-01 0.14668298E+04</pdfrwt>
<totfact> 0.16726381E+01</totfact>
</mgrwt>
</event>
<event>
12    4  0.4320235E-008  0.3914791E+04  0.7818608E-02  0.8021960E-01
          1   -1    0    0  501    0  0.00000000000E+00  0.00000000000E+00  0.26026862827E+04  0.26026862827E+04  0.00000000000E+00 0. -1.
         -2   -1    0    0    0  501 -0.00000000000E+00 -0.00000000000E+00 -0.14720931318E+04  0.14720931318E+04  0.00000000000E+00 0.  1.
        -24    2    1    2    0    0 -0.14752678951E+04  0.11174432848E+04  0.41825695971E+03  0.18991411948E+04  0.81875125527E+02 0.  0.
        254    2    1    2    0    0  0.14752678951E+04 -0.11174432848E+04  0.71233619118E+03  0.21756382198E+04  0.89492120162E+03 0.  0.
         23    2    4    4    0    0  0.89703844042E+03 -0.11207557088E+04  0.67514871211E+03  0.15889638249E+04  0.90603151386E+02 0.  0.
         23    2    4    4    0    0  0.57822945470E+03  0.33124240272E+01  0.37187479074E+02  0.58667439487E+03  0.91889403947E+02 0.  0.
          3    1    3    3  502    0 -0.89926774281E+02  0.93029544220E+02  0.22835279051E+02  0.13138786397E+03  0.00000000000E+00 0. -1.
         -4    1    3    3    0  502 -0.13853411208E+04  0.10244137406E+04  0.39542168066E+03  0.17677533308E+04  0.00000000000E+00 0.  1.
         11    1    5    5    0    0  0.53924941825E+03 -0.73702219386E+03  0.40842520064E+03  0.10004013164E+04  0.00000000000E+00 0. -1.
        -11    1    5    5    0    0  0.35778902216E+03 -0.38373351497E+03  0.26672351147E+03  0.58856250854E+03  0.00000000000E+00 0.  1.
          3    1    6    6  503    0  0.46856669188E+03 -0.26187327228E+02  0.51921202185E+02  0.47216134116E+03  0.00000000000E+00 0. -1.
         -3    1    6    6    0  503  0.10966276282E+03  0.29499751255E+02 -0.14733723111E+02  0.11451305371E+03  0.00000000000E+00 0.  1.
<mgrwt>
<rscale>  0 0.39147907E+04</rscale>
<asrwt>0</asrwt>
<pdfrwt beam="1">  1        1 0.40041327E+00 0.39147907E+04</pdfrwt>
<pdfrwt beam="2">  1       -2 0.22647587E+00 0.39147907E+04</pdfrwt>
<totfact> 0.71675398E-02</totfact>
</mgrwt>
</event>
<event>
12    4  0.4320235E-008  0.1354092E+04  0.7818608E-02  0.8987736E-01
         -2   -1    0    0    0  501 -0.00000000000E+00  0.00000000000E+00  0.35488775379E+03  0.35488775379E+03  0.00000000000E+00 0.  1.
          1   -1    0    0  501    0  0.00000000000E+00 -0.00000000000E+00 -0.12916509880E+04  0.12916509880E+04  0.00000000000E+00 0. -1.
        -24    2    1    2    0    0  0.30231772552E+03  0.16627865653E+02 -0.52771206194E+03  0.61361749492E+03  0.79836812776E+02 0.  0.
        254    2    1    2    0    0 -0.30231772552E+03 -0.16627865653E+02 -0.40905117225E+03  0.10329212468E+04  0.89884979144E+03 0.  0.
         23    2    4    4    0    0  0.12526266146E+03 -0.30365141878E+02  0.21685553792E+03  0.26957674973E+03  0.95039588968E+02 0.  0.
         23    2    4    4    0    0 -0.42758038698E+03  0.13737276225E+02 -0.62590671018E+03  0.76334449711E+03  0.89005119725E+02 0.  0.
          1    1    3    3  502    0  0.13953060633E+03 -0.78755024512E+01 -0.31528197034E+03  0.34486741578E+03  0.00000000000E+00 0. -1.
         -2    1    3    3    0  502  0.16278711919E+03  0.24503368104E+02 -0.21243009160E+03  0.26875007914E+03  0.00000000000E+00 0.  1.
         11    1    5    5    0    0  0.48672246407E+02 -0.16307322617E+02  0.17246704581E+03  0.17994387523E+03  0.00000000000E+00 0.  1.
        -11    1    5    5    0    0  0.76590415051E+02 -0.14057819261E+02  0.44388492115E+02  0.89632874506E+02  0.00000000000E+00 0. -1.
          2    1    6    6  503    0  0.42848852327E+01 -0.14923282439E+01 -0.97780493570E+01  0.10779496012E+02  0.00000000000E+00 0. -1.
         -2    1    6    6    0  503 -0.43186527221E+03  0.15229604469E+02 -0.61612866082E+03  0.75256500110E+03  0.00000000000E+00 0.  1.
<mgrwt>
<rscale>  0 0.13540918E+04</rscale>
<asrwt>0</asrwt>
<pdfrwt beam="1">  1        1 0.19871554E+00 0.13540918E+04</pdfrwt>
<pdfrwt beam="2">  1       -2 0.54598115E-01 0.13540918E+04</pdfrwt>
<totfact> 0.24848323E+01</totfact>
</mgrwt>
</event>
<event>
12    4  0.4320235E-008  0.2062584E+04  0.7818608E-02  0.8577907E-01
         -2   -1    0    0    0  501 -0.00000000000E+00  0.00000000000E+00  0.44441878543E+03  0.44441878543E+03  0.00000000000E+00 0.  1.
          1   -1    0    0  501    0  0.00000000000E+00 -0.00000000000E+00 -0.23931561602E+04  0.23931561602E+04  0.00000000000E+00 0. -1.
        -24    2    1    2    0    0  0.78240957120E+02 -0.81965230369E+03 -0.67257758662E+03  0.10661889384E+04  0.80291319168E+02 0.  0.
        254    2    1    2    0    0 -0.78240957120E+02  0.81965230369E+03 -0.12761597881E+04  0.17713860073E+04  0.91174175925E+03 0.  0.
         23    2    4    4    0    0 -0.38243278598E+03  0.36121735105E+03 -0.22265241737E+03  0.57925588625E+03  0.96075346988E+02 0.  0.
         23    2    4    4    0    0  0.30419182886E+03  0.45843495264E+03 -0.10535073708E+04  0.11921301210E+04  0.92742496290E+02 0.  0.
          1    1    3    3  502    0 -0.14986518408E+02 -0.18890316968E+03 -0.16366054108E+03  0.25038725198E+03  0.00000000000E+00 0. -1.
         -2    1    3    3    0  502  0.93227475527E+02 -0.63074913401E+03 -0.50891704555E+03  0.81580168638E+03  0.00000000000E+00 0.  1.
         11    1    5    5    0    0 -0.14239740539E+03  0.18152342109E+03 -0.13296746582E+03  0.26628578714E+03  0.00000000000E+00 0. -1.
        -11    1    5    5    0    0 -0.24003538060E+03  0.17969392996E+03 -0.89684951547E+02  0.31297009911E+03  0.00000000000E+00 0.  1.
          4    1    6    6  503    0  0.10789910166E+03  0.11141888375E+03 -0.23319681844E+03  0.28006631345E+03  0.00000000000E+00 0. -1.
         -4    1    6    6    0  503  0.19629272720E+03  0.34701606889E+03 -0.82031055231E+03  0.91206380756E+03  0.00000000000E+00 0.  1.
<mgrwt>
<rscale>  0 0.20625844E+04</rscale>
<asrwt>0</asrwt>
<pdfrwt beam="1">  1        1 0.36817786E+00 0.20625844E+04</pdfrwt>
<pdfrwt beam="2">  1       -2 0.68372122E-01 0.20625844E+04</pdfrwt>
<totfact> 0.25479055E+00</totfact>
</mgrwt>
</event>
<event>
12    4  0.4320235E-008  0.1305555E+04  0.7818608E-02  0.9025172E-01
         -2   -1    0    0    0  501 -0.00000000000E+00  0.00000000000E+00  0.19025479138E+03  0.19025479138E+03  0.00000000000E+00 0.  1.
          1   -1    0    0  501    0  0.00000000000E+00 -0.00000000000E+00 -0.22397239862E+04  0.22397239862E+04  0.00000000000E+00 0. -1.
        -24    2    1    2    0    0 -0.19306797667E+03 -0.33857128970E+02 -0.31491203869E+02  0.21397046051E+03  0.79812989265E+02 0.  0.
        254    2    1    2    0    0  0.19306797667E+03  0.33857128970E+02 -0.20179779910E+04  0.22160083171E+04  0.89444739395E+03 0.  0.
         23    2    4    4    0    0 -0.17296351307E+03 -0.16698623559E+03 -0.15365433462E+03  0.30352431058E+03  0.10352088114E+03 0.  0.
         23    2    4    4    0    0  0.36603148974E+03  0.20084336456E+03 -0.18643236563E+04  0.19124840065E+04  0.87036032507E+02 0.  0.
          3    1    3    3  502    0 -0.65539944328E+02  0.26205173457E+02 -0.75430576167E+01  0.70986570115E+02  0.00000000000E+00 0. -1.
         -4    1    3    3    0  502 -0.12752803234E+03 -0.60062302427E+02 -0.23948146253E+02  0.14298389040E+03  0.00000000000E+00 0.  1.
         11    1    5    5    0    0  0.47103913064E+01 -0.46235429347E+02 -0.34395720899E+02  0.57818408222E+02  0.00000000000E+00 0. -1.
        -11    1    5    5    0    0 -0.17767390438E+03 -0.12075080624E+03 -0.11925861373E+03  0.24570590236E+03  0.00000000000E+00 0.  1.
          4    1    6    6  503    0  0.68346441849E+02  0.46450367311E+02 -0.54397303101E+03  0.55021407761E+03  0.00000000000E+00 0. -1.
         -4    1    6    6    0  503  0.29768504789E+03  0.15439299725E+03 -0.13203506253E+04  0.13622699289E+04  0.00000000000E+00 0.  1.
<mgrwt>
<rscale>  0 0.13055546E+04</rscale>
<asrwt>0</asrwt>
<pdfrwt beam="1">  1        1 0.34457294E+00 0.13055546E+04</pdfrwt>
<pdfrwt beam="2">  1       -2 0.29269966E-01 0.13055546E+04</pdfrwt>
<totfact> 0.18996123E+01</totfact>
</mgrwt>
</event>
<event>
12    4  0.4320235E-008  0.1537860E+04  0.7818608E-02  0.8859660E-01
          1   -1    0    0  501    0  0.00000000000E+00  0.00000000000E+00  0.14481463239E+04  0.14481463239E+04  0.00000000000E+00 0. -1.
         -2   -1    0    0    0  501 -0.00000000000E+00 -0.00000000000E+00 -0.40828279158E+03  0.40828279158E+03  0.00000000000E+00 0.  1.
        -24    2    1    2    0    0 -0.22209792262E+03 -0.27325893412E+03  0.79766889100E+03  0.87498620318E+03  0.72988107079E+02 0.  0.
        254    2    1    2    0    0  0.22209792262E+03  0.27325893412E+03  0.24219464136E+03  0.98144291235E+03  0.88350099806E+03 0.  0.
         23    2    4    4    0    0 -0.29450259904E+03 -0.81951483911E+02  0.66037133667E+02  0.32381142272E+03  0.83935141043E+02 0.  0.
         23    2    4    4    0    0  0.51660052166E+03  0.35521041803E+03  0.17615750770E+03  0.65763148963E+03  0.91636065898E+02 0.  0.
          1    1    3    3  502    0 -0.19312633509E+03 -0.26498683381E+03  0.75067180051E+03  0.81916051875E+03  0.00000000000E+00 0. -1.
         -2    1    3    3    0  502 -0.28971587528E+02 -0.82721003155E+01  0.46997090490E+02  0.55825684429E+02  0.00000000000E+00 0.  1.
         11    1    5    5    0    0 -0.23465595408E+01 -0.16992116298E+02 -0.71061739041E+00  0.17168090606E+02  0.00000000000E+00 0. -1.
        -11    1    5    5    0    0 -0.29215603950E+03 -0.64959367612E+02  0.66747751057E+02  0.30664333211E+03  0.00000000000E+00 0.  1.
          3    1    6    6  503    0  0.54874351620E+02  0.11540473694E+02  0.30789772547E+02  0.63971767932E+02  0.00000000000E+00 0. -1.
         -3    1    6    6    0  503  0.46172617004E+03  0.34366994434E+03  0.14536773515E+03  0.59365972170E+03  0.00000000000E+00 0.  1.
<mgrwt>
<rscale>  0 0.15378598E+04</rscale>
<asrwt>0</asrwt>
<pdfrwt beam="1">  1        1 0.22279174E+00 0.15378598E+04</pdfrwt>
<pdfrwt beam="2">  1       -2 0.62812738E-01 0.15378598E+04</pdfrwt>
<totfact> 0.14131808E+01</totfact>
</mgrwt>
</event>
<event>
12    4  0.4320235E-008  0.1961908E+04  0.7818608E-02  0.8624640E-01
          1   -1    0    0  501    0  0.00000000000E+00  0.00000000000E+00  0.25407580915E+04  0.25407580915E+04  0.00000000000E+00 0. -1.
         -2   -1    0    0    0  501 -0.00000000000E+00 -0.00000000000E+00 -0.37873358941E+03  0.37873358941E+03  0.00000000000E+00 0.  1.
        -24    2    1    2    0    0 -0.69631204576E+03  0.14096950976E+03  0.41362993607E+03  0.82608506998E+03  0.81264697588E+02 0.  0.
        254    2    1    2    0    0  0.69631204576E+03 -0.14096950976E+03  0.17483945660E+04  0.20934066109E+04  0.90594967435E+03 0.  0.
         23    2    4    4    0    0  0.17003031223E+03 -0.47390890883E+03  0.92461573317E+03  0.10566594983E+04  0.90083740734E+02 0.  0.
         23    2    4    4    0    0  0.52628173353E+03  0.33293939906E+03  0.82377883287E+03  0.10367471127E+04  0.91716430600E+02 0.  0.
          1    1    3    3  502    0 -0.45627317429E+02 -0.10691497747E+02  0.24045929579E+02  0.52672259769E+02  0.00000000000E+00 0. -1.
         -2    1    3    3    0  502 -0.65068472833E+03  0.15166100751E+03  0.38958400649E+03  0.77341281021E+03  0.00000000000E+00 0.  1.
         11    1    5    5    0    0  0.70212906940E+02 -0.10170318510E+03  0.27205496545E+03  0.29880979634E+03  0.00000000000E+00 0. -1.
        -11    1    5    5    0    0  0.99817405293E+02 -0.37220572373E+03  0.65256076771E+03  0.75784970194E+03  0.00000000000E+00 0.  1.
          4    1    6    6  503    0  0.18962503268E+03  0.10671741874E+03  0.35977106615E+03  0.42045389821E+03  0.00000000000E+00 0. -1.
         -4    1    6    6    0  503  0.33665670085E+03  0.22622198033E+03  0.46400776673E+03  0.61629321446E+03  0.00000000000E+00 0.  1.
<mgrwt>
<rscale>  0 0.19619077E+04</rscale>
<asrwt>0</asrwt>
<pdfrwt beam="1">  1        1 0.39088585E+00 0.19619077E+04</pdfrwt>
<pdfrwt beam="2">  1       -2 0.58266708E-01 0.19619077E+04</pdfrwt>
<totfact> 0.28607905E+00</totfact>
</mgrwt>
</event>
<event>
12    4  0.4320235E-008  0.1699883E+04  0.7818608E-02  0.8761431E-01
         -2   -1    0    0    0  501 -0.00000000000E+00  0.00000000000E+00  0.15048712728E+04  0.15048712728E+04  0.00000000000E+00 0.  1.
          1   -1    0    0  501    0  0.00000000000E+00 -0.00000000000E+00 -0.48004155867E+03  0.48004155867E+03  0.00000000000E+00 0. -1.
        -24    2    1    2    0    0  0.26441503621E+03 -0.23246277213E+03 -0.17855248766E+03  0.40229985585E+03  0.77523747122E+02 0.  0.
        254    2    1    2    0    0 -0.26441503621E+03  0.23246277213E+03  0.12033822017E+04  0.15826129756E+04  0.96570226011E+03 0.  0.
         23    2    4    4    0    0 -0.23136645573E+03  0.12436362611E+03 -0.81316838737E+02  0.28970937005E+03  0.91226873765E+02 0.  0.
         23    2    4    4    0    0 -0.33048580481E+02  0.10809914602E+03  0.12846990405E+04  0.12929036055E+04  0.91490297397E+02 0.  0.
          1    1    3    3  502    0  0.91568748970E+02 -0.13166267593E+03 -0.82419607281E+02  0.18031330424E+03  0.00000000000E+00 0. -1.
         -2    1    3    3    0  502  0.17284628724E+03 -0.10080009620E+03 -0.96132880375E+02  0.22198655161E+03  0.00000000000E+00 0.  1.
         11    1    5    5    0    0 -0.88536607511E+02  0.13004607881E+02 -0.59099189268E+02  0.10724068663E+03  0.00000000000E+00 0.  1.
        -11    1    5    5    0    0 -0.14282984822E+03  0.11135901823E+03 -0.22217649468E+02  0.18246868343E+03  0.00000000000E+00 0. -1.
          4    1    6    6  503    0  0.16850179783E+02 -0.80604224518E+01  0.19633464136E+03  0.19722117119E+03  0.00000000000E+00 0. -1.
         -4    1    6    6    0  503 -0.49898760264E+02  0.11615956847E+03  0.10883643991E+04  0.10956824343E+04  0.00000000000E+00 0.  1.
<mgrwt>
<rscale>  0 0.16998832E+04</rscale>
<asrwt>0</asrwt>
<pdfrwt beam="1">  1        1 0.73852548E-01 0.16998832E+04</pdfrwt>
<pdfrwt beam="2">  1       -2 0.23151865E+00 0.16998832E+04</pdfrwt>
<totfact> 0.32632107E+00</totfact>
</mgrwt>
</event>
<event>
12    4  0.4320235E-008  0.1840992E+04  0.7818608E-02  0.8684799E-01
         -2   -1    0    0    0  501 -0.00000000000E+00  0.00000000000E+00  0.83153038286E+03  0.83153038286E+03  0.00000000000E+00 0.  1.
          1   -1    0    0  501    0  0.00000000000E+00 -0.00000000000E+00 -0.10189797321E+04  0.10189797321E+04  0.00000000000E+00 0. -1.
        -24    2    1    2    0    0  0.49926348427E+03 -0.42958525457E+03  0.14668789002E+03  0.67945912037E+03  0.79623121661E+02 0.  0.
        254    2    1    2    0    0 -0.49926348427E+03  0.42958525457E+03 -0.33413723925E+03  0.11710509946E+04  0.90879327659E+03 0.  0.
         23    2    4    4    0    0 -0.75419207544E+03  0.31194518931E+03 -0.19282508164E+03  0.84401578146E+03  0.95213651602E+02 0.  0.
         23    2    4    4    0    0  0.25492859117E+03  0.11764006525E+03 -0.14131215761E+03  0.32703521312E+03  0.90305776036E+02 0.  0.
          1    1    3    3  502    0  0.45066454507E+03 -0.41438421296E+03  0.12996251809E+03  0.62586185716E+03  0.00000000000E+00 0. -1.
         -2    1    3    3    0  502  0.48598939200E+02 -0.15201041603E+02  0.16725371929E+02  0.53597263208E+02  0.00000000000E+00 0.  1.
         11    1    5    5    0    0 -0.25541022643E+02  0.30137045872E+02 -0.78873635397E+00  0.39512118098E+02  0.00000000000E+00 0. -1.
        -11    1    5    5    0    0 -0.72865105279E+03  0.28180814344E+03 -0.19203634529E+03  0.80450366336E+03  0.00000000000E+00 0.  1.
          3    1    6    6  503    0  0.20666580611E+03  0.52169327541E+02 -0.94173761514E+02  0.23302594600E+03  0.00000000000E+00 0. -1.
         -3    1    6    6    0  503  0.48262785054E+02  0.65470737713E+02 -0.47138396094E+02  0.94009267118E+02  0.00000000000E+00 0.  1.
<mgrwt>
<rscale>  0 0.18409917E+04</rscale>
<asrwt>0</asrwt>
<pdfrwt beam="1">  1        1 0.15676611E+00 0.18409917E+04</pdfrwt>
<pdfrwt beam="2">  1       -2 0.12792775E+00 0.18409917E+04</pdfrwt>
<totfact> 0.54527289E+00</totfact>
</mgrwt>
</event>
<event>
12    4  0.4320235E-008  0.2449702E+04  0.7818608E-02  0.8421127E-01
         -2   -1    0    0    0  501 -0.00000000000E+00  0.00000000000E+00  0.90139461146E+03  0.90139461146E+03  0.00000000000E+00 0.  1.
          1   -1    0    0  501    0  0.00000000000E+00 -0.00000000000E+00 -0.16643764037E+04  0.16643764037E+04  0.00000000000E+00 0. -1.
        -24    2    1    2    0    0 -0.35788642027E+03 -0.84282084850E+03  0.22241766707E+03  0.94572835973E+03  0.80640184080E+02 0.  0.
        254    2    1    2    0    0  0.35788642027E+03  0.84282084850E+03 -0.98539945928E+03  0.16200426554E+04  0.90282691501E+03 0.  0.
         23    2    4    4    0    0  0.46117756720E+02  0.15328212689E+02  0.14901621136E+03  0.17882218116E+03  0.86079844554E+02 0.  0.
         23    2    4    4    0    0  0.31176866355E+03  0.82749263582E+03 -0.11344156706E+04  0.14412204742E+04  0.90960319145E+02 0.  0.
          3    1    3    3  502    0 -0.43154972995E+02 -0.89200979732E+02  0.50143506902E+02  0.11105646205E+03  0.00000000000E+00 0. -1.
         -4    1    3    3    0  502 -0.31473144728E+03 -0.75361986877E+03  0.17227416016E+03  0.83467189768E+03  0.00000000000E+00 0.  1.
         11    1    5    5    0    0  0.45896146004E+01 -0.22098937541E+02  0.10574582886E+03  0.10812773892E+03  0.00000000000E+00 0. -1.
        -11    1    5    5    0    0  0.41528142119E+02  0.37427150230E+02  0.43270382498E+02  0.70694442241E+02  0.00000000000E+00 0.  1.
          2    1    6    6  503    0  0.39699750590E+02  0.10126270573E+03 -0.19270975153E+03  0.22128545841E+03  0.00000000000E+00 0.  1.
         -2    1    6    6    0  503  0.27206891296E+03  0.72622993008E+03 -0.94170591911E+03  0.12199350158E+04  0.00000000000E+00 0. -1.
<mgrwt>
<rscale>  0 0.24497020E+04</rscale>
<asrwt>0</asrwt>
<pdfrwt beam="1">  1        1 0.25605791E+00 0.24497020E+04</pdfrwt>
<pdfrwt beam="2">  1       -2 0.13867610E+00 0.24497020E+04</pdfrwt>
<totfact> 0.14543689E+00</totfact>
</mgrwt>
</event>
<event>
12    4  0.4320235E-008  0.1075942E+04  0.7818608E-02  0.9228963E-01
          1   -1    0    0  501    0  0.00000000000E+00  0.00000000000E+00  0.40084320049E+03  0.40084320049E+03  0.00000000000E+00 0. -1.
         -2   -1    0    0    0  501 -0.00000000000E+00 -0.00000000000E+00 -0.72200932919E+03  0.72200932919E+03  0.00000000000E+00 0.  1.
        -24    2    1    2    0    0 -0.15223093821E+02 -0.10370105828E+03  0.57790573035E+02  0.14426035901E+03  0.80533525794E+02 0.  0.
        254    2    1    2    0    0  0.15223093821E+02  0.10370105828E+03 -0.37895670173E+03  0.97859217068E+03  0.89612990278E+03 0.  0.
         23    2    4    4    0    0  0.34892959885E+03 -0.13388196698E+03 -0.40395880546E+03  0.55905593383E+03  0.98410236292E+02 0.  0.
         23    2    4    4    0    0 -0.33370650503E+03  0.23758302526E+03  0.25002103722E+02  0.41953623685E+03  0.87062181525E+02 0.  0.
          3    1    3    3  502    0  0.17525367968E+02 -0.59679961986E+02  0.63755421840E+02  0.89070703372E+02  0.00000000000E+00 0. -1.
         -4    1    3    3    0  502 -0.32748461789E+02 -0.44021096290E+02 -0.59648488059E+01  0.55189655638E+02  0.00000000000E+00 0.  1.
         11    1    5    5    0    0  0.34557165287E+02 -0.29344223152E+02 -0.14174359574E+02  0.47499406042E+02  0.00000000000E+00 0.  1.
        -11    1    5    5    0    0  0.31437243356E+03 -0.10453774383E+03 -0.38978444588E+03  0.51155652779E+03  0.00000000000E+00 0. -1.
          3    1    6    6  503    0 -0.29339220609E+02 -0.47647926135E+01  0.20664686040E+01  0.29795358818E+02  0.00000000000E+00 0.  1.
         -3    1    6    6    0  503 -0.30436728442E+03  0.24234781787E+03  0.22935635118E+02  0.38974087803E+03  0.00000000000E+00 0. -1.
<mgrwt>
<rscale>  0 0.10759415E+04</rscale>
<asrwt>0</asrwt>
<pdfrwt beam="1">  1        1 0.61668186E-01 0.10759415E+04</pdfrwt>
<pdfrwt beam="2">  1       -2 0.11107836E+00 0.10759415E+04</pdfrwt>
<totfact> 0.33468404E+01</totfact>
</mgrwt>
</event>
<event>
12    4  0.4320235E-008  0.1576424E+04  0.7818608E-02  0.8835164E-01
          1   -1    0    0  501    0  0.00000000000E+00  0.00000000000E+00  0.10828840976E+04  0.10828840976E+04  0.00000000000E+00 0. -1.
         -2   -1    0    0    0  501 -0.00000000000E+00 -0.00000000000E+00 -0.57372546217E+03  0.57372546217E+03  0.00000000000E+00 0.  1.
        -24    2    1    2    0    0  0.30963842361E+03 -0.36774137496E+03 -0.80044569339E+02  0.49391617535E+03  0.80227071283E+02 0.  0.
        254    2    1    2    0    0 -0.30963842361E+03  0.36774137496E+03  0.58920320478E+03  0.11626933844E+04  0.87953727461E+03 0.  0.
         23    2    4    4    0    0 -0.23620498824E+03 -0.21525835804E+03  0.71371953554E+01  0.33026294131E+03  0.83028390763E+02 0.  0.
         23    2    4    4    0    0 -0.73433435368E+02  0.58299973299E+03  0.58206600942E+03  0.83243044311E+03  0.94119313574E+02 0.  0.
          3    1    3    3  502    0  0.98392077643E+02 -0.76972680959E+02  0.33317824971E+01  0.12496757712E+03  0.00000000000E+00 0. -1.
         -4    1    3    3    0  502  0.21124634596E+03 -0.29076869400E+03 -0.83376351836E+02  0.36894859823E+03  0.00000000000E+00 0.  1.
         11    1    5    5    0    0 -0.29188114963E+02 -0.35290832128E+02 -0.28055687563E+02  0.53707639047E+02  0.00000000000E+00 0. -1.
        -11    1    5    5    0    0 -0.20701687328E+03 -0.17996752591E+03  0.35192882918E+02  0.27655530227E+03  0.00000000000E+00 0.  1.
          4    1    6    6  503    0 -0.76819065483E+01  0.99862674807E+00  0.16535555751E+02  0.18260162857E+02  0.00000000000E+00 0. -1.
         -4    1    6    6    0  503 -0.65751528820E+02  0.58200110625E+03  0.56553045367E+03  0.81417028025E+03  0.00000000000E+00 0.  1.
<mgrwt>
<rscale>  0 0.15764240E+04</rscale>
<asrwt>0</asrwt>
<pdfrwt beam="1">  1        1 0.16659755E+00 0.15764240E+04</pdfrwt>
<pdfrwt beam="2">  1       -2 0.88265456E-01 0.15764240E+04</pdfrwt>
<totfact> 0.12171020E+01</totfact>
</mgrwt>
</event>
<event>
12    4  0.4320235E-008  0.2706696E+04  0.7818608E-02  0.8332835E-01
          1   -1    0    0  501    0  0.00000000000E+00  0.00000000000E+00  0.13288326844E+04  0.13288326844E+04  0.00000000000E+00 0. -1.
         -2   -1    0    0    0  501 -0.00000000000E+00 -0.00000000000E+00 -0.13783160854E+04  0.13783160854E+04  0.00000000000E+00 0.  1.
        -24    2    1    2    0    0 -0.80834339498E+03  0.69766364309E+03  0.52813346456E+03  0.11938665649E+04  0.78986170890E+02 0.  0.
        254    2    1    2    0    0  0.80834339498E+03 -0.69766364309E+03 -0.57761686555E+03  0.15132822049E+04  0.90345347714E+03 0.  0.
         23    2    4    4    0    0  0.59582144823E+03 -0.15707087763E+03 -0.67451464322E+03  0.91781266710E+03  0.87952425723E+02 0.  0.
         23    2    4    4    0    0  0.21252194675E+03 -0.54059276546E+03  0.96897777670E+02  0.59546953785E+03  0.88253471775E+02 0.  0.
          3    1    3    3  502    0 -0.76997006821E+03  0.65498841385E+03  0.48039022747E+03  0.11192133393E+04  0.00000000000E+00 0. -1.
         -4    1    3    3    0  502 -0.38373326771E+02  0.42675229242E+02  0.47743237086E+02  0.74653225556E+02  0.00000000000E+00 0.  1.
         11    1    5    5    0    0  0.63799543117E+02 -0.44488621235E+02 -0.69284934666E+02  0.10416343549E+03  0.00000000000E+00 0. -1.
        -11    1    5    5    0    0  0.53202190512E+03 -0.11258225640E+03 -0.60522970855E+03  0.81364923161E+03  0.00000000000E+00 0.  1.
          2    1    6    6  503    0  0.16629109321E+03 -0.40525276719E+03  0.11061669884E+03  0.45179485064E+03  0.00000000000E+00 0.  1.
         -2    1    6    6    0  503  0.46230853534E+02 -0.13533999826E+03 -0.13718921172E+02  0.14367468721E+03  0.00000000000E+00 0. -1.
<mgrwt>
<rscale>  0 0.27066965E+04</rscale>
<asrwt>0</asrwt>
<pdfrwt beam="1">  1        1 0.20443580E+00 0.27066965E+04</pdfrwt>
<pdfrwt beam="2">  1       -2 0.21204863E+00 0.27066965E+04</pdfrwt>
<totfact> 0.73413927E-01</totfact>
</mgrwt>
</event>
<event>
12    4  0.4320235E-008  0.2219698E+04  0.7818608E-02  0.8510274E-01
         -2   -1    0    0    0  501 -0.00000000000E+00  0.00000000000E+00  0.44730198646E+03  0.44730198646E+03  0.00000000000E+00 0.  1.
          1   -1    0    0  501    0  0.00000000000E+00 -0.00000000000E+00 -0.27537664405E+04  0.27537664405E+04  0.00000000000E+00 0. -1.
        -24    2    1    2    0    0 -0.92320000158E+03  0.45710949065E+02 -0.10941433505E+04  0.14345222043E+04  0.79476723625E+02 0.  0.
        254    2    1    2    0    0  0.92320000158E+03 -0.45710949065E+02 -0.12123211036E+04  0.17665462227E+04  0.89251070847E+03 0.  0.
         23    2    4    4    0    0 -0.14337864234E+03  0.28328338526E+02 -0.35100928192E+03  0.39056021319E+03  0.89273928375E+02 0.  0.
         23    2    4    4    0    0  0.10665786439E+04 -0.74039287590E+02 -0.86131182170E+03  0.13759860095E+04  0.91693098431E+02 0.  0.
          1    1    3    3  502    0 -0.68491913456E+03 -0.10279494516E+01 -0.80799250291E+03  0.10592295135E+04  0.00000000000E+00 0. -1.
         -2    1    3    3    0  502 -0.23828086702E+03  0.46738898516E+02 -0.28615084755E+03  0.37529269082E+03  0.00000000000E+00 0.  1.
         11    1    5    5    0    0 -0.14228209726E+03  0.45389665586E+02 -0.33643886096E+03  0.36809716666E+03  0.00000000000E+00 0.  1.
        -11    1    5    5    0    0 -0.10965450819E+01 -0.17061327060E+02 -0.14570420964E+02  0.22463046526E+02  0.00000000000E+00 0. -1.
          2    1    6    6  503    0  0.22140809804E+03 -0.45737192784E+02 -0.15422279094E+03  0.27367518325E+03  0.00000000000E+00 0. -1.
         -2    1    6    6    0  503  0.84517054588E+03 -0.28302094806E+02 -0.70708903077E+03  0.11023108262E+04  0.00000000000E+00 0.  1.
<mgrwt>
<rscale>  0 0.22196984E+04</rscale>
<asrwt>0</asrwt>
<pdfrwt beam="1">  1        1 0.42365637E+00 0.22196984E+04</pdfrwt>
<pdfrwt beam="2">  1       -2 0.68815691E-01 0.22196984E+04</pdfrwt>
<totfact> 0.13879055E+00</totfact>
</mgrwt>
</event>
<event>
12    4  0.4320235E-008  0.1743107E+04  0.7818608E-02  0.8737154E-01
         -2   -1    0    0    0  501 -0.00000000000E+00  0.00000000000E+00  0.48058287756E+03  0.48058287756E+03  0.00000000000E+00 0.  1.
          1   -1    0    0  501    0  0.00000000000E+00 -0.00000000000E+00 -0.15805923813E+04  0.15805923813E+04  0.00000000000E+00 0. -1.
        -24    2    1    2    0    0 -0.32293019165E+03  0.13208128811E+03 -0.10320462378E+04  0.10923375189E+04  0.79702213804E+02 0.  0.
        254    2    1    2    0    0  0.32293019165E+03 -0.13208128811E+03 -0.67963265907E+02  0.96883773994E+03  0.90127586535E+03 0.  0.
         23    2    4    4    0    0  0.16612435658E+03 -0.49993828679E+03  0.62306662207E+02  0.53836148653E+03  0.91735367072E+02 0.  0.
         23    2    4    4    0    0  0.15680583507E+03  0.36785699868E+03 -0.13026992811E+03  0.43047625341E+03  0.91829783755E+02 0.  0.
          1    1    3    3  502    0 -0.31047580796E+03  0.11355194009E+03 -0.10004055667E+04  0.10536131018E+04  0.00000000000E+00 0. -1.
         -2    1    3    3    0  502 -0.12454383687E+02  0.18529348019E+02 -0.31640671122E+02  0.38724417104E+02  0.00000000000E+00 0.  1.
         11    1    5    5    0    0  0.17445469852E+03 -0.48623255804E+03  0.51765340108E+02  0.51916875173E+03  0.00000000000E+00 0.  1.
        -11    1    5    5    0    0 -0.83303419413E+01 -0.13705728749E+02  0.10541322100E+02  0.19192734798E+02  0.00000000000E+00 0. -1.
          1    1    6    6  503    0  0.94136317703E+02  0.11278031454E+03 -0.34523265614E+02  0.15090693001E+03  0.00000000000E+00 0. -1.
         -1    1    6    6    0  503  0.62669517365E+02  0.25507668415E+03 -0.95746662500E+02  0.27956932339E+03  0.00000000000E+00 0.  1.
<mgrwt>
<rscale>  0 0.17431072E+04</rscale>
<asrwt>0</asrwt>
<pdfrwt beam="1">  1        1 0.24316806E+00 0.17431072E+04</pdfrwt>
<pdfrwt beam="2">  1       -2 0.73935827E-01 0.17431072E+04</pdfrwt>
<totfact> 0.78921347E+00</totfact>
</mgrwt>
</event>
<event>
12    4  0.4320235E-008  0.1869781E+04  0.7818608E-02  0.8670046E-01
          1   -1    0    0  501    0  0.00000000000E+00  0.00000000000E+00  0.21215775218E+04  0.21215775218E+04  0.00000000000E+00 0. -1.
         -2   -1    0    0    0  501 -0.00000000000E+00 -0.00000000000E+00 -0.41196701883E+03  0.41196701883E+03  0.00000000000E+00 0.  1.
        -24    2    1    2    0    0 -0.15067354497E+03  0.10405857097E+03 -0.28051402271E+03  0.34442307153E+03  0.80052682154E+02 0.  0.
        254    2    1    2    0    0  0.15067354497E+03 -0.10405857097E+03  0.19901245257E+04  0.21891214691E+04  0.89337924500E+03 0.  0.
         23    2    4    4    0    0 -0.22200156791E+03 -0.16746474540E+03  0.19485644213E+03  0.35181505977E+03  0.92063381081E+02 0.  0.
         23    2    4    4    0    0  0.37267511288E+03  0.63406174423E+02  0.17952680835E+04  0.18373064093E+04  0.98996299174E+02 0.  0.
          1    1    3    3  502    0  0.26449491856E+01  0.90472526962E+01  0.16158384226E+01  0.95634445338E+01  0.00000000000E+00 0. -1.
         -2    1    3    3    0  502 -0.15331849416E+03  0.95011318278E+02 -0.28212986113E+03  0.33485962700E+03  0.00000000000E+00 0.  1.
         11    1    5    5    0    0 -0.48512411595E+02 -0.79824084562E+02  0.33622507888E+02  0.99276440264E+02  0.00000000000E+00 0. -1.
        -11    1    5    5    0    0 -0.17348915631E+03 -0.87640660836E+02  0.16123393425E+03  0.25253861951E+03  0.00000000000E+00 0.  1.
          2    1    6    6  503    0  0.15611422812E+03  0.68315965647E+02  0.91864441623E+03  0.93431594595E+03  0.00000000000E+00 0. -1.
         -2    1    6    6    0  503  0.21656088476E+03 -0.49097912235E+01  0.87662366731E+03  0.90299046337E+03  0.00000000000E+00 0.  1.
<mgrwt>
<rscale>  0 0.18697807E+04</rscale>
<asrwt>0</asrwt>
<pdfrwt beam="1">  1        1 0.32639654E+00 0.18697807E+04</pdfrwt>
<pdfrwt beam="2">  1       -2 0.63379542E-01 0.18697807E+04</pdfrwt>
<totfact> 0.46783523E+00</totfact>
</mgrwt>
</event>
<event>
12    4  0.4320235E-008  0.2316416E+04  0.7818608E-02  0.8471477E-01
         -2   -1    0    0    0  501 -0.00000000000E+00  0.00000000000E+00  0.11524580425E+04  0.11524580425E+04  0.00000000000E+00 0.  1.
          1   -1    0    0  501    0  0.00000000000E+00 -0.00000000000E+00 -0.11639865851E+04  0.11639865851E+04  0.00000000000E+00 0. -1.
        -24    2    1    2    0    0 -0.55303032091E+03 -0.33066610249E+03  0.73160907826E+03  0.97812491915E+03  0.79334147052E+02 0.  0.
        254    2    1    2    0    0  0.55303032091E+03  0.33066610249E+03 -0.74313762084E+03  0.13383197084E+04  0.90755909516E+03 0.  0.
         23    2    4    4    0    0  0.76081190657E+03  0.86700106412E+02 -0.44194934336E+03  0.88884942814E+03  0.91555547008E+02 0.  0.
         23    2    4    4    0    0 -0.20778158566E+03  0.24396599608E+03 -0.30118827747E+03  0.44947028025E+03  0.92825426266E+02 0.  0.
          3    1    3    3  502    0 -0.33964809240E+03 -0.24606466156E+03  0.48587814695E+03  0.64186152559E+03  0.00000000000E+00 0. -1.
         -4    1    3    3    0  502 -0.21338222850E+03 -0.84601440929E+02  0.24573093131E+03  0.33626339356E+03  0.00000000000E+00 0.  1.
         11    1    5    5    0    0  0.17246251701E+03  0.57775508052E+02 -0.94782139475E+02  0.20509749649E+03  0.00000000000E+00 0. -1.
        -11    1    5    5    0    0  0.58834938956E+03  0.28924598360E+02 -0.34716720389E+03  0.68375193165E+03  0.00000000000E+00 0.  1.
          4    1    6    6  503    0 -0.57082212702E+02  0.13386155113E+03 -0.11121087943E+03  0.18315336082E+03  0.00000000000E+00 0.  1.
         -4    1    6    6    0  503 -0.15069937296E+03  0.11010444496E+03 -0.18997739804E+03  0.26631691943E+03  0.00000000000E+00 0. -1.
<mgrwt>
<rscale>  0 0.23164159E+04</rscale>
<asrwt>0</asrwt>
<pdfrwt beam="1">  1        1 0.17907486E+00 0.23164159E+04</pdfrwt>
<pdfrwt beam="2">  1       -2 0.17730124E+00 0.23164159E+04</pdfrwt>
<totfact> 0.17026308E+00</totfact>
</mgrwt>
</event>
<event>
12    4  0.4320235E-008  0.2001910E+04  0.7818608E-02  0.8605728E-01
         -2   -1    0    0    0  501 -0.00000000000E+00  0.00000000000E+00  0.10243375070E+04  0.10243375070E+04  0.00000000000E+00 0.  1.
          1   -1    0    0  501    0  0.00000000000E+00 -0.00000000000E+00 -0.97810660560E+03  0.97810660560E+03  0.00000000000E+00 0. -1.
        -24    2    1    2    0    0  0.61283741757E+03 -0.50716893821E+03 -0.71711300714E+02  0.80250371702E+03  0.77972257342E+02 0.  0.
        254    2    1    2    0    0 -0.61283741757E+03  0.50716893821E+03  0.11794220208E+03  0.11999403956E+04  0.89059337388E+03 0.  0.
         23    2    4    4    0    0  0.15334577890E+03  0.17421228873E+03 -0.18087152648E+03  0.30800342700E+03  0.91031601645E+02 0.  0.
         23    2    4    4    0    0 -0.76618319648E+03  0.33295664947E+03  0.29881372856E+03  0.89193696856E+03  0.91460868764E+02 0.  0.
          1    1    3    3  502    0  0.60600916596E+03 -0.48962845475E+03 -0.62629177285E+02  0.78160446952E+03  0.00000000000E+00 0. -1.
         -2    1    3    3    0  502  0.68282516189E+01 -0.17540483456E+02 -0.90821234284E+01  0.20899247498E+02  0.00000000000E+00 0.  1.
         11    1    5    5    0    0 -0.11171868709E+02  0.20562629080E+02 -0.10292492220E+02  0.25564971372E+02  0.00000000000E+00 0. -1.
        -11    1    5    5    0    0  0.16451764761E+03  0.15364965965E+03 -0.17057903426E+03  0.28243845562E+03  0.00000000000E+00 0.  1.
          3    1    6    6  503    0 -0.70983119254E+03  0.33194570790E+03  0.27156521375E+03  0.82933463705E+03  0.00000000000E+00 0.  1.
         -3    1    6    6    0  503 -0.56352003938E+02  0.10109415700E+01  0.27248514812E+02  0.62602331507E+02  0.00000000000E+00 0. -1.
<mgrwt>
<rscale>  0 0.20019104E+04</rscale>
<asrwt>0</asrwt>
<pdfrwt beam="1">  1        1 0.15047794E+00 0.20019104E+04</pdfrwt>
<pdfrwt beam="2">  1       -2 0.15759038E+00 0.20019104E+04</pdfrwt>
<totfact> 0.33594741E+00</totfact>
</mgrwt>
</event>
<event>
12    4  0.4320235E-008  0.1648923E+04  0.7818608E-02  0.8791044E-01
         -2   -1    0    0    0  501 -0.00000000000E+00  0.00000000000E+00  0.42542440500E+03  0.42542440500E+03  0.00000000000E+00 0.  1.
          1   -1    0    0  501    0  0.00000000000E+00 -0.00000000000E+00 -0.15977851128E+04  0.15977851128E+04  0.00000000000E+00 0. -1.
        -24    2    1    2    0    0 -0.21591684616E+03 -0.50426999115E+03 -0.64024513156E+03  0.84688460352E+03  0.79946199218E+02 0.  0.
        254    2    1    2    0    0  0.21591684616E+03  0.50426999115E+03 -0.53211557626E+03  0.11763249143E+04  0.89425108839E+03 0.  0.
         23    2    4    4    0    0  0.27408515489E+03  0.72827483410E+03 -0.48922583681E+03  0.92363397046E+03  0.90834387094E+02 0.  0.
         23    2    4    4    0    0 -0.58168308735E+02 -0.22400484295E+03 -0.42889739452E+02  0.25269094384E+03  0.91931830944E+02 0.  0.
          1    1    3    3  502    0 -0.68909848085E+02 -0.19404146263E+03 -0.18581385114E+03  0.27735797024E+03  0.00000000000E+00 0. -1.
         -2    1    3    3    0  502 -0.14700699807E+03 -0.31022852852E+03 -0.45443128042E+03  0.56952663328E+03  0.00000000000E+00 0.  1.
         11    1    5    5    0    0  0.76324676522E+02  0.23676936594E+03 -0.20535551678E+03  0.32257724217E+03  0.00000000000E+00 0. -1.
        -11    1    5    5    0    0  0.19776047837E+03  0.49150546815E+03 -0.28387032003E+03  0.60105672829E+03  0.00000000000E+00 0.  1.
          3    1    6    6  503    0  0.22045998789E+02 -0.43371428688E+02  0.61902581613E+01  0.49045144358E+02  0.00000000000E+00 0. -1.
         -3    1    6    6    0  503 -0.80214307524E+02 -0.18063341426E+03 -0.49079997614E+02  0.20364579948E+03  0.00000000000E+00 0.  1.
<mgrwt>
<rscale>  0 0.16489230E+04</rscale>
<asrwt>0</asrwt>
<pdfrwt beam="1">  1        1 0.24581310E+00 0.16489230E+04</pdfrwt>
<pdfrwt beam="2">  1       -2 0.65449907E-01 0.16489230E+04</pdfrwt>
<totfact> 0.10101950E+01</totfact>
</mgrwt>
</event>
<event>
12    4  0.4320235E-008  0.1426580E+04  0.7818608E-02  0.8934800E-01
         -2   -1    0    0    0  501 -0.00000000000E+00  0.00000000000E+00  0.38798958982E+03  0.38798958982E+03  0.00000000000E+00 0.  1.
          1   -1    0    0  501    0  0.00000000000E+00 -0.00000000000E+00 -0.13113307785E+04  0.13113307785E+04  0.00000000000E+00 0. -1.
        -24    2    1    2    0    0 -0.10836779229E+03  0.17936894079E+03  0.15528255813E+03  0.27329144436E+03  0.81601135882E+02 0.  0.
        254    2    1    2    0    0  0.10836779229E+03 -0.17936894079E+03 -0.10786237468E+04  0.14260289239E+04  0.90896232564E+03 0.  0.
         23    2    4    4    0    0  0.17373645617E+03 -0.51726318195E+03 -0.50283240427E+03  0.74786309470E+03  0.93344662500E+02 0.  0.
         23    2    4    4    0    0 -0.65368663879E+02  0.33789424115E+03 -0.57579134252E+03  0.67816582924E+03  0.99637550191E+02 0.  0.
          1    1    3    3  502    0 -0.11156796943E+03  0.14910500209E+03  0.10303878283E+03  0.21283022393E+03  0.00000000000E+00 0. -1.
         -2    1    3    3    0  502  0.32001771376E+01  0.30263938702E+02  0.52243775291E+02  0.60461220432E+02  0.00000000000E+00 0.  1.
         11    1    5    5    0    0  0.10780395930E+03 -0.39208011189E+03 -0.41668272799E+03  0.58221388130E+03  0.00000000000E+00 0. -1.
        -11    1    5    5    0    0  0.65932496868E+02 -0.12518307006E+03 -0.86149676286E+02  0.16564921339E+03  0.00000000000E+00 0.  1.
          1    1    6    6  503    0 -0.72560275625E+02  0.33862381380E+03 -0.57452402249E+03  0.67082705170E+03  0.00000000000E+00 0. -1.
         -1    1    6    6    0  503  0.71916117459E+01 -0.72957264705E+00 -0.12673200274E+01  0.73387775415E+01  0.00000000000E+00 0.  1.
<mgrwt>
<rscale>  0 0.14265801E+04</rscale>
<asrwt>0</asrwt>
<pdfrwt beam="1">  1        1 0.20174320E+00 0.14265801E+04</pdfrwt>
<pdfrwt beam="2">  1       -2 0.59690707E-01 0.14265801E+04</pdfrwt>
<totfact> 0.19842589E+01</totfact>
</mgrwt>
</event>
<event>
12    4  0.4320235E-008  0.1199473E+04  0.7818608E-02  0.9113318E-01
         -2   -1    0    0    0  501 -0.00000000000E+00  0.00000000000E+00  0.72733627914E+03  0.72733627914E+03  0.00000000000E+00 0.  1.
          1   -1    0    0  501    0  0.00000000000E+00 -0.00000000000E+00 -0.49452195394E+03  0.49452195394E+03  0.00000000000E+00 0. -1.
        -24    2    1    2    0    0 -0.13957877562E+03 -0.54047276050E+02  0.23362073272E+03  0.28882342168E+03  0.80230789016E+02 0.  0.
        254    2    1    2    0    0  0.13957877562E+03  0.54047276050E+02 -0.80640752346E+00  0.93303481140E+03  0.92095057757E+03 0.  0.
         23    2    4    4    0    0  0.14756256937E+03  0.96100266414E+02  0.43927557304E+03  0.48178373377E+03  0.90236156703E+02 0.  0.
         23    2    4    4    0    0 -0.79837937452E+01 -0.42052990364E+02 -0.44008198056E+03  0.45125107762E+03  0.90128743902E+02 0.  0.
          1    1    3    3  502    0 -0.39668613771E+02 -0.17201372512E+02  0.15207989833E+02  0.45834147637E+02  0.00000000000E+00 0. -1.
         -2    1    3    3    0  502 -0.99910161850E+02 -0.36845903537E+02  0.21841274288E+03  0.24298927405E+03  0.00000000000E+00 0.  1.
         11    1    5    5    0    0  0.13950527274E+03  0.59936211206E+02  0.39971758060E+03  0.42758416105E+03  0.00000000000E+00 0.  1.
        -11    1    5    5    0    0  0.80572966229E+01  0.36164055208E+02  0.39557992440E+02  0.54199572727E+02  0.00000000000E+00 0. -1.
          4    1    6    6  503    0 -0.17830876228E+02  0.23077690773E+02 -0.79025925754E+02  0.84235484801E+02  0.00000000000E+00 0.  1.
         -4    1    6    6    0  503  0.98470824831E+01 -0.65130681137E+02 -0.36105605481E+03  0.36701559282E+03  0.00000000000E+00 0. -1.
<mgrwt>
<rscale>  0 0.11994728E+04</rscale>
<asrwt>0</asrwt>
<pdfrwt beam="1">  1        1 0.76080301E-01 0.11994728E+04</pdfrwt>
<pdfrwt beam="2">  1       -2 0.11189789E+00 0.11994728E+04</pdfrwt>
<totfact> 0.24545943E+01</totfact>
</mgrwt>
</event>
<event>
12    4  0.4320235E-008  0.1816905E+04  0.7818608E-02  0.8697361E-01
         -2   -1    0    0    0  501 -0.00000000000E+00  0.00000000000E+00  0.17116945769E+04  0.17116945769E+04  0.00000000000E+00 0.  1.
          1   -1    0    0  501    0  0.00000000000E+00 -0.00000000000E+00 -0.48214545780E+03  0.48214545780E+03  0.00000000000E+00 0. -1.
        -24    2    1    2    0    0  0.57022983097E+03  0.25041174725E+03  0.80879854294E+03  0.10239096432E+04  0.79798315230E+02 0.  0.
        254    2    1    2    0    0 -0.57022983097E+03 -0.25041174725E+03  0.42075057618E+03  0.11699303915E+04  0.89657011457E+03 0.  0.
         23    2    4    4    0    0 -0.63431174044E+03  0.10943030902E+03  0.67030090129E+02  0.65355558637E+03  0.91189335473E+02 0.  0.
         23    2    4    4    0    0  0.64081909475E+02 -0.35984205627E+03  0.35372048606E+03  0.51637480514E+03  0.89061554778E+02 0.  0.
          3    1    3    3  502    0  0.18230978012E+03  0.78517148107E+02  0.19947777790E+03  0.28141283260E+03  0.00000000000E+00 0. -1.
         -2    1    3    3    0  502  0.38792005085E+03  0.17189459914E+03  0.60932076504E+03  0.74249681061E+03  0.00000000000E+00 0.  1.
         11    1    5    5    0    0 -0.99824486247E+02 -0.15622847990E+02  0.53781957652E+01  0.10118263894E+03  0.00000000000E+00 0. -1.
        -11    1    5    5    0    0 -0.53448725419E+03  0.12505315702E+03  0.61651894364E+02  0.55237294743E+03  0.00000000000E+00 0.  1.
          1    1    6    6  503    0  0.59347586666E+02 -0.10128208022E+03  0.10260179303E+03  0.15590806185E+03  0.00000000000E+00 0. -1.
         -1    1    6    6    0  503  0.47343228097E+01 -0.25855997605E+03  0.25111869302E+03  0.36046674329E+03  0.00000000000E+00 0.  1.
<mgrwt>
<rscale>  0 0.18169048E+04</rscale>
<asrwt>0</asrwt>
<pdfrwt beam="1">  1        1 0.74176225E-01 0.18169048E+04</pdfrwt>
<pdfrwt beam="2">  1       -2 0.26333762E+00 0.18169048E+04</pdfrwt>
<totfact> 0.20458360E+00</totfact>
</mgrwt>
</event>
<event>
12    4  0.4320235E-008  0.1175873E+04  0.7818608E-02  0.9134241E-01
         -2   -1    0    0    0  501 -0.00000000000E+00  0.00000000000E+00  0.33342126255E+03  0.33342126255E+03  0.00000000000E+00 0.  1.
          1   -1    0    0  501    0  0.00000000000E+00 -0.00000000000E+00 -0.10367348502E+04  0.10367348502E+04  0.00000000000E+00 0. -1.
        -24    2    1    2    0    0 -0.12078408160E+03 -0.19863292924E+03 -0.14110710326E+03  0.28349511821E+03  0.80090152393E+02 0.  0.
        254    2    1    2    0    0  0.12078408160E+03  0.19863292924E+03 -0.56220648442E+03  0.10866609946E+04  0.90039555255E+03 0.  0.
         23    2    4    4    0    0  0.31468711302E+03  0.32318874470E+03 -0.67262050874E+03  0.81511328595E+03  0.92262540366E+02 0.  0.
         23    2    4    4    0    0 -0.19390303142E+03 -0.12455581546E+03  0.11041402432E+03  0.27154770862E+03  0.91838796457E+02 0.  0.
          1    1    3    3  502    0 -0.57958572285E+02 -0.16225057601E+03 -0.11066645255E+03  0.20477184679E+03  0.00000000000E+00 0. -1.
         -2    1    3    3    0  502 -0.62825509317E+02 -0.36382353232E+02 -0.30440650707E+02  0.78723271420E+02  0.00000000000E+00 0.  1.
         11    1    5    5    0    0  0.28566912083E+03  0.24264321052E+03 -0.54664715399E+03  0.66280139195E+03  0.00000000000E+00 0.  1.
        -11    1    5    5    0    0  0.29017992190E+02  0.80545534174E+02 -0.12597335475E+03  0.15231189400E+03  0.00000000000E+00 0. -1.
          4    1    6    6  503    0 -0.17107128965E+03 -0.65044344364E+02  0.69315827923E+02  0.19570599602E+03  0.00000000000E+00 0.  1.
         -4    1    6    6    0  503 -0.22831741767E+02 -0.59511471095E+02  0.41098196393E+02  0.75841712604E+02  0.00000000000E+00 0. -1.
<mgrwt>
<rscale>  0 0.11758732E+04</rscale>
<asrwt>0</asrwt>
<pdfrwt beam="1">  1        1 0.15949767E+00 0.11758732E+04</pdfrwt>
<pdfrwt beam="2">  1       -2 0.51295580E-01 0.11758732E+04</pdfrwt>
<totfact> 0.44220947E+01</totfact>
</mgrwt>
</event>
<event>
12    4  0.4320235E-008  0.1419106E+04  0.7818608E-02  0.8940104E-01
         -2   -1    0    0    0  501 -0.00000000000E+00  0.00000000000E+00  0.24645388033E+03  0.24645388033E+03  0.00000000000E+00 0.  1.
          1   -1    0    0  501    0  0.00000000000E+00 -0.00000000000E+00 -0.20428379339E+04  0.20428379339E+04  0.00000000000E+00 0. -1.
        -24    2    1    2    0    0  0.78799030272E+02  0.41183172730E+03 -0.59855459872E+03  0.73521521575E+03  0.80368818808E+02 0.  0.
        254    2    1    2    0    0 -0.78799030272E+02 -0.41183172730E+03 -0.11978294549E+04  0.15540765985E+04  0.89696377423E+03 0.  0.
         23    2    4    4    0    0 -0.31234520327E+03 -0.20323725743E+02 -0.68540903942E+02  0.33287611275E+03  0.90200172379E+02 0.  0.
         23    2    4    4    0    0  0.23354617299E+03 -0.39150800156E+03 -0.11292885509E+04  0.12212004857E+04  0.90640305272E+02 0.  0.
          3    1    3    3  502    0  0.28815083953E+02  0.25949474182E+03 -0.31174997554E+03  0.40663973901E+03  0.00000000000E+00 0. -1.
         -4    1    3    3    0  502  0.49983946319E+02  0.15233698548E+03 -0.28680462318E+03  0.32857547673E+03  0.00000000000E+00 0.  1.
         11    1    5    5    0    0 -0.27378277186E+03 -0.32939678399E+02 -0.30815437240E+02  0.27747363794E+03  0.00000000000E+00 0. -1.
        -11    1    5    5    0    0 -0.38562431406E+02  0.12615952656E+02 -0.37725466701E+02  0.55402474811E+02  0.00000000000E+00 0.  1.
          1    1    6    6  503    0  0.12741242562E+03 -0.15420960750E+03 -0.40571868255E+03  0.45235183057E+03  0.00000000000E+00 0. -1.
         -1    1    6    6    0  503  0.10613374737E+03 -0.23729839405E+03 -0.72356986837E+03  0.76884865517E+03  0.00000000000E+00 0.  1.
<mgrwt>
<rscale>  0 0.14191058E+04</rscale>
<asrwt>0</asrwt>
<pdfrwt beam="1">  1        1 0.31428276E+00 0.14191058E+04</pdfrwt>
<pdfrwt beam="2">  1       -2 0.37915982E-01 0.14191058E+04</pdfrwt>
<totfact> 0.15654239E+01</totfact>
</mgrwt>
</event>
<event>
12    4  0.4320235E-008  0.1839231E+04  0.7818608E-02  0.8685711E-01
          1   -1    0    0  501    0  0.00000000000E+00  0.00000000000E+00  0.13405350848E+04  0.13405350848E+04  0.00000000000E+00 0. -1.
         -2   -1    0    0    0  501 -0.00000000000E+00 -0.00000000000E+00 -0.63086182688E+03  0.63086182688E+03  0.00000000000E+00 0.  1.
        -24    2    1    2    0    0  0.68538209061E+03  0.51386649200E+02  0.27597626682E+03  0.74463190249E+03  0.76971244680E+02 0.  0.
        254    2    1    2    0    0 -0.68538209061E+03 -0.51386649200E+02  0.43369699106E+03  0.12267650091E+04  0.91895054805E+03 0.  0.
         23    2    4    4    0    0 -0.79280917499E+03  0.20153978857E+03  0.18327500945E+03  0.84342688378E+03  0.92814357020E+02 0.  0.
         23    2    4    4    0    0  0.10742708438E+03 -0.25292643777E+03  0.25042198161E+03  0.38333812537E+03  0.93405503625E+02 0.  0.
          1    1    3    3  502    0  0.68079555243E+03  0.51041537768E+02  0.28058897910E+03  0.73811787539E+03  0.00000000000E+00 0. -1.
         -2    1    3    3    0  502  0.45865381851E+01  0.34511143168E+00 -0.46127122798E+01  0.65140270954E+01  0.00000000000E+00 0.  1.
         11    1    5    5    0    0 -0.18470634234E+03  0.12853073122E+02  0.20785094597E+02  0.18631600722E+03  0.00000000000E+00 0. -1.
        -11    1    5    5    0    0 -0.60810283265E+03  0.18868671545E+03  0.16248991485E+03  0.65711087655E+03  0.00000000000E+00 0.  1.
          1    1    6    6  503    0  0.46030631443E+02 -0.53223858770E+02  0.21882231844E+02  0.73691452990E+02  0.00000000000E+00 0. -1.
         -1    1    6    6    0  503  0.61396452933E+02 -0.19970257900E+03  0.22853974976E+03  0.30964667238E+03  0.00000000000E+00 0.  1.
<mgrwt>
<rscale>  0 0.18392307E+04</rscale>
<asrwt>0</asrwt>
<pdfrwt beam="1">  1        1 0.20623617E+00 0.18392307E+04</pdfrwt>
<pdfrwt beam="2">  1       -2 0.97055666E-01 0.18392307E+04</pdfrwt>
<totfact> 0.61900846E+00</totfact>
</mgrwt>
</event>
<event>
12    4  0.4320235E-008  0.1374599E+04  0.7818608E-02  0.8972413E-01
         -2   -1    0    0    0  501 -0.00000000000E+00  0.00000000000E+00  0.54779607376E+03  0.54779607376E+03  0.00000000000E+00 0.  1.
          1   -1    0    0  501    0  0.00000000000E+00 -0.00000000000E+00 -0.86232949681E+03  0.86232949681E+03  0.00000000000E+00 0. -1.
        -24    2    1    2    0    0 -0.30922642864E+03  0.14837754929E+01 -0.32703201279E+03  0.45726839249E+03  0.80754316411E+02 0.  0.
        254    2    1    2    0    0  0.30922642864E+03 -0.14837754929E+01  0.12498589741E+02  0.95285717808E+03  0.90119775927E+03 0.  0.
         23    2    4    4    0    0  0.10031303982E+03 -0.31742047273E+03  0.30912639861E+03  0.46381630579E+03  0.93530597867E+02 0.  0.
         23    2    4    4    0    0  0.20891338882E+03  0.31593669723E+03 -0.29662780887E+03  0.48904087229E+03  0.87818660247E+02 0.  0.
          3    1    3    3  502    0 -0.25476823885E+03 -0.26495505629E+02 -0.24116318383E+03  0.35180754480E+03  0.00000000000E+00 0. -1.
         -4    1    3    3    0  502 -0.54458189790E+02  0.27979281122E+02 -0.85868828959E+02  0.10546084768E+03  0.00000000000E+00 0.  1.
         11    1    5    5    0    0  0.98910499112E+02 -0.32389522121E+03  0.30624003167E+03  0.45658992340E+03  0.00000000000E+00 0.  1.
        -11    1    5    5    0    0  0.14025407102E+01  0.64747484809E+01  0.28863669401E+01  0.72263823901E+01  0.00000000000E+00 0. -1.
          4    1    6    6  503    0  0.12909541838E+02  0.14206679850E+02  0.46572839276E+01  0.19752881218E+02  0.00000000000E+00 0. -1.
         -4    1    6    6    0  503  0.19600384698E+03  0.30173001738E+03 -0.30128509279E+03  0.46928799107E+03  0.00000000000E+00 0.  1.
<mgrwt>
<rscale>  0 0.13745992E+04</rscale>
<asrwt>0</asrwt>
<pdfrwt beam="1">  1        1 0.13266608E+00 0.13745992E+04</pdfrwt>
<pdfrwt beam="2">  1       -2 0.84276319E-01 0.13745992E+04</pdfrwt>
<totfact> 0.20570510E+01</totfact>
</mgrwt>
</event>
<event>
12    4  0.4320235E-008  0.1973404E+04  0.7818608E-02  0.8619157E-01
          1   -1    0    0  501    0  0.00000000000E+00  0.00000000000E+00  0.99489424757E+03  0.99489424757E+03  0.00000000000E+00 0. -1.
         -2   -1    0    0    0  501 -0.00000000000E+00 -0.00000000000E+00 -0.97857685289E+03  0.97857685289E+03  0.00000000000E+00 0.  1.
        -24    2    1    2    0    0 -0.60993959154E+03 -0.44911049213E+03  0.18569080056E+03  0.78390715392E+03  0.79390258210E+02 0.  0.
        254    2    1    2    0    0  0.60993959154E+03  0.44911049213E+03 -0.16937340588E+03  0.11895639465E+04  0.90147018411E+03 0.  0.
         23    2    4    4    0    0  0.36169251906E+03  0.27878840240E+03  0.35029712323E+03  0.58243182729E+03  0.89298976711E+02 0.  0.
         23    2    4    4    0    0  0.24824707248E+03  0.17032208973E+03 -0.51967052911E+03  0.60713211925E+03  0.88970378002E+02 0.  0.
          1    1    3    3  502    0 -0.47874091598E+03 -0.33145778569E+03  0.17196546658E+03  0.60714845797E+03  0.00000000000E+00 0. -1.
         -2    1    3    3    0  502 -0.13119867556E+03 -0.11765270644E+03  0.13725333977E+02  0.17675869595E+03  0.00000000000E+00 0.  1.
         11    1    5    5    0    0  0.55190658160E+02  0.42351427633E+02  0.98700725470E+02  0.12075382138E+03  0.00000000000E+00 0. -1.
        -11    1    5    5    0    0  0.30650186090E+03  0.23643697476E+03  0.25159639776E+03  0.46167800590E+03  0.00000000000E+00 0.  1.
          1    1    6    6  503    0  0.17254320785E+03  0.10644007584E+03 -0.26341217632E+03  0.33239528118E+03  0.00000000000E+00 0. -1.
         -1    1    6    6    0  503  0.75703864626E+02  0.63882013895E+02 -0.25625835279E+03  0.27473683807E+03  0.00000000000E+00 0.  1.
<mgrwt>
<rscale>  0 0.19734036E+04</rscale>
<asrwt>0</asrwt>
<pdfrwt beam="1">  1        1 0.15306065E+00 0.19734036E+04</pdfrwt>
<pdfrwt beam="2">  1       -2 0.15055028E+00 0.19734036E+04</pdfrwt>
<totfact> 0.36928550E+00</totfact>
</mgrwt>
</event>
<event>
12    4  0.4320235E-008  0.2045674E+04  0.7818608E-02  0.8585560E-01
         -2   -1    0    0    0  501 -0.00000000000E+00  0.00000000000E+00  0.88490284805E+03  0.88490284805E+03  0.00000000000E+00 0.  1.
          1   -1    0    0  501    0  0.00000000000E+00 -0.00000000000E+00 -0.11822712459E+04  0.11822712459E+04  0.00000000000E+00 0. -1.
        -24    2    1    2    0    0 -0.70732917933E+03 -0.35451364172E+03  0.11261556753E+03  0.80321215646E+03  0.80455031708E+02 0.  0.
        254    2    1    2    0    0  0.70732917933E+03  0.35451364172E+03 -0.40998396535E+03  0.12639619375E+04  0.89639189945E+03 0.  0.
         23    2    4    4    0    0 -0.11173958228E+03  0.26441323606E+03 -0.30522244902E+03  0.42818016825E+03  0.88189678792E+02 0.  0.
         23    2    4    4    0    0  0.81906876161E+03  0.90100405660E+02 -0.10476151633E+03  0.83578176921E+03  0.92544427647E+02 0.  0.
          1    1    3    3  502    0 -0.56292519632E+03 -0.26208019293E+03  0.59843314441E+02  0.62382050821E+03  0.00000000000E+00 0. -1.
         -2    1    3    3    0  502 -0.14440398302E+03 -0.92433448784E+02  0.52772253089E+02  0.17939164825E+03  0.00000000000E+00 0.  1.
         11    1    5    5    0    0 -0.41806395247E+02  0.20052551656E+03 -0.19449469053E+03  0.28246493963E+03  0.00000000000E+00 0. -1.
        -11    1    5    5    0    0 -0.69933187034E+02  0.63887719495E+02 -0.11072775849E+03  0.14571522862E+03  0.00000000000E+00 0.  1.
          4    1    6    6  503    0  0.97685850025E+02 -0.17634091928E+02 -0.22421672399E+02  0.10176550440E+03  0.00000000000E+00 0. -1.
         -4    1    6    6    0  503  0.72138291159E+03  0.10773449759E+03 -0.82339843930E+02  0.73401626481E+03  0.00000000000E+00 0.  1.
<mgrwt>
<rscale>  0 0.20456737E+04</rscale>
<asrwt>0</asrwt>
<pdfrwt beam="1">  1        1 0.18188788E+00 0.20456737E+04</pdfrwt>
<pdfrwt beam="2">  1       -2 0.13613890E+00 0.20456737E+04</pdfrwt>
<totfact> 0.34458335E+00</totfact>
</mgrwt>
</event>
<event>
12    4  0.4320235E-008  0.2190227E+04  0.7818608E-02  0.8522507E-01
         -2   -1    0    0    0  501 -0.00000000000E+00  0.00000000000E+00  0.60504525008E+03  0.60504525008E+03  0.00000000000E+00 0.  1.
          1   -1    0    0  501    0  0.00000000000E+00 -0.00000000000E+00 -0.19821230314E+04  0.19821230314E+04  0.00000000000E+00 0. -1.
        -24    2    1    2    0    0 -0.23516089438E+03 -0.43890523785E+03  0.32004261147E+03  0.59704028574E+03  0.78047265028E+02 0.  0.
        254    2    1    2    0    0  0.23516089438E+03  0.43890523785E+03 -0.16971203927E+04  0.19901279957E+04  0.91238881939E+03 0.  0.
         23    2    4    4    0    0 -0.13940941431E+03 -0.50331318996E+02 -0.11440169166E+04  0.11573296548E+04  0.93107454597E+02 0.  0.
         23    2    4    4    0    0  0.37457030870E+03  0.48923655685E+03 -0.55310347617E+03  0.83279834085E+03  0.89298916371E+02 0.  0.
          1    1    3    3  502    0 -0.11666453612E+02 -0.81344516280E+01  0.25935308424E+02  0.29578973380E+02  0.00000000000E+00 0. -1.
         -2    1    3    3    0  502 -0.22349444077E+03 -0.43077078623E+03  0.29410730305E+03  0.56746131236E+03  0.00000000000E+00 0.  1.
         11    1    5    5    0    0 -0.12912681058E+03 -0.18258788534E+02 -0.10362069017E+04  0.10443810893E+04  0.00000000000E+00 0. -1.
        -11    1    5    5    0    0 -0.10282603736E+02 -0.32072530462E+02 -0.10781001486E+03  0.11294856553E+03  0.00000000000E+00 0.  1.
          4    1    6    6  503    0  0.56206433241E+01 -0.11328820914E+01  0.11945379245E+01  0.58567887159E+01  0.00000000000E+00 0. -1.
         -4    1    6    6    0  503  0.36894966537E+03  0.49036943894E+03 -0.55429801409E+03  0.82694155214E+03  0.00000000000E+00 0.  1.
<mgrwt>
<rscale>  0 0.21902275E+04</rscale>
<asrwt>0</asrwt>
<pdfrwt beam="1">  1        1 0.30494201E+00 0.21902275E+04</pdfrwt>
<pdfrwt beam="2">  1       -2 0.93083884E-01 0.21902275E+04</pdfrwt>
<totfact> 0.24006235E+00</totfact>
</mgrwt>
</event>
<event>
12    4  0.4320235E-008  0.1811708E+04  0.7818608E-02  0.8700098E-01
         -2   -1    0    0    0  501 -0.00000000000E+00  0.00000000000E+00  0.99517674649E+03  0.99517674649E+03  0.00000000000E+00 0.  1.
          1   -1    0    0  501    0  0.00000000000E+00 -0.00000000000E+00 -0.82454840204E+03  0.82454840204E+03  0.00000000000E+00 0. -1.
        -24    2    1    2    0    0 -0.21374396227E+03 -0.48578538870E+03  0.49019383392E+03  0.72704608708E+03  0.81437661040E+02 0.  0.
        254    2    1    2    0    0  0.21374396227E+03  0.48578538870E+03 -0.31956548947E+03  0.10926790615E+04  0.90008416495E+03 0.  0.
         23    2    4    4    0    0  0.18135146693E+02 -0.20975893219E+03  0.10114804231E+03  0.25109089712E+03  0.92130445428E+02 0.  0.
         23    2    4    4    0    0  0.19560881558E+03  0.69554432089E+03 -0.42071353178E+03  0.84158816433E+03  0.96052337115E+02 0.  0.
          3    1    3    3  502    0 -0.27055072930E+02 -0.16098462909E+02  0.26962850335E+02  0.41450365227E+02  0.00000000000E+00 0. -1.
         -4    1    3    3    0  502 -0.18668888934E+03 -0.46968692579E+03  0.46323098359E+03  0.68559572185E+03  0.00000000000E+00 0.  1.
         11    1    5    5    0    0 -0.27366002999E+01 -0.29785128743E+02 -0.17371298980E+02  0.34589086483E+02  0.00000000000E+00 0. -1.
        -11    1    5    5    0    0  0.20871746993E+02 -0.17997380345E+03  0.11851934129E+03  0.21650181064E+03  0.00000000000E+00 0.  1.
          3    1    6    6  503    0  0.23935243432E+02  0.21313110944E+03 -0.15566081234E+03  0.26500576256E+03  0.00000000000E+00 0. -1.
         -3    1    6    6    0  503  0.17167357215E+03  0.48241321145E+03 -0.26505271944E+03  0.57658240177E+03  0.00000000000E+00 0.  1.
<mgrwt>
<rscale>  0 0.18117079E+04</rscale>
<asrwt>0</asrwt>
<pdfrwt beam="1">  1        1 0.12685360E+00 0.18117079E+04</pdfrwt>
<pdfrwt beam="2">  1       -2 0.15310411E+00 0.18117079E+04</pdfrwt>
<totfact> 0.49313912E+00</totfact>
</mgrwt>
</event>
<event>
12    4  0.4320235E-008  0.2151630E+04  0.7818608E-02  0.8538835E-01
         -2   -1    0    0    0  501 -0.00000000000E+00  0.00000000000E+00  0.55524510470E+03  0.55524510470E+03  0.00000000000E+00 0.  1.
          1   -1    0    0  501    0  0.00000000000E+00 -0.00000000000E+00 -0.20844455187E+04  0.20844455187E+04  0.00000000000E+00 0. -1.
        -24    2    1    2    0    0  0.85475688528E+03  0.92725841549E+01 -0.90059366772E+03  0.12443068381E+04  0.80840827124E+02 0.  0.
        254    2    1    2    0    0 -0.85475688528E+03 -0.92725841549E+01 -0.62860674629E+03  0.13953837853E+04  0.90623073938E+03 0.  0.
         23    2    4    4    0    0 -0.67892389325E+02 -0.34350076584E+03 -0.31691900140E+03  0.48085598664E+03  0.90458132737E+02 0.  0.
         23    2    4    4    0    0 -0.78686449596E+03  0.33422818169E+03 -0.31168774489E+03  0.91452779864E+03  0.91365374931E+02 0.  0.
          1    1    3    3  502    0  0.81006386332E+03  0.42034176023E+01 -0.87558937275E+03  0.11928444496E+04  0.00000000000E+00 0. -1.
         -2    1    3    3    0  502  0.44693021966E+02  0.50691665526E+01 -0.25004294967E+02  0.51462388487E+02  0.00000000000E+00 0.  1.
         11    1    5    5    0    0 -0.34091417891E+02 -0.28597533985E+03 -0.21653582981E+03  0.36032191908E+03  0.00000000000E+00 0. -1.
        -11    1    5    5    0    0 -0.33800971434E+02 -0.57525425997E+02 -0.10038317159E+03  0.12053406757E+03  0.00000000000E+00 0.  1.
          2    1    6    6  503    0 -0.75727565184E+03  0.33461854293E+03 -0.28783109800E+03  0.87651738324E+03  0.00000000000E+00 0. -1.
         -2    1    6    6    0  503 -0.29588844116E+02 -0.39036124370E+00 -0.23856646889E+02  0.38010415399E+02  0.00000000000E+00 0.  1.
<mgrwt>
<rscale>  0 0.21516302E+04</rscale>
<asrwt>0</asrwt>
<pdfrwt beam="1">  1        1 0.32068393E+00 0.21516302E+04</pdfrwt>
<pdfrwt beam="2">  1       -2 0.85422323E-01 0.21516302E+04</pdfrwt>
<totfact> 0.25019429E+00</totfact>
</mgrwt>
</event>
<event>
12    4  0.4320235E-008  0.1653508E+04  0.7818608E-02  0.8788334E-01
          1   -1    0    0  501    0  0.00000000000E+00  0.00000000000E+00  0.11782049302E+04  0.11782049302E+04  0.00000000000E+00 0. -1.
         -2   -1    0    0    0  501 -0.00000000000E+00 -0.00000000000E+00 -0.58013854996E+03  0.58013854996E+03  0.00000000000E+00 0.  1.
        -24    2    1    2    0    0  0.45673863604E+03 -0.35880622515E+03  0.27672577742E+03  0.64783673088E+03  0.75915644897E+02 0.  0.
        254    2    1    2    0    0 -0.45673863604E+03  0.35880622515E+03  0.32134060286E+03  0.11105067493E+04  0.89028836248E+03 0.  0.
         23    2    4    4    0    0 -0.30856686107E+03  0.47889957963E+03 -0.14813875318E+03  0.59530456563E+03  0.88792570289E+02 0.  0.
         23    2    4    4    0    0 -0.14817177497E+03 -0.12009335448E+03  0.46947935604E+03  0.51520218368E+03  0.92979221520E+02 0.  0.
          3    1    3    3  502    0  0.43747792489E+03 -0.34455442142E+03  0.28059044534E+03  0.62356690267E+03  0.00000000000E+00 0. -1.
         -4    1    3    3    0  502  0.19260711152E+02 -0.14251803723E+02 -0.38646679248E+01  0.24269828215E+02  0.00000000000E+00 0.  1.
         11    1    5    5    0    0 -0.51637871462E+02  0.33421265644E+02 -0.25745011699E+02  0.66680254902E+02  0.00000000000E+00 0.  1.
        -11    1    5    5    0    0 -0.25692898961E+03  0.44547831399E+03 -0.12239374148E+03  0.52862431072E+03  0.00000000000E+00 0. -1.
          3    1    6    6  503    0 -0.10544248242E+03 -0.44693884124E+02  0.18282014195E+03  0.21572868302E+03  0.00000000000E+00 0. -1.
         -3    1    6    6    0  503 -0.42729292544E+02 -0.75399470360E+02  0.28665921410E+03  0.29947350066E+03  0.00000000000E+00 0.  1.
<mgrwt>
<rscale>  0 0.16535079E+04</rscale>
<asrwt>0</asrwt>
<pdfrwt beam="1">  1        1 0.18126230E+00 0.16535079E+04</pdfrwt>
<pdfrwt beam="2">  1       -2 0.89252085E-01 0.16535079E+04</pdfrwt>
<totfact> 0.10007859E+01</totfact>
</mgrwt>
</event>
<event>
12    4  0.4320235E-008  0.2891312E+04  0.7818608E-02  0.8275467E-01
          1   -1    0    0  501    0  0.00000000000E+00  0.00000000000E+00  0.83202623435E+03  0.83202623435E+03  0.00000000000E+00 0. -1.
         -2   -1    0    0    0  501 -0.00000000000E+00 -0.00000000000E+00 -0.25118461464E+04  0.25118461464E+04  0.00000000000E+00 0.  1.
        -24    2    1    2    0    0  0.52030489571E+02  0.97460729549E+03  0.24151505608E+03  0.10085933750E+04  0.79777951793E+02 0.  0.
        254    2    1    2    0    0 -0.52030489571E+02 -0.97460729549E+03 -0.19213349681E+04  0.23352790057E+04  0.89968517968E+03 0.  0.
         23    2    4    4    0    0  0.16268897728E+03 -0.10279123112E+04 -0.17588383670E+04  0.20458048429E+04  0.93453897458E+02 0.  0.
         23    2    4    4    0    0 -0.21471946685E+03  0.53305015694E+02 -0.16249660108E+03  0.28947416284E+03  0.91892717042E+02 0.  0.
          3    1    3    3  502    0  0.20622649645E+02  0.52446653633E+03  0.89549715854E+02  0.53245618882E+03  0.00000000000E+00 0. -1.
         -4    1    3    3    0  502  0.31407839926E+02  0.45014075916E+03  0.15196534023E+03  0.47613718621E+03  0.00000000000E+00 0.  1.
         11    1    5    5    0    0  0.36177545583E+02 -0.14560113847E+03 -0.19840090373E+03  0.24873967301E+03  0.00000000000E+00 0. -1.
        -11    1    5    5    0    0  0.12651143170E+03 -0.88231117271E+03 -0.15604374633E+04  0.17970651699E+04  0.00000000000E+00 0.  1.
          1    1    6    6  503    0 -0.11554091822E+03  0.31041561324E+02 -0.14217772021E+03  0.18581653973E+03  0.00000000000E+00 0. -1.
         -1    1    6    6    0  503 -0.99178548628E+02  0.22263454370E+02 -0.20318880871E+02  0.10365762311E+03  0.00000000000E+00 0.  1.
<mgrwt>
<rscale>  0 0.28913124E+04</rscale>
<asrwt>0</asrwt>
<pdfrwt beam="1">  1        1 0.12800404E+00 0.28913124E+04</pdfrwt>
<pdfrwt beam="2">  1       -2 0.38643787E+00 0.28913124E+04</pdfrwt>
<totfact> 0.14212842E-01</totfact>
</mgrwt>
</event>
<event>
12    4  0.4320235E-008  0.1307730E+04  0.7818608E-02  0.9023457E-01
          1   -1    0    0  501    0  0.00000000000E+00  0.00000000000E+00  0.20424700353E+04  0.20424700353E+04  0.00000000000E+00 0. -1.
         -2   -1    0    0    0  501 -0.00000000000E+00 -0.00000000000E+00 -0.20932482179E+03  0.20932482179E+03  0.00000000000E+00 0.  1.
        -24    2    1    2    0    0 -0.97158930826E+02 -0.10816530040E+03 -0.40531519757E+02  0.17053455349E+03  0.79370270201E+02 0.  0.
        254    2    1    2    0    0  0.97158930826E+02  0.10816530040E+03  0.18736767333E+04  0.20812603036E+04  0.89433794536E+03 0.  0.
         23    2    4    4    0    0  0.18232218735E+03  0.28081916987E+03  0.21447932656E+03  0.40836587230E+03  0.93061903993E+02 0.  0.
         23    2    4    4    0    0 -0.85163256521E+02 -0.17265386947E+03  0.16591974067E+04  0.16728944313E+04  0.92615360123E+02 0.  0.
          3    1    3    3  502    0 -0.17388893311E+02 -0.32591799833E+02  0.23087820430E+02  0.43561984335E+02  0.00000000000E+00 0. -1.
         -4    1    3    3    0  502 -0.79770037515E+02 -0.75573500567E+02 -0.63619340187E+02  0.12697256916E+03  0.00000000000E+00 0.  1.
         11    1    5    5    0    0  0.22161587484E+01  0.64653025828E+02  0.26077746301E+02  0.69749365305E+02  0.00000000000E+00 0. -1.
        -11    1    5    5    0    0  0.18010602860E+03  0.21616614404E+03  0.18840158026E+03  0.33861650700E+03  0.00000000000E+00 0.  1.
          2    1    6    6  503    0  0.12330413415E+02 -0.68177957058E+02  0.45430404788E+03  0.45955678739E+03  0.00000000000E+00 0. -1.
         -2    1    6    6    0  503 -0.97493669936E+02 -0.10447591241E+03  0.12048933588E+04  0.12133376439E+04  0.00000000000E+00 0.  1.
<mgrwt>
<rscale>  0 0.13077304E+04</rscale>
<asrwt>0</asrwt>
<pdfrwt beam="1">  1        1 0.31422614E+00 0.13077304E+04</pdfrwt>
<pdfrwt beam="2">  1       -2 0.32203820E-01 0.13077304E+04</pdfrwt>
<totfact> 0.21607833E+01</totfact>
</mgrwt>
</event>
<event>
12    4  0.4320235E-008  0.1439403E+04  0.7818608E-02  0.8925781E-01
         -4   -1    0    0    0  501 -0.00000000000E+00  0.00000000000E+00  0.20033264500E+03  0.20033264500E+03  0.00000000000E+00 0.  1.
          3   -1    0    0  501    0  0.00000000000E+00 -0.00000000000E+00 -0.25855496772E+04  0.25855496772E+04  0.00000000000E+00 0. -1.
        -24    2    1    2    0    0 -0.35988556947E+03  0.76070916839E+02 -0.12097800429E+04  0.12669689704E+04  0.79612889914E+02 0.  0.
        254    2    1    2    0    0  0.35988556947E+03 -0.76070916839E+02 -0.11754369893E+04  0.15189133518E+04  0.88889889583E+03 0.  0.
         23    2    4    4    0    0  0.59545842680E+03 -0.61180028500E+02 -0.10986217256E+04  0.12547457635E+04  0.95412269372E+02 0.  0.
         23    2    4    4    0    0 -0.23557285733E+03 -0.14890888339E+02 -0.76815263669E+02  0.26416758828E+03  0.90374887540E+02 0.  0.
          1    1    3    3  502    0 -0.12999827348E+03  0.41086008656E+02 -0.57487961557E+03  0.59082500253E+03  0.00000000000E+00 0. -1.
         -2    1    3    3    0  502 -0.22988729599E+03  0.34984908183E+02 -0.63490042737E+03  0.67614396790E+03  0.00000000000E+00 0.  1.
         11    1    5    5    0    0  0.24341241287E+03 -0.44940790237E+02 -0.54339738068E+03  0.59711807099E+03  0.00000000000E+00 0.  1.
        -11    1    5    5    0    0  0.35204601393E+03 -0.16239238263E+02 -0.55522434494E+03  0.65762769254E+03  0.00000000000E+00 0. -1.
          4    1    6    6  503    0 -0.94115567241E+02 -0.41542138017E+02 -0.60380007744E+02  0.11928635531E+03  0.00000000000E+00 0. -1.
         -4    1    6    6    0  503 -0.14145729009E+03  0.26651249678E+02 -0.16435255924E+02  0.14488123297E+03  0.00000000000E+00 0.  1.
<mgrwt>
<rscale>  0 0.14394027E+04</rscale>
<asrwt>0</asrwt>
<pdfrwt beam="1">  1        3 0.39777687E+00 0.14394027E+04</pdfrwt>
<pdfrwt beam="2">  1       -4 0.30820407E-01 0.14394027E+04</pdfrwt>
<totfact> 0.26297659E-01</totfact>
</mgrwt>
</event>
<event>
12    4  0.4320235E-008  0.2254741E+04  0.7818608E-02  0.8495983E-01
         -2   -1    0    0    0  501 -0.00000000000E+00  0.00000000000E+00  0.52758512708E+03  0.52758512708E+03  0.00000000000E+00 0.  1.
          1   -1    0    0  501    0  0.00000000000E+00 -0.00000000000E+00 -0.24090227391E+04  0.24090227391E+04  0.00000000000E+00 0. -1.
        -24    2    1    2    0    0 -0.41980145026E+03 -0.18372705615E+03 -0.18922827655E+04  0.19486978761E+04  0.81856329818E+02 0.  0.
        254    2    1    2    0    0  0.41980145026E+03  0.18372705615E+03  0.10845153436E+02  0.98790999016E+03  0.87513407116E+03 0.  0.
         23    2    4    4    0    0 -0.16999791958E+03  0.33922852254E+02 -0.25207218250E+03  0.31867904046E+03  0.89251851907E+02 0.  0.
         23    2    4    4    0    0  0.58979936984E+03  0.14980420390E+03  0.26291733594E+03  0.66923094970E+03  0.91869158797E+02 0.  0.
          3    1    3    3  502    0 -0.40902389764E+03 -0.15968793559E+03 -0.17774978665E+04  0.18309285762E+04  0.00000000000E+00 0. -1.
         -4    1    3    3    0  502 -0.10777552621E+02 -0.24039120556E+02 -0.11478489900E+03  0.11776929988E+03  0.00000000000E+00 0.  1.
         11    1    5    5    0    0  0.68824810360E+01  0.15622452324E+02 -0.24762926913E+02  0.30077102771E+02  0.00000000000E+00 0. -1.
        -11    1    5    5    0    0 -0.17688040061E+03  0.18300399930E+02 -0.22730925559E+03  0.28860193769E+03  0.00000000000E+00 0.  1.
          4    1    6    6  503    0  0.14401623606E+03 -0.11742289203E+01  0.75723462186E+02  0.16271477434E+03  0.00000000000E+00 0. -1.
         -4    1    6    6    0  503  0.44578313377E+03  0.15097843282E+03  0.18719387375E+03  0.50651617536E+03  0.00000000000E+00 0.  1.
<mgrwt>
<rscale>  0 0.22547413E+04</rscale>
<asrwt>0</asrwt>
<pdfrwt beam="1">  1        1 0.37061889E+00 0.22547413E+04</pdfrwt>
<pdfrwt beam="2">  1       -2 0.81166942E-01 0.22547413E+04</pdfrwt>
<totfact> 0.16706737E+00</totfact>
</mgrwt>
</event>
<event>
12    4  0.4320235E-008  0.1247190E+04  0.7818608E-02  0.9072525E-01
          1   -1    0    0  501    0  0.00000000000E+00  0.00000000000E+00  0.22836100188E+04  0.22836100188E+04  0.00000000000E+00 0. -1.
         -2   -1    0    0    0  501 -0.00000000000E+00 -0.00000000000E+00 -0.17028763661E+03  0.17028763661E+03  0.00000000000E+00 0.  1.
        -24    2    1    2    0    0  0.12314801462E+03  0.26147534499E+03  0.48810263457E+03  0.57273767346E+03  0.79053596895E+02 0.  0.
        254    2    1    2    0    0 -0.12314801462E+03 -0.26147534499E+03  0.16252197477E+04  0.18811599820E+04  0.90215789091E+03 0.  0.
         23    2    4    4    0    0 -0.36204284390E+03 -0.44309349398E+03  0.13288160005E+04  0.14496379070E+04  0.91056207674E+02 0.  0.
         23    2    4    4    0    0  0.23889482928E+03  0.18161814899E+03  0.29640374718E+03  0.43152207503E+03  0.91105589277E+02 0.  0.
          1    1    3    3  502    0  0.73100022055E+02  0.88478912274E+02  0.24141835903E+03  0.26731059691E+03  0.00000000000E+00 0. -1.
         -2    1    3    3    0  502  0.50047992562E+02  0.17299643272E+03  0.24668427554E+03  0.30542707655E+03  0.00000000000E+00 0.  1.
         11    1    5    5    0    0 -0.78198069963E+02 -0.10642940273E+03  0.41007072681E+03  0.43081336667E+03  0.00000000000E+00 0. -1.
        -11    1    5    5    0    0 -0.28384477393E+03 -0.33666409125E+03  0.91874527368E+03  0.10188245403E+04  0.00000000000E+00 0.  1.
          2    1    6    6  503    0  0.14706734268E+03  0.73774831238E+02  0.11216525344E+03  0.19912953846E+03  0.00000000000E+00 0. -1.
         -2    1    6    6    0  503  0.91827486597E+02  0.10784331775E+03  0.18423849374E+03  0.23239253657E+03  0.00000000000E+00 0.  1.
<mgrwt>
<rscale>  0 0.12471897E+04</rscale>
<asrwt>0</asrwt>
<pdfrwt beam="1">  1        1 0.35132460E+00 0.12471897E+04</pdfrwt>
<pdfrwt beam="2">  1       -2 0.26198100E-01 0.12471897E+04</pdfrwt>
<totfact> 0.21863676E+01</totfact>
</mgrwt>
</event>
<event>
12    4  0.4320235E-008  0.1291732E+04  0.7818608E-02  0.9036147E-01
         -2   -1    0    0    0  501 -0.00000000000E+00  0.00000000000E+00  0.35115574978E+03  0.35115574978E+03  0.00000000000E+00 0.  1.
          1   -1    0    0  501    0  0.00000000000E+00 -0.00000000000E+00 -0.11879145629E+04  0.11879145629E+04  0.00000000000E+00 0. -1.
        -24    2    1    2    0    0  0.34177931340E+03  0.10985969497E+03 -0.38720262993E+03  0.53197796486E+03  0.64748952362E+02 0.  0.
        254    2    1    2    0    0 -0.34177931340E+03 -0.10985969497E+03 -0.44955618324E+03  0.10070923479E+04  0.82659057797E+03 0.  0.
         23    2    4    4    0    0 -0.29245613227E+03  0.28111214341E+03 -0.18192803161E+02  0.41590002161E+03  0.89928990963E+02 0.  0.
         23    2    4    4    0    0 -0.49323181125E+02 -0.39097183838E+03 -0.43136338008E+03  0.59119232625E+03  0.90234396648E+02 0.  0.
          3    1    3    3  502    0  0.25692013867E+03  0.68785552715E+02 -0.24664090131E+03  0.36272736885E+03  0.00000000000E+00 0. -1.
         -4    1    3    3    0  502  0.84859174726E+02  0.41074142252E+02 -0.14056172862E+03  0.16925059601E+03  0.00000000000E+00 0.  1.
         11    1    5    5    0    0 -0.10859952186E+03  0.86922677300E+02 -0.47248125515E+02  0.14690743120E+03  0.00000000000E+00 0. -1.
        -11    1    5    5    0    0 -0.18385661041E+03  0.19418946611E+03  0.29055322353E+02  0.26899259041E+03  0.00000000000E+00 0.  1.
          2    1    6    6  503    0 -0.50942345837E+02 -0.23064517712E+03 -0.19887510575E+03  0.30877763522E+03  0.00000000000E+00 0. -1.
         -2    1    6    6    0  503  0.16191647114E+01 -0.16032666126E+03 -0.23248827433E+03  0.28241469103E+03  0.00000000000E+00 0.  1.
<mgrwt>
<rscale>  0 0.12917322E+04</rscale>
<asrwt>0</asrwt>
<pdfrwt beam="1">  1        1 0.18275609E+00 0.12917322E+04</pdfrwt>
<pdfrwt beam="2">  1       -2 0.54023961E-01 0.12917322E+04</pdfrwt>
<totfact> 0.30341382E+01</totfact>
</mgrwt>
</event>
<event>
12    4  0.4320235E-008  0.1261097E+04  0.7818608E-02  0.9060998E-01
          1   -1    0    0  501    0  0.00000000000E+00  0.00000000000E+00  0.10127418453E+04  0.10127418453E+04  0.00000000000E+00 0. -1.
         -2   -1    0    0    0  501 -0.00000000000E+00 -0.00000000000E+00 -0.39258883152E+03  0.39258883152E+03  0.00000000000E+00 0.  1.
        -24    2    1    2    0    0 -0.23430286375E+02  0.13400776908E+03  0.45232554850E+03  0.47909670325E+03  0.80175986127E+02 0.  0.
        254    2    1    2    0    0  0.23430286375E+02 -0.13400776908E+03  0.16782746524E+03  0.92623397351E+03  0.90068654653E+03 0.  0.
         23    2    4    4    0    0  0.21195776501E+03  0.20835737570E+03  0.36433181367E+03  0.47925327858E+03  0.92774697083E+02 0.  0.
         23    2    4    4    0    0 -0.18852747864E+03 -0.34236514478E+03 -0.19650434843E+03  0.44698069494E+03  0.91767533086E+02 0.  0.
          1    1    3    3  502    0  0.28370680166E+02  0.61922450145E+02  0.22384596201E+03  0.23397927266E+03  0.00000000000E+00 0. -1.
         -2    1    3    3    0  502 -0.51800966541E+02  0.72085318938E+02  0.22847958649E+03  0.24511743059E+03  0.00000000000E+00 0.  1.
         11    1    5    5    0    0  0.41147492141E+02  0.12199155900E+02  0.19028037856E+02  0.46946796896E+02  0.00000000000E+00 0. -1.
        -11    1    5    5    0    0  0.17081027287E+03  0.19615821980E+03  0.34530377581E+03  0.43230648168E+03  0.00000000000E+00 0.  1.
          1    1    6    6  503    0 -0.17788424826E+03 -0.30336092021E+03 -0.14232113207E+03  0.37937574820E+03  0.00000000000E+00 0. -1.
         -1    1    6    6    0  503 -0.10643230374E+02 -0.39004224572E+02 -0.54183216362E+02  0.67604946732E+02  0.00000000000E+00 0.  1.
<mgrwt>
<rscale>  0 0.12610966E+04</rscale>
<asrwt>0</asrwt>
<pdfrwt beam="1">  1        1 0.15580644E+00 0.12610966E+04</pdfrwt>
<pdfrwt beam="2">  1       -2 0.60398282E-01 0.12610966E+04</pdfrwt>
<totfact> 0.32627414E+01</totfact>
</mgrwt>
</event>
<event>
12    4  0.4320235E-008  0.1132702E+04  0.7818608E-02  0.9173892E-01
         -2   -1    0    0    0  501 -0.00000000000E+00  0.00000000000E+00  0.45604849711E+03  0.45604849711E+03  0.00000000000E+00 0.  1.
          1   -1    0    0  501    0  0.00000000000E+00 -0.00000000000E+00 -0.70333133833E+03  0.70333133833E+03  0.00000000000E+00 0. -1.
        -24    2    1    2    0    0 -0.15315060679E+03 -0.14906745563E+03 -0.23581125145E+02  0.22897392320E+03  0.78719586864E+02 0.  0.
        254    2    1    2    0    0  0.15315060679E+03  0.14906745563E+03 -0.22370171607E+03  0.93040591223E+03  0.87746024928E+03 0.  0.
         23    2    4    4    0    0  0.29572964047E+03 -0.22504004078E+03 -0.33170791107E+03  0.50580988209E+03  0.87831989308E+02 0.  0.
         23    2    4    4    0    0 -0.14257903368E+03  0.37410749641E+03  0.10800619500E+03  0.42459603014E+03  0.91275686434E+02 0.  0.
          3    1    3    3  502    0 -0.26502137422E+02 -0.29940733535E+02 -0.37143395978E+02  0.54575110420E+02  0.00000000000E+00 0. -1.
         -4    1    3    3    0  502 -0.12664846936E+03 -0.11912672210E+03  0.13562270833E+02  0.17439881278E+03  0.00000000000E+00 0.  1.
         11    1    5    5    0    0  0.27123207829E+03 -0.20912960937E+03 -0.26518842152E+03  0.43315924637E+03  0.00000000000E+00 0. -1.
        -11    1    5    5    0    0  0.24497562182E+02 -0.15910431412E+02 -0.66519489550E+02  0.72650635720E+02  0.00000000000E+00 0.  1.
          1    1    6    6  503    0 -0.13682290224E+03  0.28547202366E+03  0.11170339460E+03  0.33569693361E+03  0.00000000000E+00 0. -1.
         -1    1    6    6    0  503 -0.57561314496E+01  0.88635472756E+02 -0.36971995995E+01  0.88899096535E+02  0.00000000000E+00 0.  1.
<mgrwt>
<rscale>  0 0.11327015E+04</rscale>
<asrwt>0</asrwt>
<pdfrwt beam="1">  1        1 0.10820482E+00 0.11327015E+04</pdfrwt>
<pdfrwt beam="2">  1       -2 0.70161308E-01 0.11327015E+04</pdfrwt>
<totfact> 0.43578168E+01</totfact>
</mgrwt>
</event>
<event>
12    4  0.4320235E-008  0.1334515E+04  0.7818608E-02  0.9002633E-01
         -2   -1    0    0    0  501 -0.00000000000E+00  0.00000000000E+00  0.16312940152E+03  0.16312940152E+03  0.00000000000E+00 0.  1.
          1   -1    0    0  501    0  0.00000000000E+00 -0.00000000000E+00 -0.27293225113E+04  0.27293225113E+04  0.00000000000E+00 0. -1.
        -24    2    1    2    0    0  0.33492646900E+03 -0.38440610868E+02 -0.99845092007E+03  0.10568724606E+04  0.80135747256E+02 0.  0.
        254    2    1    2    0    0 -0.33492646900E+03  0.38440610868E+02 -0.15677421897E+04  0.18355794522E+04  0.89324292989E+03 0.  0.
         23    2    4    4    0    0 -0.11910078504E+03 -0.41645787072E+03 -0.74672074724E+03  0.86806493731E+03  0.91228865722E+02 0.  0.
         23    2    4    4    0    0 -0.21582568396E+03  0.45489848159E+03 -0.82102144244E+03  0.96751451488E+03  0.92167093690E+02 0.  0.
          3    1    3    3  502    0  0.20124071172E+03 -0.16869716823E+02 -0.47410858910E+03  0.51532646513E+03  0.00000000000E+00 0. -1.
         -2    1    3    3    0  502  0.13368575727E+03 -0.21570894045E+02 -0.52434233097E+03  0.54154599548E+03  0.00000000000E+00 0.  1.
         11    1    5    5    0    0 -0.18408718968E+02 -0.40212548781E+02 -0.33705770355E+02  0.55605835743E+02  0.00000000000E+00 0.  1.
        -11    1    5    5    0    0 -0.10069206607E+03 -0.37624532194E+03 -0.71301497689E+03  0.81245910157E+03  0.00000000000E+00 0. -1.
          1    1    6    6  503    0 -0.94832966212E+02  0.25916104608E+03 -0.51911102980E+03  0.58790645561E+03  0.00000000000E+00 0. -1.
         -1    1    6    6    0  503 -0.12099271775E+03  0.19573743551E+03 -0.30191041263E+03  0.37960805927E+03  0.00000000000E+00 0.  1.
<mgrwt>
<rscale>  0 0.13345153E+04</rscale>
<asrwt>0</asrwt>
<pdfrwt beam="1">  1        1 0.41989576E+00 0.13345153E+04</pdfrwt>
<pdfrwt beam="2">  1       -2 0.25096832E-01 0.13345153E+04</pdfrwt>
<totfact> 0.11540915E+01</totfact>
</mgrwt>
</event>
<event>
12    4  0.4320235E-008  0.3424879E+04  0.7818608E-02  0.8131827E-01
         -2   -1    0    0    0  501 -0.00000000000E+00  0.00000000000E+00  0.78007799730E+03  0.78007799730E+03  0.00000000000E+00 0.  1.
          1   -1    0    0  501    0  0.00000000000E+00 -0.00000000000E+00 -0.37591746777E+04  0.37591746777E+04  0.00000000000E+00 0. -1.
        -24    2    1    2    0    0  0.23724294934E+03 -0.35807074281E+03 -0.34172907488E+04  0.34450827731E+04  0.78869371254E+02 0.  0.
        254    2    1    2    0    0 -0.23724294934E+03  0.35807074281E+03  0.43819406848E+03  0.10941699018E+04  0.90592210403E+03 0.  0.
         23    2    4    4    0    0 -0.40606605105E+03 -0.53330492772E+02  0.48118051172E+03  0.63839071283E+03  0.90962839054E+02 0.  0.
         23    2    4    4    0    0  0.16882310171E+03  0.41140123558E+03 -0.42986443245E+02  0.45577918901E+03  0.90192120054E+02 0.  0.
          3    1    3    3  502    0  0.21311041142E+03 -0.27457027878E+03 -0.28626272926E+04  0.28836504472E+04  0.00000000000E+00 0. -1.
         -4    1    3    3    0  502  0.24132537920E+02 -0.83500464027E+02 -0.55466345628E+03  0.56143232594E+03  0.00000000000E+00 0.  1.
         11    1    5    5    0    0 -0.60926932309E+02  0.19635948828E+02  0.49603156746E+02  0.80982311192E+02  0.00000000000E+00 0. -1.
        -11    1    5    5    0    0 -0.34513911874E+03 -0.72966441600E+02  0.43157735497E+03  0.55740840163E+03  0.00000000000E+00 0.  1.
          1    1    6    6  503    0  0.25323813499E+02  0.64486398886E+02 -0.40697756802E+02  0.80349851152E+02  0.00000000000E+00 0. -1.
         -1    1    6    6    0  503  0.14349928822E+03  0.34691483670E+03 -0.22886864427E+01  0.37542933786E+03  0.00000000000E+00 0.  1.
<mgrwt>
<rscale>  0 0.34248792E+04</rscale>
<asrwt>0</asrwt>
<pdfrwt beam="1">  1        1 0.57833457E+00 0.34248792E+04</pdfrwt>
<pdfrwt beam="2">  1       -2 0.12001200E+00 0.34248792E+04</pdfrwt>
<totfact> 0.59080491E-02</totfact>
</mgrwt>
</event>
<event>
12    4  0.4320235E-008  0.1860580E+04  0.7818608E-02  0.8674731E-01
          1   -1    0    0  501    0  0.00000000000E+00  0.00000000000E+00  0.17310424866E+04  0.17310424866E+04  0.00000000000E+00 0. -1.
         -2   -1    0    0    0  501 -0.00000000000E+00 -0.00000000000E+00 -0.49995289307E+03  0.49995289307E+03  0.00000000000E+00 0.  1.
        -24    2    1    2    0    0  0.53339761733E+03 -0.64235588367E+02 -0.90409583603E+02  0.55080260016E+03  0.81057896221E+02 0.  0.
        254    2    1    2    0    0 -0.53339761733E+03  0.64235588367E+02  0.13214991772E+04  0.16801927795E+04  0.88772094275E+03 0.  0.
         23    2    4    4    0    0 -0.42026189663E+02  0.14019577940E+03 -0.80585967437E+02  0.18982743199E+03  0.90107150715E+02 0.  0.
         23    2    4    4    0    0 -0.49137142767E+03 -0.75960191033E+02  0.14020851446E+04  0.14903653476E+04  0.90168098066E+02 0.  0.
          3    1    3    3  502    0  0.24674060752E+02 -0.21303255512E+02 -0.18850352579E+01  0.32652585308E+02  0.00000000000E+00 0. -1.
         -4    1    3    3    0  502  0.50872355658E+03 -0.42932332855E+02 -0.88524548345E+02  0.51815001485E+03  0.00000000000E+00 0.  1.
         11    1    5    5    0    0  0.71543210803E+01  0.11564244433E+03 -0.44730454651E+02  0.12419811920E+03  0.00000000000E+00 0.  1.
        -11    1    5    5    0    0 -0.49180510744E+02  0.24553335073E+02 -0.35855512786E+02  0.65629312790E+02  0.00000000000E+00 0. -1.
          3    1    6    6  503    0 -0.15092963343E+03 -0.57877465448E+02  0.52626576949E+03  0.55053175693E+03  0.00000000000E+00 0. -1.
         -3    1    6    6    0  503 -0.34044179424E+03 -0.18082725584E+02  0.87581937512E+03  0.93983359062E+03  0.00000000000E+00 0.  1.
<mgrwt>
<rscale>  0 0.18605802E+04</rscale>
<asrwt>0</asrwt>
<pdfrwt beam="1">  1        1 0.26631423E+00 0.18605802E+04</pdfrwt>
<pdfrwt beam="2">  1       -2 0.76915831E-01 0.18605802E+04</pdfrwt>
<totfact> 0.56469870E+00</totfact>
</mgrwt>
</event>
<event>
12    4  0.4320235E-008  0.1835283E+04  0.7818608E-02  0.8687758E-01
         -2   -1    0    0    0  501 -0.00000000000E+00  0.00000000000E+00  0.50982517945E+04  0.50982517945E+04  0.00000000000E+00 0.  1.
          1   -1    0    0  501    0  0.00000000000E+00 -0.00000000000E+00 -0.16516752864E+03  0.16516752864E+03  0.00000000000E+00 0. -1.
        -24    2    1    2    0    0  0.21842536081E+03  0.58298334674E+03  0.27978130563E+04  0.28673545826E+04  0.79907343366E+02 0.  0.
        254    2    1    2    0    0 -0.21842536081E+03 -0.58298334674E+03  0.21352712096E+04  0.23960647405E+04  0.89115872979E+03 0.  0.
         23    2    4    4    0    0 -0.14287047162E+03  0.20045122877E+03  0.31176775352E+03  0.40779358478E+03  0.92216098800E+02 0.  0.
         23    2    4    4    0    0 -0.75554889191E+02 -0.78343457551E+03  0.18235034560E+04  0.19882711558E+04  0.92623211304E+02 0.  0.
          3    1    3    3  502    0  0.23300499262E+02  0.37610163642E+02  0.12799164374E+03  0.13542266628E+03  0.00000000000E+00 0. -1.
         -4    1    3    3    0  502  0.19512486155E+03  0.54537318310E+03  0.26698214126E+04  0.27319319163E+04  0.00000000000E+00 0.  1.
         11    1    5    5    0    0 -0.47687894608E+02  0.11508521511E+03  0.97147885682E+02  0.15797611757E+03  0.00000000000E+00 0. -1.
        -11    1    5    5    0    0 -0.95182577009E+02  0.85366013657E+02  0.21461986784E+03  0.24981746721E+03  0.00000000000E+00 0.  1.
          2    1    6    6  503    0  0.13783259951E+02 -0.24943297061E+03  0.52460865958E+03  0.58105165932E+03  0.00000000000E+00 0. -1.
         -2    1    6    6    0  503 -0.89338149142E+02 -0.53400160489E+03  0.12988947965E+04  0.14072194965E+04  0.00000000000E+00 0.  1.
<mgrwt>
<rscale>  0 0.18352827E+04</rscale>
<asrwt>0</asrwt>
<pdfrwt beam="1">  1        1 0.25410393E-01 0.18352827E+04</pdfrwt>
<pdfrwt beam="2">  1       -2 0.78434631E+00 0.18352827E+04</pdfrwt>
<totfact> 0.15491096E-02</totfact>
</mgrwt>
</event>
<event>
12    4  0.4320235E-008  0.1293066E+04  0.7818608E-02  0.9035082E-01
          1   -1    0    0  501    0  0.00000000000E+00  0.00000000000E+00  0.78850205272E+03  0.78850205272E+03  0.00000000000E+00 0. -1.
         -2   -1    0    0    0  501 -0.00000000000E+00 -0.00000000000E+00 -0.53012533937E+03  0.53012533937E+03  0.00000000000E+00 0.  1.
        -24    2    1    2    0    0  0.21741813244E+03 -0.23850561124E+03  0.23745887865E+02  0.33340677981E+03  0.80253615040E+02 0.  0.
        254    2    1    2    0    0 -0.21741813244E+03  0.23850561124E+03  0.23463082549E+03  0.98522061228E+03  0.90080656064E+03 0.  0.
         23    2    4    4    0    0 -0.22803981929E+03 -0.56972996533E+02 -0.28428627791E+03  0.38099456440E+03  0.95341957072E+02 0.  0.
         23    2    4    4    0    0  0.10621686854E+02  0.29547860777E+03  0.51891710340E+03  0.60422604788E+03  0.91617295565E+02 0.  0.
          1    1    3    3  502    0  0.12632803726E+03 -0.10209327646E+03 -0.19980032194E+02  0.16364905066E+03  0.00000000000E+00 0. -1.
         -2    1    3    3    0  502  0.91090095173E+02 -0.13641233479E+03  0.43725920059E+02  0.16975772915E+03  0.00000000000E+00 0.  1.
         11    1    5    5    0    0 -0.24340215814E+02  0.15215545251E+02 -0.71976320242E+01  0.29593324077E+02  0.00000000000E+00 0. -1.
        -11    1    5    5    0    0 -0.20369960348E+03 -0.72188541785E+02 -0.27708864589E+03  0.35140124033E+03  0.00000000000E+00 0.  1.
          4    1    6    6  503    0  0.15720246476E+02  0.34728852909E+02  0.13370128829E+03  0.13902968699E+03  0.00000000000E+00 0. -1.
         -4    1    6    6    0  503 -0.50985596224E+01  0.26074975487E+03  0.38521581512E+03  0.46519636089E+03  0.00000000000E+00 0.  1.
<mgrwt>
<rscale>  0 0.12930660E+04</rscale>
<asrwt>0</asrwt>
<pdfrwt beam="1">  1        1 0.12130801E+00 0.12930660E+04</pdfrwt>
<pdfrwt beam="2">  1       -2 0.81557744E-01 0.12930660E+04</pdfrwt>
<totfact> 0.25795745E+01</totfact>
</mgrwt>
</event>
<event>
12    4  0.4320235E-008  0.1832543E+04  0.7818608E-02  0.8689183E-01
          3   -1    0    0  501    0  0.00000000000E+00  0.00000000000E+00  0.24834229612E+04  0.24834229612E+04  0.00000000000E+00 0. -1.
         -4   -1    0    0    0  501 -0.00000000000E+00 -0.00000000000E+00 -0.33806286837E+03  0.33806286837E+03  0.00000000000E+00 0.  1.
        -24    2    1    2    0    0 -0.13670622334E+02 -0.60961147075E+03  0.13306453451E+04  0.14657291215E+04  0.77018126422E+02 0.  0.
        254    2    1    2    0    0  0.13670622334E+02  0.60961147075E+03  0.81471474767E+03  0.13557567081E+04  0.89582537374E+03 0.  0.
         23    2    4    4    0    0 -0.28864877438E+03 -0.62603866247E+00  0.53163244991E+03  0.61179667894E+03  0.91343350495E+02 0.  0.
         23    2    4    4    0    0  0.30231939671E+03  0.61023750942E+03  0.28308229775E+03  0.74396002914E+03  0.97745087483E+02 0.  0.
          1    1    3    3  502    0 -0.23912073103E+02 -0.43559914939E+03  0.87111288841E+03  0.97424641161E+03  0.00000000000E+00 0. -1.
         -2    1    3    3    0  502  0.10241450769E+02 -0.17401232136E+03  0.45953245672E+03  0.49148270985E+03  0.00000000000E+00 0.  1.
         11    1    5    5    0    0 -0.25945213483E+02  0.22096450653E+02  0.31487245730E+02  0.46398856427E+02  0.00000000000E+00 0.  1.
        -11    1    5    5    0    0 -0.26270356089E+03 -0.22722489315E+02  0.50014520419E+03  0.56539782251E+03  0.00000000000E+00 0. -1.
          2    1    6    6  503    0  0.29671204137E+01  0.54281761848E+02  0.39422075494E+02  0.67152166824E+02  0.00000000000E+00 0.  1.
         -2    1    6    6    0  503  0.29935227630E+03  0.55595574757E+03  0.24366022226E+03  0.67680786231E+03  0.00000000000E+00 0. -1.
<mgrwt>
<rscale>  0 0.18325426E+04</rscale>
<asrwt>0</asrwt>
<pdfrwt beam="1">  1        3 0.38206506E+00 0.18325426E+04</pdfrwt>
<pdfrwt beam="2">  1       -4 0.52009674E-01 0.18325426E+04</pdfrwt>
<totfact> 0.10687180E-01</totfact>
</mgrwt>
</event>
<event>
12    4  0.4320235E-008  0.1203965E+04  0.7818608E-02  0.9109393E-01
          1   -1    0    0  501    0  0.00000000000E+00  0.00000000000E+00  0.63156698851E+03  0.63156698851E+03  0.00000000000E+00 0. -1.
         -2   -1    0    0    0  501 -0.00000000000E+00 -0.00000000000E+00 -0.57378370792E+03  0.57378370792E+03  0.00000000000E+00 0.  1.
        -24    2    1    2    0    0  0.13087327076E+03 -0.20374162589E+03 -0.86853164914E+02  0.26750426049E+03  0.73325261698E+02 0.  0.
        254    2    1    2    0    0 -0.13087327076E+03  0.20374162589E+03  0.14463644551E+03  0.93784643595E+03  0.89442594603E+03 0.  0.
         23    2    4    4    0    0 -0.47598492867E+03 -0.49433146092E+02  0.48364413875E+02  0.48967335405E+03  0.91845461939E+02 0.  0.
         23    2    4    4    0    0  0.34511165791E+03  0.25317477198E+03  0.96272031630E+02  0.44817308190E+03  0.91603960995E+02 0.  0.
          3    1    3    3  502    0  0.42758686665E+02 -0.68930550660E+02 -0.67046193069E+02  0.10523743680E+03  0.00000000000E+00 0. -1.
         -4    1    3    3    0  502  0.88114584095E+02 -0.13481107523E+03 -0.19806971845E+02  0.16226682369E+03  0.00000000000E+00 0.  1.
         11    1    5    5    0    0 -0.32804356080E+02  0.17942970575E+02  0.14567030310E+02  0.40128223770E+02  0.00000000000E+00 0. -1.
        -11    1    5    5    0    0 -0.44318057259E+03 -0.67376116667E+02  0.33797383565E+02  0.44954513028E+03  0.00000000000E+00 0.  1.
          3    1    6    6  503    0  0.27772810353E+02 -0.15125958805E+01  0.19813435559E+02  0.34149512000E+02  0.00000000000E+00 0. -1.
         -3    1    6    6    0  503  0.31733884756E+03  0.25468736786E+03  0.76458596071E+02  0.41402356990E+03  0.00000000000E+00 0.  1.
<mgrwt>
<rscale>  0 0.12039649E+04</rscale>
<asrwt>0</asrwt>
<pdfrwt beam="1">  1        1 0.97164152E-01 0.12039649E+04</pdfrwt>
<pdfrwt beam="2">  1       -2 0.88274416E-01 0.12039649E+04</pdfrwt>
<totfact> 0.30422762E+01</totfact>
</mgrwt>
</event>
<event>
12    4  0.4320235E-008  0.1473491E+04  0.7818608E-02  0.8902275E-01
         -2   -1    0    0    0  501 -0.00000000000E+00  0.00000000000E+00  0.21981810545E+03  0.21981810545E+03  0.00000000000E+00 0.  1.
          1   -1    0    0  501    0  0.00000000000E+00 -0.00000000000E+00 -0.24692868428E+04  0.24692868428E+04  0.00000000000E+00 0. -1.
        -24    2    1    2    0    0 -0.31045581927E+03 -0.21061523948E+03 -0.12015163659E+04  0.12612375851E+04  0.79605740323E+02 0.  0.
        254    2    1    2    0    0  0.31045581927E+03  0.21061523948E+03 -0.10479523715E+04  0.14278673631E+04  0.89434861151E+03 0.  0.
         23    2    4    4    0    0 -0.30046463331E+03  0.86356430548E+02 -0.47701987026E+03  0.57738406927E+03  0.89933185531E+02 0.  0.
         23    2    4    4    0    0  0.61092045258E+03  0.12425880893E+03 -0.57093250122E+03  0.85048329384E+03  0.93240877151E+02 0.  0.
          3    1    3    3  502    0 -0.28276887701E+03 -0.20856139306E+03 -0.11528950598E+04  0.12052481534E+04  0.00000000000E+00 0. -1.
         -4    1    3    3    0  502 -0.27686942261E+02 -0.20538464178E+01 -0.48621306062E+02  0.55989431682E+02  0.00000000000E+00 0.  1.
         11    1    5    5    0    0 -0.23388367552E+02  0.29003781293E+02 -0.94562605373E+02  0.10163818869E+03  0.00000000000E+00 0.  1.
        -11    1    5    5    0    0 -0.27707626575E+03  0.57352649256E+02 -0.38245726488E+03  0.47574588057E+03  0.00000000000E+00 0. -1.
          2    1    6    6  503    0  0.29553340617E+03  0.99205855359E+02 -0.31921119944E+03  0.44618111317E+03  0.00000000000E+00 0. -1.
         -2    1    6    6    0  503  0.31538704640E+03  0.25052953569E+02 -0.25172130179E+03  0.40430218067E+03  0.00000000000E+00 0.  1.
<mgrwt>
<rscale>  0 0.14734910E+04</rscale>
<asrwt>0</asrwt>
<pdfrwt beam="1">  1        1 0.37989027E+00 0.14734910E+04</pdfrwt>
<pdfrwt beam="2">  1       -2 0.33818171E-01 0.14734910E+04</pdfrwt>
<totfact> 0.99339890E+00</totfact>
</mgrwt>
</event>
<event>
12    4  0.4320235E-008  0.1660484E+04  0.7818608E-02  0.8784229E-01
          1   -1    0    0  501    0  0.00000000000E+00  0.00000000000E+00  0.12787781989E+04  0.12787781989E+04  0.00000000000E+00 0. -1.
         -2   -1    0    0    0  501 -0.00000000000E+00 -0.00000000000E+00 -0.53903124156E+03  0.53903124156E+03  0.00000000000E+00 0.  1.
        -24    2    1    2    0    0  0.18755765499E+03  0.51289278345E+03  0.67630426592E+02  0.55743216791E+03  0.88993628741E+02 0.  0.
        254    2    1    2    0    0 -0.18755765499E+03 -0.51289278345E+03  0.67211653078E+03  0.12603772726E+04  0.91573651071E+03 0.  0.
         23    2    4    4    0    0 -0.43432638180E+03 -0.16227084793E+03  0.17619868982E+02  0.47268115823E+03  0.90253994603E+02 0.  0.
         23    2    4    4    0    0  0.24676872682E+03 -0.35062193553E+03  0.65449666180E+03  0.78769611437E+03  0.90932623819E+02 0.  0.
          3    1    3    3  502    0  0.16506277840E+01  0.35378723508E+02  0.24763002172E+02  0.43215563466E+02  0.00000000000E+00 0. -1.
         -4    1    3    3    0  502  0.18590702720E+03  0.47751405994E+03  0.42867424420E+02  0.51421660444E+03  0.00000000000E+00 0.  1.
         11    1    5    5    0    0 -0.35742455840E+02 -0.44225463599E+01  0.25126210373E+02  0.43913648374E+02  0.00000000000E+00 0.  1.
        -11    1    5    5    0    0 -0.39858392596E+03 -0.15784830157E+03 -0.75063413913E+01  0.42876750985E+03  0.00000000000E+00 0. -1.
          4    1    6    6  503    0  0.11369124732E+03 -0.13994888083E+03  0.35439689967E+03  0.39762866025E+03  0.00000000000E+00 0. -1.
         -4    1    6    6    0  503  0.13307747950E+03 -0.21067305470E+03  0.30009976213E+03  0.39006745411E+03  0.00000000000E+00 0.  1.
<mgrwt>
<rscale>  0 0.16604835E+04</rscale>
<asrwt>0</asrwt>
<pdfrwt beam="1">  1        1 0.19673511E+00 0.16604835E+04</pdfrwt>
<pdfrwt beam="2">  1       -2 0.82927883E-01 0.16604835E+04</pdfrwt>
<totfact> 0.99995714E+00</totfact>
</mgrwt>
</event>
<event>
12    4  0.4320235E-008  0.1720923E+04  0.7818608E-02  0.8749520E-01
          1   -1    0    0  501    0  0.00000000000E+00  0.00000000000E+00  0.13690406633E+04  0.13690406633E+04  0.00000000000E+00 0. -1.
         -2   -1    0    0    0  501 -0.00000000000E+00 -0.00000000000E+00 -0.54081253538E+03  0.54081253538E+03  0.00000000000E+00 0.  1.
        -24    2    1    2    0    0 -0.15335468833E+03 -0.14055590362E+03  0.96123297842E+03  0.98670222818E+03  0.79616743295E+02 0.  0.
        254    2    1    2    0    0  0.15335468833E+03  0.14055590362E+03 -0.13300485050E+03  0.92315097051E+03  0.88951885962E+03 0.  0.
         23    2    4    4    0    0 -0.18297236177E+03  0.27332271178E+03  0.22143714433E+03  0.40668685486E+03  0.90419019492E+02 0.  0.
         23    2    4    4    0    0  0.33632705010E+03 -0.13276680815E+03 -0.35444199483E+03  0.51646411565E+03  0.10179953380E+03 0.  0.
          3    1    3    3  502    0 -0.12491709638E+03 -0.14757956903E+03  0.82461461647E+03  0.84697891110E+03  0.00000000000E+00 0. -1.
         -4    1    3    3    0  502 -0.28437591953E+02  0.70236654038E+01  0.13661836195E+03  0.13972331707E+03  0.00000000000E+00 0.  1.
         11    1    5    5    0    0 -0.17902232612E+03  0.20787362925E+03  0.19177797263E+03  0.33472261617E+03  0.00000000000E+00 0. -1.
        -11    1    5    5    0    0 -0.39500356453E+01  0.65449082526E+02  0.29659171697E+02  0.71964238694E+02  0.00000000000E+00 0.  1.
          2    1    6    6  503    0  0.25164087634E+03 -0.65073166709E+02 -0.29368318148E+03  0.39218294042E+03  0.00000000000E+00 0. -1.
         -2    1    6    6    0  503  0.84686173756E+02 -0.67693641442E+02 -0.60758813347E+02  0.12428117523E+03  0.00000000000E+00 0.  1.
<mgrwt>
<rscale>  0 0.17209234E+04</rscale>
<asrwt>0</asrwt>
<pdfrwt beam="1">  1        1 0.21062164E+00 0.17209234E+04</pdfrwt>
<pdfrwt beam="2">  1       -2 0.83201929E-01 0.17209234E+04</pdfrwt>
<totfact> 0.85172066E+00</totfact>
</mgrwt>
</event>
<event>
12    4  0.4320235E-008  0.1161576E+04  0.7818608E-02  0.9147170E-01
          3   -1    0    0  501    0  0.00000000000E+00  0.00000000000E+00  0.40899309757E+03  0.40899309757E+03  0.00000000000E+00 0. -1.
         -4   -1    0    0    0  501 -0.00000000000E+00 -0.00000000000E+00 -0.82474431861E+03  0.82474431861E+03  0.00000000000E+00 0.  1.
        -24    2    1    2    0    0 -0.15244099629E+03  0.16094232139E+02  0.11604779126E+03  0.21191830329E+03  0.89134705670E+02 0.  0.
        254    2    1    2    0    0  0.15244099629E+03 -0.16094232139E+02 -0.53179901230E+03  0.10218191129E+04  0.85895682565E+03 0.  0.
         23    2    4    4    0    0 -0.77751115341E+02 -0.20825399462E+03 -0.64470829193E+03  0.68848363691E+03  0.94583161331E+02 0.  0.
         23    2    4    4    0    0  0.23019211163E+03  0.19215976248E+03  0.11290927962E+03  0.33333547598E+03  0.91925249774E+02 0.  0.
          3    1    3    3  502    0 -0.56109761454E+02 -0.20754508599E+02  0.85498624452E+02  0.10435070551E+03  0.00000000000E+00 0. -1.
         -4    1    3    3    0  502 -0.96331234839E+02  0.36848740738E+02  0.30549166809E+02  0.10756759778E+03  0.00000000000E+00 0.  1.
         11    1    5    5    0    0 -0.50423115768E+02 -0.19756992022E+03 -0.60921386332E+03  0.64243123775E+03  0.00000000000E+00 0.  1.
        -11    1    5    5    0    0 -0.27327999573E+02 -0.10684074399E+02 -0.35494428610E+02  0.46052399164E+02  0.00000000000E+00 0. -1.
          2    1    6    6  503    0  0.74208358996E+02  0.12225579988E+02  0.21043289346E+02  0.78097153453E+02  0.00000000000E+00 0. -1.
         -2    1    6    6    0  503  0.15598375264E+03  0.17993418249E+03  0.91865990278E+02  0.25523832253E+03  0.00000000000E+00 0.  1.
<mgrwt>
<rscale>  0 0.11615761E+04</rscale>
<asrwt>0</asrwt>
<pdfrwt beam="1">  1        3 0.62922015E-01 0.11615761E+04</pdfrwt>
<pdfrwt beam="2">  1       -4 0.12688374E+00 0.11615761E+04</pdfrwt>
<totfact> 0.25529592E+00</totfact>
</mgrwt>
</event>
<event>
12    4  0.4320235E-008  0.1911401E+04  0.7818608E-02  0.8649202E-01
          1   -1    0    0  501    0  0.00000000000E+00  0.00000000000E+00  0.14088658962E+04  0.14088658962E+04  0.00000000000E+00 0. -1.
         -2   -1    0    0    0  501 -0.00000000000E+00 -0.00000000000E+00 -0.64829679843E+03  0.64829679843E+03  0.00000000000E+00 0.  1.
        -24    2    1    2    0    0 -0.12663018070E+02 -0.21996251819E+03  0.10618870072E+04  0.10875291687E+04  0.81066734089E+02 0.  0.
        254    2    1    2    0    0  0.12663018070E+02  0.21996251819E+03 -0.30131790939E+03  0.96963352593E+03  0.89490381084E+03 0.  0.
         23    2    4    4    0    0  0.32303336016E+03  0.42286995036E+03 -0.17887898481E+03  0.56868979971E+03  0.90779129687E+02 0.  0.
         23    2    4    4    0    0 -0.31037034210E+03 -0.20290743217E+03 -0.12243892458E+03  0.40094372622E+03  0.90903278604E+02 0.  0.
          1    1    3    3  502    0 -0.22224682602E+01 -0.22016322474E+03  0.95114234033E+03  0.97629326355E+03  0.00000000000E+00 0. -1.
         -2    1    3    3    0  502 -0.10440549810E+02  0.20070655277E+00  0.11074466684E+03  0.11123590516E+03  0.00000000000E+00 0.  1.
         11    1    5    5    0    0  0.23616214962E+03  0.30202354216E+03 -0.84932228142E+02  0.39268850799E+03  0.00000000000E+00 0.  1.
        -11    1    5    5    0    0  0.86871210545E+02  0.12084640820E+03 -0.93946756672E+02  0.17600129171E+03  0.00000000000E+00 0. -1.
          4    1    6    6  503    0 -0.27307888699E+03 -0.19861039323E+03 -0.85595651112E+02  0.34834577981E+03  0.00000000000E+00 0.  1.
         -4    1    6    6    0  503 -0.37291455103E+02 -0.42970389434E+01 -0.36843273465E+02  0.52597946414E+02  0.00000000000E+00 0. -1.
<mgrwt>
<rscale>  0 0.19114008E+04</rscale>
<asrwt>0</asrwt>
<pdfrwt beam="1">  1        1 0.21674860E+00 0.19114008E+04</pdfrwt>
<pdfrwt beam="2">  1       -2 0.99737969E-01 0.19114008E+04</pdfrwt>
<totfact> 0.51633113E+00</totfact>
</mgrwt>
</event>
<event>
12    4  0.4320235E-008  0.1923405E+04  0.7818608E-02  0.8643293E-01
          1   -1    0    0  501    0  0.00000000000E+00  0.00000000000E+00  0.23014948913E+04  0.23014948913E+04  0.00000000000E+00 0. -1.
         -2   -1    0    0    0  501 -0.00000000000E+00 -0.00000000000E+00 -0.40185700079E+03  0.40185700079E+03  0.00000000000E+00 0.  1.
        -24    2    1    2    0    0  0.18373635452E+03 -0.69541363048E+03  0.46301747933E+03  0.85927200901E+03  0.81265206977E+02 0.  0.
        254    2    1    2    0    0 -0.18373635452E+03  0.69541363048E+03  0.14366204112E+04  0.18440798831E+04  0.90520342683E+03 0.  0.
         23    2    4    4    0    0 -0.29133710717E+03 -0.11359714112E+03  0.51833540586E+03  0.61230661269E+03  0.92011817155E+02 0.  0.
         23    2    4    4    0    0  0.10760075265E+03  0.80901077160E+03  0.91828500537E+03  0.12317732704E+04  0.89116149596E+02 0.  0.
          3    1    3    3  502    0  0.91939077319E+02 -0.40012245850E+03  0.30879587699E+03  0.51371749958E+03  0.00000000000E+00 0. -1.
         -4    1    3    3    0  502  0.91797277202E+02 -0.29529117199E+03  0.15422160233E+03  0.34555450942E+03  0.00000000000E+00 0.  1.
         11    1    5    5    0    0 -0.24236703221E+03 -0.12041390718E+03  0.47439271867E+03  0.54615907836E+03  0.00000000000E+00 0. -1.
        -11    1    5    5    0    0 -0.48970074960E+02  0.68167660653E+01  0.43942687187E+02  0.66147534333E+02  0.00000000000E+00 0.  1.
          1    1    6    6  503    0  0.54337028511E+02  0.57286266697E+03  0.59307921287E+03  0.82635773162E+03  0.00000000000E+00 0. -1.
         -1    1    6    6    0  503  0.53263724136E+02  0.23614810464E+03  0.32520579250E+03  0.40541553881E+03  0.00000000000E+00 0.  1.
<mgrwt>
<rscale>  0 0.19234051E+04</rscale>
<asrwt>0</asrwt>
<pdfrwt beam="1">  1        1 0.35407613E+00 0.19234051E+04</pdfrwt>
<pdfrwt beam="2">  1       -2 0.61824155E-01 0.19234051E+04</pdfrwt>
<totfact> 0.37021418E+00</totfact>
</mgrwt>
</event>
<event>
12    4  0.4320235E-008  0.3666073E+04  0.7818608E-02  0.8075522E-01
         -2   -1    0    0    0  501 -0.00000000000E+00  0.00000000000E+00  0.16156032710E+04  0.16156032710E+04  0.00000000000E+00 0.  1.
          1   -1    0    0  501    0  0.00000000000E+00 -0.00000000000E+00 -0.20797328608E+04  0.20797328608E+04  0.00000000000E+00 0. -1.
        -24    2    1    2    0    0 -0.10278168216E+03 -0.60355457709E+03  0.14070502474E+04  0.15365155160E+04  0.79040055474E+02 0.  0.
        254    2    1    2    0    0  0.10278168216E+03  0.60355457709E+03 -0.18711798371E+04  0.21588206158E+04  0.88563551567E+03 0.  0.
         23    2    4    4    0    0 -0.23083327495E+01  0.80240467209E+03 -0.16141263132E+04  0.18048917016E+04  0.91497066735E+02 0.  0.
         23    2    4    4    0    0  0.10509001491E+03 -0.19885009500E+03 -0.25705352393E+03  0.35392891424E+03  0.92757159564E+02 0.  0.
          3    1    3    3  502    0 -0.64331557392E+02 -0.42692629229E+03  0.89984020674E+03  0.99805661462E+03  0.00000000000E+00 0. -1.
         -4    1    3    3    0  502 -0.38450124767E+02 -0.17662828480E+03  0.50721004065E+03  0.53845890134E+03  0.00000000000E+00 0.  1.
         11    1    5    5    0    0 -0.42690424305E+02  0.34520848717E+03 -0.73572392316E+03  0.81380652679E+03  0.00000000000E+00 0. -1.
        -11    1    5    5    0    0  0.40382091555E+02  0.45719618493E+03 -0.87840239006E+03  0.99108517479E+03  0.00000000000E+00 0.  1.
          4    1    6    6  503    0  0.10751323288E+02 -0.23480962125E+02  0.34257572535E+01  0.26051532536E+02  0.00000000000E+00 0. -1.
         -4    1    6    6    0  503  0.94338691621E+02 -0.17536913288E+03 -0.26047928119E+03  0.32787738170E+03  0.00000000000E+00 0.  1.
<mgrwt>
<rscale>  0 0.36660732E+04</rscale>
<asrwt>0</asrwt>
<pdfrwt beam="1">  1        1 0.31995890E+00 0.36660732E+04</pdfrwt>
<pdfrwt beam="2">  1       -2 0.24855435E+00 0.36660732E+04</pdfrwt>
<totfact> 0.12208168E-01</totfact>
</mgrwt>
</event>
<event>
12    4  0.4320235E-008  0.1415435E+04  0.7818608E-02  0.8942721E-01
          1   -1    0    0  501    0  0.00000000000E+00  0.00000000000E+00  0.45896441793E+03  0.45896441793E+03  0.00000000000E+00 0. -1.
         -2   -1    0    0    0  501 -0.00000000000E+00 -0.00000000000E+00 -0.10912919715E+04  0.10912919715E+04  0.00000000000E+00 0.  1.
        -24    2    1    2    0    0  0.31532054281E+03  0.96090098337E+02 -0.46609632770E+03  0.57645742684E+03  0.79981413787E+02 0.  0.
        254    2    1    2    0    0 -0.31532054281E+03 -0.96090098337E+02 -0.16623122587E+03  0.97379896258E+03  0.90110556949E+03 0.  0.
         23    2    4    4    0    0  0.24883818949E+03  0.76766032793E+02  0.13317812854E+03  0.30614371493E+03  0.90410684826E+02 0.  0.
         23    2    4    4    0    0 -0.56415873231E+03 -0.17285613113E+03 -0.29940935441E+03  0.66765524765E+03  0.89237048929E+02 0.  0.
          3    1    3    3  502    0  0.87495045985E+01  0.16918097551E+02 -0.10827265962E+02  0.21909028817E+02  0.00000000000E+00 0. -1.
         -4    1    3    3    0  502  0.30657103821E+03  0.79172000786E+02 -0.45526906174E+03  0.55454839803E+03  0.00000000000E+00 0.  1.
         11    1    5    5    0    0  0.23698473167E+03  0.51261100978E+02  0.13578639957E+03  0.27789820048E+03  0.00000000000E+00 0.  1.
        -11    1    5    5    0    0  0.11853457820E+02  0.25504931815E+02 -0.26082710304E+01  0.28245514457E+02  0.00000000000E+00 0. -1.
          3    1    6    6  503    0 -0.11209552287E+03  0.96049570609E+00 -0.65033720136E+02  0.12959827759E+03  0.00000000000E+00 0. -1.
         -3    1    6    6    0  503 -0.45206320944E+03 -0.17381662684E+03 -0.23437563427E+03  0.53805697006E+03  0.00000000000E+00 0.  1.
<mgrwt>
<rscale>  0 0.14154352E+04</rscale>
<asrwt>0</asrwt>
<pdfrwt beam="1">  1        1 0.70609911E-01 0.14154352E+04</pdfrwt>
<pdfrwt beam="2">  1       -2 0.16789107E+00 0.14154352E+04</pdfrwt>
<totfact> 0.93559011E+00</totfact>
</mgrwt>
</event>
<event>
12    4  0.4320235E-008  0.2332320E+04  0.7818608E-02  0.8465286E-01
         -2   -1    0    0    0  501 -0.00000000000E+00  0.00000000000E+00  0.14836129194E+04  0.14836129194E+04  0.00000000000E+00 0.  1.
          1   -1    0    0  501    0  0.00000000000E+00 -0.00000000000E+00 -0.91663358384E+03  0.91663358384E+03  0.00000000000E+00 0. -1.
        -24    2    1    2    0    0  0.52437593335E+03  0.92256852563E+02  0.11345449305E+04  0.12555621033E+04  0.75911459553E+02 0.  0.
        254    2    1    2    0    0 -0.52437593335E+03 -0.92256852563E+02 -0.56756559489E+03  0.11446843999E+04  0.83945829238E+03 0.  0.
         23    2    4    4    0    0 -0.20808545457E+03 -0.44772827278E+03 -0.21882922836E+03  0.54766473702E+03  0.91050921705E+02 0.  0.
         23    2    4    4    0    0 -0.31629047878E+03  0.35547142021E+03 -0.34873636653E+03  0.59701966292E+03  0.91737816742E+02 0.  0.
          3    1    3    3  502    0  0.19531310322E+03  0.71612108724E+02  0.44926684633E+03  0.49509211427E+03  0.00000000000E+00 0. -1.
         -4    1    3    3    0  502  0.32906283013E+03  0.20644743839E+02  0.68527808415E+03  0.76046998905E+03  0.00000000000E+00 0.  1.
         11    1    5    5    0    0 -0.32742389097E+02 -0.14521492296E+03 -0.95669033786E+02  0.17695197631E+03  0.00000000000E+00 0.  1.
        -11    1    5    5    0    0 -0.17534306547E+03 -0.30251334982E+03 -0.12316019458E+03  0.37071276071E+03  0.00000000000E+00 0. -1.
          3    1    6    6  503    0 -0.28024752911E+03  0.27188314574E+03 -0.30788773346E+03  0.49724639659E+03  0.00000000000E+00 0. -1.
         -3    1    6    6    0  503 -0.36042949677E+02  0.83588274477E+02 -0.40848633068E+02  0.99773266334E+02  0.00000000000E+00 0.  1.
<mgrwt>
<rscale>  0 0.23323202E+04</rscale>
<asrwt>0</asrwt>
<pdfrwt beam="1">  1        1 0.14102055E+00 0.23323202E+04</pdfrwt>
<pdfrwt beam="2">  1       -2 0.22824814E+00 0.23323202E+04</pdfrwt>
<totfact> 0.12218798E+00</totfact>
</mgrwt>
</event>
<event>
12    4  0.4320235E-008  0.1717518E+04  0.7818608E-02  0.8751436E-01
          1   -1    0    0  501    0  0.00000000000E+00  0.00000000000E+00  0.15243646138E+04  0.15243646138E+04  0.00000000000E+00 0. -1.
         -2   -1    0    0    0  501 -0.00000000000E+00 -0.00000000000E+00 -0.48378645224E+03  0.48378645224E+03  0.00000000000E+00 0.  1.
        -24    2    1    2    0    0 -0.29227395443E+03 -0.50624099472E+03  0.65089943970E+03  0.87857983207E+03  0.80798710008E+02 0.  0.
        254    2    1    2    0    0  0.29227395443E+03  0.50624099472E+03  0.38967872185E+03  0.11295712340E+04  0.88452114568E+03 0.  0.
         23    2    4    4    0    0  0.42355206950E+02 -0.19247280699E+02 -0.24419058496E+03  0.26423748785E+03  0.89599033657E+02 0.  0.
         23    2    4    4    0    0  0.24991874748E+03  0.52548827542E+03  0.63386930681E+03  0.86533374611E+03  0.91732688209E+02 0.  0.
          1    1    3    3  502    0 -0.28165759638E+03 -0.43599757002E+03  0.57415611147E+03  0.77400266343E+03  0.00000000000E+00 0. -1.
         -2    1    3    3    0  502 -0.10616358055E+02 -0.70243424706E+02  0.76743328229E+02  0.10457716864E+03  0.00000000000E+00 0.  1.
         11    1    5    5    0    0 -0.52908417686E+01 -0.45552586898E+02 -0.96625838136E+02  0.10695598990E+03  0.00000000000E+00 0.  1.
        -11    1    5    5    0    0  0.47646048718E+02  0.26305306199E+02 -0.14756474683E+03  0.15728149796E+03  0.00000000000E+00 0. -1.
          3    1    6    6  503    0  0.13539980234E+03  0.31207814439E+03  0.43320605519E+03  0.55081154757E+03  0.00000000000E+00 0. -1.
         -3    1    6    6    0  503  0.11451894514E+03  0.21341013103E+03  0.20066325162E+03  0.31452219854E+03  0.00000000000E+00 0.  1.
<mgrwt>
<rscale>  0 0.17175179E+04</rscale>
<asrwt>0</asrwt>
<pdfrwt beam="1">  1        1 0.23451763E+00 0.17175179E+04</pdfrwt>
<pdfrwt beam="2">  1       -2 0.74428686E-01 0.17175179E+04</pdfrwt>
<totfact> 0.85214421E+00</totfact>
</mgrwt>
</event>
<event>
12    4  0.4320235E-008  0.1698860E+04  0.7818608E-02  0.8762015E-01
          1   -1    0    0  501    0  0.00000000000E+00  0.00000000000E+00  0.41795954489E+03  0.41795954489E+03  0.00000000000E+00 0. -1.
         -2   -1    0    0    0  501 -0.00000000000E+00 -0.00000000000E+00 -0.17263182027E+04  0.17263182027E+04  0.00000000000E+00 0.  1.
        -24    2    1    2    0    0  0.17567355887E+03  0.29673459410E+03  0.15726289764E+03  0.38698216895E+03  0.78172638992E+02 0.  0.
        254    2    1    2    0    0 -0.17567355887E+03 -0.29673459410E+03 -0.14656215554E+04  0.17572955786E+04  0.90616145816E+03 0.  0.
         23    2    4    4    0    0 -0.30203366224E+02 -0.89617140485E+02  0.10215758373E+03  0.16651738581E+03  0.91369539032E+02 0.  0.
         23    2    4    4    0    0 -0.14547019265E+03 -0.20711745362E+03 -0.15677791391E+04  0.15907781928E+04  0.92653186703E+02 0.  0.
          3    1    3    3  502    0  0.97653509820E+02  0.22604240208E+03  0.12896335132E+03  0.27796208645E+03  0.00000000000E+00 0. -1.
         -4    1    3    3    0  502  0.78020049052E+02  0.70692192024E+02  0.28299546319E+02  0.10902008250E+03  0.00000000000E+00 0.  1.
         11    1    5    5    0    0  0.29798292647E+02 -0.10939479511E+02  0.33063007995E+02  0.45834189797E+02  0.00000000000E+00 0. -1.
        -11    1    5    5    0    0 -0.60001658871E+02 -0.78677660974E+02  0.69094575731E+02  0.12068319601E+03  0.00000000000E+00 0.  1.
          1    1    6    6  503    0 -0.62365881777E+02 -0.99317218231E+02 -0.46196548942E+03  0.47661884820E+03  0.00000000000E+00 0. -1.
         -1    1    6    6    0  503 -0.83104310872E+02 -0.10780023539E+03 -0.11058136497E+04  0.11141593446E+04  0.00000000000E+00 0.  1.
<mgrwt>
<rscale>  0 0.16988598E+04</rscale>
<asrwt>0</asrwt>
<pdfrwt beam="1">  1        1 0.64301468E-01 0.16988598E+04</pdfrwt>
<pdfrwt beam="2">  1       -2 0.26558742E+00 0.16988598E+04</pdfrwt>
<totfact> 0.24297647E+00</totfact>
</mgrwt>
</event>
<event>
12    4  0.4320235E-008  0.1399286E+04  0.7818608E-02  0.8954336E-01
         -2   -1    0    0    0  501 -0.00000000000E+00  0.00000000000E+00  0.66182002853E+03  0.66182002853E+03  0.00000000000E+00 0.  1.
          1   -1    0    0  501    0  0.00000000000E+00 -0.00000000000E+00 -0.73962719738E+03  0.73962719738E+03  0.00000000000E+00 0. -1.
        -24    2    1    2    0    0 -0.38581707744E+03 -0.10252529579E+03 -0.81816071077E+02  0.41523169546E+03  0.79732288980E+02 0.  0.
        254    2    1    2    0    0  0.38581707744E+03  0.10252529579E+03  0.40089022179E+01  0.98621553045E+03  0.90179750924E+03 0.  0.
         23    2    4    4    0    0  0.42336345144E+03 -0.25426919489E+03  0.23047187427E+03  0.55256810744E+03  0.91240303841E+02 0.  0.
         23    2    4    4    0    0 -0.37546373995E+02  0.35679449068E+03 -0.22646297206E+03  0.43364742301E+03  0.89736118626E+02 0.  0.
          1    1    3    3  502    0 -0.46013747046E+02 -0.36730545632E+02 -0.27120210304E+02  0.64822092735E+02  0.00000000000E+00 0. -1.
         -2    1    3    3    0  502 -0.33980333040E+03 -0.65794750159E+02 -0.54695860773E+02  0.35040960273E+03  0.00000000000E+00 0.  1.
         11    1    5    5    0    0  0.39399973305E+03 -0.21143912379E+03  0.22436252414E+03  0.50028075612E+03  0.00000000000E+00 0. -1.
        -11    1    5    5    0    0  0.29363718391E+02 -0.42830071106E+02  0.61093501311E+01  0.52287351317E+02  0.00000000000E+00 0.  1.
          1    1    6    6  503    0 -0.51052903537E+02  0.33545956108E+03 -0.22724096382E+03  0.40838458800E+03  0.00000000000E+00 0. -1.
         -1    1    6    6    0  503  0.13506529542E+02  0.21334929603E+02  0.77799175903E+00  0.25262835007E+02  0.00000000000E+00 0.  1.
<mgrwt>
<rscale>  0 0.13992857E+04</rscale>
<asrwt>0</asrwt>
<pdfrwt beam="1">  1        1 0.11378880E+00 0.13992857E+04</pdfrwt>
<pdfrwt beam="2">  1       -2 0.10181847E+00 0.13992857E+04</pdfrwt>
<totfact> 0.16915402E+01</totfact>
</mgrwt>
</event>
<event>
12    4  0.4320235E-008  0.1241890E+04  0.7818608E-02  0.9076960E-01
          1   -1    0    0  501    0  0.00000000000E+00  0.00000000000E+00  0.16883334829E+04  0.16883334829E+04  0.00000000000E+00 0. -1.
         -2   -1    0    0    0  501 -0.00000000000E+00 -0.00000000000E+00 -0.22837487069E+03  0.22837487069E+03  0.00000000000E+00 0.  1.
        -24    2    1    2    0    0 -0.16906770413E+03  0.18862894849E+03  0.15723028545E+03  0.30865728165E+03  0.79894843804E+02 0.  0.
        254    2    1    2    0    0  0.16906770413E+03 -0.18862894849E+03  0.13027283268E+04  0.16080510719E+04  0.90805417671E+03 0.  0.
         23    2    4    4    0    0  0.24164592007E+03  0.29894910992E+03  0.33439271980E+03  0.51746548226E+03  0.90491509358E+02 0.  0.
         23    2    4    4    0    0 -0.72578215938E+02 -0.48757805841E+03  0.96833560697E+03  0.10905855897E+04  0.93290515285E+02 0.  0.
          1    1    3    3  502    0 -0.10105565276E+03  0.77376526737E+02  0.11516362397E+03  0.17164507605E+03  0.00000000000E+00 0. -1.
         -2    1    3    3    0  502 -0.68012051372E+02  0.11125242175E+03  0.42066661481E+02  0.13701220561E+03  0.00000000000E+00 0.  1.
         11    1    5    5    0    0  0.57651965488E+02  0.98367666230E+02  0.15119813595E+03  0.18936954137E+03  0.00000000000E+00 0.  1.
        -11    1    5    5    0    0  0.18399395458E+03  0.20058144369E+03  0.18319458385E+03  0.32809594088E+03  0.00000000000E+00 0. -1.
          3    1    6    6  503    0 -0.45106012369E+02 -0.33579195802E+03  0.75290493515E+03  0.82562499526E+03  0.00000000000E+00 0. -1.
         -3    1    6    6    0  503 -0.27472203570E+02 -0.15178610039E+03  0.21543067182E+03  0.26496059443E+03  0.00000000000E+00 0.  1.
<mgrwt>
<rscale>  0 0.12418904E+04</rscale>
<asrwt>0</asrwt>
<pdfrwt beam="1">  1        1 0.25974361E+00 0.12418904E+04</pdfrwt>
<pdfrwt beam="2">  1       -2 0.35134597E-01 0.12418904E+04</pdfrwt>
<totfact> 0.31977889E+01</totfact>
</mgrwt>
</event>
<event>
12    4  0.4320235E-008  0.1668706E+04  0.7818608E-02  0.8779417E-01
          1   -1    0    0  501    0  0.00000000000E+00  0.00000000000E+00  0.24173020832E+04  0.24173020832E+04  0.00000000000E+00 0. -1.
         -2   -1    0    0    0  501 -0.00000000000E+00 -0.00000000000E+00 -0.28798416102E+03  0.28798416102E+03  0.00000000000E+00 0.  1.
        -24    2    1    2    0    0 -0.58095324091E+03  0.67911354346E+02  0.90580870331E+03  0.10813698528E+04  0.82175004794E+02 0.  0.
        254    2    1    2    0    0  0.58095324091E+03 -0.67911354346E+02  0.12235092189E+04  0.16239163914E+04  0.89331462399E+03 0.  0.
         23    2    4    4    0    0  0.56713338397E+03 -0.30091098652E+03  0.12100113971E+04  0.13729117585E+04  0.92581956309E+02 0.  0.
         23    2    4    4    0    0  0.13819856936E+02  0.23299963217E+03  0.13497821799E+02  0.25100463287E+03  0.91330813484E+02 0.  0.
          3    1    3    3  502    0 -0.56861713375E+03  0.72726230835E+02  0.85891339693E+03  0.10326406795E+04  0.00000000000E+00 0. -1.
         -4    1    3    3    0  502 -0.12336107153E+02 -0.48148764889E+01  0.46895306378E+02  0.48729173352E+02  0.00000000000E+00 0.  1.
         11    1    5    5    0    0  0.54775923446E+03 -0.27918292331E+03  0.11829055676E+04  0.13331349765E+04  0.00000000000E+00 0.  1.
        -11    1    5    5    0    0  0.19374149507E+02 -0.21728063207E+02  0.27105829465E+02  0.39776782057E+02  0.00000000000E+00 0. -1.
          4    1    6    6  503    0  0.49689220040E+01  0.63733632822E+02 -0.37357919468E+02  0.74042422203E+02  0.00000000000E+00 0. -1.
         -4    1    6    6    0  503  0.88509349317E+01  0.16926599935E+03  0.50855741267E+02  0.17696221067E+03  0.00000000000E+00 0.  1.
<mgrwt>
<rscale>  0 0.16687057E+04</rscale>
<asrwt>0</asrwt>
<pdfrwt beam="1">  1        1 0.37189261E+00 0.16687057E+04</pdfrwt>
<pdfrwt beam="2">  1       -2 0.44305257E-01 0.16687057E+04</pdfrwt>
<totfact> 0.62649476E+00</totfact>
</mgrwt>
</event>
<event>
12    4  0.4320235E-008  0.1032475E+04  0.7818608E-02  0.9273627E-01
         -2   -1    0    0    0  501 -0.00000000000E+00  0.00000000000E+00  0.53085874346E+03  0.53085874346E+03  0.00000000000E+00 0.  1.
          1   -1    0    0  501    0  0.00000000000E+00 -0.00000000000E+00 -0.50201913436E+03  0.50201913436E+03  0.00000000000E+00 0. -1.
        -24    2    1    2    0    0 -0.92897786623E+02 -0.94811686183E+01 -0.29221465984E+02  0.12371743346E+03  0.75711412289E+02 0.  0.
        254    2    1    2    0    0  0.92897786623E+02  0.94811686183E+01  0.58061075083E+02  0.90916044435E+03  0.90248641752E+03 0.  0.
         23    2    4    4    0    0  0.21605531005E+03  0.21722223591E+03 -0.31858561206E+03  0.45243253494E+03  0.96607503266E+02 0.  0.
         23    2    4    4    0    0 -0.12315752343E+03 -0.20774106729E+03  0.37664668714E+03  0.45672790941E+03  0.91725294682E+02 0.  0.
          1    1    3    3  502    0 -0.81143754909E+02  0.10618846915E+02 -0.47044917029E+02  0.94394348818E+02  0.00000000000E+00 0. -1.
         -2    1    3    3    0  502 -0.11754031714E+02 -0.20100015533E+02  0.17823451046E+02  0.29323084645E+02  0.00000000000E+00 0.  1.
         11    1    5    5    0    0  0.20877491118E+03  0.22668592045E+03 -0.31299440053E+03  0.43924818137E+03  0.00000000000E+00 0. -1.
        -11    1    5    5    0    0  0.72803988663E+01 -0.94636845422E+01 -0.55912115246E+01  0.13184353571E+02  0.00000000000E+00 0.  1.
          1    1    6    6  503    0 -0.81389118068E+02 -0.19825786347E+03  0.29637210012E+03  0.36574142600E+03  0.00000000000E+00 0. -1.
         -1    1    6    6    0  503 -0.41768405360E+02 -0.94832038216E+01  0.80274587023E+02  0.90986483407E+02  0.00000000000E+00 0.  1.
<mgrwt>
<rscale>  0 0.10324752E+04</rscale>
<asrwt>0</asrwt>
<pdfrwt beam="1">  1        1 0.77233713E-01 0.10324752E+04</pdfrwt>
<pdfrwt beam="2">  1       -2 0.81670576E-01 0.10324752E+04</pdfrwt>
<totfact> 0.50920914E+01</totfact>
</mgrwt>
</event>
<event>
12    4  0.4320235E-008  0.1991901E+04  0.7818608E-02  0.8610417E-01
         -2   -1    0    0    0  501 -0.00000000000E+00  0.00000000000E+00  0.19453397101E+04  0.19453397101E+04  0.00000000000E+00 0.  1.
          1   -1    0    0  501    0  0.00000000000E+00 -0.00000000000E+00 -0.50989404364E+03  0.50989404364E+03  0.00000000000E+00 0. -1.
        -24    2    1    2    0    0 -0.28928362823E+03 -0.32557793601E+03 -0.23216010965E+03  0.49979252736E+03  0.78792410268E+02 0.  0.
        254    2    1    2    0    0  0.28928362823E+03  0.32557793601E+03  0.16676057761E+04  0.19554412264E+04  0.92366409226E+03 0.  0.
         23    2    4    4    0    0  0.72361892230E+02  0.91957332501E+02  0.16124448741E+04  0.16192662871E+04  0.91391695550E+02 0.  0.
         23    2    4    4    0    0  0.21692173600E+03  0.23362060351E+03  0.55160901995E+02  0.33617493929E+03  0.91308481330E+02 0.  0.
          3    1    3    3  502    0 -0.26757304482E+03 -0.27444254145E+03 -0.17948447623E+03  0.42323600991E+03  0.00000000000E+00 0. -1.
         -4    1    3    3    0  502 -0.21710583401E+02 -0.51135394561E+02 -0.52675633417E+02  0.76556517452E+02  0.00000000000E+00 0.  1.
         11    1    5    5    0    0 -0.16175942983E+01  0.14328172073E+01  0.61347469067E+03  0.61347849650E+03  0.00000000000E+00 0.  1.
        -11    1    5    5    0    0  0.73979486528E+02  0.90524515294E+02  0.99897018343E+03  0.10057877906E+04  0.00000000000E+00 0. -1.
          1    1    6    6  503    0  0.11172665288E+03  0.95928589759E+02 -0.17469362253E+02  0.14829132785E+03  0.00000000000E+00 0. -1.
         -1    1    6    6    0  503  0.10519508311E+03  0.13769201375E+03  0.72630264247E+02  0.18788361144E+03  0.00000000000E+00 0.  1.
<mgrwt>
<rscale>  0 0.19919007E+04</rscale>
<asrwt>0</asrwt>
<pdfrwt beam="1">  1        1 0.78445238E-01 0.19919007E+04</pdfrwt>
<pdfrwt beam="2">  1       -2 0.29928303E+00 0.19919007E+04</pdfrwt>
<totfact> 0.11265531E+00</totfact>
</mgrwt>
</event>
<event>
12    4  0.4320235E-008  0.1394846E+04  0.7818608E-02  0.8957557E-01
          1   -1    0    0  501    0  0.00000000000E+00  0.00000000000E+00  0.14652838107E+04  0.14652838107E+04  0.00000000000E+00 0. -1.
         -2   -1    0    0    0  501 -0.00000000000E+00 -0.00000000000E+00 -0.33194876007E+03  0.33194876007E+03  0.00000000000E+00 0.  1.
        -24    2    1    2    0    0 -0.38167589602E+03 -0.14160879490E+03  0.30234062065E+03  0.51324837459E+03  0.79274855609E+02 0.  0.
        254    2    1    2    0    0  0.38167589602E+03  0.14160879490E+03  0.83099442996E+03  0.12839841962E+04  0.89013152564E+03 0.  0.
         23    2    4    4    0    0 -0.97681728696E+02  0.25145661547E+03 -0.32056713215E+02  0.28653555167E+03  0.91119920548E+02 0.  0.
         23    2    4    4    0    0  0.47935762472E+03 -0.10984782057E+03  0.86305114318E+03  0.99744864448E+03  0.90533124242E+02 0.  0.
          1    1    3    3  502    0 -0.52053849520E+02 -0.47334004305E+02  0.68935361158E+02  0.98499721987E+02  0.00000000000E+00 0. -1.
         -2    1    3    3    0  502 -0.32962204650E+03 -0.94274790595E+02  0.23340525949E+03  0.41474865261E+03  0.00000000000E+00 0.  1.
         11    1    5    5    0    0 -0.11520793082E+03  0.22801313347E+03 -0.28657880482E+02  0.25706833814E+03  0.00000000000E+00 0. -1.
        -11    1    5    5    0    0  0.17526202123E+02  0.23443482002E+02 -0.33988327328E+01  0.29467213529E+02  0.00000000000E+00 0.  1.
          4    1    6    6  503    0  0.34721274540E+03 -0.10348494429E+03  0.69301196622E+03  0.78200473757E+03  0.00000000000E+00 0. -1.
         -4    1    6    6    0  503  0.13214487932E+03 -0.63628762823E+01  0.17003917695E+03  0.21544390691E+03  0.00000000000E+00 0.  1.
<mgrwt>
<rscale>  0 0.13948464E+04</rscale>
<asrwt>0</asrwt>
<pdfrwt beam="1">  1        1 0.22542828E+00 0.13948464E+04</pdfrwt>
<pdfrwt beam="2">  1       -2 0.51069041E-01 0.13948464E+04</pdfrwt>
<totfact> 0.21448239E+01</totfact>
</mgrwt>
</event>
<event>
12    4  0.4320235E-008  0.2264472E+04  0.7818608E-02  0.8492063E-01
         -2   -1    0    0    0  501 -0.00000000000E+00  0.00000000000E+00  0.68425019098E+03  0.68425019098E+03  0.00000000000E+00 0.  1.
          1   -1    0    0  501    0  0.00000000000E+00 -0.00000000000E+00 -0.18735227217E+04  0.18735227217E+04  0.00000000000E+00 0. -1.
        -24    2    1    2    0    0 -0.81296918731E+03  0.46821038275E+03 -0.62414682296E+03  0.11296140621E+04  0.79553821716E+02 0.  0.
        254    2    1    2    0    0  0.81296918731E+03 -0.46821038275E+03 -0.56512570774E+03  0.14281588506E+04  0.91658647983E+03 0.  0.
         23    2    4    4    0    0  0.44193972577E+02 -0.34530783167E+03 -0.53254117312E+03  0.64358717460E+03  0.97024452659E+02 0.  0.
         23    2    4    4    0    0  0.76877521473E+03 -0.12290255108E+03 -0.32584534615E+02  0.78457167601E+03  0.91490956151E+02 0.  0.
          3    1    3    3  502    0 -0.43779534854E+03  0.26009979889E+03 -0.38538855909E+03  0.63862431371E+03  0.00000000000E+00 0. -1.
         -4    1    3    3    0  502 -0.37517383877E+03  0.20811058386E+03 -0.23875826387E+03  0.49098974835E+03  0.00000000000E+00 0.  1.
         11    1    5    5    0    0 -0.83654540464E+01 -0.25713418809E+02 -0.10041764510E+02  0.28844371422E+02  0.00000000000E+00 0. -1.
        -11    1    5    5    0    0  0.52559426624E+02 -0.31959441286E+03 -0.52249940861E+03  0.61474280318E+03  0.00000000000E+00 0.  1.
          3    1    6    6  503    0  0.20572268114E+03 -0.40498721067E+00 -0.32966958059E+02  0.20834780026E+03  0.00000000000E+00 0. -1.
         -3    1    6    6    0  503  0.56305253359E+03 -0.12249756387E+03  0.38242344449E+00  0.57622387575E+03  0.00000000000E+00 0.  1.
<mgrwt>
<rscale>  0 0.22644719E+04</rscale>
<asrwt>0</asrwt>
<pdfrwt beam="1">  1        1 0.28823426E+00 0.22644719E+04</pdfrwt>
<pdfrwt beam="2">  1       -2 0.10526926E+00 0.22644719E+04</pdfrwt>
<totfact> 0.21127468E+00</totfact>
</mgrwt>
</event>
<event>
12    4  0.4320235E-008  0.1488994E+04  0.7818608E-02  0.8891805E-01
         -2   -1    0    0    0  501 -0.00000000000E+00  0.00000000000E+00  0.64464280407E+03  0.64464280407E+03  0.00000000000E+00 0.  1.
          1   -1    0    0  501    0  0.00000000000E+00 -0.00000000000E+00 -0.85981876828E+03  0.85981876828E+03  0.00000000000E+00 0. -1.
        -24    2    1    2    0    0  0.14056413769E+03  0.14288043764E+03 -0.52995911258E+03  0.57231127659E+03  0.80687297958E+02 0.  0.
        254    2    1    2    0    0 -0.14056413769E+03 -0.14288043764E+03  0.31478314836E+03  0.93215029575E+03  0.85419122397E+03 0.  0.
         23    2    4    4    0    0  0.30682262950E+03  0.12613199832E+03  0.79229954181E+02  0.35321572869E+03  0.91839851826E+02 0.  0.
         23    2    4    4    0    0 -0.44738676718E+03 -0.26901243595E+03  0.23555319418E+03  0.57893456706E+03  0.84600919024E+02 0.  0.
          1    1    3    3  502    0  0.81675310911E+02  0.10909774575E+03 -0.43304248897E+03  0.45398124608E+03  0.00000000000E+00 0. -1.
         -2    1    3    3    0  502  0.58888826775E+02  0.33782691886E+02 -0.96916623607E+02  0.11833003051E+03  0.00000000000E+00 0.  1.
         11    1    5    5    0    0  0.11086822761E+03  0.76921204455E+02  0.67386738296E+02  0.15082973210E+03  0.00000000000E+00 0.  1.
        -11    1    5    5    0    0  0.19595440189E+03  0.49210793861E+02  0.11843215885E+02  0.20238599659E+03  0.00000000000E+00 0. -1.
          4    1    6    6  503    0 -0.41989844257E+03 -0.26387598761E+03  0.20260268273E+03  0.53571735641E+03  0.00000000000E+00 0.  1.
         -4    1    6    6    0  503 -0.27488324617E+02 -0.51364483438E+01  0.32950511448E+02  0.43217210652E+02  0.00000000000E+00 0. -1.
<mgrwt>
<rscale>  0 0.14889943E+04</rscale>
<asrwt>0</asrwt>
<pdfrwt beam="1">  1        1 0.13227981E+00 0.14889943E+04</pdfrwt>
<pdfrwt beam="2">  1       -2 0.99175816E-01 0.14889943E+04</pdfrwt>
<totfact> 0.14043035E+01</totfact>
</mgrwt>
</event>
<event>
12    4  0.4320235E-008  0.1746869E+04  0.7818608E-02  0.8735076E-01
         -2   -1    0    0    0  501 -0.00000000000E+00  0.00000000000E+00  0.97999847252E+03  0.97999847252E+03  0.00000000000E+00 0.  1.
          1   -1    0    0  501    0  0.00000000000E+00 -0.00000000000E+00 -0.77845805294E+03  0.77845805294E+03  0.00000000000E+00 0. -1.
        -24    2    1    2    0    0  0.22921480390E+03 -0.45833064068E+03  0.46047982228E+03  0.69372535959E+03  0.81282256925E+02 0.  0.
        254    2    1    2    0    0 -0.22921480390E+03  0.45833064068E+03 -0.25893940271E+03  0.10647311659E+04  0.89665848504E+03 0.  0.
         23    2    4    4    0    0 -0.17784784290E+03  0.69449595615E+03 -0.33616932767E+03  0.79693470953E+03  0.90225418015E+02 0.  0.
         23    2    4    4    0    0 -0.51366961007E+02 -0.23616531547E+03  0.77229924961E+02  0.26779645634E+03  0.85661308675E+02 0.  0.
          1    1    3    3  502    0  0.30786624643E+01 -0.61328596096E+02  0.44487945896E+02  0.75827779815E+02  0.00000000000E+00 0. -1.
         -2    1    3    3    0  502  0.22613614144E+03 -0.39700204459E+03  0.41599187638E+03  0.61789757977E+03  0.00000000000E+00 0.  1.
         11    1    5    5    0    0 -0.11099392007E+03  0.32500033427E+03 -0.20054551048E+03  0.39769758528E+03  0.00000000000E+00 0.  1.
        -11    1    5    5    0    0 -0.66853922827E+02  0.36949562189E+03 -0.13562381719E+03  0.39923712425E+03  0.00000000000E+00 0. -1.
          1    1    6    6  503    0 -0.62569667758E+02 -0.12448140538E+03  0.16835011093E+02  0.14033531704E+03  0.00000000000E+00 0. -1.
         -1    1    6    6    0  503  0.11202706751E+02 -0.11168391009E+03  0.60394913868E+02  0.12746113930E+03  0.00000000000E+00 0.  1.
<mgrwt>
<rscale>  0 0.17468689E+04</rscale>
<asrwt>0</asrwt>
<pdfrwt beam="1">  1        1 0.11976278E+00 0.17468689E+04</pdfrwt>
<pdfrwt beam="2">  1       -2 0.15076899E+00 0.17468689E+04</pdfrwt>
<totfact> 0.56656660E+00</totfact>
</mgrwt>
</event>
<event>
12    4  0.4320235E-008  0.1290193E+04  0.7818608E-02  0.9037379E-01
         -2   -1    0    0    0  501 -0.00000000000E+00  0.00000000000E+00  0.42785918669E+03  0.42785918669E+03  0.00000000000E+00 0.  1.
          1   -1    0    0  501    0  0.00000000000E+00 -0.00000000000E+00 -0.97263143652E+03  0.97263143652E+03  0.00000000000E+00 0. -1.
        -24    2    1    2    0    0  0.35086596336E+03 -0.14614283299E+03 -0.28729046140E+02  0.38930515008E+03  0.79173795589E+02 0.  0.
        254    2    1    2    0    0 -0.35086596336E+03  0.14614283299E+03 -0.51604320369E+03  0.10111854731E+04  0.78213222739E+03 0.  0.
         23    2    4    4    0    0 -0.26931738134E+03  0.39606790438E+03 -0.80871766832E+02  0.49393095944E+03  0.89587461445E+02 0.  0.
         23    2    4    4    0    0 -0.81548582013E+02 -0.24992507139E+03 -0.43517143686E+03  0.51725451369E+03  0.95212078730E+02 0.  0.
          1    1    3    3  502    0  0.69504640272E+00 -0.13726394672E+02 -0.28810756264E+01  0.14042706184E+02  0.00000000000E+00 0. -1.
         -2    1    3    3    0  502  0.35017091695E+03 -0.13241643832E+03 -0.25847970514E+02  0.37526244389E+03  0.00000000000E+00 0.  1.
         11    1    5    5    0    0 -0.15587270775E+03  0.29636535822E+03 -0.72838526316E+02  0.34268670457E+03  0.00000000000E+00 0. -1.
        -11    1    5    5    0    0 -0.11344467359E+03  0.99702546162E+02 -0.80332405153E+01  0.15124425487E+03  0.00000000000E+00 0.  1.
          4    1    6    6  503    0 -0.83304399774E+02 -0.20491427620E+03 -0.40945731282E+03  0.46538669366E+03  0.00000000000E+00 0. -1.
         -4    1    6    6    0  503  0.17558177610E+01 -0.45010795192E+02 -0.25714124041E+02  0.51867820033E+02  0.00000000000E+00 0.  1.
<mgrwt>
<rscale>  0 0.12901927E+04</rscale>
<asrwt>0</asrwt>
<pdfrwt beam="1">  1        1 0.14963560E+00 0.12901927E+04</pdfrwt>
<pdfrwt beam="2">  1       -2 0.65824491E-01 0.12901927E+04</pdfrwt>
<totfact> 0.29121386E+01</totfact>
</mgrwt>
</event>
<event>
12    4  0.4320235E-008  0.1270487E+04  0.7818608E-02  0.9053302E-01
         -4   -1    0    0    0  501 -0.00000000000E+00  0.00000000000E+00  0.39361444092E+03  0.39361444092E+03  0.00000000000E+00 0.  1.
          3   -1    0    0  501    0  0.00000000000E+00 -0.00000000000E+00 -0.10252021164E+04  0.10252021164E+04  0.00000000000E+00 0. -1.
        -24    2    1    2    0    0 -0.11948986929E+03 -0.12752447840E+03 -0.45011273796E+03  0.48835036604E+03  0.73104594143E+02 0.  0.
        254    2    1    2    0    0  0.11948986929E+03  0.12752447840E+03 -0.18147493749E+03  0.93046619125E+03  0.89570857910E+03 0.  0.
         23    2    4    4    0    0  0.13878972914E+03 -0.29994260759E+03 -0.32101423261E+03  0.46996979365E+03  0.92700122107E+02 0.  0.
         23    2    4    4    0    0 -0.19299859850E+02  0.42746708598E+03  0.13953929513E+03  0.46049639760E+03  0.97391596806E+02 0.  0.
          3    1    3    3  502    0 -0.85501609040E+02 -0.37804678043E+02 -0.22372081078E+03  0.24246797728E+03  0.00000000000E+00 0. -1.
         -4    1    3    3    0  502 -0.33988260254E+02 -0.89719800355E+02 -0.22639192718E+03  0.24588238876E+03  0.00000000000E+00 0.  1.
         11    1    5    5    0    0  0.81654685577E+02 -0.26037679307E+03 -0.24186912988E+03  0.36464261686E+03  0.00000000000E+00 0. -1.
        -11    1    5    5    0    0  0.57135043567E+02 -0.39565814515E+02 -0.79145102737E+02  0.10532717678E+03  0.00000000000E+00 0.  1.
          3    1    6    6  503    0  0.92463271805E+01  0.33272695730E+03  0.71597643269E+02  0.34046871398E+03  0.00000000000E+00 0. -1.
         -3    1    6    6    0  503 -0.28546187030E+02  0.94740128685E+02  0.67941651859E+02  0.12002768362E+03  0.00000000000E+00 0.  1.
<mgrwt>
<rscale>  0 0.12704871E+04</rscale>
<asrwt>0</asrwt>
<pdfrwt beam="1">  1        3 0.15772340E+00 0.12704871E+04</pdfrwt>
<pdfrwt beam="2">  1       -4 0.60556068E-01 0.12704871E+04</pdfrwt>
<totfact> 0.16404701E+00</totfact>
</mgrwt>
</event>
<event>
12    4  0.4320235E-008  0.2098294E+04  0.7818608E-02  0.8561995E-01
         -2   -1    0    0    0  501 -0.00000000000E+00  0.00000000000E+00  0.53018926806E+03  0.53018926806E+03  0.00000000000E+00 0.  1.
          1   -1    0    0  501    0  0.00000000000E+00 -0.00000000000E+00 -0.20760693948E+04  0.20760693948E+04  0.00000000000E+00 0. -1.
        -24    2    1    2    0    0 -0.32144707637E+03  0.27486208441E+03  0.29248348568E+03  0.51977380947E+03  0.75768299843E+02 0.  0.
        254    2    1    2    0    0  0.32144707637E+03 -0.27486208441E+03 -0.18383636124E+04  0.20864848534E+04  0.89160578937E+03 0.  0.
         23    2    4    4    0    0  0.51556631573E+03  0.15730565334E+02 -0.59682505700E+03  0.79378649329E+03  0.88548131832E+02 0.  0.
         23    2    4    4    0    0 -0.19411923936E+03 -0.29059264974E+03 -0.12415385554E+04  0.12926983601E+04  0.86745019948E+02 0.  0.
          1    1    3    3  502    0 -0.31242366481E+02  0.62967433904E+02  0.50810940023E+02  0.86733700612E+02  0.00000000000E+00 0. -1.
         -2    1    3    3    0  502 -0.29020470989E+03  0.21189465051E+03  0.24167254566E+03  0.43304010885E+03  0.00000000000E+00 0.  1.
         11    1    5    5    0    0  0.38666119666E+03  0.32625688367E+02 -0.39498820659E+03  0.55370298888E+03  0.00000000000E+00 0.  1.
        -11    1    5    5    0    0  0.12890511908E+03 -0.16895123033E+02 -0.20183685041E+03  0.24008350441E+03  0.00000000000E+00 0. -1.
          3    1    6    6  503    0 -0.14310026302E+03 -0.13916053724E+03 -0.65018577348E+03  0.68013592791E+03  0.00000000000E+00 0. -1.
         -3    1    6    6    0  503 -0.51018976346E+02 -0.15143211250E+03 -0.59135278190E+03  0.61256243217E+03  0.00000000000E+00 0.  1.
<mgrwt>
<rscale>  0 0.20982943E+04</rscale>
<asrwt>0</asrwt>
<pdfrwt beam="1">  1        1 0.31939529E+00 0.20982943E+04</pdfrwt>
<pdfrwt beam="2">  1       -2 0.81567579E-01 0.20982943E+04</pdfrwt>
<totfact> 0.28281465E+00</totfact>
</mgrwt>
</event>
<event>
12    4  0.4320235E-008  0.1707234E+04  0.7818608E-02  0.8757249E-01
         -2   -1    0    0    0  501 -0.00000000000E+00  0.00000000000E+00  0.46081022903E+03  0.46081022903E+03  0.00000000000E+00 0.  1.
          1   -1    0    0  501    0  0.00000000000E+00 -0.00000000000E+00 -0.15812620290E+04  0.15812620290E+04  0.00000000000E+00 0. -1.
        -24    2    1    2    0    0 -0.17549719451E+03  0.55318422762E+03 -0.58516784263E+03  0.82793579030E+03  0.79020338145E+02 0.  0.
        254    2    1    2    0    0  0.17549719451E+03 -0.55318422762E+03 -0.53528395735E+03  0.12141364677E+04  0.92238082826E+03 0.  0.
         23    2    4    4    0    0  0.10371204079E+03 -0.79891970105E+02  0.24459590278E+03  0.29440109390E+03  0.98518699446E+02 0.  0.
         23    2    4    4    0    0  0.71785153713E+02 -0.47329225752E+03 -0.77987986013E+03  0.91973537385E+03  0.92422358539E+02 0.  0.
          3    1    3    3  502    0 -0.14487442693E+03  0.47132205474E+03 -0.45364592973E+03  0.67002067761E+03  0.00000000000E+00 0. -1.
         -4    1    3    3    0  502 -0.30622767579E+02  0.81862172884E+02 -0.13152191291E+03  0.15791511270E+03  0.00000000000E+00 0.  1.
         11    1    5    5    0    0  0.29855564012E+02 -0.10430818684E+02  0.22545383133E+01  0.31705514093E+02  0.00000000000E+00 0. -1.
        -11    1    5    5    0    0  0.73856476782E+02 -0.69461151421E+02  0.24234136446E+03  0.26269557980E+03  0.00000000000E+00 0.  1.
          3    1    6    6  503    0  0.38964353120E+02 -0.62757405916E+02 -0.91942880702E+02  0.11794153689E+03  0.00000000000E+00 0. -1.
         -3    1    6    6    0  503  0.32820800594E+02 -0.41053485160E+03 -0.68793697942E+03  0.80179383696E+03  0.00000000000E+00 0.  1.
<mgrwt>
<rscale>  0 0.17072337E+04</rscale>
<asrwt>0</asrwt>
<pdfrwt beam="1">  1        1 0.24327107E+00 0.17072337E+04</pdfrwt>
<pdfrwt beam="2">  1       -2 0.70893884E-01 0.17072337E+04</pdfrwt>
<totfact> 0.86740995E+00</totfact>
</mgrwt>
</event>
<event>
12    4  0.4320235E-008  0.1090591E+04  0.7818608E-02  0.9214411E-01
         -2   -1    0    0    0  501 -0.00000000000E+00  0.00000000000E+00  0.70290249115E+02  0.70290249115E+02  0.00000000000E+00 0.  1.
          1   -1    0    0  501    0  0.00000000000E+00 -0.00000000000E+00 -0.42302784046E+04  0.42302784046E+04  0.00000000000E+00 0. -1.
        -24    2    1    2    0    0 -0.16083149689E+03  0.16531687092E+02 -0.62753492627E+03  0.65286118631E+03  0.79294248394E+02 0.  0.
        254    2    1    2    0    0  0.16083149689E+03 -0.16531687092E+02 -0.35324532292E+04  0.36477074674E+04  0.89521164209E+03 0.  0.
         23    2    4    4    0    0 -0.41287253377E+01  0.12228340540E+03 -0.33421858339E+04  0.33456679845E+04  0.91202173212E+02 0.  0.
         23    2    4    4    0    0  0.16496022222E+03 -0.13881509249E+03 -0.19026739526E+03  0.30203948288E+03  0.92437344727E+02 0.  0.
          3    1    3    3  502    0 -0.23228172651E+01  0.21156313077E+02 -0.85207454685E+02  0.87825368755E+02  0.00000000000E+00 0. -1.
         -4    1    3    3    0  502 -0.15850867962E+03 -0.46246259842E+01 -0.54232747159E+03  0.56503581756E+03  0.00000000000E+00 0.  1.
         11    1    5    5    0    0  0.89928755759E+01  0.42726710172E+02 -0.39973003936E+03  0.40210763228E+03  0.00000000000E+00 0. -1.
        -11    1    5    5    0    0 -0.13121600914E+02  0.79556695226E+02 -0.29424557946E+04  0.29435603522E+04  0.00000000000E+00 0.  1.
          2    1    6    6  503    0  0.45534607505E+02  0.40536442729E+01 -0.20664358500E+02  0.50168199337E+02  0.00000000000E+00 0. -1.
         -2    1    6    6    0  503  0.11942561472E+03 -0.14286873676E+03 -0.16960303676E+03  0.25187128354E+03  0.00000000000E+00 0.  1.
<mgrwt>
<rscale>  0 0.10905913E+04</rscale>
<asrwt>0</asrwt>
<pdfrwt beam="1">  1        1 0.65081197E+00 0.10905913E+04</pdfrwt>
<pdfrwt beam="2">  1       -2 0.10813886E-01 0.10905913E+04</pdfrwt>
<totfact> 0.33026099E+00</totfact>
</mgrwt>
</event>
<event>
12    4  0.4320235E-008  0.1167601E+04  0.7818608E-02  0.9141698E-01
         -2   -1    0    0    0  501 -0.00000000000E+00  0.00000000000E+00  0.17815049929E+03  0.17815049929E+03  0.00000000000E+00 0.  1.
          1   -1    0    0  501    0  0.00000000000E+00 -0.00000000000E+00 -0.19131191535E+04  0.19131191535E+04  0.00000000000E+00 0. -1.
        -24    2    1    2    0    0 -0.13690002068E+03 -0.15577631486E+03 -0.19411471679E+03  0.29530545721E+03  0.80727404579E+02 0.  0.
        254    2    1    2    0    0  0.13690002068E+03  0.15577631486E+03 -0.15408539375E+04  0.17959641956E+04  0.89902650652E+03 0.  0.
         23    2    4    4    0    0  0.28264252786E+03 -0.23081107047E+03 -0.11850569308E+04  0.12432377620E+04  0.90109127778E+02 0.  0.
         23    2    4    4    0    0 -0.14574250718E+03  0.38658738533E+03 -0.35579700665E+03  0.55272643357E+03  0.90688012075E+02 0.  0.
          1    1    3    3  502    0 -0.20017147652E+02 -0.78305825757E+02 -0.54874259712E+02  0.97691723941E+02  0.00000000000E+00 0. -1.
         -2    1    3    3    0  502 -0.11688287303E+03 -0.77470489103E+02 -0.13924045708E+03  0.19761373327E+03  0.00000000000E+00 0.  1.
         11    1    5    5    0    0  0.28490362250E+03 -0.23486190599E+03 -0.11486169245E+04  0.12065036379E+04  0.00000000000E+00 0.  1.
        -11    1    5    5    0    0 -0.22610946437E+01  0.40508355251E+01 -0.36440006272E+02  0.36734124116E+02  0.00000000000E+00 0. -1.
          3    1    6    6  503    0 -0.81032074882E+01  0.37911436604E+02 -0.45738391042E+01  0.39036636653E+02  0.00000000000E+00 0. -1.
         -3    1    6    6    0  503 -0.13763929969E+03  0.34867594872E+03 -0.35122316755E+03  0.51368979692E+03  0.00000000000E+00 0.  1.
<mgrwt>
<rscale>  0 0.11676012E+04</rscale>
<asrwt>0</asrwt>
<pdfrwt beam="1">  1        1 0.29432599E+00 0.11676012E+04</pdfrwt>
<pdfrwt beam="2">  1       -2 0.27407772E-01 0.11676012E+04</pdfrwt>
<totfact> 0.36098753E+01</totfact>
</mgrwt>
</event>
<event>
12    4  0.4320235E-008  0.3439878E+04  0.7818608E-02  0.8128188E-01
         -2   -1    0    0    0  501 -0.00000000000E+00  0.00000000000E+00  0.92311968761E+03  0.92311968761E+03  0.00000000000E+00 0.  1.
          1   -1    0    0  501    0  0.00000000000E+00 -0.00000000000E+00 -0.32045574836E+04  0.32045574836E+04  0.00000000000E+00 0. -1.
        -24    2    1    2    0    0 -0.27559563733E+03  0.15705078830E+04 -0.92305400389E+03  0.18456242601E+04  0.10886803740E+03 0.  0.
        254    2    1    2    0    0  0.27559563733E+03 -0.15705078830E+04 -0.13583837921E+04  0.22820529111E+04  0.90559979949E+03 0.  0.
         23    2    4    4    0    0  0.41517093868E+03 -0.48855668097E+03 -0.86743962353E+03  0.10824122205E+04  0.90056513956E+02 0.  0.
         23    2    4    4    0    0 -0.13957530135E+03 -0.10819512020E+04 -0.49094416859E+03  0.11996406907E+04  0.89509451092E+02 0.  0.
          1    1    3    3  502    0 -0.75195121763E+02  0.39422461953E+03 -0.17919766251E+03  0.43952151168E+03  0.00000000000E+00 0. -1.
         -2    1    3    3    0  502 -0.20040051557E+03  0.11762832634E+04 -0.74385634137E+03  0.14061027484E+04  0.00000000000E+00 0.  1.
         11    1    5    5    0    0  0.30479263414E+02 -0.74539051715E+01 -0.38984179581E+02  0.50043106000E+02  0.00000000000E+00 0.  1.
        -11    1    5    5    0    0  0.38469167527E+03 -0.48110277580E+03 -0.82845544395E+03  0.10323691145E+04  0.00000000000E+00 0. -1.
          4    1    6    6  503    0 -0.85871652520E+02 -0.86705668376E+03 -0.36343514686E+03  0.94405844074E+03  0.00000000000E+00 0. -1.
         -4    1    6    6    0  503 -0.53703648828E+02 -0.21489451823E+03 -0.12750902174E+03  0.25558224994E+03  0.00000000000E+00 0.  1.
<mgrwt>
<rscale>  0 0.34398780E+04</rscale>
<asrwt>0</asrwt>
<pdfrwt beam="1">  1        1 0.49300885E+00 0.34398780E+04</pdfrwt>
<pdfrwt beam="2">  1       -2 0.14201841E+00 0.34398780E+04</pdfrwt>
<totfact> 0.10526615E-01</totfact>
</mgrwt>
</event>
<event>
12    4  0.4320235E-008  0.1000753E+04  0.7818608E-02  0.9307720E-01
          1   -1    0    0  501    0  0.00000000000E+00  0.00000000000E+00  0.31332572609E+04  0.31332572609E+04  0.00000000000E+00 0. -1.
         -2   -1    0    0    0  501 -0.00000000000E+00 -0.00000000000E+00 -0.79909308319E+02  0.79909308319E+02  0.00000000000E+00 0.  1.
        -24    2    1    2    0    0 -0.61808635990E+02  0.68780208661E+01  0.19418917569E+03  0.21626238731E+03  0.72058098481E+02 0.  0.
        254    2    1    2    0    0  0.61808635990E+02 -0.68780208661E+01  0.28591587769E+04  0.29969041819E+04  0.89597887777E+03 0.  0.
         23    2    4    4    0    0 -0.30616519564E+03 -0.11783422929E+02  0.41126230415E+03  0.51983543836E+03  0.84948361281E+02 0.  0.
         23    2    4    4    0    0  0.36797383163E+03  0.49054020628E+01  0.24478964728E+04  0.24770687436E+04  0.90794356906E+02 0.  0.
          3    1    3    3  502    0  0.93236521594E+01 -0.16428586901E+02  0.56033390810E+02  0.59131800605E+02  0.00000000000E+00 0. -1.
         -4    1    3    3    0  502 -0.71132288149E+02  0.23306607767E+02  0.13815578488E+03  0.15713058670E+03  0.00000000000E+00 0.  1.
         11    1    5    5    0    0 -0.22209700943E+03  0.25939948996E+02  0.26227777294E+03  0.34465866119E+03  0.00000000000E+00 0. -1.
        -11    1    5    5    0    0 -0.84068186210E+02 -0.37723371925E+02  0.14898453120E+03  0.17517677717E+03  0.00000000000E+00 0.  1.
          4    1    6    6  503    0  0.20991274922E+03 -0.42086084128E+02  0.14032677179E+04  0.14195051563E+04  0.00000000000E+00 0. -1.
         -4    1    6    6    0  503  0.15806108241E+03  0.46991486190E+02  0.10446287549E+04  0.10575635873E+04  0.00000000000E+00 0.  1.
<mgrwt>
<rscale>  0 0.10007526E+04</rscale>
<asrwt>0</asrwt>
<pdfrwt beam="1">  1        1 0.48203948E+00 0.10007526E+04</pdfrwt>
<pdfrwt beam="2">  1       -2 0.12293742E-01 0.10007526E+04</pdfrwt>
<totfact> 0.21111127E+01</totfact>
</mgrwt>
</event>
<event>
12    4  0.4320235E-008  0.2005088E+04  0.7818608E-02  0.8604246E-01
         -2   -1    0    0    0  501 -0.00000000000E+00  0.00000000000E+00  0.13616267032E+04  0.13616267032E+04  0.00000000000E+00 0.  1.
          1   -1    0    0  501    0  0.00000000000E+00 -0.00000000000E+00 -0.73815688313E+03  0.73815688313E+03  0.00000000000E+00 0. -1.
        -24    2    1    2    0    0 -0.56474282726E+03  0.49903888886E+02  0.82829302701E+03  0.10068988839E+04  0.79694195298E+02 0.  0.
        254    2    1    2    0    0  0.56474282726E+03 -0.49903888886E+02 -0.20482320696E+03  0.10928847024E+04  0.91160274659E+03 0.  0.
         23    2    4    4    0    0 -0.15485132902E+03 -0.22224429130E+03  0.74594606181E+02  0.29660206442E+03  0.95062980338E+02 0.  0.
         23    2    4    4    0    0  0.71959415628E+03  0.17234040241E+03 -0.27941781314E+03  0.79628263799E+03  0.92058466304E+02 0.  0.
          1    1    3    3  502    0 -0.33463614562E+03  0.94682031409E+01  0.54608508491E+03  0.64053096474E+03  0.00000000000E+00 0. -1.
         -2    1    3    3    0  502 -0.23010668164E+03  0.40435685745E+02  0.28220794210E+03  0.36636791918E+03  0.00000000000E+00 0.  1.
         11    1    5    5    0    0 -0.11492632573E+03 -0.12885381202E+03  0.88615269844E+02  0.19407223209E+03  0.00000000000E+00 0.  1.
        -11    1    5    5    0    0 -0.39925003288E+02 -0.93390479280E+02 -0.14020663664E+02  0.10252983233E+03  0.00000000000E+00 0. -1.
          1    1    6    6  503    0  0.11800044998E+03 -0.56774334651E+01 -0.49779823332E+02  0.12819660782E+03  0.00000000000E+00 0. -1.
         -1    1    6    6    0  503  0.60159370630E+03  0.17801783588E+03 -0.22963798980E+03  0.66808603017E+03  0.00000000000E+00 0.  1.
<mgrwt>
<rscale>  0 0.20050877E+04</rscale>
<asrwt>0</asrwt>
<pdfrwt beam="1">  1        1 0.11356260E+00 0.20050877E+04</pdfrwt>
<pdfrwt beam="2">  1       -2 0.20948103E+00 0.20050877E+04</pdfrwt>
<totfact> 0.23522471E+00</totfact>
</mgrwt>
</event>
<event>
12    4  0.4320235E-008  0.2094853E+04  0.7818608E-02  0.8563514E-01
          1   -1    0    0  501    0  0.00000000000E+00  0.00000000000E+00  0.14495828016E+04  0.14495828016E+04  0.00000000000E+00 0. -1.
         -2   -1    0    0    0  501 -0.00000000000E+00 -0.00000000000E+00 -0.75683975660E+03  0.75683975660E+03  0.00000000000E+00 0.  1.
        -24    2    1    2    0    0  0.70429624158E+03  0.19640009128E+03 -0.18034172674E+03  0.75748034978E+03  0.81530056723E+02 0.  0.
        254    2    1    2    0    0 -0.70429624158E+03 -0.19640009128E+03  0.87308477171E+03  0.14489422084E+04  0.89585172483E+03 0.  0.
         23    2    4    4    0    0  0.11132836203E+03  0.11534011606E+03 -0.32630706706E+02  0.18776986462E+03  0.92170561857E+02 0.  0.
         23    2    4    4    0    0 -0.81562460360E+03 -0.31174020734E+03  0.90571547841E+03  0.12611723438E+04  0.88372518116E+02 0.  0.
          1    1    3    3  502    0  0.29920105548E+03  0.75252946575E+02 -0.35584195079E+02  0.31056482819E+03  0.00000000000E+00 0. -1.
         -2    1    3    3    0  502  0.40509518610E+03  0.12114714470E+03 -0.14475753166E+03  0.44691552160E+03  0.00000000000E+00 0.  1.
         11    1    5    5    0    0  0.31032414006E+01 -0.32252487725E+01  0.18702417075E+02  0.19230515887E+02  0.00000000000E+00 0.  1.
        -11    1    5    5    0    0  0.10822512063E+03  0.11856536483E+03 -0.51333123781E+02  0.16853934873E+03  0.00000000000E+00 0. -1.
          1    1    6    6  503    0 -0.79276014475E+03 -0.31479872678E+03  0.89264504444E+03  0.12346586819E+04  0.00000000000E+00 0. -1.
         -1    1    6    6    0  503 -0.22864458847E+02  0.30585194465E+01  0.13070433976E+02  0.26513661835E+02  0.00000000000E+00 0.  1.
<mgrwt>
<rscale>  0 0.20948526E+04</rscale>
<asrwt>0</asrwt>
<pdfrwt beam="1">  1        1 0.22301274E+00 0.20948526E+04</pdfrwt>
<pdfrwt beam="2">  1       -2 0.11643689E+00 0.20948526E+04</pdfrwt>
<totfact> 0.32762691E+00</totfact>
</mgrwt>
</event>
<event>
12    4  0.4320235E-008  0.2635176E+04  0.7818608E-02  0.8356350E-01
         -2   -1    0    0    0  501 -0.00000000000E+00  0.00000000000E+00  0.54588971450E+03  0.54588971450E+03  0.00000000000E+00 0.  1.
          1   -1    0    0  501    0  0.00000000000E+00 -0.00000000000E+00 -0.31801991725E+04  0.31801991725E+04  0.00000000000E+00 0. -1.
        -24    2    1    2    0    0  0.18350977904E+03  0.91049680686E+02 -0.27829613657E+04  0.27914336455E+04  0.72539303983E+02 0.  0.
        254    2    1    2    0    0 -0.18350977904E+03 -0.91049680686E+02  0.14865190773E+03  0.93465524151E+03  0.89973170860E+03 0.  0.
         23    2    4    4    0    0 -0.24663267506E+03  0.29758382995E+03 -0.15883649327E+03  0.42756877489E+03  0.90566072076E+02 0.  0.
         23    2    4    4    0    0  0.63122896023E+02 -0.38863351063E+03  0.30748840100E+03  0.50708646662E+03  0.86988863057E+02 0.  0.
          3    1    3    3  502    0  0.18843075201E+03  0.84504699615E+02 -0.25576926309E+04  0.25660161315E+04  0.00000000000E+00 0. -1.
         -4    1    3    3    0  502 -0.49209729794E+01  0.65449810716E+01 -0.22526873478E+03  0.22541751401E+03  0.00000000000E+00 0.  1.
         11    1    5    5    0    0 -0.71794394885E+02  0.11147490094E+03 -0.98521613777E+02  0.16518957915E+03  0.00000000000E+00 0. -1.
        -11    1    5    5    0    0 -0.17483828017E+03  0.18610892900E+03 -0.60314879489E+02  0.26237919574E+03  0.00000000000E+00 0.  1.
          1    1    6    6  503    0 -0.43662666792E+01 -0.20340917539E+03  0.18503921069E+03  0.27501612027E+03  0.00000000000E+00 0. -1.
         -1    1    6    6    0  503  0.67489162702E+02 -0.18522433524E+03  0.12244919031E+03  0.23207034635E+03  0.00000000000E+00 0.  1.
<mgrwt>
<rscale>  0 0.26351759E+04</rscale>
<asrwt>0</asrwt>
<pdfrwt beam="1">  1        1 0.48926140E+00 0.26351759E+04</pdfrwt>
<pdfrwt beam="2">  1       -2 0.83983035E-01 0.26351759E+04</pdfrwt>
<totfact> 0.42061434E-01</totfact>
</mgrwt>
</event>
<event>
12    4  0.4320235E-008  0.1880822E+04  0.7818608E-02  0.8664462E-01
         -2   -1    0    0    0  501 -0.00000000000E+00  0.00000000000E+00  0.54324505700E+03  0.54324505700E+03  0.00000000000E+00 0.  1.
          1   -1    0    0  501    0  0.00000000000E+00 -0.00000000000E+00 -0.16279443469E+04  0.16279443469E+04  0.00000000000E+00 0. -1.
        -24    2    1    2    0    0 -0.88942611932E+02 -0.24640691750E+03 -0.12009873216E+04  0.12317808727E+04  0.79286912336E+02 0.  0.
        254    2    1    2    0    0  0.88942611932E+02  0.24640691750E+03  0.11628803177E+03  0.93940853114E+03  0.89461630034E+03 0.  0.
         23    2    4    4    0    0  0.42285868138E+03  0.20045605005E+03  0.28101064455E+03  0.55334614912E+03  0.90735252128E+02 0.  0.
         23    2    4    4    0    0 -0.33391606945E+03  0.45950867458E+02 -0.16472261278E+03  0.38606238202E+03  0.91099945061E+02 0.  0.
          1    1    3    3  502    0 -0.74777599607E+02 -0.22394283610E+03 -0.11531012112E+04  0.11770235709E+04  0.00000000000E+00 0. -1.
         -4    1    3    3    0  502 -0.14165012324E+02 -0.22464081400E+02 -0.47886110418E+02  0.54757301780E+02  0.00000000000E+00 0.  1.
         11    1    5    5    0    0  0.50557974828E+02  0.27126500950E+02  0.73446955117E+02  0.93200917852E+02  0.00000000000E+00 0. -1.
        -11    1    5    5    0    0  0.37230070655E+03  0.17332954910E+03  0.20756368944E+03  0.46014523127E+03  0.00000000000E+00 0.  1.
          2    1    6    6  503    0 -0.18059152128E+03  0.32434659794E+02 -0.13859087691E+03  0.22994072253E+03  0.00000000000E+00 0. -1.
         -2    1    6    6    0  503 -0.15332454817E+03  0.13516207664E+02 -0.26131735866E+02  0.15612165949E+03  0.00000000000E+00 0.  1.
<mgrwt>
<rscale>  0 0.18808219E+04</rscale>
<asrwt>0</asrwt>
<pdfrwt beam="1">  1        1 0.25045298E+00 0.18808219E+04</pdfrwt>
<pdfrwt beam="2">  1       -2 0.83576163E-01 0.18808219E+04</pdfrwt>
<totfact> 0.54990398E+00</totfact>
</mgrwt>
</event>
<event>
12    4  0.4320235E-008  0.1487549E+04  0.7818608E-02  0.8892775E-01
         -2   -1    0    0    0  501 -0.00000000000E+00  0.00000000000E+00  0.15396149088E+04  0.15396149088E+04  0.00000000000E+00 0.  1.
          1   -1    0    0  501    0  0.00000000000E+00 -0.00000000000E+00 -0.35931118236E+03  0.35931118236E+03  0.00000000000E+00 0. -1.
        -24    2    1    2    0    0  0.42766710956E+03 -0.15614292847E+03  0.44423497036E+03  0.64129555832E+03  0.81458661362E+02 0.  0.
        254    2    1    2    0    0 -0.42766710956E+03  0.15614292847E+03  0.73606875603E+03  0.12576305328E+04  0.91244592866E+03 0.  0.
         23    2    4    4    0    0  0.10777999141E+03 -0.28578910462E+03  0.22063410182E+03  0.38766140705E+03  0.91159315274E+02 0.  0.
         23    2    4    4    0    0 -0.53544710098E+03  0.44193203309E+03  0.51543465421E+03  0.86996912576E+03  0.95738587800E+02 0.  0.
          3    1    3    3  502    0  0.28833668297E+02 -0.32685503483E+02  0.57871636505E+02  0.72448939793E+02  0.00000000000E+00 0. -1.
         -4    1    3    3    0  502  0.39883344127E+03 -0.12345742499E+03  0.38636333386E+03  0.56884661853E+03  0.00000000000E+00 0.  1.
         11    1    5    5    0    0  0.27614582617E+02 -0.16125348852E+03  0.15603382035E+03  0.22607920255E+03  0.00000000000E+00 0. -1.
        -11    1    5    5    0    0  0.80165408798E+02 -0.12453561609E+03  0.64600281471E+02  0.16158220450E+03  0.00000000000E+00 0.  1.
          3    1    6    6  503    0 -0.49558446065E+03  0.42304416231E+03  0.45325459521E+03  0.79373172355E+03  0.00000000000E+00 0. -1.
         -3    1    6    6    0  503 -0.39862640333E+02  0.18887870772E+02  0.62180059006E+02  0.76237402202E+02  0.00000000000E+00 0.  1.
<mgrwt>
<rscale>  0 0.14875495E+04</rscale>
<asrwt>0</asrwt>
<pdfrwt beam="1">  1        1 0.55278644E-01 0.14875495E+04</pdfrwt>
<pdfrwt beam="2">  1       -2 0.23686383E+00 0.14875495E+04</pdfrwt>
<totfact> 0.45348117E+00</totfact>
</mgrwt>
</event>
<event>
12    4  0.4320235E-008  0.2144370E+04  0.7818608E-02  0.8541946E-01
          1   -1    0    0  501    0  0.00000000000E+00  0.00000000000E+00  0.25965036320E+04  0.25965036320E+04  0.00000000000E+00 0. -1.
         -2   -1    0    0    0  501 -0.00000000000E+00 -0.00000000000E+00 -0.44274176918E+03  0.44274176918E+03  0.00000000000E+00 0.  1.
        -24    2    1    2    0    0  0.44180902524E+03 -0.22553009913E+03  0.19199965913E+04  0.19845121116E+04  0.76435399546E+02 0.  0.
        254    2    1    2    0    0 -0.44180902524E+03  0.22553009913E+03  0.23376527158E+03  0.10547332896E+04  0.90097562097E+03 0.  0.
         23    2    4    4    0    0 -0.35042461862E+03 -0.11827496371E+03  0.47973288152E+03  0.61279612358E+03  0.92677241442E+02 0.  0.
         23    2    4    4    0    0 -0.91384406618E+02  0.34380506284E+03 -0.24596760994E+03  0.44193716602E+03  0.90859025745E+02 0.  0.
          3    1    3    3  502    0  0.26597986247E+03 -0.16413206449E+03  0.10933184326E+04  0.11371146894E+04  0.00000000000E+00 0. -1.
         -4    1    3    3    0  502  0.17582916276E+03 -0.61398034641E+02  0.82667815866E+03  0.84739742219E+03  0.00000000000E+00 0.  1.
         11    1    5    5    0    0 -0.16674516215E+03 -0.88834219840E+02  0.29724168800E+03  0.35220461212E+03  0.00000000000E+00 0.  1.
        -11    1    5    5    0    0 -0.18367945647E+03 -0.29440743874E+02  0.18249119352E+03  0.26059151145E+03  0.00000000000E+00 0. -1.
          1    1    6    6  503    0 -0.23778737354E+01  0.83262918780E+02 -0.10054211502E+03  0.13056448529E+03  0.00000000000E+00 0. -1.
         -1    1    6    6    0  503 -0.89006532882E+02  0.26054214406E+03 -0.14542549492E+03  0.31137268072E+03  0.00000000000E+00 0.  1.
<mgrwt>
<rscale>  0 0.21443699E+04</rscale>
<asrwt>0</asrwt>
<pdfrwt beam="1">  1        1 0.39946209E+00 0.21443699E+04</pdfrwt>
<pdfrwt beam="2">  1       -2 0.68114120E-01 0.21443699E+04</pdfrwt>
<totfact> 0.18434863E+00</totfact>
</mgrwt>
</event>
<event>
12    4  0.4320235E-008  0.1723447E+04  0.7818608E-02  0.8748103E-01
          1   -1    0    0  501    0  0.00000000000E+00  0.00000000000E+00  0.22336909287E+04  0.22336909287E+04  0.00000000000E+00 0. -1.
         -2   -1    0    0    0  501 -0.00000000000E+00 -0.00000000000E+00 -0.33243980335E+03  0.33243980335E+03  0.00000000000E+00 0.  1.
        -24    2    1    2    0    0  0.56192100664E+03 -0.76568078492E+02  0.30973224456E+03  0.65106007870E+03  0.79544166408E+02 0.  0.
        254    2    1    2    0    0 -0.56192100664E+03  0.76568078492E+02  0.15915188808E+04  0.19150706533E+04  0.90163483246E+03 0.  0.
         23    2    4    4    0    0 -0.68607903920E+03  0.11206972170E+03  0.16081481665E+04  0.17542931593E+04  0.90221354186E+02 0.  0.
         23    2    4    4    0    0  0.12415803256E+03 -0.35501643211E+02 -0.16629285790E+02  0.16077749400E+03  0.94325424524E+02 0.  0.
          1    1    3    3  502    0  0.26198021523E+02 -0.88428451340E+01  0.36760633373E+02  0.45998656587E+02  0.00000000000E+00 0. -1.
         -2    1    3    3    0  502  0.53572298511E+03 -0.67725233358E+02  0.27297161119E+03  0.60506142211E+03  0.00000000000E+00 0.  1.
         11    1    5    5    0    0 -0.19065648717E+03  0.68961943459E+02  0.42498614733E+03  0.47087033371E+03  0.00000000000E+00 0.  1.
        -11    1    5    5    0    0 -0.49542255202E+03  0.43107778244E+02  0.11831620192E+04  0.12834228256E+04  0.00000000000E+00 0. -1.
          4    1    6    6  503    0  0.72491169406E+02 -0.12130242850E+02 -0.55437760871E+02  0.92062249396E+02  0.00000000000E+00 0. -1.
         -4    1    6    6    0  503  0.51666863155E+02 -0.23371400362E+02  0.38808475082E+02  0.68715244607E+02  0.00000000000E+00 0.  1.
<mgrwt>
<rscale>  0 0.17234474E+04</rscale>
<asrwt>0</asrwt>
<pdfrwt beam="1">  1        1 0.34364475E+00 0.17234474E+04</pdfrwt>
<pdfrwt beam="2">  1       -2 0.51144586E-01 0.17234474E+04</pdfrwt>
<totfact> 0.62296133E+00</totfact>
</mgrwt>
</event>
<event>
12    4  0.4320235E-008  0.2146525E+04  0.7818608E-02  0.8541021E-01
         -2   -1    0    0    0  501 -0.00000000000E+00  0.00000000000E+00  0.39810961415E+03  0.39810961415E+03  0.00000000000E+00 0.  1.
          1   -1    0    0  501    0  0.00000000000E+00 -0.00000000000E+00 -0.28934048743E+04  0.28934048743E+04  0.00000000000E+00 0. -1.
        -24    2    1    2    0    0  0.12020190247E+03  0.25909478654E+03  0.25004155227E+03  0.38776294352E+03  0.79124691053E+02 0.  0.
        254    2    1    2    0    0 -0.12020190247E+03 -0.25909478654E+03 -0.27453368124E+04  0.29037515449E+04  0.90184267768E+03 0.  0.
         23    2    4    4    0    0 -0.42933719358E+03 -0.13251224577E+02 -0.76308452126E+03  0.88066442492E+03  0.93625968537E+02 0.  0.
         23    2    4    4    0    0  0.30913529112E+03 -0.24584356197E+03 -0.19822522912E+04  0.20230871200E+04  0.86911818415E+02 0.  0.
          1    1    3    3  502    0 -0.63044354667E+01  0.55288234659E+02  0.59048189572E+02  0.81137066067E+02  0.00000000000E+00 0. -1.
         -2    1    3    3    0  502  0.12650633793E+03  0.20380655189E+03  0.19099336270E+03  0.30662587745E+03  0.00000000000E+00 0.  1.
         11    1    5    5    0    0 -0.19229343801E+02 -0.21826683282E+02 -0.59679346781E+02  0.66391235855E+02  0.00000000000E+00 0.  1.
        -11    1    5    5    0    0 -0.41010784978E+03  0.85754587045E+01 -0.70340517448E+03  0.81427318907E+03  0.00000000000E+00 0. -1.
          1    1    6    6  503    0  0.21457742352E+03 -0.18921971554E+03 -0.12319196331E+04  0.12647029508E+04  0.00000000000E+00 0. -1.
         -1    1    6    6    0  503  0.94557867595E+02 -0.56623846428E+02 -0.75033265807E+03  0.75838416918E+03  0.00000000000E+00 0.  1.
<mgrwt>
<rscale>  0 0.21465249E+04</rscale>
<asrwt>0</asrwt>
<pdfrwt beam="1">  1        1 0.44513920E+00 0.21465249E+04</pdfrwt>
<pdfrwt beam="2">  1       -2 0.61247634E-01 0.21465249E+04</pdfrwt>
<totfact> 0.14266337E+00</totfact>
</mgrwt>
</event>
<event>
12    4  0.4320235E-008  0.1366298E+04  0.7818608E-02  0.8978582E-01
         -2   -1    0    0    0  501 -0.00000000000E+00  0.00000000000E+00  0.16043962081E+03  0.16043962081E+03  0.00000000000E+00 0.  1.
          1   -1    0    0  501    0  0.00000000000E+00 -0.00000000000E+00 -0.29088361941E+04  0.29088361941E+04  0.00000000000E+00 0. -1.
        -24    2    1    2    0    0 -0.17964346588E+03  0.82122412891E+02 -0.15972646117E+04  0.16113400913E+04  0.78401432952E+02 0.  0.
        254    2    1    2    0    0  0.17964346588E+03 -0.82122412891E+02 -0.11511319616E+04  0.14579357236E+04  0.87261441399E+03 0.  0.
         23    2    4    4    0    0  0.80516863251E+02  0.30271660550E+03 -0.11804573533E+03  0.34700688951E+03  0.91425801760E+02 0.  0.
         23    2    4    4    0    0  0.99126602628E+02 -0.38483901839E+03 -0.10330862263E+04  0.11109288341E+04  0.94702534230E+02 0.  0.
          1    1    3    3  502    0 -0.16357218517E+03  0.74884617722E+02 -0.15573605558E+04  0.15677166410E+04  0.00000000000E+00 0. -1.
         -2    1    3    3    0  502 -0.16071280713E+02  0.72377951691E+01 -0.39904055853E+02  0.43623450301E+02  0.00000000000E+00 0.  1.
         11    1    5    5    0    0  0.53368760157E+02  0.29223916216E+03 -0.10458223640E+03  0.31494348165E+03  0.00000000000E+00 0. -1.
        -11    1    5    5    0    0  0.27148103094E+02  0.10477443335E+02 -0.13463498926E+02  0.32063407863E+02  0.00000000000E+00 0.  1.
          3    1    6    6  503    0  0.10215058079E+03 -0.20872772012E+03 -0.58418118912E+03  0.62870475108E+03  0.00000000000E+00 0. -1.
         -3    1    6    6    0  503 -0.30239781608E+01 -0.17611129827E+03 -0.44890503720E+03  0.48222408302E+03  0.00000000000E+00 0.  1.
<mgrwt>
<rscale>  0 0.13662980E+04</rscale>
<asrwt>0</asrwt>
<pdfrwt beam="1">  1        1 0.44751328E+00 0.13662980E+04</pdfrwt>
<pdfrwt beam="2">  1       -2 0.24683018E-01 0.13662980E+04</pdfrwt>
<totfact> 0.88408936E+00</totfact>
</mgrwt>
</event>
<event>
12    4  0.4320235E-008  0.1965178E+04  0.7818608E-02  0.8623077E-01
          1   -1    0    0  501    0  0.00000000000E+00  0.00000000000E+00  0.14800378351E+04  0.14800378351E+04  0.00000000000E+00 0. -1.
         -2   -1    0    0    0  501 -0.00000000000E+00 -0.00000000000E+00 -0.65233520416E+03  0.65233520416E+03  0.00000000000E+00 0.  1.
        -24    2    1    2    0    0  0.12384714432E+02  0.77884737805E+03  0.33974256371E+03  0.85367877146E+03  0.81153039355E+02 0.  0.
        254    2    1    2    0    0 -0.12384714432E+02 -0.77884737805E+03  0.48796006721E+03  0.12786942678E+04  0.88893047188E+03 0.  0.
         23    2    4    4    0    0 -0.23442194110E+03 -0.64624110009E+03 -0.30067471850E+02  0.69406762837E+03  0.90799856719E+02 0.  0.
         23    2    4    4    0    0  0.22203722667E+03 -0.13260627796E+03  0.51802753906E+03  0.58462663941E+03  0.80937144164E+02 0.  0.
          1    1    3    3  502    0  0.28661918658E+02  0.29499524918E+03  0.95215975599E+02  0.31130336431E+03  0.00000000000E+00 0. -1.
         -2    1    3    3    0  502 -0.16277204226E+02  0.48385212887E+03  0.24452658811E+03  0.54237540715E+03  0.00000000000E+00 0.  1.
         11    1    5    5    0    0 -0.14152187202E+03 -0.30443466964E+03 -0.49388441622E+02  0.33933482949E+03  0.00000000000E+00 0. -1.
        -11    1    5    5    0    0 -0.92900069074E+02 -0.34180643044E+03  0.19320969772E+02  0.35473279888E+03  0.00000000000E+00 0.  1.
          4    1    6    6  503    0 -0.59210520273E+01  0.13420389641E+01  0.71100260535E+01  0.93494596728E+01  0.00000000000E+00 0.  1.
         -4    1    6    6    0  503  0.22795827869E+03 -0.13394831693E+03  0.51091751301E+03  0.57527717974E+03  0.00000000000E+00 0. -1.
<mgrwt>
<rscale>  0 0.19651776E+04</rscale>
<asrwt>0</asrwt>
<pdfrwt beam="1">  1        1 0.22769813E+00 0.19651776E+04</pdfrwt>
<pdfrwt beam="2">  1       -2 0.10035926E+00 0.19651776E+04</pdfrwt>
<totfact> 0.45171088E+00</totfact>
</mgrwt>
</event>
<event>
12    4  0.4320235E-008  0.2858696E+04  0.7818608E-02  0.8285274E-01
          1   -1    0    0  501    0  0.00000000000E+00  0.00000000000E+00  0.14860781868E+04  0.14860781868E+04  0.00000000000E+00 0. -1.
         -2   -1    0    0    0  501 -0.00000000000E+00 -0.00000000000E+00 -0.13747835218E+04  0.13747835218E+04  0.00000000000E+00 0.  1.
        -24    2    1    2    0    0  0.58110153084E+03  0.27838642884E+03 -0.10661278560E+04  0.12483602769E+04  0.81220579994E+02 0.  0.
        254    2    1    2    0    0 -0.58110153084E+03 -0.27838642884E+03  0.11774225210E+04  0.16125014317E+04  0.89367728026E+03 0.  0.
         23    2    4    4    0    0 -0.79702036997E+03 -0.31165010183E+03  0.86412901769E+03  0.12197769521E+04  0.93646129324E+02 0.  0.
         23    2    4    4    0    0  0.21591883913E+03  0.33263672994E+02  0.31329350335E+03  0.39272447959E+03  0.91390812429E+02 0.  0.
          3    1    3    3  502    0  0.18368228090E+02  0.45011255810E+01 -0.65116519616E+02  0.67807175590E+02  0.00000000000E+00 0. -1.
         -4    1    3    3    0  502  0.56273330275E+03  0.27388530326E+03 -0.10010113364E+04  0.11805531013E+04  0.00000000000E+00 0.  1.
         11    1    5    5    0    0 -0.44443559628E+03 -0.20819414259E+03  0.54119020331E+03  0.73058513290E+03  0.00000000000E+00 0. -1.
        -11    1    5    5    0    0 -0.35258477369E+03 -0.10345595924E+03  0.32293881438E+03  0.48919181920E+03  0.00000000000E+00 0.  1.
          2    1    6    6  503    0  0.73946549652E+02 -0.43454378936E+01  0.44472396580E+02  0.86398895210E+02  0.00000000000E+00 0. -1.
         -2    1    6    6    0  503  0.14197228948E+03  0.37609110888E+02  0.26882110677E+03  0.30632558438E+03  0.00000000000E+00 0.  1.
<mgrwt>
<rscale>  0 0.28586961E+04</rscale>
<asrwt>0</asrwt>
<pdfrwt beam="1">  1        1 0.22862741E+00 0.28586961E+04</pdfrwt>
<pdfrwt beam="2">  1       -2 0.21150516E+00 0.28586961E+04</pdfrwt>
<totfact> 0.56665612E-01</totfact>
</mgrwt>
</event>
<event>
12    4  0.4320235E-008  0.1208213E+04  0.7818608E-02  0.9105698E-01
          1   -1    0    0  501    0  0.00000000000E+00  0.00000000000E+00  0.85561018338E+03  0.85561018338E+03  0.00000000000E+00 0. -1.
         -2   -1    0    0    0  501 -0.00000000000E+00 -0.00000000000E+00 -0.42653167767E+03  0.42653167767E+03  0.00000000000E+00 0.  1.
        -24    2    1    2    0    0 -0.12807453068E+03  0.21337640752E+03  0.17293871894E+03  0.31334841372E+03  0.79667127336E+02 0.  0.
        254    2    1    2    0    0  0.12807453068E+03 -0.21337640752E+03  0.25613978677E+03  0.96879344732E+03  0.90056680847E+03 0.  0.
         23    2    4    4    0    0  0.29663188715E+03 -0.24001065940E+01  0.50364011368E+03  0.59150138237E+03  0.90687839625E+02 0.  0.
         23    2    4    4    0    0 -0.16855735647E+03 -0.21097630092E+03 -0.24750032691E+03  0.37729206495E+03  0.90389758761E+02 0.  0.
          1    1    3    3  502    0 -0.42282708117E+02  0.75896599138E+02  0.10839439516E+03  0.13891531978E+03  0.00000000000E+00 0. -1.
         -2    1    3    3    0  502 -0.85791822562E+02  0.13747980838E+03  0.64544323784E+02  0.17443309395E+03  0.00000000000E+00 0.  1.
         11    1    5    5    0    0  0.18986822939E+03  0.20112814467E+02  0.38845574048E+03  0.43284215616E+03  0.00000000000E+00 0.  1.
        -11    1    5    5    0    0  0.10676365775E+03 -0.22512921061E+02  0.11518437319E+03  0.15865922620E+03  0.00000000000E+00 0. -1.
          4    1    6    6  503    0 -0.10217131977E+03 -0.61138923364E+02 -0.12540351446E+03  0.17292480439E+03  0.00000000000E+00 0. -1.
         -4    1    6    6    0  503 -0.66386036700E+02 -0.14983737756E+03 -0.12209681244E+03  0.20436726057E+03  0.00000000000E+00 0.  1.
<mgrwt>
<rscale>  0 0.12082133E+04</rscale>
<asrwt>0</asrwt>
<pdfrwt beam="1">  1        1 0.13163234E+00 0.12082133E+04</pdfrwt>
<pdfrwt beam="2">  1       -2 0.65620258E-01 0.12082133E+04</pdfrwt>
<totfact> 0.36735537E+01</totfact>
</mgrwt>
</event>
<event>
12    4  0.4320235E-008  0.1561284E+04  0.7818608E-02  0.8844692E-01
          1   -1    0    0  501    0  0.00000000000E+00  0.00000000000E+00  0.98916468237E+03  0.98916468237E+03  0.00000000000E+00 0. -1.
         -2   -1    0    0    0  501 -0.00000000000E+00 -0.00000000000E+00 -0.61607704153E+03  0.61607704153E+03  0.00000000000E+00 0.  1.
        -24    2    1    2    0    0 -0.11957308469E+03  0.13396147671E+03 -0.37691398405E+03  0.42500243447E+03  0.79495396781E+02 0.  0.
        254    2    1    2    0    0  0.11957308469E+03 -0.13396147671E+03  0.75000162489E+03  0.11802392894E+04  0.89343099517E+03 0.  0.
         23    2    4    4    0    0 -0.22553474565E+03 -0.26121619935E+03  0.19667843093E+02  0.35716185328E+03  0.89877366956E+02 0.  0.
         23    2    4    4    0    0  0.34510783034E+03  0.12725472263E+03  0.73033378180E+03  0.82307743614E+03  0.93679528428E+02 0.  0.
          3    1    3    3  502    0 -0.36401404091E+02  0.48301070553E+02 -0.21799690320E+03  0.22623153061E+03  0.00000000000E+00 0. -1.
         -4    1    3    3    0  502 -0.83171680597E+02  0.85660406161E+02 -0.15891708085E+03  0.19877090386E+03  0.00000000000E+00 0.  1.
         11    1    5    5    0    0 -0.72139614639E+02 -0.28334685249E+02 -0.12708913920E+01  0.77515118225E+02  0.00000000000E+00 0. -1.
        -11    1    5    5    0    0 -0.15339513101E+03 -0.23288151410E+03  0.20938734485E+02  0.27964673506E+03  0.00000000000E+00 0.  1.
          1    1    6    6  503    0  0.11803554700E+03  0.55310060394E+02  0.17005420353E+03  0.21426624856E+03  0.00000000000E+00 0. -1.
         -1    1    6    6    0  503  0.22707228334E+03  0.71944662239E+02  0.56027957827E+03  0.60881118758E+03  0.00000000000E+00 0.  1.
<mgrwt>
<rscale>  0 0.15612836E+04</rscale>
<asrwt>0</asrwt>
<pdfrwt beam="1">  1        1 0.15217918E+00 0.15612836E+04</pdfrwt>
<pdfrwt beam="2">  1       -2 0.94781083E-01 0.15612836E+04</pdfrwt>
<totfact> 0.12200863E+01</totfact>
</mgrwt>
</event>
<event>
12    4  0.4320235E-008  0.2034506E+04  0.7818608E-02  0.8590656E-01
          1   -1    0    0  501    0  0.00000000000E+00  0.00000000000E+00  0.73009988424E+03  0.73009988424E+03  0.00000000000E+00 0. -1.
         -2   -1    0    0    0  501 -0.00000000000E+00 -0.00000000000E+00 -0.14173449945E+04  0.14173449945E+04  0.00000000000E+00 0.  1.
        -24    2    1    2    0    0 -0.32851141155E+03  0.73398483442E+03 -0.38152982152E+03  0.89345767905E+03  0.77769755466E+02 0.  0.
        254    2    1    2    0    0  0.32851141155E+03 -0.73398483442E+03 -0.30571528872E+03  0.12539871997E+04  0.91234235597E+03 0.  0.
         23    2    4    4    0    0  0.52567636523E+03 -0.68570963594E+03 -0.46059153056E+03  0.98344829396E+03  0.92155537467E+02 0.  0.
         23    2    4    4    0    0 -0.19716495367E+03 -0.48275198488E+02  0.15487624184E+03  0.27053890571E+03  0.89443476396E+02 0.  0.
          1    1    3    3  502    0 -0.40129957950E+02  0.14378344803E+03 -0.48410628048E+02  0.15693209475E+03  0.00000000000E+00 0. -1.
         -2    1    3    3    0  502 -0.28838145360E+03  0.59020138639E+03 -0.33311919347E+03  0.73652558431E+03  0.00000000000E+00 0.  1.
         11    1    5    5    0    0  0.73193669028E+02 -0.54656353702E+02 -0.33973296907E+02  0.97461864791E+02  0.00000000000E+00 0. -1.
        -11    1    5    5    0    0  0.45248269620E+03 -0.63105328223E+03 -0.42661823366E+03  0.88598642917E+03  0.00000000000E+00 0.  1.
          3    1    6    6  503    0 -0.10176868558E+03 -0.48487737973E+01  0.12556879500E+03  0.16170311763E+03  0.00000000000E+00 0. -1.
         -3    1    6    6    0  503 -0.95396268090E+02 -0.43426424691E+02  0.29307446839E+02  0.10883578808E+03  0.00000000000E+00 0.  1.
<mgrwt>
<rscale>  0 0.20345058E+04</rscale>
<asrwt>0</asrwt>
<pdfrwt beam="1">  1        1 0.11232306E+00 0.20345058E+04</pdfrwt>
<pdfrwt beam="2">  1       -2 0.21805307E+00 0.20345058E+04</pdfrwt>
<totfact> 0.21032638E+00</totfact>
</mgrwt>
</event>
<event>
12    4  0.4320235E-008  0.3422189E+04  0.7818608E-02  0.8132482E-01
         -2   -1    0    0    0  501 -0.00000000000E+00  0.00000000000E+00  0.94246882298E+03  0.94246882298E+03  0.00000000000E+00 0.  1.
          1   -1    0    0  501    0  0.00000000000E+00 -0.00000000000E+00 -0.31065685651E+04  0.31065685651E+04  0.00000000000E+00 0. -1.
        -24    2    1    2    0    0  0.28873017971E+03  0.12973095177E+04 -0.20431458283E+04  0.24386285105E+04  0.78019452609E+02 0.  0.
        254    2    1    2    0    0 -0.28873017971E+03 -0.12973095177E+04 -0.12095391381E+03  0.16104088776E+04  0.90133778491E+03 0.  0.
         23    2    4    4    0    0 -0.60627419719E+03 -0.89789928969E+03 -0.10084392764E+03  0.10915955386E+04  0.87291383223E+02 0.  0.
         23    2    4    4    0    0  0.31754401749E+03 -0.39941022799E+03 -0.20109986170E+02  0.51881333900E+03  0.91652255349E+02 0.  0.
          1    1    3    3  502    0  0.28090283062E+03  0.12122611271E+04 -0.18808964058E+04  0.22552726509E+04  0.00000000000E+00 0. -1.
         -2    1    3    3    0  502  0.78273490812E+01  0.85048390595E+02 -0.16224942254E+03  0.18335585960E+03  0.00000000000E+00 0.  1.
         11    1    5    5    0    0 -0.57748180258E+03 -0.87999917575E+03 -0.92095312597E+02  0.10565819080E+04  0.00000000000E+00 0. -1.
        -11    1    5    5    0    0 -0.28792394609E+02 -0.17900113938E+02 -0.87486150460E+01  0.35013630654E+02  0.00000000000E+00 0.  1.
          1    1    6    6  503    0  0.27422291419E+03 -0.30588262318E+03 -0.43547931123E+02  0.41310871225E+03  0.00000000000E+00 0. -1.
         -1    1    6    6    0  503  0.43321103301E+02 -0.93527604807E+02  0.23437944952E+02  0.10570462675E+03  0.00000000000E+00 0.  1.
<mgrwt>
<rscale>  0 0.34221888E+04</rscale>
<asrwt>0</asrwt>
<pdfrwt beam="1">  1        1 0.47793363E+00 0.34221888E+04</pdfrwt>
<pdfrwt beam="2">  1       -2 0.14499520E+00 0.34221888E+04</pdfrwt>
<totfact> 0.11815092E-01</totfact>
</mgrwt>
</event>
<event>
12    4  0.4320235E-008  0.1204195E+04  0.7818608E-02  0.9109193E-01
         -2   -1    0    0    0  501 -0.00000000000E+00  0.00000000000E+00  0.19825138301E+03  0.19825138301E+03  0.00000000000E+00 0.  1.
          1   -1    0    0  501    0  0.00000000000E+00 -0.00000000000E+00 -0.18285935507E+04  0.18285935507E+04  0.00000000000E+00 0. -1.
        -24    2    1    2    0    0  0.22481449095E+03 -0.15745464012E+02 -0.16684942680E+03  0.29220121318E+03  0.82178724637E+02 0.  0.
        254    2    1    2    0    0 -0.22481449095E+03  0.15745464012E+02 -0.14634927409E+04  0.17346437205E+04  0.90354211830E+03 0.  0.
         23    2    4    4    0    0  0.79381339410E+02  0.37126827517E+03 -0.35175535589E+03  0.52529824185E+03  0.89804695293E+02 0.  0.
         23    2    4    4    0    0 -0.30419583036E+03 -0.35552281116E+03 -0.11117373850E+04  0.12093454786E+04  0.87320679853E+02 0.  0.
          1    1    3    3  502    0  0.77777430640E+01 -0.19800906551E+02 -0.25290471096E+02  0.33048103057E+02  0.00000000000E+00 0. -1.
         -2    1    3    3    0  502  0.21703674788E+03  0.40554425391E+01 -0.14155895570E+03  0.25915311012E+03  0.00000000000E+00 0.  1.
         11    1    5    5    0    0  0.79236764653E+02  0.29894795237E+03 -0.32378983717E+03  0.44775908897E+03  0.00000000000E+00 0. -1.
        -11    1    5    5    0    0  0.14457475692E+00  0.72320322803E+02 -0.27965518718E+02  0.77539152880E+02  0.00000000000E+00 0.  1.
          3    1    6    6  503    0 -0.28426792393E+03 -0.35374094420E+03 -0.10364653906E+04  0.11314598597E+04  0.00000000000E+00 0. -1.
         -3    1    6    6    0  503 -0.19927906427E+02 -0.17818669572E+01 -0.75271994338E+02  0.77885618930E+02  0.00000000000E+00 0.  1.
<mgrwt>
<rscale>  0 0.12041947E+04</rscale>
<asrwt>0</asrwt>
<pdfrwt beam="1">  1        1 0.28132208E+00 0.12041947E+04</pdfrwt>
<pdfrwt beam="2">  1       -2 0.30500213E-01 0.12041947E+04</pdfrwt>
<totfact> 0.33668242E+01</totfact>
</mgrwt>
</event>
<event>
12    4  0.4320235E-008  0.1963854E+04  0.7818608E-02  0.8623709E-01
         -2   -1    0    0    0  501 -0.00000000000E+00  0.00000000000E+00  0.10511962235E+04  0.10511962235E+04  0.00000000000E+00 0.  1.
          1   -1    0    0  501    0  0.00000000000E+00 -0.00000000000E+00 -0.91722273798E+03  0.91722273798E+03  0.00000000000E+00 0. -1.
        -24    2    1    2    0    0 -0.10736084008E+03 -0.72111129778E+03  0.21298773248E+03  0.76364551879E+03  0.79138172855E+02 0.  0.
        254    2    1    2    0    0  0.10736084008E+03  0.72111129778E+03 -0.79014246930E+02  0.12047734427E+04  0.95588071605E+03 0.  0.
         23    2    4    4    0    0  0.14650570761E+03 -0.20622398281E+03 -0.34615290499E+02  0.27099564451E+03  0.90819422821E+02 0.  0.
         23    2    4    4    0    0 -0.39144867529E+02  0.92733528059E+03 -0.44398956430E+02  0.93377779822E+03  0.92123101504E+02 0.  0.
          3    1    3    3  502    0  0.37842539247E+00 -0.19505120458E+03  0.77117864926E+02  0.20974336868E+03  0.00000000000E+00 0. -1.
         -4    1    3    3    0  502 -0.10773926547E+03 -0.52606009320E+03  0.13586986756E+03  0.55390215011E+03  0.00000000000E+00 0.  1.
         11    1    5    5    0    0  0.12168905993E+03 -0.10787847813E+03 -0.45810228962E+02  0.16895138481E+03  0.00000000000E+00 0. -1.
        -11    1    5    5    0    0  0.24816647681E+02 -0.98345504675E+02  0.11194938463E+02  0.10204425971E+03  0.00000000000E+00 0.  1.
          3    1    6    6  503    0  0.21819098737E+02  0.55461607797E+03 -0.27840439735E+02  0.55574288758E+03  0.00000000000E+00 0.  1.
         -3    1    6    6    0  503 -0.60963966266E+02  0.37271920263E+03 -0.16558516695E+02  0.37803491064E+03  0.00000000000E+00 0. -1.
<mgrwt>
<rscale>  0 0.19638545E+04</rscale>
<asrwt>0</asrwt>
<pdfrwt beam="1">  1        1 0.14111119E+00 0.19638545E+04</pdfrwt>
<pdfrwt beam="2">  1       -2 0.16172250E+00 0.19638545E+04</pdfrwt>
<totfact> 0.35137271E+00</totfact>
</mgrwt>
</event>
<event>
12    4  0.4320235E-008  0.1582879E+04  0.7818608E-02  0.8831136E-01
          1   -1    0    0  501    0  0.00000000000E+00  0.00000000000E+00  0.92469835317E+03  0.92469835317E+03  0.00000000000E+00 0. -1.
         -2   -1    0    0    0  501 -0.00000000000E+00 -0.00000000000E+00 -0.67738432282E+03  0.67738432282E+03  0.00000000000E+00 0.  1.
        -24    2    1    2    0    0  0.27824295500E+03 -0.35363136784E+03  0.36892921893E+03  0.58714716367E+03  0.78477620380E+02 0.  0.
        254    2    1    2    0    0 -0.27824295500E+03  0.35363136784E+03 -0.12161518857E+03  0.10149355123E+04  0.90157060387E+03 0.  0.
         23    2    4    4    0    0 -0.47842135322E+03 -0.83423138514E+02  0.48254784341E+02  0.49687205148E+03  0.93310771445E+02 0.  0.
         23    2    4    4    0    0  0.20017839822E+03  0.43705450635E+03 -0.16986997291E+03  0.51806346085E+03  0.91901627489E+02 0.  0.
          1    1    3    3  502    0  0.24388726736E+03 -0.31335099359E+03  0.35444376742E+03  0.53225955005E+03  0.00000000000E+00 0. -1.
         -2    1    3    3    0  502  0.34355687641E+02 -0.40280374249E+02  0.14485451510E+02  0.54887613615E+02  0.00000000000E+00 0.  1.
         11    1    5    5    0    0 -0.25534633942E+03 -0.91377400234E+02  0.21431984082E+02  0.27204946659E+03  0.00000000000E+00 0. -1.
        -11    1    5    5    0    0 -0.22307501380E+03  0.79542617194E+01  0.26822800258E+02  0.22482258489E+03  0.00000000000E+00 0.  1.
          1    1    6    6  503    0  0.13055380866E+02  0.10434925938E+03 -0.58945658892E+02  0.12055621761E+03  0.00000000000E+00 0. -1.
         -1    1    6    6    0  503  0.18712301736E+03  0.33270524697E+03 -0.11092431402E+03  0.39750724324E+03  0.00000000000E+00 0.  1.
<mgrwt>
<rscale>  0 0.15828786E+04</rscale>
<asrwt>0</asrwt>
<pdfrwt beam="1">  1        1 0.14226129E+00 0.15828786E+04</pdfrwt>
<pdfrwt beam="2">  1       -2 0.10421297E+00 0.15828786E+04</pdfrwt>
<totfact> 0.10949708E+01</totfact>
</mgrwt>
</event>
<event>
12    4  0.4320235E-008  0.2013354E+04  0.7818608E-02  0.8600403E-01
          1   -1    0    0  501    0  0.00000000000E+00  0.00000000000E+00  0.13596542232E+04  0.13596542232E+04  0.00000000000E+00 0. -1.
         -2   -1    0    0    0  501 -0.00000000000E+00 -0.00000000000E+00 -0.74533541404E+03  0.74533541404E+03  0.00000000000E+00 0.  1.
        -24    2    1    2    0    0 -0.50058250126E+02 -0.76677624221E+03  0.49561172576E+03  0.91784072120E+03  0.79680441502E+02 0.  0.
        254    2    1    2    0    0  0.50058250126E+02  0.76677624221E+03  0.11870708338E+03  0.11871489160E+04  0.89709505803E+03 0.  0.
         23    2    4    4    0    0 -0.12338869662E+03  0.13686042535E+03 -0.33056425774E+03  0.38859035501E+03  0.88171361752E+02 0.  0.
         23    2    4    4    0    0  0.17344694674E+03  0.62991581687E+03  0.44927134111E+03  0.79855856102E+03  0.94727280954E+02 0.  0.
          3    1    3    3  502    0 -0.39010530158E+01 -0.20854243617E+03  0.95051036785E+02  0.22921576188E+03  0.00000000000E+00 0. -1.
         -4    1    3    3    0  502 -0.46157197111E+02 -0.55823380604E+03  0.40056068898E+03  0.68862495932E+03  0.00000000000E+00 0.  1.
         11    1    5    5    0    0 -0.60605228586E+01  0.19665834865E+02 -0.21605250346E+01  0.20691613439E+02  0.00000000000E+00 0.  1.
        -11    1    5    5    0    0 -0.11732817376E+03  0.11719459048E+03 -0.32840373270E+03  0.36789874157E+03  0.00000000000E+00 0. -1.
          4    1    6    6  503    0  0.14135114339E+03  0.58471243593E+03  0.38750885290E+03  0.71556403595E+03  0.00000000000E+00 0. -1.
         -4    1    6    6    0  503  0.32095803356E+02  0.45203380937E+02  0.61762488214E+02  0.82994525070E+02  0.00000000000E+00 0.  1.
<mgrwt>
<rscale>  0 0.20133539E+04</rscale>
<asrwt>0</asrwt>
<pdfrwt beam="1">  1        1 0.20917757E+00 0.20133539E+04</pdfrwt>
<pdfrwt beam="2">  1       -2 0.11466699E+00 0.20133539E+04</pdfrwt>
<totfact> 0.39610486E+00</totfact>
</mgrwt>
</event>
<event>
12    4  0.5479077E-008  0.1380034E+04  0.7818608E-02  0.8968399E-01
         -2   -1    0    0    0  501 -0.00000000000E+00  0.00000000000E+00  0.30319725339E+03  0.30319725339E+03  0.00000000000E+00 0.  1.
          1   -1    0    0  501    0  0.00000000000E+00 -0.00000000000E+00 -0.15703413821E+04  0.15703413821E+04  0.00000000000E+00 0. -1.
        -24    2    1    2    0    0 -0.16242865414E+03  0.72581606238E+02 -0.85645952186E+03  0.87841621490E+03  0.80255696099E+02 0.  0.
        254    2    1    2    0    0  0.16242865414E+03 -0.72581606238E+02 -0.41068460686E+03  0.99512242061E+03  0.88879448042E+03 0.  0.
         23    2    4    4    0    0 -0.10585119219E+03 -0.35462610793E+03  0.50117955306E+02  0.38460099245E+03  0.91880153667E+02 0.  0.
         23    2    4    4    0    0  0.26827984633E+03  0.28204450169E+03 -0.46080256217E+03  0.61052142816E+03  0.94203163754E+02 0.  0.
          1    1    3    3  502    0 -0.14593912832E+03  0.69712311912E+02 -0.83813948242E+03  0.85360167971E+03  0.00000000000E+00 0. -1.
         -2    1    3    3    0  502 -0.16489525816E+02  0.28692943257E+01 -0.18320039444E+02  0.24814535192E+02  0.00000000000E+00 0.  1.
         11    1    5    5    0    0  0.75962970064E+01 -0.17207735035E+02  0.19834967296E+02  0.27335614149E+02  0.00000000000E+00 0.  1.
        -11    1    5    5    0    0 -0.11344748920E+03 -0.33741837289E+03  0.30282988010E+02  0.35726537830E+03  0.00000000000E+00 0. -1.
          4    1    6    6  503    0  0.20865880422E+03  0.25808999482E+03 -0.34928993107E+03  0.48182195669E+03  0.00000000000E+00 0. -1.
         -4    1    6    6    0  503  0.59621042110E+02  0.23954506871E+02 -0.11151263109E+03  0.12869947146E+03  0.00000000000E+00 0.  1.
<mgrwt>
<rscale>  0 0.13800336E+04</rscale>
<asrwt>0</asrwt>
<pdfrwt beam="1">  1        1 0.24159098E+00 0.13800336E+04</pdfrwt>
<pdfrwt beam="2">  1       -2 0.46645731E-01 0.13800336E+04</pdfrwt>
<totfact> 0.21838441E+01</totfact>
</mgrwt>
</event>
<event>
12    4  0.4320235E-008  0.3179160E+04  0.7818608E-02  0.8194343E-01
         -2   -1    0    0    0  501 -0.00000000000E+00  0.00000000000E+00  0.31730857447E+04  0.31730857447E+04  0.00000000000E+00 0.  1.
          1   -1    0    0  501    0  0.00000000000E+00 -0.00000000000E+00 -0.79631151280E+03  0.79631151280E+03  0.00000000000E+00 0. -1.
        -24    2    1    2    0    0 -0.60692084669E+03  0.10696880571E+04  0.20941893626E+04  0.24299442188E+04  0.80089738835E+02 0.  0.
        254    2    1    2    0    0  0.60692084669E+03 -0.10696880571E+04  0.28258486924E+03  0.15394530387E+04  0.88174599313E+03 0.  0.
         23    2    4    4    0    0  0.68263558939E+03 -0.73444578000E+03 -0.10649684175E+03  0.10125882819E+04  0.92690343008E+02 0.  0.
         23    2    4    4    0    0 -0.75714742696E+02 -0.33524227706E+03  0.38908171098E+03  0.52686475677E+03  0.89898762598E+02 0.  0.
          1    1    3    3  502    0 -0.25233600108E+03  0.40692271887E+03  0.74803500847E+03  0.88815310080E+03  0.00000000000E+00 0. -1.
         -2    1    3    3    0  502 -0.35458484562E+03  0.66276533819E+03  0.13461543542E+04  0.15417911180E+04  0.00000000000E+00 0.  1.
         11    1    5    5    0    0  0.48241862137E+03 -0.56905024462E+03 -0.10106357727E+03  0.75283447968E+03  0.00000000000E+00 0.  1.
        -11    1    5    5    0    0  0.20021696802E+03 -0.16539553538E+03 -0.54332644770E+01  0.25975380223E+03  0.00000000000E+00 0. -1.
          3    1    6    6  503    0 -0.24583499368E+02 -0.34280665439E+02  0.90496499346E+02  0.99845524978E+02  0.00000000000E+00 0. -1.
         -3    1    6    6    0  503 -0.51131243328E+02 -0.30096161162E+03  0.29858521164E+03  0.42701923179E+03  0.00000000000E+00 0.  1.
<mgrwt>
<rscale>  0 0.31791601E+04</rscale>
<asrwt>0</asrwt>
<pdfrwt beam="1">  1        1 0.12250946E+00 0.31791601E+04</pdfrwt>
<pdfrwt beam="2">  1       -2 0.48816703E+00 0.31791601E+04</pdfrwt>
<totfact> 0.31992356E-02</totfact>
</mgrwt>
</event>
<event>
12    4  0.4320235E-008  0.1387458E+04  0.7818608E-02  0.8962947E-01
         -2   -1    0    0    0  501 -0.00000000000E+00  0.00000000000E+00  0.32833861582E+03  0.32833861582E+03  0.00000000000E+00 0.  1.
          1   -1    0    0  501    0  0.00000000000E+00 -0.00000000000E+00 -0.14657427752E+04  0.14657427752E+04  0.00000000000E+00 0. -1.
        -24    2    1    2    0    0  0.41862976512E+02  0.37944576638E+03 -0.48101155469E+03  0.61929287934E+03  0.80124629337E+02 0.  0.
        254    2    1    2    0    0 -0.41862976512E+02 -0.37944576638E+03 -0.65639260465E+03  0.11747885117E+04  0.89640682574E+03 0.  0.
         23    2    4    4    0    0  0.81209254132E+02  0.26336192852E+03 -0.32584835127E+03  0.43606270856E+03  0.89549368651E+02 0.  0.
         23    2    4    4    0    0 -0.12307223064E+03 -0.64280769490E+03 -0.33054425339E+03  0.73872580309E+03  0.90043334708E+02 0.  0.
          3    1    3    3  502    0  0.82260033670E+01  0.31788387182E+03 -0.41628160061E+03  0.52383985540E+03  0.00000000000E+00 0. -1.
         -4    1    3    3    0  502  0.33636973145E+02  0.61561894569E+02 -0.64729954072E+02  0.95453023941E+02  0.00000000000E+00 0.  1.
         11    1    5    5    0    0  0.66361699853E+02  0.20190862736E+03 -0.18537926628E+03  0.28202205831E+03  0.00000000000E+00 0.  1.
        -11    1    5    5    0    0  0.14847554279E+02  0.61453301156E+02 -0.14046908499E+03  0.15404065025E+03  0.00000000000E+00 0. -1.
          2    1    6    6  503    0 -0.37088414957E+01 -0.54415337486E+02 -0.25616423761E+01  0.54601707580E+02  0.00000000000E+00 0. -1.
         -2    1    6    6    0  503 -0.11936338915E+03 -0.58839235741E+03 -0.32798261101E+03  0.68412409551E+03  0.00000000000E+00 0.  1.
<mgrwt>
<rscale>  0 0.13874580E+04</rscale>
<asrwt>0</asrwt>
<pdfrwt beam="1">  1        1 0.22549890E+00 0.13874580E+04</pdfrwt>
<pdfrwt beam="2">  1       -2 0.50513632E-01 0.13874580E+04</pdfrwt>
<totfact> 0.21930720E+01</totfact>
</mgrwt>
</event>
<event>
12    4  0.4320235E-008  0.1171455E+04  0.7818608E-02  0.9138215E-01
         -4   -1    0    0    0  501 -0.00000000000E+00  0.00000000000E+00  0.19179283857E+03  0.19179283857E+03  0.00000000000E+00 0.  1.
          3   -1    0    0  501    0  0.00000000000E+00 -0.00000000000E+00 -0.17887891224E+04  0.17887891224E+04  0.00000000000E+00 0. -1.
        -24    2    1    2    0    0 -0.77869952600E+02  0.18020840159E+03 -0.12167256745E+03  0.23688288018E+03  0.52635422777E+02 0.  0.
        254    2    1    2    0    0  0.77869952600E+02 -0.18020840159E+03 -0.14753237164E+04  0.17436990808E+04  0.90849745114E+03 0.  0.
         23    2    4    4    0    0 -0.33042814446E+03 -0.30035273576E+03 -0.50247982359E+03  0.67834130304E+03  0.90919886509E+02 0.  0.
         23    2    4    4    0    0  0.40829809706E+03  0.12014433417E+03 -0.97284389279E+03  0.10653577778E+04  0.86139176851E+02 0.  0.
          1    1    3    3  502    0 -0.70263155168E+02  0.14431783291E+03 -0.74060135865E+02  0.17677514417E+03  0.00000000000E+00 0. -1.
         -4    1    3    3    0  502 -0.76067974316E+01  0.35890568675E+02 -0.47612431585E+02  0.60107736011E+02  0.00000000000E+00 0.  1.
         11    1    5    5    0    0 -0.11226114383E+03 -0.12461785054E+03 -0.12965860242E+03  0.21199888271E+03  0.00000000000E+00 0. -1.
        -11    1    5    5    0    0 -0.21816700063E+03 -0.17573488522E+03 -0.37282122117E+03  0.46634242033E+03  0.00000000000E+00 0.  1.
          4    1    6    6  503    0  0.30863583047E+03  0.12460868687E+03 -0.78547766139E+03  0.85308766093E+03  0.00000000000E+00 0. -1.
         -4    1    6    6    0  503  0.99662266591E+02 -0.44643526942E+01 -0.18736623139E+03  0.21227011682E+03  0.00000000000E+00 0.  1.
<mgrwt>
<rscale>  0 0.11714554E+04</rscale>
<asrwt>0</asrwt>
<pdfrwt beam="1">  1        3 0.27519832E+00 0.11714554E+04</pdfrwt>
<pdfrwt beam="2">  1       -4 0.29506591E-01 0.11714554E+04</pdfrwt>
<totfact> 0.13476384E+00</totfact>
</mgrwt>
</event>
<event>
12    4  0.4320235E-008  0.1278287E+04  0.7818608E-02  0.9046963E-01
         -2   -1    0    0    0  501 -0.00000000000E+00  0.00000000000E+00  0.25631881390E+03  0.25631881390E+03  0.00000000000E+00 0.  1.
          1   -1    0    0  501    0  0.00000000000E+00 -0.00000000000E+00 -0.15937358526E+04  0.15937358526E+04  0.00000000000E+00 0. -1.
        -24    2    1    2    0    0  0.52542537817E+02 -0.26966050790E+03 -0.13085614804E+03  0.31483529274E+03  0.80749131732E+02 0.  0.
        254    2    1    2    0    0 -0.52542537817E+02  0.26966050790E+03 -0.12065608907E+04  0.15352193737E+04  0.90864285330E+03 0.  0.
         23    2    4    4    0    0 -0.30798774433E+03  0.49886812990E+03 -0.74592980999E+03  0.95314184659E+03  0.91335845095E+02 0.  0.
         23    2    4    4    0    0  0.25544520652E+03 -0.22920762200E+03 -0.46063108066E+03  0.58207752714E+03  0.94047156371E+02 0.  0.
          3    1    3    3  502    0  0.45105802415E+02 -0.81858132484E+02 -0.16726859362E+02  0.94947749259E+02  0.00000000000E+00 0. -1.
         -4    1    3    3    0  502  0.74367354017E+01 -0.18780237542E+03 -0.11412928867E+03  0.21988754348E+03  0.00000000000E+00 0.  1.
         11    1    5    5    0    0 -0.26061419076E+03  0.46139595930E+03 -0.63711409014E+03  0.82868591851E+03  0.00000000000E+00 0. -1.
        -11    1    5    5    0    0 -0.47373553568E+02  0.37472170604E+02 -0.10881571985E+03  0.12445592808E+03  0.00000000000E+00 0.  1.
          4    1    6    6  503    0  0.25848442539E+03 -0.22492293164E+03 -0.46325714476E+03  0.57620456916E+03  0.00000000000E+00 0. -1.
         -4    1    6    6    0  503 -0.30392188764E+01 -0.42846903568E+01  0.26260640998E+01  0.58729579846E+01  0.00000000000E+00 0.  1.
<mgrwt>
<rscale>  0 0.12782871E+04</rscale>
<asrwt>0</asrwt>
<pdfrwt beam="1">  1        1 0.24519013E+00 0.12782871E+04</pdfrwt>
<pdfrwt beam="2">  1       -2 0.39433664E-01 0.12782871E+04</pdfrwt>
<totfact> 0.29601557E+01</totfact>
</mgrwt>
</event>
<event>
12    4  0.4320235E-008  0.1716226E+04  0.7818608E-02  0.8752164E-01
          1   -1    0    0  501    0  0.00000000000E+00  0.00000000000E+00  0.11498017165E+04  0.11498017165E+04  0.00000000000E+00 0. -1.
         -2   -1    0    0    0  501 -0.00000000000E+00 -0.00000000000E+00 -0.64042197009E+03  0.64042197009E+03  0.00000000000E+00 0.  1.
        -24    2    1    2    0    0  0.98566369004E+02 -0.62108193763E+03  0.13541186397E+03  0.64858557502E+03  0.82878060281E+02 0.  0.
        254    2    1    2    0    0 -0.98566369004E+02  0.62108193763E+03  0.37396788246E+03  0.11416381116E+04  0.87637178090E+03 0.  0.
         23    2    4    4    0    0 -0.28226489492E+03  0.64659934480E+03  0.52584574619E+03  0.88431614588E+03  0.87960863320E+02 0.  0.
         23    2    4    4    0    0  0.18369852592E+03 -0.25517407168E+02 -0.15187786373E+03  0.25732196571E+03  0.93549035541E+02 0.  0.
          1    1    3    3  502    0  0.88264098645E+01 -0.24591390766E+02 -0.10213486012E+02  0.28052759355E+02  0.00000000000E+00 0. -1.
         -2    1    3    3    0  502  0.89739959140E+02 -0.59649054687E+03  0.14562534998E+03  0.62053281567E+03  0.00000000000E+00 0.  1.
         11    1    5    5    0    0 -0.23745550011E+03  0.45558903230E+03  0.35886850903E+03  0.62668420090E+03  0.00000000000E+00 0.  1.
        -11    1    5    5    0    0 -0.44809394815E+02  0.19101031250E+03  0.16697723715E+03  0.25763194498E+03  0.00000000000E+00 0. -1.
          4    1    6    6  503    0  0.47194319369E+02  0.17821713256E+02 -0.26942132744E+01  0.50519065998E+02  0.00000000000E+00 0.  1.
         -4    1    6    6    0  503  0.13650420655E+03 -0.43339120424E+02 -0.14918365046E+03  0.20680289971E+03  0.00000000000E+00 0. -1.
<mgrwt>
<rscale>  0 0.17162264E+04</rscale>
<asrwt>0</asrwt>
<pdfrwt beam="1">  1        1 0.17689257E+00 0.17162264E+04</pdfrwt>
<pdfrwt beam="2">  1       -2 0.98526458E-01 0.17162264E+04</pdfrwt>
<totfact> 0.82970562E+00</totfact>
</mgrwt>
</event>
<event>
12    4  0.4320235E-008  0.2100558E+04  0.7818608E-02  0.8560998E-01
          3   -1    0    0  501    0  0.00000000000E+00  0.00000000000E+00  0.10037814739E+04  0.10037814739E+04  0.00000000000E+00 0. -1.
         -4   -1    0    0    0  501 -0.00000000000E+00 -0.00000000000E+00 -0.10989304006E+04  0.10989304006E+04  0.00000000000E+00 0.  1.
        -24    2    1    2    0    0 -0.86700522012E+02  0.62784532268E+03 -0.59654778320E+03  0.87407141131E+03  0.80155128954E+02 0.  0.
        254    2    1    2    0    0  0.86700522012E+02 -0.62784532268E+03  0.50139885657E+03  0.12286404632E+04  0.92544575457E+03 0.  0.
         23    2    4    4    0    0 -0.28115007458E+03 -0.31904989578E+03  0.58884539385E+03  0.73203886111E+03  0.91125166022E+02 0.  0.
         23    2    4    4    0    0  0.36785059659E+03 -0.30879542690E+03 -0.87446537280E+02  0.49660160206E+03  0.91091037979E+02 0.  0.
          3    1    3    3  502    0 -0.65870291872E+02  0.21569651987E+03 -0.19218944723E+03  0.29631177442E+03  0.00000000000E+00 0. -1.
         -4    1    3    3    0  502 -0.20830230140E+02  0.41214880281E+03 -0.40435833597E+03  0.57775963689E+03  0.00000000000E+00 0.  1.
         11    1    5    5    0    0 -0.20626000900E+03 -0.25756978439E+03  0.39018285123E+03  0.51100689089E+03  0.00000000000E+00 0. -1.
        -11    1    5    5    0    0 -0.74890065580E+02 -0.61480111394E+02  0.19866254262E+03  0.22103197022E+03  0.00000000000E+00 0.  1.
          4    1    6    6  503    0  0.15153081773E+02 -0.44927752658E+02 -0.17826301865E+02  0.50654672878E+02  0.00000000000E+00 0.  1.
         -4    1    6    6    0  503  0.35269751482E+03 -0.26386767424E+03 -0.69620235415E+02  0.44594692918E+03  0.00000000000E+00 0. -1.
<mgrwt>
<rscale>  0 0.21005580E+04</rscale>
<asrwt>0</asrwt>
<pdfrwt beam="1">  1        3 0.15442792E+00 0.21005580E+04</pdfrwt>
<pdfrwt beam="2">  1       -4 0.16906621E+00 0.21005580E+04</pdfrwt>
<totfact> 0.13571122E-01</totfact>
</mgrwt>
</event>
<event>
12    4  0.4320235E-008  0.1818140E+04  0.7818608E-02  0.8696712E-01
         -2   -1    0    0    0  501 -0.00000000000E+00  0.00000000000E+00  0.59078922199E+03  0.59078922199E+03  0.00000000000E+00 0.  1.
          1   -1    0    0  501    0  0.00000000000E+00 -0.00000000000E+00 -0.13988207280E+04  0.13988207280E+04  0.00000000000E+00 0. -1.
        -24    2    1    2    0    0 -0.13136404501E+03 -0.23677909752E+03  0.37900910821E+03  0.47230221021E+03  0.78106467830E+02 0.  0.
        254    2    1    2    0    0  0.13136404501E+03  0.23677909752E+03 -0.11870406142E+04  0.15173077398E+04  0.90544823377E+03 0.  0.
         23    2    4    4    0    0 -0.40514245402E+02 -0.27890437023E+03 -0.77423389646E+03  0.82861117457E+03  0.87916439745E+02 0.  0.
         23    2    4    4    0    0  0.17187829041E+03  0.51568346775E+03 -0.41280671773E+03  0.68869656518E+03  0.91771384799E+02 0.  0.
          1    1    3    3  502    0 -0.28151301518E+02 -0.22978521690E+02  0.97480303850E+02  0.10403325370E+03  0.00000000000E+00 0. -1.
         -2    1    3    3    0  502 -0.10321274349E+03 -0.21380057583E+03  0.28152880436E+03  0.36826895651E+03  0.00000000000E+00 0.  1.
         11    1    5    5    0    0 -0.50036237706E+02 -0.23940426920E+03 -0.72283826114E+03  0.76309447709E+03  0.00000000000E+00 0.  1.
        -11    1    5    5    0    0  0.95219923037E+01 -0.39500101028E+02 -0.51395635323E+02  0.65516697481E+02  0.00000000000E+00 0. -1.
          3    1    6    6  503    0  0.36639441698E+02  0.23147730365E+03 -0.20658067539E+03  0.31240961291E+03  0.00000000000E+00 0. -1.
         -3    1    6    6    0  503  0.13523884871E+03  0.28420616410E+03 -0.20622604234E+03  0.37628695228E+03  0.00000000000E+00 0.  1.
<mgrwt>
<rscale>  0 0.18181399E+04</rscale>
<asrwt>0</asrwt>
<pdfrwt beam="1">  1        1 0.21520319E+00 0.18181399E+04</pdfrwt>
<pdfrwt beam="2">  1       -2 0.90890650E-01 0.18181399E+04</pdfrwt>
<totfact> 0.65737478E+00</totfact>
</mgrwt>
</event>
<event>
12    4  0.4320235E-008  0.1421025E+04  0.7818608E-02  0.8938738E-01
          1   -1    0    0  501    0  0.00000000000E+00  0.00000000000E+00  0.12223230497E+04  0.12223230497E+04  0.00000000000E+00 0. -1.
         -2   -1    0    0    0  501 -0.00000000000E+00 -0.00000000000E+00 -0.41300723553E+03  0.41300723553E+03  0.00000000000E+00 0.  1.
        -24    2    1    2    0    0  0.12787488915E+03 -0.17982319157E+02  0.70177474713E+03  0.71797654737E+03  0.79543546433E+02 0.  0.
        254    2    1    2    0    0 -0.12787488915E+03  0.17982319157E+02  0.10754106704E+03  0.91735373786E+03  0.90183005505E+03 0.  0.
         23    2    4    4    0    0  0.79206568390E+01 -0.56593141953E+02 -0.38118430367E+03  0.39659304349E+03  0.93375844066E+02 0.  0.
         23    2    4    4    0    0 -0.13579554599E+03  0.74575461110E+02  0.48872537072E+03  0.52076069437E+03  0.91308724192E+02 0.  0.
          1    1    3    3  502    0  0.59749784970E+02 -0.38140359830E+02  0.47708830973E+03  0.48232559452E+03  0.00000000000E+00 0. -1.
         -2    1    3    3    0  502  0.68125104181E+02  0.20158040673E+02  0.22468643740E+03  0.23565095285E+03  0.00000000000E+00 0.  1.
         11    1    5    5    0    0 -0.25192965936E+02  0.62633171837E+01 -0.20479139035E+03  0.20643020186E+03  0.00000000000E+00 0. -1.
        -11    1    5    5    0    0  0.33113622775E+02 -0.62856459136E+02 -0.17639291332E+03  0.19016284163E+03  0.00000000000E+00 0.  1.
          1    1    6    6  503    0 -0.71541874136E+02 -0.80797552260E+01  0.24836674773E+03  0.25859149943E+03  0.00000000000E+00 0. -1.
         -1    1    6    6    0  503 -0.64253671855E+02  0.82655216336E+02  0.24035862298E+03  0.26216919494E+03  0.00000000000E+00 0.  1.
<mgrwt>
<rscale>  0 0.14210254E+04</rscale>
<asrwt>0</asrwt>
<pdfrwt beam="1">  1        1 0.18804970E+00 0.14210254E+04</pdfrwt>
<pdfrwt beam="2">  1       -2 0.63539575E-01 0.14210254E+04</pdfrwt>
<totfact> 0.20143331E+01</totfact>
</mgrwt>
</event>
<event>
12    4  0.4320235E-008  0.1321306E+04  0.7818608E-02  0.9012838E-01
          1   -1    0    0  501    0  0.00000000000E+00  0.00000000000E+00  0.58229873094E+03  0.58229873094E+03  0.00000000000E+00 0. -1.
         -4   -1    0    0    0  501 -0.00000000000E+00 -0.00000000000E+00 -0.74955119257E+03  0.74955119257E+03  0.00000000000E+00 0.  1.
        -24    2    1    2    0    0  0.22329210775E+03 -0.25295606823E+03  0.32786048202E+02  0.34853829773E+03  0.80980751981E+02 0.  0.
        254    2    1    2    0    0 -0.22329210775E+03  0.25295606823E+03 -0.20003850984E+03  0.98331162578E+03  0.90168742374E+03 0.  0.
         23    2    4    4    0    0 -0.45658495636E+03 -0.70141419293E+02  0.93340152064E+02  0.48028888271E+03  0.92603378924E+02 0.  0.
         23    2    4    4    0    0  0.23329284861E+03  0.32309748753E+03 -0.29337866190E+03  0.50302274307E+03  0.90240241175E+02 0.  0.
          3    1    3    3  502    0  0.22642892174E+03 -0.22798341286E+03  0.35256861964E+02  0.32324841756E+03  0.00000000000E+00 0. -1.
         -4    1    3    3    0  502 -0.31368139938E+01 -0.24972655375E+02 -0.24708137623E+01  0.25289880173E+02  0.00000000000E+00 0.  1.
         11    1    5    5    0    0 -0.11989145032E+03 -0.53501037985E+02  0.31369200596E+01  0.13132464046E+03  0.00000000000E+00 0.  1.
        -11    1    5    5    0    0 -0.33669350604E+03 -0.16640381308E+02  0.90203232004E+02  0.34896424224E+03  0.00000000000E+00 0. -1.
          4    1    6    6  503    0  0.22018623214E+03  0.28401260739E+03 -0.28977158098E+03  0.46164131869E+03  0.00000000000E+00 0. -1.
         -4    1    6    6    0  503  0.13106616470E+02  0.39084880138E+02 -0.36070809204E+01  0.41381424377E+02  0.00000000000E+00 0.  1.
<mgrwt>
<rscale>  0 0.13213065E+04</rscale>
<asrwt>0</asrwt>
<pdfrwt beam="1">  1        1 0.89584420E-01 0.13213065E+04</pdfrwt>
<pdfrwt beam="2">  1       -4 0.11531557E+00 0.13213065E+04</pdfrwt>
<totfact> 0.98606238E+00</totfact>
</mgrwt>
</event>
<event>
12    4  0.4320235E-008  0.1447255E+04  0.7818608E-02  0.8920306E-01
          1   -1    0    0  501    0  0.00000000000E+00  0.00000000000E+00  0.20282335664E+04  0.20282335664E+04  0.00000000000E+00 0. -1.
         -2   -1    0    0    0  501 -0.00000000000E+00 -0.00000000000E+00 -0.25817362688E+03  0.25817362688E+03  0.00000000000E+00 0.  1.
        -24    2    1    2    0    0  0.56041770141E+02  0.38872048114E+03  0.84644263424E+03  0.93658978004E+03  0.80566684003E+02 0.  0.
        254    2    1    2    0    0 -0.56041770141E+02 -0.38872048114E+03  0.92361730533E+03  0.13498174133E+04  0.90260391647E+03 0.  0.
         23    2    4    4    0    0  0.27449892471E+03  0.99058468765E+02  0.59704281164E+03  0.67063052225E+03  0.90127346285E+02 0.  0.
         23    2    4    4    0    0 -0.33054069485E+03 -0.48777894990E+03  0.32657449369E+03  0.67918689102E+03  0.86362480817E+02 0.  0.
          3    1    3    3  502    0  0.55591574173E+02  0.33494524110E+03  0.78285065836E+03  0.85330761801E+03  0.00000000000E+00 0. -1.
         -4    1    3    3    0  502  0.45019596860E+00  0.53775240036E+02  0.63591975877E+02  0.83282162036E+02  0.00000000000E+00 0.  1.
         11    1    5    5    0    0 -0.13535378609E+01 -0.45589440744E+01  0.41533129587E+02  0.41804508000E+02  0.00000000000E+00 0.  1.
        -11    1    5    5    0    0  0.27585246257E+03  0.10361741284E+03  0.55550968205E+03  0.62882601425E+03  0.00000000000E+00 0. -1.
          3    1    6    6  503    0 -0.28564349476E+03 -0.37086576775E+03  0.28061585762E+03  0.54578281700E+03  0.00000000000E+00 0. -1.
         -3    1    6    6    0  503 -0.44897200093E+02 -0.11691318215E+03  0.45958636067E+02  0.13340407402E+03  0.00000000000E+00 0.  1.
<mgrwt>
<rscale>  0 0.14472545E+04</rscale>
<asrwt>0</asrwt>
<pdfrwt beam="1">  1        1 0.31203592E+00 0.14472545E+04</pdfrwt>
<pdfrwt beam="2">  1       -2 0.39719021E-01 0.14472545E+04</pdfrwt>
<totfact> 0.14594220E+01</totfact>
</mgrwt>
</event>
<event>
12    4  0.4320235E-008  0.1499440E+04  0.7818608E-02  0.8884825E-01
          1   -1    0    0  501    0  0.00000000000E+00  0.00000000000E+00  0.54359581444E+03  0.54359581444E+03  0.00000000000E+00 0. -1.
         -2   -1    0    0    0  501 -0.00000000000E+00 -0.00000000000E+00 -0.10340038383E+04  0.10340038383E+04  0.00000000000E+00 0.  1.
        -24    2    1    2    0    0  0.39947811908E+03 -0.22735213453E+03 -0.30684110854E+02  0.46770938281E+03  0.80862793711E+02 0.  0.
        254    2    1    2    0    0 -0.39947811908E+03  0.22735213453E+03 -0.45972391297E+03  0.11098902699E+04  0.89957688630E+03 0.  0.
         23    2    4    4    0    0 -0.60552638785E+03  0.28558116564E+03 -0.10228881833E+03  0.68307633180E+03  0.88946411724E+02 0.  0.
         23    2    4    4    0    0  0.20604826877E+03 -0.58229031110E+02 -0.35743509464E+03  0.42681393810E+03  0.92540703217E+02 0.  0.
          3    1    3    3  502    0  0.13897417623E+03 -0.78885621898E+02 -0.49459308145E+02  0.16728115902E+03  0.00000000000E+00 0. -1.
         -4    1    3    3    0  502  0.26050394285E+03 -0.14846651263E+03  0.18775197291E+02  0.30042822379E+03  0.00000000000E+00 0.  1.
         11    1    5    5    0    0 -0.20315361640E+03  0.97886988650E+02  0.77766027761E+01  0.22564070987E+03  0.00000000000E+00 0. -1.
        -11    1    5    5    0    0 -0.40237277145E+03  0.18769417699E+03 -0.11006542110E+03  0.45743562192E+03  0.00000000000E+00 0.  1.
          1    1    6    6  503    0  0.10470456796E+03  0.12006549778E+02 -0.20715917518E+03  0.23242660702E+03  0.00000000000E+00 0. -1.
         -1    1    6    6    0  503  0.10134370081E+03 -0.70235580888E+02 -0.15027591947E+03  0.19438733109E+03  0.00000000000E+00 0.  1.
<mgrwt>
<rscale>  0 0.14994401E+04</rscale>
<asrwt>0</asrwt>
<pdfrwt beam="1">  1        1 0.83630126E-01 0.14994401E+04</pdfrwt>
<pdfrwt beam="2">  1       -2 0.15907751E+00 0.14994401E+04</pdfrwt>
<totfact> 0.85334618E+00</totfact>
</mgrwt>
</event>
<event>
12    4  0.4320235E-008  0.1854585E+04  0.7818608E-02  0.8677798E-01
          1   -1    0    0  501    0  0.00000000000E+00  0.00000000000E+00  0.19172667687E+04  0.19172667687E+04  0.00000000000E+00 0. -1.
         -4   -1    0    0    0  501 -0.00000000000E+00 -0.00000000000E+00 -0.44848816437E+03  0.44848816437E+03  0.00000000000E+00 0.  1.
        -24    2    1    2    0    0 -0.33411002622E+03 -0.38869150277E+03  0.11950247924E+04  0.13026720037E+04  0.78482487109E+02 0.  0.
        254    2    1    2    0    0  0.33411002622E+03  0.38869150277E+03  0.27375381187E+03  0.10630829293E+04  0.89022107994E+03 0.  0.
         23    2    4    4    0    0  0.40472816724E+03  0.63299467236E+03  0.20078467227E+03  0.78343626077E+03  0.94714019456E+02 0.  0.
         23    2    4    4    0    0 -0.70618141017E+02 -0.24430316959E+03  0.72969139597E+02  0.27964666856E+03  0.90591409032E+02 0.  0.
          1    1    3    3  502    0 -0.30014191848E+03 -0.34696894266E+03  0.99735658226E+03  0.10978127211E+04  0.00000000000E+00 0. -1.
         -2    1    3    3    0  502 -0.33968107741E+02 -0.41722560110E+02  0.19766821019E+03  0.20485928265E+03  0.00000000000E+00 0.  1.
         11    1    5    5    0    0  0.28626627201E+03  0.36305392364E+03  0.11520870035E+03  0.47647620570E+03  0.00000000000E+00 0.  1.
        -11    1    5    5    0    0  0.11846189523E+03  0.26994074872E+03  0.85575971927E+02  0.30696005507E+03  0.00000000000E+00 0. -1.
          3    1    6    6  503    0 -0.72793498112E+01 -0.16531503181E+03  0.24093686151E+02  0.16722007770E+03  0.00000000000E+00 0. -1.
         -3    1    6    6    0  503 -0.63338791205E+02 -0.78988137782E+02  0.48875453446E+02  0.11242659085E+03  0.00000000000E+00 0.  1.
<mgrwt>
<rscale>  0 0.18545851E+04</rscale>
<asrwt>0</asrwt>
<pdfrwt beam="1">  1        1 0.29496411E+00 0.18545851E+04</pdfrwt>
<pdfrwt beam="2">  1       -4 0.68998180E-01 0.18545851E+04</pdfrwt>
<totfact> 0.30337002E+00</totfact>
</mgrwt>
</event>
<event>
12    4  0.4320235E-008  0.2433335E+04  0.7818608E-02  0.8427128E-01
          1   -1    0    0  501    0  0.00000000000E+00  0.00000000000E+00  0.26890208648E+04  0.26890208648E+04  0.00000000000E+00 0. -1.
         -2   -1    0    0    0  501 -0.00000000000E+00 -0.00000000000E+00 -0.55049012494E+03  0.55049012494E+03  0.00000000000E+00 0.  1.
        -24    2    1    2    0    0  0.61912696075E+03 -0.14413557534E+03 -0.15571124811E+03  0.66373561851E+03  0.11047950434E+03 0.  0.
        254    2    1    2    0    0 -0.61912696075E+03  0.14413557534E+03  0.22942419880E+04  0.25757753712E+04  0.98335100855E+03 0.  0.
         23    2    4    4    0    0 -0.84815759485E+03 -0.39074697321E+02  0.18131036947E+04  0.20041002498E+04  0.90413860029E+02 0.  0.
         23    2    4    4    0    0  0.22903063410E+03  0.18321027266E+03  0.48113829332E+03  0.57167512140E+03  0.96422776209E+02 0.  0.
          3    1    3    3  502    0  0.17094469995E+03 -0.23982777079E+02  0.49783961290E+01  0.17269061487E+03  0.00000000000E+00 0. -1.
         -4    1    3    3    0  502  0.44818226080E+03 -0.12015279826E+03 -0.16068964424E+03  0.49104500363E+03  0.00000000000E+00 0.  1.
         11    1    5    5    0    0 -0.93283007675E+02  0.17332096840E+02  0.24850871963E+03  0.26600508422E+03  0.00000000000E+00 0.  1.
        -11    1    5    5    0    0 -0.75487458717E+03 -0.56406794161E+02  0.15645949750E+04  0.17380951656E+04  0.00000000000E+00 0. -1.
          3    1    6    6  503    0  0.81248708480E+02  0.96387051523E+02  0.28224291875E+03  0.30911629125E+03  0.00000000000E+00 0. -1.
         -3    1    6    6    0  503  0.14778192562E+03  0.86823221139E+02  0.19889537457E+03  0.26255883016E+03  0.00000000000E+00 0.  1.
<mgrwt>
<rscale>  0 0.24333347E+04</rscale>
<asrwt>0</asrwt>
<pdfrwt beam="1">  1        1 0.41369551E+00 0.24333347E+04</pdfrwt>
<pdfrwt beam="2">  1       -2 0.84690790E-01 0.24333347E+04</pdfrwt>
<totfact> 0.95337791E-01</totfact>
</mgrwt>
</event>
<event>
12    4  0.4320235E-008  0.2006375E+04  0.7818608E-02  0.8603646E-01
         -2   -1    0    0    0  501 -0.00000000000E+00  0.00000000000E+00  0.74711649933E+03  0.74711649933E+03  0.00000000000E+00 0.  1.
          1   -1    0    0  501    0  0.00000000000E+00 -0.00000000000E+00 -0.13470258193E+04  0.13470258193E+04  0.00000000000E+00 0. -1.
        -24    2    1    2    0    0  0.64172698592E+00  0.70213987949E+03 -0.65416196834E+03  0.96302843255E+03  0.80591928223E+02 0.  0.
        254    2    1    2    0    0 -0.64172698592E+00 -0.70213987949E+03  0.54252648386E+02  0.11311138861E+04  0.88514092166E+03 0.  0.
         23    2    4    4    0    0 -0.34514962443E+03 -0.66471629621E+03 -0.53825085752E+02  0.75569622217E+03  0.84874157785E+02 0.  0.
         23    2    4    4    0    0  0.34450789744E+03 -0.37423583285E+02  0.10807773414E+03  0.37541766389E+03  0.95767477574E+02 0.  0.
          1    1    3    3  502    0 -0.11024995470E+02  0.59201438116E+03 -0.51168694373E+03  0.78257658182E+03  0.00000000000E+00 0. -1.
         -2    1    3    3    0  502  0.11666722456E+02  0.11012549833E+03 -0.14247502461E+03  0.18045185073E+03  0.00000000000E+00 0.  1.
         11    1    5    5    0    0 -0.33154514955E+03 -0.65327253131E+03 -0.40925364572E+02  0.73373160748E+03  0.00000000000E+00 0.  1.
        -11    1    5    5    0    0 -0.13604474880E+02 -0.11443764892E+02 -0.12899721180E+02  0.21964614684E+02  0.00000000000E+00 0. -1.
          2    1    6    6  503    0 -0.39003126352E+01 -0.91897550386E+00 -0.58072180178E+01  0.70555464519E+01  0.00000000000E+00 0. -1.
         -2    1    6    6    0  503  0.34840821008E+03 -0.36504607782E+02  0.11388495216E+03  0.36836211744E+03  0.00000000000E+00 0.  1.
<mgrwt>
<rscale>  0 0.20063751E+04</rscale>
<asrwt>0</asrwt>
<pdfrwt beam="1">  1        1 0.20723474E+00 0.20063751E+04</pdfrwt>
<pdfrwt beam="2">  1       -2 0.11494100E+00 0.20063751E+04</pdfrwt>
<totfact> 0.40222950E+00</totfact>
</mgrwt>
</event>
<event>
12    4  0.4320235E-008  0.1565797E+04  0.7818608E-02  0.8841840E-01
          1   -1    0    0  501    0  0.00000000000E+00  0.00000000000E+00  0.77397131624E+03  0.77397131624E+03  0.00000000000E+00 0. -1.
         -4   -1    0    0    0  501 -0.00000000000E+00 -0.00000000000E+00 -0.79192903785E+03  0.79192903785E+03  0.00000000000E+00 0.  1.
        -24    2    1    2    0    0 -0.43839262123E+03  0.40147340704E+02  0.35770751621E+03  0.57281049419E+03  0.79732651993E+02 0.  0.
        254    2    1    2    0    0  0.43839262123E+03 -0.40147340704E+02 -0.37566523782E+03  0.99308985990E+03  0.80703358023E+03 0.  0.
         23    2    4    4    0    0  0.46975522255E+03 -0.12736424125E+03 -0.57461645382E+03  0.75843004913E+03  0.90224449926E+02 0.  0.
         23    2    4    4    0    0 -0.31362601324E+02  0.87216900550E+02  0.19895121600E+03  0.23465981077E+03  0.83025537888E+02 0.  0.
          1    1    3    3  502    0 -0.29589675715E+03  0.34560310547E-01  0.27105357808E+03  0.40127912265E+03  0.00000000000E+00 0. -1.
         -2    1    3    3    0  502 -0.14249586407E+03  0.40112780393E+02  0.86653938132E+02  0.17153137154E+03  0.00000000000E+00 0.  1.
         11    1    5    5    0    0  0.37883381796E+03 -0.70817598868E+02 -0.47974939299E+03  0.61537766779E+03  0.00000000000E+00 0. -1.
        -11    1    5    5    0    0  0.90921404592E+02 -0.56546642385E+02 -0.94867060831E+02  0.14305238135E+03  0.00000000000E+00 0.  1.
          1    1    6    6  503    0 -0.20667941830E+02  0.18583463909E+02  0.14240485702E+03  0.14509187521E+03  0.00000000000E+00 0. -1.
         -1    1    6    6    0  503 -0.10694659494E+02  0.68633436640E+02  0.56546358982E+02  0.89567935562E+02  0.00000000000E+00 0.  1.
<mgrwt>
<rscale>  0 0.15657974E+04</rscale>
<asrwt>0</asrwt>
<pdfrwt beam="1">  1        1 0.11907251E+00 0.15657974E+04</pdfrwt>
<pdfrwt beam="2">  1       -4 0.12183524E+00 0.15657974E+04</pdfrwt>
<totfact> 0.55255324E+00</totfact>
</mgrwt>
</event>
<event>
12    4  0.4320235E-008  0.1966304E+04  0.7818608E-02  0.8622539E-01
          1   -1    0    0  501    0  0.00000000000E+00  0.00000000000E+00  0.45039743407E+03  0.45039743407E+03  0.00000000000E+00 0. -1.
         -2   -1    0    0    0  501 -0.00000000000E+00 -0.00000000000E+00 -0.21460778871E+04  0.21460778871E+04  0.00000000000E+00 0.  1.
        -24    2    1    2    0    0 -0.27726302260E+03 -0.19367809190E+03  0.25070841578E+03  0.42790287254E+03  0.76551757660E+02 0.  0.
        254    2    1    2    0    0  0.27726302260E+03  0.19367809190E+03 -0.19463888689E+04  0.21685724487E+04  0.89436617186E+03 0.  0.
         23    2    4    4    0    0  0.72966523269E+02 -0.27628451013E+03 -0.23819529976E+03  0.38293345764E+03  0.90795308760E+02 0.  0.
         23    2    4    4    0    0  0.20429649933E+03  0.46996260203E+03 -0.17081935691E+04  0.17856389910E+04  0.89327654655E+02 0.  0.
          3    1    3    3  502    0 -0.18990492389E+03 -0.14342880588E+03  0.21578032166E+03  0.32124266481E+03  0.00000000000E+00 0. -1.
         -4    1    3    3    0  502 -0.87358098707E+02 -0.50249286017E+02  0.34928094123E+02  0.10666020774E+03  0.00000000000E+00 0.  1.
         11    1    5    5    0    0  0.49391802791E+02 -0.20508360085E+03 -0.11926424243E+03  0.24232786270E+03  0.00000000000E+00 0. -1.
        -11    1    5    5    0    0  0.23574720478E+02 -0.71200909281E+02 -0.11893105733E+03  0.14060559493E+03  0.00000000000E+00 0.  1.
          1    1    6    6  503    0  0.19663289407E+03  0.46404886038E+03 -0.16117469299E+04  0.16887077918E+04  0.00000000000E+00 0. -1.
         -1    1    6    6    0  503  0.76636052620E+01  0.59137416497E+01 -0.96446639155E+02  0.96931199262E+02  0.00000000000E+00 0.  1.
<mgrwt>
<rscale>  0 0.19663041E+04</rscale>
<asrwt>0</asrwt>
<pdfrwt beam="1">  1        1 0.69291913E-01 0.19663041E+04</pdfrwt>
<pdfrwt beam="2">  1       -2 0.33016583E+00 0.19663041E+04</pdfrwt>
<totfact> 0.86405642E-01</totfact>
</mgrwt>
</event>
<event>
12    4  0.4320235E-008  0.1095356E+04  0.7818608E-02  0.9209730E-01
         -2   -1    0    0    0  501 -0.00000000000E+00  0.00000000000E+00  0.22681356204E+03  0.22681356204E+03  0.00000000000E+00 0.  1.
          1   -1    0    0  501    0  0.00000000000E+00 -0.00000000000E+00 -0.13224576529E+04  0.13224576529E+04  0.00000000000E+00 0. -1.
        -24    2    1    2    0    0 -0.10009087058E+03  0.11844360796E+03 -0.12860880573E+03  0.21758898234E+03  0.82205046594E+02 0.  0.
        254    2    1    2    0    0  0.10009087058E+03 -0.11844360796E+03 -0.96703528516E+03  0.13316822326E+04  0.90231549654E+03 0.  0.
         23    2    4    4    0    0  0.48401491131E+03  0.18885868005E+02 -0.58786955434E+03  0.76735458275E+03  0.92818814697E+02 0.  0.
         23    2    4    4    0    0 -0.38392404073E+03 -0.13732947596E+03 -0.37916573082E+03  0.56432764987E+03  0.91880307848E+02 0.  0.
          1    1    3    3  502    0 -0.76332758449E+02  0.10043489091E+03 -0.13738027304E+03  0.18651326158E+03  0.00000000000E+00 0. -1.
         -2    1    3    3    0  502 -0.23758112131E+02  0.18008717046E+02  0.87714673164E+01  0.31075720757E+02  0.00000000000E+00 0.  1.
         11    1    5    5    0    0  0.22566120877E+02  0.13880830075E+02 -0.63698190553E+02  0.68988163730E+02  0.00000000000E+00 0.  1.
        -11    1    5    5    0    0  0.46144879043E+03  0.50050379301E+01 -0.52417136379E+03  0.69836641902E+03  0.00000000000E+00 0. -1.
          4    1    6    6  503    0 -0.23860566331E+03 -0.42082657054E+02 -0.24725069976E+03  0.34617411966E+03  0.00000000000E+00 0. -1.
         -4    1    6    6    0  503 -0.14531837742E+03 -0.95246818910E+02 -0.13191503105E+03  0.21815353022E+03  0.00000000000E+00 0.  1.
<mgrwt>
<rscale>  0 0.10953563E+04</rscale>
<asrwt>0</asrwt>
<pdfrwt beam="1">  1        1 0.20345503E+00 0.10953563E+04</pdfrwt>
<pdfrwt beam="2">  1       -2 0.34894394E-01 0.10953563E+04</pdfrwt>
<totfact> 0.58712021E+01</totfact>
</mgrwt>
</event>
<event>
12    4  0.4320235E-008  0.1546095E+04  0.7818608E-02  0.8854366E-01
          1   -1    0    0  501    0  0.00000000000E+00  0.00000000000E+00  0.78454661009E+03  0.78454661009E+03  0.00000000000E+00 0. -1.
         -2   -1    0    0    0  501 -0.00000000000E+00 -0.00000000000E+00 -0.76171716075E+03  0.76171716075E+03  0.00000000000E+00 0.  1.
        -24    2    1    2    0    0 -0.12394862990E+03 -0.28781910102E+03 -0.43107307177E+03  0.53933606776E+03  0.82802795949E+02 0.  0.
        254    2    1    2    0    0  0.12394862990E+03  0.28781910102E+03  0.45390252111E+03  0.10069277031E+04  0.84242079912E+03 0.  0.
         23    2    4    4    0    0  0.17180245036E+03  0.49693027467E+01 -0.20472676838E+03  0.28276229772E+03  0.92199194132E+02 0.  0.
         23    2    4    4    0    0 -0.47853820460E+02  0.28284979827E+03  0.65862928949E+03  0.72416540536E+03  0.91263337834E+02 0.  0.
          3    1    3    3  502    0 -0.77464161249E+02 -0.25607989770E+03 -0.36471201339E+03  0.45231898368E+03  0.00000000000E+00 0. -1.
         -4    1    3    3    0  502 -0.46484468653E+02 -0.31739203324E+02 -0.66361058376E+02  0.87017084083E+02  0.00000000000E+00 0.  1.
         11    1    5    5    0    0 -0.77481212413E+01  0.13146482164E+02 -0.14417318763E+02  0.20993390779E+02  0.00000000000E+00 0.  1.
        -11    1    5    5    0    0  0.17955057160E+03 -0.81771794175E+01 -0.19030944962E+03  0.26176890694E+03  0.00000000000E+00 0. -1.
          1    1    6    6  503    0 -0.58383576610E+02  0.27676304251E+03  0.58798764523E+03  0.65248440186E+03  0.00000000000E+00 0. -1.
         -1    1    6    6    0  503  0.10529756150E+02  0.60867557610E+01  0.70641644256E+02  0.71681003505E+02  0.00000000000E+00 0.  1.
<mgrwt>
<rscale>  0 0.15460952E+04</rscale>
<asrwt>0</asrwt>
<pdfrwt beam="1">  1        1 0.12069948E+00 0.15460952E+04</pdfrwt>
<pdfrwt beam="2">  1       -2 0.11718726E+00 0.15460952E+04</pdfrwt>
<totfact> 0.10841629E+01</totfact>
</mgrwt>
</event>
<event>
12    4  0.4320235E-008  0.1715866E+04  0.7818608E-02  0.8752367E-01
         -2   -1    0    0    0  501 -0.00000000000E+00  0.00000000000E+00  0.40227972488E+03  0.40227972488E+03  0.00000000000E+00 0.  1.
          1   -1    0    0  501    0  0.00000000000E+00 -0.00000000000E+00 -0.18296956176E+04  0.18296956176E+04  0.00000000000E+00 0. -1.
        -24    2    1    2    0    0 -0.37817150833E+03 -0.40862418632E+03 -0.86475013452E+03  0.10316052213E+04  0.80181806673E+02 0.  0.
        254    2    1    2    0    0  0.37817150833E+03  0.40862418632E+03 -0.56266575815E+03  0.12003701211E+04  0.90239030189E+03 0.  0.
         23    2    4    4    0    0 -0.15912253921E+03 -0.99863574699E+02 -0.37675060780E+03  0.43079405888E+03  0.91377156072E+02 0.  0.
         23    2    4    4    0    0  0.53729404755E+03  0.50848776102E+03 -0.18591515035E+03  0.76957606225E+03  0.10216739123E+03 0.  0.
          1    1    3    3  502    0 -0.25724168074E+03 -0.27841070015E+03 -0.65421533623E+03  0.75609755087E+03  0.00000000000E+00 0. -1.
         -2    1    3    3    0  502 -0.12092982759E+03 -0.13021348617E+03 -0.21053479829E+03  0.27550767044E+03  0.00000000000E+00 0.  1.
         11    1    5    5    0    0  0.29280540386E+00  0.38102389605E+01  0.37919180610E+01  0.53835210153E+01  0.00000000000E+00 0. -1.
        -11    1    5    5    0    0 -0.15941534462E+03 -0.10367381366E+03 -0.38054252586E+03  0.42541053786E+03  0.00000000000E+00 0.  1.
          4    1    6    6  503    0  0.27929055710E+02  0.55836862857E+02 -0.35225922759E+02  0.71684398866E+02  0.00000000000E+00 0. -1.
         -4    1    6    6    0  503  0.50936499184E+03  0.45265089816E+03 -0.15068922759E+03  0.69789166339E+03  0.00000000000E+00 0.  1.
<mgrwt>
<rscale>  0 0.17158665E+04</rscale>
<asrwt>0</asrwt>
<pdfrwt beam="1">  1        1 0.28149163E+00 0.17158665E+04</pdfrwt>
<pdfrwt beam="2">  1       -2 0.61889189E-01 0.17158665E+04</pdfrwt>
<totfact> 0.78682038E+00</totfact>
</mgrwt>
</event>
<event>
12    4  0.4320235E-008  0.1506710E+04  0.7818608E-02  0.8880003E-01
         -2   -1    0    0    0  501 -0.00000000000E+00  0.00000000000E+00  0.19235797150E+04  0.19235797150E+04  0.00000000000E+00 0.  1.
          1   -1    0    0  501    0  0.00000000000E+00 -0.00000000000E+00 -0.29504570882E+03  0.29504570882E+03  0.00000000000E+00 0. -1.
        -24    2    1    2    0    0  0.27455169491E+03 -0.16165557191E+03  0.10535862692E+04  0.11035596886E+04  0.79301969534E+02 0.  0.
        254    2    1    2    0    0 -0.27455169491E+03  0.16165557191E+03  0.57494773690E+03  0.11150657352E+04  0.90071945497E+03 0.  0.
         23    2    4    4    0    0 -0.44758904430E+02  0.46792826419E+03  0.84449600269E+02  0.48637804766E+03  0.92041568367E+02 0.  0.
         23    2    4    4    0    0 -0.22979279048E+03 -0.30627269228E+03  0.49049813663E+03  0.62868768755E+03  0.89733482334E+02 0.  0.
          3    1    3    3  502    0  0.67311066100E+02 -0.66147658844E+02  0.40987945748E+03  0.42060368763E+03  0.00000000000E+00 0. -1.
         -4    1    3    3    0  502  0.20724062881E+03 -0.95507913064E+02  0.64370681177E+03  0.68295600093E+03  0.00000000000E+00 0.  1.
         11    1    5    5    0    0 -0.50367814812E+02  0.10962239243E+03  0.20884175613E+02  0.12243420471E+03  0.00000000000E+00 0.  1.
        -11    1    5    5    0    0  0.56089103820E+01  0.35830587176E+03  0.63565424657E+02  0.36394384295E+03  0.00000000000E+00 0. -1.
          1    1    6    6  503    0 -0.11102285580E+03 -0.21983277063E+03  0.30050121232E+03  0.38852734802E+03  0.00000000000E+00 0. -1.
         -1    1    6    6    0  503 -0.11876993468E+03 -0.86439921650E+02  0.18999692431E+03  0.24016033953E+03  0.00000000000E+00 0.  1.
<mgrwt>
<rscale>  0 0.15067102E+04</rscale>
<asrwt>0</asrwt>
<pdfrwt beam="1">  1        1 0.45391649E-01 0.15067102E+04</pdfrwt>
<pdfrwt beam="2">  1       -2 0.29593533E+00 0.15067102E+04</pdfrwt>
<totfact> 0.25548950E+00</totfact>
</mgrwt>
</event>
<event>
12    4  0.4320235E-008  0.1904767E+04  0.7818608E-02  0.8652487E-01
         -4   -1    0    0    0  501 -0.00000000000E+00  0.00000000000E+00  0.12183747136E+04  0.12183747136E+04  0.00000000000E+00 0.  1.
          1   -1    0    0  501    0  0.00000000000E+00 -0.00000000000E+00 -0.74446266648E+03  0.74446266648E+03  0.00000000000E+00 0. -1.
        -24    2    1    2    0    0 -0.79874136314E+02 -0.65912161983E+03 -0.14005669750E+03  0.68670620458E+03  0.10549097359E+03 0.  0.
        254    2    1    2    0    0  0.79874136314E+02  0.65912161983E+03  0.61396874460E+03  0.12761311755E+04  0.90040655834E+03 0.  0.
         23    2    4    4    0    0 -0.31786527693E+03  0.60828564317E+03  0.48460971610E+03  0.84484857923E+03  0.88728726597E+02 0.  0.
         23    2    4    4    0    0  0.39773941325E+03  0.50835976662E+02  0.12935902850E+03  0.43128259625E+03  0.92141099390E+02 0.  0.
          1    1    3    3  502    0 -0.81661058717E+02 -0.57380779777E+03 -0.86629065475E+02  0.58602774019E+03  0.00000000000E+00 0. -1.
         -2    1    3    3    0  502  0.17869224028E+01 -0.85313822061E+02 -0.53427632029E+02  0.10067846438E+03  0.00000000000E+00 0.  1.
         11    1    5    5    0    0 -0.29094444207E+03  0.54980356331E+03  0.46779295901E+03  0.77830770207E+03  0.00000000000E+00 0. -1.
        -11    1    5    5    0    0 -0.26920834865E+02  0.58482079858E+02  0.16816757088E+02  0.66540877160E+02  0.00000000000E+00 0.  1.
          4    1    6    6  503    0  0.27545265148E+03  0.25497889733E+02  0.44230925370E+02  0.28014403500E+03  0.00000000000E+00 0. -1.
         -4    1    6    6    0  503  0.12228676177E+03  0.25338086929E+02  0.85128103129E+02  0.15113856125E+03  0.00000000000E+00 0.  1.
<mgrwt>
<rscale>  0 0.19047672E+04</rscale>
<asrwt>0</asrwt>
<pdfrwt beam="1">  1        1 0.11453272E+00 0.19047672E+04</pdfrwt>
<pdfrwt beam="2">  1       -4 0.18744226E+00 0.19047672E+04</pdfrwt>
<totfact> 0.17818249E+00</totfact>
</mgrwt>
</event>
<event>
12    4  0.4320235E-008  0.1630265E+04  0.7818608E-02  0.8802168E-01
         -2   -1    0    0    0  501 -0.00000000000E+00  0.00000000000E+00  0.74577291130E+03  0.74577291130E+03  0.00000000000E+00 0.  1.
          1   -1    0    0  501    0  0.00000000000E+00 -0.00000000000E+00 -0.89094318961E+03  0.89094318961E+03  0.00000000000E+00 0. -1.
        -24    2    1    2    0    0  0.15754072646E+03 -0.16316255915E+03 -0.57824657852E+03  0.62590172247E+03  0.77089295086E+02 0.  0.
        254    2    1    2    0    0 -0.15754072646E+03  0.16316255915E+03  0.43307630021E+03  0.10108143784E+04  0.88473132908E+03 0.  0.
         23    2    4    4    0    0 -0.19699447769E+03  0.37404975908E+03 -0.84625425160E+02  0.44296273663E+03  0.10165862948E+03 0.  0.
         23    2    4    4    0    0  0.39453751230E+02 -0.21088719993E+03  0.51770172537E+03  0.56785164181E+03  0.91708238844E+02 0.  0.
          1    1    3    3  502    0  0.14717234175E+03 -0.17066675927E+03 -0.52865447413E+03  0.57468460386E+03  0.00000000000E+00 0. -1.
         -2    1    3    3    0  502  0.10368384713E+02  0.75042001160E+01 -0.49592104386E+02  0.51217118607E+02  0.00000000000E+00 0.  1.
         11    1    5    5    0    0 -0.16149385533E+03  0.27682356128E+03 -0.10544024405E+03  0.33738582432E+03  0.00000000000E+00 0.  1.
        -11    1    5    5    0    0 -0.35500622359E+02  0.97226197802E+02  0.20814818885E+02  0.10557691231E+03  0.00000000000E+00 0. -1.
          2    1    6    6  503    0  0.45864635675E+02 -0.15504113142E+03  0.45868994113E+03  0.48635149772E+03  0.00000000000E+00 0.  1.
         -2    1    6    6    0  503 -0.64108844454E+01 -0.55846068513E+02  0.59011784240E+02  0.81500144092E+02  0.00000000000E+00 0. -1.
<mgrwt>
<rscale>  0 0.16302654E+04</rscale>
<asrwt>0</asrwt>
<pdfrwt beam="1">  1        1 0.13706818E+00 0.16302654E+04</pdfrwt>
<pdfrwt beam="2">  1       -2 0.11473429E+00 0.16302654E+04</pdfrwt>
<totfact> 0.92067360E+00</totfact>
</mgrwt>
</event>
<event>
12    4  0.4320235E-008  0.2982184E+04  0.7818608E-02  0.8248837E-01
         -2   -1    0    0    0  501 -0.00000000000E+00  0.00000000000E+00  0.67405389257E+03  0.67405389257E+03  0.00000000000E+00 0.  1.
          1   -1    0    0  501    0  0.00000000000E+00 -0.00000000000E+00 -0.32984829974E+04  0.32984829974E+04  0.00000000000E+00 0. -1.
        -24    2    1    2    0    0  0.38238923992E+03 -0.10562975040E+04 -0.19201134654E+03  0.11422200915E+04  0.76239309885E+02 0.  0.
        254    2    1    2    0    0 -0.38238923992E+03  0.10562975040E+04 -0.24324177583E+04  0.28303167985E+04  0.91216834042E+03 0.  0.
         23    2    4    4    0    0 -0.24233133217E+03  0.10894147860E+04 -0.24100339475E+04  0.26572906645E+04  0.85912729613E+02 0.  0.
         23    2    4    4    0    0 -0.14005790775E+03 -0.33117281991E+02 -0.22383810844E+02  0.17302613404E+03  0.93402549112E+02 0.  0.
          1    1    3    3  502    0  0.23941005154E+02 -0.27850440319E+02 -0.33618876742E+01  0.36879818905E+02  0.00000000000E+00 0. -1.
         -2    1    3    3    0  502  0.35844823477E+03 -0.10284470637E+04 -0.18864945887E+03  0.11053402726E+04  0.00000000000E+00 0.  1.
         11    1    5    5    0    0 -0.13599354267E+03  0.54377820335E+03 -0.13058217442E+04  0.14210416622E+04  0.00000000000E+00 0.  1.
        -11    1    5    5    0    0 -0.10633778950E+03  0.54563658266E+03 -0.11042122032E+04  0.12362490023E+04  0.00000000000E+00 0. -1.
          1    1    6    6  503    0 -0.20536896882E+02  0.72912084616E+01 -0.40082456395E+02  0.45623778505E+02  0.00000000000E+00 0. -1.
         -1    1    6    6    0  503 -0.11952101087E+03 -0.40408490453E+02  0.17698645551E+02  0.12740235553E+03  0.00000000000E+00 0.  1.
<mgrwt>
<rscale>  0 0.29821840E+04</rscale>
<asrwt>0</asrwt>
<pdfrwt beam="1">  1        1 0.50745891E+00 0.29821840E+04</pdfrwt>
<pdfrwt beam="2">  1       -2 0.10370060E+00 0.29821840E+04</pdfrwt>
<totfact> 0.20329753E-01</totfact>
</mgrwt>
</event>
<event>
12    4  0.4320235E-008  0.1891334E+04  0.7818608E-02  0.8659182E-01
         -2   -1    0    0    0  501 -0.00000000000E+00  0.00000000000E+00  0.10484611192E+04  0.10484611192E+04  0.00000000000E+00 0.  1.
          1   -1    0    0  501    0  0.00000000000E+00 -0.00000000000E+00 -0.85295085884E+03  0.85295085884E+03  0.00000000000E+00 0. -1.
        -24    2    1    2    0    0  0.16586036025E+03  0.63626381265E+03  0.39706050795E+03  0.77243406390E+03  0.81584543327E+02 0.  0.
        254    2    1    2    0    0 -0.16586036025E+03 -0.63626381265E+03 -0.20155024763E+03  0.11289779141E+04  0.89533643388E+03 0.  0.
         23    2    4    4    0    0 -0.20444120357E+03 -0.34583684359E+03 -0.53543638644E+03  0.67507598402E+03  0.87384965367E+02 0.  0.
         23    2    4    4    0    0  0.38580843324E+02 -0.29042696905E+03  0.33388613881E+03  0.45390193009E+03  0.93331144996E+02 0.  0.
          3    1    3    3  502    0  0.28614522717E+02  0.39770986692E+02  0.43856595748E+02  0.65756545555E+02  0.00000000000E+00 0. -1.
         -4    1    3    3    0  502  0.13724583753E+03  0.59649282596E+03  0.35320391220E+03  0.70667751834E+03  0.00000000000E+00 0.  1.
         11    1    5    5    0    0 -0.64564971612E+02 -0.13009341634E+03 -0.26320484772E+03  0.30061557578E+03  0.00000000000E+00 0. -1.
        -11    1    5    5    0    0 -0.13987623196E+03 -0.21574342725E+03 -0.27223153871E+03  0.37446040824E+03  0.00000000000E+00 0.  1.
          1    1    6    6  503    0 -0.21434068282E+02 -0.17016458573E+03  0.16424515670E+03  0.23746973917E+03  0.00000000000E+00 0. -1.
         -1    1    6    6    0  503  0.60014911606E+02 -0.12026238332E+03  0.16964098211E+03  0.21643219093E+03  0.00000000000E+00 0.  1.
<mgrwt>
<rscale>  0 0.18913337E+04</rscale>
<asrwt>0</asrwt>
<pdfrwt beam="1">  1        1 0.13122321E+00 0.18913337E+04</pdfrwt>
<pdfrwt beam="2">  1       -2 0.16130171E+00 0.18913337E+04</pdfrwt>
<totfact> 0.40238414E+00</totfact>
</mgrwt>
</event>
<event>
12    4  0.4320235E-008  0.2167055E+04  0.7818608E-02  0.8532267E-01
          3   -1    0    0  501    0  0.00000000000E+00  0.00000000000E+00  0.10256997871E+04  0.10256997871E+04  0.00000000000E+00 0. -1.
         -4   -1    0    0    0  501 -0.00000000000E+00 -0.00000000000E+00 -0.11446154206E+04  0.11446154206E+04  0.00000000000E+00 0.  1.
        -24    2    1    2    0    0  0.72667725576E+03 -0.44577791789E+03  0.23851077485E+03  0.88874349597E+03  0.78738972427E+02 0.  0.
        254    2    1    2    0    0 -0.72667725576E+03  0.44577791789E+03 -0.35742640828E+03  0.12815717117E+04  0.88763428781E+03 0.  0.
         23    2    4    4    0    0 -0.80965123683E+03  0.51558433503E+03 -0.49480359736E+03  0.10838750245E+04  0.92693780540E+02 0.  0.
         23    2    4    4    0    0  0.82973981063E+02 -0.69806417141E+02  0.13737718908E+03  0.19769668725E+03  0.91944932764E+02 0.  0.
          1    1    3    3  502    0  0.88494389306E+02 -0.45616986933E+02  0.53788610203E+02  0.11316086348E+03  0.00000000000E+00 0. -1.
         -2    1    3    3    0  502  0.63818286646E+03 -0.40016093096E+03  0.18472216465E+03  0.77558263249E+03  0.00000000000E+00 0.  1.
         11    1    5    5    0    0 -0.11072208306E+03  0.35036302413E+02 -0.57499505309E+02  0.12958825284E+03  0.00000000000E+00 0.  1.
        -11    1    5    5    0    0 -0.69892915377E+03  0.48054803262E+03 -0.43730409205E+03  0.95428677166E+03  0.00000000000E+00 0. -1.
          1    1    6    6  503    0  0.10316506487E+03 -0.57043776349E+02  0.11950252638E+03  0.16786267257E+03  0.00000000000E+00 0. -1.
         -1    1    6    6    0  503 -0.20191083807E+02 -0.12762640793E+02  0.17874662698E+02  0.29834014679E+02  0.00000000000E+00 0.  1.
<mgrwt>
<rscale>  0 0.21670550E+04</rscale>
<asrwt>0</asrwt>
<pdfrwt beam="1">  1        3 0.15779997E+00 0.21670550E+04</pdfrwt>
<pdfrwt beam="2">  1       -4 0.17609468E+00 0.21670550E+04</pdfrwt>
<totfact> 0.11361738E-01</totfact>
</mgrwt>
</event>
<event>
12    4  0.4320235E-008  0.2641426E+04  0.7818608E-02  0.8354264E-01
         -2   -1    0    0    0  501 -0.00000000000E+00  0.00000000000E+00  0.18494201200E+04  0.18494201200E+04  0.00000000000E+00 0.  1.
          1   -1    0    0  501    0  0.00000000000E+00 -0.00000000000E+00 -0.94315103497E+03  0.94315103497E+03  0.00000000000E+00 0. -1.
        -24    2    1    2    0    0  0.48754262127E+03  0.99837192801E+03  0.76881412430E+03  0.13535358805E+04  0.80869696220E+02 0.  0.
        254    2    1    2    0    0 -0.48754262127E+03 -0.99837192801E+03  0.13745496077E+03  0.14390352746E+04  0.90414840650E+03 0.  0.
         23    2    4    4    0    0 -0.71457698120E+03 -0.56287400148E+03  0.20064576300E+03  0.93589100960E+03  0.90475720655E+02 0.  0.
         23    2    4    4    0    0  0.22703435994E+03 -0.43549792653E+03 -0.63190802228E+02  0.50314426495E+03  0.89207787042E+02 0.  0.
          1    1    3    3  502    0  0.19032677642E+03  0.31028387774E+03  0.23330259805E+03  0.43235456383E+03  0.00000000000E+00 0. -1.
         -4    1    3    3    0  502  0.29721584484E+03  0.68808805027E+03  0.53551152625E+03  0.92118131662E+03  0.00000000000E+00 0.  1.
         11    1    5    5    0    0 -0.67072012589E+03 -0.54023813306E+03  0.17016430883E+03  0.87788303303E+03  0.00000000000E+00 0. -1.
        -11    1    5    5    0    0 -0.43856855312E+02 -0.22635868425E+02  0.30481454168E+02  0.58007976567E+02  0.00000000000E+00 0.  1.
          3    1    6    6  503    0  0.17103670979E+03 -0.34854861374E+03 -0.85002230454E+02  0.39744819967E+03  0.00000000000E+00 0. -1.
         -3    1    6    6    0  503  0.55997650145E+02 -0.86949312785E+02  0.21811428226E+02  0.10569606529E+03  0.00000000000E+00 0.  1.
<mgrwt>
<rscale>  0 0.26414258E+04</rscale>
<asrwt>0</asrwt>
<pdfrwt beam="1">  1        1 0.14510016E+00 0.26414258E+04</pdfrwt>
<pdfrwt beam="2">  1       -2 0.28452617E+00 0.26414258E+04</pdfrwt>
<totfact> 0.51061265E-01</totfact>
</mgrwt>
</event>
<event>
12    4  0.4320235E-008  0.1711694E+04  0.7818608E-02  0.8754723E-01
          1   -1    0    0  501    0  0.00000000000E+00  0.00000000000E+00  0.32581990603E+03  0.32581990603E+03  0.00000000000E+00 0. -1.
         -2   -1    0    0    0  501 -0.00000000000E+00 -0.00000000000E+00 -0.22480960678E+04  0.22480960678E+04  0.00000000000E+00 0.  1.
        -24    2    1    2    0    0  0.46401812506E+03  0.24838934300E+02 -0.12671858382E+04  0.13521068340E+04  0.80642104138E+02 0.  0.
        254    2    1    2    0    0 -0.46401812506E+03 -0.24838934300E+02 -0.65509032355E+03  0.12218091398E+04  0.92073038893E+03 0.  0.
         23    2    4    4    0    0 -0.30966142627E+03  0.16699555545E+02 -0.87673142323E+03  0.93486817981E+03  0.95663216855E+02 0.  0.
         23    2    4    4    0    0 -0.15435669879E+03 -0.41538489845E+02  0.22164109968E+03  0.28694096002E+03  0.87515146500E+02 0.  0.
          3    1    3    3  502    0  0.85137052695E+02 -0.16408329093E+02 -0.17431182552E+03  0.19468477990E+03  0.00000000000E+00 0. -1.
         -4    1    3    3    0  502  0.37888107236E+03  0.41247263392E+02 -0.10928740127E+04  0.11574220541E+04  0.00000000000E+00 0.  1.
         11    1    5    5    0    0 -0.20461431980E+03  0.29753359484E+02 -0.45042053630E+03  0.49561168447E+03  0.00000000000E+00 0.  1.
        -11    1    5    5    0    0 -0.10504710647E+03 -0.13053803939E+02 -0.42631088693E+03  0.43925649534E+03  0.00000000000E+00 0. -1.
          4    1    6    6  503    0 -0.47753114129E+02  0.10097811130E+02  0.19315430729E+02  0.52492014278E+02  0.00000000000E+00 0. -1.
         -4    1    6    6    0  503 -0.10660358466E+03 -0.51636300975E+02  0.20232566895E+03  0.23444894574E+03  0.00000000000E+00 0.  1.
<mgrwt>
<rscale>  0 0.17116944E+04</rscale>
<asrwt>0</asrwt>
<pdfrwt beam="1">  1        1 0.50126139E-01 0.17116944E+04</pdfrwt>
<pdfrwt beam="2">  1       -2 0.34586093E+00 0.17116944E+04</pdfrwt>
<totfact> 0.10848412E+00</totfact>
</mgrwt>
</event>
<event>
12    4  0.4320235E-008  0.2431108E+04  0.7818608E-02  0.8427948E-01
          1   -1    0    0  501    0  0.00000000000E+00  0.00000000000E+00  0.10504447826E+04  0.10504447826E+04  0.00000000000E+00 0. -1.
         -2   -1    0    0    0  501 -0.00000000000E+00 -0.00000000000E+00 -0.14066153911E+04  0.14066153911E+04  0.00000000000E+00 0.  1.
        -24    2    1    2    0    0  0.99787874082E+03 -0.30810987107E+03 -0.11248669118E+03  0.10536766371E+04  0.82991119153E+02 0.  0.
        254    2    1    2    0    0 -0.99787874082E+03  0.30810987107E+03 -0.24368391732E+03  0.14033835366E+04  0.90521258563E+03 0.  0.
         23    2    4    4    0    0 -0.24765963720E+03  0.22933721637E+03 -0.49337872685E+03  0.60345730205E+03  0.82506318377E+02 0.  0.
         23    2    4    4    0    0 -0.75021910362E+03  0.78772654692E+02  0.24969480953E+03  0.79992623454E+03  0.92198960035E+02 0.  0.
          1    1    3    3  502    0  0.85007534073E+03 -0.28032197530E+03 -0.11992198380E+03  0.90310009243E+03  0.00000000000E+00 0. -1.
         -2    1    3    3    0  502  0.14780340009E+03 -0.27787895767E+02  0.74352926140E+01  0.15057654467E+03  0.00000000000E+00 0.  1.
         11    1    5    5    0    0 -0.13246299824E+03  0.67415882527E+02 -0.20315066119E+03  0.25171717912E+03  0.00000000000E+00 0. -1.
        -11    1    5    5    0    0 -0.11519663896E+03  0.16192133385E+03 -0.29022806566E+03  0.35174012293E+03  0.00000000000E+00 0.  1.
          4    1    6    6  503    0 -0.44089893228E+03  0.87258630082E+01  0.11785229598E+03  0.45646157871E+03  0.00000000000E+00 0. -1.
         -4    1    6    6    0  503 -0.30932017134E+03  0.70046791684E+02  0.13184251356E+03  0.34346465583E+03  0.00000000000E+00 0.  1.
<mgrwt>
<rscale>  0 0.24311082E+04</rscale>
<asrwt>0</asrwt>
<pdfrwt beam="1">  1        1 0.16160689E+00 0.24311082E+04</pdfrwt>
<pdfrwt beam="2">  1       -2 0.21640237E+00 0.24311082E+04</pdfrwt>
<totfact> 0.11291568E+00</totfact>
</mgrwt>
</event>
<event>
12    4  0.4320235E-008  0.1339904E+04  0.7818608E-02  0.8998506E-01
          1   -1    0    0  501    0  0.00000000000E+00  0.00000000000E+00  0.65523866385E+03  0.65523866385E+03  0.00000000000E+00 0. -1.
         -2   -1    0    0    0  501 -0.00000000000E+00 -0.00000000000E+00 -0.68499521313E+03  0.68499521313E+03  0.00000000000E+00 0.  1.
        -24    2    1    2    0    0 -0.14871515964E+02 -0.86943531782E+02 -0.35905709877E+03  0.37827343440E+03  0.79927787984E+02 0.  0.
        254    2    1    2    0    0  0.14871515964E+02  0.86943531782E+02  0.32930054948E+03  0.96196044258E+03  0.89952693206E+03 0.  0.
         23    2    4    4    0    0  0.76038139018E+02  0.47543717556E+03  0.25215192443E+03  0.55087886099E+03  0.89803229372E+02 0.  0.
         23    2    4    4    0    0 -0.61166623054E+02 -0.38849364378E+03  0.77148625051E+02  0.41108158159E+03  0.91473981783E+02 0.  0.
          3    1    3    3  502    0 -0.35375206905E+02 -0.20900553186E+02 -0.70999094089E+02  0.82031151085E+02  0.00000000000E+00 0. -1.
         -4    1    3    3    0  502  0.20503690941E+02 -0.66042978597E+02 -0.28805800468E+03  0.29624228332E+03  0.00000000000E+00 0.  1.
         11    1    5    5    0    0  0.12974956147E+02  0.15767284539E+03  0.38544816454E+02  0.16283359155E+03  0.00000000000E+00 0. -1.
        -11    1    5    5    0    0  0.63063182871E+02  0.31776433017E+03  0.21360710798E+03  0.38804526945E+03  0.00000000000E+00 0.  1.
          3    1    6    6  503    0  0.23081954871E+02 -0.65066612042E+02  0.21123141881E+02  0.72198530222E+02  0.00000000000E+00 0. -1.
         -3    1    6    6    0  503 -0.84248577925E+02 -0.32342703173E+03  0.56025483170E+02  0.33888305137E+03  0.00000000000E+00 0.  1.
<mgrwt>
<rscale>  0 0.13399035E+04</rscale>
<asrwt>0</asrwt>
<pdfrwt beam="1">  1        1 0.10080595E+00 0.13399035E+04</pdfrwt>
<pdfrwt beam="2">  1       -2 0.10538388E+00 0.13399035E+04</pdfrwt>
<totfact> 0.18805209E+01</totfact>
</mgrwt>
</event>
<event>
12    4  0.4320235E-008  0.1157686E+04  0.7818608E-02  0.9150722E-01
          1   -1    0    0  501    0  0.00000000000E+00  0.00000000000E+00  0.14804403863E+04  0.14804403863E+04  0.00000000000E+00 0. -1.
         -2   -1    0    0    0  501 -0.00000000000E+00 -0.00000000000E+00 -0.22632405124E+03  0.22632405124E+03  0.00000000000E+00 0.  1.
        -24    2    1    2    0    0  0.10067436527E+03  0.96480794433E+02  0.47690645799E+03  0.50346894889E+03  0.81224019267E+02 0.  0.
        254    2    1    2    0    0 -0.10067436527E+03 -0.96480794433E+02  0.77720987711E+03  0.12032954887E+04  0.90797630394E+03 0.  0.
         23    2    4    4    0    0 -0.37628401693E+03 -0.34614700103E+03  0.33912586999E+03  0.62052312237E+03  0.92925679881E+02 0.  0.
         23    2    4    4    0    0  0.27560965166E+03  0.24966620660E+03  0.43808400712E+03  0.58277236633E+03  0.97016178309E+02 0.  0.
          1    1    3    3  502    0  0.53074792094E+02  0.36367820223E+02  0.10048932870E+03  0.11932165389E+03  0.00000000000E+00 0. -1.
         -2    1    3    3    0  502  0.47599573172E+02  0.60112974210E+02  0.37641712929E+03  0.38414729500E+03  0.00000000000E+00 0.  1.
         11    1    5    5    0    0 -0.12367610493E+03 -0.65121210624E+02  0.11641931271E+03  0.18190658970E+03  0.00000000000E+00 0. -1.
        -11    1    5    5    0    0 -0.25260791200E+03 -0.28102579041E+03  0.22270655728E+03  0.43861653267E+03  0.00000000000E+00 0.  1.
          2    1    6    6  503    0  0.14845427887E+03  0.14747764621E+03  0.17296898767E+03  0.27148959417E+03  0.00000000000E+00 0. -1.
         -2    1    6    6    0  503  0.12715537279E+03  0.10218856038E+03  0.26511501945E+03  0.31128277215E+03  0.00000000000E+00 0.  1.
<mgrwt>
<rscale>  0 0.11576861E+04</rscale>
<asrwt>0</asrwt>
<pdfrwt beam="1">  1        1 0.22776005E+00 0.11576861E+04</pdfrwt>
<pdfrwt beam="2">  1       -2 0.34819086E-01 0.11576861E+04</pdfrwt>
<totfact> 0.45479230E+01</totfact>
</mgrwt>
</event>
<event>
12    4  0.4320235E-008  0.2770134E+04  0.7818608E-02  0.8312601E-01
          1   -1    0    0  501    0  0.00000000000E+00  0.00000000000E+00  0.15145909664E+04  0.15145909664E+04  0.00000000000E+00 0. -1.
         -2   -1    0    0    0  501 -0.00000000000E+00 -0.00000000000E+00 -0.12666193206E+04  0.12666193206E+04  0.00000000000E+00 0.  1.
        -24    2    1    2    0    0  0.78832771287E+03 -0.53253968353E+03  0.90781654351E+03  0.13172879697E+04  0.77830721002E+02 0.  0.
        254    2    1    2    0    0 -0.78832771287E+03  0.53253968353E+03 -0.65984489766E+03  0.14639223172E+04  0.89588736153E+03 0.  0.
         23    2    4    4    0    0 -0.85688360897E+03  0.69712738744E+03 -0.57746022446E+03  0.12498026387E+04  0.91160360403E+02 0.  0.
         23    2    4    4    0    0  0.68555896104E+02 -0.16458770391E+03 -0.82384673200E+02  0.21411967851E+03  0.85270036831E+02 0.  0.
          1    1    3    3  502    0  0.63613116334E+03 -0.45941764946E+03  0.72353456484E+03  0.10673470383E+04  0.00000000000E+00 0. -1.
         -2    1    3    3    0  502  0.15219654952E+03 -0.73122034071E+02  0.18428197866E+03  0.24994093145E+03  0.00000000000E+00 0.  1.
         11    1    5    5    0    0 -0.39557959054E+03  0.26547638459E+03 -0.23562833836E+03  0.53149001596E+03  0.00000000000E+00 0. -1.
        -11    1    5    5    0    0 -0.46130401844E+03  0.43165100284E+03 -0.34183188610E+03  0.71831262277E+03  0.00000000000E+00 0.  1.
          3    1    6    6  503    0  0.44962888040E+02 -0.73766398900E+02 -0.83683506069E+02  0.12027498533E+03  0.00000000000E+00 0. -1.
         -3    1    6    6    0  503  0.23593008064E+02 -0.90821305006E+02  0.12988328687E+01  0.93844693187E+02  0.00000000000E+00 0.  1.
<mgrwt>
<rscale>  0 0.27701337E+04</rscale>
<asrwt>0</asrwt>
<pdfrwt beam="1">  1        1 0.23301399E+00 0.27701337E+04</pdfrwt>
<pdfrwt beam="2">  1       -2 0.19486451E+00 0.27701337E+04</pdfrwt>
<totfact> 0.70063871E-01</totfact>
</mgrwt>
</event>
<event>
12    4  0.4320235E-008  0.1620251E+04  0.7818608E-02  0.8808203E-01
         -2   -1    0    0    0  501 -0.00000000000E+00  0.00000000000E+00  0.12224406452E+04  0.12224406452E+04  0.00000000000E+00 0.  1.
          1   -1    0    0  501    0  0.00000000000E+00 -0.00000000000E+00 -0.53687938969E+03  0.53687938969E+03  0.00000000000E+00 0. -1.
        -24    2    1    2    0    0  0.41730373408E+03 -0.15662718553E+03 -0.11919636430E+03  0.47024788769E+03  0.90834029360E+02 0.  0.
        254    2    1    2    0    0 -0.41730373408E+03  0.15662718553E+03  0.80475761981E+03  0.12890721472E+04  0.90299373879E+03 0.  0.
         23    2    4    4    0    0  0.67110393778E+02  0.40834706547E+03  0.20013545543E+03  0.46883746841E+03  0.92213016624E+02 0.  0.
         23    2    4    4    0    0 -0.48441412786E+03 -0.25171987995E+03  0.60462216438E+03  0.82023467877E+03  0.95901102054E+02 0.  0.
          1    1    3    3  502    0  0.39674291270E+03 -0.13754919377E+03 -0.89390215109E+02  0.42931961293E+03  0.00000000000E+00 0. -1.
         -2    1    3    3    0  502  0.20560821376E+02 -0.19077991758E+02 -0.29806149193E+02  0.40928274761E+02  0.00000000000E+00 0.  1.
         11    1    5    5    0    0  0.46490051333E+02  0.64607805121E+02  0.39424395127E+02  0.88824412673E+02  0.00000000000E+00 0.  1.
        -11    1    5    5    0    0  0.20620342445E+02  0.34373926035E+03  0.16071106030E+03  0.38001305574E+03  0.00000000000E+00 0. -1.
          4    1    6    6  503    0 -0.41609933875E+03 -0.21888423473E+03  0.56391237041E+03  0.73419760925E+03  0.00000000000E+00 0. -1.
         -4    1    6    6    0  503 -0.68314789109E+02 -0.32835645214E+02  0.40709793967E+02  0.86037069525E+02  0.00000000000E+00 0.  1.
<mgrwt>
<rscale>  0 0.16202508E+04</rscale>
<asrwt>0</asrwt>
<pdfrwt beam="1">  1        1 0.82596829E-01 0.16202508E+04</pdfrwt>
<pdfrwt beam="2">  1       -2 0.18806779E+00 0.16202508E+04</pdfrwt>
<totfact> 0.53674385E+00</totfact>
</mgrwt>
</event>
<event>
12    4  0.4320235E-008  0.1269699E+04  0.7818608E-02  0.9053945E-01
         -2   -1    0    0    0  501 -0.00000000000E+00  0.00000000000E+00  0.48845803173E+03  0.48845803173E+03  0.00000000000E+00 0.  1.
          1   -1    0    0  501    0  0.00000000000E+00 -0.00000000000E+00 -0.82511474759E+03  0.82511474759E+03  0.00000000000E+00 0. -1.
        -24    2    1    2    0    0  0.12905391575E+03  0.85581134187E+01 -0.47577391940E+03  0.49929285365E+03  0.78767866877E+02 0.  0.
        254    2    1    2    0    0 -0.12905391575E+03 -0.85581134187E+01  0.13911720354E+03  0.81427992567E+03  0.79181440158E+03 0.  0.
         23    2    4    4    0    0 -0.31209800711E+02  0.14782703395E+03 -0.28934974530E+03  0.33880619782E+03  0.90771586708E+02 0.  0.
         23    2    4    4    0    0 -0.97844115037E+02 -0.15638514737E+03  0.42846694883E+03  0.47547372785E+03  0.91986708096E+02 0.  0.
          3    1    3    3  502    0  0.59730270985E+01  0.25446908144E+02 -0.62384064645E+02  0.67638699784E+02  0.00000000000E+00 0. -1.
         -4    1    3    3    0  502  0.12308088865E+03 -0.16888794726E+02 -0.41338985475E+03  0.43165415387E+03  0.00000000000E+00 0.  1.
         11    1    5    5    0    0 -0.14549507147E+01  0.14629231040E+03 -0.24567505759E+03  0.28593669035E+03  0.00000000000E+00 0. -1.
        -11    1    5    5    0    0 -0.29754849996E+02  0.15347235486E+01 -0.43674687706E+02  0.52869507477E+02  0.00000000000E+00 0.  1.
          1    1    6    6  503    0 -0.88737952180E+02 -0.12974968466E+03  0.25367667871E+03  0.29843133573E+03  0.00000000000E+00 0. -1.
         -1    1    6    6    0  503 -0.91061628569E+01 -0.26635462707E+02  0.17479027012E+03  0.17704239211E+03  0.00000000000E+00 0.  1.
<mgrwt>
<rscale>  0 0.12696991E+04</rscale>
<asrwt>0</asrwt>
<pdfrwt beam="1">  1        1 0.12694073E+00 0.12696991E+04</pdfrwt>
<pdfrwt beam="2">  1       -2 0.75147391E-01 0.12696991E+04</pdfrwt>
<totfact> 0.28853070E+01</totfact>
</mgrwt>
</event>
<event>
12    4  0.4320235E-008  0.1451141E+04  0.7818608E-02  0.8917610E-01
         -2   -1    0    0    0  501 -0.00000000000E+00  0.00000000000E+00  0.43732929253E+03  0.43732929253E+03  0.00000000000E+00 0.  1.
          1   -1    0    0  501    0  0.00000000000E+00 -0.00000000000E+00 -0.12037892540E+04  0.12037892540E+04  0.00000000000E+00 0. -1.
        -24    2    1    2    0    0  0.24147532138E+03 -0.34140500026E+03 -0.53223894003E+02  0.42875814017E+03  0.78313822741E+02 0.  0.
        254    2    1    2    0    0 -0.24147532138E+03  0.34140500026E+03 -0.71323606751E+03  0.12123604064E+04  0.88670421334E+03 0.  0.
         23    2    4    4    0    0 -0.30706975267E+03 -0.61262900246E+02 -0.72414511527E+03  0.79425579179E+03  0.91712261333E+02 0.  0.
         23    2    4    4    0    0  0.65594431294E+02  0.40266790050E+03  0.10909047758E+02  0.41810461460E+03  0.90820668992E+02 0.  0.
          3    1    3    3  502    0  0.13888857657E+02 -0.56254886675E+02 -0.24114076306E+02  0.62761463638E+02  0.00000000000E+00 0. -1.
         -4    1    3    3    0  502  0.22758646372E+03 -0.28515011358E+03 -0.29109817698E+02  0.36599667653E+03  0.00000000000E+00 0.  1.
         11    1    5    5    0    0 -0.19073065995E+03 -0.52398755226E+02 -0.55135979849E+03  0.58576568829E+03  0.00000000000E+00 0. -1.
        -11    1    5    5    0    0 -0.11633909272E+03 -0.88641450201E+01 -0.17278531678E+03  0.20849010350E+03  0.00000000000E+00 0.  1.
          3    1    6    6  503    0  0.45301665783E+02  0.36162408713E+03 -0.16351831178E+02  0.36481721958E+03  0.00000000000E+00 0. -1.
         -3    1    6    6    0  503  0.20292765511E+02  0.41043813369E+02  0.27260878937E+02  0.53287395023E+02  0.00000000000E+00 0.  1.
<mgrwt>
<rscale>  0 0.14511407E+04</rscale>
<asrwt>0</asrwt>
<pdfrwt beam="1">  1        1 0.18519834E+00 0.14511407E+04</pdfrwt>
<pdfrwt beam="2">  1       -2 0.67281431E-01 0.14511407E+04</pdfrwt>
<totfact> 0.18325637E+01</totfact>
</mgrwt>
</event>
<event>
12    4  0.4320235E-008  0.1330474E+04  0.7818608E-02  0.9005742E-01
          1   -1    0    0  501    0  0.00000000000E+00  0.00000000000E+00  0.15371636330E+04  0.15371636330E+04  0.00000000000E+00 0. -1.
         -2   -1    0    0    0  501 -0.00000000000E+00 -0.00000000000E+00 -0.28789398229E+03  0.28789398229E+03  0.00000000000E+00 0.  1.
        -24    2    1    2    0    0 -0.11539938634E+03 -0.21921479154E+03 -0.30830499241E+02  0.26218629593E+03  0.80118605141E+02 0.  0.
        254    2    1    2    0    0  0.11539938634E+03  0.21921479154E+03  0.12801001499E+04  0.15628713194E+04  0.86170657637E+03 0.  0.
         23    2    4    4    0    0 -0.12336189087E+03  0.38042193341E+03  0.23086384539E+03  0.47064487677E+03  0.90936688849E+02 0.  0.
         23    2    4    4    0    0  0.23876127721E+03 -0.16120714187E+03  0.10492363046E+04  0.10922264426E+04  0.95221263346E+02 0.  0.
          1    1    3    3  502    0 -0.40655726795E+02 -0.79754011769E+02  0.27346597045E+02  0.93602494007E+02  0.00000000000E+00 0. -1.
         -2    1    3    3    0  502 -0.74743659549E+02 -0.13946077977E+03 -0.58177096286E+02  0.16858380192E+03  0.00000000000E+00 0.  1.
         11    1    5    5    0    0 -0.89243278991E+02  0.24928922994E+03  0.19959926983E+03  0.33158611480E+03  0.00000000000E+00 0. -1.
        -11    1    5    5    0    0 -0.34118611877E+02  0.13113270347E+03  0.31264575566E+02  0.13905876197E+03  0.00000000000E+00 0.  1.
          1    1    6    6  503    0  0.20234605051E+03 -0.14416120842E+03  0.74477624794E+03  0.78512294431E+03  0.00000000000E+00 0. -1.
         -1    1    6    6    0  503  0.36415226698E+02 -0.17045933450E+02  0.30446005661E+03  0.30710349828E+03  0.00000000000E+00 0.  1.
<mgrwt>
<rscale>  0 0.13304738E+04</rscale>
<asrwt>0</asrwt>
<pdfrwt beam="1">  1        1 0.23648671E+00 0.13304738E+04</pdfrwt>
<pdfrwt beam="2">  1       -2 0.44291383E-01 0.13304738E+04</pdfrwt>
<totfact> 0.25636900E+01</totfact>
</mgrwt>
</event>
<event>
12    4  0.4320235E-008  0.2170541E+04  0.7818608E-02  0.8530791E-01
          1   -1    0    0  501    0  0.00000000000E+00  0.00000000000E+00  0.98682699858E+03  0.98682699858E+03  0.00000000000E+00 0. -1.
         -2   -1    0    0    0  501 -0.00000000000E+00 -0.00000000000E+00 -0.11935346349E+04  0.11935346349E+04  0.00000000000E+00 0.  1.
        -24    2    1    2    0    0  0.37005143518E+03  0.44349873299E+03 -0.81100643328E+03  0.99885676467E+03  0.79713302971E+02 0.  0.
        254    2    1    2    0    0 -0.37005143518E+03 -0.44349873299E+03  0.60429879693E+03  0.11815048688E+04  0.83495360846E+03 0.  0.
         23    2    4    4    0    0 -0.58368372815E+03 -0.13255045244E+03  0.24541010929E+03  0.65326694338E+03  0.90968459496E+02 0.  0.
         23    2    4    4    0    0  0.21363229298E+03 -0.31094828055E+03  0.35888868765E+03  0.52823792546E+03  0.88919210505E+02 0.  0.
          3    1    3    3  502    0  0.22131555437E+02  0.48609124555E+02 -0.10993676522E+03  0.12222415917E+03  0.00000000000E+00 0. -1.
         -2    1    3    3    0  502  0.34791987974E+03  0.39488960843E+03 -0.70106966805E+03  0.87663260550E+03  0.00000000000E+00 0.  1.
         11    1    5    5    0    0 -0.45274385155E+03 -0.82530658318E+02  0.15130807826E+03  0.48444033609E+03  0.00000000000E+00 0. -1.
        -11    1    5    5    0    0 -0.13093987660E+03 -0.50019794120E+02  0.94102031021E+02  0.16882660730E+03  0.00000000000E+00 0.  1.
          1    1    6    6  503    0  0.93863068627E+02 -0.15303463287E+03  0.23020216690E+03  0.29192963563E+03  0.00000000000E+00 0. -1.
         -1    1    6    6    0  503  0.11976922435E+03 -0.15791364768E+03  0.12868652074E+03  0.23630828983E+03  0.00000000000E+00 0.  1.
<mgrwt>
<rscale>  0 0.21705411E+04</rscale>
<asrwt>0</asrwt>
<pdfrwt beam="1">  1        1 0.15181954E+00 0.21705411E+04</pdfrwt>
<pdfrwt beam="2">  1       -2 0.18362071E+00 0.21705411E+04</pdfrwt>
<totfact> 0.21259220E+00</totfact>
</mgrwt>
</event>
<event>
12    4  0.4320235E-008  0.1619056E+04  0.7818608E-02  0.8808926E-01
          1   -1    0    0  501    0  0.00000000000E+00  0.00000000000E+00  0.13163846347E+04  0.13163846347E+04  0.00000000000E+00 0. -1.
         -2   -1    0    0    0  501 -0.00000000000E+00 -0.00000000000E+00 -0.49783008197E+03  0.49783008197E+03  0.00000000000E+00 0.  1.
        -24    2    1    2    0    0  0.50104638974E+02  0.36872108100E+03  0.74980247255E+03  0.84090963173E+03  0.80371328693E+02 0.  0.
        254    2    1    2    0    0 -0.50104638974E+02 -0.36872108100E+03  0.68752080224E+02  0.97330508497E+03  0.89673308709E+03 0.  0.
         23    2    4    4    0    0  0.25738464829E+03 -0.53319745300E+03  0.11542846025E+03  0.60984336388E+03  0.89659455595E+02 0.  0.
         23    2    4    4    0    0 -0.30748928727E+03  0.16447637200E+03 -0.46676380030E+02  0.36346172109E+03  0.91233763030E+02 0.  0.
          3    1    3    3  502    0  0.36427005968E+02  0.35989430720E+03  0.69178690047E+03  0.78065354338E+03  0.00000000000E+00 0. -1.
         -4    1    3    3    0  502  0.13677633006E+02  0.88267737963E+01  0.58015572079E+02  0.60256088356E+02  0.00000000000E+00 0.  1.
         11    1    5    5    0    0  0.11985170044E+03 -0.28597168860E+03  0.10275314561E+03  0.32665340303E+03  0.00000000000E+00 0. -1.
        -11    1    5    5    0    0  0.13753294785E+03 -0.24722576440E+03  0.12675314644E+02  0.28318996085E+03  0.00000000000E+00 0.  1.
          4    1    6    6  503    0 -0.61522925020E+02  0.32465180054E+02  0.27210647865E+02  0.74695900665E+02  0.00000000000E+00 0. -1.
         -4    1    6    6    0  503 -0.24596636225E+03  0.13201119195E+03 -0.73887027894E+02  0.28876582043E+03  0.00000000000E+00 0.  1.
<mgrwt>
<rscale>  0 0.16190564E+04</rscale>
<asrwt>0</asrwt>
<pdfrwt beam="1">  1        1 0.20252071E+00 0.16190564E+04</pdfrwt>
<pdfrwt beam="2">  1       -2 0.76589244E-01 0.16190564E+04</pdfrwt>
<totfact> 0.11277966E+01</totfact>
</mgrwt>
</event>
<event>
12    4  0.4320235E-008  0.3061308E+04  0.7818608E-02  0.8226438E-01
         -2   -1    0    0    0  501 -0.00000000000E+00  0.00000000000E+00  0.19845767780E+04  0.19845767780E+04  0.00000000000E+00 0.  1.
          1   -1    0    0  501    0  0.00000000000E+00 -0.00000000000E+00 -0.11805547554E+04  0.11805547554E+04  0.00000000000E+00 0. -1.
        -24    2    1    2    0    0  0.75871889898E+02  0.75021392155E+03 -0.84837994448E+03  0.11371525463E+04  0.69209187611E+02 0.  0.
        254    2    1    2    0    0 -0.75871889898E+02 -0.75021392155E+03  0.16524019670E+04  0.20279789870E+04  0.90204713814E+03 0.  0.
         23    2    4    4    0    0  0.16827156764E+03 -0.46406110003E+02 -0.15299424524E+02  0.19925909428E+03  0.94875005886E+02 0.  0.
         23    2    4    4    0    0 -0.24414345754E+03 -0.70380781154E+03  0.16677013916E+04  0.18287198927E+04  0.89649602746E+02 0.  0.
          1    1    3    3  502    0  0.70439866063E+02  0.54052847320E+03 -0.65164405149E+03  0.84957211283E+03  0.00000000000E+00 0. -1.
         -2    1    3    3    0  502  0.54320238349E+01  0.20968544835E+03 -0.19673589299E+03  0.28758043349E+03  0.00000000000E+00 0.  1.
         11    1    5    5    0    0  0.14890130138E+03 -0.34081540877E+01 -0.25238339339E+02  0.15106351922E+03  0.00000000000E+00 0. -1.
        -11    1    5    5    0    0  0.19370266263E+02 -0.42997955916E+02  0.99389148156E+01  0.48195575064E+02  0.00000000000E+00 0.  1.
          1    1    6    6  503    0 -0.18405590036E+03 -0.62292566040E+03  0.14480387118E+04  0.15870504289E+04  0.00000000000E+00 0. -1.
         -1    1    6    6    0  503 -0.60087557179E+02 -0.80882151145E+02  0.21966267972E+03  0.24166946386E+03  0.00000000000E+00 0.  1.
<mgrwt>
<rscale>  0 0.30613079E+04</rscale>
<asrwt>0</asrwt>
<pdfrwt beam="1">  1        1 0.18162381E+00 0.30613079E+04</pdfrwt>
<pdfrwt beam="2">  1       -2 0.30531950E+00 0.30613079E+04</pdfrwt>
<totfact> 0.24192494E-01</totfact>
</mgrwt>
</event>
<event>
12    4  0.4320235E-008  0.1653844E+04  0.7818608E-02  0.8788136E-01
          1   -1    0    0  501    0  0.00000000000E+00  0.00000000000E+00  0.52611794208E+03  0.52611794208E+03  0.00000000000E+00 0. -1.
         -2   -1    0    0    0  501 -0.00000000000E+00 -0.00000000000E+00 -0.12997089663E+04  0.12997089663E+04  0.00000000000E+00 0.  1.
        -24    2    1    2    0    0 -0.41790064958E+03  0.37127431608E+03 -0.35341323414E+03  0.66609431968E+03  0.79342031386E+02 0.  0.
        254    2    1    2    0    0  0.41790064958E+03 -0.37127431608E+03 -0.42017779010E+03  0.11597325887E+04  0.92517281161E+03 0.  0.
         23    2    4    4    0    0  0.54847616618E+03 -0.57912532979E+03 -0.39986456446E+03  0.89693127590E+03  0.91552123395E+02 0.  0.
         23    2    4    4    0    0 -0.13057551660E+03  0.20785101371E+03 -0.20313225645E+02  0.26280131283E+03  0.91650932628E+02 0.  0.
          1    1    3    3  502    0 -0.21565303126E+03  0.19698116270E+03 -0.23099469727E+03  0.37237932075E+03  0.00000000000E+00 0. -1.
         -2    1    3    3    0  502 -0.20224761832E+03  0.17429315339E+03 -0.12241853687E+03  0.29371499894E+03  0.00000000000E+00 0.  1.
         11    1    5    5    0    0  0.26185479506E+03 -0.28832330104E+03 -0.14496356678E+03  0.41558716933E+03  0.00000000000E+00 0.  1.
        -11    1    5    5    0    0  0.28662137112E+03 -0.29080202875E+03 -0.25490099768E+03  0.48134410657E+03  0.00000000000E+00 0. -1.
          2    1    6    6  503    0 -0.86217458465E+02  0.16654559928E+03  0.22081477779E+02  0.18883452662E+03  0.00000000000E+00 0. -1.
         -2    1    6    6    0  503 -0.44358058139E+02  0.41305414423E+02 -0.42394703423E+02  0.73966786201E+02  0.00000000000E+00 0.  1.
<mgrwt>
<rscale>  0 0.16538443E+04</rscale>
<asrwt>0</asrwt>
<pdfrwt beam="1">  1        1 0.80941221E-01 0.16538443E+04</pdfrwt>
<pdfrwt beam="2">  1       -2 0.19995523E+00 0.16538443E+04</pdfrwt>
<totfact> 0.45889912E+00</totfact>
</mgrwt>
</event>
<event>
12    4  0.4320235E-008  0.1507524E+04  0.7818608E-02  0.8879465E-01
          3   -1    0    0  501    0  0.00000000000E+00  0.00000000000E+00  0.58379185027E+03  0.58379185027E+03  0.00000000000E+00 0. -1.
         -4   -1    0    0    0  501 -0.00000000000E+00 -0.00000000000E+00 -0.97321873374E+03  0.97321873374E+03  0.00000000000E+00 0.  1.
        -24    2    1    2    0    0  0.15735972441E+03  0.25686111785E+03  0.25458049048E+03  0.40258660827E+03  0.80777684368E+02 0.  0.
        254    2    1    2    0    0 -0.15735972441E+03 -0.25686111785E+03 -0.64400737395E+03  0.11544239757E+04  0.90951058340E+03 0.  0.
         23    2    4    4    0    0 -0.43915721490E+03 -0.81595762830E+02 -0.66451835635E+03  0.80632549008E+03  0.95179946008E+02 0.  0.
         23    2    4    4    0    0  0.28179749049E+03 -0.17526535502E+03  0.20510982401E+02  0.34809848565E+03  0.10307320215E+03 0.  0.
          1    1    3    3  502    0  0.16015296237E+03  0.21928638283E+03  0.20460048394E+03  0.33999536332E+03  0.00000000000E+00 0. -1.
         -2    1    3    3    0  502 -0.27932379600E+01  0.37574735023E+02  0.49980006537E+02  0.62591244945E+02  0.00000000000E+00 0.  1.
         11    1    5    5    0    0 -0.14234083530E+03 -0.56698653441E+02 -0.16849227024E+03  0.22773953505E+03  0.00000000000E+00 0. -1.
        -11    1    5    5    0    0 -0.29681637959E+03 -0.24897109388E+02 -0.49602608612E+03  0.57858595503E+03  0.00000000000E+00 0.  1.
          1    1    6    6  503    0  0.12309035910E+03 -0.23914971780E+02 -0.13709196903E+02  0.12613922648E+03  0.00000000000E+00 0. -1.
         -1    1    6    6    0  503  0.15870713139E+03 -0.15135038324E+03  0.34220179304E+02  0.22195925917E+03  0.00000000000E+00 0.  1.
<mgrwt>
<rscale>  0 0.15075240E+04</rscale>
<asrwt>0</asrwt>
<pdfrwt beam="1">  1        3 0.89814131E-01 0.15075240E+04</pdfrwt>
<pdfrwt beam="2">  1       -4 0.14972596E+00 0.15075240E+04</pdfrwt>
<totfact> 0.74139372E-01</totfact>
</mgrwt>
</event>
<event>
12    4  0.4320235E-008  0.2110251E+04  0.7818608E-02  0.8556741E-01
          3   -1    0    0  501    0  0.00000000000E+00  0.00000000000E+00  0.18520907823E+04  0.18520907823E+04  0.00000000000E+00 0. -1.
         -4   -1    0    0    0  501 -0.00000000000E+00 -0.00000000000E+00 -0.60109901737E+03  0.60109901737E+03  0.00000000000E+00 0.  1.
        -24    2    1    2    0    0 -0.68446641626E+03 -0.47293809390E+03  0.77158713957E+03  0.11374750788E+04  0.79612343816E+02 0.  0.
        254    2    1    2    0    0  0.68446641626E+03  0.47293809390E+03  0.47940462538E+03  0.13157147209E+04  0.89950637367E+03 0.  0.
         23    2    4    4    0    0  0.36652853780E+03  0.32995412559E+03  0.72405713944E+03  0.88046360306E+03  0.88002960847E+02 0.  0.
         23    2    4    4    0    0  0.31793787846E+03  0.14298396831E+03 -0.24465251406E+03  0.43525111783E+03  0.89776239554E+02 0.  0.
          1    1    3    3  502    0 -0.48362587169E+02 -0.48504425424E+02  0.90041791757E+02  0.11313329919E+03  0.00000000000E+00 0. -1.
         -2    1    3    3    0  502 -0.63610382909E+03 -0.42443366847E+03  0.68154534782E+03  0.10243417796E+04  0.00000000000E+00 0.  1.
         11    1    5    5    0    0  0.34334449150E+03  0.29320706045E+03  0.61396886994E+03  0.76211127363E+03  0.00000000000E+00 0. -1.
        -11    1    5    5    0    0  0.23184046309E+02  0.36747065139E+02  0.11008826950E+03  0.11835232943E+03  0.00000000000E+00 0.  1.
          1    1    6    6  503    0  0.15237136728E+03  0.10083286126E+03 -0.16719001166E+03  0.24766267275E+03  0.00000000000E+00 0. -1.
         -1    1    6    6    0  503  0.16556651118E+03  0.42151107052E+02 -0.77462502394E+02  0.18758844508E+03  0.00000000000E+00 0.  1.
<mgrwt>
<rscale>  0 0.21102511E+04</rscale>
<asrwt>0</asrwt>
<pdfrwt beam="1">  1        3 0.28493704E+00 0.21102511E+04</pdfrwt>
<pdfrwt beam="2">  1       -4 0.92476773E-01 0.21102511E+04</pdfrwt>
<totfact> 0.98283199E-02</totfact>
</mgrwt>
</event>
<event>
12    4  0.4320235E-008  0.2166224E+04  0.7818608E-02  0.8532619E-01
         -4   -1    0    0    0  501 -0.00000000000E+00  0.00000000000E+00  0.38817093562E+03  0.38817093562E+03  0.00000000000E+00 0.  1.
          3   -1    0    0  501    0  0.00000000000E+00 -0.00000000000E+00 -0.30222027943E+04  0.30222027943E+04  0.00000000000E+00 0. -1.
        -24    2    1    2    0    0 -0.38340566191E+01  0.73484139648E+03 -0.19001523379E+04  0.20401044732E+04  0.10696156501E+03 0.  0.
        254    2    1    2    0    0  0.38340566191E+01 -0.73484139648E+03 -0.73387952073E+03  0.13702692567E+04  0.89389714557E+03 0.  0.
         23    2    4    4    0    0  0.21786109426E+03 -0.84652252564E+03 -0.45143686853E+03  0.98832062349E+03  0.94438158228E+02 0.  0.
         23    2    4    4    0    0 -0.21402703764E+03  0.11168112916E+03 -0.28244265220E+03  0.38194863319E+03  0.88491011753E+02 0.  0.
          1    1    3    3  502    0  0.93414781301E+01  0.72687878228E+03 -0.18523601909E+04  0.19898940435E+04  0.00000000000E+00 0. -1.
         -2    1    3    3    0  502 -0.13175534749E+02  0.79626142053E+01 -0.47792147037E+02  0.50210429786E+02  0.00000000000E+00 0.  1.
         11    1    5    5    0    0  0.85052372239E+02 -0.20837479279E+03 -0.14773340332E+03  0.26921946206E+03  0.00000000000E+00 0.  1.
        -11    1    5    5    0    0  0.13280872202E+03 -0.63814773285E+03 -0.30370346521E+03  0.71910116143E+03  0.00000000000E+00 0. -1.
          3    1    6    6  503    0 -0.16697441740E+03  0.69857481637E+02 -0.25633425872E+03  0.31379575523E+03  0.00000000000E+00 0. -1.
         -3    1    6    6    0  503 -0.47052620240E+02  0.41823647523E+02 -0.26108393475E+02  0.68152877954E+02  0.00000000000E+00 0.  1.
<mgrwt>
<rscale>  0 0.21662237E+04</rscale>
<asrwt>0</asrwt>
<pdfrwt beam="1">  1        3 0.46495428E+00 0.21662237E+04</pdfrwt>
<pdfrwt beam="2">  1       -4 0.59718604E-01 0.21662237E+04</pdfrwt>
<totfact> 0.28574730E-02</totfact>
</mgrwt>
</event>
<event>
12    4  0.4320235E-008  0.1733912E+04  0.7818608E-02  0.8742256E-01
         -2   -1    0    0    0  501 -0.00000000000E+00  0.00000000000E+00  0.65096247214E+03  0.65096247214E+03  0.00000000000E+00 0.  1.
          1   -1    0    0  501    0  0.00000000000E+00 -0.00000000000E+00 -0.11546172233E+04  0.11546172233E+04  0.00000000000E+00 0. -1.
        -24    2    1    2    0    0 -0.43247250347E+03 -0.42283989642E+03 -0.62662102243E+02  0.61282205344E+03  0.76146476359E+02 0.  0.
        254    2    1    2    0    0  0.43247250347E+03  0.42283989642E+03 -0.44099264893E+03  0.11927576420E+04  0.92863891362E+03 0.  0.
         23    2    4    4    0    0 -0.38821977945E+01  0.42262620765E+03 -0.58262881955E+03  0.72552061756E+03  0.91081514474E+02 0.  0.
         23    2    4    4    0    0  0.43635470127E+03  0.21368877347E+00  0.14163617063E+03  0.46723702445E+03  0.88567269360E+02 0.  0.
          3    1    3    3  502    0 -0.83331278790E+02 -0.75739516138E+02 -0.41619937798E+02  0.12005330296E+03  0.00000000000E+00 0. -1.
         -4    1    3    3    0  502 -0.34914122468E+03 -0.34710038029E+03 -0.21042164445E+02  0.49276875048E+03  0.00000000000E+00 0.  1.
         11    1    5    5    0    0  0.24712616655E+02  0.42179262973E+02 -0.46257454686E+02  0.67301974420E+02  0.00000000000E+00 0.  1.
        -11    1    5    5    0    0 -0.28594814449E+02  0.38044694468E+03 -0.53637136487E+03  0.65821864314E+03  0.00000000000E+00 0. -1.
          3    1    6    6  503    0  0.33426940266E+03 -0.20135865551E+02  0.14045156705E+03  0.36313651610E+03  0.00000000000E+00 0. -1.
         -3    1    6    6    0  503  0.10208529860E+03  0.20349554324E+02  0.11846035777E+01  0.10410050835E+03  0.00000000000E+00 0.  1.
<mgrwt>
<rscale>  0 0.17339117E+04</rscale>
<asrwt>0</asrwt>
<pdfrwt beam="1">  1        1 0.17763342E+00 0.17339117E+04</pdfrwt>
<pdfrwt beam="2">  1       -2 0.10014807E+00 0.17339117E+04</pdfrwt>
<totfact> 0.79057447E+00</totfact>
</mgrwt>
</event>
<event>
12    4  0.4320235E-008  0.1895102E+04  0.7818608E-02  0.8657298E-01
         -2   -1    0    0    0  501 -0.00000000000E+00  0.00000000000E+00  0.10366063639E+04  0.10366063639E+04  0.00000000000E+00 0.  1.
          1   -1    0    0  501    0  0.00000000000E+00 -0.00000000000E+00 -0.86614682841E+03  0.86614682841E+03  0.00000000000E+00 0. -1.
        -24    2    1    2    0    0 -0.42082382566E+03  0.70797392365E+02 -0.53536214448E+03  0.68920795779E+03  0.79309648386E+02 0.  0.
        254    2    1    2    0    0  0.42082382566E+03 -0.70797392365E+02  0.70582168000E+03  0.12135452346E+04  0.89017011258E+03 0.  0.
         23    2    4    4    0    0  0.54971935011E+03  0.16573460865E+03  0.72223030467E+03  0.92740790295E+03  0.93858835891E+02 0.  0.
         23    2    4    4    0    0 -0.12889552445E+03 -0.23653200102E+03 -0.16408624674E+02  0.28613733160E+03  0.95099347216E+02 0.  0.
          1    1    3    3  502    0 -0.25085246843E+03  0.36425452847E+01 -0.29487807070E+03  0.38716056828E+03  0.00000000000E+00 0. -1.
         -2    1    3    3    0  502 -0.16997135723E+03  0.67154847080E+02 -0.24048407378E+03  0.30204738951E+03  0.00000000000E+00 0.  1.
         11    1    5    5    0    0  0.31372301298E+03  0.11645280488E+03  0.35272364174E+03  0.48620710822E+03  0.00000000000E+00 0. -1.
        -11    1    5    5    0    0  0.23599633713E+03  0.49281803775E+02  0.36950666293E+03  0.44120079474E+03  0.00000000000E+00 0.  1.
          1    1    6    6  503    0 -0.59188019306E+02 -0.68750746421E+02  0.35130004932E+02  0.97283112663E+02  0.00000000000E+00 0. -1.
         -1    1    6    6    0  503 -0.69707505146E+02 -0.16778125460E+03 -0.51538629606E+02  0.18885421894E+03  0.00000000000E+00 0.  1.
<mgrwt>
<rscale>  0 0.18951024E+04</rscale>
<asrwt>0</asrwt>
<pdfrwt beam="1">  1        1 0.13325336E+00 0.18951024E+04</pdfrwt>
<pdfrwt beam="2">  1       -2 0.15947790E+00 0.18951024E+04</pdfrwt>
<totfact> 0.40449865E+00</totfact>
</mgrwt>
</event>
<event>
12    4  0.4320235E-008  0.1768550E+04  0.7818608E-02  0.8723205E-01
         -2   -1    0    0    0  501 -0.00000000000E+00  0.00000000000E+00  0.41163940015E+03  0.41163940015E+03  0.00000000000E+00 0.  1.
          1   -1    0    0  501    0  0.00000000000E+00 -0.00000000000E+00 -0.18995812050E+04  0.18995812050E+04  0.00000000000E+00 0. -1.
        -24    2    1    2    0    0 -0.54005417404E+03  0.55843532986E+02 -0.75934133232E+02  0.55442247396E+03  0.82712006218E+02 0.  0.
        254    2    1    2    0    0  0.54005417404E+03 -0.55843532986E+02 -0.14120076716E+04  0.17567981312E+04  0.89319482643E+03 0.  0.
         23    2    4    4    0    0  0.20655426927E+03  0.17046422509E+03  0.20778164442E+01  0.28344247169E+03  0.92804090687E+02 0.  0.
         23    2    4    4    0    0  0.33349990477E+03 -0.22630775808E+03 -0.14140854880E+04  0.14733556595E+04  0.93283138814E+02 0.  0.
          1    1    3    3  502    0 -0.10961153114E+03 -0.12956542937E+02 -0.38562158794E+02  0.11691706400E+03  0.00000000000E+00 0. -1.
         -4    1    3    3    0  502 -0.43044264290E+03  0.68800075923E+02 -0.37371974439E+02  0.43750540996E+03  0.00000000000E+00 0.  1.
         11    1    5    5    0    0  0.41553598485E+02 -0.58171779532E+01 -0.92904905314E+00  0.41969086702E+02  0.00000000000E+00 0.  1.
        -11    1    5    5    0    0  0.16500067078E+03  0.17628140304E+03  0.30068654973E+01  0.24147338499E+03  0.00000000000E+00 0. -1.
          3    1    6    6  503    0  0.98271949894E+02 -0.10988899252E+03 -0.41644478303E+03  0.44176829235E+03  0.00000000000E+00 0. -1.
         -3    1    6    6    0  503  0.23522795488E+03 -0.11641876556E+03 -0.99764070499E+03  0.10315873671E+04  0.00000000000E+00 0.  1.
<mgrwt>
<rscale>  0 0.17685502E+04</rscale>
<asrwt>0</asrwt>
<pdfrwt beam="1">  1        1 0.29224326E+00 0.17685502E+04</pdfrwt>
<pdfrwt beam="2">  1       -2 0.63329140E-01 0.17685502E+04</pdfrwt>
<totfact> 0.66864928E+00</totfact>
</mgrwt>
</event>
<event>
12    4  0.4320235E-008  0.1272463E+04  0.7818608E-02  0.9051692E-01
          1   -1    0    0  501    0  0.00000000000E+00  0.00000000000E+00  0.27282723937E+04  0.27282723937E+04  0.00000000000E+00 0. -1.
         -2   -1    0    0    0  501 -0.00000000000E+00 -0.00000000000E+00 -0.14836888388E+03  0.14836888388E+03  0.00000000000E+00 0.  1.
        -24    2    1    2    0    0 -0.27638107328E+03 -0.89076598524E+02  0.88589571206E+03  0.93578080796E+03  0.80952886468E+02 0.  0.
        254    2    1    2    0    0  0.27638107328E+03  0.89076598524E+02  0.16940077977E+04  0.19408604696E+04  0.90164061887E+03 0.  0.
         23    2    4    4    0    0  0.47898966949E+03  0.35256974990E+03  0.11207362596E+04  0.12720349407E+04  0.91030735177E+02 0.  0.
         23    2    4    4    0    0 -0.20260859621E+03 -0.26349315137E+03  0.57327153811E+03  0.66882552888E+03  0.90600483450E+02 0.  0.
          3    1    3    3  502    0 -0.14641857128E+03 -0.71099479997E+02  0.59123383886E+03  0.61322996199E+03  0.00000000000E+00 0. -1.
         -4    1    3    3    0  502 -0.12996250200E+03 -0.17977118527E+02  0.29466187320E+03  0.32255084597E+03  0.00000000000E+00 0.  1.
         11    1    5    5    0    0  0.29389590962E+03  0.17057242497E+03  0.57981860752E+03  0.67205608060E+03  0.00000000000E+00 0. -1.
        -11    1    5    5    0    0  0.18509375987E+03  0.18199732493E+03  0.54091765210E+03  0.59997886011E+03  0.00000000000E+00 0.  1.
          1    1    6    6  503    0 -0.89610783283E+02 -0.49734230870E+02  0.18211974075E+03  0.20897652063E+03  0.00000000000E+00 0. -1.
         -1    1    6    6    0  503 -0.11299781293E+03 -0.21375892050E+03  0.39115179736E+03  0.45984900826E+03  0.00000000000E+00 0.  1.
<mgrwt>
<rscale>  0 0.12724633E+04</rscale>
<asrwt>0</asrwt>
<pdfrwt beam="1">  1        1 0.41973418E+00 0.12724633E+04</pdfrwt>
<pdfrwt beam="2">  1       -2 0.22825984E-01 0.12724633E+04</pdfrwt>
<totfact> 0.13796853E+01</totfact>
</mgrwt>
</event>
<event>
12    4  0.4320235E-008  0.1210552E+04  0.7818608E-02  0.9103671E-01
         -2   -1    0    0    0  501 -0.00000000000E+00  0.00000000000E+00  0.35989849898E+03  0.35989849898E+03  0.00000000000E+00 0.  1.
          1   -1    0    0  501    0  0.00000000000E+00 -0.00000000000E+00 -0.10179502710E+04  0.10179502710E+04  0.00000000000E+00 0. -1.
        -24    2    1    2    0    0 -0.18409970614E+03 -0.70831185525E+02 -0.35198075558E+03  0.41157404918E+03  0.81197210644E+02 0.  0.
        254    2    1    2    0    0  0.18409970614E+03  0.70831185525E+02 -0.30607101647E+03  0.96627472083E+03  0.89504056352E+03 0.  0.
         23    2    4    4    0    0  0.21245761755E+03  0.37688393899E+03  0.95639443948E+02  0.45235812709E+03  0.91111081559E+02 0.  0.
         23    2    4    4    0    0 -0.28357911405E+02 -0.30605275347E+03 -0.40171046042E+03  0.51391659374E+03  0.90920362217E+02 0.  0.
          1    1    3    3  502    0 -0.11963508432E+02 -0.63595484256E+01 -0.93057634650E+02  0.94038783259E+02  0.00000000000E+00 0. -1.
         -2    1    3    3    0  502 -0.17213619771E+03 -0.64471637099E+02 -0.25892312093E+03  0.31753526592E+03  0.00000000000E+00 0.  1.
         11    1    5    5    0    0  0.40392931804E+01  0.10274977990E+02  0.21514560832E+02  0.24181964145E+02  0.00000000000E+00 0.  1.
        -11    1    5    5    0    0  0.20841832437E+03  0.36660896100E+03  0.74124883116E+02  0.42817616295E+03  0.00000000000E+00 0. -1.
          1    1    6    6  503    0 -0.25986164233E+02 -0.30990866762E+03 -0.40315153321E+03  0.50916580966E+03  0.00000000000E+00 0. -1.
         -1    1    6    6    0  503 -0.23717471729E+01  0.38559141480E+01  0.14410727936E+01  0.47507840790E+01  0.00000000000E+00 0.  1.
<mgrwt>
<rscale>  0 0.12105516E+04</rscale>
<asrwt>0</asrwt>
<pdfrwt beam="1">  1        1 0.15660773E+00 0.12105516E+04</pdfrwt>
<pdfrwt beam="2">  1       -2 0.55369000E-01 0.12105516E+04</pdfrwt>
<totfact> 0.38946693E+01</totfact>
</mgrwt>
</event>
<event>
12    4  0.4320235E-008  0.2101670E+04  0.7818608E-02  0.8560508E-01
         -2   -1    0    0    0  501 -0.00000000000E+00  0.00000000000E+00  0.73527623323E+03  0.73527623323E+03  0.00000000000E+00 0.  1.
          1   -1    0    0  501    0  0.00000000000E+00 -0.00000000000E+00 -0.15018222359E+04  0.15018222359E+04  0.00000000000E+00 0. -1.
        -24    2    1    2    0    0 -0.28298216898E+02  0.45488006671E+03  0.45638822921E+03  0.64995805617E+03  0.80240855274E+02 0.  0.
        254    2    1    2    0    0  0.28298216898E+02 -0.45488006671E+03 -0.12229342319E+04  0.15871404129E+04  0.90317766288E+03 0.  0.
         23    2    4    4    0    0  0.58062029729E+02 -0.95939885161E+02  0.12410821797E+03  0.18974583291E+03  0.89582199554E+02 0.  0.
         23    2    4    4    0    0 -0.29763812830E+02 -0.35894018154E+03 -0.13470424498E+04  0.13973945800E+04  0.92001696460E+02 0.  0.
          1    1    3    3  502    0 -0.48816276200E+02  0.17189724404E+03  0.16415176889E+03  0.24264685154E+03  0.00000000000E+00 0. -1.
         -2    1    3    3    0  502  0.20518059301E+02  0.28298282267E+03  0.29223646032E+03  0.40731120464E+03  0.00000000000E+00 0.  1.
         11    1    5    5    0    0  0.80178213347E+02 -0.88076481941E+02  0.94993010282E+02  0.15234724996E+03  0.00000000000E+00 0.  1.
        -11    1    5    5    0    0 -0.22116183619E+02 -0.78634032201E+01  0.29115207686E+02  0.37398582950E+02  0.00000000000E+00 0. -1.
          1    1    6    6  503    0 -0.64158804540E+01 -0.72496969193E+02 -0.43796071687E+03  0.44396684964E+03  0.00000000000E+00 0. -1.
         -1    1    6    6    0  503 -0.23347932376E+02 -0.28644321235E+03 -0.90908173298E+03  0.95342773039E+03  0.00000000000E+00 0.  1.
<mgrwt>
<rscale>  0 0.21016700E+04</rscale>
<asrwt>0</asrwt>
<pdfrwt beam="1">  1        1 0.23104957E+00 0.21016700E+04</pdfrwt>
<pdfrwt beam="2">  1       -2 0.11311942E+00 0.21016700E+04</pdfrwt>
<totfact> 0.32320076E+00</totfact>
</mgrwt>
</event>
<event>
12    4  0.4320235E-008  0.1591508E+04  0.7818608E-02  0.8825782E-01
          1   -1    0    0  501    0  0.00000000000E+00  0.00000000000E+00  0.16467046230E+04  0.16467046230E+04  0.00000000000E+00 0. -1.
         -2   -1    0    0    0  501 -0.00000000000E+00 -0.00000000000E+00 -0.38454017823E+03  0.38454017823E+03  0.00000000000E+00 0.  1.
        -24    2    1    2    0    0  0.20450403294E+02 -0.92458910576E+02  0.10841043250E+04  0.10910547640E+04  0.78431125813E+02 0.  0.
        254    2    1    2    0    0 -0.20450403294E+02  0.92458910576E+02  0.17806011973E+03  0.94019003716E+03  0.91830552138E+03 0.  0.
         23    2    4    4    0    0  0.43222083658E+03  0.35785320139E+02  0.40806089714E+01  0.44371110389E+03  0.93634671105E+02 0.  0.
         23    2    4    4    0    0 -0.45267123987E+03  0.56673590437E+02  0.17397951076E+03  0.49647893327E+03  0.89996187473E+02 0.  0.
          3    1    3    3  502    0 -0.14603780762E+02 -0.71935293865E+02  0.47932075073E+03  0.48490858828E+03  0.00000000000E+00 0. -1.
         -4    1    3    3    0  502  0.35054184056E+02 -0.20523616711E+02  0.60478357426E+03  0.60614617574E+03  0.00000000000E+00 0.  1.
         11    1    5    5    0    0  0.13440914222E+03  0.42508940025E+02  0.31874751523E+02  0.14452967612E+03  0.00000000000E+00 0.  1.
        -11    1    5    5    0    0  0.29781169436E+03 -0.67236198868E+01 -0.27794142552E+02  0.29918142777E+03  0.00000000000E+00 0. -1.
          2    1    6    6  503    0 -0.73326743074E+02 -0.16680736025E+00 -0.43844928596E+01  0.73457898501E+02  0.00000000000E+00 0.  1.
         -2    1    6    6    0  503 -0.37934449680E+03  0.56840397798E+02  0.17836400362E+03  0.42302103477E+03  0.00000000000E+00 0. -1.
<mgrwt>
<rscale>  0 0.15915076E+04</rscale>
<asrwt>0</asrwt>
<pdfrwt beam="1">  1        1 0.25333917E+00 0.15915076E+04</pdfrwt>
<pdfrwt beam="2">  1       -2 0.59160028E-01 0.15915076E+04</pdfrwt>
<totfact> 0.11655309E+01</totfact>
</mgrwt>
</event>
<event>
12    4  0.4320235E-008  0.1536789E+04  0.7818608E-02  0.8860351E-01
         -2   -1    0    0    0  501 -0.00000000000E+00  0.00000000000E+00  0.77461388453E+03  0.77461388453E+03  0.00000000000E+00 0.  1.
          1   -1    0    0  501    0  0.00000000000E+00 -0.00000000000E+00 -0.76222469700E+03  0.76222469700E+03  0.00000000000E+00 0. -1.
        -24    2    1    2    0    0 -0.33775072218E+03  0.41941104403E+03  0.21552297131E+03  0.58554917738E+03  0.80227886573E+02 0.  0.
        254    2    1    2    0    0  0.33775072218E+03 -0.41941104403E+03 -0.20313378378E+03  0.95128940415E+03  0.75743450024E+03 0.  0.
         23    2    4    4    0    0  0.30445126409E+03 -0.53565084486E+03  0.81261299562E+02  0.62837053583E+03  0.92917876059E+02 0.  0.
         23    2    4    4    0    0  0.33299458093E+02  0.11623980083E+03 -0.28439508334E+03  0.32291886832E+03  0.93677568711E+02 0.  0.
          3    1    3    3  502    0 -0.49668363381E+02  0.10235104215E+03  0.67622551546E+02  0.13234610545E+03  0.00000000000E+00 0. -1.
         -4    1    3    3    0  502 -0.28808235880E+03  0.31706000188E+03  0.14790041977E+03  0.45320307193E+03  0.00000000000E+00 0.  1.
         11    1    5    5    0    0  0.25340396983E+03 -0.39695265495E+03  0.93276774597E+02  0.48008909473E+03  0.00000000000E+00 0.  1.
        -11    1    5    5    0    0  0.51047294256E+02 -0.13869818991E+03 -0.12015475036E+02  0.14828144111E+03  0.00000000000E+00 0. -1.
          2    1    6    6  503    0 -0.10226506115E+02  0.38776055204E+01  0.29527205821E+01  0.11328539656E+02  0.00000000000E+00 0. -1.
         -2    1    6    6    0  503  0.43525964209E+02  0.11236219531E+03 -0.28734780393E+03  0.31159032866E+03  0.00000000000E+00 0.  1.
<mgrwt>
<rscale>  0 0.15367886E+04</rscale>
<asrwt>0</asrwt>
<pdfrwt beam="1">  1        1 0.11726534E+00 0.15367886E+04</pdfrwt>
<pdfrwt beam="2">  1       -2 0.11917137E+00 0.15367886E+04</pdfrwt>
<totfact> 0.10895550E+01</totfact>
</mgrwt>
</event>
<event>
12    4  0.4320235E-008  0.2006675E+04  0.7818608E-02  0.8603506E-01
          1   -1    0    0  501    0  0.00000000000E+00  0.00000000000E+00  0.20947801162E+04  0.20947801162E+04  0.00000000000E+00 0. -1.
         -2   -1    0    0    0  501 -0.00000000000E+00 -0.00000000000E+00 -0.48056881301E+03  0.48056881301E+03  0.00000000000E+00 0.  1.
        -24    2    1    2    0    0 -0.50401860035E+03 -0.14605011757E+03 -0.10717450097E+03  0.54187615628E+03  0.82328662913E+02 0.  0.
        254    2    1    2    0    0  0.50401860035E+03  0.14605011757E+03  0.17213858042E+04  0.20334727730E+04  0.94682471725E+03 0.  0.
         23    2    4    4    0    0  0.96562788230E+02  0.50952003492E+03  0.89200933492E+03  0.10363867875E+04  0.97374954258E+02 0.  0.
         23    2    4    4    0    0  0.40745581212E+03 -0.36346991735E+03  0.82937646926E+03  0.99708598543E+03  0.90468309016E+02 0.  0.
          3    1    3    3  502    0 -0.56121363845E+02 -0.32748174424E+02  0.87101251994E+01  0.65558498221E+02  0.00000000000E+00 0. -1.
         -4    1    3    3    0  502 -0.44789723651E+03 -0.11330194314E+03 -0.11588462617E+03  0.47631765805E+03  0.00000000000E+00 0.  1.
         11    1    5    5    0    0  0.14243706038E+02  0.31079576398E+03  0.56444806582E+03  0.64451416515E+03  0.00000000000E+00 0.  1.
        -11    1    5    5    0    0  0.82319082192E+02  0.19872427094E+03  0.32756126910E+03  0.39187262238E+03  0.00000000000E+00 0. -1.
          4    1    6    6  503    0  0.36731532112E+03 -0.34194132157E+03  0.79448857185E+03  0.93971086156E+03  0.00000000000E+00 0. -1.
         -4    1    6    6    0  503  0.40140491002E+02 -0.21528595782E+02  0.34887897404E+02  0.57375123873E+02  0.00000000000E+00 0.  1.
<mgrwt>
<rscale>  0 0.20066749E+04</rscale>
<asrwt>0</asrwt>
<pdfrwt beam="1">  1        1 0.32227386E+00 0.20066749E+04</pdfrwt>
<pdfrwt beam="2">  1       -2 0.73933665E-01 0.20066749E+04</pdfrwt>
<totfact> 0.34486146E+00</totfact>
</mgrwt>
</event>
<event>
12    4  0.4320235E-008  0.1309352E+04  0.7818608E-02  0.9022182E-01
          1   -1    0    0  501    0  0.00000000000E+00  0.00000000000E+00  0.86872147058E+03  0.86872147058E+03  0.00000000000E+00 0. -1.
         -2   -1    0    0    0  501 -0.00000000000E+00 -0.00000000000E+00 -0.49336929727E+03  0.49336929727E+03  0.00000000000E+00 0.  1.
        -24    2    1    2    0    0  0.32167053045E+03 -0.58817338703E+02  0.19144902976E+03  0.38678653678E+03  0.77586626098E+02 0.  0.
        254    2    1    2    0    0 -0.32167053045E+03  0.58817338703E+02  0.18390314356E+03  0.97530423107E+03  0.90025916682E+03 0.  0.
         23    2    4    4    0    0 -0.52798494516E+03  0.30668313226E+03  0.69183893586E+02  0.62108613214E+03  0.90215998993E+02 0.  0.
         23    2    4    4    0    0  0.20631441471E+03 -0.24786579356E+03  0.11471924997E+03  0.35421809893E+03  0.91142009883E+02 0.  0.
          3    1    3    3  502    0  0.15718185840E+03 -0.47143622429E+02  0.13498739019E+03  0.21248588955E+03  0.00000000000E+00 0. -1.
         -4    1    3    3    0  502  0.16448867205E+03 -0.11673716274E+02  0.56461639564E+02  0.17430064723E+03  0.00000000000E+00 0.  1.
         11    1    5    5    0    0 -0.37203728618E+03  0.18281290816E+03  0.15480605375E+02  0.41481556244E+03  0.00000000000E+00 0.  1.
        -11    1    5    5    0    0 -0.15594765898E+03  0.12387022410E+03  0.53703288211E+02  0.20627056970E+03  0.00000000000E+00 0. -1.
          3    1    6    6  503    0  0.19414816481E+02  0.39183489355E+01 -0.13562973260E+01  0.19852659767E+02  0.00000000000E+00 0. -1.
         -3    1    6    6    0  503  0.18689959822E+03 -0.25178414250E+03  0.11607554730E+03  0.33436543917E+03  0.00000000000E+00 0.  1.
<mgrwt>
<rscale>  0 0.13093518E+04</rscale>
<asrwt>0</asrwt>
<pdfrwt beam="1">  1        1 0.13364946E+00 0.13093518E+04</pdfrwt>
<pdfrwt beam="2">  1       -2 0.75902969E-01 0.13093518E+04</pdfrwt>
<totfact> 0.25844871E+01</totfact>
</mgrwt>
</event>
<event>
12    4  0.4320235E-008  0.1425584E+04  0.7818608E-02  0.8935505E-01
          1   -1    0    0  501    0  0.00000000000E+00  0.00000000000E+00  0.10165190419E+04  0.10165190419E+04  0.00000000000E+00 0. -1.
         -2   -1    0    0    0  501 -0.00000000000E+00 -0.00000000000E+00 -0.49981586309E+03  0.49981586309E+03  0.00000000000E+00 0.  1.
        -24    2    1    2    0    0 -0.21961519729E+03 -0.22828806434E+03 -0.14491288362E+03  0.35747591885E+03  0.80268384297E+02 0.  0.
        254    2    1    2    0    0  0.21961519729E+03  0.22828806434E+03  0.66161606244E+03  0.11588589861E+04  0.89714662150E+03 0.  0.
         23    2    4    4    0    0  0.21240937512E+03  0.19880007713E+03  0.87405486430E+03  0.92598032894E+03  0.93959834334E+02 0.  0.
         23    2    4    4    0    0  0.72058221706E+01  0.29487987207E+02 -0.21243880186E+03  0.23287865720E+03  0.90447549320E+02 0.  0.
          1    1    3    3  502    0 -0.58614312490E+01 -0.49247063828E+01  0.92507311250E+01  0.12007711505E+02  0.00000000000E+00 0. -1.
         -2    1    3    3    0  502 -0.21375376604E+03 -0.22336335796E+03 -0.15416361475E+03  0.34546820734E+03  0.00000000000E+00 0.  1.
         11    1    5    5    0    0  0.13474927298E+03  0.17267142781E+03  0.70268497331E+03  0.73602918438E+03  0.00000000000E+00 0.  1.
        -11    1    5    5    0    0  0.77660102136E+02  0.26128649325E+02  0.17136989100E+03  0.18995114456E+03  0.00000000000E+00 0. -1.
          1    1    6    6  503    0 -0.31038042217E+02  0.19545157625E+02 -0.17374136662E+03  0.17757093154E+03  0.00000000000E+00 0. -1.
         -1    1    6    6    0  503  0.38243864387E+02  0.99428295827E+01 -0.38697435240E+02  0.55307725658E+02  0.00000000000E+00 0.  1.
<mgrwt>
<rscale>  0 0.14255839E+04</rscale>
<asrwt>0</asrwt>
<pdfrwt beam="1">  1        1 0.15638754E+00 0.14255839E+04</pdfrwt>
<pdfrwt beam="2">  1       -2 0.76894748E-01 0.14255839E+04</pdfrwt>
<totfact> 0.18930235E+01</totfact>
</mgrwt>
</event>
<event>
12    4  0.4320235E-008  0.1440556E+04  0.7818608E-02  0.8924974E-01
         -2   -1    0    0    0  501 -0.00000000000E+00  0.00000000000E+00  0.41406454142E+03  0.41406454142E+03  0.00000000000E+00 0.  1.
          1   -1    0    0  501    0  0.00000000000E+00 -0.00000000000E+00 -0.12529448729E+04  0.12529448729E+04  0.00000000000E+00 0. -1.
        -24    2    1    2    0    0  0.23139165212E+03 -0.22494873261E+03 -0.58807503060E+03  0.67546188951E+03  0.79199075720E+02 0.  0.
        254    2    1    2    0    0 -0.23139165212E+03  0.22494873261E+03 -0.25080530089E+03  0.99154752482E+03  0.90339314036E+03 0.  0.
         23    2    4    4    0    0 -0.27711377389E+03  0.19684164536E+02 -0.54527988903E+03  0.61862952410E+03  0.90514201599E+02 0.  0.
         23    2    4    4    0    0  0.45722121774E+02  0.20526456807E+03  0.29447458815E+03  0.37291800072E+03  0.90158176945E+02 0.  0.
          1    1    3    3  502    0  0.11529571269E+03 -0.16070145072E+03 -0.38593393099E+03  0.43366237641E+03  0.00000000000E+00 0. -1.
         -2    1    3    3    0  502  0.11609593943E+03 -0.64247281884E+02 -0.20214109961E+03  0.24179951310E+03  0.00000000000E+00 0.  1.
         11    1    5    5    0    0 -0.27627360978E+03  0.14661125066E+02 -0.54721838784E+03  0.61318025086E+03  0.00000000000E+00 0. -1.
        -11    1    5    5    0    0 -0.84016410799E+00  0.50230394699E+01  0.19384988078E+01  0.54492732426E+01  0.00000000000E+00 0.  1.
          1    1    6    6  503    0  0.43367772994E+02  0.61860464317E+02  0.15708341865E+03  0.17430628559E+03  0.00000000000E+00 0.  1.
         -1    1    6    6    0  503  0.23543487792E+01  0.14340410375E+03  0.13739116949E+03  0.19861171513E+03  0.00000000000E+00 0. -1.
<mgrwt>
<rscale>  0 0.14405555E+04</rscale>
<asrwt>0</asrwt>
<pdfrwt beam="1">  1        1 0.19276075E+00 0.14405555E+04</pdfrwt>
<pdfrwt beam="2">  1       -2 0.63702238E-01 0.14405555E+04</pdfrwt>
<totfact> 0.19005882E+01</totfact>
</mgrwt>
</event>
<event>
12    4  0.4320235E-008  0.1510174E+04  0.7818608E-02  0.8877716E-01
         -4   -1    0    0    0  501 -0.00000000000E+00  0.00000000000E+00  0.30743863372E+03  0.30743863372E+03  0.00000000000E+00 0.  1.
          1   -1    0    0  501    0  0.00000000000E+00 -0.00000000000E+00 -0.18545359991E+04  0.18545359991E+04  0.00000000000E+00 0. -1.
        -24    2    1    2    0    0  0.25134301215E+03 -0.46244344854E+02  0.85894513566E+02  0.28066922696E+03  0.78009603992E+02 0.  0.
        254    2    1    2    0    0 -0.25134301215E+03  0.46244344854E+02 -0.16329918789E+04  0.18813054058E+04  0.89851861650E+03 0.  0.
         23    2    4    4    0    0 -0.47024816175E+03 -0.26013854429E+03 -0.10010562282E+04  0.11399461762E+04  0.92511171284E+02 0.  0.
         23    2    4    4    0    0  0.21890514961E+03  0.30638288914E+03 -0.63193565075E+03  0.74135922963E+03  0.92091809547E+02 0.  0.
          1    1    3    3  502    0  0.55293906311E+02  0.20894410549E+02  0.98205366755E+01  0.59920242055E+02  0.00000000000E+00 0. -1.
         -4    1    3    3    0  502  0.19604910584E+03 -0.67138755404E+02  0.76073976891E+02  0.22074898491E+03  0.00000000000E+00 0.  1.
         11    1    5    5    0    0 -0.20511535076E+02 -0.21989143827E+02 -0.24661890579E+02  0.38890286247E+02  0.00000000000E+00 0.  1.
        -11    1    5    5    0    0 -0.44973662668E+03 -0.23814940046E+03 -0.97639433760E+03  0.11010558900E+04  0.00000000000E+00 0. -1.
          2    1    6    6  503    0  0.17138480393E+03  0.28761411199E+03 -0.57014894860E+03  0.66118412868E+03  0.00000000000E+00 0. -1.
         -2    1    6    6    0  503  0.47520345677E+02  0.18768777149E+02 -0.61786702147E+02  0.80175100942E+02  0.00000000000E+00 0.  1.
<mgrwt>
<rscale>  0 0.15101735E+04</rscale>
<asrwt>0</asrwt>
<pdfrwt beam="1">  1        1 0.28531322E+00 0.15101735E+04</pdfrwt>
<pdfrwt beam="2">  1       -4 0.47298252E-01 0.15101735E+04</pdfrwt>
<totfact> 0.77338240E+00</totfact>
</mgrwt>
</event>
<event>
12    4  0.4320235E-008  0.1290669E+04  0.7818608E-02  0.9036998E-01
         -2   -1    0    0    0  501 -0.00000000000E+00  0.00000000000E+00  0.34098446957E+03  0.34098446957E+03  0.00000000000E+00 0.  1.
          1   -1    0    0  501    0  0.00000000000E+00 -0.00000000000E+00 -0.12213354941E+04  0.12213354941E+04  0.00000000000E+00 0. -1.
        -24    2    1    2    0    0  0.23522107279E+03 -0.15461438409E+02  0.32196826270E+02  0.25071183416E+03  0.79068192123E+02 0.  0.
        254    2    1    2    0    0 -0.23522107279E+03  0.15461438409E+02 -0.91254785081E+03  0.13116081295E+04  0.91214269510E+03 0.  0.
         23    2    4    4    0    0  0.31275328604E+03 -0.14847992264E+03 -0.29235789250E+03  0.46299269266E+03  0.95016792162E+02 0.  0.
         23    2    4    4    0    0 -0.54797435883E+03  0.16394136105E+03 -0.62018995831E+03  0.84861543686E+03  0.91432529661E+02 0.  0.
          3    1    3    3  502    0  0.72163916134E+02 -0.16936034219E+02 -0.24506029419E+02  0.78070516360E+02  0.00000000000E+00 0. -1.
         -4    1    3    3    0  502  0.16305715665E+03  0.14745958101E+01  0.56702855689E+02  0.17264131780E+03  0.00000000000E+00 0.  1.
         11    1    5    5    0    0  0.54848126889E+02 -0.18653799186E+02 -0.93433601734E+01  0.58682021324E+02  0.00000000000E+00 0.  1.
        -11    1    5    5    0    0  0.25790515915E+03 -0.12982612345E+03 -0.28301453233E+03  0.40431067134E+03  0.00000000000E+00 0. -1.
          2    1    6    6  503    0 -0.39695790279E+03  0.11089387967E+03 -0.50269526619E+03  0.65005812031E+03  0.00000000000E+00 0.  1.
         -2    1    6    6    0  503 -0.15101645604E+03  0.53047481376E+02 -0.11749469212E+03  0.19855731654E+03  0.00000000000E+00 0. -1.
<mgrwt>
<rscale>  0 0.12906687E+04</rscale>
<asrwt>0</asrwt>
<pdfrwt beam="1">  1        1 0.18789777E+00 0.12906687E+04</pdfrwt>
<pdfrwt beam="2">  1       -2 0.52459148E-01 0.12906687E+04</pdfrwt>
<totfact> 0.30481977E+01</totfact>
</mgrwt>
</event>
<event>
12    4  0.4320235E-008  0.1705300E+04  0.7818608E-02  0.8758347E-01
          1   -1    0    0  501    0  0.00000000000E+00  0.00000000000E+00  0.31135553831E+04  0.31135553831E+04  0.00000000000E+00 0. -1.
         -2   -1    0    0    0  501 -0.00000000000E+00 -0.00000000000E+00 -0.23349898958E+03  0.23349898958E+03  0.00000000000E+00 0.  1.
        -24    2    1    2    0    0  0.46349834750E+02  0.38119079101E+03  0.10375861268E+03  0.40551145386E+03  0.78860403076E+02 0.  0.
        254    2    1    2    0    0 -0.46349834750E+02 -0.38119079101E+03  0.27762977808E+04  0.29415429188E+04  0.89296732810E+03 0.  0.
         23    2    4    4    0    0  0.80948994213E+02 -0.13930696427E+03  0.45646378000E+02  0.19556251288E+03  0.10100462693E+03 0.  0.
         23    2    4    4    0    0 -0.12729882896E+03 -0.24188382674E+03  0.27306514028E+04  0.27459804059E+04  0.96117264359E+02 0.  0.
          3    1    3    3  502    0 -0.13334215462E+02  0.13394213630E+02  0.95640616660E+01  0.21182009732E+02  0.00000000000E+00 0. -1.
         -4    1    3    3    0  502  0.59684050212E+02  0.36779657738E+03  0.94194551012E+02  0.38432944412E+03  0.00000000000E+00 0.  1.
         11    1    5    5    0    0  0.11970834902E+02  0.93281663447E+01 -0.14521316150E+02  0.21004385217E+02  0.00000000000E+00 0.  1.
        -11    1    5    5    0    0  0.68978159311E+02 -0.14863513061E+03  0.60167694150E+02  0.17455812766E+03  0.00000000000E+00 0. -1.
          3    1    6    6  503    0 -0.66868449457E+02 -0.41494713574E+02  0.88785522537E+03  0.89133613301E+03  0.00000000000E+00 0. -1.
         -3    1    6    6    0  503 -0.60430379507E+02 -0.20038911317E+03  0.18427961774E+04  0.18546442729E+04  0.00000000000E+00 0.  1.
<mgrwt>
<rscale>  0 0.17053000E+04</rscale>
<asrwt>0</asrwt>
<pdfrwt beam="1">  1        1 0.47900849E+00 0.17053000E+04</pdfrwt>
<pdfrwt beam="2">  1       -2 0.35922924E-01 0.17053000E+04</pdfrwt>
<totfact> 0.30163830E+00</totfact>
</mgrwt>
</event>
<event>
12    4  0.4320235E-008  0.3332067E+04  0.7818608E-02  0.8154783E-01
          1   -1    0    0  501    0  0.00000000000E+00  0.00000000000E+00  0.27812322886E+04  0.27812322886E+04  0.00000000000E+00 0. -1.
         -2   -1    0    0    0  501 -0.00000000000E+00 -0.00000000000E+00 -0.99799940773E+03  0.99799940773E+03  0.00000000000E+00 0.  1.
        -24    2    1    2    0    0 -0.67793909306E+03  0.93554856658E+03  0.19852201112E+04  0.22982554142E+04  0.77630695294E+02 0.  0.
        254    2    1    2    0    0  0.67793909306E+03 -0.93554856658E+03 -0.20198723028E+03  0.14809762821E+04  0.90423413601E+03 0.  0.
         23    2    4    4    0    0  0.38115452431E+03  0.83380262111E+02 -0.80672948700E+02  0.40910742555E+03  0.92896294208E+02 0.  0.
         23    2    4    4    0    0  0.29678456875E+03 -0.10189288287E+04 -0.12131428158E+03  0.10718688566E+04  0.88818087237E+02 0.  0.
          1    1    3    3  502    0 -0.55191277481E+03  0.71253605557E+03  0.15167890570E+04  0.17643594829E+04  0.00000000000E+00 0. -1.
         -4    1    3    3    0  502 -0.12602631825E+03  0.22301251101E+03  0.46843105417E+03  0.53389593131E+03  0.00000000000E+00 0.  1.
         11    1    5    5    0    0  0.36353449978E+03  0.55208390353E+02 -0.76982036389E+02  0.37567477001E+03  0.00000000000E+00 0. -1.
        -11    1    5    5    0    0  0.17620024527E+02  0.28171871757E+02 -0.36909123104E+01  0.33432655538E+02  0.00000000000E+00 0.  1.
          4    1    6    6  503    0  0.12075759668E+03 -0.51046450080E+03 -0.24262619825E+02  0.52511434798E+03  0.00000000000E+00 0. -1.
         -4    1    6    6    0  503  0.17602697207E+03 -0.50846432789E+03 -0.97051661751E+02  0.54675450861E+03  0.00000000000E+00 0.  1.
<mgrwt>
<rscale>  0 0.33320673E+04</rscale>
<asrwt>0</asrwt>
<pdfrwt beam="1">  1        1 0.42788189E+00 0.33320673E+04</pdfrwt>
<pdfrwt beam="2">  1       -2 0.15353837E+00 0.33320673E+04</pdfrwt>
<totfact> 0.17616599E-01</totfact>
</mgrwt>
</event>
<event>
12    4  0.4320235E-008  0.1366868E+04  0.7818608E-02  0.8978157E-01
          1   -1    0    0  501    0  0.00000000000E+00  0.00000000000E+00  0.15510179031E+04  0.15510179031E+04  0.00000000000E+00 0. -1.
         -2   -1    0    0    0  501 -0.00000000000E+00 -0.00000000000E+00 -0.30114534757E+03  0.30114534757E+03  0.00000000000E+00 0.  1.
        -24    2    1    2    0    0  0.33448415390E+03 -0.21685199759E+02  0.59143524371E+03  0.68454957700E+03  0.80390165909E+02 0.  0.
        254    2    1    2    0    0 -0.33448415390E+03  0.21685199759E+02  0.65843731184E+03  0.11676136737E+04  0.90411951659E+03 0.  0.
         23    2    4    4    0    0  0.40856737278E+02 -0.37276807814E+03  0.14466295061E+03  0.41338779806E+03  0.96627062688E+02 0.  0.
         23    2    4    4    0    0 -0.37534089118E+03  0.39445327790E+03  0.51377436123E+03  0.75422587564E+03  0.91751862031E+02 0.  0.
          1    1    3    3  502    0  0.24532530529E+03 -0.91884489231E+01  0.35557715613E+03  0.43209263703E+03  0.00000000000E+00 0. -1.
         -2    1    3    3    0  502  0.89158848611E+02 -0.12496750836E+02  0.23585808758E+03  0.25245693998E+03  0.00000000000E+00 0.  1.
         11    1    5    5    0    0  0.42872738775E+02 -0.37710991002E+03  0.13541245824E+03  0.40297207076E+03  0.00000000000E+00 0.  1.
        -11    1    5    5    0    0 -0.20160014962E+01  0.43418318786E+01  0.92504923730E+01  0.10415727302E+02  0.00000000000E+00 0. -1.
          1    1    6    6  503    0 -0.46035747792E+02  0.69626969867E+02  0.12329870912E+03  0.14889518689E+03  0.00000000000E+00 0. -1.
         -1    1    6    6    0  503 -0.32930514339E+03  0.32482630803E+03  0.39047565211E+03  0.60533068875E+03  0.00000000000E+00 0.  1.
<mgrwt>
<rscale>  0 0.13668677E+04</rscale>
<asrwt>0</asrwt>
<pdfrwt beam="1">  1        1 0.23861814E+00 0.13668677E+04</pdfrwt>
<pdfrwt beam="2">  1       -2 0.46330054E-01 0.13668677E+04</pdfrwt>
<totfact> 0.22851455E+01</totfact>
</mgrwt>
</event>
<event>
12    4  0.4320235E-008  0.2989612E+04  0.7818608E-02  0.8246703E-01
         -2   -1    0    0    0  501 -0.00000000000E+00  0.00000000000E+00  0.13091725138E+04  0.13091725138E+04  0.00000000000E+00 0.  1.
          1   -1    0    0  501    0  0.00000000000E+00 -0.00000000000E+00 -0.17067616519E+04  0.17067616519E+04  0.00000000000E+00 0. -1.
        -24    2    1    2    0    0  0.11329975116E+04  0.74744992529E+03 -0.17780873545E+03  0.13712825948E+04  0.80220049232E+02 0.  0.
        254    2    1    2    0    0 -0.11329975116E+04 -0.74744992529E+03 -0.21978040269E+03  0.16446515709E+04  0.90233619689E+03 0.  0.
         23    2    4    4    0    0 -0.96372568813E+03 -0.22985632569E+03  0.11056143664E+03  0.10010963495E+04  0.91481896225E+02 0.  0.
         23    2    4    4    0    0 -0.16927182348E+03 -0.51759359961E+03 -0.33034183932E+03  0.64355522141E+03  0.92095100931E+02 0.  0.
          3    1    3    3  502    0  0.10255417125E+04  0.65096036915E+03 -0.14638832717E+03  0.12234846745E+04  0.00000000000E+00 0. -1.
         -4    1    3    3    0  502  0.10745579910E+03  0.96489556143E+02 -0.31420408278E+02  0.14779792036E+03  0.00000000000E+00 0.  1.
         11    1    5    5    0    0 -0.12369949668E+03  0.11845588883E+01  0.16977139200E+02  0.12486469443E+03  0.00000000000E+00 0.  1.
        -11    1    5    5    0    0 -0.84002619145E+03 -0.23104088457E+03  0.93584297437E+02  0.87623165510E+03  0.00000000000E+00 0. -1.
          2    1    6    6  503    0 -0.18576656002E+02 -0.33432222339E+02  0.22794307197E+00  0.38247321433E+02  0.00000000000E+00 0.  1.
         -2    1    6    6    0  503 -0.15069516747E+03 -0.48416137727E+03 -0.33056978240E+03  0.60530789997E+03  0.00000000000E+00 0. -1.
<mgrwt>
<rscale>  0 0.29896123E+04</rscale>
<asrwt>0</asrwt>
<pdfrwt beam="1">  1        1 0.26257872E+00 0.29896123E+04</pdfrwt>
<pdfrwt beam="2">  1       -2 0.20141115E+00 0.29896123E+04</pdfrwt>
<totfact> 0.45953108E-01</totfact>
</mgrwt>
</event>
<event>
12    4  0.4320235E-008  0.2762523E+04  0.7818608E-02  0.8314999E-01
          3   -1    0    0  501    0  0.00000000000E+00  0.00000000000E+00  0.10207907951E+04  0.10207907951E+04  0.00000000000E+00 0. -1.
         -4   -1    0    0    0  501 -0.00000000000E+00 -0.00000000000E+00 -0.18690253661E+04  0.18690253661E+04  0.00000000000E+00 0.  1.
        -24    2    1    2    0    0 -0.20305544747E+03 -0.24000623797E+03  0.86051355037E+03  0.91970035364E+03  0.80812505867E+02 0.  0.
        254    2    1    2    0    0  0.20305544747E+03  0.24000623797E+03 -0.17087481214E+04  0.19701158075E+04  0.92881733607E+03 0.  0.
         23    2    4    4    0    0 -0.21535352981E+03  0.44009799417E+03 -0.73793082406E+03  0.89058077110E+03  0.92351618753E+02 0.  0.
         23    2    4    4    0    0  0.41840897727E+03 -0.20009175620E+03 -0.97081729731E+03  0.10795350364E+04  0.88356589754E+02 0.  0.
          3    1    3    3  502    0 -0.10717717626E+03 -0.66156327539E+02  0.34592977724E+03  0.36814537558E+03  0.00000000000E+00 0. -1.
         -4    1    3    3    0  502 -0.95878271203E+02 -0.17384991043E+03  0.51458377313E+03  0.55155497805E+03  0.00000000000E+00 0.  1.
         11    1    5    5    0    0 -0.92724517629E+02  0.13933016399E+03 -0.32153822851E+03  0.36248801796E+03  0.00000000000E+00 0. -1.
        -11    1    5    5    0    0 -0.12262901218E+03  0.30076783018E+03 -0.41639259555E+03  0.52809275315E+03  0.00000000000E+00 0.  1.
          3    1    6    6  503    0  0.12762602275E+03 -0.40763615241E+02 -0.20351400562E+03  0.24365554476E+03  0.00000000000E+00 0. -1.
         -3    1    6    6    0  503  0.29078295452E+03 -0.15932814096E+03 -0.76730329170E+03  0.83587949167E+03  0.00000000000E+00 0.  1.
<mgrwt>
<rscale>  0 0.27625234E+04</rscale>
<asrwt>0</asrwt>
<pdfrwt beam="1">  1        3 0.15704474E+00 0.27625234E+04</pdfrwt>
<pdfrwt beam="2">  1       -4 0.28754236E+00 0.27625234E+04</pdfrwt>
<totfact> 0.21013099E-02</totfact>
</mgrwt>
</event>
<event>
12    4  0.4320235E-008  0.1719244E+04  0.7818608E-02  0.8750464E-01
          1   -1    0    0  501    0  0.00000000000E+00  0.00000000000E+00  0.36793668634E+03  0.36793668634E+03  0.00000000000E+00 0. -1.
         -2   -1    0    0    0  501 -0.00000000000E+00 -0.00000000000E+00 -0.20083616110E+04  0.20083616110E+04  0.00000000000E+00 0.  1.
        -24    2    1    2    0    0 -0.53573961349E+03  0.31133628177E+03 -0.49213589324E+03  0.79533947398E+03  0.80124451033E+02 0.  0.
        254    2    1    2    0    0  0.53573961349E+03 -0.31133628177E+03 -0.11482890314E+04  0.15809588233E+04  0.89270145491E+03 0.  0.
         23    2    4    4    0    0  0.14611993715E+03 -0.54862785822E+03 -0.86240088300E+03  0.10365449622E+04  0.91359799170E+02 0.  0.
         23    2    4    4    0    0  0.38961967634E+03  0.23729157645E+03 -0.28588814838E+03  0.54441386106E+03  0.80892733206E+02 0.  0.
          3    1    3    3  502    0 -0.18906774032E+03  0.86777458588E+02 -0.12489923604E+03  0.24264533153E+03  0.00000000000E+00 0. -1.
         -2    1    3    3    0  502 -0.34667187318E+03  0.22455882318E+03 -0.36723665719E+03  0.55269414246E+03  0.00000000000E+00 0.  1.
         11    1    5    5    0    0  0.11819664089E+03 -0.26640399015E+03 -0.43443760155E+03  0.52314200895E+03  0.00000000000E+00 0. -1.
        -11    1    5    5    0    0  0.27923296261E+02 -0.28222386808E+03 -0.42796328146E+03  0.51340295330E+03  0.00000000000E+00 0.  1.
          4    1    6    6  503    0  0.24471623759E+03  0.10629482285E+03 -0.18399938443E+03  0.32409936713E+03  0.00000000000E+00 0. -1.
         -4    1    6    6    0  503  0.14490343875E+03  0.13099675361E+03 -0.10188876395E+03  0.22031449394E+03  0.00000000000E+00 0.  1.
<mgrwt>
<rscale>  0 0.17192439E+04</rscale>
<asrwt>0</asrwt>
<pdfrwt beam="1">  1        1 0.56605644E-01 0.17192439E+04</pdfrwt>
<pdfrwt beam="2">  1       -2 0.30897871E+00 0.17192439E+04</pdfrwt>
<totfact> 0.15630775E+00</totfact>
</mgrwt>
</event>
<event>
12    4  0.4320235E-008  0.1485492E+04  0.7818608E-02  0.8894158E-01
         -2   -1    0    0    0  501 -0.00000000000E+00  0.00000000000E+00  0.82307550560E+03  0.82307550560E+03  0.00000000000E+00 0.  1.
          1   -1    0    0  501    0  0.00000000000E+00 -0.00000000000E+00 -0.67025624917E+03  0.67025624917E+03  0.00000000000E+00 0. -1.
        -24    2    1    2    0    0  0.12726636770E+03 -0.18255610943E+03 -0.35645324660E+03  0.42761119069E+03  0.79176713463E+02 0.  0.
        254    2    1    2    0    0 -0.12726636770E+03  0.18255610943E+03  0.50927250303E+03  0.10657205641E+04  0.90932853079E+03 0.  0.
         23    2    4    4    0    0 -0.20876969026E+03 -0.31701097410E+03  0.84867528387E+02  0.39887159764E+03  0.88404257578E+02 0.  0.
         23    2    4    4    0    0  0.81503322566E+02  0.49956708352E+03  0.42440497464E+03  0.66684896644E+03  0.91421545645E+02 0.  0.
          3    1    3    3  502    0  0.73850352498E+02 -0.95105911161E+02 -0.26157491350E+03  0.28795910174E+03  0.00000000000E+00 0. -1.
         -4    1    3    3    0  502  0.53416015199E+02 -0.87450198266E+02 -0.94878333105E+02  0.13965208895E+03  0.00000000000E+00 0.  1.
         11    1    5    5    0    0 -0.13477028244E+03 -0.21145357091E+03  0.12557884996E+02  0.25106441833E+03  0.00000000000E+00 0. -1.
        -11    1    5    5    0    0 -0.73999407827E+02 -0.10555740319E+03  0.72309643392E+02  0.14780717930E+03  0.00000000000E+00 0.  1.
          3    1    6    6  503    0  0.53528225021E+02  0.41753611297E+03  0.38919023230E+03  0.57329810171E+03  0.00000000000E+00 0. -1.
         -3    1    6    6    0  503  0.27975097546E+02  0.82030970553E+02  0.35214742339E+02  0.93550864723E+02  0.00000000000E+00 0.  1.
<mgrwt>
<rscale>  0 0.14854918E+04</rscale>
<asrwt>0</asrwt>
<pdfrwt beam="1">  1        1 0.10311635E+00 0.14854918E+04</pdfrwt>
<pdfrwt beam="2">  1       -2 0.12662700E+00 0.14854918E+04</pdfrwt>
<totfact> 0.11445016E+01</totfact>
</mgrwt>
</event>
<event>
12    4  0.4320235E-008  0.1591216E+04  0.7818608E-02  0.8825963E-01
          1   -1    0    0  501    0  0.00000000000E+00  0.00000000000E+00  0.62346630613E+03  0.62346630613E+03  0.00000000000E+00 0. -1.
         -2   -1    0    0    0  501 -0.00000000000E+00 -0.00000000000E+00 -0.10152786696E+04  0.10152786696E+04  0.00000000000E+00 0.  1.
        -24    2    1    2    0    0  0.46044545602E+03 -0.24813228473E+03 -0.21920370571E+03  0.57240480368E+03  0.77571553907E+02 0.  0.
        254    2    1    2    0    0 -0.46044545602E+03  0.24813228473E+03 -0.17260865777E+03  0.10663401721E+04  0.91307610041E+03 0.  0.
         23    2    4    4    0    0  0.16844143241E+03  0.13580422259E+03  0.21086207982E+03  0.31524021742E+03  0.89990415875E+02 0.  0.
         23    2    4    4    0    0 -0.62888688843E+03  0.11232806214E+03 -0.38347073759E+03  0.75109995465E+03  0.94789362803E+02 0.  0.
          3    1    3    3  502    0  0.46072323059E+03 -0.24511528357E+03 -0.22302548949E+03  0.56752776709E+03  0.00000000000E+00 0. -1.
         -4    1    3    3    0  502 -0.27777457051E+00 -0.30170011545E+01  0.38217837760E+01  0.48770365909E+01  0.00000000000E+00 0.  1.
         11    1    5    5    0    0  0.17467425514E+03  0.14202715614E+03  0.19904852283E+03  0.30050478021E+03  0.00000000000E+00 0. -1.
        -11    1    5    5    0    0 -0.62328227284E+01 -0.62229335472E+01  0.11813556989E+02  0.14735437212E+02  0.00000000000E+00 0.  1.
          1    1    6    6  503    0 -0.54623397877E+03  0.11013155882E+03 -0.29689571189E+03  0.63138544769E+03  0.00000000000E+00 0. -1.
         -1    1    6    6    0  503 -0.82652909661E+02  0.21965033173E+01 -0.86575025699E+02  0.11971450696E+03  0.00000000000E+00 0.  1.
<mgrwt>
<rscale>  0 0.15912159E+04</rscale>
<asrwt>0</asrwt>
<pdfrwt beam="1">  1        1 0.95917894E-01 0.15912159E+04</pdfrwt>
<pdfrwt beam="2">  1       -2 0.15619672E+00 0.15912159E+04</pdfrwt>
<totfact> 0.73139002E+00</totfact>
</mgrwt>
</event>
<event>
12    4  0.4320235E-008  0.1382804E+04  0.7818608E-02  0.8966361E-01
         -2   -1    0    0    0  501 -0.00000000000E+00  0.00000000000E+00  0.49810622325E+03  0.49810622325E+03  0.00000000000E+00 0.  1.
          1   -1    0    0  501    0  0.00000000000E+00 -0.00000000000E+00 -0.95970850330E+03  0.95970850330E+03  0.00000000000E+00 0. -1.
        -24    2    1    2    0    0 -0.35506536628E+03  0.96125584667E+02  0.47000823648E+01  0.37651139450E+03  0.80169801411E+02 0.  0.
        254    2    1    2    0    0  0.35506536628E+03 -0.96125584667E+02 -0.46630236241E+03  0.10813033320E+04  0.90358588986E+03 0.  0.
         23    2    4    4    0    0  0.17786900930E+03  0.29327433923E+03 -0.53118742516E+03  0.63923187397E+03  0.93862055849E+02 0.  0.
         23    2    4    4    0    0  0.17719635698E+03 -0.38939992390E+03  0.64885062750E+02  0.44207145808E+03  0.90477914556E+02 0.  0.
          1    1    3    3  502    0 -0.29209430305E+03  0.78706891204E+02 -0.27334065446E+02  0.30374497153E+03  0.00000000000E+00 0. -1.
         -2    1    3    3    0  502 -0.62971063231E+02  0.17418693463E+02  0.32034147810E+02  0.72766422974E+02  0.00000000000E+00 0.  1.
         11    1    5    5    0    0  0.40003566269E+02  0.15584166825E+03 -0.24564856337E+03  0.29364966808E+03  0.00000000000E+00 0.  1.
        -11    1    5    5    0    0  0.13786544303E+03  0.13743267098E+03 -0.28553886179E+03  0.34558220589E+03  0.00000000000E+00 0. -1.
          1    1    6    6  503    0 -0.41927963698E+01 -0.51139443178E+02  0.22101728286E+02  0.55868672646E+02  0.00000000000E+00 0. -1.
         -1    1    6    6    0  503  0.18138915335E+03 -0.33826048072E+03  0.42783334464E+02  0.38620278543E+03  0.00000000000E+00 0.  1.
<mgrwt>
<rscale>  0 0.13828041E+04</rscale>
<asrwt>0</asrwt>
<pdfrwt beam="1">  1        1 0.14764746E+00 0.13828041E+04</pdfrwt>
<pdfrwt beam="2">  1       -2 0.76631727E-01 0.13828041E+04</pdfrwt>
<totfact> 0.21212112E+01</totfact>
</mgrwt>
</event>
<event>
12    4  0.4320235E-008  0.1735914E+04  0.7818608E-02  0.8741142E-01
         -2   -1    0    0    0  501 -0.00000000000E+00  0.00000000000E+00  0.30250624115E+03  0.30250624115E+03  0.00000000000E+00 0.  1.
          1   -1    0    0  501    0  0.00000000000E+00 -0.00000000000E+00 -0.24903610547E+04  0.24903610547E+04  0.00000000000E+00 0. -1.
        -24    2    1    2    0    0 -0.62082438568E+03 -0.79161848059E+02 -0.95171125268E+03  0.11418717839E+04  0.80170732729E+02 0.  0.
        254    2    1    2    0    0  0.62082438568E+03  0.79161848059E+02 -0.12361435609E+04  0.16509955119E+04  0.89780051308E+03 0.  0.
         23    2    4    4    0    0  0.58157012157E+03 -0.32145754754E+03 -0.87758767433E+03  0.11043810231E+04  0.89098579367E+02 0.  0.
         23    2    4    4    0    0  0.39254264105E+02  0.40061939560E+03 -0.35855588653E+03  0.54661448883E+03  0.90489105696E+02 0.  0.
          1    1    3    3  502    0 -0.44021123817E+03 -0.87253566158E+02 -0.64315293433E+03  0.78424793016E+03  0.00000000000E+00 0. -1.
         -2    1    3    3    0  502 -0.18061314750E+03  0.80917180994E+01 -0.30855831835E+03  0.35762385376E+03  0.00000000000E+00 0.  1.
         11    1    5    5    0    0  0.45263583649E+03 -0.26638129195E+03 -0.74418824357E+03  0.91085362986E+03  0.00000000000E+00 0. -1.
        -11    1    5    5    0    0  0.12893428508E+03 -0.55076255593E+02 -0.13339943076E+03  0.19352739322E+03  0.00000000000E+00 0.  1.
          4    1    6    6  503    0  0.66926390412E+02  0.27071570095E+03 -0.25946821253E+03  0.38090666283E+03  0.00000000000E+00 0. -1.
         -4    1    6    6    0  503 -0.27672126308E+02  0.12990369466E+03 -0.99087673999E+02  0.16570782600E+03  0.00000000000E+00 0.  1.
<mgrwt>
<rscale>  0 0.17359145E+04</rscale>
<asrwt>0</asrwt>
<pdfrwt beam="1">  1        1 0.38313246E+00 0.17359145E+04</pdfrwt>
<pdfrwt beam="2">  1       -2 0.46539423E-01 0.17359145E+04</pdfrwt>
<totfact> 0.50242020E+00</totfact>
</mgrwt>
</event>
<event>
12    4  0.4320235E-008  0.2375915E+04  0.7818608E-02  0.8448576E-01
         -2   -1    0    0    0  501 -0.00000000000E+00  0.00000000000E+00  0.30601135937E+04  0.30601135937E+04  0.00000000000E+00 0.  1.
          1   -1    0    0  501    0  0.00000000000E+00 -0.00000000000E+00 -0.46117342360E+03  0.46117342360E+03  0.00000000000E+00 0. -1.
        -24    2    1    2    0    0 -0.78375769922E+02  0.64046697424E+03  0.22786616324E+04  0.23694339608E+04  0.74684358122E+02 0.  0.
        254    2    1    2    0    0  0.78375769922E+02 -0.64046697424E+03  0.32027853776E+03  0.11518530565E+04  0.89880276796E+03 0.  0.
         23    2    4    4    0    0 -0.29641657931E+03 -0.62593591266E+03  0.31592794503E+03  0.76666217533E+03  0.91114594789E+02 0.  0.
         23    2    4    4    0    0  0.37479234923E+03 -0.14531061582E+02  0.43505927296E+01  0.38519088120E+03  0.87593552925E+02 0.  0.
          3    1    3    3  502    0  0.11133622326E+02  0.27558741153E+02  0.12353658424E+03  0.12706191171E+03  0.00000000000E+00 0. -1.
         -4    1    3    3    0  502 -0.89509392247E+02  0.61290823309E+03  0.21551250481E+04  0.22423720491E+04  0.00000000000E+00 0.  1.
         11    1    5    5    0    0 -0.19918233320E+03 -0.50722661744E+03  0.23968008083E+03  0.59531418969E+03  0.00000000000E+00 0.  1.
        -11    1    5    5    0    0 -0.97234246111E+02 -0.11870929522E+03  0.76247864195E+02  0.17134798564E+03  0.00000000000E+00 0. -1.
          4    1    6    6  503    0  0.30395825131E+03 -0.46055197886E+02  0.85331642951E+01  0.30754595540E+03  0.00000000000E+00 0. -1.
         -4    1    6    6    0  503  0.70834097923E+02  0.31524136305E+02 -0.41825715655E+01  0.77644925805E+02  0.00000000000E+00 0.  1.
<mgrwt>
<rscale>  0 0.23759150E+04</rscale>
<asrwt>0</asrwt>
<pdfrwt beam="1">  1        1 0.70949759E-01 0.23759150E+04</pdfrwt>
<pdfrwt beam="2">  1       -2 0.47078669E+00 0.23759150E+04</pdfrwt>
<totfact> 0.98540640E-02</totfact>
</mgrwt>
</event>
<event>
12    4  0.4320235E-008  0.1473620E+04  0.7818608E-02  0.8902187E-01
          1   -1    0    0  501    0  0.00000000000E+00  0.00000000000E+00  0.14931700605E+04  0.14931700605E+04  0.00000000000E+00 0. -1.
         -2   -1    0    0    0  501 -0.00000000000E+00 -0.00000000000E+00 -0.36358162838E+03  0.36358162838E+03  0.00000000000E+00 0.  1.
        -24    2    1    2    0    0 -0.24910347194E+03  0.16451092960E+02  0.83660719903E+03  0.87683721853E+03  0.81294059629E+02 0.  0.
        254    2    1    2    0    0  0.24910347194E+03 -0.16451092960E+02  0.29298123308E+03  0.97991447035E+03  0.90114992541E+03 0.  0.
         23    2    4    4    0    0 -0.86948193695E+02 -0.39701041261E+03  0.92458347676E+02  0.42660142497E+03  0.90900900048E+02 0.  0.
         23    2    4    4    0    0  0.33605166563E+03  0.38055931965E+03  0.20052288541E+03  0.55331304538E+03  0.90497408073E+02 0.  0.
          1    1    3    3  502    0 -0.22812163962E+03  0.37346256100E+02  0.76989171474E+03  0.80384543149E+03  0.00000000000E+00 0. -1.
         -2    1    3    3    0  502 -0.20981832322E+02 -0.20895163140E+02  0.66715484293E+02  0.72991787036E+02  0.00000000000E+00 0.  1.
         11    1    5    5    0    0 -0.68818123847E+02 -0.22992190162E+03  0.12088190263E+02  0.24030426413E+03  0.00000000000E+00 0.  1.
        -11    1    5    5    0    0 -0.18130069848E+02 -0.16708851099E+03  0.80370157413E+02  0.18629716085E+03  0.00000000000E+00 0. -1.
          3    1    6    6  503    0  0.30148763592E+03  0.34794148968E+03  0.20801531026E+03  0.50520138970E+03  0.00000000000E+00 0. -1.
         -3    1    6    6    0  503  0.34564029715E+02  0.32617829972E+02 -0.74924248521E+01  0.48111655681E+02  0.00000000000E+00 0.  1.
<mgrwt>
<rscale>  0 0.14736203E+04</rscale>
<asrwt>0</asrwt>
<pdfrwt beam="1">  1        1 0.22971847E+00 0.14736203E+04</pdfrwt>
<pdfrwt beam="2">  1       -2 0.55935636E-01 0.14736203E+04</pdfrwt>
<totfact> 0.16884643E+01</totfact>
</mgrwt>
</event>
<event>
12    4  0.4320235E-008  0.1484917E+04  0.7818608E-02  0.8894545E-01
         -2   -1    0    0    0  501 -0.00000000000E+00  0.00000000000E+00  0.25143350249E+03  0.25143350249E+03  0.00000000000E+00 0.  1.
          1   -1    0    0  501    0  0.00000000000E+00 -0.00000000000E+00 -0.21924076234E+04  0.21924076234E+04  0.00000000000E+00 0. -1.
        -24    2    1    2    0    0  0.79445560742E+02  0.44823755879E+03 -0.75748767418E+03  0.88746850172E+03  0.81143445711E+02 0.  0.
        254    2    1    2    0    0 -0.79445560742E+02 -0.44823755879E+03 -0.11834864468E+04  0.15563726242E+04  0.90245613161E+03 0.  0.
         23    2    4    4    0    0 -0.52308262678E+02 -0.10769736352E+03  0.12867624041E+03  0.19742631009E+03  0.89914941016E+02 0.  0.
         23    2    4    4    0    0 -0.27137298065E+02 -0.34054019527E+03 -0.13121626872E+04  0.13589463141E+04  0.90885144561E+02 0.  0.
          1    1    3    3  502    0  0.67990244059E+02  0.39164684543E+03 -0.70548041420E+03  0.80976079162E+03  0.00000000000E+00 0. -1.
         -2    1    3    3    0  502  0.11455316683E+02  0.56590713358E+02 -0.52007259977E+02  0.77707710100E+02  0.00000000000E+00 0.  1.
         11    1    5    5    0    0 -0.11452606296E+02 -0.45360485842E+02 -0.21778571075E+01  0.46834591152E+02  0.00000000000E+00 0. -1.
        -11    1    5    5    0    0 -0.40855656382E+02 -0.62336877675E+02  0.13085409751E+03  0.15059171894E+03  0.00000000000E+00 0.  1.
          4    1    6    6  503    0 -0.28023569009E+02 -0.33457573541E+03 -0.13103053288E+04  0.13526367945E+04  0.00000000000E+00 0.  1.
         -4    1    6    6    0  503  0.88627094428E+00 -0.59644598597E+01 -0.18573583610E+01  0.63095196082E+01  0.00000000000E+00 0. -1.
<mgrwt>
<rscale>  0 0.14849171E+04</rscale>
<asrwt>0</asrwt>
<pdfrwt beam="1">  1        1 0.33729348E+00 0.14849171E+04</pdfrwt>
<pdfrwt beam="2">  1       -2 0.38682078E-01 0.14849171E+04</pdfrwt>
<totfact> 0.11853479E+01</totfact>
</mgrwt>
</event>
<event>
12    4  0.4320235E-008  0.1283678E+04  0.7818608E-02  0.9042610E-01
         -4   -1    0    0    0  501 -0.00000000000E+00  0.00000000000E+00  0.76426732421E+03  0.76426732421E+03  0.00000000000E+00 0.  1.
          1   -1    0    0  501    0  0.00000000000E+00 -0.00000000000E+00 -0.53902270640E+03  0.53902270640E+03  0.00000000000E+00 0. -1.
        -24    2    1    2    0    0 -0.14556204767E+03  0.18294080906E+03  0.28039809280E+03  0.37350678888E+03  0.78921363096E+02 0.  0.
        254    2    1    2    0    0  0.14556204767E+03 -0.18294080906E+03 -0.55153474994E+02  0.92978324173E+03  0.89822008520E+03 0.  0.
         23    2    4    4    0    0  0.21852076401E+03 -0.29579653840E+03 -0.39837768618E+03  0.55011059472E+03  0.93112669048E+02 0.  0.
         23    2    4    4    0    0 -0.72958716340E+02  0.11285572934E+03  0.34322421119E+03  0.37967264702E+03  0.91044328818E+02 0.  0.
          3    1    3    3  502    0 -0.11657354164E+03  0.97436629915E+02  0.14008854957E+03  0.20665935541E+03  0.00000000000E+00 0. -1.
         -4    1    3    3    0  502 -0.28988506033E+02  0.85504179141E+02  0.14030954323E+03  0.16684743347E+03  0.00000000000E+00 0.  1.
         11    1    5    5    0    0  0.87476183543E+02 -0.58691025382E+02 -0.81326491486E+02  0.13308161918E+03  0.00000000000E+00 0. -1.
        -11    1    5    5    0    0  0.13104458047E+03 -0.23710551301E+03 -0.31705119470E+03  0.41702897553E+03  0.00000000000E+00 0.  1.
          3    1    6    6  503    0 -0.75763905397E+02  0.37986257601E+02  0.14775757020E+03  0.17033914605E+03  0.00000000000E+00 0. -1.
         -3    1    6    6    0  503  0.28051890577E+01  0.74869471738E+02  0.19546664099E+03  0.20933350096E+03  0.00000000000E+00 0.  1.
<mgrwt>
<rscale>  0 0.12836782E+04</rscale>
<asrwt>0</asrwt>
<pdfrwt beam="1">  1        1 0.82926570E-01 0.12836782E+04</pdfrwt>
<pdfrwt beam="2">  1       -4 0.11757959E+00 0.12836782E+04</pdfrwt>
<totfact> 0.10504429E+01</totfact>
</mgrwt>
</event>
<event>
12    4  0.4320235E-008  0.1845119E+04  0.7818608E-02  0.8682667E-01
         -2   -1    0    0    0  501 -0.00000000000E+00  0.00000000000E+00  0.56100379400E+03  0.56100379400E+03  0.00000000000E+00 0.  1.
          1   -1    0    0  501    0  0.00000000000E+00 -0.00000000000E+00 -0.15171300059E+04  0.15171300059E+04  0.00000000000E+00 0. -1.
        -24    2    1    2    0    0  0.65685919358E+03  0.47937728480E+01 -0.65876593361E+03  0.93403956040E+03  0.83488709744E+02 0.  0.
        254    2    1    2    0    0 -0.65685919358E+03 -0.47937728480E+01 -0.29736027829E+03  0.11440942395E+04  0.88828008719E+03 0.  0.
         23    2    4    4    0    0 -0.74853823773E+03  0.26256931570E+03 -0.28207489235E+03  0.84662654747E+03  0.89208335372E+02 0.  0.
         23    2    4    4    0    0  0.91679044146E+02 -0.26736308855E+03 -0.15285385941E+02  0.29746769203E+03  0.91462104305E+02 0.  0.
          1    1    3    3  502    0  0.54961410931E+03 -0.95405814036E+01 -0.50814276537E+03  0.74858250169E+03  0.00000000000E+00 0. -1.
         -2    1    3    3    0  502  0.10724508427E+03  0.14334354252E+02 -0.15062316824E+03  0.18545705870E+03  0.00000000000E+00 0.  1.
         11    1    5    5    0    0 -0.36082003180E+03  0.12420077735E+03 -0.18297175217E+03  0.42319686971E+03  0.00000000000E+00 0. -1.
        -11    1    5    5    0    0 -0.38771820593E+03  0.13836853836E+03 -0.99103140185E+02  0.42342967776E+03  0.00000000000E+00 0.  1.
          3    1    6    6  503    0  0.68302055135E+02 -0.25258782593E+03  0.73008942033E+01  0.26176150137E+03  0.00000000000E+00 0. -1.
         -3    1    6    6    0  503  0.23376989011E+02 -0.14775262621E+02 -0.22586280144E+02  0.35706190660E+02  0.00000000000E+00 0.  1.
<mgrwt>
<rscale>  0 0.18451186E+04</rscale>
<asrwt>0</asrwt>
<pdfrwt beam="1">  1        1 0.23340461E+00 0.18451186E+04</pdfrwt>
<pdfrwt beam="2">  1       -2 0.86308278E-01 0.18451186E+04</pdfrwt>
<totfact> 0.61100732E+00</totfact>
</mgrwt>
</event>
<event>
12    4  0.5193540E-008  0.1581505E+04  0.7818608E-02  0.8831991E-01
         -2   -1    0    0    0  501 -0.00000000000E+00  0.00000000000E+00  0.31801325027E+03  0.31801325027E+03  0.00000000000E+00 0.  1.
          1   -1    0    0  501    0  0.00000000000E+00 -0.00000000000E+00 -0.19662382627E+04  0.19662382627E+04  0.00000000000E+00 0. -1.
        -24    2    1    2    0    0  0.34194023546E+03 -0.16535235171E+03 -0.11262334460E+04  0.11912852836E+04  0.80587389222E+02 0.  0.
        254    2    1    2    0    0 -0.34194023546E+03  0.16535235171E+03 -0.52199156648E+03  0.10929662294E+04  0.88194980482E+03 0.  0.
         23    2    4    4    0    0  0.12587473335E+03  0.21379066486E+03 -0.55259436995E+03  0.61351200934E+03  0.97393793589E+02 0.  0.
         23    2    4    4    0    0 -0.46781496881E+03 -0.48438313151E+02  0.30602803465E+02  0.47945422003E+03  0.87992626385E+02 0.  0.
          1    1    3    3  502    0  0.28579494299E+03 -0.14671134623E+03 -0.10235384532E+04  0.10727692827E+04  0.00000000000E+00 0. -1.
         -2    1    3    3    0  502  0.56145292468E+02 -0.18641005475E+02 -0.10269499271E+03  0.11851600094E+03  0.00000000000E+00 0.  1.
         11    1    5    5    0    0  0.13305111317E+03  0.21994114800E+03 -0.53151931310E+03  0.59041467419E+03  0.00000000000E+00 0. -1.
        -11    1    5    5    0    0 -0.71763798143E+01 -0.61504831374E+01 -0.21075056850E+02  0.23097335156E+02  0.00000000000E+00 0.  1.
          2    1    6    6  503    0 -0.45231303737E+03 -0.32940985636E+02  0.17356720459E+02  0.45384297731E+03  0.00000000000E+00 0. -1.
         -2    1    6    6    0  503 -0.15501931443E+02 -0.15497327516E+02  0.13246083006E+02  0.25611242718E+02  0.00000000000E+00 0.  1.
<mgrwt>
<rscale>  0 0.15815054E+04</rscale>
<asrwt>0</asrwt>
<pdfrwt beam="1">  1        1 0.30249819E+00 0.15815054E+04</pdfrwt>
<pdfrwt beam="2">  1       -2 0.48925116E-01 0.15815054E+04</pdfrwt>
<totfact> 0.10488000E+01</totfact>
</mgrwt>
</event>
<event>
12    4  0.4320235E-008  0.2042952E+04  0.7818608E-02  0.8586798E-01
         -2   -1    0    0    0  501 -0.00000000000E+00  0.00000000000E+00  0.60010539086E+03  0.60010539086E+03  0.00000000000E+00 0.  1.
          1   -1    0    0  501    0  0.00000000000E+00 -0.00000000000E+00 -0.17387162540E+04  0.17387162540E+04  0.00000000000E+00 0. -1.
        -24    2    1    2    0    0  0.60041136000E+03  0.39050515020E+03 -0.91463826665E+03  0.11643452067E+04  0.78412549583E+02 0.  0.
        254    2    1    2    0    0 -0.60041136000E+03 -0.39050515020E+03 -0.22397259644E+03  0.11744764381E+04  0.90346173481E+03 0.  0.
         23    2    4    4    0    0  0.81018174041E+02  0.52781457262E+02  0.21105410519E+03  0.24806380337E+03  0.87418467562E+02 0.  0.
         23    2    4    4    0    0 -0.68142953404E+03 -0.44328660746E+03 -0.43502670163E+03  0.92641263477E+03  0.90238087978E+02 0.  0.
          1    1    3    3  502    0  0.29904637337E+03  0.16953160285E+03 -0.49190583481E+03  0.60011752858E+03  0.00000000000E+00 0. -1.
         -2    1    3    3    0  502  0.30136498663E+03  0.22097354735E+03 -0.42273243184E+03  0.56422767809E+03  0.00000000000E+00 0.  1.
         11    1    5    5    0    0  0.53930500894E+02  0.50070274679E+02  0.61072156311E+02  0.95631268994E+02  0.00000000000E+00 0.  1.
        -11    1    5    5    0    0  0.27087673147E+02  0.27111825831E+01  0.14998194888E+03  0.15243253438E+03  0.00000000000E+00 0. -1.
          1    1    6    6  503    0 -0.58512480835E+02 -0.52054836339E+02 -0.70868579287E+02  0.10562088775E+03  0.00000000000E+00 0. -1.
         -1    1    6    6    0  503 -0.62291705320E+03 -0.39123177112E+03 -0.36415812235E+03  0.82079174702E+03  0.00000000000E+00 0.  1.
<mgrwt>
<rscale>  0 0.20429518E+04</rscale>
<asrwt>0</asrwt>
<pdfrwt beam="1">  1        1 0.26749481E+00 0.20429518E+04</pdfrwt>
<pdfrwt beam="2">  1       -2 0.92323907E-01 0.20429518E+04</pdfrwt>
<totfact> 0.36255323E+00</totfact>
</mgrwt>
</event>
<event>
12    4  0.4320235E-008  0.1994133E+04  0.7818608E-02  0.8609369E-01
         -2   -1    0    0    0  501 -0.00000000000E+00  0.00000000000E+00  0.68805924678E+03  0.68805924678E+03  0.00000000000E+00 0.  1.
          1   -1    0    0  501    0  0.00000000000E+00 -0.00000000000E+00 -0.14448487568E+04  0.14448487568E+04  0.00000000000E+00 0. -1.
        -24    2    1    2    0    0  0.30582191444E+03 -0.37170654092E+03 -0.97717297333E+03  0.10922413929E+04  0.80196288217E+02 0.  0.
        254    2    1    2    0    0 -0.30582191444E+03  0.37170654092E+03  0.22038346333E+03  0.10406666106E+04  0.89594940019E+03 0.  0.
         23    2    4    4    0    0 -0.14666372275E+03  0.11352209443E+02 -0.32067234216E+03  0.36497487771E+03  0.93470798142E+02 0.  0.
         23    2    4    4    0    0 -0.15915819168E+03  0.36035433148E+03  0.54105580549E+03  0.67569173294E+03  0.92905108069E+02 0.  0.
          3    1    3    3  502    0  0.19217973471E+03 -0.24460940294E+03 -0.54299148451E+03  0.62578475748E+03  0.00000000000E+00 0. -1.
         -4    1    3    3    0  502  0.11364217972E+03 -0.12709713798E+03 -0.43418148881E+03  0.46645663541E+03  0.00000000000E+00 0.  1.
         11    1    5    5    0    0 -0.13651233638E+03 -0.13067217364E+01 -0.32091562137E+03  0.34874655775E+03  0.00000000000E+00 0.  1.
        -11    1    5    5    0    0 -0.10151386374E+02  0.12658931179E+02  0.24327921268E+00  0.16228319959E+02  0.00000000000E+00 0. -1.
          1    1    6    6  503    0 -0.97941368394E+01 -0.35413588396E+01  0.22766100616E+02  0.25035208729E+02  0.00000000000E+00 0. -1.
         -1    1    6    6    0  503 -0.14936405484E+03  0.36389569032E+03  0.51828970488E+03  0.65065652421E+03  0.00000000000E+00 0.  1.
<mgrwt>
<rscale>  0 0.19941329E+04</rscale>
<asrwt>0</asrwt>
<pdfrwt beam="1">  1        1 0.22228442E+00 0.19941329E+04</pdfrwt>
<pdfrwt beam="2">  1       -2 0.10585527E+00 0.19941329E+04</pdfrwt>
<totfact> 0.41964480E+00</totfact>
</mgrwt>
</event>
<event>
12    4  0.4320235E-008  0.2694052E+04  0.7818608E-02  0.8336937E-01
          1   -1    0    0  501    0  0.00000000000E+00  0.00000000000E+00  0.24196956570E+04  0.24196956570E+04  0.00000000000E+00 0. -1.
         -2   -1    0    0    0  501 -0.00000000000E+00 -0.00000000000E+00 -0.74987918527E+03  0.74987918527E+03  0.00000000000E+00 0.  1.
        -24    2    1    2    0    0 -0.10039964632E+04 -0.48855735345E+03  0.12150274671E+04  0.16520882439E+04  0.80041453690E+02 0.  0.
        254    2    1    2    0    0  0.10039964632E+04  0.48855735345E+03  0.45478900467E+03  0.15174865983E+04  0.92153966363E+03 0.  0.
         23    2    4    4    0    0  0.33278082162E+03  0.31999116731E+03  0.64036411910E+03  0.79521295114E+03  0.95707942410E+02 0.  0.
         23    2    4    4    0    0  0.67121564158E+03  0.16856618615E+03 -0.18557511443E+03  0.72227364720E+03  0.91082938740E+02 0.  0.
          3    1    3    3  502    0 -0.82499862692E+03 -0.42229854840E+03  0.97145802193E+03  0.13426427249E+04  0.00000000000E+00 0. -1.
         -2    1    3    3    0  502 -0.17899783628E+03 -0.66258805054E+02  0.24356944512E+03  0.30944551901E+03  0.00000000000E+00 0.  1.
         11    1    5    5    0    0  0.25620131730E+03  0.29378480184E+03  0.51278993709E+03  0.64412898115E+03  0.00000000000E+00 0.  1.
        -11    1    5    5    0    0  0.76579504318E+02  0.26206365471E+02  0.12757418201E+03  0.15108397000E+03  0.00000000000E+00 0. -1.
          4    1    6    6  503    0  0.42923989091E+03  0.15092522564E+03 -0.10923808784E+03  0.46792976772E+03  0.00000000000E+00 0.  1.
         -4    1    6    6    0  503  0.24197575068E+03  0.17640960503E+02 -0.76337026587E+02  0.25434387949E+03  0.00000000000E+00 0. -1.
<mgrwt>
<rscale>  0 0.26940523E+04</rscale>
<asrwt>0</asrwt>
<pdfrwt beam="1">  1        1 0.37226087E+00 0.26940523E+04</pdfrwt>
<pdfrwt beam="2">  1       -2 0.11536603E+00 0.26940523E+04</pdfrwt>
<totfact> 0.69187238E-01</totfact>
</mgrwt>
</event>
<event>
12    4  0.4320235E-008  0.1095240E+04  0.7818608E-02  0.9209843E-01
         -4   -1    0    0    0  501 -0.00000000000E+00  0.00000000000E+00  0.49091060080E+03  0.49091060080E+03  0.00000000000E+00 0.  1.
          3   -1    0    0  501    0  0.00000000000E+00 -0.00000000000E+00 -0.61088077590E+03  0.61088077590E+03  0.00000000000E+00 0. -1.
        -24    2    1    2    0    0 -0.40904142015E+02 -0.20349284525E+02 -0.17417782092E+03  0.19778506755E+03  0.81815508498E+02 0.  0.
        254    2    1    2    0    0  0.40904142015E+02  0.20349284525E+02  0.54207645820E+02  0.90400630915E+03  0.90122233434E+03 0.  0.
         23    2    4    4    0    0  0.36282014100E+03 -0.15518778777E+03  0.25201681800E+03  0.47710820888E+03  0.91640941966E+02 0.  0.
         23    2    4    4    0    0 -0.32191599898E+03  0.17553707229E+03 -0.19780917218E+03  0.42689810027E+03  0.93114688778E+02 0.  0.
          1    1    3    3  502    0 -0.49990727503E+02 -0.33870941377E+02 -0.70457669340E+02  0.92793300808E+02  0.00000000000E+00 0. -1.
         -2    1    3    3    0  502  0.90865854886E+01  0.13521656852E+02 -0.10372015158E+03  0.10499176674E+03  0.00000000000E+00 0.  1.
         11    1    5    5    0    0  0.18696837973E+03 -0.37098251327E+02  0.14681481947E+03  0.24059934848E+03  0.00000000000E+00 0. -1.
        -11    1    5    5    0    0  0.17585176126E+03 -0.11808953644E+03  0.10520199853E+03  0.23650886041E+03  0.00000000000E+00 0.  1.
          1    1    6    6  503    0 -0.15908048393E+03  0.36293988798E+02 -0.71138342935E+02  0.17800145457E+03  0.00000000000E+00 0. -1.
         -1    1    6    6    0  503 -0.16283551505E+03  0.13924308349E+03 -0.12667082924E+03  0.24889664570E+03  0.00000000000E+00 0.  1.
<mgrwt>
<rscale>  0 0.10952403E+04</rscale>
<asrwt>0</asrwt>
<pdfrwt beam="1">  1        3 0.93981658E-01 0.10952403E+04</pdfrwt>
<pdfrwt beam="2">  1       -4 0.75524708E-01 0.10952403E+04</pdfrwt>
<totfact> 0.36247725E+00</totfact>
</mgrwt>
</event>
<event>
12    4  0.4320235E-008  0.2058458E+04  0.7818608E-02  0.8579767E-01
         -2   -1    0    0    0  501 -0.00000000000E+00  0.00000000000E+00  0.37522465427E+03  0.37522465427E+03  0.00000000000E+00 0.  1.
          1   -1    0    0  501    0  0.00000000000E+00 -0.00000000000E+00 -0.28231405591E+04  0.28231405591E+04  0.00000000000E+00 0. -1.
        -24    2    1    2    0    0 -0.12145885121E+02  0.77559375499E+03 -0.14674186833E+04  0.16616728479E+04  0.78395574253E+02 0.  0.
        254    2    1    2    0    0  0.12145885121E+02 -0.77559375499E+03 -0.98049722154E+03  0.15366923655E+04  0.89350737511E+03 0.  0.
         23    2    4    4    0    0 -0.38221586506E+03 -0.16666878163E+03 -0.21305040569E+03  0.47692274586E+03  0.90539383059E+02 0.  0.
         23    2    4    4    0    0  0.39436175018E+03 -0.60892497336E+03 -0.76744681585E+03  0.10597696196E+04  0.88465916189E+02 0.  0.
          1    1    3    3  502    0  0.15232610178E+02  0.43108459989E+03 -0.88269356164E+03  0.98245299554E+03  0.00000000000E+00 0. -1.
         -2    1    3    3    0  502 -0.27378495298E+02  0.34450915510E+03 -0.58472512163E+03  0.67921985234E+03  0.00000000000E+00 0.  1.
         11    1    5    5    0    0 -0.29661744792E+03 -0.14777505537E+03 -0.12940695887E+03  0.35576050709E+03  0.00000000000E+00 0. -1.
        -11    1    5    5    0    0 -0.85598417134E+02 -0.18893726254E+02 -0.83643446818E+02  0.12116223877E+03  0.00000000000E+00 0.  1.
          3    1    6    6  503    0  0.39096328097E+03 -0.60545063367E+03 -0.74404918321E+03  0.10358725520E+04  0.00000000000E+00 0. -1.
         -3    1    6    6    0  503  0.33984692020E+01 -0.34743396887E+01 -0.23397632645E+02  0.23897067656E+02  0.00000000000E+00 0.  1.
<mgrwt>
<rscale>  0 0.20584576E+04</rscale>
<asrwt>0</asrwt>
<pdfrwt beam="1">  1        1 0.43432933E+00 0.20584576E+04</pdfrwt>
<pdfrwt beam="2">  1       -2 0.57726869E-01 0.20584576E+04</pdfrwt>
<totfact> 0.18299156E+00</totfact>
</mgrwt>
</event>
<event>
12    4  0.4320235E-008  0.2554289E+04  0.7818608E-02  0.8383896E-01
          1   -1    0    0  501    0  0.00000000000E+00  0.00000000000E+00  0.52521341948E+03  0.52521341948E+03  0.00000000000E+00 0. -1.
         -2   -1    0    0    0  501 -0.00000000000E+00 -0.00000000000E+00 -0.31055906686E+04  0.31055906686E+04  0.00000000000E+00 0.  1.
        -24    2    1    2    0    0 -0.82189599797E+03  0.58647438147E+02 -0.50989085445E+02  0.82927731644E+03  0.78411907491E+02 0.  0.
        254    2    1    2    0    0  0.82189599797E+03 -0.58647438147E+02 -0.25293881637E+04  0.28015267717E+04  0.87851876260E+03 0.  0.
         23    2    4    4    0    0  0.11562757300E+03 -0.31507379832E+03 -0.13931017919E+04  0.14360154312E+04  0.93629492692E+02 0.  0.
         23    2    4    4    0    0  0.70626842497E+03  0.25642636017E+03 -0.11362863718E+04  0.13655113405E+04  0.94365968515E+02 0.  0.
          3    1    3    3  502    0 -0.68309290322E+03  0.37002121177E+02 -0.69355646137E+02  0.68760110315E+03  0.00000000000E+00 0. -1.
         -4    1    3    3    0  502 -0.13880309476E+03  0.21645316970E+02  0.18366560692E+02  0.14167621329E+03  0.00000000000E+00 0.  1.
         11    1    5    5    0    0  0.96995876669E+02 -0.26962913900E+03 -0.12947820829E+04  0.13261103706E+04  0.00000000000E+00 0. -1.
        -11    1    5    5    0    0  0.18631696334E+02 -0.45444659322E+02 -0.98319709022E+02  0.10990506063E+03  0.00000000000E+00 0.  1.
          3    1    6    6  503    0  0.62132333880E+03  0.24892710582E+03 -0.96830603159E+03  0.11771252976E+04  0.00000000000E+00 0. -1.
         -3    1    6    6    0  503  0.84945086172E+02  0.74992543559E+01 -0.16798034016E+03  0.18838604291E+03  0.00000000000E+00 0.  1.
<mgrwt>
<rscale>  0 0.25542889E+04</rscale>
<asrwt>0</asrwt>
<pdfrwt beam="1">  1        1 0.80802066E-01 0.25542889E+04</pdfrwt>
<pdfrwt beam="2">  1       -2 0.47778317E+00 0.25542889E+04</pdfrwt>
<totfact> 0.73020998E-02</totfact>
</mgrwt>
</event>
<event>
12    4  0.4320235E-008  0.1591242E+04  0.7818608E-02  0.8825946E-01
         -2   -1    0    0    0  501 -0.00000000000E+00  0.00000000000E+00  0.23570362247E+03  0.23570362247E+03  0.00000000000E+00 0.  1.
          1   -1    0    0  501    0  0.00000000000E+00 -0.00000000000E+00 -0.26856314995E+04  0.26856314995E+04  0.00000000000E+00 0. -1.
        -24    2    1    2    0    0  0.37436562876E+03  0.31756963073E+03 -0.12356013043E+04  0.13317298493E+04  0.76116449638E+02 0.  0.
        254    2    1    2    0    0 -0.37436562876E+03 -0.31756963073E+03 -0.12143265727E+04  0.15896052726E+04  0.90069739832E+03 0.  0.
         23    2    4    4    0    0 -0.22979052055E+02  0.14461558750E+03  0.66160549215E+02  0.18104391563E+03  0.83414483936E+02 0.  0.
         23    2    4    4    0    0 -0.35138657671E+03 -0.46218521824E+03 -0.12804871219E+04  0.14085613570E+04  0.85499268408E+02 0.  0.
          1    1    3    3  502    0  0.34552284400E+03  0.26228400810E+03 -0.11014050460E+04  0.11837533578E+04  0.00000000000E+00 0. -1.
         -2    1    3    3    0  502  0.28842784766E+02  0.55285622636E+02 -0.13419625829E+03  0.14797649152E+03  0.00000000000E+00 0.  1.
         11    1    5    5    0    0  0.13679665718E+02  0.35395239684E+02  0.52860268035E+02  0.65070455532E+02  0.00000000000E+00 0.  1.
        -11    1    5    5    0    0 -0.36658717773E+02  0.10922034782E+03  0.13300281180E+02  0.11597346009E+03  0.00000000000E+00 0. -1.
          3    1    6    6  503    0 -0.30753362778E+03 -0.35173485725E+03 -0.10493283115E+04  0.11486445261E+04  0.00000000000E+00 0. -1.
         -3    1    6    6    0  503 -0.43852948929E+02 -0.11045036099E+03 -0.23115881040E+03  0.25991683093E+03  0.00000000000E+00 0.  1.
<mgrwt>
<rscale>  0 0.15912424E+04</rscale>
<asrwt>0</asrwt>
<pdfrwt beam="1">  1        1 0.41317407E+00 0.15912424E+04</pdfrwt>
<pdfrwt beam="2">  1       -2 0.36262097E-01 0.15912424E+04</pdfrwt>
<totfact> 0.60806231E+00</totfact>
</mgrwt>
</event>
<event>
12    4  0.4320235E-008  0.2352063E+04  0.7818608E-02  0.8457672E-01
         -2   -1    0    0    0  501 -0.00000000000E+00  0.00000000000E+00  0.14092072797E+04  0.14092072797E+04  0.00000000000E+00 0.  1.
          1   -1    0    0  501    0  0.00000000000E+00 -0.00000000000E+00 -0.98143817701E+03  0.98143817701E+03  0.00000000000E+00 0. -1.
        -24    2    1    2    0    0 -0.60654356441E+03  0.78341465010E+03  0.33495577408E+03  0.10490365739E+04  0.81539887652E+02 0.  0.
        254    2    1    2    0    0  0.60654356441E+03 -0.78341465010E+03  0.92813328658E+02  0.13416088829E+04  0.89981468708E+03 0.  0.
         23    2    4    4    0    0 -0.13503584910E+03 -0.40487430188E+02  0.22430903523E+03  0.28039372866E+03  0.91826941788E+02 0.  0.
         23    2    4    4    0    0  0.74157941351E+03 -0.74292721991E+03 -0.13149570658E+03  0.10612151542E+04  0.83699474492E+02 0.  0.
          1    1    3    3  502    0 -0.34386235790E+03  0.47416204649E+03  0.16011437015E+03  0.60721296021E+03  0.00000000000E+00 0. -1.
         -2    1    3    3    0  502 -0.26268120651E+03  0.30925260360E+03  0.17484140393E+03  0.44182361369E+03  0.00000000000E+00 0.  1.
         11    1    5    5    0    0 -0.56297625060E+02  0.10268248992E+02  0.15087276449E+03  0.16136124253E+03  0.00000000000E+00 0. -1.
        -11    1    5    5    0    0 -0.78738224043E+02 -0.50755679180E+02  0.73436270744E+02  0.11903248613E+03  0.00000000000E+00 0.  1.
          2    1    6    6  503    0  0.73529062882E+03 -0.72644182192E+03 -0.12098206342E+03  0.10406760731E+04  0.00000000000E+00 0. -1.
         -2    1    6    6    0  503  0.62887846872E+01 -0.16485397987E+02 -0.10513643155E+02  0.20539081090E+02  0.00000000000E+00 0.  1.
<mgrwt>
<rscale>  0 0.23520628E+04</rscale>
<asrwt>0</asrwt>
<pdfrwt beam="1">  1        1 0.15099049E+00 0.23520628E+04</pdfrwt>
<pdfrwt beam="2">  1       -2 0.21680112E+00 0.23520628E+04</pdfrwt>
<totfact> 0.12786197E+00</totfact>
</mgrwt>
</event>
<event>
12    4  0.4320235E-008  0.1605432E+04  0.7818608E-02  0.8817218E-01
          1   -1    0    0  501    0  0.00000000000E+00  0.00000000000E+00  0.44302104079E+03  0.44302104079E+03  0.00000000000E+00 0. -1.
         -2   -1    0    0    0  501 -0.00000000000E+00 -0.00000000000E+00 -0.14544521267E+04  0.14544521267E+04  0.00000000000E+00 0.  1.
        -24    2    1    2    0    0 -0.16015350155E+02 -0.38151196599E+03  0.12508508886E+03  0.40977887369E+03  0.80402576021E+02 0.  0.
        254    2    1    2    0    0  0.16015350155E+02  0.38151196599E+03 -0.11365161748E+04  0.14876942938E+04  0.88077092630E+03 0.  0.
         23    2    4    4    0    0  0.65805256880E+02 -0.26795265945E+03 -0.24736052518E+03  0.38098491624E+03  0.88506030574E+02 0.  0.
         23    2    4    4    0    0 -0.49789906725E+02  0.64946462544E+03 -0.88915564957E+03  0.11067093775E+04  0.99621998767E+02 0.  0.
          3    1    3    3  502    0 -0.87065697560E+00 -0.36702451101E+03  0.12781334526E+03  0.38864379701E+03  0.00000000000E+00 0. -1.
         -4    1    3    3    0  502 -0.15144693179E+02 -0.14487454980E+02 -0.27282563986E+01  0.21135076680E+02  0.00000000000E+00 0.  1.
         11    1    5    5    0    0  0.33750942540E+02 -0.20209905551E+02 -0.42565419498E+02  0.57960170305E+02  0.00000000000E+00 0.  1.
        -11    1    5    5    0    0  0.32054314340E+02 -0.24774275390E+03 -0.20479510568E+03  0.32302474594E+03  0.00000000000E+00 0. -1.
          1    1    6    6  503    0  0.26513969223E+02  0.20187990946E+03 -0.24395348555E+03  0.31776058837E+03  0.00000000000E+00 0. -1.
         -1    1    6    6    0  503 -0.76303875948E+02  0.44758471598E+03 -0.64520216402E+03  0.78894878916E+03  0.00000000000E+00 0.  1.
<mgrwt>
<rscale>  0 0.16054319E+04</rscale>
<asrwt>0</asrwt>
<pdfrwt beam="1">  1        1 0.68157083E-01 0.16054319E+04</pdfrwt>
<pdfrwt beam="2">  1       -2 0.22376187E+00 0.16054319E+04</pdfrwt>
<totfact> 0.41020964E+00</totfact>
</mgrwt>
</event>
<event>
12    4  0.4320235E-008  0.1201330E+04  0.7818608E-02  0.9111694E-01
         -2   -1    0    0    0  501 -0.00000000000E+00  0.00000000000E+00  0.15312008388E+03  0.15312008388E+03  0.00000000000E+00 0.  1.
          1   -1    0    0  501    0  0.00000000000E+00 -0.00000000000E+00 -0.23563084978E+04  0.23563084978E+04  0.00000000000E+00 0. -1.
        -24    2    1    2    0    0 -0.44349501222E+02 -0.23504797713E+03 -0.31857416043E+03  0.40884877517E+03  0.91942348520E+02 0.  0.
        254    2    1    2    0    0  0.44349501222E+02  0.23504797713E+03 -0.18846142535E+04  0.21005798065E+04  0.89635384157E+03 0.  0.
         23    2    4    4    0    0  0.28401068520E+03  0.13189444889E+03 -0.17658059713E+04  0.17957701995E+04  0.93068072831E+02 0.  0.
         23    2    4    4    0    0 -0.23966118397E+03  0.10315352824E+03 -0.11880828216E+03  0.30480960699E+03  0.10351499946E+03 0.  0.
          1    1    3    3  502    0 -0.25559336953E+02 -0.58206735297E+01 -0.30256016072E+02  0.40032317625E+02  0.00000000000E+00 0. -1.
         -2    1    3    3    0  502 -0.18790164269E+02 -0.22922730360E+03 -0.28831814436E+03  0.36881645755E+03  0.00000000000E+00 0.  1.
         11    1    5    5    0    0  0.27145103034E+03  0.13988563597E+03 -0.17335965495E+04  0.17602870929E+04  0.00000000000E+00 0. -1.
        -11    1    5    5    0    0  0.12559654857E+02 -0.79911870717E+01 -0.32209421839E+02  0.35483106630E+02  0.00000000000E+00 0.  1.
          1    1    6    6  503    0 -0.19996685896E+03  0.10170838013E+03 -0.57228401987E+02  0.23153062273E+03  0.00000000000E+00 0. -1.
         -1    1    6    6    0  503 -0.39694325018E+02  0.14451481135E+01 -0.61579880178E+02  0.73278984262E+02  0.00000000000E+00 0.  1.
<mgrwt>
<rscale>  0 0.12013295E+04</rscale>
<asrwt>0</asrwt>
<pdfrwt beam="1">  1        1 0.36250899E+00 0.12013295E+04</pdfrwt>
<pdfrwt beam="2">  1       -2 0.23556937E-01 0.12013295E+04</pdfrwt>
<totfact> 0.23744613E+01</totfact>
</mgrwt>
</event>
<event>
12    4  0.4320235E-008  0.1945539E+04  0.7818608E-02  0.8632515E-01
         -2   -1    0    0    0  501 -0.00000000000E+00  0.00000000000E+00  0.11631642413E+04  0.11631642413E+04  0.00000000000E+00 0.  1.
          1   -1    0    0  501    0  0.00000000000E+00 -0.00000000000E+00 -0.81354027380E+03  0.81354027380E+03  0.00000000000E+00 0. -1.
        -24    2    1    2    0    0 -0.22627452214E+03 -0.42360225827E+03  0.73703082133E+03  0.88345962448E+03  0.81531858224E+02 0.  0.
        254    2    1    2    0    0  0.22627452214E+03  0.42360225827E+03 -0.38740685385E+03  0.10932448906E+04  0.90247508987E+03 0.  0.
         23    2    4    4    0    0  0.39656462546E+03 -0.92304696072E+02 -0.34369676273E+03  0.54068486479E+03  0.91809581284E+02 0.  0.
         23    2    4    4    0    0 -0.17029010332E+03  0.51590695435E+03 -0.43710091118E+02  0.55256002581E+03  0.90847703497E+02 0.  0.
          3    1    3    3  502    0 -0.53507064458E+02 -0.15566646464E+03  0.20114911843E+03  0.25991541317E+03  0.00000000000E+00 0. -1.
         -4    1    3    3    0  502 -0.17276745768E+03 -0.26793579363E+03  0.53588170291E+03  0.62354421131E+03  0.00000000000E+00 0.  1.
         11    1    5    5    0    0  0.21557264935E+02  0.16230724089E+02 -0.22924701780E+02  0.35407541960E+02  0.00000000000E+00 0.  1.
        -11    1    5    5    0    0  0.37500736053E+03 -0.10853542016E+03 -0.32077206095E+03  0.50527732283E+03  0.00000000000E+00 0. -1.
          3    1    6    6  503    0 -0.62581450115E+02  0.26553010629E+03 -0.60674992910E+02  0.27947116132E+03  0.00000000000E+00 0. -1.
         -3    1    6    6    0  503 -0.10770865321E+03  0.25037684806E+03  0.16964901792E+02  0.27308886450E+03  0.00000000000E+00 0.  1.
<mgrwt>
<rscale>  0 0.19455395E+04</rscale>
<asrwt>0</asrwt>
<pdfrwt beam="1">  1        1 0.12516004E+00 0.19455395E+04</pdfrwt>
<pdfrwt beam="2">  1       -2 0.17894834E+00 0.19455395E+04</pdfrwt>
<totfact> 0.32386026E+00</totfact>
</mgrwt>
</event>
<event>
12    4  0.5154558E-008  0.1945853E+04  0.7818608E-02  0.8632363E-01
          1   -1    0    0  501    0  0.00000000000E+00  0.00000000000E+00  0.18750325246E+04  0.18750325246E+04  0.00000000000E+00 0. -1.
         -2   -1    0    0    0  501 -0.00000000000E+00 -0.00000000000E+00 -0.50483730769E+03  0.50483730769E+03  0.00000000000E+00 0.  1.
        -24    2    1    2    0    0 -0.23112136518E+03  0.18194873406E+02 -0.34488176435E+03  0.42409773456E+03  0.84660015438E+02 0.  0.
        254    2    1    2    0    0  0.23112136518E+03 -0.18194873406E+02  0.17150769812E+04  0.19557720977E+04  0.91093759813E+03 0.  0.
         23    2    4    4    0    0  0.46204014204E+03 -0.18583431366E+03  0.52901423180E+03  0.73234035667E+03  0.91928535079E+02 0.  0.
         23    2    4    4    0    0 -0.23091877686E+03  0.16763944025E+03  0.11860627494E+04  0.12234317410E+04  0.92811184273E+02 0.  0.
          3    1    3    3  502    0 -0.47151340588E+02  0.16750167607E+02 -0.27107391388E+02  0.56908942198E+02  0.00000000000E+00 0. -1.
         -4    1    3    3    0  502 -0.18397002460E+03  0.14447057991E+01 -0.31777437296E+03  0.36718879236E+03  0.00000000000E+00 0.  1.
         11    1    5    5    0    0  0.54003566701E+02 -0.16831510643E+02  0.23993290922E+02  0.61443982424E+02  0.00000000000E+00 0.  1.
        -11    1    5    5    0    0  0.40803657534E+03 -0.16900280302E+03  0.50502094088E+03  0.67089637424E+03  0.00000000000E+00 0. -1.
          4    1    6    6  503    0  0.44816494442E+00  0.27226777969E+02  0.72293225713E+02  0.77251593993E+02  0.00000000000E+00 0.  1.
         -4    1    6    6    0  503 -0.23136694180E+03  0.14041266229E+03  0.11137695237E+04  0.11461801470E+04  0.00000000000E+00 0. -1.
<mgrwt>
<rscale>  0 0.19458534E+04</rscale>
<asrwt>0</asrwt>
<pdfrwt beam="1">  1        1 0.28846654E+00 0.19458534E+04</pdfrwt>
<pdfrwt beam="2">  1       -2 0.77667279E-01 0.19458534E+04</pdfrwt>
<totfact> 0.43792545E+00</totfact>
</mgrwt>
</event>
<event>
12    4  0.4320235E-008  0.1653497E+04  0.7818608E-02  0.8788340E-01
         -2   -1    0    0    0  501 -0.00000000000E+00  0.00000000000E+00  0.14968307079E+04  0.14968307079E+04  0.00000000000E+00 0.  1.
          1   -1    0    0  501    0  0.00000000000E+00 -0.00000000000E+00 -0.45664041130E+03  0.45664041130E+03  0.00000000000E+00 0. -1.
        -24    2    1    2    0    0 -0.22594306364E+03 -0.27010093616E+03 -0.17268929760E+03  0.40036918736E+03  0.80430771189E+02 0.  0.
        254    2    1    2    0    0  0.22594306364E+03  0.27010093616E+03  0.12128795942E+04  0.15531019318E+04  0.90390481630E+03 0.  0.
         23    2    4    4    0    0 -0.17960547533E+03  0.39046730649E+03  0.95054183444E+03  0.10471317397E+04  0.90731786365E+02 0.  0.
         23    2    4    4    0    0  0.40554853897E+03 -0.12036637033E+03  0.26233775974E+03  0.50597019213E+03  0.90703112223E+02 0.  0.
          1    1    3    3  502    0 -0.11453813649E+03 -0.18550994487E+03 -0.13125119118E+03  0.25447946782E+03  0.00000000000E+00 0. -1.
         -2    1    3    3    0  502 -0.11140492716E+03 -0.84590991294E+02 -0.41438106418E+02  0.14588971954E+03  0.00000000000E+00 0.  1.
         11    1    5    5    0    0 -0.14729915213E+03  0.29866102728E+03  0.81373458116E+03  0.87923797575E+03  0.00000000000E+00 0.  1.
        -11    1    5    5    0    0 -0.32306323203E+02  0.91806279208E+02  0.13680725328E+03  0.16789376394E+03  0.00000000000E+00 0. -1.
          2    1    6    6  503    0  0.20852496341E+03 -0.10900473385E+03  0.14225837762E+03  0.27495843026E+03  0.00000000000E+00 0. -1.
         -2    1    6    6    0  503  0.19702357556E+03 -0.11361636473E+02  0.12007938212E+03  0.23101176187E+03  0.00000000000E+00 0.  1.
<mgrwt>
<rscale>  0 0.16534974E+04</rscale>
<asrwt>0</asrwt>
<pdfrwt beam="1">  1        1 0.70252371E-01 0.16534974E+04</pdfrwt>
<pdfrwt beam="2">  1       -2 0.23028165E+00 0.16534974E+04</pdfrwt>
<totfact> 0.35696863E+00</totfact>
</mgrwt>
</event>
<event>
12    4  0.4320235E-008  0.1580898E+04  0.7818608E-02  0.8832370E-01
         -2   -1    0    0    0  501 -0.00000000000E+00  0.00000000000E+00  0.22491598745E+03  0.22491598745E+03  0.00000000000E+00 0.  1.
          1   -1    0    0  501    0  0.00000000000E+00 -0.00000000000E+00 -0.27779701398E+04  0.27779701398E+04  0.00000000000E+00 0. -1.
        -24    2    1    2    0    0  0.41496242000E+03 -0.24116458130E+03 -0.41744654949E+03  0.64103457855E+03  0.79432637745E+02 0.  0.
        254    2    1    2    0    0 -0.41496242000E+03  0.24116458130E+03 -0.21356076028E+04  0.23618515487E+04  0.88722530362E+03 0.  0.
         23    2    4    4    0    0  0.26369011659E+03  0.80789218442E+02 -0.82775521616E+03  0.87704810188E+03  0.89304533624E+02 0.  0.
         23    2    4    4    0    0 -0.67865253658E+03  0.16037536286E+03 -0.13078523867E+04  0.14848034468E+04  0.88734930263E+02 0.  0.
          1    1    3    3  502    0  0.30481220066E+03 -0.20694156197E+03 -0.34557419634E+03  0.50513049098E+03  0.00000000000E+00 0. -1.
         -2    1    3    3    0  502  0.11015021934E+03 -0.34223019331E+02 -0.71872353149E+02  0.13590408758E+03  0.00000000000E+00 0.  1.
         11    1    5    5    0    0  0.11822209387E+02  0.25987864461E+02 -0.48627280905E+02  0.56389238177E+02  0.00000000000E+00 0. -1.
        -11    1    5    5    0    0  0.25186790720E+03  0.54801353981E+02 -0.77912793525E+03  0.82065886370E+03  0.00000000000E+00 0.  1.
          3    1    6    6  503    0 -0.21918442871E+03  0.25103507164E+02 -0.48241463498E+03  0.53046760496E+03  0.00000000000E+00 0. -1.
         -3    1    6    6    0  503 -0.45946810787E+03  0.13527185570E+03 -0.82543775170E+03  0.95433584184E+03  0.00000000000E+00 0.  1.
<mgrwt>
<rscale>  0 0.15808983E+04</rscale>
<asrwt>0</asrwt>
<pdfrwt beam="1">  1        1 0.42738000E+00 0.15808983E+04</pdfrwt>
<pdfrwt beam="2">  1       -2 0.34602461E-01 0.15808983E+04</pdfrwt>
<totfact> 0.57308658E+00</totfact>
</mgrwt>
</event>
<event>
12    4  0.4320235E-008  0.1979854E+04  0.7818608E-02  0.8616098E-01
         -2   -1    0    0    0  501 -0.00000000000E+00  0.00000000000E+00  0.27555690494E+03  0.27555690494E+03  0.00000000000E+00 0.  1.
          1   -1    0    0  501    0  0.00000000000E+00 -0.00000000000E+00 -0.35562739572E+04  0.35562739572E+04  0.00000000000E+00 0. -1.
        -24    2    1    2    0    0 -0.22051466380E+03 -0.34665124114E+03 -0.15684644605E+02  0.41921317241E+03  0.81852769723E+02 0.  0.
        254    2    1    2    0    0  0.22051466380E+03  0.34665124114E+03 -0.32650324077E+04  0.34126176897E+04  0.90373064204E+03 0.  0.
         23    2    4    4    0    0  0.51301370549E+02 -0.29815331029E+03 -0.86805680471E+03  0.92300596215E+03  0.83007005163E+02 0.  0.
         23    2    4    4    0    0  0.16921329325E+03  0.64480455143E+03 -0.23969756030E+04  0.24896117276E+04  0.90931099687E+02 0.  0.
          1    1    3    3  502    0 -0.95293463295E+02 -0.84090932371E+02  0.81092874619E+01  0.12734947820E+03  0.00000000000E+00 0. -1.
         -4    1    3    3    0  502 -0.12522120050E+03 -0.26256030877E+03 -0.23793932067E+02  0.29186369421E+03  0.00000000000E+00 0.  1.
         11    1    5    5    0    0  0.56064286130E+02 -0.29042903051E+03 -0.77533757363E+03  0.82984370759E+03  0.00000000000E+00 0.  1.
        -11    1    5    5    0    0 -0.47629155805E+01 -0.77242797768E+01 -0.92719231079E+02  0.93162254561E+02  0.00000000000E+00 0. -1.
          3    1    6    6  503    0  0.21849437740E+01  0.59568662190E+02 -0.14325379519E+03  0.15516072097E+03  0.00000000000E+00 0. -1.
         -3    1    6    6    0  503  0.16702834947E+03  0.58523588924E+03 -0.22537218078E+04  0.23344510066E+04  0.00000000000E+00 0.  1.
<mgrwt>
<rscale>  0 0.19798544E+04</rscale>
<asrwt>0</asrwt>
<pdfrwt beam="1">  1        1 0.54711905E+00 0.19798544E+04</pdfrwt>
<pdfrwt beam="2">  1       -2 0.42393372E-01 0.19798544E+04</pdfrwt>
<totfact> 0.97580121E-01</totfact>
</mgrwt>
</event>
<event>
12    4  0.4320235E-008  0.1250635E+04  0.7818608E-02  0.9069655E-01
         -2   -1    0    0    0  501 -0.00000000000E+00  0.00000000000E+00  0.33959144924E+03  0.33959144924E+03  0.00000000000E+00 0.  1.
          1   -1    0    0  501    0  0.00000000000E+00 -0.00000000000E+00 -0.11514487284E+04  0.11514487284E+04  0.00000000000E+00 0. -1.
        -24    2    1    2    0    0  0.97986672815E+02  0.26945449382E+03 -0.26863388912E+03  0.40109661962E+03  0.80667339084E+02 0.  0.
        254    2    1    2    0    0 -0.97986672815E+02 -0.26945449382E+03 -0.54322339007E+03  0.10899435581E+04  0.90037669669E+03 0.  0.
         23    2    4    4    0    0  0.16332026690E+03 -0.50932451390E+03 -0.46652781500E+03  0.71556434982E+03  0.91099761364E+02 0.  0.
         23    2    4    4    0    0 -0.26130693971E+03  0.23987002009E+03 -0.76695575069E+02  0.37437920824E+03  0.91970848888E+02 0.  0.
          1    1    3    3  502    0  0.10940508317E+03  0.26230893855E+03 -0.25915802637E+03  0.38462752644E+03  0.00000000000E+00 0. -1.
         -4    1    3    3    0  502 -0.11418410352E+02  0.71455552670E+01 -0.94758627583E+01  0.16469093177E+02  0.00000000000E+00 0.  1.
         11    1    5    5    0    0  0.11646079102E+03 -0.45049963891E+03 -0.37872244433E+03  0.59995310678E+03  0.00000000000E+00 0. -1.
        -11    1    5    5    0    0  0.46859475877E+02 -0.58824874999E+02 -0.87805370665E+02  0.11561124303E+03  0.00000000000E+00 0.  1.
          3    1    6    6  503    0 -0.18122120982E+03  0.21253613053E+03 -0.40054009787E+02  0.28216494710E+03  0.00000000000E+00 0. -1.
         -3    1    6    6    0  503 -0.80085729896E+02  0.27333889553E+02 -0.36641565283E+02  0.92214261139E+02  0.00000000000E+00 0.  1.
<mgrwt>
<rscale>  0 0.12506353E+04</rscale>
<asrwt>0</asrwt>
<pdfrwt beam="1">  1        1 0.17714596E+00 0.12506353E+04</pdfrwt>
<pdfrwt beam="2">  1       -2 0.52244837E-01 0.12506353E+04</pdfrwt>
<totfact> 0.34697805E+01</totfact>
</mgrwt>
</event>
<event>
12    4  0.4320235E-008  0.1298990E+04  0.7818608E-02  0.9030367E-01
          1   -1    0    0  501    0  0.00000000000E+00  0.00000000000E+00  0.53798414031E+03  0.53798414031E+03  0.00000000000E+00 0. -1.
         -2   -1    0    0    0  501 -0.00000000000E+00 -0.00000000000E+00 -0.78411874587E+03  0.78411874587E+03  0.00000000000E+00 0.  1.
        -24    2    1    2    0    0 -0.20316091964E+03  0.23228280322E+03  0.65400607886E+02  0.32552441850E+03  0.80369444380E+02 0.  0.
        254    2    1    2    0    0  0.20316091964E+03 -0.23228280322E+03 -0.31153521344E+03  0.99657846768E+03  0.89492166868E+03 0.  0.
         23    2    4    4    0    0  0.14332616176E+03 -0.26839627267E+03 -0.60387348205E+03  0.68221260608E+03  0.90398615868E+02 0.  0.
         23    2    4    4    0    0  0.59834757882E+02  0.36113469444E+02  0.29233826861E+03  0.31436586160E+03  0.92086104917E+02 0.  0.
          3    1    3    3  502    0 -0.11174090693E+03  0.12886093996E+03  0.76728535928E+02  0.18702523988E+03  0.00000000000E+00 0. -1.
         -4    1    3    3    0  502 -0.91420012708E+02  0.10342186327E+03 -0.11327928042E+02  0.13849917862E+03  0.00000000000E+00 0.  1.
         11    1    5    5    0    0  0.70173285662E+02 -0.21676336325E+03 -0.42896587675E+03  0.48571840513E+03  0.00000000000E+00 0.  1.
        -11    1    5    5    0    0  0.73152876093E+02 -0.51632909415E+02 -0.17490760530E+03  0.19649420095E+03  0.00000000000E+00 0. -1.
          2    1    6    6  503    0 -0.19871916937E+02  0.15577825555E+01  0.18937919649E+02  0.27494809872E+02  0.00000000000E+00 0. -1.
         -2    1    6    6    0  503  0.79706674819E+02  0.34555686888E+02  0.27340034896E+03  0.28687105172E+03  0.00000000000E+00 0.  1.
<mgrwt>
<rscale>  0 0.12989895E+04</rscale>
<asrwt>0</asrwt>
<pdfrwt beam="1">  1        1 0.82766791E-01 0.12989895E+04</pdfrwt>
<pdfrwt beam="2">  1       -2 0.12063365E+00 0.12989895E+04</pdfrwt>
<totfact> 0.18021287E+01</totfact>
</mgrwt>
</event>
<event>
12    4  0.4320235E-008  0.1497447E+04  0.7818608E-02  0.8886153E-01
         -2   -1    0    0    0  501 -0.00000000000E+00  0.00000000000E+00  0.18964623472E+03  0.18964623472E+03  0.00000000000E+00 0.  1.
          1   -1    0    0  501    0  0.00000000000E+00 -0.00000000000E+00 -0.29559600060E+04  0.29559600060E+04  0.00000000000E+00 0. -1.
        -24    2    1    2    0    0  0.26580731504E+03 -0.39387001681E+03 -0.82225695967E+03  0.95369350959E+03  0.87393842110E+02 0.  0.
        254    2    1    2    0    0 -0.26580731504E+03  0.39387001681E+03 -0.19440568116E+04  0.21919127311E+04  0.89405671815E+03 0.  0.
         23    2    4    4    0    0 -0.61289974746E+02  0.50221630883E+03 -0.18560427498E+04  0.19258154037E+04  0.88840297088E+02 0.  0.
         23    2    4    4    0    0 -0.20451734030E+03 -0.10834629202E+03 -0.88014061821E+02  0.26609732739E+03  0.97442552770E+02 0.  0.
          3    1    3    3  502    0 -0.24833810260E+01 -0.20350131579E+01  0.93707544667E+00  0.33446330540E+01  0.00000000000E+00 0. -1.
         -2    1    3    3    0  502  0.26829069607E+03 -0.39183500365E+03 -0.82319403512E+03  0.95034887654E+03  0.00000000000E+00 0.  1.
         11    1    5    5    0    0 -0.16608501702E+02  0.37637436678E+03 -0.14619526586E+04  0.15097149010E+04  0.00000000000E+00 0.  1.
        -11    1    5    5    0    0 -0.44681473043E+02  0.12584194205E+03 -0.39409009113E+03  0.41610050269E+03  0.00000000000E+00 0. -1.
          2    1    6    6  503    0 -0.33811963217E+02 -0.13868458314E+02 -0.58205241189E+02  0.68727236919E+02  0.00000000000E+00 0. -1.
         -2    1    6    6    0  503 -0.17070537708E+03 -0.94477833710E+02 -0.29808820632E+02  0.19737009047E+03  0.00000000000E+00 0.  1.
<mgrwt>
<rscale>  0 0.14974467E+04</rscale>
<asrwt>0</asrwt>
<pdfrwt beam="1">  1        1 0.45476304E+00 0.14974467E+04</pdfrwt>
<pdfrwt beam="2">  1       -2 0.29176346E-01 0.14974467E+04</pdfrwt>
<totfact> 0.59407132E+00</totfact>
</mgrwt>
</event>
<event>
12    4  0.4320235E-008  0.1388756E+04  0.7818608E-02  0.8961998E-01
         -2   -1    0    0    0  501 -0.00000000000E+00  0.00000000000E+00  0.41708875291E+03  0.41708875291E+03  0.00000000000E+00 0.  1.
          1   -1    0    0  501    0  0.00000000000E+00 -0.00000000000E+00 -0.11560157155E+04  0.11560157155E+04  0.00000000000E+00 0. -1.
        -24    2    1    2    0    0 -0.11323660903E+03 -0.43594151773E+02  0.19804714762E+03  0.24557788499E+03  0.79767444645E+02 0.  0.
        254    2    1    2    0    0  0.11323660903E+03  0.43594151773E+02 -0.93697411018E+03  0.13275265834E+04  0.93256815662E+03 0.  0.
         23    2    4    4    0    0 -0.23559362041E+03 -0.32661282845E+03 -0.32119785963E+03  0.52352270373E+03  0.93421959990E+02 0.  0.
         23    2    4    4    0    0  0.34883022944E+03  0.37020698022E+03 -0.61577625055E+03  0.80400387965E+03  0.92228577811E+02 0.  0.
          1    1    3    3  502    0 -0.37534236326E+02 -0.43832902030E+02  0.39638544190E+02  0.70009687776E+02  0.00000000000E+00 0. -1.
         -2    1    3    3    0  502 -0.75702372708E+02  0.23875025727E+00  0.15840860342E+03  0.17556819722E+03  0.00000000000E+00 0.  1.
         11    1    5    5    0    0 -0.12082382495E+03 -0.15382383354E+03 -0.97865165824E+02  0.21871844715E+03  0.00000000000E+00 0.  1.
        -11    1    5    5    0    0 -0.11476979546E+03 -0.17278899491E+03 -0.22333269380E+03  0.30480425659E+03  0.00000000000E+00 0. -1.
          2    1    6    6  503    0  0.11225481900E+03  0.97022964793E+02 -0.12187616708E+03  0.19201145848E+03  0.00000000000E+00 0. -1.
         -2    1    6    6    0  503  0.23657541045E+03  0.27318401543E+03 -0.49390008347E+03  0.61199242117E+03  0.00000000000E+00 0.  1.
<mgrwt>
<rscale>  0 0.13887565E+04</rscale>
<asrwt>0</asrwt>
<pdfrwt beam="1">  1        1 0.17784857E+00 0.13887565E+04</pdfrwt>
<pdfrwt beam="2">  1       -2 0.64167500E-01 0.13887565E+04</pdfrwt>
<totfact> 0.22116792E+01</totfact>
</mgrwt>
</event>
<event>
12    4  0.4320235E-008  0.1144511E+04  0.7818608E-02  0.9162862E-01
          1   -1    0    0  501    0  0.00000000000E+00  0.00000000000E+00  0.31948126092E+03  0.31948126092E+03  0.00000000000E+00 0. -1.
         -2   -1    0    0    0  501 -0.00000000000E+00 -0.00000000000E+00 -0.10250258233E+04  0.10250258233E+04  0.00000000000E+00 0.  1.
        -24    2    1    2    0    0 -0.11214523019E+03 -0.49948290796E+02  0.57704437343E+02  0.15744855427E+03  0.79930349327E+02 0.  0.
        254    2    1    2    0    0  0.11214523019E+03  0.49948290796E+02 -0.76324899968E+03  0.11870585299E+04  0.90082602844E+03 0.  0.
         23    2    4    4    0    0 -0.20045272825E+03 -0.81882583365E+02  0.10004398407E+03  0.25480906143E+03  0.89625918761E+02 0.  0.
         23    2    4    4    0    0  0.31259795845E+03  0.13183087416E+03 -0.86329298375E+03  0.93224946849E+03  0.93367192856E+02 0.  0.
          3    1    3    3  502    0 -0.85926232219E+02 -0.54172887706E+02  0.74550352390E+02  0.12599910391E+03  0.00000000000E+00 0. -1.
         -4    1    3    3    0  502 -0.26218997973E+02  0.42245969102E+01 -0.16845915046E+02  0.31449450353E+02  0.00000000000E+00 0.  1.
         11    1    5    5    0    0 -0.14838679882E+02  0.18151503804E+02  0.84654980165E+01  0.24926455177E+02  0.00000000000E+00 0. -1.
        -11    1    5    5    0    0 -0.18561404837E+03 -0.10003408717E+03  0.91578486050E+02  0.22988260625E+03  0.00000000000E+00 0.  1.
          2    1    6    6  503    0  0.28846571422E+03  0.12612621040E+03 -0.70605141017E+03  0.77306460470E+03  0.00000000000E+00 0.  1.
         -2    1    6    6    0  503  0.24132244230E+02  0.57046637658E+01 -0.15724157357E+03  0.15918486379E+03  0.00000000000E+00 0. -1.
<mgrwt>
<rscale>  0 0.11445113E+04</rscale>
<asrwt>0</asrwt>
<pdfrwt beam="1">  1        1 0.49150964E-01 0.11445113E+04</pdfrwt>
<pdfrwt beam="2">  1       -2 0.15769628E+00 0.11445113E+04</pdfrwt>
<totfact> 0.18326824E+01</totfact>
</mgrwt>
</event>
<event>
12    4  0.4320235E-008  0.1795357E+04  0.7818608E-02  0.8708773E-01
         -2   -1    0    0    0  501 -0.00000000000E+00  0.00000000000E+00  0.38319168588E+03  0.38319168588E+03  0.00000000000E+00 0.  1.
          1   -1    0    0  501    0  0.00000000000E+00 -0.00000000000E+00 -0.21029327411E+04  0.21029327411E+04  0.00000000000E+00 0. -1.
        -24    2    1    2    0    0  0.27329998288E+03 -0.38691928860E+03 -0.12894152472E+04  0.13760023981E+04  0.79946878755E+02 0.  0.
        254    2    1    2    0    0 -0.27329998288E+03  0.38691928860E+03 -0.43032580807E+03  0.11101220289E+04  0.90707838770E+03 0.  0.
         23    2    4    4    0    0  0.32322246245E+03  0.14275066852E+03 -0.21769542868E+03  0.42496703895E+03  0.91406624133E+02 0.  0.
         23    2    4    4    0    0 -0.59652244533E+03  0.24416862008E+03 -0.21263037940E+03  0.68515498995E+03  0.93639410507E+02 0.  0.
          3    1    3    3  502    0  0.26692784864E+03 -0.38676498835E+03 -0.12850407560E+04  0.13682716753E+04  0.00000000000E+00 0. -1.
         -2    1    3    3    0  502  0.63721342372E+01 -0.15430024614E+00 -0.43744911361E+01  0.77307228641E+01  0.00000000000E+00 0.  1.
         11    1    5    5    0    0  0.36027077815E+02  0.42057496818E+02 -0.61951731707E+02  0.83095128834E+02  0.00000000000E+00 0. -1.
        -11    1    5    5    0    0  0.28719538464E+03  0.10069317170E+03 -0.15574369697E+03  0.34187191012E+03  0.00000000000E+00 0.  1.
          4    1    6    6  503    0 -0.81434540772E+02  0.42934029457E+02 -0.65289555090E+02  0.11286115948E+03  0.00000000000E+00 0. -1.
         -4    1    6    6    0  503 -0.51508790456E+03  0.20123459062E+03 -0.14734082431E+03  0.57229383047E+03  0.00000000000E+00 0.  1.
<mgrwt>
<rscale>  0 0.17953566E+04</rscale>
<asrwt>0</asrwt>
<pdfrwt beam="1">  1        1 0.32352811E+00 0.17953566E+04</pdfrwt>
<pdfrwt beam="2">  1       -2 0.58952568E-01 0.17953566E+04</pdfrwt>
<totfact> 0.56541224E+00</totfact>
</mgrwt>
</event>
<event>
12    4  0.4320235E-008  0.2783636E+04  0.7818608E-02  0.8308367E-01
          1   -1    0    0  501    0  0.00000000000E+00  0.00000000000E+00  0.16578819363E+04  0.16578819363E+04  0.00000000000E+00 0. -1.
         -2   -1    0    0    0  501 -0.00000000000E+00 -0.00000000000E+00 -0.11684532728E+04  0.11684532728E+04  0.00000000000E+00 0.  1.
        -24    2    1    2    0    0  0.10853764085E+04 -0.26402473806E+03 -0.33997750900E+03  0.11701966712E+04  0.77617860087E+02 0.  0.
        254    2    1    2    0    0 -0.10853764085E+04  0.26402473806E+03  0.82940617250E+03  0.16561385379E+04  0.89840372168E+03 0.  0.
         23    2    4    4    0    0 -0.10142922426E+04  0.33616457806E+01  0.90310265009E+03  0.13615616649E+04  0.97240509298E+02 0.  0.
         23    2    4    4    0    0 -0.71084165904E+02  0.26066309228E+03 -0.73696477586E+02  0.29457687295E+03  0.91357303770E+02 0.  0.
          1    1    3    3  502    0  0.20172745995E+03 -0.64614776999E+02 -0.92438342326E+02  0.23111444057E+03  0.00000000000E+00 0. -1.
         -2    1    3    3    0  502  0.88364894859E+03 -0.19940996106E+03 -0.24753916667E+03  0.93908223067E+03  0.00000000000E+00 0.  1.
         11    1    5    5    0    0 -0.19289976714E+03 -0.15184338984E+02  0.22081119423E+03  0.29359575578E+03  0.00000000000E+00 0.  1.
        -11    1    5    5    0    0 -0.82139247551E+03  0.18545984764E+02  0.68229145586E+03  0.10679659091E+04  0.00000000000E+00 0. -1.
          1    1    6    6  503    0  0.17041966890E+02  0.47905323413E+02 -0.33282333652E+02  0.60770571662E+02  0.00000000000E+00 0. -1.
         -1    1    6    6    0  503 -0.88126132794E+02  0.21275776887E+03 -0.40414143934E+02  0.23380630129E+03  0.00000000000E+00 0.  1.
<mgrwt>
<rscale>  0 0.27836362E+04</rscale>
<asrwt>0</asrwt>
<pdfrwt beam="1">  1        1 0.25505876E+00 0.27836362E+04</pdfrwt>
<pdfrwt beam="2">  1       -2 0.17976204E+00 0.27836362E+04</pdfrwt>
<totfact> 0.70600480E-01</totfact>
</mgrwt>
</event>
<event>
12    4  0.4320235E-008  0.1008274E+04  0.7818608E-02  0.9299517E-01
         -2   -1    0    0    0  501 -0.00000000000E+00  0.00000000000E+00  0.34100509930E+03  0.34100509930E+03  0.00000000000E+00 0.  1.
          1   -1    0    0  501    0  0.00000000000E+00 -0.00000000000E+00 -0.74530848766E+03  0.74530848766E+03  0.00000000000E+00 0. -1.
        -24    2    1    2    0    0  0.67367160941E+02 -0.31876517512E+02 -0.40018503757E+02  0.11598908408E+03  0.79357042788E+02 0.  0.
        254    2    1    2    0    0 -0.67367160941E+02  0.31876517512E+02 -0.36428488461E+03  0.97032450289E+03  0.89625427029E+03 0.  0.
         23    2    4    4    0    0 -0.16284282158E+03 -0.35038302636E+03  0.39521339228E+02  0.39902373844E+03  0.91498403720E+02 0.  0.
         23    2    4    4    0    0  0.95475660640E+02  0.38225954388E+03 -0.40380622384E+03  0.57130076445E+03  0.89928507097E+02 0.  0.
          1    1    3    3  502    0  0.68295620431E+02 -0.20490280824E+00 -0.47800774009E+02  0.83362148191E+02  0.00000000000E+00 0. -1.
         -2    1    3    3    0  502 -0.92845949022E+00 -0.31671614704E+02  0.77822702519E+01  0.32626935885E+02  0.00000000000E+00 0.  1.
         11    1    5    5    0    0 -0.12230121901E+03 -0.30736463412E+03  0.60519119586E+02  0.33629328021E+03  0.00000000000E+00 0. -1.
        -11    1    5    5    0    0 -0.40541602571E+02 -0.43018392242E+02 -0.20997780358E+02  0.62730458232E+02  0.00000000000E+00 0.  1.
          2    1    6    6  503    0  0.76870189005E+01  0.16372795707E+01  0.19309303426E+01  0.80931721813E+01  0.00000000000E+00 0.  1.
         -2    1    6    6    0  503  0.87788641739E+02  0.38062226431E+03 -0.40573715418E+03  0.56320759226E+03  0.00000000000E+00 0. -1.
<mgrwt>
<rscale>  0 0.10082738E+04</rscale>
<asrwt>0</asrwt>
<pdfrwt beam="1">  1        1 0.11466284E+00 0.10082738E+04</pdfrwt>
<pdfrwt beam="2">  1       -2 0.52462324E-01 0.10082738E+04</pdfrwt>
<totfact> 0.74457396E+01</totfact>
</mgrwt>
</event>
<event>
12    4  0.4320235E-008  0.2116704E+04  0.7818608E-02  0.8553921E-01
         -2   -1    0    0    0  501 -0.00000000000E+00  0.00000000000E+00  0.10848963764E+04  0.10848963764E+04  0.00000000000E+00 0.  1.
          1   -1    0    0  501    0  0.00000000000E+00 -0.00000000000E+00 -0.10324569073E+04  0.10324569073E+04  0.00000000000E+00 0. -1.
        -24    2    1    2    0    0 -0.27902271102E+03  0.60329931903E+03 -0.48407716012E+03  0.82634935959E+03  0.81846353273E+02 0.  0.
        254    2    1    2    0    0  0.27902271102E+03 -0.60329931903E+03  0.53651662930E+03  0.12910039241E+04  0.96799653766E+03 0.  0.
         23    2    4    4    0    0  0.21481670112E+03 -0.51819190128E+03 -0.15264692433E+03  0.58841431909E+03  0.90891505458E+02 0.  0.
         23    2    4    4    0    0  0.64206009899E+02 -0.85107417752E+02  0.68916355364E+03  0.70258960501E+03  0.85557379260E+02 0.  0.
          1    1    3    3  502    0 -0.27976633149E+03  0.60438648159E+03 -0.47711184626E+03  0.81926060152E+03  0.00000000000E+00 0. -1.
         -2    1    3    3    0  502  0.74362047343E+00 -0.10871625596E+01 -0.69653138569E+01  0.70887580693E+01  0.00000000000E+00 0.  1.
         11    1    5    5    0    0  0.12152082831E+02 -0.22515383146E+02 -0.29273905463E+02  0.38879006371E+02  0.00000000000E+00 0. -1.
        -11    1    5    5    0    0  0.20266461829E+03 -0.49567651813E+03 -0.12337301887E+03  0.54953531272E+03  0.00000000000E+00 0.  1.
          2    1    6    6  503    0  0.51885361859E+02 -0.98792683427E+02  0.64740061362E+03  0.65694721218E+03  0.00000000000E+00 0.  1.
         -2    1    6    6    0  503  0.12320648039E+02  0.13685265675E+02  0.41762940019E+02  0.45642392835E+02  0.00000000000E+00 0. -1.
<mgrwt>
<rscale>  0 0.21167038E+04</rscale>
<asrwt>0</asrwt>
<pdfrwt beam="1">  1        1 0.15883952E+00 0.21167038E+04</pdfrwt>
<pdfrwt beam="2">  1       -2 0.16690713E+00 0.21167038E+04</pdfrwt>
<totfact> 0.25780388E+00</totfact>
</mgrwt>
</event>
<event>
12    4  0.4320235E-008  0.1414678E+04  0.7818608E-02  0.8943262E-01
          1   -1    0    0  501    0  0.00000000000E+00  0.00000000000E+00  0.50437226092E+03  0.50437226092E+03  0.00000000000E+00 0. -1.
         -2   -1    0    0    0  501 -0.00000000000E+00 -0.00000000000E+00 -0.99198282337E+03  0.99198282337E+03  0.00000000000E+00 0.  1.
        -24    2    1    2    0    0  0.36606382661E+03 -0.19928458783E+03 -0.14267014634E+03  0.44761280235E+03  0.79280376353E+02 0.  0.
        254    2    1    2    0    0 -0.36606382661E+03  0.19928458783E+03 -0.34494041611E+03  0.10487422819E+04  0.89842050910E+03 0.  0.
         23    2    4    4    0    0 -0.47663002172E+03  0.12202784239E+02  0.14390107577E+03  0.50620038429E+03  0.90588210612E+02 0.  0.
         23    2    4    4    0    0  0.11056619511E+03  0.18708180359E+03 -0.48884149188E+03  0.54254189765E+03  0.90339480801E+02 0.  0.
          1    1    3    3  502    0  0.33168645515E+03 -0.19821444578E+03 -0.14598926224E+03  0.41305899789E+03  0.00000000000E+00 0. -1.
         -2    1    3    3    0  502  0.34377371458E+02 -0.10701420429E+01  0.33191159014E+01  0.34553804461E+02  0.00000000000E+00 0.  1.
         11    1    5    5    0    0 -0.45407181049E+03  0.26326939513E+02  0.11992631749E+03  0.47037924960E+03  0.00000000000E+00 0. -1.
        -11    1    5    5    0    0 -0.22558211227E+02 -0.14124155274E+02  0.23974758281E+02  0.35821134691E+02  0.00000000000E+00 0.  1.
          2    1    6    6  503    0  0.12038297884E+03  0.18993602324E+03 -0.47219878878E+03  0.52300999096E+03  0.00000000000E+00 0. -1.
         -2    1    6    6    0  503 -0.98167837273E+01 -0.28542196551E+01 -0.16642703093E+02  0.19531906687E+02  0.00000000000E+00 0.  1.
<mgrwt>
<rscale>  0 0.14146782E+04</rscale>
<asrwt>0</asrwt>
<pdfrwt beam="1">  1        1 0.77595732E-01 0.14146782E+04</pdfrwt>
<pdfrwt beam="2">  1       -2 0.15261274E+00 0.14146782E+04</pdfrwt>
<totfact> 0.10664481E+01</totfact>
</mgrwt>
</event>
<event>
12    4  0.4320235E-008  0.2185007E+04  0.7818608E-02  0.8524694E-01
         -2   -1    0    0    0  501 -0.00000000000E+00  0.00000000000E+00  0.56522488273E+03  0.56522488273E+03  0.00000000000E+00 0.  1.
          1   -1    0    0  501    0  0.00000000000E+00 -0.00000000000E+00 -0.21116628270E+04  0.21116628270E+04  0.00000000000E+00 0. -1.
        -24    2    1    2    0    0  0.65702893433E+03 -0.14658296362E+03  0.10246889698E+03  0.68563028034E+03  0.80096321333E+02 0.  0.
        254    2    1    2    0    0 -0.65702893433E+03  0.14658296362E+03 -0.16489068412E+04  0.19912574294E+04  0.89052725574E+03 0.  0.
         23    2    4    4    0    0 -0.50718492553E+03  0.58121585120E+02 -0.24497706315E+03  0.57370840601E+03  0.92265412343E+02 0.  0.
         23    2    4    4    0    0 -0.14984400880E+03  0.88461378499E+02 -0.14039297781E+04  0.14175490234E+04  0.90264995453E+02 0.  0.
          3    1    3    3  502    0  0.11722048843E+03 -0.32250062740E+02 -0.11772067928E+02  0.12214454976E+03  0.00000000000E+00 0. -1.
         -4    1    3    3    0  502  0.53980844591E+03 -0.11433290088E+03  0.11424096491E+03  0.56348573057E+03  0.00000000000E+00 0.  1.
         11    1    5    5    0    0 -0.22125900228E+03  0.23107485593E+02 -0.56698254587E+02  0.22957394028E+03  0.00000000000E+00 0.  1.
        -11    1    5    5    0    0 -0.28592592325E+03  0.35014099526E+02 -0.18827880857E+03  0.34413446574E+03  0.00000000000E+00 0. -1.
          1    1    6    6  503    0  0.21811054358E+01  0.34709191416E+02 -0.24747863071E+03  0.24991029960E+03  0.00000000000E+00 0. -1.
         -1    1    6    6    0  503 -0.15202511424E+03  0.53752187083E+02 -0.11564511474E+04  0.11676387238E+04  0.00000000000E+00 0.  1.
<mgrwt>
<rscale>  0 0.21850074E+04</rscale>
<asrwt>0</asrwt>
<pdfrwt beam="1">  1        1 0.32487121E+00 0.21850074E+04</pdfrwt>
<pdfrwt beam="2">  1       -2 0.86957674E-01 0.21850074E+04</pdfrwt>
<totfact> 0.22952994E+00</totfact>
</mgrwt>
</event>
<event>
12    4  0.4320235E-008  0.1758678E+04  0.7818608E-02  0.8728588E-01
          1   -1    0    0  501    0  0.00000000000E+00  0.00000000000E+00  0.20406184937E+04  0.20406184937E+04  0.00000000000E+00 0. -1.
         -2   -1    0    0    0  501 -0.00000000000E+00 -0.00000000000E+00 -0.37892272996E+03  0.37892272996E+03  0.00000000000E+00 0.  1.
        -24    2    1    2    0    0  0.35002031490E+03  0.91707785130E+02  0.12993377467E+04  0.13509069292E+04  0.75805096487E+02 0.  0.
        254    2    1    2    0    0 -0.35002031490E+03 -0.91707785130E+02  0.36235801709E+03  0.10686342945E+04  0.93795062993E+03 0.  0.
         23    2    4    4    0    0 -0.48104935516E+03 -0.96660327161E+02  0.60190872932E+03  0.78182693682E+03  0.90595473124E+02 0.  0.
         23    2    4    4    0    0  0.13102904027E+03  0.49525420305E+01 -0.23955071223E+03  0.28680735770E+03  0.87640057249E+02 0.  0.
          1    1    3    3  502    0  0.18855004322E+03  0.71252927816E+02  0.60284224204E+03  0.63564681019E+03  0.00000000000E+00 0. -1.
         -2    1    3    3    0  502  0.16147027167E+03  0.20454857314E+02  0.69649550463E+03  0.71526011897E+03  0.00000000000E+00 0.  1.
         11    1    5    5    0    0 -0.11511732814E+03  0.13356066035E+01  0.96600727925E+02  0.15028467559E+03  0.00000000000E+00 0. -1.
        -11    1    5    5    0    0 -0.36593202703E+03 -0.97995933764E+02  0.50530800140E+03  0.63154226122E+03  0.00000000000E+00 0.  1.
          1    1    6    6  503    0  0.82675533368E+02 -0.28349316963E+02 -0.86876878434E+02  0.12323359768E+03  0.00000000000E+00 0. -1.
         -1    1    6    6    0  503  0.48353506899E+02  0.33301858994E+02 -0.15267383380E+03  0.16357376002E+03  0.00000000000E+00 0.  1.
<mgrwt>
<rscale>  0 0.17586776E+04</rscale>
<asrwt>0</asrwt>
<pdfrwt beam="1">  1        1 0.31394130E+00 0.17586776E+04</pdfrwt>
<pdfrwt beam="2">  1       -2 0.58295806E-01 0.17586776E+04</pdfrwt>
<totfact> 0.64014795E+00</totfact>
</mgrwt>
</event>
<event>
12    4  0.4320235E-008  0.1407695E+04  0.7818608E-02  0.8948267E-01
         -2   -1    0    0    0  501 -0.00000000000E+00  0.00000000000E+00  0.33639114198E+03  0.33639114198E+03  0.00000000000E+00 0.  1.
          1   -1    0    0  501    0  0.00000000000E+00 -0.00000000000E+00 -0.14726945918E+04  0.14726945918E+04  0.00000000000E+00 0. -1.
        -24    2    1    2    0    0 -0.34495115403E+03  0.24761169721E+02 -0.60317301791E+03  0.69993179504E+03  0.80513439819E+02 0.  0.
        254    2    1    2    0    0  0.34495115403E+03 -0.24761169721E+02 -0.53313043192E+03  0.11091539387E+04  0.90905994753E+03 0.  0.
         23    2    4    4    0    0 -0.13389766099E+03  0.68113318233E+01  0.18293121179E+03  0.24271209566E+03  0.86431217003E+02 0.  0.
         23    2    4    4    0    0  0.47884881502E+03 -0.31572501544E+02 -0.71606164371E+03  0.86644184309E+03  0.87659451012E+02 0.  0.
          3    1    3    3  502    0 -0.22953768561E+03  0.33451392197E+02 -0.46533497238E+03  0.51994536374E+03  0.00000000000E+00 0. -1.
         -4    1    3    3    0  502 -0.11541346842E+03 -0.86902224762E+01 -0.13783804553E+03  0.17998643130E+03  0.00000000000E+00 0.  1.
         11    1    5    5    0    0 -0.58127194805E+02  0.17449470005E+02  0.22064832159E+02  0.64576401243E+02  0.00000000000E+00 0.  1.
        -11    1    5    5    0    0 -0.75770466189E+02 -0.10638138182E+02  0.16086637963E+03  0.17813569442E+03  0.00000000000E+00 0. -1.
          2    1    6    6  503    0  0.45885631576E+03 -0.48789473894E+02 -0.67676771395E+03  0.81911175667E+03  0.00000000000E+00 0. -1.
         -2    1    6    6    0  503  0.19992499265E+02  0.17216972350E+02 -0.39293929759E+02  0.47330086411E+02  0.00000000000E+00 0.  1.
<mgrwt>
<rscale>  0 0.14076952E+04</rscale>
<asrwt>0</asrwt>
<pdfrwt beam="1">  1        1 0.22656840E+00 0.14076952E+04</pdfrwt>
<pdfrwt beam="2">  1       -2 0.51752483E-01 0.14076952E+04</pdfrwt>
<totfact> 0.20603544E+01</totfact>
</mgrwt>
</event>
<event>
12    4  0.4320235E-008  0.1764194E+04  0.7818608E-02  0.8725576E-01
         -2   -1    0    0    0  501 -0.00000000000E+00  0.00000000000E+00  0.19522274445E+03  0.19522274445E+03  0.00000000000E+00 0.  1.
          1   -1    0    0  501    0  0.00000000000E+00 -0.00000000000E+00 -0.39856805748E+04  0.39856805748E+04  0.00000000000E+00 0. -1.
        -24    2    1    2    0    0  0.29882415580E+03  0.37622531915E+03 -0.35553843254E+03  0.60297558354E+03  0.79565133526E+02 0.  0.
        254    2    1    2    0    0 -0.29882415580E+03 -0.37622531915E+03 -0.34349193978E+04  0.35779277357E+04  0.87866617417E+03 0.  0.
         23    2    4    4    0    0  0.21906363892E+03 -0.17081429220E+03 -0.41928892604E+03  0.50990971794E+03  0.83894675828E+02 0.  0.
         23    2    4    4    0    0 -0.51788779472E+03 -0.20541102695E+03 -0.30156304718E+04  0.30680180178E+04  0.91137024093E+02 0.  0.
          1    1    3    3  502    0  0.19892024285E+02  0.42581334013E+02 -0.64045878121E+02  0.79440148167E+02  0.00000000000E+00 0. -1.
         -2    1    3    3    0  502  0.27893213151E+03  0.33364398513E+03 -0.29149255442E+03  0.52353543537E+03  0.00000000000E+00 0.  1.
         11    1    5    5    0    0  0.16029128139E+03 -0.86934955744E+02 -0.31342550692E+03  0.36261071386E+03  0.00000000000E+00 0.  1.
        -11    1    5    5    0    0  0.58772357534E+02 -0.83879336457E+02 -0.10586341911E+03  0.14729900407E+03  0.00000000000E+00 0. -1.
          3    1    6    6  503    0 -0.59027068918E+02 -0.31805792954E+02 -0.54830225602E+03  0.55238679138E+03  0.00000000000E+00 0. -1.
         -3    1    6    6    0  503 -0.45886072580E+03 -0.17360523399E+03 -0.24673282158E+04  0.25156312264E+04  0.00000000000E+00 0.  1.
<mgrwt>
<rscale>  0 0.17641944E+04</rscale>
<asrwt>0</asrwt>
<pdfrwt beam="1">  1        1 0.61318166E+00 0.17641944E+04</pdfrwt>
<pdfrwt beam="2">  1       -2 0.30034267E-01 0.17641944E+04</pdfrwt>
<totfact> 0.85060598E-01</totfact>
</mgrwt>
</event>
<event>
12    4  0.4320235E-008  0.1189580E+04  0.7818608E-02  0.9122026E-01
          1   -1    0    0  501    0  0.00000000000E+00  0.00000000000E+00  0.15949040237E+04  0.15949040237E+04  0.00000000000E+00 0. -1.
         -2   -1    0    0    0  501 -0.00000000000E+00 -0.00000000000E+00 -0.22181608575E+03  0.22181608575E+03  0.00000000000E+00 0.  1.
        -24    2    1    2    0    0  0.11188575895E+03 -0.92630219360E+01 -0.36327954053E+02  0.14243782690E+03  0.79778365833E+02 0.  0.
        254    2    1    2    0    0 -0.11188575895E+03  0.92630219360E+01  0.14094158920E+04  0.16742822825E+04  0.89675179309E+03 0.  0.
         23    2    4    4    0    0  0.20783784932E+03  0.35388142625E+03  0.57804796220E+03  0.71479376361E+03  0.91444203939E+02 0.  0.
         23    2    4    4    0    0 -0.31972360828E+03 -0.34461840432E+03  0.83136792979E+03  0.95948851893E+03  0.91981264384E+02 0.  0.
          1    1    3    3  502    0  0.13981650555E+02  0.12106088006E+02  0.20197446685E+02  0.27385776813E+02  0.00000000000E+00 0. -1.
         -2    1    3    3    0  502  0.97904108398E+02 -0.21369109942E+02 -0.56525400739E+02  0.11505205009E+03  0.00000000000E+00 0.  1.
         11    1    5    5    0    0  0.40352380912E+02  0.13637666109E+03  0.15382611056E+03  0.20949792511E+03  0.00000000000E+00 0. -1.
        -11    1    5    5    0    0  0.16748546841E+03  0.21750476517E+03  0.42422185164E+03  0.50529583850E+03  0.00000000000E+00 0.  1.
          3    1    6    6  503    0 -0.56029763426E+02 -0.57466155294E+02  0.22217247730E+03  0.23622511099E+03  0.00000000000E+00 0. -1.
         -3    1    6    6    0  503 -0.26369384485E+03 -0.28715224902E+03  0.60919545249E+03  0.72326340794E+03  0.00000000000E+00 0.  1.
<mgrwt>
<rscale>  0 0.11895804E+04</rscale>
<asrwt>0</asrwt>
<pdfrwt beam="1">  1        1 0.24536984E+00 0.11895804E+04</pdfrwt>
<pdfrwt beam="2">  1       -2 0.34125553E-01 0.11895804E+04</pdfrwt>
<totfact> 0.39317184E+01</totfact>
</mgrwt>
</event>
<event>
12    4  0.4320235E-008  0.1712445E+04  0.7818608E-02  0.8754298E-01
         -2   -1    0    0    0  501 -0.00000000000E+00  0.00000000000E+00  0.39500297558E+03  0.39500297558E+03  0.00000000000E+00 0.  1.
          1   -1    0    0  501    0  0.00000000000E+00 -0.00000000000E+00 -0.18559793134E+04  0.18559793134E+04  0.00000000000E+00 0. -1.
        -24    2    1    2    0    0  0.25731135440E+03 -0.55931391085E+03 -0.53792311427E+03  0.82142934805E+03  0.79647429414E+02 0.  0.
        254    2    1    2    0    0 -0.25731135440E+03  0.55931391085E+03 -0.92305322357E+03  0.14295529409E+04  0.90141731370E+03 0.  0.
         23    2    4    4    0    0 -0.13402546882E+03  0.79373987801E+03 -0.68206975318E+03  0.10590416344E+04  0.91456082168E+02 0.  0.
         23    2    4    4    0    0 -0.12328588558E+03 -0.23442596717E+03 -0.24098347039E+03  0.37051130653E+03  0.95134912612E+02 0.  0.
          3    1    3    3  502    0  0.23829080404E+03 -0.54747220767E+03 -0.52748709980E+03  0.79671259932E+03  0.00000000000E+00 0. -1.
         -4    1    3    3    0  502  0.19020550354E+02 -0.11841703175E+02 -0.10436014468E+02  0.24716748732E+02  0.00000000000E+00 0.  1.
         11    1    5    5    0    0 -0.14416413833E+02  0.20250703418E+02 -0.38084679500E+02  0.45479300669E+02  0.00000000000E+00 0. -1.
        -11    1    5    5    0    0 -0.11960905498E+03  0.77348917460E+03 -0.64398507368E+03  0.10135623337E+04  0.00000000000E+00 0.  1.
          3    1    6    6  503    0 -0.76052065052E+02 -0.20852383635E+03 -0.16151616444E+03  0.27450606241E+03  0.00000000000E+00 0. -1.
         -3    1    6    6    0  503 -0.47233820530E+02 -0.25902130815E+02 -0.79467305950E+02  0.96005244115E+02  0.00000000000E+00 0.  1.
<mgrwt>
<rscale>  0 0.17124454E+04</rscale>
<asrwt>0</asrwt>
<pdfrwt beam="1">  1        1 0.28553528E+00 0.17124454E+04</pdfrwt>
<pdfrwt beam="2">  1       -2 0.60769689E-01 0.17124454E+04</pdfrwt>
<totfact> 0.78527878E+00</totfact>
</mgrwt>
</event>
<event>
12    4  0.4320235E-008  0.1537825E+04  0.7818608E-02  0.8859682E-01
          1   -1    0    0  501    0  0.00000000000E+00  0.00000000000E+00  0.30117075707E+04  0.30117075707E+04  0.00000000000E+00 0. -1.
         -2   -1    0    0    0  501 -0.00000000000E+00 -0.00000000000E+00 -0.19630938393E+03  0.19630938393E+03  0.00000000000E+00 0.  1.
        -24    2    1    2    0    0 -0.29049178340E+03 -0.16228910309E+03  0.17191282363E+04  0.17528306713E+04  0.79311035246E+02 0.  0.
        254    2    1    2    0    0  0.29049178340E+03  0.16228910309E+03  0.10962699505E+04  0.14551862833E+04  0.89723803176E+03 0.  0.
         23    2    4    4    0    0  0.26470969286E+03  0.40042006055E+03  0.10956901291E+04  0.11996089765E+04  0.90096564563E+02 0.  0.
         23    2    4    4    0    0  0.25782090543E+02 -0.23813095747E+03  0.57982133997E+00  0.25557730685E+03  0.89153544437E+02 0.  0.
          1    1    3    3  502    0 -0.18601379738E+03 -0.79923986458E+02  0.11980927462E+04  0.12150782711E+04  0.00000000000E+00 0. -1.
         -2    1    3    3    0  502 -0.10447798603E+03 -0.82365116627E+02  0.52103549012E+03  0.53775240025E+03  0.00000000000E+00 0.  1.
         11    1    5    5    0    0  0.24633863788E+03  0.31729618717E+03  0.93833968580E+03  0.10207061090E+04  0.00000000000E+00 0. -1.
        -11    1    5    5    0    0  0.18371054986E+02  0.83123873382E+02  0.15735044334E+03  0.17890286752E+03  0.00000000000E+00 0.  1.
          3    1    6    6  503    0 -0.83464497717E+01 -0.21280164003E+03  0.32818260643E+01  0.21299054347E+03  0.00000000000E+00 0. -1.
         -3    1    6    6    0  503  0.34128540315E+02 -0.25329317437E+02 -0.27020047244E+01  0.42586763382E+02  0.00000000000E+00 0.  1.
<mgrwt>
<rscale>  0 0.15378250E+04</rscale>
<asrwt>0</asrwt>
<pdfrwt beam="1">  1        1 0.46333959E+00 0.15378250E+04</pdfrwt>
<pdfrwt beam="2">  1       -2 0.30201446E-01 0.15378250E+04</pdfrwt>
<totfact> 0.50558631E+00</totfact>
</mgrwt>
</event>
<event>
12    4  0.4320235E-008  0.1474917E+04  0.7818608E-02  0.8901307E-01
          1   -1    0    0  501    0  0.00000000000E+00  0.00000000000E+00  0.18130501407E+04  0.18130501407E+04  0.00000000000E+00 0. -1.
         -2   -1    0    0    0  501 -0.00000000000E+00 -0.00000000000E+00 -0.29996124644E+03  0.29996124644E+03  0.00000000000E+00 0.  1.
        -24    2    1    2    0    0 -0.30043410341E+03  0.17596728000E+03  0.88829059023E+03  0.95740429885E+03  0.79609576346E+02 0.  0.
        254    2    1    2    0    0  0.30043410341E+03 -0.17596728000E+03  0.62479830400E+03  0.11556070883E+04  0.90765064184E+03 0.  0.
         23    2    4    4    0    0  0.27604602086E+03  0.33975926235E+03  0.31474521709E+03  0.54666639332E+03  0.90232100294E+02 0.  0.
         23    2    4    4    0    0  0.24388082548E+02 -0.51572654235E+03  0.31005308692E+03  0.60894069494E+03  0.90040036660E+02 0.  0.
          1    1    3    3  502    0 -0.17772154494E+03  0.14770291142E+03  0.56173866899E+03  0.60741372212E+03  0.00000000000E+00 0. -1.
         -2    1    3    3    0  502 -0.12271255847E+03  0.28264368581E+02  0.32655192123E+03  0.34999057673E+03  0.00000000000E+00 0.  1.
         11    1    5    5    0    0 -0.28861839181E+01  0.26576881009E+02  0.27414658758E+02  0.38291306802E+02  0.00000000000E+00 0.  1.
        -11    1    5    5    0    0  0.27893220478E+03  0.31318238134E+03  0.28733055833E+03  0.50837508652E+03  0.00000000000E+00 0. -1.
          1    1    6    6  503    0  0.24948426272E+02 -0.51343471118E+03  0.29291122608E+03  0.59163723090E+03  0.00000000000E+00 0. -1.
         -1    1    6    6    0  503 -0.56034372384E+00 -0.22918311656E+01  0.17141860833E+02  0.17303464047E+02  0.00000000000E+00 0.  1.
<mgrwt>
<rscale>  0 0.14749166E+04</rscale>
<asrwt>0</asrwt>
<pdfrwt beam="1">  1        1 0.27893079E+00 0.14749166E+04</pdfrwt>
<pdfrwt beam="2">  1       -2 0.46147885E-01 0.14749166E+04</pdfrwt>
<totfact> 0.15124718E+01</totfact>
</mgrwt>
</event>
<event>
12    4  0.4320235E-008  0.1889422E+04  0.7818608E-02  0.8660140E-01
         -2   -1    0    0    0  501 -0.00000000000E+00  0.00000000000E+00  0.52772444712E+03  0.52772444712E+03  0.00000000000E+00 0.  1.
          1   -1    0    0  501    0  0.00000000000E+00 -0.00000000000E+00 -0.16911831853E+04  0.16911831853E+04  0.00000000000E+00 0. -1.
        -24    2    1    2    0    0 -0.10695389728E+03  0.70207696975E+03 -0.61384684225E+03  0.94215148660E+03  0.80562214301E+02 0.  0.
        254    2    1    2    0    0  0.10695389728E+03 -0.70207696975E+03 -0.54961189589E+03  0.12767561458E+04  0.90756917756E+03 0.  0.
         23    2    4    4    0    0  0.29407300775E+03 -0.83063422072E+03 -0.52763622511E+03  0.10310940956E+04  0.91229958733E+02 0.  0.
         23    2    4    4    0    0 -0.18711911046E+03  0.12855725096E+03 -0.21975670783E+02  0.24566205019E+03  0.91249024777E+02 0.  0.
          1    1    3    3  502    0 -0.11370399470E+03  0.68899545133E+03 -0.60924952135E+03  0.92672990112E+03  0.00000000000E+00 0. -1.
         -2    1    3    3    0  502  0.67500974189E+01  0.13081518421E+02 -0.45973208950E+01  0.15421585482E+02  0.00000000000E+00 0.  1.
         11    1    5    5    0    0  0.32546284337E+01 -0.71892659126E+02 -0.59095466951E+02  0.93120466367E+02  0.00000000000E+00 0.  1.
        -11    1    5    5    0    0  0.29081837931E+03 -0.75874156159E+03 -0.46854075816E+03  0.93797362921E+03  0.00000000000E+00 0. -1.
          4    1    6    6  503    0 -0.19139935965E+03  0.11795683866E+03 -0.35867849797E+02  0.22767088815E+03  0.00000000000E+00 0. -1.
         -4    1    6    6    0  503  0.42802491831E+01  0.10600412302E+02  0.13892179014E+02  0.17991162047E+02  0.00000000000E+00 0.  1.
<mgrwt>
<rscale>  0 0.18894218E+04</rscale>
<asrwt>0</asrwt>
<pdfrwt beam="1">  1        1 0.26018203E+00 0.18894218E+04</pdfrwt>
<pdfrwt beam="2">  1       -2 0.81188377E-01 0.18894218E+04</pdfrwt>
<totfact> 0.53117377E+00</totfact>
</mgrwt>
</event>
<event>
12    4  0.4320235E-008  0.2752936E+04  0.7818608E-02  0.8318031E-01
          1   -1    0    0  501    0  0.00000000000E+00  0.00000000000E+00  0.13229272828E+04  0.13229272828E+04  0.00000000000E+00 0. -1.
         -2   -1    0    0    0  501 -0.00000000000E+00 -0.00000000000E+00 -0.14321753730E+04  0.14321753730E+04  0.00000000000E+00 0.  1.
        -24    2    1    2    0    0 -0.70562179363E+03 -0.88210627221E+03  0.43053473653E+03  0.12115793689E+04  0.80937114946E+02 0.  0.
        254    2    1    2    0    0  0.70562179363E+03  0.88210627221E+03 -0.53978282665E+03  0.15435232869E+04  0.90282060580E+03 0.  0.
         23    2    4    4    0    0  0.12403813212E+03  0.29059553692E+02  0.21056692831E+03  0.26383393629E+03  0.95078908070E+02 0.  0.
         23    2    4    4    0    0  0.58158366151E+03  0.85304671852E+03 -0.75034975496E+03  0.12796893507E+04  0.93015160604E+02 0.  0.
          3    1    3    3  502    0 -0.32447615999E+03 -0.47010273708E+03  0.21291976929E+03  0.60960330540E+03  0.00000000000E+00 0. -1.
         -4    1    3    3    0  502 -0.38114563365E+03 -0.41200353513E+03  0.21761496724E+03  0.60197606346E+03  0.00000000000E+00 0.  1.
         11    1    5    5    0    0  0.43199542445E+02  0.15564842093E+02  0.97570632987E+01  0.46943211022E+02  0.00000000000E+00 0. -1.
        -11    1    5    5    0    0  0.80838589678E+02  0.13494711599E+02  0.20080986501E+03  0.21689072527E+03  0.00000000000E+00 0.  1.
          4    1    6    6  503    0  0.94678114701E+02  0.17193556190E+03 -0.18267424561E+03  0.26813366603E+03  0.00000000000E+00 0. -1.
         -4    1    6    6    0  503  0.48690554681E+03  0.68111115661E+03 -0.56767550935E+03  0.10115556846E+04  0.00000000000E+00 0.  1.
<mgrwt>
<rscale>  0 0.27529358E+04</rscale>
<asrwt>0</asrwt>
<pdfrwt beam="1">  1        1 0.20352728E+00 0.27529358E+04</pdfrwt>
<pdfrwt beam="2">  1       -2 0.22033467E+00 0.27529358E+04</pdfrwt>
<totfact> 0.65373955E-01</totfact>
</mgrwt>
</event>
<event>
12    4  0.4320235E-008  0.1058165E+04  0.7818608E-02  0.9246954E-01
         -2   -1    0    0    0  501 -0.00000000000E+00  0.00000000000E+00  0.37279823845E+03  0.37279823845E+03  0.00000000000E+00 0.  1.
          1   -1    0    0  501    0  0.00000000000E+00 -0.00000000000E+00 -0.75088433366E+03  0.75088433366E+03  0.00000000000E+00 0. -1.
        -24    2    1    2    0    0  0.10781570790E+03  0.64132087008E+01 -0.11757594737E+03  0.18102514641E+03  0.85326690532E+02 0.  0.
        254    2    1    2    0    0 -0.10781570790E+03 -0.64132087008E+01 -0.26051014784E+03  0.94265742569E+03  0.89948436839E+03 0.  0.
         23    2    4    4    0    0 -0.29364556724E+03 -0.11986113150E+03 -0.50516974227E+03  0.60328096259E+03  0.90316340187E+02 0.  0.
         23    2    4    4    0    0  0.18582985934E+03  0.11344792280E+03  0.24465959443E+03  0.33937646311E+03  0.88965716726E+02 0.  0.
          3    1    3    3  502    0  0.10053169470E+03  0.30769520062E+02 -0.11445288173E+03  0.15541186294E+03  0.00000000000E+00 0. -1.
         -4    1    3    3    0  502  0.72840132002E+01 -0.24356311362E+02 -0.31230656385E+01  0.25613283476E+02  0.00000000000E+00 0.  1.
         11    1    5    5    0    0 -0.20762552966E+03 -0.72027948680E+02 -0.26856597019E+03  0.34702170868E+03  0.00000000000E+00 0.  1.
        -11    1    5    5    0    0 -0.86020037590E+02 -0.47833182818E+02 -0.23660377208E+03  0.25625925390E+03  0.00000000000E+00 0. -1.
          1    1    6    6  503    0  0.34208405569E+02  0.65803935714E+02  0.99753142526E+02  0.12430230252E+03  0.00000000000E+00 0. -1.
         -1    1    6    6    0  503  0.15162145377E+03  0.47643987083E+02  0.14490645191E+03  0.21507416059E+03  0.00000000000E+00 0.  1.
<mgrwt>
<rscale>  0 0.10581651E+04</rscale>
<asrwt>0</asrwt>
<pdfrwt beam="1">  1        1 0.11552067E+00 0.10581651E+04</pdfrwt>
<pdfrwt beam="2">  1       -2 0.57353575E-01 0.10581651E+04</pdfrwt>
<totfact> 0.60958792E+01</totfact>
</mgrwt>
</event>
<event>
12    4  0.4320235E-008  0.2980016E+04  0.7818608E-02  0.8249461E-01
         -2   -1    0    0    0  501 -0.00000000000E+00  0.00000000000E+00  0.12165261979E+04  0.12165261979E+04  0.00000000000E+00 0.  1.
          1   -1    0    0  501    0  0.00000000000E+00 -0.00000000000E+00 -0.18249697837E+04  0.18249697837E+04  0.00000000000E+00 0. -1.
        -24    2    1    2    0    0 -0.41289391445E+03 -0.39408058608E+03 -0.15304591485E+04  0.16352463413E+04  0.77100575728E+02 0.  0.
        254    2    1    2    0    0  0.41289391445E+03  0.39408058608E+03  0.92201556265E+03  0.14062496402E+04  0.89534600011E+03 0.  0.
         23    2    4    4    0    0 -0.31580987963E+02 -0.25196376897E+03  0.19295151934E+03  0.33179150628E+03  0.91499809573E+02 0.  0.
         23    2    4    4    0    0  0.44447490241E+03  0.64604435505E+03  0.72906404331E+03  0.10744581339E+04  0.89412833306E+02 0.  0.
          1    1    3    3  502    0 -0.33340366309E+03 -0.27362103824E+03 -0.11701185648E+04  0.12470781574E+04  0.00000000000E+00 0. -1.
         -2    1    3    3    0  502 -0.79490251359E+02 -0.12045954784E+03 -0.36034058372E+03  0.38816818391E+03  0.00000000000E+00 0.  1.
         11    1    5    5    0    0  0.15130590240E+02 -0.19196529594E+03  0.15269334704E+03  0.24575367308E+03  0.00000000000E+00 0. -1.
        -11    1    5    5    0    0 -0.46711578202E+02 -0.59998473034E+02  0.40258172305E+02  0.86037833201E+02  0.00000000000E+00 0.  1.
          3    1    6    6  503    0  0.23175561891E+02  0.82097482676E+02  0.80669287197E+02  0.11740799473E+03  0.00000000000E+00 0. -1.
         -3    1    6    6    0  503  0.42129934052E+03  0.56394687237E+03  0.64839475611E+03  0.95705013920E+03  0.00000000000E+00 0.  1.
<mgrwt>
<rscale>  0 0.29800158E+04</rscale>
<asrwt>0</asrwt>
<pdfrwt beam="1">  1        1 0.28076458E+00 0.29800158E+04</pdfrwt>
<pdfrwt beam="2">  1       -2 0.18715788E+00 0.29800158E+04</pdfrwt>
<totfact> 0.47553788E-01</totfact>
</mgrwt>
</event>
<event>
12    4  0.4320235E-008  0.1457125E+04  0.7818608E-02  0.8913476E-01
          1   -1    0    0  501    0  0.00000000000E+00  0.00000000000E+00  0.11926705059E+04  0.11926705059E+04  0.00000000000E+00 0. -1.
         -2   -1    0    0    0  501 -0.00000000000E+00 -0.00000000000E+00 -0.44505452037E+03  0.44505452037E+03  0.00000000000E+00 0.  1.
        -24    2    1    2    0    0  0.37178962142E+03 -0.85495146099E+02 -0.31031658960E+02  0.39094315628E+03  0.79603046297E+02 0.  0.
        254    2    1    2    0    0 -0.37178962142E+03  0.85495146099E+02  0.77864764449E+03  0.12467818700E+04  0.89589951137E+03 0.  0.
         23    2    4    4    0    0  0.26670022072E+03 -0.31038714052E+02  0.39781922673E+03  0.48892330895E+03  0.93238701053E+02 0.  0.
         23    2    4    4    0    0 -0.63848984214E+03  0.11653386015E+03  0.38082841776E+03  0.75785856104E+03  0.89832598136E+02 0.  0.
          1    1    3    3  502    0  0.13252417700E+02  0.11066517720E+02  0.47598036843E+01  0.17909498051E+02  0.00000000000E+00 0. -1.
         -2    1    3    3    0  502  0.35853720372E+03 -0.96561663819E+02 -0.35791462644E+02  0.37303365822E+03  0.00000000000E+00 0.  1.
         11    1    5    5    0    0  0.89101427900E+02 -0.24571435803E+02  0.69681852008E+02  0.11575137325E+03  0.00000000000E+00 0. -1.
        -11    1    5    5    0    0  0.17759879282E+03 -0.64672782488E+01  0.32813737472E+03  0.37317193569E+03  0.00000000000E+00 0.  1.
          3    1    6    6  503    0 -0.27693392043E+03  0.65773476156E+02  0.11866761161E+03  0.30838376821E+03  0.00000000000E+00 0. -1.
         -3    1    6    6    0  503 -0.36155592171E+03  0.50760383995E+02  0.26216080615E+03  0.44947479283E+03  0.00000000000E+00 0.  1.
<mgrwt>
<rscale>  0 0.14571251E+04</rscale>
<asrwt>0</asrwt>
<pdfrwt beam="1">  1        1 0.18348777E+00 0.14571251E+04</pdfrwt>
<pdfrwt beam="2">  1       -2 0.68469927E-01 0.14571251E+04</pdfrwt>
<totfact> 0.17966879E+01</totfact>
</mgrwt>
</event>
<event>
12    4  0.4320235E-008  0.1082053E+04  0.7818608E-02  0.9222863E-01
         -2   -1    0    0    0  501 -0.00000000000E+00  0.00000000000E+00  0.32134163246E+03  0.32134163246E+03  0.00000000000E+00 0.  1.
          1   -1    0    0  501    0  0.00000000000E+00 -0.00000000000E+00 -0.91089860426E+03  0.91089860426E+03  0.00000000000E+00 0. -1.
        -24    2    1    2    0    0 -0.42206486226E+02 -0.75050033326E+02  0.57152110752E+02  0.13101237520E+03  0.80523187413E+02 0.  0.
        254    2    1    2    0    0  0.42206486226E+02  0.75050033326E+02 -0.64670908255E+03  0.11012278615E+04  0.88716191902E+03 0.  0.
         23    2    4    4    0    0  0.19498341372E+03 -0.36071456441E+03 -0.30122344150E+03  0.51683084916E+03  0.90802182395E+02 0.  0.
         23    2    4    4    0    0 -0.15277692749E+03  0.43576459774E+03 -0.34548564105E+03  0.58439701236E+03  0.94487912866E+02 0.  0.
          3    1    3    3  502    0 -0.52054195794E+02 -0.39756188501E+02  0.29233798660E+01  0.65564776929E+02  0.00000000000E+00 0. -1.
         -4    1    3    3    0  502  0.98477095687E+01 -0.35293844825E+02  0.54228730886E+02  0.65447598274E+02  0.00000000000E+00 0.  1.
         11    1    5    5    0    0  0.17805953748E+03 -0.24833676365E+03 -0.23308584889E+03  0.38432455037E+03  0.00000000000E+00 0. -1.
        -11    1    5    5    0    0  0.16923876239E+02 -0.11237780076E+03 -0.68137592617E+02  0.13250629878E+03  0.00000000000E+00 0.  1.
          1    1    6    6  503    0 -0.15946848302E+03  0.34253762416E+03 -0.27968593616E+03  0.47009195263E+03  0.00000000000E+00 0. -1.
         -1    1    6    6    0  503  0.66915555309E+01  0.93226973577E+02 -0.65799704883E+02  0.11430505973E+03  0.00000000000E+00 0.  1.
<mgrwt>
<rscale>  0 0.10820529E+04</rscale>
<asrwt>0</asrwt>
<pdfrwt beam="1">  1        1 0.14013825E+00 0.10820529E+04</pdfrwt>
<pdfrwt beam="2">  1       -2 0.49437175E-01 0.10820529E+04</pdfrwt>
<totfact> 0.60359823E+01</totfact>
</mgrwt>
</event>
<event>
12    4  0.4320235E-008  0.1817105E+04  0.7818608E-02  0.8697256E-01
         -2   -1    0    0    0  501 -0.00000000000E+00  0.00000000000E+00  0.51310405913E+03  0.51310405913E+03  0.00000000000E+00 0.  1.
          1   -1    0    0  501    0  0.00000000000E+00 -0.00000000000E+00 -0.16087720936E+04  0.16087720936E+04  0.00000000000E+00 0. -1.
        -24    2    1    2    0    0  0.35210752556E+03  0.45064388290E+03  0.21097684953E+02  0.57800365947E+03  0.81138765644E+02 0.  0.
        254    2    1    2    0    0 -0.35210752556E+03 -0.45064388290E+03 -0.11167657195E+04  0.15438724933E+04  0.89962046700E+03 0.  0.
         23    2    4    4    0    0 -0.41902910235E+03 -0.64959292829E+03 -0.10455798536E+04  0.13042403494E+04  0.10123881512E+03 0.  0.
         23    2    4    4    0    0  0.66921576792E+02  0.19894904539E+03 -0.71185865824E+02  0.23963214385E+03  0.91087412808E+02 0.  0.
          3    1    3    3  502    0  0.48087236951E+02  0.35191916903E+02  0.21039637287E+02  0.63194301247E+02  0.00000000000E+00 0. -1.
         -4    1    3    3    0  502  0.30402028861E+03  0.41545196600E+03  0.58047666035E-01  0.51480935822E+03  0.00000000000E+00 0.  1.
         11    1    5    5    0    0 -0.10893798290E+03 -0.20151999915E+03 -0.24101357467E+03  0.33251366491E+03  0.00000000000E+00 0.  1.
        -11    1    5    5    0    0 -0.31009111945E+03 -0.44807292914E+03 -0.80456627896E+03  0.97172668453E+03  0.00000000000E+00 0. -1.
          2    1    6    6  503    0  0.70807302665E+02  0.93377750340E+02 -0.10155032902E+02  0.11762739078E+03  0.00000000000E+00 0. -1.
         -2    1    6    6    0  503 -0.38857258734E+01  0.10557129505E+03 -0.61030832922E+02  0.12200475307E+03  0.00000000000E+00 0.  1.
<mgrwt>
<rscale>  0 0.18171048E+04</rscale>
<asrwt>0</asrwt>
<pdfrwt beam="1">  1        1 0.24750339E+00 0.18171048E+04</pdfrwt>
<pdfrwt beam="2">  1       -2 0.78939087E-01 0.18171048E+04</pdfrwt>
<totfact> 0.64826605E+00</totfact>
</mgrwt>
</event>
<event>
12    4  0.4320235E-008  0.2183629E+04  0.7818608E-02  0.8525273E-01
         -2   -1    0    0    0  501 -0.00000000000E+00  0.00000000000E+00  0.16079002843E+04  0.16079002843E+04  0.00000000000E+00 0.  1.
          1   -1    0    0  501    0  0.00000000000E+00 -0.00000000000E+00 -0.74137619057E+03  0.74137619057E+03  0.00000000000E+00 0. -1.
        -24    2    1    2    0    0 -0.79162162312E+03 -0.22452337364E+03 -0.59532782233E+02  0.82869524671E+03  0.78205628072E+02 0.  0.
        254    2    1    2    0    0  0.79162162312E+03  0.22452337364E+03  0.92605687598E+03  0.15205812282E+04  0.88176549855E+03 0.  0.
         23    2    4    4    0    0 -0.13563135764E+03  0.22087336385E+03  0.20123431799E+03  0.34016941665E+03  0.89660879163E+02 0.  0.
         23    2    4    4    0    0  0.92725298076E+03  0.36500097863E+01  0.72482255799E+03  0.11804118115E+04  0.90514591673E+02 0.  0.
          1    1    3    3  502    0 -0.62438746393E+03 -0.20820996474E+03 -0.37865215498E+02  0.65927601889E+03  0.00000000000E+00 0. -1.
         -2    1    3    3    0  502 -0.16723415919E+03 -0.16313408897E+02 -0.21667566735E+02  0.16941922782E+03  0.00000000000E+00 0.  1.
         11    1    5    5    0    0 -0.13875599255E+03  0.16311368767E+03  0.17543153788E+03  0.27683122124E+03  0.00000000000E+00 0. -1.
        -11    1    5    5    0    0  0.31246349037E+01  0.57759676182E+02  0.25802780112E+02  0.63338195408E+02  0.00000000000E+00 0.  1.
          1    1    6    6  503    0  0.75494744491E+03 -0.20646220678E+02  0.62118998351E+03  0.97787980172E+03  0.00000000000E+00 0. -1.
         -1    1    6    6    0  503  0.17230553585E+03  0.24296230464E+02  0.10363257448E+03  0.20253200980E+03  0.00000000000E+00 0.  1.
<mgrwt>
<rscale>  0 0.21836291E+04</rscale>
<asrwt>0</asrwt>
<pdfrwt beam="1">  1        1 0.11405788E+00 0.21836291E+04</pdfrwt>
<pdfrwt beam="2">  1       -2 0.24736927E+00 0.21836291E+04</pdfrwt>
<totfact> 0.13306564E+00</totfact>
</mgrwt>
</event>
<event>
12    4  0.4320235E-008  0.2429740E+04  0.7818608E-02  0.8428452E-01
          1   -1    0    0  501    0  0.00000000000E+00  0.00000000000E+00  0.14265944575E+04  0.14265944575E+04  0.00000000000E+00 0. -1.
         -2   -1    0    0    0  501 -0.00000000000E+00 -0.00000000000E+00 -0.10345683394E+04  0.10345683394E+04  0.00000000000E+00 0.  1.
        -24    2    1    2    0    0 -0.44312929176E+03 -0.51364276577E+03 -0.63834499312E+03  0.93517655524E+03  0.82936115095E+02 0.  0.
        254    2    1    2    0    0  0.44312929176E+03  0.51364276577E+03  0.10303711112E+04  0.15259862416E+04  0.89820761682E+03 0.  0.
         23    2    4    4    0    0  0.28839323776E+03  0.74688606692E+03  0.89152539067E+03  0.12018447309E+04  0.92756554967E+02 0.  0.
         23    2    4    4    0    0  0.15473605400E+03 -0.23324330115E+03  0.13884572048E+03  0.32414151071E+03  0.86278044324E+02 0.  0.
          3    1    3    3  502    0 -0.78375513918E+01 -0.34079751553E+02 -0.43388326870E+02  0.55726148138E+02  0.00000000000E+00 0. -1.
         -4    1    3    3    0  502 -0.43529174037E+03 -0.47956301421E+03 -0.59495666625E+03  0.87945040711E+03  0.00000000000E+00 0.  1.
         11    1    5    5    0    0  0.15478391404E+03  0.45230748814E+03  0.59278094689E+03  0.76153094151E+03  0.00000000000E+00 0. -1.
        -11    1    5    5    0    0  0.13360932372E+03  0.29457857878E+03  0.29874444378E+03  0.44031378942E+03  0.00000000000E+00 0.  1.
          3    1    6    6  503    0  0.52615201412E+02 -0.14842161343E+03  0.96999219016E+02  0.18494913691E+03  0.00000000000E+00 0. -1.
         -3    1    6    6    0  503  0.10212085259E+03 -0.84821687720E+02  0.41846501468E+02  0.13919237381E+03  0.00000000000E+00 0.  1.
<mgrwt>
<rscale>  0 0.24297403E+04</rscale>
<asrwt>0</asrwt>
<pdfrwt beam="1">  1        1 0.21947607E+00 0.24297403E+04</pdfrwt>
<pdfrwt beam="2">  1       -2 0.15916436E+00 0.24297403E+04</pdfrwt>
<totfact> 0.14756200E+00</totfact>
</mgrwt>
</event>
<event>
12    4  0.4320235E-008  0.1745524E+04  0.7818608E-02  0.8735818E-01
         -2   -1    0    0    0  501 -0.00000000000E+00  0.00000000000E+00  0.47128704966E+03  0.47128704966E+03  0.00000000000E+00 0.  1.
          1   -1    0    0  501    0  0.00000000000E+00 -0.00000000000E+00 -0.16162414217E+04  0.16162414217E+04  0.00000000000E+00 0. -1.
        -24    2    1    2    0    0 -0.11361841979E+03 -0.20144606681E+03 -0.11298401824E+04  0.11561611640E+04  0.81732100933E+02 0.  0.
        254    2    1    2    0    0  0.11361841979E+03  0.20144606681E+03 -0.15114189714E+02  0.93136730738E+03  0.90206815673E+03 0.  0.
         23    2    4    4    0    0  0.22816858718E+03 -0.28597400140E+03 -0.14824625588E+03  0.40524392351E+03  0.91671432334E+02 0.  0.
         23    2    4    4    0    0 -0.11455016739E+03  0.48742006821E+03  0.13313206617E+03  0.52612338387E+03  0.91551101962E+02 0.  0.
          1    1    3    3  502    0 -0.11334124317E+03 -0.12456223840E+03 -0.77709488661E+03  0.79513423485E+03  0.00000000000E+00 0. -1.
         -2    1    3    3    0  502 -0.27717661879E+00 -0.76883828409E+02 -0.35274529576E+03  0.36102692916E+03  0.00000000000E+00 0.  1.
         11    1    5    5    0    0  0.18519651883E+03 -0.20404059301E+03 -0.14787282980E+03  0.31272462004E+03  0.00000000000E+00 0. -1.
        -11    1    5    5    0    0  0.42972068347E+02 -0.81933408391E+02 -0.37342608424E+00  0.92519303475E+02  0.00000000000E+00 0.  1.
          3    1    6    6  503    0 -0.75424384227E+02  0.33362066430E+03  0.13419078439E+03  0.36742176310E+03  0.00000000000E+00 0. -1.
         -3    1    6    6    0  503 -0.39125783168E+02  0.15379940391E+03 -0.10587182220E+01  0.15870162077E+03  0.00000000000E+00 0.  1.
<mgrwt>
<rscale>  0 0.17455242E+04</rscale>
<asrwt>0</asrwt>
<pdfrwt beam="1">  1        1 0.24865253E+00 0.17455242E+04</pdfrwt>
<pdfrwt beam="2">  1       -2 0.72505699E-01 0.17455242E+04</pdfrwt>
<totfact> 0.77866301E+00</totfact>
</mgrwt>
</event>
<event>
12    4  0.4320235E-008  0.3264462E+04  0.7818608E-02  0.8171997E-01
         -2   -1    0    0    0  501 -0.00000000000E+00  0.00000000000E+00  0.79465758793E+03  0.79465758793E+03  0.00000000000E+00 0.  1.
          1   -1    0    0  501    0  0.00000000000E+00 -0.00000000000E+00 -0.33526107850E+04  0.33526107850E+04  0.00000000000E+00 0. -1.
        -24    2    1    2    0    0 -0.14595344020E+04 -0.28899499564E+03 -0.88373079505E+03  0.17323227554E+04  0.78760603548E+02 0.  0.
        254    2    1    2    0    0  0.14595344020E+04  0.28899499564E+03 -0.16742224020E+04  0.24149456175E+04  0.90287480090E+03 0.  0.
         23    2    4    4    0    0  0.11441774609E+04  0.20455290682E+03 -0.64559636180E+03  0.13327411087E+04  0.91761903000E+02 0.  0.
         23    2    4    4    0    0  0.31535694112E+03  0.84442088823E+02 -0.10286260402E+04  0.10822045088E+04  0.80713082166E+02 0.  0.
          3    1    3    3  502    0 -0.13937648252E+04 -0.29226865221E+03 -0.84265657632E+03  0.16547118960E+04  0.00000000000E+00 0. -1.
         -4    1    3    3    0  502 -0.65769576778E+02  0.32736565754E+01 -0.41074218726E+02  0.77610859426E+02  0.00000000000E+00 0.  1.
         11    1    5    5    0    0  0.11648900743E+03 -0.67226839817E+01 -0.60230222295E+02  0.13131094018E+03  0.00000000000E+00 0.  1.
        -11    1    5    5    0    0  0.10276884534E+04  0.21127559080E+03 -0.58536613950E+03  0.12014301685E+04  0.00000000000E+00 0. -1.
          2    1    6    6  503    0  0.11286158655E+03  0.29427116012E+02 -0.50069755384E+03  0.51410284312E+03  0.00000000000E+00 0. -1.
         -2    1    6    6    0  503  0.20249535457E+03  0.55014972810E+02 -0.52792848634E+03  0.56810166567E+03  0.00000000000E+00 0.  1.
<mgrwt>
<rscale>  0 0.32644617E+04</rscale>
<asrwt>0</asrwt>
<pdfrwt beam="1">  1        1 0.51578626E+00 0.32644617E+04</pdfrwt>
<pdfrwt beam="2">  1       -2 0.12225502E+00 0.32644617E+04</pdfrwt>
<totfact> 0.12075722E-01</totfact>
</mgrwt>
</event>
<event>
12    4  0.4320235E-008  0.1423393E+04  0.7818608E-02  0.8937058E-01
         -2   -1    0    0    0  501 -0.00000000000E+00  0.00000000000E+00  0.18257028322E+04  0.18257028322E+04  0.00000000000E+00 0.  1.
          1   -1    0    0  501    0  0.00000000000E+00 -0.00000000000E+00 -0.27743380699E+03  0.27743380699E+03  0.00000000000E+00 0. -1.
        -24    2    1    2    0    0  0.24639565574E+03 -0.23352248143E+03  0.97175031142E+02  0.36170064226E+03  0.78363253055E+02 0.  0.
        254    2    1    2    0    0 -0.24639565574E+03  0.23352248143E+03  0.14510939941E+04  0.17414359969E+04  0.90093395057E+03 0.  0.
         23    2    4    4    0    0 -0.38416155091E+02 -0.20635161525E+03  0.11262680216E+04  0.11492835934E+04  0.91193923244E+02 0.  0.
         23    2    4    4    0    0 -0.20797950065E+03  0.43987409668E+03  0.32482597251E+03  0.59215240351E+03  0.91585276886E+02 0.  0.
          3    1    3    3  502    0  0.15292541046E+03 -0.10674346203E+03  0.24036147291E+02  0.18803745432E+03  0.00000000000E+00 0. -1.
         -4    1    3    3    0  502  0.93470245284E+02 -0.12677901941E+03  0.73138883851E+02  0.17366318794E+03  0.00000000000E+00 0.  1.
         11    1    5    5    0    0 -0.56266243828E+02 -0.12889207985E+03  0.85930214881E+03  0.87073488583E+03  0.00000000000E+00 0.  1.
        -11    1    5    5    0    0  0.17850088736E+02 -0.77459535397E+02  0.26696587275E+03  0.27854870760E+03  0.00000000000E+00 0. -1.
          4    1    6    6  503    0 -0.38541691903E+01  0.70796655443E+02  0.68610174956E+02  0.98662947196E+02  0.00000000000E+00 0. -1.
         -4    1    6    6    0  503 -0.20412533146E+03  0.36907744124E+03  0.25621579755E+03  0.49348945631E+03  0.00000000000E+00 0.  1.
<mgrwt>
<rscale>  0 0.14233927E+04</rscale>
<asrwt>0</asrwt>
<pdfrwt beam="1">  1        1 0.42682125E-01 0.14233927E+04</pdfrwt>
<pdfrwt beam="2">  1       -2 0.28087735E+00 0.14233927E+04</pdfrwt>
<totfact> 0.34421018E+00</totfact>
</mgrwt>
</event>
<event>
12    4  0.4320235E-008  0.2321023E+04  0.7818608E-02  0.8469678E-01
          1   -1    0    0  501    0  0.00000000000E+00  0.00000000000E+00  0.15811070268E+04  0.15811070268E+04  0.00000000000E+00 0. -1.
         -2   -1    0    0    0  501 -0.00000000000E+00 -0.00000000000E+00 -0.85179964075E+03  0.85179964075E+03  0.00000000000E+00 0.  1.
        -24    2    1    2    0    0  0.46073444211E+03 -0.77998647958E+03  0.71811439681E+03  0.11587366908E+04  0.79544310073E+02 0.  0.
        254    2    1    2    0    0 -0.46073444211E+03  0.77998647958E+03  0.11192989247E+02  0.12741699767E+04  0.89595128894E+03 0.  0.
         23    2    4    4    0    0  0.14618505573E+03 -0.75469292483E+02 -0.10565326643E+03  0.21479235097E+03  0.88923881492E+02 0.  0.
         23    2    4    4    0    0 -0.60691949785E+03  0.85545577206E+03  0.11684625568E+03  0.10593776258E+04  0.92043748870E+02 0.  0.
          1    1    3    3  502    0  0.36801533501E+03 -0.67876587128E+03  0.60833660695E+03  0.98297091624E+03  0.00000000000E+00 0. -1.
         -2    1    3    3    0  502  0.92719107102E+02 -0.10122060830E+03  0.10977778986E+03  0.17576577458E+03  0.00000000000E+00 0.  1.
         11    1    5    5    0    0  0.50017279618E+02  0.14818505762E+02 -0.13510578912E+02  0.53887402201E+02  0.00000000000E+00 0.  1.
        -11    1    5    5    0    0  0.96167776116E+02 -0.90287798245E+02 -0.92142687519E+02  0.16090494877E+03  0.00000000000E+00 0. -1.
          3    1    6    6  503    0 -0.59573653430E+03  0.82571775644E+03  0.12686638811E+03  0.10260637953E+04  0.00000000000E+00 0. -1.
         -3    1    6    6    0  503 -0.11182963544E+02  0.29738015624E+02 -0.10020132427E+02  0.33313830472E+02  0.00000000000E+00 0.  1.
<mgrwt>
<rscale>  0 0.23210225E+04</rscale>
<asrwt>0</asrwt>
<pdfrwt beam="1">  1        1 0.24324724E+00 0.23210225E+04</pdfrwt>
<pdfrwt beam="2">  1       -2 0.13104610E+00 0.23210225E+04</pdfrwt>
<totfact> 0.19385830E+00</totfact>
</mgrwt>
</event>
<event>
12    4  0.4320235E-008  0.2193584E+04  0.7818608E-02  0.8521103E-01
          1   -1    0    0  501    0  0.00000000000E+00  0.00000000000E+00  0.28548167308E+04  0.28548167308E+04  0.00000000000E+00 0. -1.
         -2   -1    0    0    0  501 -0.00000000000E+00 -0.00000000000E+00 -0.42137646515E+03  0.42137646515E+03  0.00000000000E+00 0.  1.
        -24    2    1    2    0    0  0.48340836510E+03  0.56549230006E+03  0.18875572405E+04  0.20303676094E+04  0.77814548363E+02 0.  0.
        254    2    1    2    0    0 -0.48340836510E+03 -0.56549230006E+03  0.54588302513E+03  0.12458255866E+04  0.83703520012E+03 0.  0.
         23    2    4    4    0    0 -0.21077921817E+03  0.77139390003E+02  0.48226700007E+03  0.53931003524E+03  0.88856572382E+02 0.  0.
         23    2    4    4    0    0 -0.27262914693E+03 -0.64263169007E+03  0.63616025059E+02  0.70651555136E+03  0.88402968481E+02 0.  0.
          3    1    3    3  502    0  0.20304026996E+03  0.26290506269E+03  0.74790580936E+03  0.81835659886E+03  0.00000000000E+00 0. -1.
         -4    1    3    3    0  502  0.28036809513E+03  0.30258723738E+03  0.11396514312E+04  0.12120110105E+04  0.00000000000E+00 0.  1.
         11    1    5    5    0    0 -0.67255995530E+02  0.10558966058E+02  0.24383128226E+03  0.25315717432E+03  0.00000000000E+00 0.  1.
        -11    1    5    5    0    0 -0.14352322264E+03  0.66580423945E+02  0.23843571781E+03  0.28615286092E+03  0.00000000000E+00 0. -1.
          4    1    6    6  503    0 -0.63779657338E+02 -0.17690725642E+03  0.55387211190E+02  0.19604021329E+03  0.00000000000E+00 0. -1.
         -4    1    6    6    0  503 -0.20884948960E+03 -0.46572443364E+03  0.82288138688E+01  0.51047533807E+03  0.00000000000E+00 0.  1.
<mgrwt>
<rscale>  0 0.21935839E+04</rscale>
<asrwt>0</asrwt>
<pdfrwt beam="1">  1        1 0.43920256E+00 0.21935839E+04</pdfrwt>
<pdfrwt beam="2">  1       -2 0.64827150E-01 0.21935839E+04</pdfrwt>
<totfact> 0.13410749E+00</totfact>
</mgrwt>
</event>
<event>
12    4  0.4320235E-008  0.2720748E+04  0.7818608E-02  0.8328304E-01
          1   -1    0    0  501    0  0.00000000000E+00  0.00000000000E+00  0.16068424158E+04  0.16068424158E+04  0.00000000000E+00 0. -1.
         -2   -1    0    0    0  501 -0.00000000000E+00 -0.00000000000E+00 -0.11517108469E+04  0.11517108469E+04  0.00000000000E+00 0.  1.
        -24    2    1    2    0    0 -0.80127353763E+03 -0.36355617964E+03  0.10248137003E+04  0.13530204531E+04  0.78796245624E+02 0.  0.
        254    2    1    2    0    0  0.80127353763E+03  0.36355617964E+03 -0.56968213136E+03  0.14055328096E+04  0.93636123923E+03 0.  0.
         23    2    4    4    0    0  0.55052160742E+03  0.37700383600E+03  0.10286037502E+03  0.68206901984E+03  0.97118270594E+02 0.  0.
         23    2    4    4    0    0  0.25075193021E+03 -0.13447656366E+02 -0.67254250638E+03  0.72346378980E+03  0.89605034986E+02 0.  0.
          1    1    3    3  502    0 -0.72143817158E+03 -0.35204961271E+03  0.93195171593E+03  0.12300186852E+04  0.00000000000E+00 0. -1.
         -2    1    3    3    0  502 -0.79835366051E+02 -0.11506566930E+02  0.92861984334E+02  0.12300176783E+03  0.00000000000E+00 0.  1.
         11    1    5    5    0    0  0.10158386746E+02  0.28572722669E+01 -0.10758927338E+02  0.15070213786E+02  0.00000000000E+00 0.  1.
        -11    1    5    5    0    0  0.54036322067E+03  0.37414656373E+03  0.11361930236E+03  0.66699880606E+03  0.00000000000E+00 0. -1.
          2    1    6    6  503    0  0.10520085545E+03  0.37458698482E+02 -0.30960764276E+03  0.32913107804E+03  0.00000000000E+00 0. -1.
         -2    1    6    6    0  503  0.14555107476E+03 -0.50906354848E+02 -0.36293486363E+03  0.39433271176E+03  0.00000000000E+00 0.  1.
<mgrwt>
<rscale>  0 0.27207483E+04</rscale>
<asrwt>0</asrwt>
<pdfrwt beam="1">  1        1 0.24720652E+00 0.27207483E+04</pdfrwt>
<pdfrwt beam="2">  1       -2 0.17718628E+00 0.27207483E+04</pdfrwt>
<totfact> 0.80163821E-01</totfact>
</mgrwt>
</event>
<event>
12    4  0.4320235E-008  0.1962727E+04  0.7818608E-02  0.8624248E-01
          1   -1    0    0  501    0  0.00000000000E+00  0.00000000000E+00  0.10720048844E+04  0.10720048844E+04  0.00000000000E+00 0. -1.
         -2   -1    0    0    0  501 -0.00000000000E+00 -0.00000000000E+00 -0.89838630915E+03  0.89838630915E+03  0.00000000000E+00 0.  1.
        -24    2    1    2    0    0 -0.36485117704E+03  0.67039060525E+03  0.10372108583E+02  0.76746256820E+03  0.79694842692E+02 0.  0.
        254    2    1    2    0    0  0.36485117704E+03 -0.67039060525E+03  0.16324646665E+03  0.12029286253E+04  0.91534033220E+03 0.  0.
         23    2    4    4    0    0  0.23316172936E+03 -0.12163882618E+03  0.47581440091E+03  0.55095014029E+03  0.89366195566E+02 0.  0.
         23    2    4    4    0    0  0.13168944768E+03 -0.54875177907E+03 -0.31256793426E+03  0.65197848503E+03  0.94374815220E+02 0.  0.
          1    1    3    3  502    0 -0.21463258960E+03  0.44005703342E+03 -0.24776853101E+02  0.49023589590E+03  0.00000000000E+00 0. -1.
         -2    1    3    3    0  502 -0.15021858744E+03  0.23033357183E+03  0.35148961684E+02  0.27722667230E+03  0.00000000000E+00 0.  1.
         11    1    5    5    0    0  0.15674230495E+03 -0.67224818076E+02  0.38167971993E+03  0.41805111521E+03  0.00000000000E+00 0.  1.
        -11    1    5    5    0    0  0.76419424412E+02 -0.54414008100E+02  0.94134680975E+02  0.13289902508E+03  0.00000000000E+00 0. -1.
          1    1    6    6  503    0  0.18379609163E+02 -0.19384497138E+03 -0.67666455396E+02  0.20613692573E+03  0.00000000000E+00 0. -1.
         -1    1    6    6    0  503  0.11330983852E+03 -0.35490680769E+03 -0.24490147886E+03  0.44584155930E+03  0.00000000000E+00 0.  1.
<mgrwt>
<rscale>  0 0.19627272E+04</rscale>
<asrwt>0</asrwt>
<pdfrwt beam="1">  1        1 0.16492383E+00 0.19627272E+04</pdfrwt>
<pdfrwt beam="2">  1       -2 0.13821328E+00 0.19627272E+04</pdfrwt>
<totfact> 0.40340642E+00</totfact>
</mgrwt>
</event>
<event>
12    4  0.4320235E-008  0.1295486E+04  0.7818608E-02  0.9033152E-01
         -2   -1    0    0    0  501 -0.00000000000E+00  0.00000000000E+00  0.20613956453E+03  0.20613956453E+03  0.00000000000E+00 0.  1.
          1   -1    0    0  501    0  0.00000000000E+00 -0.00000000000E+00 -0.20353745177E+04  0.20353745177E+04  0.00000000000E+00 0. -1.
        -24    2    1    2    0    0  0.20168281600E+03  0.34523651686E+01 -0.17983247972E+02  0.21761690257E+03  0.79660793241E+02 0.  0.
        254    2    1    2    0    0 -0.20168281600E+03 -0.34523651686E+01 -0.18112517052E+04  0.20238971797E+04  0.88024949710E+03 0.  0.
         23    2    4    4    0    0  0.64706430729E+02 -0.16710133519E+03 -0.17381149180E+02  0.20096226262E+03  0.89296966639E+02 0.  0.
         23    2    4    4    0    0 -0.26638924673E+03  0.16364897002E+03 -0.17938705560E+04  0.18229349170E+04  0.85883198711E+02 0.  0.
          3    1    3    3  502    0  0.20613089288E+03  0.13704682432E+01 -0.77672616057E+01  0.20628173340E+03  0.00000000000E+00 0. -1.
         -4    1    3    3    0  502 -0.44480768728E+01  0.20818969253E+01 -0.10215986367E+02  0.11335169170E+02  0.00000000000E+00 0.  1.
         11    1    5    5    0    0  0.29666714068E+02 -0.90829198904E+02  0.35300375786E+02  0.10186350587E+03  0.00000000000E+00 0. -1.
        -11    1    5    5    0    0  0.35039716661E+02 -0.76272136288E+02 -0.52681524966E+02  0.99098756755E+02  0.00000000000E+00 0.  1.
          3    1    6    6  503    0 -0.46329545713E+02  0.39379960951E+02 -0.57064413924E+03  0.57387450002E+03  0.00000000000E+00 0. -1.
         -3    1    6    6    0  503 -0.22005970102E+03  0.12426900907E+03 -0.12232264168E+04  0.12490604170E+04  0.00000000000E+00 0.  1.
<mgrwt>
<rscale>  0 0.12954863E+04</rscale>
<asrwt>0</asrwt>
<pdfrwt beam="1">  1        1 0.31313453E+00 0.12954863E+04</pdfrwt>
<pdfrwt beam="2">  1       -2 0.31713780E-01 0.12954863E+04</pdfrwt>
<totfact> 0.22511433E+01</totfact>
</mgrwt>
</event>
<event>
12    4  0.4320235E-008  0.1659169E+04  0.7818608E-02  0.8785001E-01
         -2   -1    0    0    0  501 -0.00000000000E+00  0.00000000000E+00  0.30128022885E+03  0.30128022885E+03  0.00000000000E+00 0.  1.
          1   -1    0    0  501    0  0.00000000000E+00 -0.00000000000E+00 -0.22842865018E+04  0.22842865018E+04  0.00000000000E+00 0. -1.
        -24    2    1    2    0    0 -0.21226685118E+03 -0.29472095782E+03  0.39274425566E+01  0.37182253585E+03  0.79491598760E+02 0.  0.
        254    2    1    2    0    0  0.21226685118E+03  0.29472095782E+03 -0.19869337155E+04  0.22137441948E+04  0.90600226879E+03 0.  0.
         23    2    4    4    0    0  0.38687940961E+03  0.34511927075E+03 -0.19328247669E+04  0.20034372888E+04  0.95741328881E+02 0.  0.
         23    2    4    4    0    0 -0.17461255843E+03 -0.50398312934E+02 -0.54108948584E+02  0.21030690595E+03  0.90948781563E+02 0.  0.
          1    1    3    3  502    0  0.38855100692E+01 -0.12754351477E+02 -0.93587696068E+01  0.16289789399E+02  0.00000000000E+00 0. -1.
         -2    1    3    3    0  502 -0.21615236125E+03 -0.28196660634E+03  0.13286212163E+02  0.35553274645E+03  0.00000000000E+00 0.  1.
         11    1    5    5    0    0  0.10128132367E+03  0.11599105876E+03 -0.43301685444E+03  0.45958179736E+03  0.00000000000E+00 0.  1.
        -11    1    5    5    0    0  0.28559808595E+03  0.22912821200E+03 -0.14998079124E+04  0.15438554914E+04  0.00000000000E+00 0. -1.
          3    1    6    6  503    0 -0.89593673132E+02  0.21135877746E+02 -0.21883264190E+02  0.94618332499E+02  0.00000000000E+00 0. -1.
         -3    1    6    6    0  503 -0.85018885296E+02 -0.71534190680E+02 -0.32225684394E+02  0.11568857345E+03  0.00000000000E+00 0.  1.
<mgrwt>
<rscale>  0 0.16591689E+04</rscale>
<asrwt>0</asrwt>
<pdfrwt beam="1">  1        1 0.35142870E+00 0.16591689E+04</pdfrwt>
<pdfrwt beam="2">  1       -2 0.46350803E-01 0.16591689E+04</pdfrwt>
<totfact> 0.70664452E+00</totfact>
</mgrwt>
</event>
<event>
12    4  0.4320235E-008  0.1216296E+04  0.7818608E-02  0.9098711E-01
          1   -1    0    0  501    0  0.00000000000E+00  0.00000000000E+00  0.66175747376E+03  0.66175747376E+03  0.00000000000E+00 0. -1.
         -2   -1    0    0    0  501 -0.00000000000E+00 -0.00000000000E+00 -0.55888175491E+03  0.55888175491E+03  0.00000000000E+00 0.  1.
        -24    2    1    2    0    0 -0.37390142745E+01  0.14680124155E+01 -0.24604300106E+03  0.25846708729E+03  0.79069220000E+02 0.  0.
        254    2    1    2    0    0  0.37390142745E+01 -0.14680124155E+01  0.34891871992E+03  0.96217214138E+03  0.89666873552E+03 0.  0.
         23    2    4    4    0    0 -0.20076036983E+03 -0.22601907900E+02  0.59099213244E+03  0.63175313312E+03  0.94998675140E+02 0.  0.
         23    2    4    4    0    0  0.20449938410E+03  0.21133895484E+02 -0.24207341252E+03  0.33041900826E+03  0.91162186988E+02 0.  0.
          1    1    3    3  502    0 -0.18634398396E+02 -0.15614922831E+02 -0.20537321748E+02  0.31825276168E+02  0.00000000000E+00 0. -1.
         -2    1    3    3    0  502  0.14895384122E+02  0.17082935246E+02 -0.22550567931E+03  0.22664181112E+03  0.00000000000E+00 0.  1.
         11    1    5    5    0    0 -0.68936368901E+02 -0.20389876372E+02  0.98655864369E+02  0.12206944577E+03  0.00000000000E+00 0. -1.
        -11    1    5    5    0    0 -0.13182400093E+03 -0.22120315274E+01  0.49233626807E+03  0.50968368736E+03  0.00000000000E+00 0.  1.
          1    1    6    6  503    0  0.19565920048E+03  0.39711685190E+02 -0.23567636781E+03  0.30887358421E+03  0.00000000000E+00 0. -1.
         -1    1    6    6    0  503  0.88401836195E+01 -0.18577789706E+02 -0.63970447026E+01  0.21545424055E+02  0.00000000000E+00 0.  1.
<mgrwt>
<rscale>  0 0.12162963E+04</rscale>
<asrwt>0</asrwt>
<pdfrwt beam="1">  1        1 0.10180884E+00 0.12162963E+04</pdfrwt>
<pdfrwt beam="2">  1       -2 0.85981808E-01 0.12162963E+04</pdfrwt>
<totfact> 0.30132439E+01</totfact>
</mgrwt>
</event>
<event>
12    4  0.4320235E-008  0.2082320E+04  0.7818608E-02  0.8569072E-01
          1   -1    0    0  501    0  0.00000000000E+00  0.00000000000E+00  0.17705142985E+04  0.17705142985E+04  0.00000000000E+00 0. -1.
         -2   -1    0    0    0  501 -0.00000000000E+00 -0.00000000000E+00 -0.61225933048E+03  0.61225933048E+03  0.00000000000E+00 0.  1.
        -24    2    1    2    0    0  0.37667741839E+03  0.75432482935E+03  0.47548572982E+03  0.97143086977E+03  0.81850044449E+02 0.  0.
        254    2    1    2    0    0 -0.37667741839E+03 -0.75432482935E+03  0.68276923818E+03  0.14113427592E+04  0.90267531572E+03 0.  0.
         23    2    4    4    0    0  0.19588274303E+03 -0.52871810622E+03  0.51081018339E+03  0.76627635848E+03  0.91321023007E+02 0.  0.
         23    2    4    4    0    0 -0.57256016141E+03 -0.22560672313E+03  0.17195905478E+03  0.64506640071E+03  0.88415003489E+02 0.  0.
          1    1    3    3  502    0  0.34760508686E+03  0.73124055611E+03  0.44891421165E+03  0.92577860028E+03  0.00000000000E+00 0. -1.
         -2    1    3    3    0  502  0.29072331528E+02  0.23084273237E+02  0.26571518178E+02  0.45652269490E+02  0.00000000000E+00 0.  1.
         11    1    5    5    0    0  0.20463871112E+03 -0.49728041641E+03  0.49046807345E+03  0.72782123198E+03  0.00000000000E+00 0. -1.
        -11    1    5    5    0    0 -0.87559680906E+01 -0.31437689805E+02  0.20342109940E+02  0.38455126502E+02  0.00000000000E+00 0.  1.
          1    1    6    6  503    0 -0.55545132589E+03 -0.22866457891E+03  0.17827480182E+03  0.62657447286E+03  0.00000000000E+00 0. -1.
         -1    1    6    6    0  503 -0.17108835526E+02  0.30578557755E+01 -0.63157470329E+01  0.18491927850E+02  0.00000000000E+00 0.  1.
<mgrwt>
<rscale>  0 0.20823198E+04</rscale>
<asrwt>0</asrwt>
<pdfrwt beam="1">  1        1 0.27238681E+00 0.20823198E+04</pdfrwt>
<pdfrwt beam="2">  1       -2 0.94193744E-01 0.20823198E+04</pdfrwt>
<totfact> 0.32808848E+00</totfact>
</mgrwt>
</event>
<event>
12    4  0.4320235E-008  0.1485764E+04  0.7818608E-02  0.8893975E-01
          1   -1    0    0  501    0  0.00000000000E+00  0.00000000000E+00  0.48970635692E+03  0.48970635692E+03  0.00000000000E+00 0. -1.
         -2   -1    0    0    0  501 -0.00000000000E+00 -0.00000000000E+00 -0.11269487026E+04  0.11269487026E+04  0.00000000000E+00 0.  1.
        -24    2    1    2    0    0  0.61686414686E+01 -0.40631513055E+03  0.62458050367E+02  0.41866300945E+03  0.79042203726E+02 0.  0.
        254    2    1    2    0    0 -0.61686414686E+01  0.40631513055E+03 -0.69970039606E+03  0.11979920501E+04  0.88344454855E+03 0.  0.
         23    2    4    4    0    0  0.16754730129E+03  0.57279235175E+03 -0.72006929445E+03  0.93973157199E+03  0.91828438982E+02 0.  0.
         23    2    4    4    0    0 -0.17371594275E+03 -0.16647722119E+03  0.20368898388E+02  0.25826047809E+03  0.91606160150E+02 0.  0.
          1    1    3    3  502    0 -0.54688887961E+01 -0.39392790587E+03  0.49035705933E+02  0.39700579873E+03  0.00000000000E+00 0. -1.
         -2    1    3    3    0  502  0.11637530265E+02 -0.12387224683E+02  0.13422344434E+02  0.21657210719E+02  0.00000000000E+00 0.  1.
         11    1    5    5    0    0  0.13360934291E+03  0.29366983235E+03 -0.38299506552E+03  0.50077804181E+03  0.00000000000E+00 0.  1.
        -11    1    5    5    0    0  0.33937958372E+02  0.27912251939E+03 -0.33707422893E+03  0.43895353018E+03  0.00000000000E+00 0. -1.
          2    1    6    6  503    0 -0.18474248498E+03 -0.15198754368E+03  0.19751201323E+02  0.24004189040E+03  0.00000000000E+00 0.  1.
         -2    1    6    6    0  503  0.11026542226E+02 -0.14489677510E+02  0.61769706491E+00  0.18218587691E+02  0.00000000000E+00 0. -1.
<mgrwt>
<rscale>  0 0.14857644E+04</rscale>
<asrwt>0</asrwt>
<pdfrwt beam="1">  1        1 0.75339440E-01 0.14857644E+04</pdfrwt>
<pdfrwt beam="2">  1       -2 0.17337672E+00 0.14857644E+04</pdfrwt>
<totfact> 0.77850264E+00</totfact>
</mgrwt>
</event>
<event>
12    4  0.4320235E-008  0.1672376E+04  0.7818608E-02  0.8777278E-01
         -2   -1    0    0    0  501 -0.00000000000E+00  0.00000000000E+00  0.36000837506E+03  0.36000837506E+03  0.00000000000E+00 0.  1.
          1   -1    0    0  501    0  0.00000000000E+00 -0.00000000000E+00 -0.19422052513E+04  0.19422052513E+04  0.00000000000E+00 0. -1.
        -24    2    1    2    0    0  0.20841242571E+03 -0.16425583618E+03 -0.12864795604E+04  0.13161865008E+04  0.83075427432E+02 0.  0.
        254    2    1    2    0    0 -0.20841242571E+03  0.16425583618E+03 -0.29571731579E+03  0.98602712552E+03  0.90243284653E+03 0.  0.
         23    2    4    4    0    0 -0.15088548876E+03  0.43030424080E+03  0.12050710771E+03  0.48042913742E+03  0.91444096105E+02 0.  0.
         23    2    4    4    0    0 -0.57526936949E+02 -0.26604840461E+03 -0.41622442351E+03  0.50559798809E+03  0.91079376194E+02 0.  0.
          1    1    3    3  502    0  0.99235435133E+02 -0.44150849745E+02 -0.66754569197E+03  0.67632404955E+03  0.00000000000E+00 0. -1.
         -2    1    3    3    0  502  0.10917699057E+03 -0.12010498644E+03 -0.61893386846E+03  0.63986245129E+03  0.00000000000E+00 0.  1.
         11    1    5    5    0    0  0.58933386990E+01  0.29670285790E+02  0.26149306202E+02  0.39985541321E+02  0.00000000000E+00 0. -1.
        -11    1    5    5    0    0 -0.15677882746E+03  0.40063395501E+03  0.94357801511E+02  0.44044359610E+03  0.00000000000E+00 0.  1.
          3    1    6    6  503    0 -0.59085076375E+02 -0.27234513977E+03 -0.41331216255E+03  0.49848757770E+03  0.00000000000E+00 0. -1.
         -3    1    6    6    0  503  0.15581394260E+01  0.62967351578E+01 -0.29122609587E+01  0.71104103967E+01  0.00000000000E+00 0.  1.
<mgrwt>
<rscale>  0 0.16723757E+04</rscale>
<asrwt>0</asrwt>
<pdfrwt beam="1">  1        1 0.29880081E+00 0.16723757E+04</pdfrwt>
<pdfrwt beam="2">  1       -2 0.55385904E-01 0.16723757E+04</pdfrwt>
<totfact> 0.83706740E+00</totfact>
</mgrwt>
</event>
<event>
12    4  0.4320235E-008  0.1597474E+04  0.7818608E-02  0.8822102E-01
          1   -1    0    0  501    0  0.00000000000E+00  0.00000000000E+00  0.16694257388E+04  0.16694257388E+04  0.00000000000E+00 0. -1.
         -2   -1    0    0    0  501 -0.00000000000E+00 -0.00000000000E+00 -0.38215566124E+03  0.38215566124E+03  0.00000000000E+00 0.  1.
        -24    2    1    2    0    0  0.34046961060E+03  0.61046728175E+02 -0.93417638083E+02  0.36729662267E+03  0.80831275853E+02 0.  0.
        254    2    1    2    0    0 -0.34046961060E+03 -0.61046728175E+02  0.13806877157E+04  0.16842847774E+04  0.90048341706E+03 0.  0.
         23    2    4    4    0    0 -0.39850583577E+03 -0.18733448283E+03  0.20078958837E+03  0.49281401398E+03  0.92995074986E+02 0.  0.
         23    2    4    4    0    0  0.58036225168E+02  0.12628775465E+03  0.11798981273E+04  0.11914707634E+04  0.90145376358E+02 0.  0.
          1    1    3    3  502    0  0.54865715654E+01 -0.92971289935E+01 -0.10603321859E+02  0.15131738483E+02  0.00000000000E+00 0. -1.
         -2    1    3    3    0  502  0.33498303904E+03  0.70343857169E+02 -0.82814316224E+02  0.35216488419E+03  0.00000000000E+00 0.  1.
         11    1    5    5    0    0 -0.28420354406E+03 -0.11063084709E+03  0.17848200583E+03  0.35336477638E+03  0.00000000000E+00 0.  1.
        -11    1    5    5    0    0 -0.11430229171E+03 -0.76703635742E+02  0.22307582546E+02  0.13944923760E+03  0.00000000000E+00 0. -1.
          1    1    6    6  503    0 -0.18144499514E+02  0.10793391906E+01  0.17489647149E+03  0.17583845875E+03  0.00000000000E+00 0. -1.
         -1    1    6    6    0  503  0.76180724682E+02  0.12520841546E+03  0.10050016558E+04  0.10156323047E+04  0.00000000000E+00 0.  1.
<mgrwt>
<rscale>  0 0.15974736E+04</rscale>
<asrwt>0</asrwt>
<pdfrwt beam="1">  1        1 0.25683472E+00 0.15974736E+04</pdfrwt>
<pdfrwt beam="2">  1       -2 0.58793180E-01 0.15974736E+04</pdfrwt>
<totfact> 0.11388748E+01</totfact>
</mgrwt>
</event>
<event>
12    4  0.4320235E-008  0.1121393E+04  0.7818608E-02  0.9184589E-01
         -2   -1    0    0    0  501 -0.00000000000E+00  0.00000000000E+00  0.57325919949E+03  0.57325919949E+03  0.00000000000E+00 0.  1.
          1   -1    0    0  501    0  0.00000000000E+00 -0.00000000000E+00 -0.54840863883E+03  0.54840863883E+03  0.00000000000E+00 0. -1.
        -24    2    1    2    0    0 -0.56958731857E+02  0.36872032272E+02  0.17343743233E+03  0.20224406841E+03  0.78856048443E+02 0.  0.
        254    2    1    2    0    0  0.56958731857E+02 -0.36872032272E+02 -0.14858687167E+03  0.91942376991E+03  0.90479730677E+03 0.  0.
         23    2    4    4    0    0  0.27585560908E+03 -0.22063206951E+03  0.23324667939E+03  0.43389269241E+03  0.95310166969E+02 0.  0.
         23    2    4    4    0    0 -0.21889687722E+03  0.18376003724E+03 -0.38183355106E+03  0.48553107750E+03  0.90884390056E+02 0.  0.
          1    1    3    3  502    0 -0.30409706895E+02  0.39784401217E+02  0.34612807649E+02  0.60873601069E+02  0.00000000000E+00 0. -1.
         -2    1    3    3    0  502 -0.26549024962E+02 -0.29123689451E+01  0.13882462468E+03  0.14137046734E+03  0.00000000000E+00 0.  1.
         11    1    5    5    0    0  0.27530767417E+03 -0.18967808514E+03  0.22002457327E+03  0.40022856505E+03  0.00000000000E+00 0.  1.
        -11    1    5    5    0    0  0.54793490955E+00 -0.30953984366E+02  0.13222106111E+02  0.33664127358E+02  0.00000000000E+00 0. -1.
          3    1    6    6  503    0 -0.63230667131E+02  0.10694606296E+03 -0.13157329122E+03  0.18096162193E+03  0.00000000000E+00 0. -1.
         -3    1    6    6    0  503 -0.15566621009E+03  0.76813974274E+02 -0.25026025984E+03  0.30456945557E+03  0.00000000000E+00 0.  1.
<mgrwt>
<rscale>  0 0.11213925E+04</rscale>
<asrwt>0</asrwt>
<pdfrwt beam="1">  1        1 0.84370560E-01 0.11213925E+04</pdfrwt>
<pdfrwt beam="2">  1       -2 0.88193723E-01 0.11213925E+04</pdfrwt>
<totfact> 0.37561845E+01</totfact>
</mgrwt>
</event>
<event>
12    4  0.4320235E-008  0.2495191E+04  0.7818608E-02  0.8404701E-01
         -2   -1    0    0    0  501 -0.00000000000E+00  0.00000000000E+00  0.10014470760E+04  0.10014470760E+04  0.00000000000E+00 0.  1.
          1   -1    0    0  501    0  0.00000000000E+00 -0.00000000000E+00 -0.15542451586E+04  0.15542451586E+04  0.00000000000E+00 0. -1.
        -24    2    1    2    0    0  0.62469964862E+03  0.74668625649E+03  0.23323906106E+03  0.10044347933E+04  0.81846061162E+02 0.  0.
        254    2    1    2    0    0 -0.62469964862E+03 -0.74668625649E+03 -0.78603714365E+03  0.15512574413E+04  0.91692706433E+03 0.  0.
         23    2    4    4    0    0  0.16508643721E+03 -0.38413769211E+03 -0.99262636799E+02  0.43930860777E+03  0.91234223515E+02 0.  0.
         23    2    4    4    0    0 -0.78978608583E+03 -0.36254856437E+03 -0.68677450685E+03  0.11119488335E+04  0.97813404945E+02 0.  0.
          3    1    3    3  502    0  0.56400993301E+03  0.68997856697E+03  0.23398146171E+03  0.92137123454E+03  0.00000000000E+00 0. -1.
         -2    1    3    3    0  502  0.60689715612E+02  0.56707689514E+02 -0.74240065384E+00  0.83063558735E+02  0.00000000000E+00 0.  1.
         11    1    5    5    0    0  0.83158678998E+02 -0.97052843582E+02 -0.47272573030E+02  0.13626927937E+03  0.00000000000E+00 0.  1.
        -11    1    5    5    0    0  0.81927758209E+02 -0.28708484853E+03 -0.51990063769E+02  0.30303932839E+03  0.00000000000E+00 0. -1.
          3    1    6    6  503    0 -0.73302662127E+03 -0.32975273849E+03 -0.66392899841E+03  0.10425289497E+04  0.00000000000E+00 0. -1.
         -3    1    6    6    0  503 -0.56759464557E+02 -0.32795825880E+02 -0.22845508438E+02  0.69419883807E+02  0.00000000000E+00 0.  1.
<mgrwt>
<rscale>  0 0.24951908E+04</rscale>
<asrwt>0</asrwt>
<pdfrwt beam="1">  1        1 0.23911464E+00 0.24951908E+04</pdfrwt>
<pdfrwt beam="2">  1       -2 0.15406878E+00 0.24951908E+04</pdfrwt>
<totfact> 0.13065738E+00</totfact>
</mgrwt>
</event>
<event>
12    4  0.4320235E-008  0.1094701E+04  0.7818608E-02  0.9210372E-01
          1   -1    0    0  501    0  0.00000000000E+00  0.00000000000E+00  0.33173103015E+04  0.33173103015E+04  0.00000000000E+00 0. -1.
         -2   -1    0    0    0  501 -0.00000000000E+00 -0.00000000000E+00 -0.90311967576E+02  0.90311967576E+02  0.00000000000E+00 0.  1.
        -24    2    1    2    0    0 -0.12423872727E+03  0.87917574977E+01  0.93154454756E+03  0.94319706799E+03  0.79579574155E+02 0.  0.
        254    2    1    2    0    0  0.12423872727E+03 -0.87917574977E+01  0.22954537863E+04  0.24644252011E+04  0.88812776674E+03 0.  0.
         23    2    4    4    0    0 -0.33609340055E+02  0.27890882504E+03  0.19741186702E+04  0.19960575850E+04  0.90452407539E+02 0.  0.
         23    2    4    4    0    0  0.15784806733E+03 -0.28770058254E+03  0.32133511610E+03  0.46836761606E+03  0.91784145585E+02 0.  0.
          1    1    3    3  502    0 -0.13327722887E+03  0.18456866163E+02  0.85246833048E+03  0.86302128022E+03  0.00000000000E+00 0. -1.
         -2    1    3    3    0  502  0.90385015984E+01 -0.96651086648E+01  0.79076217080E+02  0.80175787769E+02  0.00000000000E+00 0.  1.
         11    1    5    5    0    0 -0.24911866550E+02  0.28185539482E+03  0.19463485835E+04  0.19668085502E+04  0.00000000000E+00 0. -1.
        -11    1    5    5    0    0 -0.86974735049E+01 -0.29465697797E+01  0.27770086773E+02  0.29249034826E+02  0.00000000000E+00 0.  1.
          3    1    6    6  503    0  0.13656351140E+03 -0.16957386406E+03  0.23601520918E+03  0.32110444871E+03  0.00000000000E+00 0. -1.
         -3    1    6    6    0  503  0.21284555926E+02 -0.11812671848E+03  0.85319906913E+02  0.14726316734E+03  0.00000000000E+00 0.  1.
<mgrwt>
<rscale>  0 0.10947015E+04</rscale>
<asrwt>0</asrwt>
<pdfrwt beam="1">  1        1 0.51035534E+00 0.10947015E+04</pdfrwt>
<pdfrwt beam="2">  1       -2 0.13894151E-01 0.10947015E+04</pdfrwt>
<totfact> 0.12412854E+01</totfact>
</mgrwt>
</event>
<event>
12    4  0.4320235E-008  0.1731821E+04  0.7818608E-02  0.8743421E-01
         -2   -1    0    0    0  501 -0.00000000000E+00  0.00000000000E+00  0.75361482817E+03  0.75361482817E+03  0.00000000000E+00 0.  1.
          1   -1    0    0  501    0  0.00000000000E+00 -0.00000000000E+00 -0.99493974297E+03  0.99493974297E+03  0.00000000000E+00 0. -1.
        -24    2    1    2    0    0 -0.16708031907E+03  0.40846647726E+03  0.36677027677E+03  0.57919736372E+03  0.78666728440E+02 0.  0.
        254    2    1    2    0    0  0.16708031907E+03 -0.40846647726E+03 -0.60809519156E+03  0.11693572074E+04  0.89602222097E+03 0.  0.
         23    2    4    4    0    0  0.37688521198E+03 -0.76777660478E+01 -0.59031441256E+03  0.70662848302E+03  0.93548363068E+02 0.  0.
         23    2    4    4    0    0 -0.20980489291E+03 -0.40078871121E+03 -0.17780779001E+02  0.46272872440E+03  0.95666254037E+02 0.  0.
          3    1    3    3  502    0 -0.51193014772E+02  0.89485885924E+02  0.48514159973E+02  0.11393889704E+03  0.00000000000E+00 0. -1.
         -4    1    3    3    0  502 -0.11588730430E+03  0.31898059133E+03  0.31825611679E+03  0.46525846668E+03  0.00000000000E+00 0.  1.
         11    1    5    5    0    0  0.21936435736E+03 -0.13929472427E+02 -0.42328125664E+03  0.47695049398E+03  0.00000000000E+00 0.  1.
        -11    1    5    5    0    0  0.15752085462E+03  0.62517063787E+01 -0.16703315592E+03  0.22967798904E+03  0.00000000000E+00 0. -1.
          1    1    6    6  503    0  0.94241944873E+00 -0.59997869958E+02 -0.15731050714E+02  0.62033043698E+02  0.00000000000E+00 0. -1.
         -1    1    6    6    0  503 -0.21074731236E+03 -0.34079084125E+03 -0.20497282876E+01  0.40069568070E+03  0.00000000000E+00 0.  1.
<mgrwt>
<rscale>  0 0.17318214E+04</rscale>
<asrwt>0</asrwt>
<pdfrwt beam="1">  1        1 0.15306765E+00 0.17318214E+04</pdfrwt>
<pdfrwt beam="2">  1       -2 0.11594074E+00 0.17318214E+04</pdfrwt>
<totfact> 0.73429690E+00</totfact>
</mgrwt>
</event>
<event>
12    4  0.4320235E-008  0.1656487E+04  0.7818608E-02  0.8786578E-01
         -4   -1    0    0    0  501 -0.00000000000E+00  0.00000000000E+00  0.56927574697E+03  0.56927574697E+03  0.00000000000E+00 0.  1.
          3   -1    0    0  501    0  0.00000000000E+00 -0.00000000000E+00 -0.12050177605E+04  0.12050177605E+04  0.00000000000E+00 0. -1.
        -24    2    1    2    0    0 -0.16435738453E+03  0.39950008255E+03 -0.65456708949E+03  0.78838182272E+03  0.80462152228E+02 0.  0.
        254    2    1    2    0    0  0.16435738453E+03 -0.39950008255E+03  0.18825075960E+02  0.98591168475E+03  0.88603261838E+03 0.  0.
         23    2    4    4    0    0  0.42461272431E+03 -0.28492894692E+03  0.28024991286E+03  0.58888109132E+03  0.82221989879E+02 0.  0.
         23    2    4    4    0    0 -0.26025533978E+03 -0.11457113563E+03 -0.26142483690E+03  0.39703059343E+03  0.91820257942E+02 0.  0.
          1    1    3    3  502    0 -0.14903498196E+03  0.26515304648E+03 -0.44867590472E+03  0.54205869736E+03  0.00000000000E+00 0. -1.
         -4    1    3    3    0  502 -0.15322402575E+02  0.13434703607E+03 -0.20589118477E+03  0.24632312536E+03  0.00000000000E+00 0.  1.
         11    1    5    5    0    0  0.42734564633E+03 -0.28589200738E+03  0.27549989744E+03  0.58331701056E+03  0.00000000000E+00 0. -1.
        -11    1    5    5    0    0 -0.27329220174E+01  0.96306046187E+00  0.47500154256E+01  0.55640807641E+01  0.00000000000E+00 0.  1.
          3    1    6    6  503    0 -0.17462556114E+03 -0.30437424421E+02 -0.13604342932E+03  0.22344649935E+03  0.00000000000E+00 0. -1.
         -3    1    6    6    0  503 -0.85629778634E+02 -0.84133711211E+02 -0.12538140759E+03  0.17358409409E+03  0.00000000000E+00 0.  1.
<mgrwt>
<rscale>  0 0.16564871E+04</rscale>
<asrwt>0</asrwt>
<pdfrwt beam="1">  1        3 0.18538735E+00 0.16564871E+04</pdfrwt>
<pdfrwt beam="2">  1       -4 0.87580884E-01 0.16564871E+04</pdfrwt>
<totfact> 0.45116221E-01</totfact>
</mgrwt>
</event>
<event>
12    4  0.4320235E-008  0.1153160E+04  0.7818608E-02  0.9154874E-01
         -2   -1    0    0    0  501 -0.00000000000E+00  0.00000000000E+00  0.43971582726E+03  0.43971582726E+03  0.00000000000E+00 0.  1.
          1   -1    0    0  501    0  0.00000000000E+00 -0.00000000000E+00 -0.75604339842E+03  0.75604339842E+03  0.00000000000E+00 0. -1.
        -24    2    1    2    0    0 -0.24736401443E+02  0.18335775062E+03  0.42272952809E+02  0.20577735567E+03  0.79532152611E+02 0.  0.
        254    2    1    2    0    0  0.24736401443E+02 -0.18335775062E+03 -0.35860052397E+03  0.98998187001E+03  0.90401206457E+03 0.  0.
         23    2    4    4    0    0 -0.69738629163E+01 -0.84575153222E+02 -0.65160309391E+03  0.66354957623E+03  0.92248885174E+02 0.  0.
         23    2    4    4    0    0  0.31710264359E+02 -0.98782597402E+02  0.29300256995E+03  0.32643229378E+03  0.99719576868E+02 0.  0.
          3    1    3    3  502    0 -0.20577161870E+02  0.48836471199E+02 -0.21071339758E+02  0.57030008495E+02  0.00000000000E+00 0. -1.
         -4    1    3    3    0  502 -0.41592395730E+01  0.13452127943E+03  0.63344292567E+02  0.14874734718E+03  0.00000000000E+00 0.  1.
         11    1    5    5    0    0 -0.34391591484E+02  0.65295626030E+00 -0.22881102156E+03  0.23138213307E+03  0.00000000000E+00 0. -1.
        -11    1    5    5    0    0  0.27417728568E+02 -0.85228109483E+02 -0.42279207236E+03  0.43216744317E+03  0.00000000000E+00 0.  1.
          3    1    6    6  503    0 -0.17445719736E+02 -0.18119479232E+02  0.83293761248E+01  0.26496172769E+02  0.00000000000E+00 0. -1.
         -3    1    6    6    0  503  0.49155984096E+02 -0.80663118169E+02  0.28467319382E+03  0.29993612101E+03  0.00000000000E+00 0.  1.
<mgrwt>
<rscale>  0 0.11531596E+04</rscale>
<asrwt>0</asrwt>
<pdfrwt beam="1">  1        1 0.11631437E+00 0.11531596E+04</pdfrwt>
<pdfrwt beam="2">  1       -2 0.67648590E-01 0.11531596E+04</pdfrwt>
<totfact> 0.42141233E+01</totfact>
</mgrwt>
</event>
<event>
12    4  0.4320235E-008  0.2321639E+04  0.7818608E-02  0.8469438E-01
         -4   -1    0    0    0  501 -0.00000000000E+00  0.00000000000E+00  0.42793251261E+03  0.42793251261E+03  0.00000000000E+00 0.  1.
          1   -1    0    0  501    0  0.00000000000E+00 -0.00000000000E+00 -0.31488649403E+04  0.31488649403E+04  0.00000000000E+00 0. -1.
        -24    2    1    2    0    0  0.44134051225E+03 -0.87476346691E+03 -0.10776126036E+04  0.14585071359E+04  0.77469808059E+02 0.  0.
        254    2    1    2    0    0 -0.44134051225E+03  0.87476346691E+03 -0.16433198241E+04  0.21182903170E+04  0.90920913556E+03 0.  0.
         23    2    4    4    0    0 -0.52155265067E+02  0.36391379370E+03 -0.13595631577E+04  0.14108523011E+04  0.83299548206E+02 0.  0.
         23    2    4    4    0    0 -0.38918524718E+03  0.51084967322E+03 -0.28375666637E+03  0.70743801594E+03  0.86707297549E+02 0.  0.
          3    1    3    3  502    0  0.31273268595E+03 -0.64297697222E+03 -0.83346743190E+03  0.10981298100E+04  0.00000000000E+00 0. -1.
         -4    1    3    3    0  502  0.12860782630E+03 -0.23178649470E+03 -0.24414517167E+03  0.36037732581E+03  0.00000000000E+00 0.  1.
         11    1    5    5    0    0  0.12269709358E+02  0.41585597446E+02 -0.97869326742E+02  0.10704350891E+03  0.00000000000E+00 0. -1.
        -11    1    5    5    0    0 -0.64424974425E+02  0.32232819625E+03 -0.12616938310E+04  0.13038087922E+04  0.00000000000E+00 0.  1.
          3    1    6    6  503    0 -0.51262049002E+02  0.50553771433E+02 -0.54384881907E+01  0.72201514027E+02  0.00000000000E+00 0. -1.
         -3    1    6    6    0  503 -0.33792319818E+03  0.46029590178E+03 -0.27831817817E+03  0.63523650192E+03  0.00000000000E+00 0.  1.
<mgrwt>
<rscale>  0 0.23216388E+04</rscale>
<asrwt>0</asrwt>
<pdfrwt beam="1">  1        1 0.48444077E+00 0.23216388E+04</pdfrwt>
<pdfrwt beam="2">  1       -4 0.65835770E-01 0.23216388E+04</pdfrwt>
<totfact> 0.44644886E-01</totfact>
</mgrwt>
</event>
<event>
12    4  0.4320235E-008  0.1286634E+04  0.7818608E-02  0.9040232E-01
          1   -1    0    0  501    0  0.00000000000E+00  0.00000000000E+00  0.95193243869E+03  0.95193243869E+03  0.00000000000E+00 0. -1.
         -2   -1    0    0    0  501 -0.00000000000E+00 -0.00000000000E+00 -0.43475445349E+03  0.43475445349E+03  0.00000000000E+00 0.  1.
        -24    2    1    2    0    0  0.17000655069E+03  0.27470906988E+03  0.18651274260E+03  0.38136667519E+03  0.79285795970E+02 0.  0.
        254    2    1    2    0    0 -0.17000655069E+03 -0.27470906988E+03  0.33066524261E+03  0.10053202170E+04  0.89272724596E+03 0.  0.
         23    2    4    4    0    0 -0.13022918635E+03 -0.59369897380E+03  0.23670936151E+03  0.65890923387E+03  0.93230596820E+02 0.  0.
         23    2    4    4    0    0 -0.39777364341E+02  0.31898990392E+03  0.93955881096E+02  0.34641098312E+03  0.88521546055E+02 0.  0.
          3    1    3    3  502    0  0.17115640307E+03  0.26278744032E+03  0.15955008533E+03  0.35186358554E+03  0.00000000000E+00 0. -1.
         -4    1    3    3    0  502 -0.11498523758E+01  0.11921629558E+02  0.26962657271E+02  0.29503089650E+02  0.00000000000E+00 0.  1.
         11    1    5    5    0    0 -0.14297421686E+03 -0.50115848790E+03  0.19259508157E+03  0.55560266569E+03  0.00000000000E+00 0.  1.
        -11    1    5    5    0    0  0.12745030514E+02 -0.92540485906E+02  0.44114279942E+02  0.10330656818E+03  0.00000000000E+00 0. -1.
          1    1    6    6  503    0 -0.16810631339E+02  0.21838195259E+02  0.31582781070E+02  0.41916299434E+02  0.00000000000E+00 0. -1.
         -1    1    6    6    0  503 -0.22966733003E+02  0.29715170866E+03  0.62373100027E+02  0.30449468369E+03  0.00000000000E+00 0.  1.
<mgrwt>
<rscale>  0 0.12866342E+04</rscale>
<asrwt>0</asrwt>
<pdfrwt beam="1">  1        1 0.14645114E+00 0.12866342E+04</pdfrwt>
<pdfrwt beam="2">  1       -2 0.66885301E-01 0.12866342E+04</pdfrwt>
<totfact> 0.29226558E+01</totfact>
</mgrwt>
</event>
<event>
12    4  0.4320235E-008  0.1971990E+04  0.7818608E-02  0.8619829E-01
          1   -1    0    0  501    0  0.00000000000E+00  0.00000000000E+00  0.46949911894E+04  0.46949911894E+04  0.00000000000E+00 0. -1.
         -2   -1    0    0    0  501 -0.00000000000E+00 -0.00000000000E+00 -0.20706872766E+03  0.20706872766E+03  0.00000000000E+00 0.  1.
        -24    2    1    2    0    0 -0.76979533584E+03 -0.85176277720E+02  0.18076770807E+04  0.19683561777E+04  0.83004558911E+02 0.  0.
        254    2    1    2    0    0  0.76979533584E+03  0.85176277720E+02  0.26802453810E+04  0.29337037394E+04  0.90722790435E+03 0.  0.
         23    2    4    4    0    0  0.21860818935E+02 -0.39852212304E+02  0.16392133240E+04  0.16424661881E+04  0.92783420988E+02 0.  0.
         23    2    4    4    0    0  0.74793451690E+03  0.12502849002E+03  0.10410320570E+04  0.12912375512E+04  0.92241558613E+02 0.  0.
          1    1    3    3  502    0 -0.17230727152E+02 -0.12865349309E+02  0.33460510500E+02  0.39774626761E+02  0.00000000000E+00 0. -1.
         -2    1    3    3    0  502 -0.75256460869E+03 -0.72310928410E+02  0.17742165702E+04  0.19285815509E+04  0.00000000000E+00 0.  1.
         11    1    5    5    0    0 -0.57683063030E+01 -0.10548374457E+02  0.24899898279E+02  0.27650433913E+02  0.00000000000E+00 0. -1.
        -11    1    5    5    0    0  0.27629125238E+02 -0.29303837847E+02  0.16143134258E+04  0.16148157542E+04  0.00000000000E+00 0.  1.
          3    1    6    6  503    0  0.16139044587E+03  0.63733316822E+02  0.25939394830E+03  0.31208016936E+03  0.00000000000E+00 0. -1.
         -3    1    6    6    0  503  0.58654407103E+03  0.61295173202E+02  0.78163810871E+03  0.97915738189E+03  0.00000000000E+00 0.  1.
<mgrwt>
<rscale>  0 0.19719897E+04</rscale>
<asrwt>0</asrwt>
<pdfrwt beam="1">  1        1 0.72230626E+00 0.19719897E+04</pdfrwt>
<pdfrwt beam="2">  1       -2 0.31856731E-01 0.19719897E+04</pdfrwt>
<totfact> 0.15189166E-01</totfact>
</mgrwt>
</event>
<event>
12    4  0.4320235E-008  0.3147947E+04  0.7818608E-02  0.8202701E-01
         -2   -1    0    0    0  501 -0.00000000000E+00  0.00000000000E+00  0.14645138253E+04  0.14645138253E+04  0.00000000000E+00 0.  1.
          1   -1    0    0  501    0  0.00000000000E+00 -0.00000000000E+00 -0.16916143063E+04  0.16916143063E+04  0.00000000000E+00 0. -1.
        -24    2    1    2    0    0  0.15543155445E+03  0.43036041362E+03 -0.14827997257E+04  0.15537827334E+04  0.78592000136E+02 0.  0.
        254    2    1    2    0    0 -0.15543155445E+03 -0.43036041362E+03  0.12556992447E+04  0.16023453982E+04  0.88394633795E+03 0.  0.
         23    2    4    4    0    0  0.15441241050E+03  0.19881848860E+03  0.21059903049E+03  0.34045187581E+03  0.90462943659E+02 0.  0.
         23    2    4    4    0    0 -0.30984396495E+03 -0.62917890221E+03  0.10451002142E+04  0.12618935224E+04  0.90947405655E+02 0.  0.
          1    1    3    3  502    0 -0.70551293341E+01  0.37846284009E+02 -0.15335760325E+03  0.15811600342E+03  0.00000000000E+00 0. -1.
         -2    1    3    3    0  502  0.16248668379E+03  0.39251412961E+03 -0.13294421224E+04  0.13956667300E+04  0.00000000000E+00 0.  1.
         11    1    5    5    0    0 -0.92809152318E+01  0.33209041988E+02  0.23296399801E+02  0.41613676851E+02  0.00000000000E+00 0.  1.
        -11    1    5    5    0    0  0.16369332573E+03  0.16560944661E+03  0.18730263069E+03  0.29883819896E+03  0.00000000000E+00 0. -1.
          1    1    6    6  503    0 -0.28654731256E+03 -0.59498396295E+03  0.93864671968E+03  0.11476815512E+04  0.00000000000E+00 0. -1.
         -1    1    6    6    0  503 -0.23296652388E+02 -0.34194939259E+02  0.10645349450E+03  0.11421197125E+03  0.00000000000E+00 0.  1.
<mgrwt>
<rscale>  0 0.31479470E+04</rscale>
<asrwt>0</asrwt>
<pdfrwt beam="1">  1        1 0.26024835E+00 0.31479470E+04</pdfrwt>
<pdfrwt beam="2">  1       -2 0.22530982E+00 0.31479470E+04</pdfrwt>
<totfact> 0.32627431E-01</totfact>
</mgrwt>
</event>
<event>
12    4  0.4320235E-008  0.1435097E+04  0.7818608E-02  0.8928798E-01
         -2   -1    0    0    0  501 -0.00000000000E+00  0.00000000000E+00  0.87975394174E+03  0.87975394174E+03  0.00000000000E+00 0.  1.
          1   -1    0    0  501    0  0.00000000000E+00 -0.00000000000E+00 -0.58524950472E+03  0.58524950472E+03  0.00000000000E+00 0. -1.
        -24    2    1    2    0    0 -0.17415722696E+03 -0.39768730392E+03  0.13621869682E+03  0.46262820160E+03  0.83566668917E+02 0.  0.
        254    2    1    2    0    0  0.17415722696E+03  0.39768730392E+03  0.15828574020E+03  0.10023752449E+04  0.88950313353E+03 0.  0.
         23    2    4    4    0    0  0.13188099884E+03  0.17166150367E+03 -0.35787385613E+03  0.43035974751E+03  0.10136836624E+03 0.  0.
         23    2    4    4    0    0  0.42276228114E+02  0.22602580025E+03  0.51615959633E+03  0.57201549735E+03  0.88916019260E+02 0.  0.
          3    1    3    3  502    0 -0.12081903215E+02 -0.84379122221E+02  0.21629816317E+01  0.85267151598E+02  0.00000000000E+00 0. -1.
         -4    1    3    3    0  502 -0.16207532374E+03 -0.31330818170E+03  0.13405571519E+03  0.37736105000E+03  0.00000000000E+00 0.  1.
         11    1    5    5    0    0  0.44888754353E+02  0.36609931897E+01 -0.10744424828E+03  0.11650180096E+03  0.00000000000E+00 0. -1.
        -11    1    5    5    0    0  0.86992244488E+02  0.16800051048E+03 -0.25042960786E+03  0.31385794655E+03  0.00000000000E+00 0.  1.
          2    1    6    6  503    0  0.16365519414E+02  0.36992629923E+02  0.31876857207E+02  0.51501639971E+02  0.00000000000E+00 0. -1.
         -2    1    6    6    0  503  0.25910708700E+02  0.18903317033E+03  0.48428273913E+03  0.52051385738E+03  0.00000000000E+00 0.  1.
<mgrwt>
<rscale>  0 0.14350966E+04</rscale>
<asrwt>0</asrwt>
<pdfrwt beam="1">  1        1 0.90038385E-01 0.14350966E+04</pdfrwt>
<pdfrwt beam="2">  1       -2 0.13534676E+00 0.14350966E+04</pdfrwt>
<totfact> 0.11832563E+01</totfact>
</mgrwt>
</event>
<event>
12    4  0.4320235E-008  0.1984786E+04  0.7818608E-02  0.8613767E-01
          1   -1    0    0  501    0  0.00000000000E+00  0.00000000000E+00  0.12196758700E+04  0.12196758700E+04  0.00000000000E+00 0. -1.
         -2   -1    0    0    0  501 -0.00000000000E+00 -0.00000000000E+00 -0.80746374156E+03  0.80746374156E+03  0.00000000000E+00 0.  1.
        -24    2    1    2    0    0 -0.27032655874E+02 -0.77318804296E+03  0.29162361700E+02  0.77829110797E+03  0.79599567546E+02 0.  0.
        254    2    1    2    0    0  0.27032655874E+02  0.77318804296E+03  0.38304976676E+03  0.12488485036E+04  0.90241063096E+03 0.  0.
         23    2    4    4    0    0  0.33705339290E+03  0.10982225487E+03  0.35629574176E+03  0.51057515211E+03  0.89857737675E+02 0.  0.
         23    2    4    4    0    0 -0.31002073703E+03  0.66336578809E+03  0.26754024997E+02  0.73827335149E+03  0.90358936862E+02 0.  0.
          1    1    3    3  502    0 -0.15954785498E+02 -0.20318347035E+03 -0.26249453366E+02  0.20549236386E+03  0.00000000000E+00 0. -1.
         -2    1    3    3    0  502 -0.11077870376E+02 -0.57000457261E+03  0.55411815066E+02  0.57279874412E+03  0.00000000000E+00 0.  1.
         11    1    5    5    0    0  0.60279507048E+02  0.57200646300E+02  0.96427842222E+02  0.12729438975E+03  0.00000000000E+00 0.  1.
        -11    1    5    5    0    0  0.27677388585E+03  0.52621608570E+02  0.25986789954E+03  0.38328076236E+03  0.00000000000E+00 0. -1.
          4    1    6    6  503    0 -0.31460254700E+03  0.63195952850E+03  0.28215060824E+02  0.70650102470E+03  0.00000000000E+00 0. -1.
         -4    1    6    6    0  503  0.45818099736E+01  0.31406259593E+02 -0.14610358270E+01  0.31772326794E+02  0.00000000000E+00 0.  1.
<mgrwt>
<rscale>  0 0.19847862E+04</rscale>
<asrwt>0</asrwt>
<pdfrwt beam="1">  1        1 0.18764244E+00 0.19847862E+04</pdfrwt>
<pdfrwt beam="2">  1       -2 0.12422519E+00 0.19847862E+04</pdfrwt>
<totfact> 0.41025305E+00</totfact>
</mgrwt>
</event>
<event>
12    4  0.4320235E-008  0.1149903E+04  0.7818608E-02  0.9157873E-01
         -2   -1    0    0    0  501 -0.00000000000E+00  0.00000000000E+00  0.82155591372E+03  0.82155591372E+03  0.00000000000E+00 0.  1.
          1   -1    0    0  501    0  0.00000000000E+00 -0.00000000000E+00 -0.40236941224E+03  0.40236941224E+03  0.00000000000E+00 0. -1.
        -24    2    1    2    0    0 -0.14254831578E+03 -0.32512408661E+02  0.21961305378E+03  0.27589184332E+03  0.80680460913E+02 0.  0.
        254    2    1    2    0    0  0.14254831578E+03  0.32512408661E+02  0.19957344770E+03  0.94803348264E+03  0.91518350298E+03 0.  0.
         23    2    4    4    0    0 -0.28157918972E+03 -0.15743506739E+03 -0.14202890471E+03  0.36408254290E+03  0.91166044892E+02 0.  0.
         23    2    4    4    0    0  0.42412750550E+03  0.18994747605E+03  0.34160235241E+03  0.58395093974E+03  0.91336456447E+02 0.  0.
          1    1    3    3  502    0 -0.48828697100E+02  0.21175059969E+02  0.41089657819E+02  0.67238268901E+02  0.00000000000E+00 0. -1.
         -2    1    3    3    0  502 -0.93719618678E+02 -0.53687468631E+02  0.17852339596E+03  0.20865357442E+03  0.00000000000E+00 0.  1.
         11    1    5    5    0    0 -0.29445375945E+02 -0.20789144651E+02 -0.52440390681E+02  0.63633428908E+02  0.00000000000E+00 0.  1.
        -11    1    5    5    0    0 -0.25213381378E+03 -0.13664592274E+03 -0.89588514026E+02  0.30044911399E+03  0.00000000000E+00 0. -1.
          3    1    6    6  503    0  0.37181109244E+03  0.14860749272E+03  0.32376329078E+03  0.51492751316E+03  0.00000000000E+00 0. -1.
         -3    1    6    6    0  503  0.52316413061E+02  0.41339983329E+02  0.17839061626E+02  0.69023426580E+02  0.00000000000E+00 0.  1.
<mgrwt>
<rscale>  0 0.11499026E+04</rscale>
<asrwt>0</asrwt>
<pdfrwt beam="1">  1        1 0.61902987E-01 0.11499026E+04</pdfrwt>
<pdfrwt beam="2">  1       -2 0.12639322E+00 0.11499026E+04</pdfrwt>
<totfact> 0.24071402E+01</totfact>
</mgrwt>
</event>
<event>
12    4  0.4320235E-008  0.1903933E+04  0.7818608E-02  0.8652901E-01
         -2   -1    0    0    0  501 -0.00000000000E+00  0.00000000000E+00  0.77259957690E+03  0.77259957690E+03  0.00000000000E+00 0.  1.
          1   -1    0    0  501    0  0.00000000000E+00 -0.00000000000E+00 -0.11729756152E+04  0.11729756152E+04  0.00000000000E+00 0. -1.
        -24    2    1    2    0    0 -0.25621367127E+03 -0.53773537437E+03  0.28124976785E+03  0.66358431928E+03  0.80236766443E+02 0.  0.
        254    2    1    2    0    0  0.25621367127E+03  0.53773537437E+03 -0.68162580618E+03  0.12819908728E+04  0.90778966740E+03 0.  0.
         23    2    4    4    0    0  0.45989136704E+03  0.23496856007E+02 -0.11156679146E+03  0.48250618096E+03  0.91175073297E+02 0.  0.
         23    2    4    4    0    0 -0.20367769576E+03  0.51423851836E+03 -0.57005901472E+03  0.79948469189E+03  0.91008981923E+02 0.  0.
          1    1    3    3  502    0 -0.24018062113E+01  0.29088176263E+01  0.15561774408E+01  0.40806349122E+01  0.00000000000E+00 0. -1.
         -2    1    3    3    0  502 -0.25381186506E+03 -0.54064419199E+03  0.27969359041E+03  0.65950368437E+03  0.00000000000E+00 0.  1.
         11    1    5    5    0    0  0.15344270343E+03  0.47588953800E+02 -0.55977522858E+02  0.17012599691E+03  0.00000000000E+00 0. -1.
        -11    1    5    5    0    0  0.30644866361E+03 -0.24092097793E+02 -0.55589268598E+02  0.31238018405E+03  0.00000000000E+00 0.  1.
          3    1    6    6  503    0 -0.13994180357E+03  0.23104929825E+03 -0.28387658502E+03  0.39185890590E+03  0.00000000000E+00 0. -1.
         -3    1    6    6    0  503 -0.63735892198E+02  0.28318922011E+03 -0.28618242970E+03  0.40762578599E+03  0.00000000000E+00 0.  1.
<mgrwt>
<rscale>  0 0.19039333E+04</rscale>
<asrwt>0</asrwt>
<pdfrwt beam="1">  1        1 0.18045779E+00 0.19039333E+04</pdfrwt>
<pdfrwt beam="2">  1       -2 0.11886147E+00 0.19039333E+04</pdfrwt>
<totfact> 0.49894773E+00</totfact>
</mgrwt>
</event>
<event>
12    4  0.4320235E-008  0.2829960E+04  0.7818608E-02  0.8294027E-01
         -2   -1    0    0    0  501 -0.00000000000E+00  0.00000000000E+00  0.51442826326E+03  0.51442826326E+03  0.00000000000E+00 0.  1.
          1   -1    0    0  501    0  0.00000000000E+00 -0.00000000000E+00 -0.38920259345E+04  0.38920259345E+04  0.00000000000E+00 0. -1.
        -24    2    1    2    0    0 -0.87572688284E+03  0.59866090469E+03 -0.44660112107E+03  0.11537522417E+04  0.79995136441E+02 0.  0.
        254    2    1    2    0    0  0.87572688284E+03 -0.59866090469E+03 -0.29309965502E+04  0.32527019561E+04  0.92953579026E+03 0.  0.
         23    2    4    4    0    0  0.29394287608E+02 -0.40109994793E+03 -0.39890613019E+03  0.57400772540E+03  0.92809351554E+02 0.  0.
         23    2    4    4    0    0  0.84633259524E+03 -0.19756095676E+03 -0.25320904200E+04  0.26786942307E+04  0.92799206690E+02 0.  0.
          1    1    3    3  502    0 -0.86815536271E+03  0.60095334843E+03 -0.44240470223E+03  0.11447971791E+04  0.00000000000E+00 0. -1.
         -2    1    3    3    0  502 -0.75715201320E+01 -0.22924437347E+01 -0.41964188401E+01  0.89550626166E+01  0.00000000000E+00 0.  1.
         11    1    5    5    0    0  0.14492835865E+02 -0.52817402592E+02 -0.17974376770E+02  0.57643720631E+02  0.00000000000E+00 0.  1.
        -11    1    5    5    0    0  0.14901451743E+02 -0.34828254534E+03 -0.38093175342E+03  0.51636400477E+03  0.00000000000E+00 0. -1.
          3    1    6    6  503    0  0.75059595280E+03 -0.15733174201E+03 -0.22983487312E+04  0.24229227085E+04  0.00000000000E+00 0. -1.
         -3    1    6    6    0  503  0.95736642431E+02 -0.40229214754E+02 -0.23374168884E+03  0.25577152211E+03  0.00000000000E+00 0.  1.
<mgrwt>
<rscale>  0 0.28299598E+04</rscale>
<asrwt>0</asrwt>
<pdfrwt beam="1">  1        1 0.59877321E+00 0.28299598E+04</pdfrwt>
<pdfrwt beam="2">  1       -2 0.79142811E-01 0.28299598E+04</pdfrwt>
<totfact> 0.12814447E-01</totfact>
</mgrwt>
</event>
<event>
12    4  0.4320235E-008  0.2106985E+04  0.7818608E-02  0.8558172E-01
         -2   -1    0    0    0  501 -0.00000000000E+00  0.00000000000E+00  0.37184056849E+03  0.37184056849E+03  0.00000000000E+00 0.  1.
          1   -1    0    0  501    0  0.00000000000E+00 -0.00000000000E+00 -0.29847386763E+04  0.29847386763E+04  0.00000000000E+00 0. -1.
        -24    2    1    2    0    0 -0.56484280702E+03 -0.30282514843E+03 -0.19777808723E+04  0.20805039419E+04  0.78287970839E+02 0.  0.
        254    2    1    2    0    0  0.56484280702E+03  0.30282514843E+03 -0.63511723551E+03  0.12760753029E+04  0.90235459136E+03 0.  0.
         23    2    4    4    0    0 -0.21487667334E+03  0.12890975109E+03 -0.30150895955E+02  0.26951046693E+03  0.94536271279E+02 0.  0.
         23    2    4    4    0    0  0.77971948035E+03  0.17391539734E+03 -0.60496633955E+03  0.10065648359E+04  0.94760030856E+02 0.  0.
          1    1    3    3  502    0 -0.47968038481E+03 -0.25023308464E+03 -0.15694878286E+04  0.16601210535E+04  0.00000000000E+00 0. -1.
         -2    1    3    3    0  502 -0.85162422207E+02 -0.52592063794E+02 -0.40829304376E+03  0.42038288846E+03  0.00000000000E+00 0.  1.
         11    1    5    5    0    0 -0.21542247168E+03  0.10001770078E+03 -0.18087763375E+02  0.23819645035E+03  0.00000000000E+00 0. -1.
        -11    1    5    5    0    0  0.54579834367E+00  0.28892050308E+02 -0.12063132579E+02  0.31314016581E+02  0.00000000000E+00 0.  1.
          2    1    6    6  503    0  0.56079815037E+03  0.16176507774E+03 -0.46715331230E+03  0.74759261835E+03  0.00000000000E+00 0. -1.
         -2    1    6    6    0  503  0.21892132999E+03  0.12150319604E+02 -0.13781302725E+03  0.25897221757E+03  0.00000000000E+00 0.  1.
<mgrwt>
<rscale>  0 0.21069855E+04</rscale>
<asrwt>0</asrwt>
<pdfrwt beam="1">  1        1 0.45919057E+00 0.21069855E+04</pdfrwt>
<pdfrwt beam="2">  1       -2 0.57206241E-01 0.21069855E+04</pdfrwt>
<totfact> 0.14202087E+00</totfact>
</mgrwt>
</event>
<event>
12    4  0.4320235E-008  0.1609522E+04  0.7818608E-02  0.8814720E-01
         -2   -1    0    0    0  501 -0.00000000000E+00  0.00000000000E+00  0.99804831604E+03  0.99804831604E+03  0.00000000000E+00 0.  1.
          1   -1    0    0  501    0  0.00000000000E+00 -0.00000000000E+00 -0.64890637160E+03  0.64890637160E+03  0.00000000000E+00 0. -1.
        -24    2    1    2    0    0  0.93680975739E+02  0.23988468052E+03  0.61595911612E+03  0.67249658756E+03  0.80778972426E+02 0.  0.
        254    2    1    2    0    0 -0.93680975739E+02 -0.23988468052E+03 -0.26681717167E+03  0.97445810008E+03  0.90114172056E+03 0.  0.
         23    2    4    4    0    0  0.21644852091E+03  0.21103086572E+03 -0.27643990512E+03  0.41942675461E+03  0.90087695325E+02 0.  0.
         23    2    4    4    0    0 -0.31012949665E+03 -0.45091554624E+03  0.96227334500E+01  0.55503134546E+03  0.91989471753E+02 0.  0.
          1    1    3    3  502    0  0.24892316056E+02  0.32177394674E+02  0.18207943497E+03  0.18656884189E+03  0.00000000000E+00 0. -1.
         -2    1    3    3    0  502  0.68788659683E+02  0.20770728585E+03  0.43387968115E+03  0.48592774567E+03  0.00000000000E+00 0.  1.
         11    1    5    5    0    0  0.69913775106E+02  0.49777310809E+02 -0.13394253141E+03  0.15907959751E+03  0.00000000000E+00 0.  1.
        -11    1    5    5    0    0  0.14653474581E+03  0.16125355491E+03 -0.14249737371E+03  0.26034715711E+03  0.00000000000E+00 0. -1.
          4    1    6    6  503    0 -0.15548708095E+03 -0.28112190264E+03 -0.27328212435E+02  0.32241679187E+03  0.00000000000E+00 0. -1.
         -4    1    6    6    0  503 -0.15464241570E+03 -0.16979364360E+03  0.36950945885E+02  0.23261455359E+03  0.00000000000E+00 0.  1.
<mgrwt>
<rscale>  0 0.16095216E+04</rscale>
<asrwt>0</asrwt>
<pdfrwt beam="1">  1        1 0.99831750E-01 0.16095216E+04</pdfrwt>
<pdfrwt beam="2">  1       -2 0.15354589E+00 0.16095216E+04</pdfrwt>
<totfact> 0.72102397E+00</totfact>
</mgrwt>
</event>
<event>
12    4  0.4320235E-008  0.2032371E+04  0.7818608E-02  0.8591634E-01
         -2   -1    0    0    0  501 -0.00000000000E+00  0.00000000000E+00  0.53657120316E+03  0.53657120316E+03  0.00000000000E+00 0.  1.
          1   -1    0    0  501    0  0.00000000000E+00 -0.00000000000E+00 -0.19245024957E+04  0.19245024957E+04  0.00000000000E+00 0. -1.
        -24    2    1    2    0    0 -0.78192971258E+03 -0.12219205926E+03 -0.40454717262E+03  0.89246311979E+03  0.80542104158E+02 0.  0.
        254    2    1    2    0    0  0.78192971258E+03  0.12219205926E+03 -0.98338411989E+03  0.15686105790E+04  0.93120880938E+03 0.  0.
         23    2    4    4    0    0  0.50122985538E+03  0.38232128348E+03 -0.16044474509E+03  0.65684523900E+03  0.91116519076E+02 0.  0.
         23    2    4    4    0    0  0.28069985720E+03 -0.26012922422E+03 -0.82293937481E+03  0.91176534004E+03  0.87333828324E+02 0.  0.
          1    1    3    3  502    0 -0.87125052591E+02 -0.32070414180E+02 -0.68745511514E+02  0.11552156339E+03  0.00000000000E+00 0. -1.
         -2    1    3    3    0  502 -0.69480465999E+03 -0.90121645083E+02 -0.33580166110E+03  0.77694155640E+03  0.00000000000E+00 0.  1.
         11    1    5    5    0    0  0.48193345319E+03  0.36293317998E+03 -0.17170172744E+03  0.62726535823E+03  0.00000000000E+00 0.  1.
        -11    1    5    5    0    0  0.19296402189E+02  0.19388103496E+02  0.11256982349E+02  0.29579880767E+02  0.00000000000E+00 0. -1.
          4    1    6    6  503    0  0.25352248490E+03 -0.18870092692E+03 -0.66962488776E+03  0.74045876352E+03  0.00000000000E+00 0. -1.
         -4    1    6    6    0  503  0.27177372301E+02 -0.71428297300E+02 -0.15331448705E+03  0.17130657652E+03  0.00000000000E+00 0.  1.
<mgrwt>
<rscale>  0 0.20323707E+04</rscale>
<asrwt>0</asrwt>
<pdfrwt beam="1">  1        1 0.29607730E+00 0.20323707E+04</pdfrwt>
<pdfrwt beam="2">  1       -2 0.82549417E-01 0.20323707E+04</pdfrwt>
<totfact> 0.35078000E+00</totfact>
</mgrwt>
</event>
<event>
12    4  0.4320235E-008  0.3931487E+04  0.7818608E-02  0.8018512E-01
          1   -1    0    0  501    0  0.00000000000E+00  0.00000000000E+00  0.12625643431E+04  0.12625643431E+04  0.00000000000E+00 0. -1.
         -2   -1    0    0    0  501 -0.00000000000E+00 -0.00000000000E+00 -0.30605556374E+04  0.30605556374E+04  0.00000000000E+00 0.  1.
        -24    2    1    2    0    0 -0.25538348656E+03 -0.13688029987E+04 -0.22157715781E+04  0.26181730193E+04  0.79648591853E+02 0.  0.
        254    2    1    2    0    0  0.25538348656E+03  0.13688029987E+04  0.41778028382E+03  0.17049469613E+04  0.89076450365E+03 0.  0.
         23    2    4    4    0    0 -0.20005420305E+03  0.13905975205E+02  0.30916628974E+02  0.22147642312E+03  0.88774476884E+02 0.  0.
         23    2    4    4    0    0  0.45543768961E+03  0.13548970235E+04  0.38686365484E+03  0.14834705382E+04  0.88611042992E+02 0.  0.
          1    1    3    3  502    0 -0.96746631339E+02 -0.34520626014E+03 -0.54344374469E+03  0.65104406637E+03  0.00000000000E+00 0. -1.
         -2    1    3    3    0  502 -0.15863685522E+03 -0.10235967385E+04 -0.16723278334E+04  0.19671289529E+04  0.00000000000E+00 0.  1.
         11    1    5    5    0    0 -0.27054323958E+02 -0.14216553279E+02 -0.22832581354E+02  0.38149359145E+02  0.00000000000E+00 0.  1.
        -11    1    5    5    0    0 -0.17299987909E+03  0.28122528484E+02  0.53749210328E+02  0.18332706397E+03  0.00000000000E+00 0. -1.
          1    1    6    6  503    0  0.10446756273E+03  0.34450542606E+03  0.59480301038E+02  0.36487719367E+03  0.00000000000E+00 0. -1.
         -1    1    6    6    0  503  0.35097012688E+03  0.10103915974E+04  0.32738335380E+03  0.11185933445E+04  0.00000000000E+00 0.  1.
<mgrwt>
<rscale>  0 0.39314875E+04</rscale>
<asrwt>0</asrwt>
<pdfrwt beam="1">  1        1 0.19424067E+00 0.39314875E+04</pdfrwt>
<pdfrwt beam="2">  1       -2 0.47085471E+00 0.39314875E+04</pdfrwt>
<totfact> 0.16830473E-02</totfact>
</mgrwt>
</event>
<event>
12    4  0.4320235E-008  0.1834017E+04  0.7818608E-02  0.8688416E-01
          1   -1    0    0  501    0  0.00000000000E+00  0.00000000000E+00  0.43982680418E+03  0.43982680418E+03  0.00000000000E+00 0. -1.
         -2   -1    0    0    0  501 -0.00000000000E+00 -0.00000000000E+00 -0.19118991741E+04  0.19118991741E+04  0.00000000000E+00 0.  1.
        -24    2    1    2    0    0 -0.17091070346E+03  0.52412628664E+02 -0.14206629921E+04  0.14335846587E+04  0.70171819458E+02 0.  0.
        254    2    1    2    0    0  0.17091070346E+03 -0.52412628664E+02 -0.51409377797E+02  0.91814131959E+03  0.89910122145E+03 0.  0.
         23    2    4    4    0    0  0.43440198462E+02  0.41026101984E+03  0.26308477802E+02  0.42333508097E+03  0.91210194257E+02 0.  0.
         23    2    4    4    0    0  0.12747050500E+03 -0.46267364850E+03 -0.77717855599E+02  0.49480623861E+03  0.92073416516E+02 0.  0.
          3    1    3    3  502    0 -0.44652378021E+02  0.17400239610E+02 -0.18935215916E+03  0.19532240880E+03  0.00000000000E+00 0. -1.
         -4    1    3    3    0  502 -0.12625832544E+03  0.35012389054E+02 -0.12313108330E+04  0.12382622499E+04  0.00000000000E+00 0.  1.
         11    1    5    5    0    0  0.13888718313E+02  0.75970409376E+02 -0.30373579583E+02  0.82987673385E+02  0.00000000000E+00 0.  1.
        -11    1    5    5    0    0  0.29551480149E+02  0.33429061046E+03  0.56682057385E+02  0.34034740759E+03  0.00000000000E+00 0. -1.
          1    1    6    6  503    0  0.10219720172E+03 -0.42420187857E+03 -0.93314244209E+02  0.44620516581E+03  0.00000000000E+00 0. -1.
         -1    1    6    6    0  503  0.25273303273E+02 -0.38471769934E+02  0.15596388610E+02  0.48601072805E+02  0.00000000000E+00 0.  1.
<mgrwt>
<rscale>  0 0.18340169E+04</rscale>
<asrwt>0</asrwt>
<pdfrwt beam="1">  1        1 0.67665662E-01 0.18340169E+04</pdfrwt>
<pdfrwt beam="2">  1       -2 0.29413834E+00 0.18340169E+04</pdfrwt>
<totfact> 0.15027041E+00</totfact>
</mgrwt>
</event>
<event>
12    4  0.4320235E-008  0.1723449E+04  0.7818608E-02  0.8748103E-01
         -2   -1    0    0    0  501 -0.00000000000E+00  0.00000000000E+00  0.41680620259E+03  0.41680620259E+03  0.00000000000E+00 0.  1.
          1   -1    0    0  501    0  0.00000000000E+00 -0.00000000000E+00 -0.17815686478E+04  0.17815686478E+04  0.00000000000E+00 0. -1.
        -24    2    1    2    0    0 -0.39343957874E+03  0.18957358139E+03 -0.10462541957E+04  0.11366819770E+04  0.81640860213E+02 0.  0.
        254    2    1    2    0    0  0.39343957874E+03 -0.18957358139E+03 -0.31850824955E+03  0.10616928734E+04  0.91378958599E+03 0.  0.
         23    2    4    4    0    0  0.11485006547E+03 -0.31348276734E+03  0.23833292359E+03  0.42001857368E+03  0.90283092627E+02 0.  0.
         23    2    4    4    0    0  0.27858951327E+03  0.12390918595E+03 -0.55684117314E+03  0.64167429970E+03  0.93317798535E+02 0.  0.
          1    1    3    3  502    0 -0.29449750207E+03  0.10163619724E+03 -0.71240329564E+03  0.77754559413E+03  0.00000000000E+00 0. -1.
         -2    1    3    3    0  502 -0.98942076669E+02  0.87937384146E+02 -0.33385090005E+03  0.35913638291E+03  0.00000000000E+00 0.  1.
         11    1    5    5    0    0  0.50227140604E+02 -0.20368611637E+03  0.10148220607E+03  0.23304385382E+03  0.00000000000E+00 0. -1.
        -11    1    5    5    0    0  0.64622924867E+02 -0.10979665097E+03  0.13685071751E+03  0.18697471986E+03  0.00000000000E+00 0.  1.
          2    1    6    6  503    0  0.98151976614E+02  0.91566465550E+02 -0.20694729159E+03  0.24666862310E+03  0.00000000000E+00 0. -1.
         -2    1    6    6    0  503  0.18043753666E+03  0.32342720397E+02 -0.34989388155E+03  0.39500567660E+03  0.00000000000E+00 0.  1.
<mgrwt>
<rscale>  0 0.17234487E+04</rscale>
<asrwt>0</asrwt>
<pdfrwt beam="1">  1        1 0.27408748E+00 0.17234487E+04</pdfrwt>
<pdfrwt beam="2">  1       -2 0.64124031E-01 0.17234487E+04</pdfrwt>
<totfact> 0.78585764E+00</totfact>
</mgrwt>
</event>
<event>
12    4  0.4320235E-008  0.2167496E+04  0.7818608E-02  0.8532080E-01
         -2   -1    0    0    0  501 -0.00000000000E+00  0.00000000000E+00  0.50423120092E+03  0.50423120092E+03  0.00000000000E+00 0.  1.
          1   -1    0    0  501    0  0.00000000000E+00 -0.00000000000E+00 -0.23293078250E+04  0.23293078250E+04  0.00000000000E+00 0. -1.
        -24    2    1    2    0    0  0.40629695345E+03 -0.76753587547E+03 -0.10528533372E+04  0.13671138371E+04  0.79445323095E+02 0.  0.
        254    2    1    2    0    0 -0.40629695345E+03  0.76753587547E+03 -0.77222328684E+03  0.14664251888E+04  0.89436317854E+03 0.  0.
         23    2    4    4    0    0 -0.10250134808E+03  0.86526047036E+03 -0.38674708575E+03  0.95767055670E+03  0.91528022560E+02 0.  0.
         23    2    4    4    0    0 -0.30379560537E+03 -0.97724594888E+02 -0.38547620109E+03  0.50875463211E+03  0.91637916808E+02 0.  0.
          1    1    3    3  502    0  0.35476612110E+03 -0.61297881117E+03 -0.83094918698E+03  0.10918235091E+04  0.00000000000E+00 0. -1.
         -2    1    3    3    0  502  0.51530832354E+02 -0.15455706430E+03 -0.22190415024E+03  0.27529032802E+03  0.00000000000E+00 0.  1.
         11    1    5    5    0    0 -0.72438422955E+02  0.75436292886E+03 -0.30622540905E+03  0.81736451764E+03  0.00000000000E+00 0.  1.
        -11    1    5    5    0    0 -0.30062925124E+02  0.11089754151E+03 -0.80521676695E+02  0.14030603906E+03  0.00000000000E+00 0. -1.
          3    1    6    6  503    0 -0.66867384046E+02 -0.40427342235E+02 -0.15356433681E+03  0.17230096514E+03  0.00000000000E+00 0. -1.
         -3    1    6    6    0  503 -0.23692822132E+03 -0.57297252653E+02 -0.23191186428E+03  0.33645366697E+03  0.00000000000E+00 0.  1.
<mgrwt>
<rscale>  0 0.21674960E+04</rscale>
<asrwt>0</asrwt>
<pdfrwt beam="1">  1        1 0.35835504E+00 0.21674960E+04</pdfrwt>
<pdfrwt beam="2">  1       -2 0.77574032E-01 0.21674960E+04</pdfrwt>
<totfact> 0.21143099E+00</totfact>
</mgrwt>
</event>
<event>
12    4  0.4320235E-008  0.1250481E+04  0.7818608E-02  0.9069783E-01
         -2   -1    0    0    0  501 -0.00000000000E+00  0.00000000000E+00  0.85104181893E+03  0.85104181893E+03  0.00000000000E+00 0.  1.
          1   -1    0    0  501    0  0.00000000000E+00 -0.00000000000E+00 -0.45934980722E+03  0.45934980722E+03  0.00000000000E+00 0. -1.
        -24    2    1    2    0    0  0.81928421400E+02  0.95636329443E+02  0.37993198050E+03  0.40778295076E+03  0.77974684201E+02 0.  0.
        254    2    1    2    0    0 -0.81928421400E+02 -0.95636329443E+02  0.11760031203E+02  0.90260867539E+03  0.89370327784E+03 0.  0.
         23    2    4    4    0    0  0.30652520238E+03  0.15527416507E+03  0.18432723380E+03  0.40043408802E+03  0.91121697188E+02 0.  0.
         23    2    4    4    0    0 -0.38845362378E+03 -0.25091049451E+03 -0.17256720260E+03  0.50217458737E+03  0.92453137884E+02 0.  0.
          3    1    3    3  502    0 -0.14623892025E+02  0.53533377204E+01  0.32040145425E+02  0.35624252435E+02  0.00000000000E+00 0. -1.
         -4    1    3    3    0  502  0.96552313425E+02  0.90282991722E+02  0.34789183508E+03  0.37215869832E+03  0.00000000000E+00 0.  1.
         11    1    5    5    0    0  0.50174010778E+02  0.67548716110E+02  0.35742140460E+02  0.91420790908E+02  0.00000000000E+00 0. -1.
        -11    1    5    5    0    0  0.25635119160E+03  0.87725448961E+02  0.14858509334E+03  0.30901329712E+03  0.00000000000E+00 0.  1.
          3    1    6    6  503    0  0.17997565884E+01  0.79163152184E+00 -0.99494632674E+01  0.10141874755E+02  0.00000000000E+00 0. -1.
         -3    1    6    6    0  503 -0.39025338037E+03 -0.25170212604E+03 -0.16261773933E+03  0.49203271262E+03  0.00000000000E+00 0.  1.
<mgrwt>
<rscale>  0 0.12504813E+04</rscale>
<asrwt>0</asrwt>
<pdfrwt beam="1">  1        1 0.70669201E-01 0.12504813E+04</pdfrwt>
<pdfrwt beam="2">  1       -2 0.13092951E+00 0.12504813E+04</pdfrwt>
<totfact> 0.18297020E+01</totfact>
</mgrwt>
</event>
<event>
12    4  0.4320235E-008  0.2383958E+04  0.7818608E-02  0.8445534E-01
          3   -1    0    0  501    0  0.00000000000E+00  0.00000000000E+00  0.70637556432E+03  0.70637556432E+03  0.00000000000E+00 0. -1.
         -4   -1    0    0    0  501 -0.00000000000E+00 -0.00000000000E+00 -0.20114141851E+04  0.20114141851E+04  0.00000000000E+00 0.  1.
        -24    2    1    2    0    0  0.55932521493E+03 -0.71803641524E+03 -0.10454873436E+04  0.13885640582E+04  0.81519129041E+02 0.  0.
        254    2    1    2    0    0 -0.55932521493E+03  0.71803641524E+03 -0.25955127721E+03  0.13292256912E+04  0.93330224639E+03 0.  0.
         23    2    4    4    0    0 -0.18626374470E+03 -0.46484125308E+02 -0.40883216847E+03  0.46071907897E+03  0.90903087192E+02 0.  0.
         23    2    4    4    0    0 -0.37306147023E+03  0.76452054055E+03  0.14928089126E+03  0.86850661228E+03  0.91391649396E+02 0.  0.
          3    1    3    3  502    0  0.72582543045E+02 -0.13836597546E+03 -0.15969818388E+03  0.22342085546E+03  0.00000000000E+00 0. -1.
         -4    1    3    3    0  502  0.48674267188E+03 -0.57967043978E+03 -0.88578915970E+03  0.11651432027E+04  0.00000000000E+00 0.  1.
         11    1    5    5    0    0 -0.19312420827E+03 -0.35059684396E+02 -0.35920715732E+03  0.40933595390E+03  0.00000000000E+00 0. -1.
        -11    1    5    5    0    0  0.68604635671E+01 -0.11424440912E+02 -0.49625011147E+02  0.51383125069E+02  0.00000000000E+00 0.  1.
          1    1    6    6  503    0 -0.93869829789E+02  0.26421630097E+03  0.19596600535E+02  0.28107974917E+03  0.00000000000E+00 0. -1.
         -1    1    6    6    0  503 -0.27919164044E+03  0.50030423958E+03  0.12968429072E+03  0.58742686310E+03  0.00000000000E+00 0.  1.
<mgrwt>
<rscale>  0 0.23839579E+04</rscale>
<asrwt>0</asrwt>
<pdfrwt beam="1">  1        3 0.10867317E+00 0.23839579E+04</pdfrwt>
<pdfrwt beam="2">  1       -4 0.30944833E+00 0.23839579E+04</pdfrwt>
<totfact> 0.39738211E-02</totfact>
</mgrwt>
</event>
<event>
12    4  0.4320235E-008  0.1534969E+04  0.7818608E-02  0.8861526E-01
          1   -1    0    0  501    0  0.00000000000E+00  0.00000000000E+00  0.64034317513E+03  0.64034317513E+03  0.00000000000E+00 0. -1.
         -4   -1    0    0    0  501 -0.00000000000E+00 -0.00000000000E+00 -0.91987048180E+03  0.91987048180E+03  0.00000000000E+00 0.  1.
        -24    2    1    2    0    0 -0.43279617597E+03 -0.17240496997E+03 -0.28396528283E+03  0.55158714191E+03  0.81093092599E+02 0.  0.
        254    2    1    2    0    0  0.43279617597E+03  0.17240496997E+03  0.44379761694E+01  0.10086265150E+04  0.89457908961E+03 0.  0.
         23    2    4    4    0    0  0.13083457587E+03 -0.24259939445E+02  0.42066411048E+03  0.45054566898E+03  0.91251712789E+02 0.  0.
         23    2    4    4    0    0  0.30196160009E+03  0.19666490941E+03 -0.41622613431E+03  0.55808084604E+03  0.91390050413E+02 0.  0.
          3    1    3    3  502    0 -0.19047221628E+02 -0.12810597890E+01 -0.33486870808E+02  0.38546183759E+02  0.00000000000E+00 0. -1.
         -4    1    3    3    0  502 -0.41374895434E+03 -0.17112391018E+03 -0.25047841202E+03  0.51304095815E+03  0.00000000000E+00 0.  1.
         11    1    5    5    0    0  0.62124681167E+01 -0.15421826770E+02  0.63383901471E+01  0.17793332759E+02  0.00000000000E+00 0. -1.
        -11    1    5    5    0    0  0.12462210776E+03 -0.88381126752E+01  0.41432572033E+03  0.43275233622E+03  0.00000000000E+00 0.  1.
          1    1    6    6  503    0 -0.29350335853E+00 -0.39817605988E+01 -0.21872178733E+02  0.22233595395E+02  0.00000000000E+00 0. -1.
         -1    1    6    6    0  503  0.30225510345E+03  0.20064667001E+03 -0.39435395557E+03  0.53584725065E+03  0.00000000000E+00 0.  1.
<mgrwt>
<rscale>  0 0.15349694E+04</rscale>
<asrwt>0</asrwt>
<pdfrwt beam="1">  1        1 0.98514335E-01 0.15349694E+04</pdfrwt>
<pdfrwt beam="2">  1       -4 0.14151853E+00 0.15349694E+04</pdfrwt>
<totfact> 0.50230628E+00</totfact>
</mgrwt>
</event>
<event>
12    4  0.4320235E-008  0.2789736E+04  0.7818608E-02  0.8306462E-01
          1   -1    0    0  501    0  0.00000000000E+00  0.00000000000E+00  0.12416894762E+04  0.12416894762E+04  0.00000000000E+00 0. -1.
         -4   -1    0    0    0  501 -0.00000000000E+00 -0.00000000000E+00 -0.15669431134E+04  0.15669431134E+04  0.00000000000E+00 0.  1.
        -24    2    1    2    0    0 -0.13980709581E+03 -0.22461338514E+03  0.10836458229E+04  0.11179920396E+04  0.74971556662E+02 0.  0.
        254    2    1    2    0    0  0.13980709581E+03  0.22461338514E+03 -0.14088994601E+04  0.16906405501E+04  0.89625363820E+03 0.  0.
         23    2    4    4    0    0  0.50313900495E+03  0.22835742940E+03 -0.82983404148E+03  0.10012164395E+04  0.92270518159E+02 0.  0.
         23    2    4    4    0    0 -0.36333190914E+03 -0.37440442618E+01 -0.57906541862E+03  0.68942411052E+03  0.89245453980E+02 0.  0.
          3    1    3    3  502    0 -0.19760313289E+02 -0.64788717401E+02  0.40109607135E+03  0.40677525286E+03  0.00000000000E+00 0. -1.
         -4    1    3    3    0  502 -0.12004678252E+03 -0.15982466774E+03  0.68254975153E+03  0.71121678673E+03  0.00000000000E+00 0.  1.
         11    1    5    5    0    0  0.31804292937E+03  0.13324579757E+03 -0.59276458044E+03  0.68576642913E+03  0.00000000000E+00 0. -1.
        -11    1    5    5    0    0  0.18509607559E+03  0.95111631838E+02 -0.23706946104E+03  0.31545001041E+03  0.00000000000E+00 0.  1.
          2    1    6    6  503    0 -0.20195694600E+03  0.13531147723E+02 -0.24327258939E+03  0.31646682725E+03  0.00000000000E+00 0. -1.
         -2    1    6    6    0  503 -0.16137496314E+03 -0.17275191985E+02 -0.33579282923E+03  0.37295728327E+03  0.00000000000E+00 0.  1.
<mgrwt>
<rscale>  0 0.27897360E+04</rscale>
<asrwt>0</asrwt>
<pdfrwt beam="1">  1        1 0.19102915E+00 0.27897360E+04</pdfrwt>
<pdfrwt beam="2">  1       -4 0.24106817E+00 0.27897360E+04</pdfrwt>
<totfact> 0.29930630E-01</totfact>
</mgrwt>
</event>
<event>
12    4  0.4320235E-008  0.1333989E+04  0.7818608E-02  0.9003038E-01
          1   -1    0    0  501    0  0.00000000000E+00  0.00000000000E+00  0.20767596945E+04  0.20767596945E+04  0.00000000000E+00 0. -1.
         -2   -1    0    0    0  501 -0.00000000000E+00 -0.00000000000E+00 -0.21421901206E+03  0.21421901206E+03  0.00000000000E+00 0.  1.
        -24    2    1    2    0    0  0.70321437261E+02 -0.33031983432E+03  0.33731447960E+03  0.48413718494E+03  0.80941078674E+02 0.  0.
        254    2    1    2    0    0 -0.70321437261E+02  0.33031983432E+03  0.15252262028E+04  0.18068415216E+04  0.90791245001E+03 0.  0.
         23    2    4    4    0    0  0.94673690718E+02  0.53209375644E+03  0.13988960072E+04  0.15025105291E+04  0.92417410995E+02 0.  0.
         23    2    4    4    0    0 -0.16499512798E+03 -0.20177392213E+03  0.12633019563E+03  0.30433099246E+03  0.93391256203E+02 0.  0.
          1    1    3    3  502    0  0.10793102292E+02 -0.13919371216E+03  0.90630617311E+02  0.16644905934E+03  0.00000000000E+00 0. -1.
         -2    1    3    3    0  502  0.59528334969E+02 -0.19112612216E+03  0.24668386229E+03  0.31768812560E+03  0.00000000000E+00 0.  1.
         11    1    5    5    0    0  0.10364345085E+03  0.35859067289E+03  0.10014029205E+04  0.10687081195E+04  0.00000000000E+00 0. -1.
        -11    1    5    5    0    0 -0.89697601279E+01  0.17350308356E+03  0.39749308671E+03  0.43380240961E+03  0.00000000000E+00 0.  1.
          4    1    6    6  503    0 -0.15183317439E+03 -0.20864985329E+03  0.10557020841E+03  0.27880664093E+03  0.00000000000E+00 0. -1.
         -4    1    6    6    0  503 -0.13161953590E+02  0.68759311611E+01  0.20759987219E+02  0.25524351529E+02  0.00000000000E+00 0.  1.
<mgrwt>
<rscale>  0 0.13339886E+04</rscale>
<asrwt>0</asrwt>
<pdfrwt beam="1">  1        1 0.31950148E+00 0.13339886E+04</pdfrwt>
<pdfrwt beam="2">  1       -2 0.32956773E-01 0.13339886E+04</pdfrwt>
<totfact> 0.19564922E+01</totfact>
</mgrwt>
</event>
<event>
12    4  0.4320235E-008  0.1538361E+04  0.7818608E-02  0.8859337E-01
         -2   -1    0    0    0  501 -0.00000000000E+00  0.00000000000E+00  0.12888310096E+04  0.12888310096E+04  0.00000000000E+00 0.  1.
          1   -1    0    0  501    0  0.00000000000E+00 -0.00000000000E+00 -0.45905031061E+03  0.45905031061E+03  0.00000000000E+00 0. -1.
        -24    2    1    2    0    0 -0.27986106682E+03 -0.17470925142E+03 -0.17372618528E+03  0.38156919725E+03  0.81047674749E+02 0.  0.
        254    2    1    2    0    0  0.27986106682E+03  0.17470925142E+03  0.10035068843E+04  0.13663121230E+04  0.86656633408E+03 0.  0.
         23    2    4    4    0    0  0.32060152439E+03  0.49116327423E+03  0.68214289213E+03  0.90427236597E+03  0.91448822759E+02 0.  0.
         23    2    4    4    0    0 -0.40740457563E+02 -0.31645402281E+03  0.32136399216E+03  0.46203975702E+03  0.91667814295E+02 0.  0.
          3    1    3    3  502    0 -0.25838205096E+03 -0.15302136257E+03 -0.18041181830E+03  0.35032163200E+03  0.00000000000E+00 0. -1.
         -4    1    3    3    0  502 -0.21479015862E+02 -0.21687888848E+02  0.66856330259E+01  0.31247565250E+02  0.00000000000E+00 0.  1.
         11    1    5    5    0    0  0.11569523659E+03  0.22427122058E+03  0.23638132741E+03  0.34577319170E+03  0.00000000000E+00 0. -1.
        -11    1    5    5    0    0  0.20490628779E+03  0.26689205365E+03  0.44576156472E+03  0.55849917427E+03  0.00000000000E+00 0.  1.
          3    1    6    6  503    0 -0.27281413268E+02 -0.25443286887E+03  0.30168622461E+03  0.39559441148E+03  0.00000000000E+00 0. -1.
         -3    1    6    6    0  503 -0.13459044295E+02 -0.62021153933E+02  0.19677767549E+02  0.66445345542E+02  0.00000000000E+00 0.  1.
<mgrwt>
<rscale>  0 0.15383605E+04</rscale>
<asrwt>0</asrwt>
<pdfrwt beam="1">  1        1 0.70623125E-01 0.15383605E+04</pdfrwt>
<pdfrwt beam="2">  1       -2 0.19828169E+00 0.15383605E+04</pdfrwt>
<totfact> 0.57314684E+00</totfact>
</mgrwt>
</event>
<event>
12    4  0.4320235E-008  0.2611798E+04  0.7818608E-02  0.8364205E-01
         -2   -1    0    0    0  501 -0.00000000000E+00  0.00000000000E+00  0.15239599420E+04  0.15239599420E+04  0.00000000000E+00 0.  1.
          1   -1    0    0  501    0  0.00000000000E+00 -0.00000000000E+00 -0.11190404656E+04  0.11190404656E+04  0.00000000000E+00 0. -1.
        -24    2    1    2    0    0  0.41586641602E+03  0.10466031967E+04  0.25649518535E+02  0.11292172850E+04  0.78426090651E+02 0.  0.
        254    2    1    2    0    0 -0.41586641602E+03 -0.10466031967E+04  0.37926995782E+03  0.15137831226E+04  0.93774757485E+03 0.  0.
         23    2    4    4    0    0 -0.42673935565E+03 -0.11912741178E+04  0.23322433245E+03  0.12899605495E+04  0.91455610511E+02 0.  0.
         23    2    4    4    0    0  0.10872939627E+02  0.14467092112E+03  0.14604562537E+03  0.22382257310E+03  0.87859679630E+02 0.  0.
          1    1    3    3  502    0  0.29014261677E+03  0.67142974831E+03  0.47145106660E+02  0.73295518694E+03  0.00000000000E+00 0. -1.
         -2    1    3    3    0  502  0.12572379926E+03  0.37517344834E+03 -0.21495588125E+02  0.39626209805E+03  0.00000000000E+00 0.  1.
         11    1    5    5    0    0 -0.26548559482E+03 -0.86376843836E+03  0.16486737654E+03  0.91856397056E+03  0.00000000000E+00 0.  1.
        -11    1    5    5    0    0 -0.16125376083E+03 -0.32750567941E+03  0.68356955913E+02  0.37139657894E+03  0.00000000000E+00 0. -1.
          2    1    6    6  503    0 -0.24228884196E+02  0.39219366902E+01  0.20549934561E+02  0.32011251573E+02  0.00000000000E+00 0. -1.
         -2    1    6    6    0  503  0.35101823824E+02  0.14074898443E+03  0.12549569081E+03  0.19181132152E+03  0.00000000000E+00 0.  1.
<mgrwt>
<rscale>  0 0.26117985E+04</rscale>
<asrwt>0</asrwt>
<pdfrwt beam="1">  1        1 0.17216007E+00 0.26117985E+04</pdfrwt>
<pdfrwt beam="2">  1       -2 0.23445538E+00 0.26117985E+04</pdfrwt>
<totfact> 0.75937010E-01</totfact>
</mgrwt>
</event>
<event>
12    4  0.4320235E-008  0.1312328E+04  0.7818608E-02  0.9019845E-01
         -2   -1    0    0    0  501 -0.00000000000E+00  0.00000000000E+00  0.45850148279E+03  0.45850148279E+03  0.00000000000E+00 0.  1.
          1   -1    0    0  501    0  0.00000000000E+00 -0.00000000000E+00 -0.93904028837E+03  0.93904028837E+03  0.00000000000E+00 0. -1.
        -24    2    1    2    0    0 -0.11060711756E+02 -0.15554876136E+03  0.19435506323E+03  0.26252748292E+03  0.82637958465E+02 0.  0.
        254    2    1    2    0    0  0.11060711756E+02  0.15554876136E+03 -0.67489386881E+03  0.11350142882E+04  0.89914289400E+03 0.  0.
         23    2    4    4    0    0 -0.24435839305E+03 -0.29039080445E+03 -0.29021853210E+03  0.48639375702E+03  0.91182492462E+02 0.  0.
         23    2    4    4    0    0  0.25541910480E+03  0.44593956581E+03 -0.38467533670E+03  0.64862053121E+03  0.92911050923E+02 0.  0.
          1    1    3    3  502    0 -0.10290685532E+02 -0.40615344262E+02  0.66420820652E+01  0.42421947767E+02  0.00000000000E+00 0. -1.
         -2    1    3    3    0  502 -0.77002622394E+00 -0.11493341710E+03  0.18771298117E+03  0.22010553515E+03  0.00000000000E+00 0.  1.
         11    1    5    5    0    0 -0.39363078253E+02 -0.98029278622E+02 -0.51154008444E+02  0.11737088215E+03  0.00000000000E+00 0. -1.
        -11    1    5    5    0    0 -0.20499531479E+03 -0.19236152583E+03 -0.23906452366E+03  0.36902287487E+03  0.00000000000E+00 0.  1.
          2    1    6    6  503    0  0.45317550346E+02  0.92997176978E+02 -0.12675113595E+03  0.16360930829E+03  0.00000000000E+00 0. -1.
         -2    1    6    6    0  503  0.21010155446E+03  0.35294238884E+03 -0.25792420075E+03  0.48501122292E+03  0.00000000000E+00 0.  1.
<mgrwt>
<rscale>  0 0.13123283E+04</rscale>
<asrwt>0</asrwt>
<pdfrwt beam="1">  1        1 0.14446774E+00 0.13123283E+04</pdfrwt>
<pdfrwt beam="2">  1       -2 0.70538690E-01 0.13123283E+04</pdfrwt>
<totfact> 0.26605935E+01</totfact>
</mgrwt>
</event>
<event>
12    4  0.4320235E-008  0.1388081E+04  0.7818608E-02  0.8962492E-01
          1   -1    0    0  501    0  0.00000000000E+00  0.00000000000E+00  0.47105469883E+03  0.47105469883E+03  0.00000000000E+00 0. -1.
         -2   -1    0    0    0  501 -0.00000000000E+00 -0.00000000000E+00 -0.10225817476E+04  0.10225817476E+04  0.00000000000E+00 0.  1.
        -24    2    1    2    0    0  0.14641731143E+03  0.12702493335E+03 -0.54477806571E+03  0.58365156702E+03  0.79326212703E+02 0.  0.
        254    2    1    2    0    0 -0.14641731143E+03 -0.12702493335E+03 -0.67489830425E+01  0.90998487940E+03  0.88907455772E+03 0.  0.
         23    2    4    4    0    0 -0.29899127721E+03 -0.32608623349E+03  0.26941067610E+03  0.52589120403E+03  0.90837385224E+02 0.  0.
         23    2    4    4    0    0  0.15257396578E+03  0.19906130013E+03 -0.27615965915E+03  0.38409367537E+03  0.91430727204E+02 0.  0.
          3    1    3    3  502    0 -0.62496748739E+00 -0.77861154900E+01 -0.88724969607E+01  0.11820972088E+02  0.00000000000E+00 0. -1.
         -4    1    3    3    0  502  0.14704227892E+03  0.13481104884E+03 -0.53590556875E+03  0.57183059493E+03  0.00000000000E+00 0.  1.
         11    1    5    5    0    0 -0.12131310975E+03 -0.13779772458E+03  0.16466909378E+03  0.24661912728E+03  0.00000000000E+00 0.  1.
        -11    1    5    5    0    0 -0.17767816746E+03 -0.18828850891E+03  0.10474158232E+03  0.27927207674E+03  0.00000000000E+00 0. -1.
          3    1    6    6  503    0  0.69673754316E+02  0.93218098058E+02 -0.63706768943E+02  0.13267478380E+03  0.00000000000E+00 0. -1.
         -3    1    6    6    0  503  0.82900211465E+02  0.10584320208E+03 -0.21245289020E+03  0.25141889158E+03  0.00000000000E+00 0.  1.
<mgrwt>
<rscale>  0 0.13880806E+04</rscale>
<asrwt>0</asrwt>
<pdfrwt beam="1">  1        1 0.72469955E-01 0.13880806E+04</pdfrwt>
<pdfrwt beam="2">  1       -2 0.15732027E+00 0.13880806E+04</pdfrwt>
<totfact> 0.10816440E+01</totfact>
</mgrwt>
</event>
<event>
12    4  0.4320235E-008  0.2800701E+04  0.7818608E-02  0.8303051E-01
          1   -1    0    0  501    0  0.00000000000E+00  0.00000000000E+00  0.28955448712E+04  0.28955448712E+04  0.00000000000E+00 0. -1.
         -2   -1    0    0    0  501 -0.00000000000E+00 -0.00000000000E+00 -0.67724091694E+03  0.67724091694E+03  0.00000000000E+00 0.  1.
        -24    2    1    2    0    0  0.12572757110E+03  0.11386561859E+04  0.16477739108E+04  0.20084939046E+04  0.80892347874E+02 0.  0.
        254    2    1    2    0    0 -0.12572757110E+03 -0.11386561859E+04  0.57053004347E+03  0.15642918835E+04  0.89953278684E+03 0.  0.
         23    2    4    4    0    0 -0.33775186501E+03 -0.37395768288E+03  0.56890013612E+03  0.76526246771E+03  0.89769753811E+02 0.  0.
         23    2    4    4    0    0  0.21202429392E+03 -0.76469850301E+03  0.16299073460E+01  0.79902941583E+03  0.93419746540E+02 0.  0.
          1    1    3    3  502    0  0.13182158808E+03  0.11083455247E+04  0.16174750782E+04  0.19652054249E+04  0.00000000000E+00 0. -1.
         -2    1    3    3    0  502 -0.60940169853E+01  0.30310661143E+02  0.30298832598E+02  0.43288479746E+02  0.00000000000E+00 0.  1.
         11    1    5    5    0    0 -0.23035045788E+03 -0.24538517074E+03  0.43956447281E+03  0.55361732381E+03  0.00000000000E+00 0.  1.
        -11    1    5    5    0    0 -0.10740140714E+03 -0.12857251214E+03  0.12933566331E+03  0.21164514390E+03  0.00000000000E+00 0. -1.
          1    1    6    6  503    0  0.15068597530E+02 -0.30605168933E+02 -0.18300796995E+02  0.38712506604E+02  0.00000000000E+00 0. -1.
         -1    1    6    6    0  503  0.19695569639E+03 -0.73409333408E+03  0.19930704341E+02  0.76031690922E+03  0.00000000000E+00 0.  1.
<mgrwt>
<rscale>  0 0.28007010E+04</rscale>
<asrwt>0</asrwt>
<pdfrwt beam="1">  1        1 0.44546844E+00 0.28007010E+04</pdfrwt>
<pdfrwt beam="2">  1       -2 0.10419091E+00 0.28007010E+04</pdfrwt>
<totfact> 0.40570733E-01</totfact>
</mgrwt>
</event>
<event>
12    4  0.4320235E-008  0.1762271E+04  0.7818608E-02  0.8726625E-01
          1   -1    0    0  501    0  0.00000000000E+00  0.00000000000E+00  0.12805337403E+04  0.12805337403E+04  0.00000000000E+00 0. -1.
         -2   -1    0    0    0  501 -0.00000000000E+00 -0.00000000000E+00 -0.60630962886E+03  0.60630962886E+03  0.00000000000E+00 0.  1.
        -24    2    1    2    0    0  0.25182975446E+03 -0.52987888524E+03 -0.44254597442E+02  0.59756877215E+03  0.10459497979E+03 0.  0.
        254    2    1    2    0    0 -0.25182975446E+03  0.52987888524E+03  0.71847870889E+03  0.12892745970E+04  0.89544819681E+03 0.  0.
         23    2    4    4    0    0 -0.17026278958E+03  0.74576895056E+03  0.69743181974E+03  0.10402901119E+04  0.10310978868E+03 0.  0.
         23    2    4    4    0    0 -0.81566964876E+02 -0.21589006532E+03  0.21046889149E+02  0.24898448517E+03  0.91041815924E+02 0.  0.
          3    1    3    3  502    0  0.57788299723E+02 -0.15270244730E+03  0.32614239418E+02  0.16649688768E+03  0.00000000000E+00 0. -1.
         -2    1    3    3    0  502  0.19404145474E+03 -0.37717643794E+03 -0.76868836859E+02  0.43107188446E+03  0.00000000000E+00 0.  1.
         11    1    5    5    0    0 -0.18297711854E+02  0.11128251027E+02  0.24086272154E+02  0.32230307728E+02  0.00000000000E+00 0.  1.
        -11    1    5    5    0    0 -0.15196507773E+03  0.73464069953E+03  0.67334554759E+03  0.10080598041E+04  0.00000000000E+00 0. -1.
          2    1    6    6  503    0 -0.23057934408E+02 -0.17234432953E+03  0.32541627531E+01  0.17391039600E+03  0.00000000000E+00 0. -1.
         -2    1    6    6    0  503 -0.58509030469E+02 -0.43545735792E+02  0.17792726396E+02  0.75074089170E+02  0.00000000000E+00 0.  1.
<mgrwt>
<rscale>  0 0.17622712E+04</rscale>
<asrwt>0</asrwt>
<pdfrwt beam="1">  1        1 0.19700519E+00 0.17622712E+04</pdfrwt>
<pdfrwt beam="2">  1       -2 0.93278405E-01 0.17622712E+04</pdfrwt>
<totfact> 0.75452813E+00</totfact>
</mgrwt>
</event>
<event>
12    4  0.4320235E-008  0.1837695E+04  0.7818608E-02  0.8686507E-01
          1   -1    0    0  501    0  0.00000000000E+00  0.00000000000E+00  0.13898107817E+04  0.13898107817E+04  0.00000000000E+00 0. -1.
         -2   -1    0    0    0  501 -0.00000000000E+00 -0.00000000000E+00 -0.60747865515E+03  0.60747865515E+03  0.00000000000E+00 0.  1.
        -24    2    1    2    0    0 -0.40801885022E+03 -0.47655572413E+03 -0.28037461952E+02  0.63325231654E+03  0.81471815889E+02 0.  0.
        254    2    1    2    0    0  0.40801885022E+03  0.47655572413E+03  0.81036958852E+03  0.13640371203E+04  0.90017423608E+03 0.  0.
         23    2    4    4    0    0  0.63822743888E+03  0.52869586959E+03  0.69772012201E+03  0.10871055203E+04  0.90174593315E+02 0.  0.
         23    2    4    4    0    0 -0.23020858866E+03 -0.52140145461E+02  0.11264946651E+03  0.27693160006E+03  0.91030872485E+02 0.  0.
          1    1    3    3  502    0 -0.14211781935E+02 -0.15697541779E+02  0.14343870284E+02  0.25576046966E+02  0.00000000000E+00 0. -1.
         -2    1    3    3    0  502 -0.39380706829E+03 -0.46085818236E+03 -0.42381332237E+02  0.60767626957E+03  0.00000000000E+00 0.  1.
         11    1    5    5    0    0  0.26143740432E+03  0.27105059368E+03  0.33623560822E+03  0.50484881395E+03  0.00000000000E+00 0.  1.
        -11    1    5    5    0    0  0.37679003456E+03  0.25764527592E+03  0.36148451379E+03  0.58225670633E+03  0.00000000000E+00 0. -1.
          4    1    6    6  503    0 -0.63211164653E+02 -0.19714825145E+02  0.79764018128E+02  0.10366592620E+03  0.00000000000E+00 0. -1.
         -4    1    6    6    0  503 -0.16699742400E+03 -0.32425320316E+02  0.32885448383E+02  0.17326567386E+03  0.00000000000E+00 0.  1.
<mgrwt>
<rscale>  0 0.18376946E+04</rscale>
<asrwt>0</asrwt>
<pdfrwt beam="1">  1        1 0.21381704E+00 0.18376946E+04</pdfrwt>
<pdfrwt beam="2">  1       -2 0.93458255E-01 0.18376946E+04</pdfrwt>
<totfact> 0.62421112E+00</totfact>
</mgrwt>
</event>
<event>
12    4  0.4320235E-008  0.1985472E+04  0.7818608E-02  0.8613443E-01
         -4   -1    0    0    0  501 -0.00000000000E+00  0.00000000000E+00  0.75511758863E+03  0.75511758863E+03  0.00000000000E+00 0.  1.
          3   -1    0    0  501    0  0.00000000000E+00 -0.00000000000E+00 -0.13051273205E+04  0.13051273205E+04  0.00000000000E+00 0. -1.
        -24    2    1    2    0    0  0.64182172024E+03  0.99024805767E+02  0.23790923509E+03  0.69668621617E+03  0.83844182477E+02 0.  0.
        254    2    1    2    0    0 -0.64182172024E+03 -0.99024805767E+02 -0.78791896699E+03  0.13635586930E+04  0.90373390883E+03 0.  0.
         23    2    4    4    0    0 -0.63431433724E+03 -0.19973069876E+03 -0.12189681769E+03  0.68372011607E+03  0.10182009865E+03 0.  0.
         23    2    4    4    0    0 -0.75073829990E+01  0.10070589300E+03 -0.66602214929E+03  0.67983857692E+03  0.91634871307E+02 0.  0.
          3    1    3    3  502    0  0.19381913718E+03  0.64859213894E+02  0.55657934895E+02  0.21182629979E+03  0.00000000000E+00 0. -1.
         -4    1    3    3    0  502  0.44800258306E+03  0.34165591873E+02  0.18225130019E+03  0.48485991638E+03  0.00000000000E+00 0.  1.
         11    1    5    5    0    0 -0.86654752400E+02 -0.66224923854E+02 -0.20783548991E+02  0.11102586438E+03  0.00000000000E+00 0. -1.
        -11    1    5    5    0    0 -0.54765958484E+03 -0.13350577491E+03 -0.10111326870E+03  0.57269425168E+03  0.00000000000E+00 0.  1.
          1    1    6    6  503    0 -0.40688806549E+02  0.17764268649E+02 -0.28815966425E+03  0.29155984003E+03  0.00000000000E+00 0. -1.
         -1    1    6    6    0  503  0.33181423550E+02  0.82941624347E+02 -0.37786248505E+03  0.38827873689E+03  0.00000000000E+00 0.  1.
<mgrwt>
<rscale>  0 0.19854718E+04</rscale>
<asrwt>0</asrwt>
<pdfrwt beam="1">  1        3 0.20078882E+00 0.19854718E+04</pdfrwt>
<pdfrwt beam="2">  1       -4 0.11617194E+00 0.19854718E+04</pdfrwt>
<totfact> 0.17792504E-01</totfact>
</mgrwt>
</event>
<event>
12    4  0.4320235E-008  0.2542305E+04  0.7818608E-02  0.8388067E-01
         -2   -1    0    0    0  501 -0.00000000000E+00  0.00000000000E+00  0.14362183280E+04  0.14362183280E+04  0.00000000000E+00 0.  1.
          1   -1    0    0  501    0  0.00000000000E+00 -0.00000000000E+00 -0.11250576227E+04  0.11250576227E+04  0.00000000000E+00 0. -1.
        -24    2    1    2    0    0 -0.56110106824E+03 -0.95268397396E+03  0.27457971667E+03  0.11418355557E+04  0.77157322691E+02 0.  0.
        254    2    1    2    0    0  0.56110106824E+03  0.95268397396E+03  0.36580988617E+02  0.14194403950E+04  0.88939963071E+03 0.  0.
         23    2    4    4    0    0  0.15994501727E+03  0.96750841237E+03  0.14120134401E+03  0.99487138284E+03  0.90422963293E+02 0.  0.
         23    2    4    4    0    0  0.40115605098E+03 -0.14824438407E+02 -0.10462035539E+03  0.42456901213E+03  0.90374145025E+02 0.  0.
          3    1    3    3  502    0 -0.42043814613E+03 -0.77503716383E+03  0.21978359923E+03  0.90871099395E+03  0.00000000000E+00 0. -1.
         -4    1    3    3    0  502 -0.14066292211E+03 -0.17764681013E+03  0.54796117444E+02  0.23312456176E+03  0.00000000000E+00 0.  1.
         11    1    5    5    0    0  0.16721039963E+03  0.86319327801E+03  0.11229334297E+03  0.88638126549E+03  0.00000000000E+00 0. -1.
        -11    1    5    5    0    0 -0.72653823636E+01  0.10431513436E+03  0.28908001042E+02  0.10849011734E+03  0.00000000000E+00 0.  1.
          3    1    6    6  503    0  0.26469323919E+03 -0.52497332115E+02 -0.65152265616E+02  0.27760277100E+03  0.00000000000E+00 0. -1.
         -3    1    6    6    0  503  0.13646281178E+03  0.37672893708E+02 -0.39468089775E+02  0.14696624113E+03  0.00000000000E+00 0.  1.
<mgrwt>
<rscale>  0 0.25423048E+04</rscale>
<asrwt>0</asrwt>
<pdfrwt beam="1">  1        1 0.17308579E+00 0.25423048E+04</pdfrwt>
<pdfrwt beam="2">  1       -2 0.22095667E+00 0.25423048E+04</pdfrwt>
<totfact> 0.91888813E-01</totfact>
</mgrwt>
</event>
<event>
12    4  0.4320235E-008  0.1146990E+04  0.7818608E-02  0.9160565E-01
          1   -1    0    0  501    0  0.00000000000E+00  0.00000000000E+00  0.11727234631E+04  0.11727234631E+04  0.00000000000E+00 0. -1.
         -2   -1    0    0    0  501 -0.00000000000E+00 -0.00000000000E+00 -0.28045545894E+03  0.28045545894E+03  0.00000000000E+00 0.  1.
        -24    2    1    2    0    0 -0.11863213218E+02  0.21432166718E+02  0.43421240369E+03  0.44238294086E+03  0.81007291320E+02 0.  0.
        254    2    1    2    0    0  0.11863213218E+02 -0.21432166718E+02  0.45805560050E+03  0.10107959812E+04  0.90071832937E+03 0.  0.
         23    2    4    4    0    0 -0.20663571687E+02 -0.39631295429E+03 -0.51883400413E+01  0.40674093220E+03  0.88996214115E+02 0.  0.
         23    2    4    4    0    0  0.32526784905E+02  0.37488078757E+03  0.46324394054E+03  0.60405504900E+03  0.93241391797E+02 0.  0.
          3    1    3    3  502    0  0.27663825353E+02  0.47505218533E+01  0.30381736100E+03  0.30511119864E+03  0.00000000000E+00 0. -1.
         -4    1    3    3    0  502 -0.39527038571E+02  0.16681644865E+02  0.13039504269E+03  0.13727174222E+03  0.00000000000E+00 0.  1.
         11    1    5    5    0    0  0.34047207280E+02 -0.20111844281E+03 -0.11148070140E+01  0.20398304625E+03  0.00000000000E+00 0. -1.
        -11    1    5    5    0    0 -0.54710778967E+02 -0.19519451148E+03 -0.40735330273E+01  0.20275788596E+03  0.00000000000E+00 0.  1.
          2    1    6    6  503    0  0.22093691341E+02  0.13038668835E+02  0.29055829329E+02  0.38760537922E+02  0.00000000000E+00 0.  1.
         -2    1    6    6    0  503  0.10433093564E+02  0.36184211873E+03  0.43418811121E+03  0.56529451107E+03  0.00000000000E+00 0. -1.
<mgrwt>
<rscale>  0 0.11469903E+04</rscale>
<asrwt>0</asrwt>
<pdfrwt beam="1">  1        1 0.18041899E+00 0.11469903E+04</pdfrwt>
<pdfrwt beam="2">  1       -2 0.43146994E-01 0.11469903E+04</pdfrwt>
<totfact> 0.49637086E+01</totfact>
</mgrwt>
</event>
<event>
12    4  0.4320235E-008  0.1319586E+04  0.7818608E-02  0.9014176E-01
         -2   -1    0    0    0  501 -0.00000000000E+00  0.00000000000E+00  0.84324418411E+03  0.84324418411E+03  0.00000000000E+00 0.  1.
          1   -1    0    0  501    0  0.00000000000E+00 -0.00000000000E+00 -0.51625226071E+03  0.51625226071E+03  0.00000000000E+00 0. -1.
        -24    2    1    2    0    0 -0.14133694330E+02 -0.19440759516E+03  0.39397159233E+03  0.44710339497E+03  0.81815376655E+02 0.  0.
        254    2    1    2    0    0  0.14133694330E+02  0.19440759516E+03 -0.66979668935E+02  0.91239304985E+03  0.88880859976E+03 0.  0.
         23    2    4    4    0    0  0.33264291975E+03  0.12265275041E+02 -0.30932306973E+03  0.46353982348E+03  0.91578695408E+02 0.  0.
         23    2    4    4    0    0 -0.31850922542E+03  0.18214232012E+03  0.24234340080E+03  0.44885322637E+03  0.90082980940E+02 0.  0.
          1    1    3    3  502    0 -0.36663698169E+02 -0.58572476523E+02  0.17834959554E+03  0.19126824095E+03  0.00000000000E+00 0. -1.
         -2    1    3    3    0  502  0.22530003839E+02 -0.13583511864E+03  0.21562199679E+03  0.25583515401E+03  0.00000000000E+00 0.  1.
         11    1    5    5    0    0  0.31348603605E+03  0.11101905654E+02 -0.24978660018E+03  0.40098639969E+03  0.00000000000E+00 0.  1.
        -11    1    5    5    0    0  0.19156883702E+02  0.11633693869E+01 -0.59536469548E+02  0.62553423789E+02  0.00000000000E+00 0. -1.
          3    1    6    6  503    0 -0.26217652387E+03  0.16009542804E+03  0.23725632326E+03  0.38814641397E+03  0.00000000000E+00 0. -1.
         -3    1    6    6    0  503 -0.56332701551E+02  0.22046892077E+02  0.50870775395E+01  0.60706812403E+02  0.00000000000E+00 0.  1.
<mgrwt>
<rscale>  0 0.13195859E+04</rscale>
<asrwt>0</asrwt>
<pdfrwt beam="1">  1        1 0.79423425E-01 0.13195859E+04</pdfrwt>
<pdfrwt beam="2">  1       -2 0.12972987E+00 0.13195859E+04</pdfrwt>
<totfact> 0.15874785E+01</totfact>
</mgrwt>
</event>
<event>
12    4  0.4320235E-008  0.1370717E+04  0.7818608E-02  0.8975292E-01
         -2   -1    0    0    0  501 -0.00000000000E+00  0.00000000000E+00  0.67121189245E+03  0.67121189245E+03  0.00000000000E+00 0.  1.
          1   -1    0    0  501    0  0.00000000000E+00 -0.00000000000E+00 -0.69980289124E+03  0.69980289124E+03  0.00000000000E+00 0. -1.
        -24    2    1    2    0    0 -0.28753909716E+03 -0.61395705970E+01  0.24493135273E+03  0.38489760391E+03  0.73745313208E+02 0.  0.
        254    2    1    2    0    0  0.28753909716E+03  0.61395705970E+01 -0.27352235153E+03  0.98611717978E+03  0.90271600670E+03 0.  0.
         23    2    4    4    0    0  0.48423917323E+03 -0.36086983867E+02 -0.47720697214E+03  0.68650749801E+03  0.88182783304E+02 0.  0.
         23    2    4    4    0    0 -0.19670007607E+03  0.42226554464E+02  0.20368462061E+03  0.29960968177E+03  0.88343278780E+02 0.  0.
          3    1    3    3  502    0 -0.46854276504E+01 -0.45401897198E+01  0.27124695705E+02  0.27898309483E+02  0.00000000000E+00 0. -1.
         -4    1    3    3    0  502 -0.28285366951E+03 -0.15993808772E+01  0.21780665703E+03  0.35699929442E+03  0.00000000000E+00 0.  1.
         11    1    5    5    0    0  0.35164060549E+03 -0.60843841312E+02 -0.37146822645E+03  0.51511331929E+03  0.00000000000E+00 0. -1.
        -11    1    5    5    0    0  0.13259856774E+03  0.24756857445E+02 -0.10573874570E+03  0.17139417872E+03  0.00000000000E+00 0.  1.
          1    1    6    6  503    0 -0.16425512967E+03  0.24892877244E+02  0.11075615026E+03  0.19966553980E+03  0.00000000000E+00 0. -1.
         -1    1    6    6    0  503 -0.32444946403E+02  0.17333677220E+02  0.92928470349E+02  0.99944141971E+02  0.00000000000E+00 0.  1.
<mgrwt>
<rscale>  0 0.13707166E+04</rscale>
<asrwt>0</asrwt>
<pdfrwt beam="1">  1        1 0.10766198E+00 0.13707166E+04</pdfrwt>
<pdfrwt beam="2">  1       -2 0.10326337E+00 0.13707166E+04</pdfrwt>
<totfact> 0.17844934E+01</totfact>
</mgrwt>
</event>
<event>
12    4  0.4320235E-008  0.1804709E+04  0.7818608E-02  0.8703799E-01
         -2   -1    0    0    0  501 -0.00000000000E+00  0.00000000000E+00  0.76190111953E+03  0.76190111953E+03  0.00000000000E+00 0.  1.
          1   -1    0    0  501    0  0.00000000000E+00 -0.00000000000E+00 -0.10687003961E+04  0.10687003961E+04  0.00000000000E+00 0. -1.
        -24    2    1    2    0    0 -0.24280370837E+03 -0.27355082840E+03  0.46259703380E+03  0.59431122148E+03  0.73662173374E+02 0.  0.
        254    2    1    2    0    0  0.24280370837E+03  0.27355082840E+03 -0.76939631042E+03  0.12362902942E+04  0.89591255853E+03 0.  0.
         23    2    4    4    0    0  0.34487962404E+03 -0.22973129033E+03 -0.47721062651E+03  0.63852958692E+03  0.90948504570E+02 0.  0.
         23    2    4    4    0    0 -0.10207591567E+03  0.50328211872E+03 -0.29218568391E+03  0.59776070728E+03  0.90735911850E+02 0.  0.
          3    1    3    3  502    0 -0.49592036274E+02 -0.48356802078E+02  0.13878949717E+03  0.15511374824E+03  0.00000000000E+00 0. -1.
         -4    1    3    3    0  502 -0.19321167209E+03 -0.22519402632E+03  0.32380753663E+03  0.43919747324E+03  0.00000000000E+00 0.  1.
         11    1    5    5    0    0  0.44527554670E+02 -0.22913373312E+01 -0.76323861700E+02  0.88392789392E+02  0.00000000000E+00 0. -1.
        -11    1    5    5    0    0  0.30035206937E+03 -0.22743995300E+03 -0.40088676481E+03  0.55013679752E+03  0.00000000000E+00 0.  1.
          2    1    6    6  503    0 -0.27494480611E+02  0.13136848267E+03 -0.32582782246E+02  0.13811322312E+03  0.00000000000E+00 0. -1.
         -2    1    6    6    0  503 -0.74581435062E+02  0.37191363606E+03 -0.25960290167E+03  0.45964748416E+03  0.00000000000E+00 0.  1.
<mgrwt>
<rscale>  0 0.18047094E+04</rscale>
<asrwt>0</asrwt>
<pdfrwt beam="1">  1        1 0.16441545E+00 0.18047094E+04</pdfrwt>
<pdfrwt beam="2">  1       -2 0.11721556E+00 0.18047094E+04</pdfrwt>
<totfact> 0.62321387E+00</totfact>
</mgrwt>
</event>
<event>
12    4  0.4320235E-008  0.2814233E+04  0.7818608E-02  0.8298863E-01
          1   -1    0    0  501    0  0.00000000000E+00  0.00000000000E+00  0.16240465344E+04  0.16240465344E+04  0.00000000000E+00 0. -1.
         -2   -1    0    0    0  501 -0.00000000000E+00 -0.00000000000E+00 -0.12191630037E+04  0.12191630037E+04  0.00000000000E+00 0.  1.
        -24    2    1    2    0    0  0.12038807605E+04  0.37827147228E+03  0.20117413262E+03  0.12806372422E+04  0.84513444528E+02 0.  0.
        254    2    1    2    0    0 -0.12038807605E+04 -0.37827147228E+03  0.20370939806E+03  0.15625722960E+04  0.89873047630E+03 0.  0.
         23    2    4    4    0    0 -0.10866589442E+03  0.24681765478E+03  0.31337567877E+02  0.28646658805E+03  0.91399297528E+02 0.  0.
         23    2    4    4    0    0 -0.10952148661E+04 -0.62508912706E+03  0.17237183018E+03  0.12761057079E+04  0.92204719541E+02 0.  0.
          3    1    3    3  502    0  0.12036117271E+04  0.37454636716E+03  0.19857504723E+03  0.12760870739E+04  0.00000000000E+00 0. -1.
         -4    1    3    3    0  502  0.26903340940E+00  0.37251051213E+01  0.25990853899E+01  0.45501683490E+01  0.00000000000E+00 0.  1.
         11    1    5    5    0    0 -0.91727623942E+02  0.18354658684E+03  0.61708024008E+02  0.21426895893E+03  0.00000000000E+00 0.  1.
        -11    1    5    5    0    0 -0.16938270478E+02  0.63271067939E+02 -0.30370456131E+02  0.72197629119E+02  0.00000000000E+00 0. -1.
          2    1    6    6  503    0 -0.75335274215E+03 -0.39212279758E+03  0.87445468724E+02  0.85378413694E+03  0.00000000000E+00 0.  1.
         -2    1    6    6    0  503 -0.34186212391E+03 -0.23296632948E+03  0.84926361456E+02  0.42232157097E+03  0.00000000000E+00 0. -1.
<mgrwt>
<rscale>  0 0.28142334E+04</rscale>
<asrwt>0</asrwt>
<pdfrwt beam="1">  1        1 0.24985331E+00 0.28142334E+04</pdfrwt>
<pdfrwt beam="2">  1       -2 0.18756354E+00 0.28142334E+04</pdfrwt>
<totfact> 0.65686327E-01</totfact>
</mgrwt>
</event>
<event>
12    4  0.4320235E-008  0.1868800E+04  0.7818608E-02  0.8670544E-01
         -2   -1    0    0    0  501 -0.00000000000E+00  0.00000000000E+00  0.98963905441E+03  0.98963905441E+03  0.00000000000E+00 0.  1.
          1   -1    0    0  501    0  0.00000000000E+00 -0.00000000000E+00 -0.88224449064E+03  0.88224449064E+03  0.00000000000E+00 0. -1.
        -24    2    1    2    0    0  0.41928680010E+03  0.30444640515E+03  0.53839813821E+03  0.75158808590E+03  0.80765470885E+02 0.  0.
        254    2    1    2    0    0 -0.41928680010E+03 -0.30444640515E+03 -0.43100357444E+03  0.11202954591E+04  0.89487920987E+03 0.  0.
         23    2    4    4    0    0 -0.28590714384E+03 -0.43323031080E+03  0.11250909959E+03  0.53883882298E+03  0.90871241727E+02 0.  0.
         23    2    4    4    0    0 -0.13337965626E+03  0.12878390565E+03 -0.54351267403E+03  0.58145663616E+03  0.91161208018E+02 0.  0.
          3    1    3    3  502    0  0.57310271411E+02  0.26099853230E+02  0.35397380159E+02  0.72240183208E+02  0.00000000000E+00 0. -1.
         -4    1    3    3    0  502  0.36197652869E+03  0.27834655192E+03  0.50300075805E+03  0.67934790269E+03  0.00000000000E+00 0.  1.
         11    1    5    5    0    0 -0.61089009106E+02 -0.13986463301E+03  0.46000547863E+00  0.15262435653E+03  0.00000000000E+00 0. -1.
        -11    1    5    5    0    0 -0.22481813473E+03 -0.29336567778E+03  0.11204909411E+03  0.38621446645E+03  0.00000000000E+00 0.  1.
          1    1    6    6  503    0 -0.39613500643E+02  0.96867129156E+02 -0.23048589860E+03  0.25313281020E+03  0.00000000000E+00 0. -1.
         -1    1    6    6    0  503 -0.93766155620E+02  0.31916776493E+02 -0.31302677543E+03  0.32832382597E+03  0.00000000000E+00 0.  1.
<mgrwt>
<rscale>  0 0.18688003E+04</rscale>
<asrwt>0</asrwt>
<pdfrwt beam="1">  1        1 0.13572992E+00 0.18688003E+04</pdfrwt>
<pdfrwt beam="2">  1       -2 0.15225216E+00 0.18688003E+04</pdfrwt>
<totfact> 0.44543925E+00</totfact>
</mgrwt>
</event>
<event>
12    4  0.4320235E-008  0.1776759E+04  0.7818608E-02  0.8718757E-01
          1   -1    0    0  501    0  0.00000000000E+00  0.00000000000E+00  0.18478480353E+04  0.18478480353E+04  0.00000000000E+00 0. -1.
         -2   -1    0    0    0  501 -0.00000000000E+00 -0.00000000000E+00 -0.42710133860E+03  0.42710133860E+03  0.00000000000E+00 0.  1.
        -24    2    1    2    0    0 -0.53149812963E+03 -0.33514885009E+03  0.79271476776E+03  0.10148404940E+04  0.81789435501E+02 0.  0.
        254    2    1    2    0    0  0.53149812963E+03  0.33514885009E+03  0.62803192899E+03  0.12601088799E+04  0.89366395917E+03 0.  0.
         23    2    4    4    0    0  0.26606633925E+03  0.52390957130E+03  0.69631596410E+03  0.91512729037E+03  0.85612498715E+02 0.  0.
         23    2    4    4    0    0  0.26543179038E+03 -0.18876072121E+03 -0.68284035117E+02  0.34498158955E+03  0.90911728950E+02 0.  0.
          3    1    3    3  502    0 -0.47449198246E+03 -0.29666209709E+03  0.74210066544E+03  0.92944307997E+03  0.00000000000E+00 0. -1.
         -4    1    3    3    0  502 -0.57006147172E+02 -0.38486753001E+02  0.50614102323E+02  0.85397414047E+02  0.00000000000E+00 0.  1.
         11    1    5    5    0    0  0.17570708485E+03  0.39620159478E+03  0.46289177559E+03  0.63412733680E+03  0.00000000000E+00 0. -1.
        -11    1    5    5    0    0  0.90359254405E+02  0.12770797652E+03  0.23342418851E+03  0.28099995357E+03  0.00000000000E+00 0.  1.
          1    1    6    6  503    0  0.10126584499E+03 -0.39849716877E+02  0.11470843597E+02  0.10942738026E+03  0.00000000000E+00 0. -1.
         -1    1    6    6    0  503  0.16416594539E+03 -0.14891100434E+03 -0.79754878714E+02  0.23555420929E+03  0.00000000000E+00 0.  1.
<mgrwt>
<rscale>  0 0.17767593E+04</rscale>
<asrwt>0</asrwt>
<pdfrwt beam="1">  1        1 0.28428431E+00 0.17767593E+04</pdfrwt>
<pdfrwt beam="2">  1       -2 0.65707899E-01 0.17767593E+04</pdfrwt>
<totfact> 0.66922527E+00</totfact>
</mgrwt>
</event>
<event>
12    4  0.4320235E-008  0.3255407E+04  0.7818608E-02  0.8174336E-01
          1   -1    0    0  501    0  0.00000000000E+00  0.00000000000E+00  0.13462560907E+04  0.13462560907E+04  0.00000000000E+00 0. -1.
         -2   -1    0    0    0  501 -0.00000000000E+00 -0.00000000000E+00 -0.19679898042E+04  0.19679898042E+04  0.00000000000E+00 0.  1.
        -24    2    1    2    0    0  0.11774717748E+04  0.91954095522E+03 -0.11982121690E+03  0.15008483914E+04  0.78698290436E+02 0.  0.
        254    2    1    2    0    0 -0.11774717748E+04 -0.91954095522E+03 -0.50191249659E+03  0.18133975035E+04  0.89693868395E+03 0.  0.
         23    2    4    4    0    0 -0.60945672454E+03 -0.21427183817E+03  0.17976801154E+03  0.67645395679E+03  0.89014032375E+02 0.  0.
         23    2    4    4    0    0 -0.56801505031E+03 -0.70526911705E+03 -0.68168050813E+03  0.11369435468E+04  0.88919562133E+02 0.  0.
          1    1    3    3  502    0  0.11221183381E+04  0.87133781123E+03 -0.13049146307E+03  0.14266769669E+04  0.00000000000E+00 0. -1.
         -2    1    3    3    0  502  0.55353436704E+02  0.48203143999E+02  0.10670246166E+02  0.74171424414E+02  0.00000000000E+00 0.  1.
         11    1    5    5    0    0 -0.47036403787E+03 -0.13003356355E+03  0.15456540072E+03  0.51189991099E+03  0.00000000000E+00 0.  1.
        -11    1    5    5    0    0 -0.13909268667E+03 -0.84238274623E+02  0.25202610820E+02  0.16455404580E+03  0.00000000000E+00 0. -1.
          4    1    6    6  503    0 -0.47684436766E+03 -0.60269288092E+03 -0.53710094287E+03  0.93760155851E+03  0.00000000000E+00 0.  1.
         -4    1    6    6    0  503 -0.91170682642E+02 -0.10257623613E+03 -0.14457956525E+03  0.19934198825E+03  0.00000000000E+00 0. -1.
<mgrwt>
<rscale>  0 0.32554067E+04</rscale>
<asrwt>0</asrwt>
<pdfrwt beam="1">  1        1 0.20711632E+00 0.32554067E+04</pdfrwt>
<pdfrwt beam="2">  1       -2 0.30276766E+00 0.32554067E+04</pdfrwt>
<totfact> 0.18737136E-01</totfact>
</mgrwt>
</event>
<event>
12    4  0.4320235E-008  0.1379823E+04  0.7818608E-02  0.8968554E-01
         -2   -1    0    0    0  501 -0.00000000000E+00  0.00000000000E+00  0.36045730308E+03  0.36045730308E+03  0.00000000000E+00 0.  1.
          1   -1    0    0  501    0  0.00000000000E+00 -0.00000000000E+00 -0.13204840303E+04  0.13204840303E+04  0.00000000000E+00 0. -1.
        -24    2    1    2    0    0  0.25780184504E+03  0.22254085168E+03 -0.49402966411E+03  0.60528659005E+03  0.79500472306E+02 0.  0.
        254    2    1    2    0    0 -0.25780184504E+03 -0.22254085168E+03 -0.46599706307E+03  0.10756547433E+04  0.90768587189E+03 0.  0.
         23    2    4    4    0    0  0.22679350773E+03 -0.13303503004E+03  0.12130833078E+03  0.30355478784E+03  0.91083388925E+02 0.  0.
         23    2    4    4    0    0 -0.48459535277E+03 -0.89505821640E+02 -0.58730539385E+03  0.77209995547E+03  0.91470036354E+02 0.  0.
          1    1    3    3  502    0  0.18348990743E+03  0.17692008107E+03 -0.41806323642E+03  0.48963877589E+03  0.00000000000E+00 0. -1.
         -2    1    3    3    0  502  0.74311937605E+02  0.45620770607E+02 -0.75966427696E+02  0.11564781415E+03  0.00000000000E+00 0.  1.
         11    1    5    5    0    0  0.12607503312E+03 -0.10153311946E+03  0.31345882917E+02  0.16488314862E+03  0.00000000000E+00 0. -1.
        -11    1    5    5    0    0  0.10071847461E+03 -0.31501910576E+02  0.89962447863E+02  0.13867163922E+03  0.00000000000E+00 0.  1.
          1    1    6    6  503    0 -0.36163062915E+03 -0.27938680524E+02 -0.40372639822E+03  0.54272671431E+03  0.00000000000E+00 0. -1.
         -1    1    6    6    0  503 -0.12296472362E+03 -0.61567141116E+02 -0.18357899563E+03  0.22937324115E+03  0.00000000000E+00 0.  1.
<mgrwt>
<rscale>  0 0.13798233E+04</rscale>
<asrwt>0</asrwt>
<pdfrwt beam="1">  1        1 0.20315139E+00 0.13798233E+04</pdfrwt>
<pdfrwt beam="2">  1       -2 0.55454970E-01 0.13798233E+04</pdfrwt>
<totfact> 0.22896635E+01</totfact>
</mgrwt>
</event>
<event>
12    4  0.4320235E-008  0.4115627E+04  0.7818608E-02  0.7981619E-01
          1   -1    0    0  501    0  0.00000000000E+00  0.00000000000E+00  0.29381502075E+04  0.29381502075E+04  0.00000000000E+00 0. -1.
         -2   -1    0    0    0  501 -0.00000000000E+00 -0.00000000000E+00 -0.14412456722E+04  0.14412456722E+04  0.00000000000E+00 0.  1.
        -24    2    1    2    0    0 -0.19509469742E+04 -0.18045980876E+03  0.66619229922E+03  0.20708568505E+04  0.76655575205E+02 0.  0.
        254    2    1    2    0    0  0.19509469742E+04  0.18045980876E+03  0.83071223602E+03  0.23085390292E+04  0.89471212769E+03 0.  0.
         23    2    4    4    0    0  0.11972279864E+04  0.30903166958E+03  0.95208896385E+02  0.12435507378E+04  0.92186112046E+02 0.  0.
         23    2    4    4    0    0  0.75371898777E+03 -0.12857186082E+03  0.73550333963E+03  0.10649882914E+04  0.92800119789E+02 0.  0.
          3    1    3    3  502    0 -0.11083300122E+03 -0.24852453735E+02  0.49771318619E+02  0.12401122035E+03  0.00000000000E+00 0. -1.
         -4    1    3    3    0  502 -0.18401139730E+04 -0.15560735502E+03  0.61642098060E+03  0.19468456302E+04  0.00000000000E+00 0.  1.
         11    1    5    5    0    0  0.59028769942E+03  0.19959385515E+03  0.42051300200E+02  0.62453629755E+03  0.00000000000E+00 0. -1.
        -11    1    5    5    0    0  0.60694028698E+03  0.10943781442E+03  0.53157596185E+02  0.61901444023E+03  0.00000000000E+00 0.  1.
          4    1    6    6  503    0  0.38258694093E+03 -0.72401263633E+02  0.31099238289E+03  0.49832817757E+03  0.00000000000E+00 0. -1.
         -4    1    6    6    0  503  0.37113204685E+03 -0.56170597183E+02  0.42451095675E+03  0.56666011381E+03  0.00000000000E+00 0.  1.
<mgrwt>
<rscale>  0 0.41156269E+04</rscale>
<asrwt>0</asrwt>
<pdfrwt beam="1">  1        1 0.45202311E+00 0.41156269E+04</pdfrwt>
<pdfrwt beam="2">  1       -2 0.22173010E+00 0.41156269E+04</pdfrwt>
<totfact> 0.43598192E-02</totfact>
</mgrwt>
</event>
<event>
12    4  0.4320235E-008  0.1567242E+04  0.7818608E-02  0.8840929E-01
          1   -1    0    0  501    0  0.00000000000E+00  0.00000000000E+00  0.90673165031E+03  0.90673165031E+03  0.00000000000E+00 0. -1.
         -2   -1    0    0    0  501 -0.00000000000E+00 -0.00000000000E+00 -0.67722594050E+03  0.67722594050E+03  0.00000000000E+00 0.  1.
        -24    2    1    2    0    0 -0.51132410278E+03 -0.53498051492E+02  0.28402695714E+02  0.52134835848E+03  0.81749728867E+02 0.  0.
        254    2    1    2    0    0  0.51132410278E+03  0.53498051492E+02  0.20110301410E+03  0.10626092323E+04  0.90795461271E+03 0.  0.
         23    2    4    4    0    0  0.44199478386E+03  0.27621336209E+03  0.46067767389E+03  0.70144613990E+03  0.90274900230E+02 0.  0.
         23    2    4    4    0    0  0.69329318925E+02 -0.22271531060E+03 -0.25957465978E+03  0.36116309242E+03  0.93011350341E+02 0.  0.
          1    1    3    3  502    0 -0.49093419594E+03 -0.45677659603E+02  0.10592434998E+02  0.49316836173E+03  0.00000000000E+00 0. -1.
         -2    1    3    3    0  502 -0.20389906839E+02 -0.78203918892E+01  0.17810260716E+02  0.28179996752E+02  0.00000000000E+00 0.  1.
         11    1    5    5    0    0  0.31702654685E+02  0.11949269576E+02  0.59494594300E+01  0.34398247411E+02  0.00000000000E+00 0.  1.
        -11    1    5    5    0    0  0.41029212917E+03  0.26426409251E+03  0.45472821446E+03  0.66704789249E+03  0.00000000000E+00 0. -1.
          1    1    6    6  503    0  0.13160091166E+02 -0.17843217780E+03 -0.17318898853E+03  0.24900934886E+03  0.00000000000E+00 0. -1.
         -1    1    6    6    0  503  0.56169227759E+02 -0.44283132802E+02 -0.86385671251E+02  0.11215374356E+03  0.00000000000E+00 0.  1.
<mgrwt>
<rscale>  0 0.15672424E+04</rscale>
<asrwt>0</asrwt>
<pdfrwt beam="1">  1        1 0.13949718E+00 0.15672424E+04</pdfrwt>
<pdfrwt beam="2">  1       -2 0.10418861E+00 0.15672424E+04</pdfrwt>
<totfact> 0.11345135E+01</totfact>
</mgrwt>
</event>
<event>
12    4  0.4320235E-008  0.1701766E+04  0.7818608E-02  0.8760358E-01
         -2   -1    0    0    0  501 -0.00000000000E+00  0.00000000000E+00  0.78487542869E+03  0.78487542869E+03  0.00000000000E+00 0.  1.
          1   -1    0    0  501    0  0.00000000000E+00 -0.00000000000E+00 -0.92244188940E+03  0.92244188940E+03  0.00000000000E+00 0. -1.
        -24    2    1    2    0    0  0.65213644467E+02  0.59177354812E+03  0.73879315143E+02  0.60420377112E+03  0.71800363211E+02 0.  0.
        254    2    1    2    0    0 -0.65213644467E+02 -0.59177354812E+03 -0.21144577585E+03  0.11031135470E+04  0.90426845001E+03 0.  0.
         23    2    4    4    0    0 -0.14034547484E+03 -0.76920176271E+03  0.20644493984E+02  0.78748940261E+03  0.91351847405E+02 0.  0.
         23    2    4    4    0    0  0.75131830374E+02  0.17742821459E+03 -0.23209026984E+03  0.31562414436E+03  0.92882419645E+02 0.  0.
          1    1    3    3  502    0  0.27897223341E+02  0.78037641102E+02  0.26177664698E+02  0.86910290690E+02  0.00000000000E+00 0. -1.
         -2    1    3    3    0  502  0.37316421126E+02  0.51373590702E+03  0.47701650445E+02  0.51729348043E+03  0.00000000000E+00 0.  1.
         11    1    5    5    0    0 -0.11587290868E+03 -0.51940826816E+03 -0.23281491189E+02  0.53268518642E+03  0.00000000000E+00 0. -1.
        -11    1    5    5    0    0 -0.24472566158E+02 -0.24979349455E+03  0.43925985173E+02  0.25480421619E+03  0.00000000000E+00 0.  1.
          1    1    6    6  503    0  0.45650492511E+02  0.17811026656E+03 -0.19181430276E+03  0.26570653222E+03  0.00000000000E+00 0. -1.
         -1    1    6    6    0  503  0.29481337863E+02 -0.68205197387E+00 -0.40275967082E+02  0.49917612138E+02  0.00000000000E+00 0.  1.
<mgrwt>
<rscale>  0 0.17017661E+04</rscale>
<asrwt>0</asrwt>
<pdfrwt beam="1">  1        1 0.14191414E+00 0.17017661E+04</pdfrwt>
<pdfrwt beam="2">  1       -2 0.12075007E+00 0.17017661E+04</pdfrwt>
<totfact> 0.76047812E+00</totfact>
</mgrwt>
</event>
<event>
12    4  0.4320235E-008  0.1547036E+04  0.7818608E-02  0.8853763E-01
          1   -1    0    0  501    0  0.00000000000E+00  0.00000000000E+00  0.15866557097E+04  0.15866557097E+04  0.00000000000E+00 0. -1.
         -2   -1    0    0    0  501 -0.00000000000E+00 -0.00000000000E+00 -0.37710157012E+03  0.37710157012E+03  0.00000000000E+00 0.  1.
        -24    2    1    2    0    0 -0.10825806736E+03  0.41823949422E+03  0.75213223748E+03  0.87131727471E+03  0.82745434247E+02 0.  0.
        254    2    1    2    0    0  0.10825806736E+03 -0.41823949422E+03  0.45742190210E+03  0.10924400051E+04  0.89305446897E+03 0.  0.
         23    2    4    4    0    0  0.28553524400E+02 -0.44261721799E+03 -0.14662470601E+03  0.47605349830E+03  0.91666915627E+02 0.  0.
         23    2    4    4    0    0  0.79704542962E+02  0.24377723765E+02  0.60404660811E+03  0.61638650679E+03  0.90071823556E+02 0.  0.
          1    1    3    3  502    0 -0.83153338542E+02  0.34318767983E+03  0.54308296515E+03  0.64778960190E+03  0.00000000000E+00 0. -1.
         -2    1    3    3    0  502 -0.25104728821E+02  0.75051814397E+02  0.20904927233E+03  0.22352767281E+03  0.00000000000E+00 0.  1.
         11    1    5    5    0    0  0.26834073418E+02 -0.80426146997E+02  0.13534995069E+01  0.84795427812E+02  0.00000000000E+00 0. -1.
        -11    1    5    5    0    0  0.17194509824E+01 -0.36219107099E+03 -0.14797820552E+03  0.39125807049E+03  0.00000000000E+00 0.  1.
          4    1    6    6  503    0  0.18450423847E+02  0.50507610252E+02  0.21134239875E+03  0.21807578119E+03  0.00000000000E+00 0. -1.
         -4    1    6    6    0  503  0.61254119115E+02 -0.26129886488E+02  0.39270420937E+03  0.39831072560E+03  0.00000000000E+00 0.  1.
<mgrwt>
<rscale>  0 0.15470363E+04</rscale>
<asrwt>0</asrwt>
<pdfrwt beam="1">  1        1 0.24410087E+00 0.15470363E+04</pdfrwt>
<pdfrwt beam="2">  1       -2 0.58015627E-01 0.15470363E+04</pdfrwt>
<totfact> 0.13401219E+01</totfact>
</mgrwt>
</event>
<event>
12    4  0.4320235E-008  0.1490858E+04  0.7818608E-02  0.8890555E-01
         -2   -1    0    0    0  501 -0.00000000000E+00  0.00000000000E+00  0.64851204804E+03  0.64851204804E+03  0.00000000000E+00 0.  1.
          1   -1    0    0  501    0  0.00000000000E+00 -0.00000000000E+00 -0.85682944686E+03  0.85682944686E+03  0.00000000000E+00 0. -1.
        -24    2    1    2    0    0  0.15231777567E+03 -0.20478795177E+03  0.33383614001E+03  0.42783858894E+03  0.80377110139E+02 0.  0.
        254    2    1    2    0    0 -0.15231777567E+03  0.20478795177E+03 -0.54215353883E+03  0.10775029060E+04  0.89551283782E+03 0.  0.
         23    2    4    4    0    0 -0.59921633637E+02 -0.37180023679E+02 -0.73367922847E+03  0.74279298716E+03  0.92104588031E+02 0.  0.
         23    2    4    4    0    0 -0.92396142037E+02  0.24196797544E+03  0.19152568965E+03  0.33470991880E+03  0.90901549727E+02 0.  0.
          3    1    3    3  502    0  0.70973094536E+02 -0.60021981383E+02  0.71098698806E+02  0.11702496900E+03  0.00000000000E+00 0. -1.
         -4    1    3    3    0  502  0.81344681138E+02 -0.14476597038E+03  0.26273744121E+03  0.31081361994E+03  0.00000000000E+00 0.  1.
         11    1    5    5    0    0 -0.50663740841E+02 -0.12337835988E+02 -0.15557379338E+03  0.16407998665E+03  0.00000000000E+00 0. -1.
        -11    1    5    5    0    0 -0.92578927958E+01 -0.24842187690E+02 -0.57810543510E+03  0.57871300051E+03  0.00000000000E+00 0.  1.
          4    1    6    6  503    0 -0.82245456901E+02  0.98912484839E+02  0.68408513260E+02  0.14569735593E+03  0.00000000000E+00 0. -1.
         -4    1    6    6    0  503 -0.10150685136E+02  0.14305549061E+03  0.12311717639E+03  0.18901256287E+03  0.00000000000E+00 0.  1.
<mgrwt>
<rscale>  0 0.14908578E+04</rscale>
<asrwt>0</asrwt>
<pdfrwt beam="1">  1        1 0.13181991E+00 0.14908578E+04</pdfrwt>
<pdfrwt beam="2">  1       -2 0.99771084E-01 0.14908578E+04</pdfrwt>
<totfact> 0.13923731E+01</totfact>
</mgrwt>
</event>
<event>
12    4  0.4320235E-008  0.1909558E+04  0.7818608E-02  0.8650114E-01
          1   -1    0    0  501    0  0.00000000000E+00  0.00000000000E+00  0.73842363804E+03  0.73842363804E+03  0.00000000000E+00 0. -1.
         -2   -1    0    0    0  501 -0.00000000000E+00 -0.00000000000E+00 -0.12345251680E+04  0.12345251680E+04  0.00000000000E+00 0.  1.
        -24    2    1    2    0    0  0.95882594065E+01 -0.44732635953E+02 -0.95325158073E+03  0.95762597634E+03  0.79158012628E+02 0.  0.
        254    2    1    2    0    0 -0.95882594065E+01  0.44732635953E+02  0.45715005079E+03  0.10153228297E+04  0.90542881338E+03 0.  0.
         23    2    4    4    0    0  0.39636808422E+03  0.22091247142E+02  0.43735114739E+03  0.59794082389E+03  0.93067294789E+02 0.  0.
         23    2    4    4    0    0 -0.40595634363E+03  0.22641388811E+02  0.19798903390E+02  0.41738200579E+03  0.92209309503E+02 0.  0.
          3    1    3    3  502    0  0.26093764624E+02 -0.13137089475E+01 -0.10861689684E+03  0.11171499749E+03  0.00000000000E+00 0. -1.
         -4    1    3    3    0  502 -0.16505505217E+02 -0.43418927005E+02 -0.84463468388E+03  0.84591097885E+03  0.00000000000E+00 0.  1.
         11    1    5    5    0    0  0.14590806386E+03  0.47028687940E+02  0.19988832423E+03  0.25190514634E+03  0.00000000000E+00 0. -1.
        -11    1    5    5    0    0  0.25046002037E+03 -0.24937440798E+02  0.23746282316E+03  0.34603567755E+03  0.00000000000E+00 0.  1.
          4    1    6    6  503    0 -0.14624724943E+03  0.13964279118E+02 -0.36765311998E+02  0.15144288436E+03  0.00000000000E+00 0. -1.
         -4    1    6    6    0  503 -0.25970909420E+03  0.86771096928E+01  0.56564215389E+02  0.26593912142E+03  0.00000000000E+00 0.  1.
<mgrwt>
<rscale>  0 0.19095576E+04</rscale>
<asrwt>0</asrwt>
<pdfrwt beam="1">  1        1 0.11360364E+00 0.19095576E+04</pdfrwt>
<pdfrwt beam="2">  1       -2 0.18992695E+00 0.19095576E+04</pdfrwt>
<totfact> 0.31867845E+00</totfact>
</mgrwt>
</event>
<event>
12    4  0.4320235E-008  0.2613448E+04  0.7818608E-02  0.8363648E-01
         -2   -1    0    0    0  501 -0.00000000000E+00  0.00000000000E+00  0.75890058994E+03  0.75890058994E+03  0.00000000000E+00 0.  1.
          1   -1    0    0  501    0  0.00000000000E+00 -0.00000000000E+00 -0.22500015075E+04  0.22500015075E+04  0.00000000000E+00 0. -1.
        -24    2    1    2    0    0  0.29107329917E+03 -0.57649504917E+03 -0.17529190971E+04  0.18696017256E+04  0.74933598572E+02 0.  0.
        254    2    1    2    0    0 -0.29107329917E+03  0.57649504917E+03  0.26181817959E+03  0.11393003718E+04  0.90132478650E+03 0.  0.
         23    2    4    4    0    0 -0.33023926008E+03  0.80772457866E+02 -0.24174156671E+03  0.42579972568E+03  0.85347890828E+02 0.  0.
         23    2    4    4    0    0  0.39165960910E+02  0.49572259130E+03  0.50355974630E+03  0.71350064609E+03  0.90751825637E+02 0.  0.
          3    1    3    3  502    0  0.23784929255E+03 -0.52216728979E+03 -0.15654526558E+04  0.16672951094E+04  0.00000000000E+00 0. -1.
         -4    1    3    3    0  502  0.53224006625E+02 -0.54327759374E+02 -0.18746644137E+03  0.20230661620E+03  0.00000000000E+00 0.  1.
         11    1    5    5    0    0 -0.67960917920E+02  0.20023536086E+02 -0.97049379208E+02  0.12015910439E+03  0.00000000000E+00 0. -1.
        -11    1    5    5    0    0 -0.26227834216E+03  0.60748921780E+02 -0.14469218750E+03  0.30564062130E+03  0.00000000000E+00 0.  1.
          2    1    6    6  503    0  0.26484564552E+02  0.45286658257E+03  0.48773379305E+03  0.66608845257E+03  0.00000000000E+00 0.  1.
         -2    1    6    6    0  503  0.12681396359E+02  0.42856008736E+02  0.15825953257E+02  0.47412193525E+02  0.00000000000E+00 0. -1.
<mgrwt>
<rscale>  0 0.26134479E+04</rscale>
<asrwt>0</asrwt>
<pdfrwt beam="1">  1        1 0.34615408E+00 0.26134479E+04</pdfrwt>
<pdfrwt beam="2">  1       -2 0.11675394E+00 0.26134479E+04</pdfrwt>
<totfact> 0.88477601E-01</totfact>
</mgrwt>
</event>
<event>
12    4  0.4320235E-008  0.2620048E+04  0.7818608E-02  0.8361423E-01
         -2   -1    0    0    0  501 -0.00000000000E+00  0.00000000000E+00  0.32381464282E+04  0.32381464282E+04  0.00000000000E+00 0.  1.
          1   -1    0    0  501    0  0.00000000000E+00 -0.00000000000E+00 -0.52998292774E+03  0.52998292774E+03  0.00000000000E+00 0. -1.
        -24    2    1    2    0    0 -0.57138797034E+03 -0.27398126775E+03  0.26133417358E+04  0.26902916833E+04  0.81020772555E+02 0.  0.
        254    2    1    2    0    0  0.57138797034E+03  0.27398126775E+03  0.94821764632E+02  0.10778376726E+04  0.86671387071E+03 0.  0.
         23    2    4    4    0    0  0.12475682775E+03  0.10862256825E+03  0.44260350310E+03  0.48135225175E+03  0.91864034900E+02 0.  0.
         23    2    4    4    0    0  0.44663114259E+03  0.16535869949E+03 -0.34778173846E+03  0.59648542084E+03  0.89553574094E+02 0.  0.
          3    1    3    3  502    0 -0.33382689924E+02 -0.17351585789E+02  0.90922906362E+02  0.98399473663E+02  0.00000000000E+00 0. -1.
         -4    1    3    3    0  502 -0.53800528042E+03 -0.25662968196E+03  0.25224188294E+04  0.25918922096E+04  0.00000000000E+00 0.  1.
         11    1    5    5    0    0  0.12130710874E+03  0.81672097255E+02  0.42376895849E+03  0.44829217736E+03  0.00000000000E+00 0. -1.
        -11    1    5    5    0    0  0.34497190105E+01  0.26950470998E+02  0.18834544604E+02  0.33060074390E+02  0.00000000000E+00 0.  1.
          3    1    6    6  503    0  0.44121046551E+03  0.17254407695E+03 -0.34740595777E+03  0.58747683602E+03  0.00000000000E+00 0. -1.
         -3    1    6    6    0  503  0.54206770814E+01 -0.71853774598E+01 -0.37578069214E+00  0.90085848162E+01  0.00000000000E+00 0.  1.
<mgrwt>
<rscale>  0 0.26200476E+04</rscale>
<asrwt>0</asrwt>
<pdfrwt beam="1">  1        1 0.81535837E-01 0.26200476E+04</pdfrwt>
<pdfrwt beam="2">  1       -2 0.49817636E+00 0.26200476E+04</pdfrwt>
<totfact> 0.53115304E-02</totfact>
</mgrwt>
</event>
<event>
12    4  0.4320235E-008  0.1043976E+04  0.7818608E-02  0.9261586E-01
          1   -1    0    0  501    0  0.00000000000E+00  0.00000000000E+00  0.17046211455E+04  0.17046211455E+04  0.00000000000E+00 0. -1.
         -2   -1    0    0    0  501 -0.00000000000E+00 -0.00000000000E+00 -0.15984283959E+03  0.15984283959E+03  0.00000000000E+00 0.  1.
        -24    2    1    2    0    0 -0.53355142343E+02 -0.97842726930E+02  0.31574199657E+03  0.34443695229E+03  0.80770262313E+02 0.  0.
        254    2    1    2    0    0  0.53355142343E+02  0.97842726930E+02  0.12290363093E+04  0.15200270328E+04  0.88742997490E+03 0.  0.
         23    2    4    4    0    0 -0.28214355469E+03 -0.55988282101E+02  0.83123687942E+02  0.31306549566E+03  0.91437322216E+02 0.  0.
         23    2    4    4    0    0  0.33549869703E+03  0.15383100903E+03  0.11459126214E+04  0.12069615371E+04  0.86122361807E+02 0.  0.
          3    1    3    3  502    0 -0.13741213902E+02  0.12822881794E+02  0.29229003021E+02  0.34750278770E+02  0.00000000000E+00 0. -1.
         -4    1    3    3    0  502 -0.39613928441E+02 -0.11066560872E+03  0.28651299355E+03  0.30968667352E+03  0.00000000000E+00 0.  1.
         11    1    5    5    0    0 -0.25721479416E+03 -0.22208819190E+02  0.59675399603E+02  0.26497893369E+03  0.00000000000E+00 0.  1.
        -11    1    5    5    0    0 -0.24928760528E+02 -0.33779462910E+02  0.23448288339E+02  0.48086561969E+02  0.00000000000E+00 0. -1.
          1    1    6    6  503    0  0.77147698988E+02 -0.19460126315E+01  0.24715360991E+03  0.25892172817E+03  0.00000000000E+00 0. -1.
         -1    1    6    6    0  503  0.25835099804E+03  0.15577702166E+03  0.89875901149E+03  0.94803980897E+03  0.00000000000E+00 0.  1.
<mgrwt>
<rscale>  0 0.10439760E+04</rscale>
<asrwt>0</asrwt>
<pdfrwt beam="1">  1        1 0.26224939E+00 0.10439760E+04</pdfrwt>
<pdfrwt beam="2">  1       -2 0.24591207E-01 0.10439760E+04</pdfrwt>
<totfact> 0.61453102E+01</totfact>
</mgrwt>
</event>
<event>
12    4  0.4320235E-008  0.1872357E+04  0.7818608E-02  0.8668740E-01
          1   -1    0    0  501    0  0.00000000000E+00  0.00000000000E+00  0.16425781466E+04  0.16425781466E+04  0.00000000000E+00 0. -1.
         -2   -1    0    0    0  501 -0.00000000000E+00 -0.00000000000E+00 -0.53356984305E+03  0.53356984305E+03  0.00000000000E+00 0.  1.
        -24    2    1    2    0    0  0.96089962799E+02 -0.71168690987E+03  0.52428597810E+03  0.89278642257E+03  0.80375810156E+02 0.  0.
        254    2    1    2    0    0 -0.96089962799E+02  0.71168690987E+03  0.58472232547E+03  0.12833615671E+04  0.88847350856E+03 0.  0.
         23    2    4    4    0    0 -0.34819798956E+03  0.74091479079E+03  0.58907955747E+03  0.10126376072E+04  0.90684239926E+02 0.  0.
         23    2    4    4    0    0  0.25210802676E+03 -0.29227880921E+02 -0.43572319969E+01  0.27072395990E+03  0.94126249337E+02 0.  0.
          3    1    3    3  502    0  0.76349478835E+02 -0.62080070901E+03  0.42191929470E+03  0.75447906165E+03  0.00000000000E+00 0. -1.
         -4    1    3    3    0  502  0.19740483963E+02 -0.90886200857E+02  0.10236668340E+03  0.13830736092E+03  0.00000000000E+00 0.  1.
         11    1    5    5    0    0 -0.28341746570E+03  0.66397271850E+03  0.49886735188E+03  0.87752713094E+03  0.00000000000E+00 0. -1.
        -11    1    5    5    0    0 -0.64780523859E+02  0.76942072291E+02  0.90212205593E+02  0.13511047627E+03  0.00000000000E+00 0.  1.
          2    1    6    6  503    0  0.22165990502E+02 -0.33505973985E+02 -0.67054489287E+01  0.40730142069E+02  0.00000000000E+00 0.  1.
         -2    1    6    6    0  503  0.22994203626E+03  0.42780930641E+01  0.23482169318E+01  0.22999381783E+03  0.00000000000E+00 0. -1.
<mgrwt>
<rscale>  0 0.18723570E+04</rscale>
<asrwt>0</asrwt>
<pdfrwt beam="1">  1        1 0.25270433E+00 0.18723570E+04</pdfrwt>
<pdfrwt beam="2">  1       -2 0.82087668E-01 0.18723570E+04</pdfrwt>
<totfact> 0.56010460E+00</totfact>
</mgrwt>
</event>
<event>
12    4  0.4320235E-008  0.1547307E+04  0.7818608E-02  0.8853590E-01
          1   -1    0    0  501    0  0.00000000000E+00  0.00000000000E+00  0.64291564596E+03  0.64291564596E+03  0.00000000000E+00 0. -1.
         -2   -1    0    0    0  501 -0.00000000000E+00 -0.00000000000E+00 -0.93097738025E+03  0.93097738025E+03  0.00000000000E+00 0.  1.
        -24    2    1    2    0    0 -0.56646263572E+02 -0.49539043746E+03 -0.20678595650E+03  0.54577614479E+03  0.80564779624E+02 0.  0.
        254    2    1    2    0    0  0.56646263572E+02  0.49539043746E+03 -0.81275777784E+02  0.10281168814E+04  0.89543178696E+03 0.  0.
         23    2    4    4    0    0  0.13034558389E+03  0.51495122020E+03 -0.41212050797E+03  0.67847759042E+03  0.91234846353E+02 0.  0.
         23    2    4    4    0    0 -0.73699320317E+02 -0.19560782745E+02  0.33084473018E+03  0.34963929100E+03  0.83517568715E+02 0.  0.
          3    1    3    3  502    0  0.73975031635E+01 -0.70031767705E+02 -0.55956123791E+02  0.89945868892E+02  0.00000000000E+00 0. -1.
         -4    1    3    3    0  502 -0.64043766736E+02 -0.42535866975E+03 -0.15082983271E+03  0.45583027590E+03  0.00000000000E+00 0.  1.
         11    1    5    5    0    0  0.29129578292E+02  0.20045304632E+03 -0.10858849664E+03  0.22982910545E+03  0.00000000000E+00 0.  1.
        -11    1    5    5    0    0  0.10121600560E+03  0.31449817388E+03 -0.30353201133E+03  0.44864848497E+03  0.00000000000E+00 0. -1.
          2    1    6    6  503    0 -0.95612817221E+01 -0.43228664353E+02  0.11507972024E+03  0.12330238254E+03  0.00000000000E+00 0.  1.
         -2    1    6    6    0  503 -0.64138038595E+02  0.23667881608E+02  0.21576500994E+03  0.22633690846E+03  0.00000000000E+00 0. -1.
<mgrwt>
<rscale>  0 0.15473072E+04</rscale>
<asrwt>0</asrwt>
<pdfrwt beam="1">  1        1 0.98910099E-01 0.15473072E+04</pdfrwt>
<pdfrwt beam="2">  1       -2 0.14322729E+00 0.15473072E+04</pdfrwt>
<totfact> 0.88318622E+00</totfact>
</mgrwt>
</event>
<event>
12    4  0.4320235E-008  0.1313411E+04  0.7818608E-02  0.9018997E-01
          1   -1    0    0  501    0  0.00000000000E+00  0.00000000000E+00  0.10187665802E+04  0.10187665802E+04  0.00000000000E+00 0. -1.
         -2   -1    0    0    0  501 -0.00000000000E+00 -0.00000000000E+00 -0.42331775378E+03  0.42331775378E+03  0.00000000000E+00 0.  1.
        -24    2    1    2    0    0  0.63293069083E+01 -0.27563517926E+03 -0.51545355764E+02  0.29174218309E+03  0.80260609998E+02 0.  0.
        254    2    1    2    0    0 -0.63293069083E+01  0.27563517926E+03  0.64699418222E+03  0.11503421509E+04  0.91031356147E+03 0.  0.
         23    2    4    4    0    0 -0.82679916318E+02  0.10925622009E+03 -0.20895812506E+03  0.27041964916E+03  0.10339438297E+03 0.  0.
         23    2    4    4    0    0  0.76350609410E+02  0.16637895917E+03  0.85595230728E+03  0.87992250177E+03  0.89988239053E+02 0.  0.
          3    1    3    3  502    0  0.26190239564E+02 -0.99550225601E+02  0.11681921267E+02  0.10359847176E+03  0.00000000000E+00 0. -1.
         -4    1    3    3    0  502 -0.19860932656E+02 -0.17608495366E+03 -0.63227277031E+02  0.18814371133E+03  0.00000000000E+00 0.  1.
         11    1    5    5    0    0 -0.87466454519E+02  0.55759724120E+02 -0.18393317201E+03  0.21116566782E+03  0.00000000000E+00 0. -1.
        -11    1    5    5    0    0  0.47865382010E+01  0.53496495971E+02 -0.25024953055E+02  0.59253981339E+02  0.00000000000E+00 0.  1.
          1    1    6    6  503    0  0.77192273711E+02  0.13839206636E+03  0.81532292592E+03  0.83057960767E+03  0.00000000000E+00 0. -1.
         -1    1    6    6    0  503 -0.84166430089E+00  0.27986892811E+02  0.40629381363E+02  0.49342894098E+02  0.00000000000E+00 0.  1.
<mgrwt>
<rscale>  0 0.13134108E+04</rscale>
<asrwt>0</asrwt>
<pdfrwt beam="1">  1        1 0.15673332E+00 0.13134108E+04</pdfrwt>
<pdfrwt beam="2">  1       -2 0.65125808E-01 0.13134108E+04</pdfrwt>
<totfact> 0.27371532E+01</totfact>
</mgrwt>
</event>
<event>
12    4  0.4320235E-008  0.1981181E+04  0.7818608E-02  0.8615470E-01
          1   -1    0    0  501    0  0.00000000000E+00  0.00000000000E+00  0.89735187355E+03  0.89735187355E+03  0.00000000000E+00 0. -1.
         -2   -1    0    0    0  501 -0.00000000000E+00 -0.00000000000E+00 -0.10935164650E+04  0.10935164650E+04  0.00000000000E+00 0.  1.
        -24    2    1    2    0    0  0.45806591049E+03  0.55141566471E+03  0.24297070608E+03  0.76130368374E+03  0.81638968803E+02 0.  0.
        254    2    1    2    0    0 -0.45806591049E+03 -0.55141566471E+03 -0.43913529747E+03  0.12295646548E+04  0.89727688988E+03 0.  0.
         23    2    4    4    0    0 -0.55875756324E+03 -0.17739263246E+03 -0.55822625726E+03  0.81460428470E+03  0.91024314492E+02 0.  0.
         23    2    4    4    0    0  0.10069165274E+03 -0.37402303225E+03  0.11909095979E+03  0.41496037006E+03  0.89316372737E+02 0.  0.
          1    1    3    3  502    0  0.37332948302E+03  0.47934811523E+03  0.18098049514E+03  0.63395856181E+03  0.00000000000E+00 0. -1.
         -2    1    3    3    0  502  0.84736427473E+02  0.72067549474E+02  0.61990210939E+02  0.12734512193E+03  0.00000000000E+00 0.  1.
         11    1    5    5    0    0 -0.53761167144E+03 -0.18757881299E+03 -0.52994659213E+03  0.77785314222E+03  0.00000000000E+00 0. -1.
        -11    1    5    5    0    0 -0.21145891798E+02  0.10186180528E+02 -0.28279665131E+02  0.36751142481E+02  0.00000000000E+00 0.  1.
          2    1    6    6  503    0  0.82844729452E+02 -0.33518194956E+03  0.13301545476E+03  0.37000445905E+03  0.00000000000E+00 0. -1.
         -2    1    6    6    0  503  0.17846923288E+02 -0.38841082685E+02 -0.13924494976E+02  0.44955911016E+02  0.00000000000E+00 0.  1.
<mgrwt>
<rscale>  0 0.19811805E+04</rscale>
<asrwt>0</asrwt>
<pdfrwt beam="1">  1        1 0.13805413E+00 0.19811805E+04</pdfrwt>
<pdfrwt beam="2">  1       -2 0.16823330E+00 0.19811805E+04</pdfrwt>
<totfact> 0.32666412E+00</totfact>
</mgrwt>
</event>
<event>
12    4  0.4320235E-008  0.1111113E+04  0.7818608E-02  0.9194428E-01
         -2   -1    0    0    0  501 -0.00000000000E+00  0.00000000000E+00  0.11348712541E+03  0.11348712541E+03  0.00000000000E+00 0.  1.
          1   -1    0    0  501    0  0.00000000000E+00 -0.00000000000E+00 -0.27196299421E+04  0.27196299421E+04  0.00000000000E+00 0. -1.
        -24    2    1    2    0    0  0.13026366109E+03 -0.61559664810E+02 -0.18818904584E+03  0.25009004731E+03  0.79822935641E+02 0.  0.
        254    2    1    2    0    0 -0.13026366109E+03  0.61559664810E+02 -0.24179537709E+04  0.25830270202E+04  0.89708970308E+03 0.  0.
         23    2    4    4    0    0 -0.81757693062E+02 -0.16449257157E+03 -0.62970863848E+02  0.21505340881E+03  0.92414893127E+02 0.  0.
         23    2    4    4    0    0 -0.48505968032E+02  0.22605223638E+03 -0.23549829070E+04  0.23679736114E+04  0.88893697382E+02 0.  0.
          1    1    3    3  502    0  0.96746950045E+02 -0.41098591980E+02 -0.18222825230E+03  0.21037158207E+03  0.00000000000E+00 0. -1.
         -2    1    3    3    0  502  0.33516711049E+02 -0.20461072830E+02 -0.59607935344E+01  0.39718465233E+02  0.00000000000E+00 0.  1.
         11    1    5    5    0    0 -0.15531131773E+02 -0.44099311292E+02  0.23880427292E+02  0.52499905888E+02  0.00000000000E+00 0. -1.
        -11    1    5    5    0    0 -0.66226561290E+02 -0.12039326027E+03 -0.86851291140E+02  0.16255350292E+03  0.00000000000E+00 0.  1.
          3    1    6    6  503    0  0.12476014218E+02  0.11471643876E+02 -0.39009857591E+03  0.39046657792E+03  0.00000000000E+00 0. -1.
         -3    1    6    6    0  503 -0.60981982250E+02  0.21458059250E+03 -0.19648843311E+04  0.19775070335E+04  0.00000000000E+00 0.  1.
<mgrwt>
<rscale>  0 0.11111129E+04</rscale>
<asrwt>0</asrwt>
<pdfrwt beam="1">  1        1 0.41840457E+00 0.11111129E+04</pdfrwt>
<pdfrwt beam="2">  1       -2 0.17459559E-01 0.11111129E+04</pdfrwt>
<totfact> 0.22774353E+01</totfact>
</mgrwt>
</event>
<event>
12    4  0.4320235E-008  0.1340462E+04  0.7818608E-02  0.8998080E-01
         -2   -1    0    0    0  501 -0.00000000000E+00  0.00000000000E+00  0.69997110895E+03  0.69997110895E+03  0.00000000000E+00 0.  1.
          1   -1    0    0  501    0  0.00000000000E+00 -0.00000000000E+00 -0.64175475771E+03  0.64175475771E+03  0.00000000000E+00 0. -1.
        -24    2    1    2    0    0 -0.30713855042E+03 -0.18241540244E+03  0.17840587193E+02  0.36612115009E+03  0.78210880250E+02 0.  0.
        254    2    1    2    0    0  0.30713855042E+03  0.18241540244E+03  0.40375764045E+02  0.97560471658E+03  0.90695363304E+03 0.  0.
         23    2    4    4    0    0  0.97963026850E+02 -0.27677487352E+02 -0.40855561994E+03  0.43072983342E+03  0.90816831457E+02 0.  0.
         23    2    4    4    0    0  0.20917552357E+03  0.21009288979E+03  0.44893138399E+03  0.54487488316E+03  0.86347141043E+02 0.  0.
          1    1    3    3  502    0 -0.37549382421E+02 -0.35374892411E+02  0.28339908476E+02  0.58859914592E+02  0.00000000000E+00 0. -1.
         -2    1    3    3    0  502 -0.26958916800E+03 -0.14704051003E+03 -0.10499321282E+02  0.30726123549E+03  0.00000000000E+00 0.  1.
         11    1    5    5    0    0  0.37789188702E+02 -0.56304087666E+02 -0.24251617871E+03  0.25181793028E+03  0.00000000000E+00 0.  1.
        -11    1    5    5    0    0  0.60173838148E+02  0.28626600315E+02 -0.16603944123E+03  0.17891190314E+03  0.00000000000E+00 0. -1.
          2    1    6    6  503    0  0.18874279048E+03  0.17824074446E+03  0.43065711204E+03  0.50285102376E+03  0.00000000000E+00 0. -1.
         -2    1    6    6    0  503  0.20432733090E+02  0.31852145330E+02  0.18274271947E+02  0.42023859399E+02  0.00000000000E+00 0.  1.
<mgrwt>
<rscale>  0 0.13404623E+04</rscale>
<asrwt>0</asrwt>
<pdfrwt beam="1">  1        1 0.98731500E-01 0.13404623E+04</pdfrwt>
<pdfrwt beam="2">  1       -2 0.10768786E+00 0.13404623E+04</pdfrwt>
<totfact> 0.18406715E+01</totfact>
</mgrwt>
</event>
<event>
12    4  0.4320235E-008  0.1394986E+04  0.7818608E-02  0.8957456E-01
         -4   -1    0    0    0  501 -0.00000000000E+00  0.00000000000E+00  0.53000686943E+03  0.53000686943E+03  0.00000000000E+00 0.  1.
          1   -1    0    0  501    0  0.00000000000E+00 -0.00000000000E+00 -0.91790627258E+03  0.91790627258E+03  0.00000000000E+00 0. -1.
        -24    2    1    2    0    0 -0.32636776398E+03  0.12463930442E+03 -0.30893023145E+03  0.47302200957E+03  0.79126860578E+02 0.  0.
        254    2    1    2    0    0  0.32636776398E+03 -0.12463930442E+03 -0.78969171703E+02  0.97489113243E+03  0.90671148467E+03 0.  0.
         23    2    4    4    0    0  0.32799121602E+03  0.12595788111E+03  0.32720172683E+03  0.48859695553E+03  0.90677391424E+02 0.  0.
         23    2    4    4    0    0 -0.16234520388E+01 -0.25059718554E+03 -0.40617089853E+03  0.48629417690E+03  0.93304033558E+02 0.  0.
          3    1    3    3  502    0 -0.20480500851E+03  0.64807047724E+02 -0.23609696078E+03  0.31919714885E+03  0.00000000000E+00 0. -1.
         -4    1    3    3    0  502 -0.12156275547E+03  0.59832256698E+02 -0.72833270663E+02  0.15382486072E+03  0.00000000000E+00 0.  1.
         11    1    5    5    0    0  0.54188578126E+02  0.33533228529E+02  0.19894722518E+02  0.66758365759E+02  0.00000000000E+00 0. -1.
        -11    1    5    5    0    0  0.27380263789E+03  0.92424652585E+02  0.30730700431E+03  0.42183858977E+03  0.00000000000E+00 0.  1.
          1    1    6    6  503    0  0.31499964246E+02 -0.72347887995E+02 -0.75645833318E+02  0.10931036887E+03  0.00000000000E+00 0. -1.
         -1    1    6    6    0  503 -0.33123416285E+02 -0.17824929754E+03 -0.33052506521E+03  0.37698380803E+03  0.00000000000E+00 0.  1.
<mgrwt>
<rscale>  0 0.13949862E+04</rscale>
<asrwt>0</asrwt>
<pdfrwt beam="1">  1        1 0.14121635E+00 0.13949862E+04</pdfrwt>
<pdfrwt beam="2">  1       -4 0.81539519E-01 0.13949862E+04</pdfrwt>
<totfact> 0.11080197E+01</totfact>
</mgrwt>
</event>
<event>
12    4  0.4320235E-008  0.4529604E+04  0.7818608E-02  0.7905474E-01
          1   -1    0    0  501    0  0.00000000000E+00  0.00000000000E+00  0.25714485088E+04  0.25714485088E+04  0.00000000000E+00 0. -1.
         -2   -1    0    0    0  501 -0.00000000000E+00 -0.00000000000E+00 -0.19947231610E+04  0.19947231610E+04  0.00000000000E+00 0.  1.
        -24    2    1    2    0    0  0.74457251805E+03 -0.18797939511E+04 -0.52896444994E+03  0.20915521647E+04  0.82301490061E+02 0.  0.
        254    2    1    2    0    0 -0.74457251805E+03  0.18797939511E+04  0.11056897977E+04  0.24746195050E+04  0.90176395616E+03 0.  0.
         23    2    4    4    0    0 -0.54123311607E+03  0.17834013849E+04  0.11950070748E+04  0.22157601059E+04  0.89984180178E+02 0.  0.
         23    2    4    4    0    0 -0.20333940197E+03  0.96392566222E+02 -0.89317277105E+02  0.25885939908E+03  0.91608805712E+02 0.  0.
          3    1    3    3  502    0  0.91508135175E+02 -0.20308774755E+03 -0.82998370638E+02  0.23771222421E+03  0.00000000000E+00 0. -1.
         -4    1    3    3    0  502  0.65306438287E+03 -0.16767062035E+04 -0.44596607930E+03  0.18538399405E+04  0.00000000000E+00 0.  1.
         11    1    5    5    0    0 -0.10133411990E+02  0.57636286803E+02  0.21797444999E+02  0.62448028019E+02  0.00000000000E+00 0.  1.
        -11    1    5    5    0    0 -0.53109970408E+03  0.17257650981E+04  0.11732096298E+04  0.21533120779E+04  0.00000000000E+00 0. -1.
          4    1    6    6  503    0 -0.13896497445E+03  0.99075680907E+02 -0.34177224494E+02  0.17405555821E+03  0.00000000000E+00 0.  1.
         -4    1    6    6    0  503 -0.64374427525E+02 -0.26831146852E+01 -0.55140052611E+02  0.84803840866E+02  0.00000000000E+00 0. -1.
<mgrwt>
<rscale>  0 0.45296039E+04</rscale>
<asrwt>0</asrwt>
<pdfrwt beam="1">  1        1 0.39560746E+00 0.45296039E+04</pdfrwt>
<pdfrwt beam="2">  1       -2 0.30688049E+00 0.45296039E+04</pdfrwt>
<totfact> 0.22974025E-02</totfact>
</mgrwt>
</event>
<event>
12    4  0.4320235E-008  0.1280503E+04  0.7818608E-02  0.9045171E-01
         -2   -1    0    0    0  501 -0.00000000000E+00  0.00000000000E+00  0.20830472331E+03  0.20830472331E+03  0.00000000000E+00 0.  1.
          1   -1    0    0  501    0  0.00000000000E+00 -0.00000000000E+00 -0.19678948960E+04  0.19678948960E+04  0.00000000000E+00 0. -1.
        -24    2    1    2    0    0  0.29205437194E+03 -0.34798497830E+02 -0.22644412427E+03  0.37991347117E+03  0.80935854466E+02 0.  0.
        254    2    1    2    0    0 -0.29205437194E+03  0.34798497830E+02 -0.15331460484E+04  0.17962861481E+04  0.88859463683E+03 0.  0.
         23    2    4    4    0    0 -0.23554210560E+02 -0.38241976327E+03 -0.42815059625E+03  0.58162996824E+03  0.90447834184E+02 0.  0.
         23    2    4    4    0    0 -0.26850016138E+03  0.41721826110E+03 -0.11049954521E+04  0.12146561799E+04  0.90616069296E+02 0.  0.
          3    1    3    3  502    0  0.68056855894E+02 -0.16748224472E+02 -0.99827886979E+02  0.12197477475E+03  0.00000000000E+00 0. -1.
         -4    1    3    3    0  502  0.22399751605E+03 -0.18050273358E+02 -0.12661623729E+03  0.25793869642E+03  0.00000000000E+00 0.  1.
         11    1    5    5    0    0  0.86821611506E+01 -0.96827598780E+02 -0.58737396886E+02  0.11358276982E+03  0.00000000000E+00 0. -1.
        -11    1    5    5    0    0 -0.32236371711E+02 -0.28559216449E+03 -0.36941319937E+03  0.46804719841E+03  0.00000000000E+00 0.  1.
          2    1    6    6  503    0 -0.18844317379E+03  0.31091237782E+03 -0.89524087296E+03  0.96624715112E+03  0.00000000000E+00 0. -1.
         -2    1    6    6    0  503 -0.80056987593E+02  0.10630588328E+03 -0.20975457916E+03  0.24840902875E+03  0.00000000000E+00 0.  1.
<mgrwt>
<rscale>  0 0.12805027E+04</rscale>
<asrwt>0</asrwt>
<pdfrwt beam="1">  1        1 0.30275307E+00 0.12805027E+04</pdfrwt>
<pdfrwt beam="2">  1       -2 0.32046879E-01 0.12805027E+04</pdfrwt>
<totfact> 0.24547471E+01</totfact>
</mgrwt>
</event>
<event>
12    4  0.4320235E-008  0.1775208E+04  0.7818608E-02  0.8719596E-01
          3   -1    0    0  501    0  0.00000000000E+00  0.00000000000E+00  0.47989483419E+03  0.47989483419E+03  0.00000000000E+00 0. -1.
         -4   -1    0    0    0  501 -0.00000000000E+00 -0.00000000000E+00 -0.16416940566E+04  0.16416940566E+04  0.00000000000E+00 0.  1.
        -24    2    1    2    0    0  0.12043971537E+03  0.41047552376E+03 -0.10328983462E+04  0.11208255682E+04  0.79844099634E+02 0.  0.
        254    2    1    2    0    0 -0.12043971537E+03 -0.41047552376E+03 -0.12890087620E+03  0.10007633225E+04  0.89549757742E+03 0.  0.
         23    2    4    4    0    0  0.11374195300E+03 -0.26701450655E+03  0.33557489328E+03  0.45340905291E+03  0.93462728820E+02 0.  0.
         23    2    4    4    0    0 -0.23418166837E+03 -0.14346101721E+03 -0.46447576948E+03  0.54735426961E+03  0.91852266007E+02 0.  0.
          3    1    3    3  502    0 -0.86641358981E+01  0.76928058620E+01 -0.19217356894E+02  0.22439993736E+02  0.00000000000E+00 0. -1.
         -4    1    3    3    0  502  0.12910385127E+03  0.40278271789E+03 -0.10136809893E+04  0.10983855745E+04  0.00000000000E+00 0.  1.
         11    1    5    5    0    0  0.74819155049E+00 -0.10430593314E+03  0.14419549163E+03  0.17796805131E+03  0.00000000000E+00 0. -1.
        -11    1    5    5    0    0  0.11299376145E+03 -0.16270857341E+03  0.19137940164E+03  0.27544100160E+03  0.00000000000E+00 0.  1.
          1    1    6    6  503    0  0.16743814858E+01 -0.24995734331E+02 -0.50979203667E+02  0.56802020163E+02  0.00000000000E+00 0. -1.
         -1    1    6    6    0  503 -0.23585604986E+03 -0.11846528288E+03 -0.41349656581E+03  0.49055224945E+03  0.00000000000E+00 0.  1.
<mgrwt>
<rscale>  0 0.17752076E+04</rscale>
<asrwt>0</asrwt>
<pdfrwt beam="1">  1        3 0.73829976E-01 0.17752076E+04</pdfrwt>
<pdfrwt beam="2">  1       -4 0.25256831E+00 0.17752076E+04</pdfrwt>
<totfact> 0.22887517E-01</totfact>
</mgrwt>
</event>
<event>
12    4  0.4320235E-008  0.1371169E+04  0.7818608E-02  0.8974956E-01
          1   -1    0    0  501    0  0.00000000000E+00  0.00000000000E+00  0.54090234915E+03  0.54090234915E+03  0.00000000000E+00 0. -1.
         -2   -1    0    0    0  501 -0.00000000000E+00 -0.00000000000E+00 -0.86896669463E+03  0.86896669463E+03  0.00000000000E+00 0.  1.
        -24    2    1    2    0    0  0.23632373038E+03 -0.23649903439E+03 -0.28800340728E+03  0.44851269767E+03  0.80230783162E+02 0.  0.
        254    2    1    2    0    0 -0.23632373038E+03  0.23649903439E+03 -0.40060938199E+02  0.96135634610E+03  0.90045568831E+03 0.  0.
         23    2    4    4    0    0 -0.23053515596E+03 -0.31133687315E+03 -0.75377201562E+02  0.40507783975E+03  0.91264598950E+02 0.  0.
         23    2    4    4    0    0 -0.57885744134E+01  0.54783590754E+03  0.35316263363E+02  0.55627850636E+03  0.89670781169E+02 0.  0.
          3    1    3    3  502    0 -0.59323056741E+01 -0.12077584749E+02 -0.88925248010E+01  0.16128772467E+02  0.00000000000E+00 0. -1.
         -4    1    3    3    0  502  0.24225603605E+03 -0.22442144964E+03 -0.27911088248E+03  0.43238392521E+03  0.00000000000E+00 0.  1.
         11    1    5    5    0    0 -0.11851346896E+03 -0.22795909167E+03 -0.32349077837E+02  0.25895415161E+03  0.00000000000E+00 0.  1.
        -11    1    5    5    0    0 -0.11202168700E+03 -0.83377781482E+02 -0.43028123725E+02  0.14612368814E+03  0.00000000000E+00 0. -1.
          4    1    6    6  503    0 -0.58600367549E+01  0.44470623240E+03  0.63775229803E+02  0.44929417212E+03  0.00000000000E+00 0. -1.
         -4    1    6    6    0  503  0.71462341463E-01  0.10312967514E+03 -0.28458966441E+02  0.10698433423E+03  0.00000000000E+00 0.  1.
<mgrwt>
<rscale>  0 0.13711690E+04</rscale>
<asrwt>0</asrwt>
<pdfrwt beam="1">  1        1 0.83215747E-01 0.13711690E+04</pdfrwt>
<pdfrwt beam="2">  1       -2 0.13368718E+00 0.13711690E+04</pdfrwt>
<totfact> 0.13724947E+01</totfact>
</mgrwt>
</event>
<event>
12    4  0.4320235E-008  0.2121183E+04  0.7818608E-02  0.8551969E-01
          1   -1    0    0  501    0  0.00000000000E+00  0.00000000000E+00  0.17557805268E+04  0.17557805268E+04  0.00000000000E+00 0. -1.
         -2   -1    0    0    0  501 -0.00000000000E+00 -0.00000000000E+00 -0.64065775458E+03  0.64065775458E+03  0.00000000000E+00 0.  1.
        -24    2    1    2    0    0  0.77685123338E+03 -0.18807827566E+02  0.89875208680E+03  0.11907432518E+04  0.79136622764E+02 0.  0.
        254    2    1    2    0    0 -0.77685123338E+03  0.18807827566E+02  0.21637068540E+03  0.12056950295E+04  0.89612089450E+03 0.  0.
         23    2    4    4    0    0 -0.65206146379E+03  0.24852160356E+03 -0.17621341539E+03  0.72532412702E+03  0.89982117562E+02 0.  0.
         23    2    4    4    0    0 -0.12478976959E+03 -0.22971377599E+03  0.39258410080E+03  0.48037090251E+03  0.91066032696E+02 0.  0.
          3    1    3    3  502    0  0.62172091631E+03  0.16614981737E+02  0.71129165697E+03  0.94485383878E+03  0.00000000000E+00 0. -1.
         -4    1    3    3    0  502  0.15513031707E+03 -0.35422809303E+02  0.18746042983E+03  0.24588941305E+03  0.00000000000E+00 0.  1.
         11    1    5    5    0    0 -0.26029830067E+03  0.90990079008E+02 -0.11457409051E+03  0.29859943407E+03  0.00000000000E+00 0.  1.
        -11    1    5    5    0    0 -0.39176316312E+03  0.15753152455E+03 -0.61639324883E+02  0.42672469295E+03  0.00000000000E+00 0. -1.
          4    1    6    6  503    0 -0.48900496927E+02 -0.27461772380E+02  0.48759388836E+02  0.74316118989E+02  0.00000000000E+00 0. -1.
         -4    1    6    6    0  503 -0.75889272664E+02 -0.20225200361E+03  0.34382471196E+03  0.40605478353E+03  0.00000000000E+00 0.  1.
<mgrwt>
<rscale>  0 0.21211831E+04</rscale>
<asrwt>0</asrwt>
<pdfrwt beam="1">  1        1 0.27012008E+00 0.21211831E+04</pdfrwt>
<pdfrwt beam="2">  1       -2 0.98562732E-01 0.21211831E+04</pdfrwt>
<totfact> 0.30085670E+00</totfact>
</mgrwt>
</event>
<event>
12    4  0.4320235E-008  0.1495829E+04  0.7818608E-02  0.8887231E-01
         -2   -1    0    0    0  501 -0.00000000000E+00  0.00000000000E+00  0.45928606847E+03  0.45928606847E+03  0.00000000000E+00 0.  1.
          1   -1    0    0  501    0  0.00000000000E+00 -0.00000000000E+00 -0.12179253944E+04  0.12179253944E+04  0.00000000000E+00 0. -1.
        -24    2    1    2    0    0 -0.10096516429E+03 -0.14892472259E+03  0.25342514566E+03  0.32053317477E+03  0.78387972750E+02 0.  0.
        254    2    1    2    0    0  0.10096516429E+03  0.14892472259E+03 -0.10120644716E+04  0.13566782881E+04  0.88539761991E+03 0.  0.
         23    2    4    4    0    0  0.45944703190E+03  0.63294881076E+02 -0.77819081042E+03  0.91089464082E+03  0.95133023449E+02 0.  0.
         23    2    4    4    0    0 -0.35848186760E+03  0.85629841519E+02 -0.23387366116E+03  0.44578364728E+03  0.90467959175E+02 0.  0.
          1    1    3    3  502    0 -0.21504783836E+02 -0.49808277000E+02  0.26290705555E+02  0.60286991832E+02  0.00000000000E+00 0. -1.
         -2    1    3    3    0  502 -0.79460380456E+02 -0.99116445595E+02  0.22713444011E+03  0.26024618294E+03  0.00000000000E+00 0.  1.
         11    1    5    5    0    0  0.36392150054E+03  0.88159905303E+02 -0.62845142895E+03  0.73154782893E+03  0.00000000000E+00 0. -1.
        -11    1    5    5    0    0  0.95525531352E+02 -0.24865024227E+02 -0.14973938147E+03  0.17934681189E+03  0.00000000000E+00 0.  1.
          1    1    6    6  503    0 -0.34174723108E+03  0.57177688565E+02 -0.21390747823E+03  0.40720617291E+03  0.00000000000E+00 0. -1.
         -1    1    6    6    0  503 -0.16734636528E+02  0.28452152954E+02 -0.19966182931E+02  0.38577474364E+02  0.00000000000E+00 0.  1.
<mgrwt>
<rscale>  0 0.14958291E+04</rscale>
<asrwt>0</asrwt>
<pdfrwt beam="1">  1        1 0.18737313E+00 0.14958291E+04</pdfrwt>
<pdfrwt beam="2">  1       -2 0.70659397E-01 0.14958291E+04</pdfrwt>
<totfact> 0.16026075E+01</totfact>
</mgrwt>
</event>
<event>
12    4  0.4320235E-008  0.1576281E+04  0.7818608E-02  0.8835254E-01
          1   -1    0    0  501    0  0.00000000000E+00  0.00000000000E+00  0.23445834132E+04  0.23445834132E+04  0.00000000000E+00 0. -1.
         -2   -1    0    0    0  501 -0.00000000000E+00 -0.00000000000E+00 -0.26493632006E+03  0.26493632006E+03  0.00000000000E+00 0.  1.
        -24    2    1    2    0    0  0.15430630568E+03 -0.36538328310E+03  0.12527688709E+04  0.13165112325E+04  0.80352981595E+02 0.  0.
        254    2    1    2    0    0 -0.15430630568E+03  0.36538328310E+03  0.82687822217E+03  0.12930085008E+04  0.91149767374E+03 0.  0.
         23    2    4    4    0    0 -0.25717665325E+03  0.55244643610E+02  0.90319858188E+03  0.94507424068E+03  0.90586094178E+02 0.  0.
         23    2    4    4    0    0  0.10287034757E+03  0.31013863949E+03 -0.76320359709E+02  0.34793426010E+03  0.92006347237E+02 0.  0.
          1    1    3    3  502    0  0.15677330708E+03 -0.36069396385E+03  0.11855194426E+04  0.12490533832E+04  0.00000000000E+00 0. -1.
         -2    1    3    3    0  502 -0.24670013980E+01 -0.46893192523E+01  0.67249428327E+02  0.67457849219E+02  0.00000000000E+00 0.  1.
         11    1    5    5    0    0 -0.13298773682E+03  0.47941681640E+02  0.61734134670E+03  0.63332020443E+03  0.00000000000E+00 0. -1.
        -11    1    5    5    0    0 -0.12418891643E+03  0.73029619700E+01  0.28585723518E+03  0.31175403625E+03  0.00000000000E+00 0.  1.
          1    1    6    6  503    0 -0.16647391706E+01  0.13796064777E+03 -0.34315746419E+02  0.14217412613E+03  0.00000000000E+00 0. -1.
         -1    1    6    6    0  503  0.10453508674E+03  0.17217799172E+03 -0.42004613291E+02  0.20576013397E+03  0.00000000000E+00 0.  1.
<mgrwt>
<rscale>  0 0.15762808E+04</rscale>
<asrwt>0</asrwt>
<pdfrwt beam="1">  1        1 0.36070513E+00 0.15762808E+04</pdfrwt>
<pdfrwt beam="2">  1       -2 0.40759435E-01 0.15762808E+04</pdfrwt>
<totfact> 0.83583632E+00</totfact>
</mgrwt>
</event>
<event>
12    4  0.4320235E-008  0.2601230E+04  0.7818608E-02  0.8367783E-01
         -2   -1    0    0    0  501 -0.00000000000E+00  0.00000000000E+00  0.11366398772E+04  0.11366398772E+04  0.00000000000E+00 0.  1.
          1   -1    0    0  501    0  0.00000000000E+00 -0.00000000000E+00 -0.14882457467E+04  0.14882457467E+04  0.00000000000E+00 0. -1.
        -24    2    1    2    0    0 -0.57767727782E+03 -0.43075297575E+03  0.74086151823E+03  0.10365104577E+04  0.78860486225E+02 0.  0.
        254    2    1    2    0    0  0.57767727782E+03  0.43075297575E+03 -0.10924673877E+04  0.15883751662E+04  0.90010638936E+03 0.  0.
         23    2    4    4    0    0  0.27914101180E+03 -0.18984454059E+03 -0.71869343835E+03  0.79917208497E+03  0.90526841389E+02 0.  0.
         23    2    4    4    0    0  0.29853626601E+03  0.62059751634E+03 -0.37377394934E+03  0.78920308128E+03  0.94177273710E+02 0.  0.
          1    1    3    3  502    0 -0.52337735439E+02 -0.70886966524E+02  0.88591209977E+02  0.12495040240E+03  0.00000000000E+00 0. -1.
         -2    1    3    3    0  502 -0.52533954238E+03 -0.35986600923E+03  0.65227030826E+03  0.91156005530E+03  0.00000000000E+00 0.  1.
         11    1    5    5    0    0  0.16003307183E+03 -0.75722397439E+02 -0.45383643866E+03  0.48714677317E+03  0.00000000000E+00 0.  1.
        -11    1    5    5    0    0  0.11910793998E+03 -0.11412214315E+03 -0.26485699968E+03  0.31202531180E+03  0.00000000000E+00 0. -1.
          3    1    6    6  503    0  0.96798513907E+01  0.85376474170E+02 -0.32965654819E+02  0.92030300784E+02  0.00000000000E+00 0. -1.
         -3    1    6    6    0  503  0.28885641462E+03  0.53522104217E+03 -0.34080829452E+03  0.69717278049E+03  0.00000000000E+00 0.  1.
<mgrwt>
<rscale>  0 0.26012301E+04</rscale>
<asrwt>0</asrwt>
<pdfrwt beam="1">  1        1 0.22896088E+00 0.26012301E+04</pdfrwt>
<pdfrwt beam="2">  1       -2 0.17486767E+00 0.26012301E+04</pdfrwt>
<totfact> 0.10149963E+00</totfact>
</mgrwt>
</event>
<event>
12    4  0.4320235E-008  0.2150085E+04  0.7818608E-02  0.8539496E-01
          1   -1    0    0  501    0  0.00000000000E+00  0.00000000000E+00  0.12715442290E+04  0.12715442290E+04  0.00000000000E+00 0. -1.
         -2   -1    0    0    0  501 -0.00000000000E+00 -0.00000000000E+00 -0.90890804575E+03  0.90890804575E+03  0.00000000000E+00 0.  1.
        -24    2    1    2    0    0 -0.17796457655E+03  0.65832601142E+03  0.73226690615E+03  0.10036298554E+04  0.77417936933E+02 0.  0.
        254    2    1    2    0    0  0.17796457655E+03 -0.65832601142E+03 -0.36963072285E+03  0.11768224194E+04  0.88499695352E+03 0.  0.
         23    2    4    4    0    0  0.44171587095E+03 -0.50506676079E+03  0.16679679031E+02  0.67581205616E+03  0.78983416347E+02 0.  0.
         23    2    4    4    0    0 -0.26375129440E+03 -0.15325925062E+03 -0.38631040188E+03  0.50101036325E+03  0.93394401791E+02 0.  0.
          1    1    3    3  502    0 -0.18197879138E+03  0.62313828891E+03  0.67666178075E+03  0.93770399016E+03  0.00000000000E+00 0. -1.
         -2    1    3    3    0  502  0.40142148274E+01  0.35187722503E+02  0.55605125393E+02  0.65925865225E+02  0.00000000000E+00 0.  1.
         11    1    5    5    0    0  0.36200054006E+03 -0.41036959184E+03  0.44223684777E+02  0.54900211949E+03  0.00000000000E+00 0. -1.
        -11    1    5    5    0    0  0.79715330892E+02 -0.94697168948E+02 -0.27544005746E+02  0.12680993667E+03  0.00000000000E+00 0.  1.
          3    1    6    6  503    0 -0.22410158958E+03 -0.89984885072E+02 -0.26473019131E+03  0.35833067994E+03  0.00000000000E+00 0. -1.
         -3    1    6    6    0  503 -0.39649704817E+02 -0.63274365552E+02 -0.12158021056E+03  0.14267968331E+03  0.00000000000E+00 0.  1.
<mgrwt>
<rscale>  0 0.21500854E+04</rscale>
<asrwt>0</asrwt>
<pdfrwt beam="1">  1        1 0.19562219E+00 0.21500854E+04</pdfrwt>
<pdfrwt beam="2">  1       -2 0.13983201E+00 0.21500854E+04</pdfrwt>
<totfact> 0.27445964E+00</totfact>
</mgrwt>
</event>
<event>
12    4  0.4320235E-008  0.1602711E+04  0.7818608E-02  0.8818884E-01
          1   -1    0    0  501    0  0.00000000000E+00  0.00000000000E+00  0.82721126931E+03  0.82721126931E+03  0.00000000000E+00 0. -1.
         -2   -1    0    0    0  501 -0.00000000000E+00 -0.00000000000E+00 -0.77630827934E+03  0.77630827934E+03  0.00000000000E+00 0.  1.
        -24    2    1    2    0    0  0.36302013203E+03  0.29227616045E+03  0.34341238758E+03  0.58435795747E+03  0.79581306136E+02 0.  0.
        254    2    1    2    0    0 -0.36302013203E+03 -0.29227616045E+03 -0.29250939761E+03  0.10191615912E+04  0.85785758203E+03 0.  0.
         23    2    4    4    0    0 -0.27771926917E+03  0.17154664884E+03 -0.40232616763E+03  0.52618792000E+03  0.91930064715E+02 0.  0.
         23    2    4    4    0    0 -0.85300862860E+02 -0.46382280929E+03  0.10981677002E+03  0.49297367119E+03  0.92495847941E+02 0.  0.
          1    1    3    3  502    0  0.29119598420E+03  0.23984157987E+03  0.23632642885E+03  0.44516206670E+03  0.00000000000E+00 0. -1.
         -2    1    3    3    0  502  0.71824147833E+02  0.52434580579E+02  0.10708595872E+03  0.13919589077E+03  0.00000000000E+00 0.  1.
         11    1    5    5    0    0 -0.95483897602E+02  0.66599746234E+02 -0.79730748221E+02  0.14110171194E+03  0.00000000000E+00 0.  1.
        -11    1    5    5    0    0 -0.18223537157E+03  0.10494690260E+03 -0.32259541941E+03  0.38508620806E+03  0.00000000000E+00 0. -1.
          3    1    6    6  503    0 -0.94124946693E+02 -0.26479230562E+03  0.73334500407E+02  0.29043488023E+03  0.00000000000E+00 0. -1.
         -3    1    6    6    0  503  0.88240838324E+01 -0.19903050367E+03  0.36482269617E+02  0.20253879096E+03  0.00000000000E+00 0.  1.
<mgrwt>
<rscale>  0 0.16027114E+04</rscale>
<asrwt>0</asrwt>
<pdfrwt beam="1">  1        1 0.12726327E+00 0.16027114E+04</pdfrwt>
<pdfrwt beam="2">  1       -2 0.11943204E+00 0.16027114E+04</pdfrwt>
<totfact> 0.94560032E+00</totfact>
</mgrwt>
</event>
<event>
12    4  0.4320235E-008  0.1209074E+04  0.7818608E-02  0.9104951E-01
          1   -1    0    0  501    0  0.00000000000E+00  0.00000000000E+00  0.14626060026E+04  0.14626060026E+04  0.00000000000E+00 0. -1.
         -2   -1    0    0    0  501 -0.00000000000E+00 -0.00000000000E+00 -0.24987250467E+03  0.24987250467E+03  0.00000000000E+00 0.  1.
        -24    2    1    2    0    0  0.24693104811E+03  0.54789205535E+02  0.45212372788E+03  0.52445631299E+03  0.81619601561E+02 0.  0.
        254    2    1    2    0    0 -0.24693104811E+03 -0.54789205535E+02  0.76060977008E+03  0.11880221943E+04  0.87686527601E+03 0.  0.
         23    2    4    4    0    0 -0.18683179844E+03 -0.16820811062E+03  0.92518948865E+03  0.96305657355E+03  0.91116873098E+02 0.  0.
         23    2    4    4    0    0 -0.60099249674E+02  0.11341890509E+03 -0.16457971857E+03  0.22496562076E+03  0.83948072751E+02 0.  0.
          1    1    3    3  502    0  0.23765027700E+03  0.66563968851E+02  0.39811951864E+03  0.46840961479E+03  0.00000000000E+00 0. -1.
         -2    1    3    3    0  502  0.92807711168E+01 -0.11774763316E+02  0.54004209235E+02  0.56046698197E+02  0.00000000000E+00 0.  1.
         11    1    5    5    0    0 -0.10428026739E+03 -0.76553843778E+02  0.62976982484E+03  0.64291904424E+03  0.00000000000E+00 0. -1.
        -11    1    5    5    0    0 -0.82551531047E+02 -0.91654266844E+02  0.29541966381E+03  0.32013752932E+03  0.00000000000E+00 0.  1.
          3    1    6    6  503    0 -0.69909700528E+02  0.11949194431E+03 -0.16208649605E+03  0.21316126098E+03  0.00000000000E+00 0. -1.
         -3    1    6    6    0  503  0.98104508539E+01 -0.60730392208E+01 -0.24932225238E+01  0.11804359783E+02  0.00000000000E+00 0.  1.
<mgrwt>
<rscale>  0 0.12090741E+04</rscale>
<asrwt>0</asrwt>
<pdfrwt beam="1">  1        1 0.22501630E+00 0.12090741E+04</pdfrwt>
<pdfrwt beam="2">  1       -2 0.38441925E-01 0.12090741E+04</pdfrwt>
<totfact> 0.38519256E+01</totfact>
</mgrwt>
</event>
<event>
12    4  0.4320235E-008  0.2054849E+04  0.7818608E-02  0.8581398E-01
          1   -1    0    0  501    0  0.00000000000E+00  0.00000000000E+00  0.72910285449E+03  0.72910285449E+03  0.00000000000E+00 0. -1.
         -2   -1    0    0    0  501 -0.00000000000E+00 -0.00000000000E+00 -0.14478083335E+04  0.14478083335E+04  0.00000000000E+00 0.  1.
        -24    2    1    2    0    0 -0.54854748206E+03 -0.61036233000E+03 -0.34563501978E+03  0.89404726259E+03  0.80065141486E+02 0.  0.
        254    2    1    2    0    0  0.54854748206E+03  0.61036233000E+03 -0.37307045928E+03  0.12828639254E+04  0.91274956569E+03 0.  0.
         23    2    4    4    0    0  0.17781244534E+03  0.45695231236E+02 -0.54280569343E+03  0.58027428881E+03  0.91514531916E+02 0.  0.
         23    2    4    4    0    0  0.37073503672E+03  0.56466709876E+03  0.16973523416E+03  0.70258963664E+03  0.92351220431E+02 0.  0.
          3    1    3    3  502    0 -0.35827607249E+03 -0.40772512652E+03 -0.18748599409E+03  0.57424082134E+03  0.00000000000E+00 0. -1.
         -4    1    3    3    0  502 -0.19027140957E+03 -0.20263720348E+03 -0.15814902570E+03  0.31980644125E+03  0.00000000000E+00 0.  1.
         11    1    5    5    0    0  0.86989048823E+02  0.60573220649E+02 -0.21374696002E+03  0.23858745272E+03  0.00000000000E+00 0. -1.
        -11    1    5    5    0    0  0.90823396521E+02 -0.14877989413E+02 -0.32905873341E+03  0.34168683609E+03  0.00000000000E+00 0.  1.
          4    1    6    6  503    0  0.28622706600E+03  0.47751806141E+03  0.11081689512E+03  0.56765290145E+03  0.00000000000E+00 0.  1.
         -4    1    6    6    0  503  0.84507970722E+02  0.87149037358E+02  0.58918339039E+02  0.13493673519E+03  0.00000000000E+00 0. -1.
<mgrwt>
<rscale>  0 0.20548491E+04</rscale>
<asrwt>0</asrwt>
<pdfrwt beam="1">  1        1 0.11216967E+00 0.20548491E+04</pdfrwt>
<pdfrwt beam="2">  1       -2 0.22273974E+00 0.20548491E+04</pdfrwt>
<totfact> 0.19650871E+00</totfact>
</mgrwt>
</event>
<event>
12    4  0.4320235E-008  0.1059099E+04  0.7818608E-02  0.9246000E-01
          1   -1    0    0  501    0  0.00000000000E+00  0.00000000000E+00  0.35121708165E+03  0.35121708165E+03  0.00000000000E+00 0. -1.
         -2   -1    0    0    0  501 -0.00000000000E+00 -0.00000000000E+00 -0.79843047986E+03  0.79843047986E+03  0.00000000000E+00 0.  1.
        -24    2    1    2    0    0  0.68105563898E+02  0.85650941411E+02 -0.13024224672E+03  0.18545103670E+03  0.73855213667E+02 0.  0.
        254    2    1    2    0    0 -0.68105563898E+02 -0.85650941411E+02 -0.31697115149E+03  0.96419652481E+03  0.90400761942E+03 0.  0.
         23    2    4    4    0    0 -0.13681337982E+03  0.27717697346E+03 -0.45696187633E+03  0.55906979644E+03  0.90553328831E+02 0.  0.
         23    2    4    4    0    0  0.68707815925E+02 -0.36282791487E+03  0.13999072484E+03  0.40512672836E+03  0.90362620660E+02 0.  0.
          1    1    3    3  502    0  0.42468107868E+02  0.54756425994E+02 -0.26461245574E+02  0.74175493870E+02  0.00000000000E+00 0. -1.
         -2    1    3    3    0  502  0.25637456029E+02  0.30894515417E+02 -0.10378100114E+03  0.11127554283E+03  0.00000000000E+00 0.  1.
         11    1    5    5    0    0 -0.52403979822E+01  0.57720831894E+02 -0.42061459295E+02  0.71612307347E+02  0.00000000000E+00 0.  1.
        -11    1    5    5    0    0 -0.13157298184E+03  0.21945614157E+03 -0.41490041703E+03  0.48745748910E+03  0.00000000000E+00 0. -1.
          3    1    6    6  503    0  0.75646232917E+02 -0.33202600294E+03  0.10149230463E+03  0.35533689237E+03  0.00000000000E+00 0. -1.
         -3    1    6    6    0  503 -0.69384169923E+01 -0.30801911935E+02  0.38498420212E+02  0.49789835991E+02  0.00000000000E+00 0.  1.
<mgrwt>
<rscale>  0 0.10590985E+04</rscale>
<asrwt>0</asrwt>
<pdfrwt beam="1">  1        1 0.54033397E-01 0.10590985E+04</pdfrwt>
<pdfrwt beam="2">  1       -2 0.12283546E+00 0.10590985E+04</pdfrwt>
<totfact> 0.31139042E+01</totfact>
</mgrwt>
</event>
<event>
12    4  0.4320235E-008  0.2397768E+04  0.7818608E-02  0.8440340E-01
         -2   -1    0    0    0  501 -0.00000000000E+00  0.00000000000E+00  0.79639119805E+03  0.79639119805E+03  0.00000000000E+00 0.  1.
          1   -1    0    0  501    0  0.00000000000E+00 -0.00000000000E+00 -0.18047950172E+04  0.18047950172E+04  0.00000000000E+00 0. -1.
        -24    2    1    2    0    0 -0.63637829519E+03 -0.24604000090E+03  0.40449726551E+03  0.79717686620E+03  0.79748991023E+02 0.  0.
        254    2    1    2    0    0  0.63637829519E+03  0.24604000090E+03 -0.14129010847E+04  0.18040093491E+04  0.89030738501E+03 0.  0.
         23    2    4    4    0    0  0.55021883352E+00  0.38783586318E+03 -0.84875166199E+03  0.93813187892E+03  0.96410990013E+02 0.  0.
         23    2    4    4    0    0  0.63582807636E+03 -0.14179586229E+03 -0.56414942267E+03  0.86587747013E+03  0.84236648457E+02 0.  0.
          1    1    3    3  502    0 -0.15340708335E+03 -0.63163489507E+02  0.60157738894E+02  0.17647184812E+03  0.00000000000E+00 0. -1.
         -2    1    3    3    0  502 -0.48297121184E+03 -0.18287651139E+03  0.34433952662E+03  0.62070501809E+03  0.00000000000E+00 0.  1.
         11    1    5    5    0    0  0.24889784711E+02  0.35069360529E+02 -0.13333146388E+03  0.14009511302E+03  0.00000000000E+00 0. -1.
        -11    1    5    5    0    0 -0.24339565878E+02  0.35276650266E+03 -0.71542019811E+03  0.79803676590E+03  0.00000000000E+00 0.  1.
          4    1    6    6  503    0  0.22142480021E+03 -0.71430225073E+02 -0.15696115716E+03  0.28065641638E+03  0.00000000000E+00 0. -1.
         -4    1    6    6    0  503  0.41440327615E+03 -0.70365637216E+02 -0.40718826551E+03  0.58522105375E+03  0.00000000000E+00 0.  1.
<mgrwt>
<rscale>  0 0.23977680E+04</rscale>
<asrwt>0</asrwt>
<pdfrwt beam="1">  1        1 0.27766077E+00 0.23977680E+04</pdfrwt>
<pdfrwt beam="2">  1       -2 0.12252172E+00 0.23977680E+04</pdfrwt>
<totfact> 0.16050974E+00</totfact>
</mgrwt>
</event>
<event>
12    4  0.4320235E-008  0.1178003E+04  0.7818608E-02  0.9132331E-01
          1   -1    0    0  501    0  0.00000000000E+00  0.00000000000E+00  0.55057909413E+03  0.55057909413E+03  0.00000000000E+00 0. -1.
         -2   -1    0    0    0  501 -0.00000000000E+00 -0.00000000000E+00 -0.63010568958E+03  0.63010568958E+03  0.00000000000E+00 0.  1.
        -24    2    1    2    0    0 -0.97734996344E+02  0.59921485159E+02 -0.18243813291E+03  0.22987615151E+03  0.80104049835E+02 0.  0.
        254    2    1    2    0    0  0.97734996344E+02 -0.59921485159E+02  0.10291153746E+03  0.95080863220E+03  0.93824493424E+03 0.  0.
         23    2    4    4    0    0  0.33598943910E+03  0.15451779273E+02 -0.30514722260E+03  0.46326479932E+03  0.91497465332E+02 0.  0.
         23    2    4    4    0    0 -0.23825444276E+03 -0.75373264433E+02  0.40805876005E+03  0.48754383288E+03  0.93491865104E+02 0.  0.
          1    1    3    3  502    0 -0.60870447617E+01 -0.10328806862E+02  0.21146809005E+01  0.12174080681E+02  0.00000000000E+00 0. -1.
         -2    1    3    3    0  502 -0.91647951582E+02  0.70250292022E+02 -0.18455281381E+03  0.21770207083E+03  0.00000000000E+00 0.  1.
         11    1    5    5    0    0  0.33428974595E+03  0.23229909789E+02 -0.27933855297E+03  0.43625599151E+03  0.00000000000E+00 0. -1.
        -11    1    5    5    0    0  0.16996931465E+01 -0.77781305154E+01 -0.25808669629E+02  0.27008807807E+02  0.00000000000E+00 0.  1.
          1    1    6    6  503    0 -0.19401483639E+03 -0.19021750585E+02  0.30704773065E+03  0.36370577756E+03  0.00000000000E+00 0. -1.
         -1    1    6    6    0  503 -0.44239606369E+02 -0.56351513848E+02  0.10101102940E+03  0.12383805532E+03  0.00000000000E+00 0.  1.
<mgrwt>
<rscale>  0 0.11780034E+04</rscale>
<asrwt>0</asrwt>
<pdfrwt beam="1">  1        1 0.84704476E-01 0.11780034E+04</pdfrwt>
<pdfrwt beam="2">  1       -2 0.96939337E-01 0.11780034E+04</pdfrwt>
<totfact> 0.29862013E+01</totfact>
</mgrwt>
</event>
<event>
12    4  0.4320235E-008  0.1264024E+04  0.7818608E-02  0.9058591E-01
         -2   -1    0    0    0  501 -0.00000000000E+00  0.00000000000E+00  0.39819347046E+03  0.39819347046E+03  0.00000000000E+00 0.  1.
          1   -1    0    0  501    0  0.00000000000E+00 -0.00000000000E+00 -0.10031286836E+04  0.10031286836E+04  0.00000000000E+00 0. -1.
        -24    2    1    2    0    0 -0.27528917181E+03 -0.15968487844E+03 -0.15037251265E+03  0.36072706962E+03  0.78922352175E+02 0.  0.
        254    2    1    2    0    0  0.27528917181E+03  0.15968487844E+03 -0.45456270047E+03  0.10405950844E+04  0.88029966066E+03 0.  0.
         23    2    4    4    0    0  0.47784776647E+02 -0.11205457031E+03  0.22344023724E+03  0.27012470255E+03  0.90566018506E+02 0.  0.
         23    2    4    4    0    0  0.22750439517E+03  0.27173944875E+03 -0.67800293771E+03  0.77047038187E+03  0.91301960439E+02 0.  0.
          1    1    3    3  502    0 -0.63447053206E+02 -0.71702812544E+02 -0.66128199964E+02  0.11636047747E+03  0.00000000000E+00 0. -1.
         -2    1    3    3    0  502 -0.21184211861E+03 -0.87982065897E+02 -0.84244312682E+02  0.24436659214E+03  0.00000000000E+00 0.  1.
         11    1    5    5    0    0  0.89684524958E+01 -0.87029680886E+02  0.20007219256E+03  0.21836547513E+03  0.00000000000E+00 0.  1.
        -11    1    5    5    0    0  0.38816324151E+02 -0.25024889419E+02  0.23368044678E+02  0.51759227420E+02  0.00000000000E+00 0. -1.
          2    1    6    6  503    0  0.17828445065E+03  0.16352961635E+03 -0.39059233164E+03  0.45944493718E+03  0.00000000000E+00 0.  1.
         -2    1    6    6    0  503  0.49219944519E+02  0.10820983240E+03 -0.28741060607E+03  0.31102544469E+03  0.00000000000E+00 0. -1.
<mgrwt>
<rscale>  0 0.12640242E+04</rscale>
<asrwt>0</asrwt>
<pdfrwt beam="1">  1        1 0.15432749E+00 0.12640242E+04</pdfrwt>
<pdfrwt beam="2">  1       -2 0.61260534E-01 0.12640242E+04</pdfrwt>
<totfact> 0.32204365E+01</totfact>
</mgrwt>
</event>
<event>
12    4  0.4320235E-008  0.1014774E+04  0.7818608E-02  0.9292488E-01
          1   -1    0    0  501    0  0.00000000000E+00  0.00000000000E+00  0.13249811186E+04  0.13249811186E+04  0.00000000000E+00 0. -1.
         -2   -1    0    0    0  501 -0.00000000000E+00 -0.00000000000E+00 -0.19429833738E+03  0.19429833738E+03  0.00000000000E+00 0.  1.
        -24    2    1    2    0    0  0.25681266276E+02  0.92873798367E+02  0.62646222766E+02  0.14088069308E+03  0.81472391618E+02 0.  0.
        254    2    1    2    0    0 -0.25681266276E+02 -0.92873798367E+02  0.10680365584E+04  0.13783987629E+04  0.86602308830E+03 0.  0.
         23    2    4    4    0    0 -0.41886635877E+03 -0.43559124696E+02  0.35771098607E+03  0.55983393040E+03  0.90058071391E+02 0.  0.
         23    2    4    4    0    0  0.39318509250E+03 -0.49314673670E+02  0.71032557236E+03  0.81856483246E+03  0.91975606486E+02 0.  0.
          1    1    3    3  502    0 -0.27350190567E+02  0.13772693079E+02  0.10950662471E+02  0.32521331573E+02  0.00000000000E+00 0. -1.
         -2    1    3    3    0  502  0.53031456843E+02  0.79101105287E+02  0.51695560294E+02  0.10835936151E+03  0.00000000000E+00 0.  1.
         11    1    5    5    0    0 -0.21252183567E+03 -0.48707974477E+02  0.13627992533E+03  0.25711906865E+03  0.00000000000E+00 0.  1.
        -11    1    5    5    0    0 -0.20634452310E+03  0.51488497806E+01  0.22143106074E+03  0.30271486176E+03  0.00000000000E+00 0. -1.
          1    1    6    6  503    0  0.14494854735E+03 -0.32392276155E+02  0.18458421205E+03  0.23691912602E+03  0.00000000000E+00 0. -1.
         -1    1    6    6    0  503  0.24823654514E+03 -0.16922397516E+02  0.52574136031E+03  0.58164570644E+03  0.00000000000E+00 0.  1.
<mgrwt>
<rscale>  0 0.10147741E+04</rscale>
<asrwt>0</asrwt>
<pdfrwt beam="1">  1        1 0.20384324E+00 0.10147741E+04</pdfrwt>
<pdfrwt beam="2">  1       -2 0.29892053E-01 0.10147741E+04</pdfrwt>
<totfact> 0.78725620E+01</totfact>
</mgrwt>
</event>
<event>
12    4  0.4320235E-008  0.1796747E+04  0.7818608E-02  0.8708031E-01
         -4   -1    0    0    0  501 -0.00000000000E+00  0.00000000000E+00  0.21326611809E+04  0.21326611809E+04  0.00000000000E+00 0.  1.
          3   -1    0    0  501    0  0.00000000000E+00 -0.00000000000E+00 -0.37843548965E+03  0.37843548965E+03  0.00000000000E+00 0. -1.
        -24    2    1    2    0    0 -0.59716428726E+03  0.10755374141E+03  0.27797112369E+03  0.67214212945E+03  0.79587080082E+02 0.  0.
        254    2    1    2    0    0  0.59716428726E+03 -0.10755374141E+03  0.14762545675E+04  0.18389545411E+04  0.91337465627E+03 0.  0.
         23    2    4    4    0    0  0.55154613976E+03  0.21603538543E+03  0.42680419470E+03  0.73555384208E+03  0.89460616723E+02 0.  0.
         23    2    4    4    0    0  0.45618147500E+02 -0.32358912684E+03  0.10494503728E+04  0.11034006990E+04  0.96726827283E+02 0.  0.
          3    1    3    3  502    0 -0.54313472348E+03  0.77657410174E+02  0.23474934563E+03  0.59676901435E+03  0.00000000000E+00 0. -1.
         -4    1    3    3    0  502 -0.54029563771E+02  0.29896331232E+02  0.43221778054E+02  0.75373115105E+02  0.00000000000E+00 0.  1.
         11    1    5    5    0    0  0.16841009518E+03  0.90080278561E+02  0.95070362473E+02  0.21334195688E+03  0.00000000000E+00 0. -1.
        -11    1    5    5    0    0  0.38313604458E+03  0.12595510687E+03  0.33173383222E+03  0.52221188520E+03  0.00000000000E+00 0.  1.
          3    1    6    6  503    0  0.26362095311E+02 -0.17496283018E+03  0.72068507959E+03  0.74208755275E+03  0.00000000000E+00 0. -1.
         -3    1    6    6    0  503  0.19256052188E+02 -0.14862629666E+03  0.32876529326E+03  0.36131314625E+03  0.00000000000E+00 0.  1.
<mgrwt>
<rscale>  0 0.17967467E+04</rscale>
<asrwt>0</asrwt>
<pdfrwt beam="1">  1        3 0.58220846E-01 0.17967467E+04</pdfrwt>
<pdfrwt beam="2">  1       -4 0.32810171E+00 0.17967467E+04</pdfrwt>
<totfact> 0.12871040E-01</totfact>
</mgrwt>
</event>
<event>
12    4  0.4320235E-008  0.1404958E+04  0.7818608E-02  0.8950238E-01
         -2   -1    0    0    0  501 -0.00000000000E+00  0.00000000000E+00  0.45208350294E+03  0.45208350294E+03  0.00000000000E+00 0.  1.
          1   -1    0    0  501    0  0.00000000000E+00 -0.00000000000E+00 -0.10915608454E+04  0.10915608454E+04  0.00000000000E+00 0. -1.
        -24    2    1    2    0    0 -0.40430293915E+03 -0.35632136705E+02 -0.16797844355E+03  0.44601825186E+03  0.77362831624E+02 0.  0.
        254    2    1    2    0    0  0.40430293915E+03  0.35632136705E+02 -0.47149889889E+03  0.10976260965E+04  0.90429050654E+03 0.  0.
         23    2    4    4    0    0  0.44978659305E+03  0.18676369205E+03 -0.66623311777E+03  0.83041408520E+03  0.92370610783E+02 0.  0.
         23    2    4    4    0    0 -0.45483653897E+02 -0.15113155534E+03  0.19473421889E+03  0.26721201126E+03  0.92581494734E+02 0.  0.
          1    1    3    3  502    0 -0.20567217752E+03 -0.53365664960E+02 -0.69147459730E+02  0.22345091181E+03  0.00000000000E+00 0. -1.
         -2    1    3    3    0  502 -0.19863076164E+03  0.17733528255E+02 -0.98830983820E+02  0.22256734005E+03  0.00000000000E+00 0.  1.
         11    1    5    5    0    0  0.30588077365E+03  0.11690900495E+03 -0.51491184673E+03  0.61021715236E+03  0.00000000000E+00 0. -1.
        -11    1    5    5    0    0  0.14390581940E+03  0.69854687098E+02 -0.15132127104E+03  0.22019693285E+03  0.00000000000E+00 0.  1.
          2    1    6    6  503    0 -0.29219783140E+02 -0.12750185180E+03  0.90397759652E+02  0.15900400275E+03  0.00000000000E+00 0. -1.
         -2    1    6    6    0  503 -0.16263870758E+02 -0.23629703537E+02  0.10433645923E+03  0.10820800852E+03  0.00000000000E+00 0.  1.
<mgrwt>
<rscale>  0 0.14049579E+04</rscale>
<asrwt>0</asrwt>
<pdfrwt beam="1">  1        1 0.16793243E+00 0.14049579E+04</pdfrwt>
<pdfrwt beam="2">  1       -2 0.69551309E-01 0.14049579E+04</pdfrwt>
<totfact> 0.20731044E+01</totfact>
</mgrwt>
</event>
<event>
12    4  0.4320235E-008  0.1482433E+04  0.7818608E-02  0.8896220E-01
          1   -1    0    0  501    0  0.00000000000E+00  0.00000000000E+00  0.14735107518E+04  0.14735107518E+04  0.00000000000E+00 0. -1.
         -2   -1    0    0    0  501 -0.00000000000E+00 -0.00000000000E+00 -0.37285231331E+03  0.37285231331E+03  0.00000000000E+00 0.  1.
        -24    2    1    2    0    0 -0.40140914359E+02  0.29611070202E+03 -0.92260935805E+02  0.32249414312E+03  0.78724527415E+02 0.  0.
        254    2    1    2    0    0  0.40140914359E+02 -0.29611070202E+03  0.11929193743E+04  0.15238689219E+04  0.89990389317E+03 0.  0.
         23    2    4    4    0    0 -0.85477516144E+02 -0.43307568147E+02 -0.12029220147E+03  0.17757458510E+03  0.88772565092E+02 0.  0.
         23    2    4    4    0    0  0.12561843050E+03 -0.25280313387E+03  0.13132115757E+04  0.13462943368E+04  0.91073510068E+02 0.  0.
          1    1    3    3  502    0 -0.32624311765E+02  0.48923948811E+02 -0.76145539362E+00  0.58808828416E+02  0.00000000000E+00 0. -1.
         -2    1    3    3    0  502 -0.75166025946E+01  0.24718675321E+03 -0.91499480411E+02  0.26368531470E+03  0.00000000000E+00 0.  1.
         11    1    5    5    0    0  0.45499350643E+01 -0.39702906039E+02 -0.44751490840E+02  0.59997654866E+02  0.00000000000E+00 0. -1.
        -11    1    5    5    0    0 -0.90027451209E+02 -0.36046621077E+01 -0.75540710630E+02  0.11757693023E+03  0.00000000000E+00 0.  1.
          2    1    6    6  503    0 -0.64128241768E+00 -0.65095742807E+02  0.19994053958E+03  0.21027145870E+03  0.00000000000E+00 0. -1.
         -2    1    6    6    0  503  0.12625971292E+03 -0.18770739106E+03  0.11132710361E+04  0.11360228781E+04  0.00000000000E+00 0.  1.
<mgrwt>
<rscale>  0 0.14824330E+04</rscale>
<asrwt>0</asrwt>
<pdfrwt beam="1">  1        1 0.22669396E+00 0.14824330E+04</pdfrwt>
<pdfrwt beam="2">  1       -2 0.57361895E-01 0.14824330E+04</pdfrwt>
<totfact> 0.16517566E+01</totfact>
</mgrwt>
</event>
<event>
12    4  0.4320235E-008  0.1293801E+04  0.7818608E-02  0.9034495E-01
          1   -1    0    0  501    0  0.00000000000E+00  0.00000000000E+00  0.15279095141E+04  0.15279095141E+04  0.00000000000E+00 0. -1.
         -2   -1    0    0    0  501 -0.00000000000E+00 -0.00000000000E+00 -0.27389090242E+03  0.27389090242E+03  0.00000000000E+00 0.  1.
        -24    2    1    2    0    0 -0.22375948586E+03  0.22655034139E+03  0.45350966155E+03  0.55961491381E+03  0.78131132967E+02 0.  0.
        254    2    1    2    0    0  0.22375948586E+03 -0.22655034139E+03  0.80050895011E+03  0.12421855027E+04  0.89488372385E+03 0.  0.
         23    2    4    4    0    0  0.34170718913E+03  0.19019965907E+03  0.10108774119E+03  0.41445212171E+03  0.92801488998E+02 0.  0.
         23    2    4    4    0    0 -0.11794770326E+03 -0.41675000046E+03  0.69942120892E+03  0.82773338099E+03  0.91434670255E+02 0.  0.
          1    1    3    3  502    0 -0.19745479708E+03  0.18549834398E+03  0.42227567487E+03  0.50171184768E+03  0.00000000000E+00 0. -1.
         -4    1    3    3    0  502 -0.26304688781E+02  0.41051997418E+02  0.31233986677E+02  0.57903066133E+02  0.00000000000E+00 0.  1.
         11    1    5    5    0    0  0.28906714067E+03  0.19357831240E+03  0.76280702203E+02  0.35616164922E+03  0.00000000000E+00 0. -1.
        -11    1    5    5    0    0  0.52640048458E+02 -0.33786533296E+01  0.24807038987E+02  0.58290472492E+02  0.00000000000E+00 0.  1.
          2    1    6    6  503    0 -0.11347171955E+03 -0.26114518954E+03  0.49113429299E+03  0.56770197719E+03  0.00000000000E+00 0. -1.
         -2    1    6    6    0  503 -0.44759837130E+01 -0.15560481092E+03  0.20828691593E+03  0.26003140380E+03  0.00000000000E+00 0.  1.
<mgrwt>
<rscale>  0 0.12938014E+04</rscale>
<asrwt>0</asrwt>
<pdfrwt beam="1">  1        1 0.23506300E+00 0.12938014E+04</pdfrwt>
<pdfrwt beam="2">  1       -2 0.42137063E-01 0.12938014E+04</pdfrwt>
<totfact> 0.28806721E+01</totfact>
</mgrwt>
</event>
<event>
12    4  0.4320235E-008  0.1233210E+04  0.7818608E-02  0.9084274E-01
          3   -1    0    0  501    0  0.00000000000E+00  0.00000000000E+00  0.42832588245E+03  0.42832588245E+03  0.00000000000E+00 0. -1.
         -4   -1    0    0    0  501 -0.00000000000E+00 -0.00000000000E+00 -0.88764652681E+03  0.88764652681E+03  0.00000000000E+00 0.  1.
        -24    2    1    2    0    0 -0.20688146740E+03 -0.19733991298E+03 -0.20289750873E+03  0.35976177196E+03  0.80735064928E+02 0.  0.
        254    2    1    2    0    0  0.20688146740E+03  0.19733991298E+03 -0.25642313563E+03  0.95621063730E+03  0.87569570947E+03 0.  0.
         23    2    4    4    0    0  0.37068968782E+02 -0.14798904994E+03 -0.47281073652E+03  0.50521672806E+03  0.91755557825E+02 0.  0.
         23    2    4    4    0    0  0.16981249861E+03  0.34532896292E+03  0.21638760089E+03  0.45099390924E+03  0.92106107479E+02 0.  0.
          3    1    3    3  502    0 -0.76263348273E+02 -0.33899790483E+02 -0.31172558693E+02  0.89089968572E+02  0.00000000000E+00 0. -1.
         -4    1    3    3    0  502 -0.13061811912E+03 -0.16344012249E+03 -0.17172495004E+03  0.27067180339E+03  0.00000000000E+00 0.  1.
         11    1    5    5    0    0 -0.94997146818E+01 -0.12056163037E+03 -0.36683675569E+03  0.38625711207E+03  0.00000000000E+00 0. -1.
        -11    1    5    5    0    0  0.46568683464E+02 -0.27427419574E+02 -0.10597398083E+03  0.11895961599E+03  0.00000000000E+00 0.  1.
          1    1    6    6  503    0  0.14043460575E+03  0.21730590768E+03  0.17834162428E+03  0.31424428548E+03  0.00000000000E+00 0. -1.
         -1    1    6    6    0  503  0.29377892860E+02  0.12802305524E+03  0.38045976610E+02  0.13674962376E+03  0.00000000000E+00 0.  1.
<mgrwt>
<rscale>  0 0.12332104E+04</rscale>
<asrwt>0</asrwt>
<pdfrwt beam="1">  1        3 0.65896291E-01 0.12332104E+04</pdfrwt>
<pdfrwt beam="2">  1       -4 0.13656100E+00 0.12332104E+04</pdfrwt>
<totfact> 0.19089045E+00</totfact>
</mgrwt>
</event>
<event>
12    4  0.4320235E-008  0.1512751E+04  0.7818608E-02  0.8876017E-01
          1   -1    0    0  501    0  0.00000000000E+00  0.00000000000E+00  0.48016194561E+03  0.48016194561E+03  0.00000000000E+00 0. -1.
         -2   -1    0    0    0  501 -0.00000000000E+00 -0.00000000000E+00 -0.11914817655E+04  0.11914817655E+04  0.00000000000E+00 0.  1.
        -24    2    1    2    0    0  0.57901701398E+02 -0.24408480332E+03 -0.69848334666E+03  0.74635210293E+03  0.78946043209E+02 0.  0.
        254    2    1    2    0    0 -0.57901701398E+02  0.24408480332E+03 -0.12836473280E+02  0.92529160823E+03  0.89054465749E+03 0.  0.
         23    2    4    4    0    0  0.28008982713E+03  0.33721886351E+03 -0.22917580614E+03  0.50322882127E+03  0.92470661614E+02 0.  0.
         23    2    4    4    0    0 -0.33799152853E+03 -0.93134060191E+02  0.21633933286E+03  0.42206278697E+03  0.91771796715E+02 0.  0.
          1    1    3    3  502    0  0.25903005484E+01 -0.13880072114E+03 -0.30127015852E+03  0.33171683445E+03  0.00000000000E+00 0. -1.
         -2    1    3    3    0  502  0.55311400849E+02 -0.10528408218E+03 -0.39721318815E+03  0.41463526847E+03  0.00000000000E+00 0.  1.
         11    1    5    5    0    0  0.20417780655E+03  0.17501698617E+03 -0.13879596722E+03  0.30262822514E+03  0.00000000000E+00 0.  1.
        -11    1    5    5    0    0  0.75912020587E+02  0.16220187734E+03 -0.90379838917E+02  0.20060059612E+03  0.00000000000E+00 0. -1.
          2    1    6    6  503    0  0.51429677572E+01  0.30617793698E+01  0.45157235119E+01  0.74977576046E+01  0.00000000000E+00 0. -1.
         -2    1    6    6    0  503 -0.34313449629E+03 -0.96195839560E+02  0.21182360935E+03  0.41456502936E+03  0.00000000000E+00 0.  1.
<mgrwt>
<rscale>  0 0.15127514E+04</rscale>
<asrwt>0</asrwt>
<pdfrwt beam="1">  1        1 0.73871070E-01 0.15127514E+04</pdfrwt>
<pdfrwt beam="2">  1       -2 0.18330488E+00 0.15127514E+04</pdfrwt>
<totfact> 0.68082413E+00</totfact>
</mgrwt>
</event>
<event>
12    4  0.4320235E-008  0.2462483E+04  0.7818608E-02  0.8416475E-01
          1   -1    0    0  501    0  0.00000000000E+00  0.00000000000E+00  0.90798916541E+03  0.90798916541E+03  0.00000000000E+00 0. -1.
         -2   -1    0    0    0  501 -0.00000000000E+00 -0.00000000000E+00 -0.16695739615E+04  0.16695739615E+04  0.00000000000E+00 0.  1.
        -24    2    1    2    0    0 -0.62927277339E+03 -0.32455710472E+03  0.50334949674E+03  0.87220418525E+03  0.77832431254E+02 0.  0.
        254    2    1    2    0    0  0.62927277339E+03  0.32455710472E+03 -0.12649342928E+04  0.17053589417E+04  0.89825876961E+03 0.  0.
         23    2    4    4    0    0  0.55729393061E+03 -0.20495451259E+03 -0.62474251632E+03  0.86666217861E+03  0.90649008838E+02 0.  0.
         23    2    4    4    0    0  0.71978842776E+02  0.52951161731E+03 -0.64019177650E+03  0.83869676305E+03  0.89460846040E+02 0.  0.
          3    1    3    3  502    0 -0.19920884577E+03 -0.64205650681E+02  0.15908410673E+03  0.26289595438E+03  0.00000000000E+00 0. -1.
         -4    1    3    3    0  502 -0.43006392761E+03 -0.26035145404E+03  0.34426539000E+03  0.60930823087E+03  0.00000000000E+00 0.  1.
         11    1    5    5    0    0  0.49872058493E+03 -0.15985358547E+03 -0.57390261645E+03  0.77694247135E+03  0.00000000000E+00 0.  1.
        -11    1    5    5    0    0  0.58573345678E+02 -0.45100927123E+02 -0.50839899874E+02  0.89719707258E+02  0.00000000000E+00 0. -1.
          3    1    6    6  503    0 -0.13082546106E+02  0.95788319671E+02 -0.82460968824E+02  0.12706835396E+03  0.00000000000E+00 0. -1.
         -3    1    6    6    0  503  0.85061388881E+02  0.43372329764E+03 -0.55773080768E+03  0.71162840909E+03  0.00000000000E+00 0.  1.
<mgrwt>
<rscale>  0 0.24624825E+04</rscale>
<asrwt>0</asrwt>
<pdfrwt beam="1">  1        1 0.13969064E+00 0.24624825E+04</pdfrwt>
<pdfrwt beam="2">  1       -2 0.25685753E+00 0.24624825E+04</pdfrwt>
<totfact> 0.81696313E-01</totfact>
</mgrwt>
</event>
<event>
12    4  0.4320235E-008  0.1825002E+04  0.7818608E-02  0.8693115E-01
          1   -1    0    0  501    0  0.00000000000E+00  0.00000000000E+00  0.14073898395E+04  0.14073898395E+04  0.00000000000E+00 0. -1.
         -2   -1    0    0    0  501 -0.00000000000E+00 -0.00000000000E+00 -0.59163308338E+03  0.59163308338E+03  0.00000000000E+00 0.  1.
        -24    2    1    2    0    0 -0.47968077431E+03 -0.32648602683E+03 -0.51468574063E+02  0.58789913457E+03  0.79307044728E+02 0.  0.
        254    2    1    2    0    0  0.47968077431E+03  0.32648602683E+03  0.86722533018E+03  0.14111237883E+04  0.95000200088E+03 0.  0.
         23    2    4    4    0    0  0.57577060162E+03 -0.14420837059E+03  0.33071226099E+03  0.68552934970E+03  0.90950810335E+02 0.  0.
         23    2    4    4    0    0 -0.96089827301E+02  0.47069439742E+03  0.53651306919E+03  0.72559443861E+03  0.88625872405E+02 0.  0.
          3    1    3    3  502    0 -0.14643852642E+03 -0.10169431479E+03 -0.52745308856E+02  0.18592483236E+03  0.00000000000E+00 0. -1.
         -4    1    3    3    0  502 -0.33324224789E+03 -0.22479171204E+03  0.12767347932E+01  0.40197430221E+03  0.00000000000E+00 0.  1.
         11    1    5    5    0    0  0.42588387061E+03 -0.10804960823E+03  0.19732300481E+03  0.48165148948E+03  0.00000000000E+00 0. -1.
        -11    1    5    5    0    0  0.14988673100E+03 -0.36158762355E+02  0.13338925618E+03  0.20387786022E+03  0.00000000000E+00 0.  1.
          4    1    6    6  503    0 -0.80622795000E+02  0.39428383394E+03  0.49268486127E+03  0.63615890256E+03  0.00000000000E+00 0. -1.
         -4    1    6    6    0  503 -0.15467032302E+02  0.76410563483E+02  0.43828207921E+02  0.89435536056E+02  0.00000000000E+00 0.  1.
<mgrwt>
<rscale>  0 0.18250023E+04</rscale>
<asrwt>0</asrwt>
<pdfrwt beam="1">  1        1 0.21652151E+00 0.18250023E+04</pdfrwt>
<pdfrwt beam="2">  1       -2 0.91020474E-01 0.18250023E+04</pdfrwt>
<totfact> 0.64581461E+00</totfact>
</mgrwt>
</event>
<event>
12    4  0.4320235E-008  0.1566614E+04  0.7818608E-02  0.8841325E-01
         -2   -1    0    0    0  501 -0.00000000000E+00  0.00000000000E+00  0.27762607878E+03  0.27762607878E+03  0.00000000000E+00 0.  1.
          1   -1    0    0  501    0  0.00000000000E+00 -0.00000000000E+00 -0.22100595445E+04  0.22100595445E+04  0.00000000000E+00 0. -1.
        -24    2    1    2    0    0  0.29292184582E+03  0.76839667422E+02  0.24109649611E+02  0.31423281507E+03  0.80333334415E+02 0.  0.
        254    2    1    2    0    0 -0.29292184582E+03 -0.76839667422E+02 -0.19565431153E+04  0.21734528082E+04  0.89673218137E+03 0.  0.
         23    2    4    4    0    0 -0.50863570466E+03  0.22457503504E+03 -0.11365771446E+04  0.12690470038E+04  0.97613860665E+02 0.  0.
         23    2    4    4    0    0  0.21571385884E+03 -0.30141470246E+03 -0.81996597073E+03  0.90440580441E+03  0.90677307751E+02 0.  0.
          1    1    3    3  502    0  0.12009878485E+03  0.39295542825E+02  0.49207153960E+02  0.13560679116E+03  0.00000000000E+00 0. -1.
         -2    1    3    3    0  502  0.17282306097E+03  0.37544124597E+02 -0.25097504349E+02  0.17862602391E+03  0.00000000000E+00 0.  1.
         11    1    5    5    0    0 -0.11880689069E+03  0.82224291026E+02 -0.37248301498E+03  0.39952410160E+03  0.00000000000E+00 0.  1.
        -11    1    5    5    0    0 -0.38982881397E+03  0.14235074401E+03 -0.76409412964E+03  0.86952290221E+03  0.00000000000E+00 0. -1.
          1    1    6    6  503    0  0.13254806036E+03 -0.10811657167E+03 -0.37813571405E+03  0.41502385427E+03  0.00000000000E+00 0. -1.
         -1    1    6    6    0  503  0.83165798484E+02 -0.19329813079E+03 -0.44183025668E+03  0.48938195014E+03  0.00000000000E+00 0.  1.
<mgrwt>
<rscale>  0 0.15666144E+04</rscale>
<asrwt>0</asrwt>
<pdfrwt beam="1">  1        1 0.34000917E+00 0.15666144E+04</pdfrwt>
<pdfrwt beam="2">  1       -2 0.42711704E-01 0.15666144E+04</pdfrwt>
<totfact> 0.94237388E+00</totfact>
</mgrwt>
</event>
<event>
12    4  0.4320235E-008  0.1330109E+04  0.7818608E-02  0.9006023E-01
          1   -1    0    0  501    0  0.00000000000E+00  0.00000000000E+00  0.19533086541E+04  0.19533086541E+04  0.00000000000E+00 0. -1.
         -2   -1    0    0    0  501 -0.00000000000E+00 -0.00000000000E+00 -0.22643505518E+03  0.22643505518E+03  0.00000000000E+00 0.  1.
        -24    2    1    2    0    0 -0.23904482665E+03 -0.25366164623E+03  0.33513719813E+03  0.49022185008E+03  0.80708492806E+02 0.  0.
        254    2    1    2    0    0  0.23904482665E+03  0.25366164623E+03  0.13917364008E+04  0.16895218592E+04  0.89222600476E+03 0.  0.
         23    2    4    4    0    0 -0.15800475205E+03 -0.20380772911E+03  0.16757533204E+03  0.32070102290E+03  0.90909636824E+02 0.  0.
         23    2    4    4    0    0  0.39704957869E+03  0.45746937534E+03  0.12241610688E+04  0.13688208363E+04  0.90407756013E+02 0.  0.
          3    1    3    3  502    0 -0.29665274097E+02 -0.67043724153E+02  0.10135879786E+03  0.12509394605E+03  0.00000000000E+00 0. -1.
         -4    1    3    3    0  502 -0.20937955255E+03 -0.18661792207E+03  0.23377840027E+03  0.36512790402E+03  0.00000000000E+00 0.  1.
         11    1    5    5    0    0 -0.29553371058E+02 -0.46187884589E+02 -0.35415362460E+01  0.54947838016E+02  0.00000000000E+00 0. -1.
        -11    1    5    5    0    0 -0.12845138099E+03 -0.15761984453E+03  0.17111686829E+03  0.26575318489E+03  0.00000000000E+00 0.  1.
          3    1    6    6  503    0  0.84903381163E+02  0.67289390469E+02  0.28712128303E+03  0.30687958122E+03  0.00000000000E+00 0. -1.
         -3    1    6    6    0  503  0.31214619753E+03  0.39017998487E+03  0.93703978576E+03  0.10619412551E+04  0.00000000000E+00 0.  1.
<mgrwt>
<rscale>  0 0.13301091E+04</rscale>
<asrwt>0</asrwt>
<pdfrwt beam="1">  1        1 0.30050901E+00 0.13301091E+04</pdfrwt>
<pdfrwt beam="2">  1       -2 0.34836164E-01 0.13301091E+04</pdfrwt>
<totfact> 0.21344469E+01</totfact>
</mgrwt>
</event>
<event>
12    4  0.4320235E-008  0.1664961E+04  0.7818608E-02  0.8781604E-01
          1   -1    0    0  501    0  0.00000000000E+00  0.00000000000E+00  0.32464057907E+04  0.32464057907E+04  0.00000000000E+00 0. -1.
         -2   -1    0    0    0  501 -0.00000000000E+00 -0.00000000000E+00 -0.21347426101E+03  0.21347426101E+03  0.00000000000E+00 0.  1.
        -24    2    1    2    0    0  0.52423706635E+03  0.62592015038E+02  0.55161816946E+03  0.76772150443E+03  0.79821309122E+02 0.  0.
        254    2    1    2    0    0 -0.52423706635E+03 -0.62592015038E+02  0.24813133603E+04  0.26921585473E+04  0.90114337930E+03 0.  0.
         23    2    4    4    0    0 -0.19390687459E+03  0.25401831765E+03  0.25903876831E+03  0.42145913693E+03  0.91659908904E+02 0.  0.
         23    2    4    4    0    0 -0.33033019176E+03 -0.31661033269E+03  0.22222745920E+04  0.22706994104E+04  0.90616289885E+02 0.  0.
          3    1    3    3  502    0  0.83574630432E+02 -0.17885480251E+02  0.10146583396E+03  0.13266470788E+03  0.00000000000E+00 0. -1.
         -4    1    3    3    0  502  0.44066243592E+03  0.80477495288E+02  0.45015233551E+03  0.63505679655E+03  0.00000000000E+00 0.  1.
         11    1    5    5    0    0 -0.12717950194E+03  0.12742428072E+03  0.94262593960E+02  0.20321665692E+03  0.00000000000E+00 0. -1.
        -11    1    5    5    0    0 -0.66727372655E+02  0.12659403692E+03  0.16477617435E+03  0.21824248001E+03  0.00000000000E+00 0.  1.
          1    1    6    6  503    0 -0.17588510549E+03 -0.17773715775E+03  0.14274286767E+04  0.14491648266E+04  0.00000000000E+00 0. -1.
         -1    1    6    6    0  503 -0.15444508627E+03 -0.13887317494E+03  0.79484591528E+03  0.82153458383E+03  0.00000000000E+00 0.  1.
<mgrwt>
<rscale>  0 0.16649614E+04</rscale>
<asrwt>0</asrwt>
<pdfrwt beam="1">  1        1 0.49944701E+00 0.16649614E+04</pdfrwt>
<pdfrwt beam="2">  1       -2 0.32842196E-01 0.16649614E+04</pdfrwt>
<totfact> 0.28608882E+00</totfact>
</mgrwt>
</event>
<event>
12    4  0.4320235E-008  0.1882853E+04  0.7818608E-02  0.8663439E-01
         -2   -1    0    0    0  501 -0.00000000000E+00  0.00000000000E+00  0.41532959033E+03  0.41532959033E+03  0.00000000000E+00 0.  1.
          1   -1    0    0  501    0  0.00000000000E+00 -0.00000000000E+00 -0.21339300931E+04  0.21339300931E+04  0.00000000000E+00 0. -1.
        -24    2    1    2    0    0 -0.27532872328E+03  0.42247308894E+03 -0.13642768306E+04  0.14567485969E+04  0.81091228270E+02 0.  0.
        254    2    1    2    0    0  0.27532872328E+03 -0.42247308894E+03 -0.35432367219E+03  0.10925110866E+04  0.90207859571E+03 0.  0.
         23    2    4    4    0    0  0.31067232821E+03 -0.40907759079E+03  0.17788132075E+03  0.55113162896E+03  0.90788420912E+02 0.  0.
         23    2    4    4    0    0 -0.35343604927E+02 -0.13395498148E+02 -0.53220499295E+03  0.54137945760E+03  0.91765749669E+02 0.  0.
          3    1    3    3  502    0 -0.23595142246E+03  0.38893856634E+03 -0.11596494203E+04  0.12456857790E+04  0.00000000000E+00 0. -1.
         -4    1    3    3    0  502 -0.39377300820E+02  0.33534522595E+02 -0.20462741034E+03  0.21106281787E+03  0.00000000000E+00 0.  1.
         11    1    5    5    0    0  0.19490229559E+03 -0.32249356898E+03  0.13623953710E+03  0.40068718264E+03  0.00000000000E+00 0. -1.
        -11    1    5    5    0    0  0.11577003262E+03 -0.86584021811E+02  0.41641783647E+02  0.15044444633E+03  0.00000000000E+00 0.  1.
          4    1    6    6  503    0  0.31346399031E+02 -0.77762503873E+01 -0.16791871629E+03  0.17099638032E+03  0.00000000000E+00 0. -1.
         -4    1    6    6    0  503 -0.66690003958E+02 -0.56192477612E+01 -0.36428627666E+03  0.37038307728E+03  0.00000000000E+00 0.  1.
<mgrwt>
<rscale>  0 0.18828535E+04</rscale>
<asrwt>0</asrwt>
<pdfrwt beam="1">  1        1 0.32829695E+00 0.18828535E+04</pdfrwt>
<pdfrwt beam="2">  1       -2 0.63896858E-01 0.18828535E+04</pdfrwt>
<totfact> 0.45044984E+00</totfact>
</mgrwt>
</event>
<event>
12    4  0.4320235E-008  0.2909463E+04  0.7818608E-02  0.8270068E-01
          1   -1    0    0  501    0  0.00000000000E+00  0.00000000000E+00  0.41151827727E+04  0.41151827727E+04  0.00000000000E+00 0. -1.
         -2   -1    0    0    0  501 -0.00000000000E+00 -0.00000000000E+00 -0.51425255444E+03  0.51425255444E+03  0.00000000000E+00 0.  1.
        -24    2    1    2    0    0 -0.28870977915E+03 -0.12757184338E+04  0.14784342515E+04  0.19755715963E+04  0.79400485926E+02 0.  0.
        254    2    1    2    0    0  0.28870977915E+03  0.12757184338E+04  0.21224959668E+04  0.26538637309E+04  0.90950135453E+03 0.  0.
         23    2    4    4    0    0 -0.21696449051E+02  0.29823029963E+03  0.12967086634E+04  0.13338708525E+04  0.91356696697E+02 0.  0.
         23    2    4    4    0    0  0.31040622820E+03  0.97748813420E+03  0.82578730346E+03  0.13199928784E+04  0.92851760175E+02 0.  0.
          1    1    3    3  502    0 -0.28906721818E+03 -0.11901964845E+04  0.13868381098E+04  0.18502560556E+04  0.00000000000E+00 0. -1.
         -2    1    3    3    0  502  0.35743903674E+00 -0.85521949339E+02  0.91596141690E+02  0.12531554075E+03  0.00000000000E+00 0.  1.
         11    1    5    5    0    0 -0.55194599191E+02  0.20857515592E+03  0.84244105614E+03  0.86963036545E+03  0.00000000000E+00 0. -1.
        -11    1    5    5    0    0  0.33498150140E+02  0.89655143711E+02  0.45426760722E+03  0.46424048706E+03  0.00000000000E+00 0.  1.
          1    1    6    6  503    0  0.50805465049E+02  0.26695954552E+03  0.18673975314E+03  0.32972765978E+03  0.00000000000E+00 0.  1.
         -1    1    6    6    0  503  0.25960076315E+03  0.71052858868E+03  0.63904755032E+03  0.99026521858E+03  0.00000000000E+00 0. -1.
<mgrwt>
<rscale>  0 0.29094627E+04</rscale>
<asrwt>0</asrwt>
<pdfrwt beam="1">  1        1 0.63310502E+00 0.29094627E+04</pdfrwt>
<pdfrwt beam="2">  1       -2 0.79115780E-01 0.29094627E+04</pdfrwt>
<totfact> 0.80958684E-02</totfact>
</mgrwt>
</event>
<event>
12    4  0.4320235E-008  0.1643667E+04  0.7818608E-02  0.8794162E-01
         -2   -1    0    0    0  501 -0.00000000000E+00  0.00000000000E+00  0.31285105738E+03  0.31285105738E+03  0.00000000000E+00 0.  1.
          1   -1    0    0  501    0  0.00000000000E+00 -0.00000000000E+00 -0.21588881052E+04  0.21588881052E+04  0.00000000000E+00 0. -1.
        -24    2    1    2    0    0 -0.21171568401E+03  0.17920985995E+03 -0.14098839041E+04  0.14391352513E+04  0.79987148475E+02 0.  0.
        254    2    1    2    0    0  0.21171568401E+03 -0.17920985995E+03 -0.43615314373E+03  0.10326039112E+04  0.89392481112E+03 0.  0.
         23    2    4    4    0    0 -0.24774971756E+03 -0.10676673608E+02 -0.46407084377E+03  0.53420044326E+03  0.92273786258E+02 0.  0.
         23    2    4    4    0    0  0.45946540158E+03 -0.16853318634E+03  0.27917700047E+02  0.49840346796E+03  0.90081789249E+02 0.  0.
          1    1    3    3  502    0 -0.18335362958E+03  0.17423658485E+03 -0.13380144068E+04  0.13617119716E+04  0.00000000000E+00 0. -1.
         -4    1    3    3    0  502 -0.28362054437E+02  0.49732750926E+01 -0.71869497328E+02  0.77423279724E+02  0.00000000000E+00 0.  1.
         11    1    5    5    0    0 -0.24882153051E+02  0.17286053952E+02 -0.19277327717E+02  0.35910229261E+02  0.00000000000E+00 0. -1.
        -11    1    5    5    0    0 -0.22286756451E+03 -0.27962727561E+02 -0.44479351606E+03  0.49829021400E+03  0.00000000000E+00 0.  1.
          4    1    6    6  503    0  0.37487995803E+03 -0.10745780072E+03  0.45425827601E+02  0.39261389135E+03  0.00000000000E+00 0.  1.
         -4    1    6    6    0  503  0.84585443543E+02 -0.61075385620E+02 -0.17508127553E+02  0.10578957661E+03  0.00000000000E+00 0. -1.
<mgrwt>
<rscale>  0 0.16436672E+04</rscale>
<asrwt>0</asrwt>
<pdfrwt beam="1">  1        1 0.33213663E+00 0.16436672E+04</pdfrwt>
<pdfrwt beam="2">  1       -2 0.48130932E-01 0.16436672E+04</pdfrwt>
<totfact> 0.79830381E+00</totfact>
</mgrwt>
</event>
<event>
12    4  0.4320235E-008  0.1588974E+04  0.7818608E-02  0.8827350E-01
          1   -1    0    0  501    0  0.00000000000E+00  0.00000000000E+00  0.24791601215E+04  0.24791601215E+04  0.00000000000E+00 0. -1.
         -2   -1    0    0    0  501 -0.00000000000E+00 -0.00000000000E+00 -0.25460626157E+03  0.25460626157E+03  0.00000000000E+00 0.  1.
        -24    2    1    2    0    0  0.33881768181E+03  0.33001766430E+03  0.31407187388E+03  0.57372858722E+03  0.82548589191E+02 0.  0.
        254    2    1    2    0    0 -0.33881768181E+03 -0.33001766430E+03  0.19104819860E+04  0.21600377958E+04  0.89000717986E+03 0.  0.
         23    2    4    4    0    0  0.12954217799E+03 -0.29175754639E+03  0.14782967469E+04  0.15151186076E+04  0.91211191840E+02 0.  0.
         23    2    4    4    0    0 -0.46835985981E+03 -0.38260117913E+02  0.43218523916E+03  0.64491918824E+03  0.91169531667E+02 0.  0.
          3    1    3    3  502    0  0.16972137155E+01  0.23762915990E+02  0.23568190548E+02  0.33511435607E+02  0.00000000000E+00 0. -1.
         -4    1    3    3    0  502  0.33712046810E+03  0.30625474831E+03  0.29050368333E+03  0.54021715161E+03  0.00000000000E+00 0.  1.
         11    1    5    5    0    0  0.10567875852E+03 -0.16640793103E+03  0.73638795712E+03  0.76231674709E+03  0.00000000000E+00 0. -1.
        -11    1    5    5    0    0  0.23863419471E+02 -0.12534961535E+03  0.74190878975E+03  0.75280186050E+03  0.00000000000E+00 0.  1.
          1    1    6    6  503    0 -0.33319532514E+03 -0.53825073981E+02  0.34869130307E+03  0.48528536772E+03  0.00000000000E+00 0. -1.
         -1    1    6    6    0  503 -0.13516453467E+03  0.15564956068E+02  0.83493936093E+02  0.15963382052E+03  0.00000000000E+00 0.  1.
<mgrwt>
<rscale>  0 0.15889741E+04</rscale>
<asrwt>0</asrwt>
<pdfrwt beam="1">  1        1 0.38140923E+00 0.15889741E+04</pdfrwt>
<pdfrwt beam="2">  1       -2 0.39170196E-01 0.15889741E+04</pdfrwt>
<totfact> 0.72928381E+00</totfact>
</mgrwt>
</event>
<event>
12    4  0.4320235E-008  0.1508259E+04  0.7818608E-02  0.8878979E-01
         -2   -1    0    0    0  501 -0.00000000000E+00  0.00000000000E+00  0.42807008743E+03  0.42807008743E+03  0.00000000000E+00 0.  1.
          1   -1    0    0  501    0  0.00000000000E+00 -0.00000000000E+00 -0.13285475472E+04  0.13285475472E+04  0.00000000000E+00 0. -1.
        -24    2    1    2    0    0  0.13883246238E+03  0.62358246291E+02  0.23900932582E+03  0.29454643673E+03  0.80430977059E+02 0.  0.
        254    2    1    2    0    0 -0.13883246238E+03 -0.62358246291E+02 -0.11394867856E+04  0.14620711979E+04  0.90335986720E+03 0.  0.
         23    2    4    4    0    0 -0.59710153826E+02 -0.15570228148E+03 -0.12558674281E+04  0.12702406119E+04  0.92193883836E+02 0.  0.
         23    2    4    4    0    0 -0.79122308555E+02  0.93344035191E+02  0.11638064249E+03  0.19183058601E+03  0.91000391018E+02 0.  0.
          1    1    3    3  502    0  0.35430970441E+02  0.32643310494E+02  0.23341063470E+02  0.53532650133E+02  0.00000000000E+00 0. -1.
         -2    1    3    3    0  502  0.10340149194E+03  0.29714935798E+02  0.21566826235E+03  0.24101378660E+03  0.00000000000E+00 0.  1.
         11    1    5    5    0    0  0.24630257609E+02 -0.37529575856E+02 -0.26017719322E+03  0.26402138271E+03  0.00000000000E+00 0.  1.
        -11    1    5    5    0    0 -0.84340411435E+02 -0.11817270563E+03 -0.99569023485E+03  0.10062192292E+04  0.00000000000E+00 0. -1.
          1    1    6    6  503    0 -0.24831121903E+02  0.93917314372E+02  0.85240779728E+02  0.12924023012E+03  0.00000000000E+00 0. -1.
         -1    1    6    6    0  503 -0.54291186652E+02 -0.57327918092E+00  0.31139862764E+02  0.62590355887E+02  0.00000000000E+00 0.  1.
<mgrwt>
<rscale>  0 0.15082592E+04</rscale>
<asrwt>0</asrwt>
<pdfrwt beam="1">  1        1 0.20439193E+00 0.15082592E+04</pdfrwt>
<pdfrwt beam="2">  1       -2 0.65856938E-01 0.15082592E+04</pdfrwt>
<totfact> 0.15534472E+01</totfact>
</mgrwt>
</event>
<event>
12    4  0.4320235E-008  0.1925099E+04  0.7818608E-02  0.8642463E-01
          1   -1    0    0  501    0  0.00000000000E+00  0.00000000000E+00  0.74115127263E+03  0.74115127263E+03  0.00000000000E+00 0. -1.
         -2   -1    0    0    0  501 -0.00000000000E+00 -0.00000000000E+00 -0.12500845613E+04  0.12500845613E+04  0.00000000000E+00 0.  1.
        -24    2    1    2    0    0 -0.26701793765E+03  0.12528790523E+02 -0.92779893777E+03  0.96888954302E+03  0.80501726830E+02 0.  0.
        254    2    1    2    0    0  0.26701793765E+03 -0.12528790523E+02  0.41886564908E+03  0.10223462909E+04  0.89346961728E+03 0.  0.
         23    2    4    4    0    0  0.24219694012E+03  0.14705951799E+03 -0.21212972109E+03  0.36495069527E+03  0.88905184173E+02 0.  0.
         23    2    4    4    0    0  0.24820997530E+02 -0.15958830851E+03  0.63099537017E+03  0.65739559567E+03  0.89046627690E+02 0.  0.
          1    1    3    3  502    0 -0.53566439617E+01 -0.95077126390E+01 -0.12145390083E+02  0.16327912740E+02  0.00000000000E+00 0. -1.
         -2    1    3    3    0  502 -0.26166129369E+03  0.22036503162E+02 -0.91565354769E+03  0.95256163028E+03  0.00000000000E+00 0.  1.
         11    1    5    5    0    0  0.19770231986E+03  0.80591468154E+02 -0.17808555266E+03  0.27802096339E+03  0.00000000000E+00 0. -1.
        -11    1    5    5    0    0  0.44494620264E+02  0.66468049832E+02 -0.34044168428E+02  0.86929731881E+02  0.00000000000E+00 0.  1.
          3    1    6    6  503    0  0.39464939121E+02 -0.16435191144E+03  0.57967436323E+03  0.60381404389E+03  0.00000000000E+00 0. -1.
         -3    1    6    6    0  503 -0.14643941591E+02  0.47636029262E+01  0.51321006939E+02  0.53581551782E+02  0.00000000000E+00 0.  1.
<mgrwt>
<rscale>  0 0.19250992E+04</rscale>
<asrwt>0</asrwt>
<pdfrwt beam="1">  1        1 0.11402327E+00 0.19250992E+04</pdfrwt>
<pdfrwt beam="2">  1       -2 0.19232070E+00 0.19250992E+04</pdfrwt>
<totfact> 0.30497351E+00</totfact>
</mgrwt>
</event>
<event>
12    4  0.4320235E-008  0.1890933E+04  0.7818608E-02  0.8659383E-01
          1   -1    0    0  501    0  0.00000000000E+00  0.00000000000E+00  0.26726918198E+04  0.26726918198E+04  0.00000000000E+00 0. -1.
         -2   -1    0    0    0  501 -0.00000000000E+00 -0.00000000000E+00 -0.33445923385E+03  0.33445923385E+03  0.00000000000E+00 0.  1.
        -24    2    1    2    0    0  0.69430505547E+03 -0.21022075840E+03  0.77714039483E+03  0.10660913866E+04  0.79695508071E+02 0.  0.
        254    2    1    2    0    0 -0.69430505547E+03  0.21022075840E+03  0.15610921911E+04  0.19410596670E+04  0.89691221674E+03 0.  0.
         23    2    4    4    0    0  0.17522839382E+02  0.38474214216E+03  0.72231262616E+03  0.82351265022E+03  0.90022160104E+02 0.  0.
         23    2    4    4    0    0 -0.71182789486E+03 -0.17452138376E+03  0.83877956496E+03  0.11175470168E+04  0.90573235246E+02 0.  0.
          1    1    3    3  502    0  0.63150506507E+03 -0.20626862454E+03  0.73281573805E+03  0.98912299468E+03  0.00000000000E+00 0. -1.
         -2    1    3    3    0  502  0.62799990403E+02 -0.39521338607E+01  0.44324656774E+02  0.76968391921E+02  0.00000000000E+00 0.  1.
         11    1    5    5    0    0 -0.22361879415E+02  0.17076030160E+03  0.38905443239E+03  0.42546737316E+03  0.00000000000E+00 0. -1.
        -11    1    5    5    0    0  0.39884718798E+02  0.21398184055E+03  0.33325819376E+03  0.39804527706E+03  0.00000000000E+00 0.  1.
          2    1    6    6  503    0 -0.51548899637E+03 -0.16262476123E+03  0.58552583685E+03  0.79687905228E+03  0.00000000000E+00 0. -1.
         -2    1    6    6    0  503 -0.19633889848E+03 -0.11896622534E+02  0.25325372811E+03  0.32066796455E+03  0.00000000000E+00 0.  1.
<mgrwt>
<rscale>  0 0.18909325E+04</rscale>
<asrwt>0</asrwt>
<pdfrwt beam="1">  1        1 0.41118334E+00 0.18909325E+04</pdfrwt>
<pdfrwt beam="2">  1       -2 0.51455269E-01 0.18909325E+04</pdfrwt>
<totfact> 0.30145815E+00</totfact>
</mgrwt>
</event>
<event>
12    4  0.4320235E-008  0.1272818E+04  0.7818608E-02  0.9051403E-01
          1   -1    0    0  501    0  0.00000000000E+00  0.00000000000E+00  0.27341154178E+03  0.27341154178E+03  0.00000000000E+00 0. -1.
         -4   -1    0    0    0  501 -0.00000000000E+00 -0.00000000000E+00 -0.14813426148E+04  0.14813426148E+04  0.00000000000E+00 0.  1.
        -24    2    1    2    0    0  0.12866408851E+03 -0.75777472201E+02  0.91679873665E+02  0.19334050709E+03  0.81723188147E+02 0.  0.
        254    2    1    2    0    0 -0.12866408851E+03  0.75777472201E+02 -0.12996109467E+04  0.15614136495E+04  0.85248301983E+03 0.  0.
         23    2    4    4    0    0  0.23797961664E+03  0.63603891755E+02 -0.11065012004E+04  0.11371929939E+04  0.90461294899E+02 0.  0.
         23    2    4    4    0    0 -0.36664370515E+03  0.12173580446E+02 -0.19310974626E+03  0.42422065558E+03  0.89977707944E+02 0.  0.
          3    1    3    3  502    0  0.12205648901E+03 -0.91347959911E+02  0.88004385807E+02  0.17603127055E+03  0.00000000000E+00 0. -1.
         -4    1    3    3    0  502  0.66075995005E+01  0.15570487709E+02  0.36754878583E+01  0.17309236542E+02  0.00000000000E+00 0.  1.
         11    1    5    5    0    0  0.21106370297E+03  0.55048594724E+02 -0.10642399279E+04  0.10863631339E+04  0.00000000000E+00 0. -1.
        -11    1    5    5    0    0  0.26915913676E+02  0.85552970306E+01 -0.42261272507E+02  0.50829860026E+02  0.00000000000E+00 0.  1.
          2    1    6    6  503    0 -0.31874891349E+03  0.16973711055E+02 -0.19833971462E+03  0.37580263319E+03  0.00000000000E+00 0. -1.
         -2    1    6    6    0  503 -0.47894791667E+02 -0.48001306086E+01  0.52299683622E+01  0.48418022385E+02  0.00000000000E+00 0.  1.
<mgrwt>
<rscale>  0 0.12728176E+04</rscale>
<asrwt>0</asrwt>
<pdfrwt beam="1">  1        1 0.42063314E-01 0.12728176E+04</pdfrwt>
<pdfrwt beam="2">  1       -4 0.22789886E+00 0.12728176E+04</pdfrwt>
<totfact> 0.40157743E+00</totfact>
</mgrwt>
</event>
<event>
12    4  0.4320235E-008  0.1091710E+04  0.7818608E-02  0.9213310E-01
         -2   -1    0    0    0  501 -0.00000000000E+00  0.00000000000E+00  0.17145144913E+03  0.17145144913E+03  0.00000000000E+00 0.  1.
          1   -1    0    0  501    0  0.00000000000E+00 -0.00000000000E+00 -0.17378531494E+04  0.17378531494E+04  0.00000000000E+00 0. -1.
        -24    2    1    2    0    0  0.11644414645E+03  0.59605922283E+02 -0.39390861169E+03  0.42372667035E+03  0.85253689615E+02 0.  0.
        254    2    1    2    0    0 -0.11644414645E+03 -0.59605922283E+02 -0.11724930886E+04  0.14855779282E+04  0.90282314586E+03 0.  0.
         23    2    4    4    0    0 -0.11581767427E+03  0.39248656390E+03 -0.36281224324E+03  0.55421230620E+03  0.89772601497E+02 0.  0.
         23    2    4    4    0    0 -0.62647218029E+00 -0.45209248618E+03 -0.80968084532E+03  0.93136562196E+03  0.86434032484E+02 0.  0.
          1    1    3    3  502    0  0.29648586818E+02 -0.96648117785E+01 -0.18029831799E+03  0.18297521897E+03  0.00000000000E+00 0. -1.
         -2    1    3    3    0  502  0.86795559636E+02  0.69270734062E+02 -0.21361029370E+03  0.24075145138E+03  0.00000000000E+00 0.  1.
         11    1    5    5    0    0 -0.80960619842E+02  0.14339699685E+03 -0.11298851151E+03  0.19970909945E+03  0.00000000000E+00 0.  1.
        -11    1    5    5    0    0 -0.34857054432E+02  0.24908956705E+03 -0.24982373173E+03  0.35450320675E+03  0.00000000000E+00 0. -1.
          3    1    6    6  503    0  0.74448471082E+01 -0.75567541372E+01 -0.43700886423E+01  0.11472922744E+02  0.00000000000E+00 0. -1.
         -3    1    6    6    0  503 -0.80713192885E+01 -0.44453573204E+03 -0.80531075668E+03  0.91989269922E+03  0.00000000000E+00 0.  1.
<mgrwt>
<rscale>  0 0.10917096E+04</rscale>
<asrwt>0</asrwt>
<pdfrwt beam="1">  1        1 0.26736202E+00 0.10917096E+04</pdfrwt>
<pdfrwt beam="2">  1       -2 0.26377147E-01 0.10917096E+04</pdfrwt>
<totfact> 0.51179349E+01</totfact>
</mgrwt>
</event>
<event>
12    4  0.4320235E-008  0.1850043E+04  0.7818608E-02  0.8680131E-01
          1   -1    0    0  501    0  0.00000000000E+00  0.00000000000E+00  0.29115040427E+03  0.29115040427E+03  0.00000000000E+00 0. -1.
         -2   -1    0    0    0  501 -0.00000000000E+00 -0.00000000000E+00 -0.29389102850E+04  0.29389102850E+04  0.00000000000E+00 0.  1.
        -24    2    1    2    0    0 -0.40577402491E+03  0.56564800597E+03 -0.87966780154E+03  0.11247319699E+04  0.81217837212E+02 0.  0.
        254    2    1    2    0    0  0.40577402491E+03 -0.56564800597E+03 -0.17680920792E+04  0.21053287194E+04  0.90644866937E+03 0.  0.
         23    2    4    4    0    0  0.43657154052E+03 -0.20824805824E+03 -0.16418300347E+04  0.17139594075E+04  0.89939001022E+02 0.  0.
         23    2    4    4    0    0 -0.30797515611E+02 -0.35739994773E+03 -0.12626204451E+03  0.39136931191E+03  0.92437139819E+02 0.  0.
          3    1    3    3  502    0 -0.38062153907E+03  0.51830811287E+03 -0.84079451950E+03  0.10585138071E+04  0.00000000000E+00 0. -1.
         -4    1    3    3    0  502 -0.25152485836E+02  0.47339893095E+02 -0.38873282038E+02  0.66218162753E+02  0.00000000000E+00 0.  1.
         11    1    5    5    0    0  0.42823105323E+03 -0.19609149857E+03 -0.16234819881E+04  0.16904222776E+04  0.00000000000E+00 0.  1.
        -11    1    5    5    0    0  0.83404872939E+01 -0.12156559667E+02 -0.18348046585E+02  0.23537129917E+02  0.00000000000E+00 0. -1.
          1    1    6    6  503    0  0.12839045650E+02 -0.25246528598E+02 -0.33272656335E+02  0.43695514176E+02  0.00000000000E+00 0. -1.
         -1    1    6    6    0  503 -0.43636561261E+02 -0.33215341913E+03 -0.92989388175E+02  0.34767379774E+03  0.00000000000E+00 0.  1.
<mgrwt>
<rscale>  0 0.18500432E+04</rscale>
<asrwt>0</asrwt>
<pdfrwt beam="1">  1        1 0.44792373E-01 0.18500432E+04</pdfrwt>
<pdfrwt beam="2">  1       -2 0.45214001E+00 0.18500432E+04</pdfrwt>
<totfact> 0.25224667E-01</totfact>
</mgrwt>
</event>
<event>
12    4  0.4320235E-008  0.2477394E+04  0.7818608E-02  0.8411083E-01
         -2   -1    0    0    0  501 -0.00000000000E+00  0.00000000000E+00  0.15082779487E+04  0.15082779487E+04  0.00000000000E+00 0.  1.
          1   -1    0    0  501    0  0.00000000000E+00 -0.00000000000E+00 -0.10172995980E+04  0.10172995980E+04  0.00000000000E+00 0. -1.
        -24    2    1    2    0    0 -0.80627603351E+03  0.70975934832E+03  0.20109161462E+03  0.10959341412E+04  0.82428329930E+02 0.  0.
        254    2    1    2    0    0  0.80627603351E+03 -0.70975934832E+03  0.28988673607E+03  0.14296434056E+04  0.89777868796E+03 0.  0.
         23    2    4    4    0    0  0.42556095410E+03 -0.58134453582E+03  0.57667209602E+03  0.92732107554E+03  0.91159617301E+02 0.  0.
         23    2    4    4    0    0  0.38071507941E+03 -0.12841481250E+03 -0.28678535995E+03  0.50232233001E+03  0.92992175961E+02 0.  0.
          3    1    3    3  502    0 -0.37054230647E+02  0.55119745452E+02  0.21463946246E+01  0.66451556471E+02  0.00000000000E+00 0. -1.
         -4    1    3    3    0  502 -0.76922180286E+03  0.65463960287E+03  0.19894522000E+03  0.10294825847E+04  0.00000000000E+00 0.  1.
         11    1    5    5    0    0  0.11648714707E+03 -0.20266157846E+03  0.14411494951E+03  0.27460897561E+03  0.00000000000E+00 0.  1.
        -11    1    5    5    0    0  0.30907380703E+03 -0.37868295736E+03  0.43255714652E+03  0.65271209993E+03  0.00000000000E+00 0. -1.
          4    1    6    6  503    0  0.31849666765E+03 -0.14100456234E+03 -0.23234977528E+03  0.41869897538E+03  0.00000000000E+00 0. -1.
         -4    1    6    6    0  503  0.62218411756E+02  0.12589749844E+02 -0.54435584670E+02  0.83623354638E+02  0.00000000000E+00 0.  1.
<mgrwt>
<rscale>  0 0.24773942E+04</rscale>
<asrwt>0</asrwt>
<pdfrwt beam="1">  1        1 0.15650763E+00 0.24773942E+04</pdfrwt>
<pdfrwt beam="2">  1       -2 0.23204276E+00 0.24773942E+04</pdfrwt>
<totfact> 0.95061351E-01</totfact>
</mgrwt>
</event>
<event>
12    4  0.4320235E-008  0.2590348E+04  0.7818608E-02  0.8371487E-01
          1   -1    0    0  501    0  0.00000000000E+00  0.00000000000E+00  0.83560495058E+03  0.83560495058E+03  0.00000000000E+00 0. -1.
         -2   -1    0    0    0  501 -0.00000000000E+00 -0.00000000000E+00 -0.20074983808E+04  0.20074983808E+04  0.00000000000E+00 0.  1.
        -24    2    1    2    0    0 -0.72294904344E+03 -0.44963365775E+03  0.30903654727E+03  0.90926297021E+03  0.80186132584E+02 0.  0.
        254    2    1    2    0    0  0.72294904344E+03  0.44963365775E+03 -0.14809299775E+04  0.19338403611E+04  0.90650934836E+03 0.  0.
         23    2    4    4    0    0  0.53545663195E+03  0.26705466444E+03 -0.15358335220E+04  0.16509334715E+04  0.93620090542E+02 0.  0.
         23    2    4    4    0    0  0.18749241148E+03  0.18257899331E+03  0.54903544550E+02  0.28290688968E+03  0.92376489778E+02 0.  0.
          1    1    3    3  502    0 -0.70385302245E+03 -0.44884781442E+03  0.30902261389E+03  0.89015078139E+03  0.00000000000E+00 0. -1.
         -2    1    3    3    0  502 -0.19096020987E+02 -0.78584333124E+00  0.13933384782E-01  0.19112188818E+02  0.00000000000E+00 0.  1.
         11    1    5    5    0    0  0.38453509050E+03  0.18301211965E+03 -0.97121549717E+03  0.10604811237E+04  0.00000000000E+00 0. -1.
        -11    1    5    5    0    0  0.15092154146E+03  0.84042544785E+02 -0.56461802484E+03  0.59045234777E+03  0.00000000000E+00 0.  1.
          3    1    6    6  503    0  0.21193876180E+02  0.65612789565E+02 -0.95788440558E+01  0.69613021738E+02  0.00000000000E+00 0. -1.
         -3    1    6    6    0  503  0.16629853530E+03  0.11696620375E+03  0.64482388606E+02  0.21329386795E+03  0.00000000000E+00 0.  1.
<mgrwt>
<rscale>  0 0.25903479E+04</rscale>
<asrwt>0</asrwt>
<pdfrwt beam="1">  1        1 0.12855461E+00 0.25903479E+04</pdfrwt>
<pdfrwt beam="2">  1       -2 0.30884590E+00 0.25903479E+04</pdfrwt>
<totfact> 0.44670053E-01</totfact>
</mgrwt>
</event>
<event>
12    4  0.4320235E-008  0.1477535E+04  0.7818608E-02  0.8899531E-01
         -2   -1    0    0    0  501 -0.00000000000E+00  0.00000000000E+00  0.36578913534E+03  0.36578913534E+03  0.00000000000E+00 0.  1.
          1   -1    0    0  501    0  0.00000000000E+00 -0.00000000000E+00 -0.14920553760E+04  0.14920553760E+04  0.00000000000E+00 0. -1.
        -24    2    1    2    0    0  0.12362526838E+03  0.44861320869E+03 -0.42631525118E+03  0.63617595970E+03  0.80238022933E+02 0.  0.
        254    2    1    2    0    0 -0.12362526838E+03 -0.44861320869E+03 -0.69995098949E+03  0.12216685516E+04  0.88656959366E+03 0.  0.
         23    2    4    4    0    0 -0.38207181981E+03 -0.41119070019E+03 -0.12215443680E+03  0.58159529524E+03  0.90965452804E+02 0.  0.
         23    2    4    4    0    0  0.25844655142E+03 -0.37422508502E+02 -0.57779655269E+03  0.64007325640E+03  0.87463439116E+02 0.  0.
          3    1    3    3  502    0  0.10762047262E+03  0.24081363708E+03 -0.23525089459E+03  0.35343508221E+03  0.00000000000E+00 0. -1.
         -4    1    3    3    0  502  0.16004795768E+02  0.20779957161E+03 -0.19106435659E+03  0.28274087750E+03  0.00000000000E+00 0.  1.
         11    1    5    5    0    0 -0.11117160290E+03 -0.14545213277E+03 -0.79979729734E+02  0.19978039290E+03  0.00000000000E+00 0. -1.
        -11    1    5    5    0    0 -0.27090021691E+03 -0.26573856741E+03 -0.42174707068E+02  0.38181490234E+03  0.00000000000E+00 0.  1.
          2    1    6    6  503    0  0.33230145103E+02  0.18255780941E+02 -0.13446402975E+03  0.13970716294E+03  0.00000000000E+00 0. -1.
         -2    1    6    6    0  503  0.22521640632E+03 -0.55678289443E+02 -0.44333252294E+03  0.50036609347E+03  0.00000000000E+00 0.  1.
<mgrwt>
<rscale>  0 0.14775353E+04</rscale>
<asrwt>0</asrwt>
<pdfrwt beam="1">  1        1 0.22954698E+00 0.14775353E+04</pdfrwt>
<pdfrwt beam="2">  1       -2 0.56275253E-01 0.14775353E+04</pdfrwt>
<totfact> 0.16696876E+01</totfact>
</mgrwt>
</event>
<event>
12    4  0.4320235E-008  0.2258775E+04  0.7818608E-02  0.8494355E-01
         -2   -1    0    0    0  501 -0.00000000000E+00  0.00000000000E+00  0.75888025537E+03  0.75888025537E+03  0.00000000000E+00 0.  1.
          1   -1    0    0  501    0  0.00000000000E+00 -0.00000000000E+00 -0.16807872069E+04  0.16807872069E+04  0.00000000000E+00 0. -1.
        -24    2    1    2    0    0  0.51875392248E+03 -0.79253736278E+03 -0.28055037653E+03  0.99072897539E+03  0.74928535402E+02 0.  0.
        254    2    1    2    0    0 -0.51875392248E+03  0.79253736278E+03 -0.64135657495E+03  0.14489384868E+04  0.88930499770E+03 0.  0.
         23    2    4    4    0    0  0.59484850320E+02 -0.14929498517E+03 -0.54895834097E+02  0.19447147633E+03  0.94753166136E+02 0.  0.
         23    2    4    4    0    0 -0.57823877280E+03  0.94183234794E+03 -0.58646074086E+03  0.12544670105E+04  0.91340187716E+02 0.  0.
          3    1    3    3  502    0  0.77624540948E+02 -0.91230346279E+02 -0.15094494925E+02  0.12073271809E+03  0.00000000000E+00 0. -1.
         -4    1    3    3    0  502  0.44112938153E+03 -0.70130701650E+03 -0.26545588161E+03  0.86999625730E+03  0.00000000000E+00 0.  1.
         11    1    5    5    0    0  0.83675163026E+02 -0.13380548468E+03 -0.45322733632E+02  0.16419376000E+03  0.00000000000E+00 0. -1.
        -11    1    5    5    0    0 -0.24190312705E+02 -0.15489500486E+02 -0.95731004651E+01  0.30277716337E+02  0.00000000000E+00 0.  1.
          4    1    6    6  503    0 -0.34767771439E+03  0.52080994134E+03 -0.37535271193E+03  0.73007701405E+03  0.00000000000E+00 0. -1.
         -4    1    6    6    0  503 -0.23056105840E+03  0.42102240660E+03 -0.21110802893E+03  0.52438999646E+03  0.00000000000E+00 0.  1.
<mgrwt>
<rscale>  0 0.22587751E+04</rscale>
<asrwt>0</asrwt>
<pdfrwt beam="1">  1        1 0.25858265E+00 0.22587751E+04</pdfrwt>
<pdfrwt beam="2">  1       -2 0.11675081E+00 0.22587751E+04</pdfrwt>
<totfact> 0.22236046E+00</totfact>
</mgrwt>
</event>
<event>
12    4  0.4320235E-008  0.1594459E+04  0.7818608E-02  0.8823959E-01
          1   -1    0    0  501    0  0.00000000000E+00  0.00000000000E+00  0.83013656485E+03  0.83013656485E+03  0.00000000000E+00 0. -1.
         -2   -1    0    0    0  501 -0.00000000000E+00 -0.00000000000E+00 -0.76562686408E+03  0.76562686408E+03  0.00000000000E+00 0.  1.
        -24    2    1    2    0    0 -0.10291566707E+03  0.26864492306E+03 -0.43095939250E+03  0.52409059666E+03  0.78633493554E+02 0.  0.
        254    2    1    2    0    0  0.10291566707E+03 -0.26864492306E+03  0.49546909326E+03  0.10716728323E+04  0.90566622319E+03 0.  0.
         23    2    4    4    0    0 -0.19702598488E+02  0.30311976104E+03  0.32887581317E+03  0.45694837726E+03  0.91502661530E+02 0.  0.
         23    2    4    4    0    0  0.12261826556E+03 -0.57176468410E+03  0.16659328010E+03  0.61472445501E+03  0.90458507498E+02 0.  0.
          3    1    3    3  502    0 -0.77199941522E+02  0.15343947975E+03 -0.19234855138E+03  0.25787878962E+03  0.00000000000E+00 0. -1.
         -2    1    3    3    0  502 -0.25715725546E+02  0.11520544332E+03 -0.23861084112E+03  0.26621180704E+03  0.00000000000E+00 0.  1.
         11    1    5    5    0    0 -0.33171390795E+02  0.12879145009E+03  0.88665350557E+02  0.15984093084E+03  0.00000000000E+00 0. -1.
        -11    1    5    5    0    0  0.13468792307E+02  0.17432831096E+03  0.24021046261E+03  0.29710744642E+03  0.00000000000E+00 0.  1.
          4    1    6    6  503    0  0.25697221040E+02 -0.32439421604E+03  0.10580128896E+03  0.34217812221E+03  0.00000000000E+00 0. -1.
         -4    1    6    6    0  503  0.96921044516E+02 -0.24737046806E+03  0.60791991138E+02  0.27254633280E+03  0.00000000000E+00 0.  1.
<mgrwt>
<rscale>  0 0.15944590E+04</rscale>
<asrwt>0</asrwt>
<pdfrwt beam="1">  1        1 0.12771332E+00 0.15944590E+04</pdfrwt>
<pdfrwt beam="2">  1       -2 0.11778875E+00 0.15944590E+04</pdfrwt>
<totfact> 0.97362197E+00</totfact>
</mgrwt>
</event>
<event>
12    4  0.4320235E-008  0.1118029E+04  0.7818608E-02  0.9187795E-01
         -2   -1    0    0    0  501 -0.00000000000E+00  0.00000000000E+00  0.89123463932E+03  0.89123463932E+03  0.00000000000E+00 0.  1.
          1   -1    0    0  501    0  0.00000000000E+00 -0.00000000000E+00 -0.35063422934E+03  0.35063422934E+03  0.00000000000E+00 0. -1.
        -24    2    1    2    0    0 -0.84678174128E+02 -0.14592312404E+03  0.15695454602E+03  0.24242617208E+03  0.75311141883E+02 0.  0.
        254    2    1    2    0    0  0.84678174128E+02  0.14592312404E+03  0.38364586396E+03  0.99944269658E+03  0.90732442021E+03 0.  0.
         23    2    4    4    0    0 -0.23679882245E+03 -0.23240039151E+03  0.35239508558E+03  0.49384397886E+03  0.98060975030E+02 0.  0.
         23    2    4    4    0    0  0.32147699657E+03  0.37832351555E+03  0.31250778375E+02  0.50559871772E+03  0.90428482647E+02 0.  0.
          1    1    3    3  502    0 -0.86313469249E+02 -0.13485460493E+03  0.11024639749E+03  0.19439662447E+03  0.00000000000E+00 0. -1.
         -2    1    3    3    0  502  0.16352951211E+01 -0.11068519112E+02  0.46708148527E+02  0.48029547617E+02  0.00000000000E+00 0.  1.
         11    1    5    5    0    0  0.26334550476E+01 -0.34553902512E+02  0.26327436238E+02  0.43520583213E+02  0.00000000000E+00 0.  1.
        -11    1    5    5    0    0 -0.23943227749E+03 -0.19784648899E+03  0.32606764935E+03  0.45032339564E+03  0.00000000000E+00 0. -1.
          2    1    6    6  503    0  0.28004324423E+03  0.32897284662E+03 -0.42108932293E+01  0.43204754839E+03  0.00000000000E+00 0. -1.
         -2    1    6    6    0  503  0.41433752340E+02  0.49350668932E+02  0.35461671605E+02  0.73551169331E+02  0.00000000000E+00 0.  1.
<mgrwt>
<rscale>  0 0.11180293E+04</rscale>
<asrwt>0</asrwt>
<pdfrwt beam="1">  1        1 0.53943728E-01 0.11180293E+04</pdfrwt>
<pdfrwt beam="2">  1       -2 0.13711302E+00 0.11180293E+04</pdfrwt>
<totfact> 0.23519551E+01</totfact>
</mgrwt>
</event>
<event>
12    4  0.4320235E-008  0.2195848E+04  0.7818608E-02  0.8520158E-01
         -2   -1    0    0    0  501 -0.00000000000E+00  0.00000000000E+00  0.37349693643E+03  0.37349693643E+03  0.00000000000E+00 0.  1.
          1   -1    0    0  501    0  0.00000000000E+00 -0.00000000000E+00 -0.32274353328E+04  0.32274353328E+04  0.00000000000E+00 0. -1.
        -24    2    1    2    0    0 -0.31093452580E+03  0.73602941946E+03 -0.19254089025E+04  0.20861423759E+04  0.79818450894E+02 0.  0.
        254    2    1    2    0    0  0.31093452580E+03 -0.73602941946E+03 -0.92852949391E+03  0.15147898934E+04  0.89106779446E+03 0.  0.
         23    2    4    4    0    0  0.56797208224E+01 -0.74348348521E+03 -0.93130680975E+03  0.11951098805E+04  0.90306702511E+02 0.  0.
         23    2    4    4    0    0  0.30525480498E+03  0.74540657522E+01  0.27773158430E+01  0.31968001288E+03  0.94612568378E+02 0.  0.
          3    1    3    3  502    0 -0.31178024716E+03  0.73635830993E+03 -0.19257505152E+04  0.20851727817E+04  0.00000000000E+00 0. -1.
         -4    1    3    3    0  502  0.84572136076E+00 -0.32889046991E+00  0.34161268540E+00  0.96959413575E+00  0.00000000000E+00 0.  1.
         11    1    5    5    0    0  0.24235994345E+02 -0.62207626301E+03 -0.81846625741E+03  0.10283254713E+04  0.00000000000E+00 0.  1.
        -11    1    5    5    0    0 -0.18556273523E+02 -0.12140722220E+03 -0.11284055234E+03  0.16678440916E+03  0.00000000000E+00 0. -1.
          2    1    6    6  503    0  0.12611499078E+02 -0.16943925275E+02 -0.14328609227E+02  0.25523627389E+02  0.00000000000E+00 0. -1.
         -2    1    6    6    0  503  0.29264330590E+03  0.24397991027E+02  0.17105925070E+02  0.29415638549E+03  0.00000000000E+00 0.  1.
<mgrwt>
<rscale>  0 0.21958481E+04</rscale>
<asrwt>0</asrwt>
<pdfrwt beam="1">  1        1 0.49652851E+00 0.21958481E+04</pdfrwt>
<pdfrwt beam="2">  1       -2 0.57461068E-01 0.21958481E+04</pdfrwt>
<totfact> 0.92329685E-01</totfact>
</mgrwt>
</event>
<event>
12    4  0.4320235E-008  0.1696224E+04  0.7818608E-02  0.8763521E-01
         -2   -1    0    0    0  501 -0.00000000000E+00  0.00000000000E+00  0.51878496110E+03  0.51878496110E+03  0.00000000000E+00 0.  1.
          1   -1    0    0  501    0  0.00000000000E+00 -0.00000000000E+00 -0.13864968893E+04  0.13864968893E+04  0.00000000000E+00 0. -1.
        -24    2    1    2    0    0 -0.58966293959E+03  0.11144111163E+03 -0.17811595026E+03  0.63070623524E+03  0.77094485795E+02 0.  0.
        254    2    1    2    0    0  0.58966293959E+03 -0.11144111163E+03 -0.68959597792E+03  0.12745756151E+04  0.88818853981E+03 0.  0.
         23    2    4    4    0    0  0.32451696961E+03  0.36482395484E+03 -0.45103560357E+03  0.67105071964E+03  0.92022665959E+02 0.  0.
         23    2    4    4    0    0  0.26514596999E+03 -0.47626506647E+03 -0.23856037435E+03  0.60352489550E+03  0.10099726898E+03 0.  0.
          1    1    3    3  502    0 -0.44797977165E+03  0.50603246511E+02 -0.13100903572E+03  0.46947836138E+03  0.00000000000E+00 0. -1.
         -2    1    3    3    0  502 -0.14168316794E+03  0.60837865122E+02 -0.47106914533E+02  0.16122787385E+03  0.00000000000E+00 0.  1.
         11    1    5    5    0    0  0.18522031553E+03  0.26748688429E+03 -0.27047497739E+03  0.42309870236E+03  0.00000000000E+00 0. -1.
        -11    1    5    5    0    0  0.13929665408E+03  0.97337070547E+02 -0.18056062618E+03  0.24795201727E+03  0.00000000000E+00 0.  1.
          1    1    6    6  503    0  0.21556379997E+03 -0.38079470331E+03 -0.23314376215E+03  0.49581082255E+03  0.00000000000E+00 0. -1.
         -1    1    6    6    0  503  0.49582170016E+02 -0.95470363159E+02 -0.54166122074E+01  0.10771407296E+03  0.00000000000E+00 0.  1.
<mgrwt>
<rscale>  0 0.16962237E+04</rscale>
<asrwt>0</asrwt>
<pdfrwt beam="1">  1        1 0.21330721E+00 0.16962237E+04</pdfrwt>
<pdfrwt beam="2">  1       -2 0.79813072E-01 0.16962237E+04</pdfrwt>
<totfact> 0.91138103E+00</totfact>
</mgrwt>
</event>
<event>
12    4  0.4320235E-008  0.1283378E+04  0.7818608E-02  0.9042851E-01
         -2   -1    0    0    0  501 -0.00000000000E+00  0.00000000000E+00  0.17653006382E+03  0.17653006382E+03  0.00000000000E+00 0.  1.
          1   -1    0    0  501    0  0.00000000000E+00 -0.00000000000E+00 -0.23325487990E+04  0.23325487990E+04  0.00000000000E+00 0. -1.
        -24    2    1    2    0    0  0.47948776583E+02 -0.31903372055E+03 -0.63446231259E+03  0.71629781840E+03  0.80365033034E+02 0.  0.
        254    2    1    2    0    0 -0.47948776583E+02  0.31903372055E+03 -0.15215564226E+04  0.17927810444E+04  0.89154266642E+03 0.  0.
         23    2    4    4    0    0 -0.22600607534E+02  0.54674925070E+03 -0.51693128601E+03  0.75843656088E+03  0.92533949625E+02 0.  0.
         23    2    4    4    0    0 -0.25348169049E+02 -0.22771553015E+03 -0.10046251365E+04  0.10343444835E+04  0.89999740044E+02 0.  0.
          3    1    3    3  502    0  0.37814777806E+01 -0.21573053570E+03 -0.35964615176E+03  0.41940352655E+03  0.00000000000E+00 0. -1.
         -4    1    3    3    0  502  0.44167298802E+02 -0.10330318485E+03 -0.27481616083E+03  0.29689429185E+03  0.00000000000E+00 0.  1.
         11    1    5    5    0    0  0.74565907100E+01  0.22195509226E+03 -0.26837140096E+03  0.34834303865E+03  0.00000000000E+00 0. -1.
        -11    1    5    5    0    0 -0.30057198244E+02  0.32479415844E+03 -0.24855988505E+03  0.41009352223E+03  0.00000000000E+00 0.  1.
          1    1    6    6  503    0  0.76846248840E+01 -0.11305890160E+03 -0.32172898126E+03  0.34110248617E+03  0.00000000000E+00 0. -1.
         -1    1    6    6    0  503 -0.33032793933E+02 -0.11465662855E+03 -0.68289615528E+03  0.69324199732E+03  0.00000000000E+00 0.  1.
<mgrwt>
<rscale>  0 0.12833783E+04</rscale>
<asrwt>0</asrwt>
<pdfrwt beam="1">  1        1 0.35885368E+00 0.12833783E+04</pdfrwt>
<pdfrwt beam="2">  1       -2 0.27158470E-01 0.12833783E+04</pdfrwt>
<totfact> 0.18894566E+01</totfact>
</mgrwt>
</event>
<event>
12    4  0.4320235E-008  0.2809298E+04  0.7818608E-02  0.8300388E-01
          1   -1    0    0  501    0  0.00000000000E+00  0.00000000000E+00  0.13789974360E+04  0.13789974360E+04  0.00000000000E+00 0. -1.
         -4   -1    0    0    0  501 -0.00000000000E+00 -0.00000000000E+00 -0.14307772158E+04  0.14307772158E+04  0.00000000000E+00 0.  1.
        -24    2    1    2    0    0 -0.56492694937E+03 -0.58989622664E+03 -0.98134975310E+03  0.12795576224E+04  0.84263603000E+02 0.  0.
        254    2    1    2    0    0  0.56492694937E+03  0.58989622664E+03  0.92956997326E+03  0.15302170294E+04  0.90019098273E+03 0.  0.
         23    2    4    4    0    0  0.42384645532E+03  0.73772029291E+03  0.97952841671E+03  0.13004542355E+04  0.88477405638E+02 0.  0.
         23    2    4    4    0    0  0.14108049405E+03 -0.14782406627E+03 -0.49958443448E+02  0.22976279382E+03  0.92409063319E+02 0.  0.
          1    1    3    3  502    0 -0.19715504963E+03 -0.16254635266E+03 -0.26787518196E+03  0.37020068000E+03  0.00000000000E+00 0. -1.
         -2    1    3    3    0  502 -0.36777189974E+03 -0.42734987399E+03 -0.71347457113E+03  0.90935694240E+03  0.00000000000E+00 0.  1.
         11    1    5    5    0    0  0.37926202092E+03  0.59377168657E+03  0.81589041224E+03  0.10779989152E+04  0.00000000000E+00 0.  1.
        -11    1    5    5    0    0  0.44584434405E+02  0.14394860634E+03  0.16363800447E+03  0.22245532037E+03  0.00000000000E+00 0. -1.
          2    1    6    6  503    0  0.30168269354E+02 -0.89154125365E+02  0.15378130853E+01  0.94132605480E+02  0.00000000000E+00 0.  1.
         -2    1    6    6    0  503  0.11091222469E+03 -0.58669940903E+02 -0.51496256533E+02  0.13563018834E+03  0.00000000000E+00 0. -1.
<mgrwt>
<rscale>  0 0.28092975E+04</rscale>
<asrwt>0</asrwt>
<pdfrwt beam="1">  1        1 0.21215345E+00 0.28092975E+04</pdfrwt>
<pdfrwt beam="2">  1       -4 0.22011957E+00 0.28092975E+04</pdfrwt>
<totfact> 0.32426457E-01</totfact>
</mgrwt>
</event>
<event>
12    4  0.4320235E-008  0.1559692E+04  0.7818608E-02  0.8845701E-01
          3   -1    0    0  501    0  0.00000000000E+00  0.00000000000E+00  0.30190793507E+03  0.30190793507E+03  0.00000000000E+00 0. -1.
         -4   -1    0    0    0  501 -0.00000000000E+00 -0.00000000000E+00 -0.20143883627E+04  0.20143883627E+04  0.00000000000E+00 0.  1.
        -24    2    1    2    0    0  0.17779932896E+03 -0.32755983140E+02  0.14460792408E+03  0.24513319876E+03  0.80580876248E+02 0.  0.
        254    2    1    2    0    0 -0.17779932896E+03  0.32755983140E+02 -0.18570883517E+04  0.20711630990E+04  0.89902941046E+03 0.  0.
         23    2    4    4    0    0 -0.40302807418E+03 -0.10309595910E+03 -0.17005204466E+04  0.17531310743E+04  0.92942826285E+02 0.  0.
         23    2    4    4    0    0  0.22522874522E+03  0.13585194224E+03 -0.15656790504E+03  0.31803202467E+03  0.86296708745E+02 0.  0.
          3    1    3    3  502    0  0.54435965089E+02  0.26447176128E+02  0.53175545336E+02  0.80562808057E+02  0.00000000000E+00 0. -1.
         -4    1    3    3    0  502  0.12336336387E+03 -0.59203159267E+02  0.91432378740E+02  0.16457039070E+03  0.00000000000E+00 0.  1.
         11    1    5    5    0    0 -0.10860145098E+03 -0.30132310192E+02 -0.30844563314E+03  0.32839144306E+03  0.00000000000E+00 0. -1.
        -11    1    5    5    0    0 -0.29442662321E+03 -0.72963648905E+02 -0.13920748135E+04  0.14247396313E+04  0.00000000000E+00 0.  1.
          2    1    6    6  503    0  0.22892734011E+03  0.11661747145E+03 -0.14140739979E+03  0.29326338744E+03  0.00000000000E+00 0. -1.
         -2    1    6    6    0  503 -0.36985948871E+01  0.19234470787E+02 -0.15160505250E+02  0.24768637226E+02  0.00000000000E+00 0.  1.
<mgrwt>
<rscale>  0 0.15596921E+04</rscale>
<asrwt>0</asrwt>
<pdfrwt beam="1">  1        3 0.46447375E-01 0.15596921E+04</pdfrwt>
<pdfrwt beam="2">  1       -4 0.30990590E+00 0.15596921E+04</pdfrwt>
<totfact> 0.27300941E-01</totfact>
</mgrwt>
</event>
<event>
12    4  0.4320235E-008  0.1640931E+04  0.7818608E-02  0.8795790E-01
          1   -1    0    0  501    0  0.00000000000E+00  0.00000000000E+00  0.37752412822E+03  0.37752412822E+03  0.00000000000E+00 0. -1.
         -2   -1    0    0    0  501 -0.00000000000E+00 -0.00000000000E+00 -0.17831015620E+04  0.17831015620E+04  0.00000000000E+00 0.  1.
        -24    2    1    2    0    0 -0.20961051356E+03 -0.42503109142E+02  0.19579636563E+03  0.29999216704E+03  0.76915549875E+02 0.  0.
        254    2    1    2    0    0  0.20961051356E+03  0.42503109142E+02 -0.16013737995E+04  0.18606335232E+04  0.92293877395E+03 0.  0.
         23    2    4    4    0    0  0.35627858638E+03  0.38994260065E+03 -0.11226757961E+04  0.12441323230E+04  0.92057759631E+02 0.  0.
         23    2    4    4    0    0 -0.14666807282E+03 -0.34743949151E+03 -0.47869800336E+03  0.61650120021E+03  0.93253566134E+02 0.  0.
          1    1    3    3  502    0 -0.20962407018E+03 -0.50029756038E+02  0.19744879389E+03  0.29228625266E+03  0.00000000000E+00 0. -1.
         -2    1    3    3    0  502  0.13556619853E-01  0.75266468963E+01 -0.16524282598E+01  0.77059143803E+01  0.00000000000E+00 0.  1.
         11    1    5    5    0    0  0.48647222838E+02  0.43727586589E+02 -0.80831778239E+02  0.10398283749E+03  0.00000000000E+00 0.  1.
        -11    1    5    5    0    0  0.30763136354E+03  0.34621501406E+03 -0.10418440179E+04  0.11401494855E+04  0.00000000000E+00 0. -1.
          1    1    6    6  503    0 -0.36736873600E+02 -0.19518436269E+03 -0.21412402236E+03  0.29205415640E+03  0.00000000000E+00 0. -1.
         -1    1    6    6    0  503 -0.10993119922E+03 -0.15225512881E+03 -0.26457398100E+03  0.32444704381E+03  0.00000000000E+00 0.  1.
<mgrwt>
<rscale>  0 0.16409313E+04</rscale>
<asrwt>0</asrwt>
<pdfrwt beam="1">  1        1 0.58080635E-01 0.16409313E+04</pdfrwt>
<pdfrwt beam="2">  1       -2 0.27432332E+00 0.16409313E+04</pdfrwt>
<totfact> 0.24736440E+00</totfact>
</mgrwt>
</event>
<event>
12    4  0.4320235E-008  0.2076131E+04  0.7818608E-02  0.8571831E-01
          1   -1    0    0  501    0  0.00000000000E+00  0.00000000000E+00  0.12714469453E+04  0.12714469453E+04  0.00000000000E+00 0. -1.
         -2   -1    0    0    0  501 -0.00000000000E+00 -0.00000000000E+00 -0.84752269717E+03  0.84752269717E+03  0.00000000000E+00 0.  1.
        -24    2    1    2    0    0  0.61642482215E+03 -0.20502975837E+03  0.71872100674E+03  0.97206551940E+03  0.79590987518E+02 0.  0.
        254    2    1    2    0    0 -0.61642482215E+03  0.20502975837E+03 -0.29479675864E+03  0.11469041230E+04  0.89803517491E+03 0.  0.
         23    2    4    4    0    0  0.19500159475E+03 -0.23266098183E+02  0.64636756327E+02  0.22598326334E+03  0.91233720537E+02 0.  0.
         23    2    4    4    0    0 -0.81142641690E+03  0.22829585655E+03 -0.35943351497E+03  0.92092085970E+03  0.91492895870E+02 0.  0.
          1    1    3    3  502    0  0.54470846797E+03 -0.18220944886E+03  0.59317610532E+03  0.82569091691E+03  0.00000000000E+00 0. -1.
         -2    1    3    3    0  502  0.71716354171E+02 -0.22820309513E+02  0.12554490142E+03  0.14637460249E+03  0.00000000000E+00 0.  1.
         11    1    5    5    0    0  0.45296242852E+02  0.27070548650E+02 -0.57237007692E+01  0.53078479361E+02  0.00000000000E+00 0.  1.
        -11    1    5    5    0    0  0.14970535190E+03 -0.50336646834E+02  0.70360457096E+02  0.17290478398E+03  0.00000000000E+00 0. -1.
          1    1    6    6  503    0 -0.46428997444E+03  0.17534728570E+03 -0.19598869459E+03  0.53359480824E+03  0.00000000000E+00 0. -1.
         -1    1    6    6    0  503 -0.34713644245E+03  0.52948570854E+02 -0.16344482038E+03  0.38732605146E+03  0.00000000000E+00 0.  1.
<mgrwt>
<rscale>  0 0.20761312E+04</rscale>
<asrwt>0</asrwt>
<pdfrwt beam="1">  1        1 0.19560722E+00 0.20761312E+04</pdfrwt>
<pdfrwt beam="2">  1       -2 0.13038811E+00 0.20761312E+04</pdfrwt>
<totfact> 0.33050463E+00</totfact>
</mgrwt>
</event>
<event>
12    4  0.4320235E-008  0.1537608E+04  0.7818608E-02  0.8859822E-01
          1   -1    0    0  501    0  0.00000000000E+00  0.00000000000E+00  0.62210610812E+03  0.62210610812E+03  0.00000000000E+00 0. -1.
         -2   -1    0    0    0  501 -0.00000000000E+00 -0.00000000000E+00 -0.95009408261E+03  0.95009408261E+03  0.00000000000E+00 0.  1.
        -24    2    1    2    0    0 -0.12342681533E+03  0.36120028067E+02  0.38414107047E+03  0.41306724519E+03  0.80754887540E+02 0.  0.
        254    2    1    2    0    0  0.12342681533E+03 -0.36120028067E+02 -0.71212904495E+03  0.11591329455E+04  0.90549576123E+03 0.  0.
         23    2    4    4    0    0  0.78718618373E+02  0.15562644513E+03  0.16416172981E+03  0.25634293073E+03  0.91358706747E+02 0.  0.
         23    2    4    4    0    0  0.44708196953E+02 -0.19174647320E+03 -0.87629077476E+03  0.90279001481E+03  0.91535545236E+02 0.  0.
          1    1    3    3  502    0 -0.29500172211E+02  0.28989798049E+02  0.21968492581E+03  0.22354448144E+03  0.00000000000E+00 0. -1.
         -2    1    3    3    0  502 -0.93926643115E+02  0.71302300179E+01  0.16445614466E+03  0.18952276376E+03  0.00000000000E+00 0.  1.
         11    1    5    5    0    0 -0.95490435838E+01  0.79856498692E+02  0.62568466489E+02  0.10189728954E+03  0.00000000000E+00 0.  1.
        -11    1    5    5    0    0  0.88267661956E+02  0.75769946442E+02  0.10159326332E+03  0.15444564119E+03  0.00000000000E+00 0. -1.
          3    1    6    6  503    0  0.28627476286E+02 -0.92160285402E+02 -0.61817464380E+03  0.62566200207E+03  0.00000000000E+00 0. -1.
         -3    1    6    6    0  503  0.16080720667E+02 -0.99586187799E+02 -0.25811613096E+03  0.27712801273E+03  0.00000000000E+00 0.  1.
<mgrwt>
<rscale>  0 0.15376077E+04</rscale>
<asrwt>0</asrwt>
<pdfrwt beam="1">  1        1 0.95708633E-01 0.15376077E+04</pdfrwt>
<pdfrwt beam="2">  1       -2 0.14616832E+00 0.15376077E+04</pdfrwt>
<totfact> 0.87935364E+00</totfact>
</mgrwt>
</event>
<event>
12    4  0.4320235E-008  0.2131250E+04  0.7818608E-02  0.8547601E-01
          1   -1    0    0  501    0  0.00000000000E+00  0.00000000000E+00  0.76268751033E+03  0.76268751033E+03  0.00000000000E+00 0. -1.
         -2   -1    0    0    0  501 -0.00000000000E+00 -0.00000000000E+00 -0.14888883137E+04  0.14888883137E+04  0.00000000000E+00 0.  1.
        -24    2    1    2    0    0  0.17064824298E+03 -0.85772209705E+03 -0.34003237622E+03  0.94210085861E+03  0.84403745877E+02 0.  0.
        254    2    1    2    0    0 -0.17064824298E+03  0.85772209705E+03 -0.38616842715E+03  0.13094749654E+04  0.89486904760E+03 0.  0.
         23    2    4    4    0    0 -0.53484840337E+02  0.43283463190E+02  0.24335615009E+03  0.26957200605E+03  0.93342189428E+02 0.  0.
         23    2    4    4    0    0 -0.11716340264E+03  0.81443863386E+03 -0.62952457724E+03  0.10399029594E+04  0.89774274277E+02 0.  0.
          1    1    3    3  502    0  0.33931841490E+02 -0.66331106138E+02 -0.41591436117E+02  0.85328969680E+02  0.00000000000E+00 0. -1.
         -4    1    3    3    0  502  0.13671640149E+03 -0.79139099091E+03 -0.29844094010E+03  0.85677188893E+03  0.00000000000E+00 0.  1.
         11    1    5    5    0    0 -0.99029725321E+01 -0.22848452475E+02  0.18064809807E+02  0.30764557511E+02  0.00000000000E+00 0. -1.
        -11    1    5    5    0    0 -0.43581867805E+02  0.66131915665E+02  0.22529134028E+03  0.23880744854E+03  0.00000000000E+00 0.  1.
          1    1    6    6  503    0  0.10370876593E+02  0.20289472779E+02 -0.24261677424E+02  0.33284332326E+02  0.00000000000E+00 0. -1.
         -1    1    6    6    0  503 -0.12753427923E+03  0.79414916108E+03 -0.60526289982E+03  0.10066186270E+04  0.00000000000E+00 0.  1.
<mgrwt>
<rscale>  0 0.21312499E+04</rscale>
<asrwt>0</asrwt>
<pdfrwt beam="1">  1        1 0.11733654E+00 0.21312499E+04</pdfrwt>
<pdfrwt beam="2">  1       -2 0.22905974E+00 0.21312499E+04</pdfrwt>
<totfact> 0.16610778E+00</totfact>
</mgrwt>
</event>
<event>
12    4  0.4320235E-008  0.1527295E+04  0.7818608E-02  0.8866502E-01
         -2   -1    0    0    0  501 -0.00000000000E+00  0.00000000000E+00  0.11440504122E+04  0.11440504122E+04  0.00000000000E+00 0.  1.
          1   -1    0    0  501    0  0.00000000000E+00 -0.00000000000E+00 -0.50973049493E+03  0.50973049493E+03  0.00000000000E+00 0. -1.
        -24    2    1    2    0    0  0.10705027788E+03 -0.28770737708E+03 -0.20787661081E+03  0.37891695418E+03  0.78294802033E+02 0.  0.
        254    2    1    2    0    0 -0.10705027788E+03  0.28770737708E+03  0.84219652809E+03  0.12748639529E+04  0.90650306662E+03 0.  0.
         23    2    4    4    0    0  0.22882331504E+03  0.46202858570E+03  0.28683776593E+03  0.59678809826E+03  0.89719600685E+02 0.  0.
         23    2    4    4    0    0 -0.33587359292E+03 -0.17432120862E+03  0.55535876215E+03  0.67807585469E+03  0.90357931695E+02 0.  0.
          3    1    3    3  502    0  0.11085591541E+03 -0.28936999088E+03 -0.20992192975E+03  0.37428764633E+03  0.00000000000E+00 0. -1.
         -4    1    3    3    0  502 -0.38056375305E+01  0.16626138050E+01  0.20453189341E+01  0.46293078555E+01  0.00000000000E+00 0.  1.
         11    1    5    5    0    0  0.20899697695E+03  0.40945301941E+03  0.28435146774E+03  0.54054349380E+03  0.00000000000E+00 0.  1.
        -11    1    5    5    0    0  0.19826338086E+02  0.52575566284E+02  0.24862981965E+01  0.56244604458E+02  0.00000000000E+00 0. -1.
          1    1    6    6  503    0 -0.78346453309E+02 -0.27639348794E+01  0.13488942960E+03  0.15601591041E+03  0.00000000000E+00 0. -1.
         -1    1    6    6    0  503 -0.25752713961E+03 -0.17155727374E+03  0.42046933255E+03  0.52205994428E+03  0.00000000000E+00 0.  1.
<mgrwt>
<rscale>  0 0.15272948E+04</rscale>
<asrwt>0</asrwt>
<pdfrwt beam="1">  1        1 0.78420077E-01 0.15272948E+04</pdfrwt>
<pdfrwt beam="2">  1       -2 0.17600775E+00 0.15272948E+04</pdfrwt>
<totfact> 0.70357173E+00</totfact>
</mgrwt>
</event>
<event>
12    4  0.4320235E-008  0.1806419E+04  0.7818608E-02  0.8702893E-01
          1   -1    0    0  501    0  0.00000000000E+00  0.00000000000E+00  0.19325582910E+04  0.19325582910E+04  0.00000000000E+00 0. -1.
         -2   -1    0    0    0  501 -0.00000000000E+00 -0.00000000000E+00 -0.42212845515E+03  0.42212845515E+03  0.00000000000E+00 0.  1.
        -24    2    1    2    0    0  0.12095851916E+03 -0.51092353045E+03  0.96084545247E+03  0.10978505289E+04  0.79862274881E+02 0.  0.
        254    2    1    2    0    0 -0.12095851916E+03  0.51092353045E+03  0.54958438333E+03  0.12568362172E+04  0.10009597720E+04 0.  0.
         23    2    4    4    0    0 -0.28391287700E+03  0.52332257514E+03  0.76345742751E+03  0.97255721553E+03  0.92343134491E+02 0.  0.
         23    2    4    4    0    0  0.16295435785E+03 -0.12399044695E+02 -0.21387304418E+03  0.28427900167E+03  0.91460443435E+02 0.  0.
          3    1    3    3  502    0  0.11599927360E+03 -0.50654742257E+03  0.95937383967E+03  0.10910748311E+04  0.00000000000E+00 0. -1.
         -2    1    3    3    0  502  0.49592455530E+01 -0.43761078752E+01  0.14716128008E+01  0.67756978110E+01  0.00000000000E+00 0.  1.
         11    1    5    5    0    0 -0.20701667983E+03  0.30351065459E+03  0.50740286329E+03  0.62644416260E+03  0.00000000000E+00 0.  1.
        -11    1    5    5    0    0 -0.76896197177E+02  0.21981192055E+03  0.25605456422E+03  0.34611305294E+03  0.00000000000E+00 0. -1.
          2    1    6    6  503    0  0.70190229338E+02 -0.42563281756E+02 -0.13853088215E+03  0.16102517368E+03  0.00000000000E+00 0. -1.
         -2    1    6    6    0  503  0.92764128509E+02  0.30164237062E+02 -0.75342162027E+02  0.12325382799E+03  0.00000000000E+00 0.  1.
<mgrwt>
<rscale>  0 0.18064195E+04</rscale>
<asrwt>0</asrwt>
<pdfrwt beam="1">  1        1 0.29731665E+00 0.18064195E+04</pdfrwt>
<pdfrwt beam="2">  1       -2 0.64942841E-01 0.18064195E+04</pdfrwt>
<totfact> 0.59976609E+00</totfact>
</mgrwt>
</event>
<event>
12    4  0.4320235E-008  0.1827434E+04  0.7818608E-02  0.8691845E-01
         -2   -1    0    0    0  501 -0.00000000000E+00  0.00000000000E+00  0.93615291626E+03  0.93615291626E+03  0.00000000000E+00 0.  1.
          1   -1    0    0  501    0  0.00000000000E+00 -0.00000000000E+00 -0.89181890777E+03  0.89181890777E+03  0.00000000000E+00 0. -1.
        -24    2    1    2    0    0 -0.49296836120E+03  0.41994337712E+03  0.35089197902E+03  0.74157155793E+03  0.86214554847E+02 0.  0.
        254    2    1    2    0    0  0.49296836120E+03 -0.41994337712E+03 -0.30655797052E+03  0.10864002661E+04  0.81665017220E+03 0.  0.
         23    2    4    4    0    0  0.52484857006E+03 -0.55149506397E+03 -0.43229036745E+03  0.88027556472E+03  0.91636679140E+02 0.  0.
         23    2    4    4    0    0 -0.31880208858E+02  0.13155168686E+03  0.12573239693E+03  0.20612470138E+03  0.91414237671E+02 0.  0.
          1    1    3    3  502    0 -0.23022100888E+02  0.21743867179E+02  0.41697496573E+02  0.52359279117E+02  0.00000000000E+00 0. -1.
         -2    1    3    3    0  502 -0.46994626031E+03  0.39819950994E+03  0.30919448244E+03  0.68921227881E+03  0.00000000000E+00 0.  1.
         11    1    5    5    0    0  0.14551026309E+03 -0.21474108688E+03 -0.15513507263E+03  0.30224801375E+03  0.00000000000E+00 0.  1.
        -11    1    5    5    0    0  0.37933830697E+03 -0.33675397710E+03 -0.27715529482E+03  0.57802755096E+03  0.00000000000E+00 0. -1.
          3    1    6    6  503    0 -0.49331452957E+02  0.13527056784E+03  0.11984510922E+03  0.18733544506E+03  0.00000000000E+00 0. -1.
         -3    1    6    6    0  503  0.17451244099E+02 -0.37188809784E+01  0.58872877146E+01  0.18789256317E+02  0.00000000000E+00 0.  1.
<mgrwt>
<rscale>  0 0.18274341E+04</rscale>
<asrwt>0</asrwt>
<pdfrwt beam="1">  1        1 0.13720291E+00 0.18274341E+04</pdfrwt>
<pdfrwt beam="2">  1       -2 0.14402353E+00 0.18274341E+04</pdfrwt>
<totfact> 0.50841994E+00</totfact>
</mgrwt>
</event>
<event>
12    4  0.4320235E-008  0.1086152E+04  0.7818608E-02  0.9218795E-01
          1   -1    0    0  501    0  0.00000000000E+00  0.00000000000E+00  0.21464573801E+03  0.21464573801E+03  0.00000000000E+00 0. -1.
         -2   -1    0    0    0  501 -0.00000000000E+00 -0.00000000000E+00 -0.13740399126E+04  0.13740399126E+04  0.00000000000E+00 0.  1.
        -24    2    1    2    0    0  0.11346986135E+03 -0.36160317463E+02 -0.37140222029E+02  0.14858412514E+03  0.80714733207E+02 0.  0.
        254    2    1    2    0    0 -0.11346986135E+03  0.36160317463E+02 -0.11222539525E+04  0.14401015254E+04  0.89457000375E+03 0.  0.
         23    2    4    4    0    0 -0.14364103147E+03  0.44787254178E+03 -0.56538628734E+03  0.74123454966E+03  0.92436162330E+02 0.  0.
         23    2    4    4    0    0  0.30171170120E+02 -0.41171222431E+03 -0.55686766518E+03  0.69886697577E+03  0.88860554452E+02 0.  0.
          1    1    3    3  502    0  0.10846795737E+03 -0.36399856118E+02 -0.57196031884E+02  0.12791260049E+03  0.00000000000E+00 0. -1.
         -2    1    3    3    0  502  0.50019039776E+01  0.23953865531E+00  0.20055809854E+02  0.20671524643E+02  0.00000000000E+00 0.  1.
         11    1    5    5    0    0 -0.25523279300E+02  0.10321720818E+03 -0.74113878820E+02  0.12960747233E+03  0.00000000000E+00 0. -1.
        -11    1    5    5    0    0 -0.11811775217E+03  0.34465533360E+03 -0.49127240852E+03  0.61162707733E+03  0.00000000000E+00 0.  1.
          2    1    6    6  503    0 -0.19863729647E+02 -0.10537146548E+03 -0.19124897076E+03  0.21925757071E+03  0.00000000000E+00 0. -1.
         -2    1    6    6    0  503  0.50034899767E+02 -0.30634075883E+03 -0.36561869442E+03  0.47960940506E+03  0.00000000000E+00 0.  1.
<mgrwt>
<rscale>  0 0.10861525E+04</rscale>
<asrwt>0</asrwt>
<pdfrwt beam="1">  1        1 0.33022421E-01 0.10861525E+04</pdfrwt>
<pdfrwt beam="2">  1       -2 0.21139076E+00 0.10861525E+04</pdfrwt>
<totfact> 0.13238485E+01</totfact>
</mgrwt>
</event>
<event>
12    4  0.4320235E-008  0.1359370E+04  0.7818608E-02  0.8983766E-01
          1   -1    0    0  501    0  0.00000000000E+00  0.00000000000E+00  0.16798793751E+04  0.16798793751E+04  0.00000000000E+00 0. -1.
         -2   -1    0    0    0  501 -0.00000000000E+00 -0.00000000000E+00 -0.27500277577E+03  0.27500277577E+03  0.00000000000E+00 0.  1.
        -24    2    1    2    0    0 -0.15198067337E+03  0.15367045072E+03  0.10639196743E+04  0.10887248962E+04  0.81756306472E+02 0.  0.
        254    2    1    2    0    0  0.15198067337E+03 -0.15367045072E+03  0.34095692504E+03  0.86615725472E+03  0.76633154226E+03 0.  0.
         23    2    4    4    0    0 -0.23477655239E+03  0.34054500873E+02  0.34264870467E+03  0.42667394164E+03  0.91448231710E+02 0.  0.
         23    2    4    4    0    0  0.38675722576E+03 -0.18772495160E+03 -0.16917796250E+01  0.43948331308E+03  0.91219028851E+02 0.  0.
          3    1    3    3  502    0 -0.22586238007E+02  0.70808767129E+02  0.26830157223E+03  0.27840573506E+03  0.00000000000E+00 0. -1.
         -4    1    3    3    0  502 -0.12939443537E+03  0.82861683593E+02  0.79561810210E+03  0.81031916113E+03  0.00000000000E+00 0.  1.
         11    1    5    5    0    0 -0.16645734639E+03  0.65471479815E+02  0.24850366777E+03  0.30618399000E+03  0.00000000000E+00 0.  1.
        -11    1    5    5    0    0 -0.68319205994E+02 -0.31416978941E+02  0.94145036898E+02  0.12048995164E+03  0.00000000000E+00 0. -1.
          1    1    6    6  503    0  0.19640587743E+03 -0.44933612822E+02 -0.38710347156E+01  0.20151745125E+03  0.00000000000E+00 0. -1.
         -1    1    6    6    0  503  0.19035134833E+03 -0.14279133877E+03  0.21792550905E+01  0.23796586182E+03  0.00000000000E+00 0.  1.
<mgrwt>
<rscale>  0 0.13593697E+04</rscale>
<asrwt>0</asrwt>
<pdfrwt beam="1">  1        1 0.25844297E+00 0.13593697E+04</pdfrwt>
<pdfrwt beam="2">  1       -2 0.42308120E-01 0.13593697E+04</pdfrwt>
<totfact> 0.22365311E+01</totfact>
</mgrwt>
</event>
<event>
12    4  0.4320235E-008  0.1850752E+04  0.7818608E-02  0.8679766E-01
          1   -1    0    0  501    0  0.00000000000E+00  0.00000000000E+00  0.95270979913E+03  0.95270979913E+03  0.00000000000E+00 0. -1.
         -2   -1    0    0    0  501 -0.00000000000E+00 -0.00000000000E+00 -0.89882644892E+03  0.89882644892E+03  0.00000000000E+00 0.  1.
        -24    2    1    2    0    0 -0.46115599659E+03  0.45115156385E+03 -0.24148179540E+03  0.69339246749E+03  0.79227960410E+02 0.  0.
        254    2    1    2    0    0  0.46115599659E+03 -0.45115156385E+03  0.29536514561E+03  0.11581437806E+04  0.91534357509E+03 0.  0.
         23    2    4    4    0    0  0.16113988202E+03  0.20684153759E+03 -0.13688232106E+03  0.31040958905E+03  0.94169315081E+02 0.  0.
         23    2    4    4    0    0  0.30001611456E+03 -0.65799310144E+03  0.43224746668E+03  0.84773419151E+03  0.94078671701E+02 0.  0.
          3    1    3    3  502    0 -0.19582512703E+02  0.27752568789E+02 -0.32253508342E+02  0.46839819368E+02  0.00000000000E+00 0. -1.
         -4    1    3    3    0  502 -0.44157348388E+03  0.42339899506E+03 -0.20922828706E+03  0.64655264812E+03  0.00000000000E+00 0.  1.
         11    1    5    5    0    0  0.96428284101E+02  0.15147976802E+03 -0.13597760547E+03  0.22524307600E+03  0.00000000000E+00 0. -1.
        -11    1    5    5    0    0  0.64711597922E+02  0.55361769569E+02 -0.90471559367E+00  0.85166513054E+02  0.00000000000E+00 0.  1.
          4    1    6    6  503    0  0.12853099553E+03 -0.39273622358E+03  0.25382589066E+03  0.48496344284E+03  0.00000000000E+00 0.  1.
         -4    1    6    6    0  503  0.17148511903E+03 -0.26525687786E+03  0.17842157602E+03  0.36277074867E+03  0.00000000000E+00 0. -1.
<mgrwt>
<rscale>  0 0.18507520E+04</rscale>
<asrwt>0</asrwt>
<pdfrwt beam="1">  1        1 0.14657074E+00 0.18507520E+04</pdfrwt>
<pdfrwt beam="2">  1       -2 0.13828099E+00 0.18507520E+04</pdfrwt>
<totfact> 0.50363005E+00</totfact>
</mgrwt>
</event>
<event>
12    4  0.4320235E-008  0.1124539E+04  0.7818608E-02  0.9181599E-01
          1   -1    0    0  501    0  0.00000000000E+00  0.00000000000E+00  0.62202504656E+03  0.62202504656E+03  0.00000000000E+00 0. -1.
         -2   -1    0    0    0  501 -0.00000000000E+00 -0.00000000000E+00 -0.50825414820E+03  0.50825414820E+03  0.00000000000E+00 0.  1.
        -24    2    1    2    0    0  0.15398389611E+03  0.67180363986E+02 -0.72244550132E+02  0.19926247637E+03  0.79132912872E+02 0.  0.
        254    2    1    2    0    0 -0.15398389611E+03 -0.67180363986E+02  0.18601544850E+03  0.93101671839E+03  0.89664159019E+03 0.  0.
         23    2    4    4    0    0 -0.44955044346E+03 -0.27419928281E+02  0.35084536629E+03  0.57799910712E+03  0.90238811501E+02 0.  0.
         23    2    4    4    0    0  0.29556654734E+03 -0.39760435705E+02 -0.16482991780E+03  0.35301761127E+03  0.92260803745E+02 0.  0.
          3    1    3    3  502    0  0.94990327524E+01 -0.62566036131E+00  0.14699796759E+02  0.17513055098E+02  0.00000000000E+00 0. -1.
         -4    1    3    3    0  502  0.14448486336E+03  0.67806024348E+02 -0.86944346891E+02  0.18174942128E+03  0.00000000000E+00 0.  1.
         11    1    5    5    0    0 -0.60545364018E+02 -0.29471156649E+01  0.91753221182E+02  0.10996854183E+03  0.00000000000E+00 0.  1.
        -11    1    5    5    0    0 -0.38900507944E+03 -0.24472812616E+02  0.25909214511E+03  0.46803056529E+03  0.00000000000E+00 0. -1.
          3    1    6    6  503    0  0.10640116056E+03  0.20696838096E+02 -0.28322781983E+02  0.11203457526E+03  0.00000000000E+00 0. -1.
         -3    1    6    6    0  503  0.18916538679E+03 -0.60457273801E+02 -0.13650713581E+03  0.24098303600E+03  0.00000000000E+00 0.  1.
<mgrwt>
<rscale>  0 0.11245387E+04</rscale>
<asrwt>0</asrwt>
<pdfrwt beam="1">  1        1 0.95696161E-01 0.11245387E+04</pdfrwt>
<pdfrwt beam="2">  1       -2 0.78192946E-01 0.11245387E+04</pdfrwt>
<totfact> 0.41194953E+01</totfact>
</mgrwt>
</event>
<event>
12    4  0.4320235E-008  0.2422051E+04  0.7818608E-02  0.8431294E-01
          1   -1    0    0  501    0  0.00000000000E+00  0.00000000000E+00  0.22665280255E+04  0.22665280255E+04  0.00000000000E+00 0. -1.
         -2   -1    0    0    0  501 -0.00000000000E+00 -0.00000000000E+00 -0.64706151408E+03  0.64706151408E+03  0.00000000000E+00 0.  1.
        -24    2    1    2    0    0  0.76584953248E+03  0.20317108426E+03 -0.11122126982E+03  0.80455824773E+03  0.84497380158E+02 0.  0.
        254    2    1    2    0    0 -0.76584953248E+03 -0.20317108426E+03  0.17306877812E+04  0.21090312918E+04  0.90825590997E+03 0.  0.
         23    2    4    4    0    0 -0.77433943000E+03 -0.37699190821E+03  0.87490718985E+03  0.12312103551E+04  0.93230338397E+02 0.  0.
         23    2    4    4    0    0  0.84898975170E+01  0.17382082395E+03  0.85578059135E+03  0.87782093670E+03  0.89013589824E+02 0.  0.
          3    1    3    3  502    0  0.65909137107E+02  0.37692305825E+02 -0.26179771131E+02  0.80312543784E+02  0.00000000000E+00 0. -1.
         -4    1    3    3    0  502  0.69994039538E+03  0.16547877843E+03 -0.85041498685E+02  0.72424570395E+03  0.00000000000E+00 0.  1.
         11    1    5    5    0    0 -0.57559584023E+03 -0.31060189105E+03  0.61974599583E+03  0.90103784901E+03  0.00000000000E+00 0. -1.
        -11    1    5    5    0    0 -0.19874358977E+03 -0.66390017159E+02  0.25516119402E+03  0.33017250611E+03  0.00000000000E+00 0.  1.
          1    1    6    6  503    0 -0.71507595422E+01  0.73797177302E+02  0.56661294936E+03  0.57144325275E+03  0.00000000000E+00 0. -1.
         -1    1    6    6    0  503  0.15640657059E+02  0.10002364665E+03  0.28916764200E+03  0.30637768394E+03  0.00000000000E+00 0.  1.
<mgrwt>
<rscale>  0 0.24220512E+04</rscale>
<asrwt>0</asrwt>
<pdfrwt beam="1">  1        1 0.34869662E+00 0.24220512E+04</pdfrwt>
<pdfrwt beam="2">  1       -2 0.99547926E-01 0.24220512E+04</pdfrwt>
<totfact> 0.12875627E+00</totfact>
</mgrwt>
</event>
<event>
12    4  0.4320235E-008  0.1427323E+04  0.7818608E-02  0.8934275E-01
          3   -1    0    0  501    0  0.00000000000E+00  0.00000000000E+00  0.96197891942E+03  0.96197891942E+03  0.00000000000E+00 0. -1.
         -4   -1    0    0    0  501 -0.00000000000E+00 -0.00000000000E+00 -0.52944298398E+03  0.52944298398E+03  0.00000000000E+00 0.  1.
        -24    2    1    2    0    0  0.35986393975E+02  0.24821628202E+03 -0.23058402665E+03  0.35038683859E+03  0.81826646628E+02 0.  0.
        254    2    1    2    0    0 -0.35986393975E+02 -0.24821628202E+03  0.66311996209E+03  0.11410350648E+04  0.89405066511E+03 0.  0.
         23    2    4    4    0    0 -0.92507793705E+02 -0.30721364267E+03 -0.11454095617E+03  0.35368617263E+03  0.95059791364E+02 0.  0.
         23    2    4    4    0    0  0.56521399730E+02  0.58997360647E+02  0.77766091827E+03  0.78734889218E+03  0.92121751062E+02 0.  0.
          3    1    3    3  502    0 -0.22232537110E+02  0.50620575963E+02 -0.69972601553E+02  0.89178996323E+02  0.00000000000E+00 0. -1.
         -4    1    3    3    0  502  0.58218931085E+02  0.19759570606E+03 -0.16061142510E+03  0.26120784227E+03  0.00000000000E+00 0.  1.
         11    1    5    5    0    0  0.13068426723E+02 -0.44895515682E+02 -0.39297713751E+02  0.61079468002E+02  0.00000000000E+00 0.  1.
        -11    1    5    5    0    0 -0.10557622043E+03 -0.26231812699E+03 -0.75243242423E+02  0.29260670463E+03  0.00000000000E+00 0. -1.
          4    1    6    6  503    0  0.78813117068E+02  0.61191316903E+02  0.66934293800E+03  0.67673913241E+03  0.00000000000E+00 0. -1.
         -4    1    6    6    0  503 -0.22291717337E+02 -0.21939562553E+01  0.10831798027E+03  0.11060975976E+03  0.00000000000E+00 0.  1.
<mgrwt>
<rscale>  0 0.14273234E+04</rscale>
<asrwt>0</asrwt>
<pdfrwt beam="1">  1        3 0.14799676E+00 0.14273234E+04</pdfrwt>
<pdfrwt beam="2">  1       -4 0.81452767E-01 0.14273234E+04</pdfrwt>
<totfact> 0.99266109E-01</totfact>
</mgrwt>
</event>
<event>
12    4  0.4320235E-008  0.2425407E+04  0.7818608E-02  0.8430052E-01
          1   -1    0    0  501    0  0.00000000000E+00  0.00000000000E+00  0.16436786999E+04  0.16436786999E+04  0.00000000000E+00 0. -1.
         -2   -1    0    0    0  501 -0.00000000000E+00 -0.00000000000E+00 -0.89473093953E+03  0.89473093953E+03  0.00000000000E+00 0.  1.
        -24    2    1    2    0    0  0.35887329759E+03 -0.83195403103E+03  0.85671917172E+03  0.12495399135E+04  0.80278906130E+02 0.  0.
        254    2    1    2    0    0 -0.35887329759E+03  0.83195403103E+03 -0.10777141133E+03  0.12888697260E+04  0.91029277704E+03 0.  0.
         23    2    4    4    0    0 -0.25242578251E+03  0.52793615258E+03  0.37491031035E+03  0.70102626457E+03  0.91895189925E+02 0.  0.
         23    2    4    4    0    0 -0.10644751508E+03  0.30401787845E+03 -0.48268172168E+03  0.58784346139E+03  0.93916701264E+02 0.  0.
          1    1    3    3  502    0  0.24172481895E+03 -0.64660456834E+03  0.64600011489E+03  0.94543350075E+03  0.00000000000E+00 0. -1.
         -2    1    3    3    0  502  0.11714847864E+03 -0.18534946269E+03  0.21071905683E+03  0.30410641275E+03  0.00000000000E+00 0.  1.
         11    1    5    5    0    0 -0.25571927081E+02  0.11227705646E+02  0.14887676702E+02  0.31648503066E+02  0.00000000000E+00 0. -1.
        -11    1    5    5    0    0 -0.22685385543E+03  0.51670844693E+03  0.36002263365E+03  0.66937776150E+03  0.00000000000E+00 0.  1.
          1    1    6    6  503    0 -0.21814400987E+02  0.10200837360E+02 -0.71426157007E+02  0.75376528695E+02  0.00000000000E+00 0. -1.
         -1    1    6    6    0  503 -0.84633114096E+02  0.29381704109E+03 -0.41125556467E+03  0.51246693270E+03  0.00000000000E+00 0.  1.
<mgrwt>
<rscale>  0 0.24254073E+04</rscale>
<asrwt>0</asrwt>
<pdfrwt beam="1">  1        1 0.25287365E+00 0.24254073E+04</pdfrwt>
<pdfrwt beam="2">  1       -2 0.13765091E+00 0.24254073E+04</pdfrwt>
<totfact> 0.15349122E+00</totfact>
</mgrwt>
</event>
<event>
12    4  0.4320235E-008  0.1625796E+04  0.7818608E-02  0.8804856E-01
         -2   -1    0    0    0  501 -0.00000000000E+00  0.00000000000E+00  0.24151832437E+04  0.24151832437E+04  0.00000000000E+00 0.  1.
          1   -1    0    0  501    0  0.00000000000E+00 -0.00000000000E+00 -0.27360361386E+03  0.27360361386E+03  0.00000000000E+00 0. -1.
        -24    2    1    2    0    0  0.11170124679E+02  0.37850420967E+03  0.14323302951E+04  0.14836028901E+04  0.78212868587E+02 0.  0.
        254    2    1    2    0    0 -0.11170124679E+02 -0.37850420967E+03  0.70924933474E+03  0.12051839675E+04  0.89779929170E+03 0.  0.
         23    2    4    4    0    0  0.37309890267E+03 -0.28515762577E+03  0.12530965813E+03  0.49412663517E+03  0.89112055635E+02 0.  0.
         23    2    4    4    0    0 -0.38426902735E+03 -0.93346583896E+02  0.58393967661E+03  0.71105733229E+03  0.90778377265E+02 0.  0.
          3    1    3    3  502    0  0.37519828039E+02  0.11324498898E+03  0.39990683100E+03  0.41732198421E+03  0.00000000000E+00 0. -1.
         -2    1    3    3    0  502 -0.26349703359E+02  0.26525922069E+03  0.10324234641E+04  0.10662809059E+04  0.00000000000E+00 0.  1.
         11    1    5    5    0    0  0.50694679753E+02 -0.67204620181E+02  0.49476012489E+02  0.97643675375E+02  0.00000000000E+00 0. -1.
        -11    1    5    5    0    0  0.32240422292E+03 -0.21795300559E+03  0.75833645641E+02  0.39648295980E+03  0.00000000000E+00 0.  1.
          2    1    6    6  503    0 -0.94154183125E+02 -0.11210611545E+02  0.81221201683E+02  0.12485019669E+03  0.00000000000E+00 0. -1.
         -2    1    6    6    0  503 -0.29011484422E+03 -0.82135972351E+02  0.50271847492E+03  0.58620713560E+03  0.00000000000E+00 0.  1.
<mgrwt>
<rscale>  0 0.16257956E+04</rscale>
<asrwt>0</asrwt>
<pdfrwt beam="1">  1        1 0.42092865E-01 0.16257956E+04</pdfrwt>
<pdfrwt beam="2">  1       -2 0.37156664E+00 0.16257956E+04</pdfrwt>
<totfact> 0.94402160E-01</totfact>
</mgrwt>
</event>
<event>
12    4  0.4320235E-008  0.3130782E+04  0.7818608E-02  0.8207340E-01
          1   -1    0    0  501    0  0.00000000000E+00  0.00000000000E+00  0.13688917788E+04  0.13688917788E+04  0.00000000000E+00 0. -1.
         -2   -1    0    0    0  501 -0.00000000000E+00 -0.00000000000E+00 -0.17900974474E+04  0.17900974474E+04  0.00000000000E+00 0.  1.
        -24    2    1    2    0    0 -0.12730093596E+04  0.26039451716E+03 -0.77360127636E+03  0.15146925987E+04  0.86467333621E+02 0.  0.
        254    2    1    2    0    0  0.12730093596E+04 -0.26039451716E+03  0.35239560774E+03  0.16442966274E+04  0.94401832630E+03 0.  0.
         23    2    4    4    0    0  0.24205774829E+03 -0.18267891047E+03 -0.28492538745E+03  0.42624792238E+03  0.92419029868E+02 0.  0.
         23    2    4    4    0    0  0.10309516113E+04 -0.77715606694E+02  0.63732099520E+03  0.12180487050E+04  0.92540026738E+02 0.  0.
          1    1    3    3  502    0 -0.10976867407E+03  0.83655572655E+01 -0.89438392547E+02  0.14183924145E+03  0.00000000000E+00 0. -1.
         -2    1    3    3    0  502 -0.11632406855E+04  0.25202895990E+03 -0.68416288381E+03  0.13728533573E+04  0.00000000000E+00 0.  1.
         11    1    5    5    0    0  0.48617670657E+02 -0.17995572899E+02 -0.97914416539E+02  0.11079147761E+03  0.00000000000E+00 0.  1.
        -11    1    5    5    0    0  0.19344007763E+03 -0.16468333757E+03 -0.18701097092E+03  0.31545644478E+03  0.00000000000E+00 0. -1.
          3    1    6    6  503    0  0.71329908609E+03 -0.17663415788E+02  0.46559597311E+03  0.85199013647E+03  0.00000000000E+00 0.  1.
         -3    1    6    6    0  503  0.31765252519E+03 -0.60052190905E+02  0.17172502209E+03  0.36605856854E+03  0.00000000000E+00 0. -1.
<mgrwt>
<rscale>  0 0.31307824E+04</rscale>
<asrwt>0</asrwt>
<pdfrwt beam="1">  1        1 0.21059874E+00 0.31307824E+04</pdfrwt>
<pdfrwt beam="2">  1       -2 0.27539960E+00 0.31307824E+04</pdfrwt>
<totfact> 0.26826195E-01</totfact>
</mgrwt>
</event>
<event>
12    4  0.4320235E-008  0.1763879E+04  0.7818608E-02  0.8725747E-01
         -2   -1    0    0    0  501 -0.00000000000E+00  0.00000000000E+00  0.43338560519E+03  0.43338560519E+03  0.00000000000E+00 0.  1.
          1   -1    0    0  501    0  0.00000000000E+00 -0.00000000000E+00 -0.17947471221E+04  0.17947471221E+04  0.00000000000E+00 0. -1.
        -24    2    1    2    0    0 -0.10448694869E+03 -0.59421907500E+03 -0.78420248767E+03  0.99287535942E+03  0.82547599306E+02 0.  0.
        254    2    1    2    0    0  0.10448694869E+03  0.59421907500E+03 -0.57715902926E+03  0.12352573679E+04  0.91034849827E+03 0.  0.
         23    2    4    4    0    0 -0.39239737360E+03  0.25486933988E+03 -0.32299634353E+03  0.57579488650E+03  0.90989198088E+02 0.  0.
         23    2    4    4    0    0  0.49688432229E+03  0.33934973511E+03 -0.25416268573E+03  0.65946248138E+03  0.90773460139E+02 0.  0.
          1    1    3    3  502    0  0.51175485712E+01 -0.96619569298E+02 -0.16165325866E+03  0.18839667330E+03  0.00000000000E+00 0. -1.
         -4    1    3    3    0  502 -0.10960449726E+03 -0.49759950570E+03 -0.62254922900E+03  0.80447868612E+03  0.00000000000E+00 0.  1.
         11    1    5    5    0    0 -0.35749312270E+03  0.25638595522E+03 -0.31139331016E+03  0.53898133959E+03  0.00000000000E+00 0.  1.
        -11    1    5    5    0    0 -0.34904250900E+02 -0.15166153376E+01 -0.11603033366E+02  0.36813546912E+02  0.00000000000E+00 0. -1.
          2    1    6    6  503    0  0.27001909028E+03  0.20492367407E+03 -0.18787429104E+03  0.38755744160E+03  0.00000000000E+00 0. -1.
         -2    1    6    6    0  503  0.22686523201E+03  0.13442606105E+03 -0.66288394694E+02  0.27190503977E+03  0.00000000000E+00 0.  1.
<mgrwt>
<rscale>  0 0.17638793E+04</rscale>
<asrwt>0</asrwt>
<pdfrwt beam="1">  1        1 0.27611494E+00 0.17638793E+04</pdfrwt>
<pdfrwt beam="2">  1       -2 0.66674709E-01 0.17638793E+04</pdfrwt>
<totfact> 0.70533844E+00</totfact>
</mgrwt>
</event>
<event>
12    4  0.4320235E-008  0.2331487E+04  0.7818608E-02  0.8465609E-01
          1   -1    0    0  501    0  0.00000000000E+00  0.00000000000E+00  0.94719771000E+03  0.94719771000E+03  0.00000000000E+00 0. -1.
         -2   -1    0    0    0  501 -0.00000000000E+00 -0.00000000000E+00 -0.14347142150E+04  0.14347142150E+04  0.00000000000E+00 0.  1.
        -24    2    1    2    0    0 -0.94819908351E+03 -0.24928016349E+03 -0.35611800770E+03  0.10462225831E+04  0.80867521950E+02 0.  0.
        254    2    1    2    0    0  0.94819908351E+03  0.24928016349E+03 -0.13139849735E+03  0.13356893419E+04  0.89754016689E+03 0.  0.
         23    2    4    4    0    0  0.89861311679E+02 -0.26447383571E+03  0.89908612659E+02  0.30691619650E+03  0.89958478955E+02 0.  0.
         23    2    4    4    0    0  0.85833777183E+03  0.51375399919E+03 -0.22130711001E+03  0.10287731454E+04  0.93329767964E+02 0.  0.
          1    1    3    3  502    0 -0.86103184681E+03 -0.24637654068E+03 -0.33730148325E+03  0.95700027775E+03  0.00000000000E+00 0. -1.
         -2    1    3    3    0  502 -0.87167236704E+02 -0.29036228104E+01 -0.18816524452E+02  0.89222305353E+02  0.00000000000E+00 0.  1.
         11    1    5    5    0    0  0.22280322538E+02 -0.11060606453E+03 -0.67807875653E+01  0.11303138220E+03  0.00000000000E+00 0.  1.
        -11    1    5    5    0    0  0.67580989141E+02 -0.15386777118E+03  0.96689400224E+02  0.19388481430E+03  0.00000000000E+00 0. -1.
          2    1    6    6  503    0  0.33890211979E+03  0.20758016806E+03 -0.41525918343E+02  0.39958550382E+03  0.00000000000E+00 0. -1.
         -2    1    6    6    0  503  0.51943565204E+03  0.30617383113E+03 -0.17978119167E+03  0.62918764161E+03  0.00000000000E+00 0.  1.
<mgrwt>
<rscale>  0 0.23314871E+04</rscale>
<asrwt>0</asrwt>
<pdfrwt beam="1">  1        1 0.14572273E+00 0.23314871E+04</pdfrwt>
<pdfrwt beam="2">  1       -2 0.22072526E+00 0.23314871E+04</pdfrwt>
<totfact> 0.12875640E+00</totfact>
</mgrwt>
</event>
<event>
12    4  0.4320235E-008  0.2965214E+04  0.7818608E-02  0.8253735E-01
         -2   -1    0    0    0  501 -0.00000000000E+00  0.00000000000E+00  0.72571462819E+03  0.72571462819E+03  0.00000000000E+00 0.  1.
          1   -1    0    0  501    0  0.00000000000E+00 -0.00000000000E+00 -0.30289091031E+04  0.30289091031E+04  0.00000000000E+00 0. -1.
        -24    2    1    2    0    0  0.87751740169E+02  0.79702140860E+03  0.31148647193E+03  0.86396678505E+03  0.80444327319E+02 0.  0.
        254    2    1    2    0    0 -0.87751740169E+02 -0.79702140860E+03 -0.26146809469E+04  0.28906569463E+04  0.93616111509E+03 0.  0.
         23    2    4    4    0    0  0.23801802997E+03  0.85219257946E+02 -0.81174774935E+03  0.85506614402E+03  0.91042833592E+02 0.  0.
         23    2    4    4    0    0 -0.32576977014E+03 -0.88224066655E+03 -0.18029331975E+04  0.20355908023E+04  0.92667484373E+02 0.  0.
          3    1    3    3  502    0  0.39038261901E+02  0.18107003752E+03  0.10253943258E+03  0.21171839696E+03  0.00000000000E+00 0. -1.
         -4    1    3    3    0  502  0.48713478268E+02  0.61595137109E+03  0.20894703935E+03  0.65224838809E+03  0.00000000000E+00 0.  1.
         11    1    5    5    0    0  0.89824204164E+02  0.35148986518E+02 -0.46154641120E+03  0.47151768641E+03  0.00000000000E+00 0.  1.
        -11    1    5    5    0    0  0.14819382580E+03  0.50070271428E+02 -0.35020133816E+03  0.38354845761E+03  0.00000000000E+00 0. -1.
          4    1    6    6  503    0 -0.17434025691E+03 -0.55737391189E+03 -0.10429368021E+04  0.11953147602E+04  0.00000000000E+00 0.  1.
         -4    1    6    6    0  503 -0.15142951323E+03 -0.32486675466E+03 -0.75999639546E+03  0.84027604207E+03  0.00000000000E+00 0. -1.
<mgrwt>
<rscale>  0 0.29652141E+04</rscale>
<asrwt>0</asrwt>
<pdfrwt beam="1">  1        1 0.46598603E+00 0.29652141E+04</pdfrwt>
<pdfrwt beam="2">  1       -2 0.11164840E+00 0.29652141E+04</pdfrwt>
<totfact> 0.27084414E-01</totfact>
</mgrwt>
</event>
<event>
12    4  0.4320235E-008  0.2910086E+04  0.7818608E-02  0.8269883E-01
         -2   -1    0    0    0  501 -0.00000000000E+00  0.00000000000E+00  0.14542892749E+04  0.14542892749E+04  0.00000000000E+00 0.  1.
          1   -1    0    0  501    0  0.00000000000E+00 -0.00000000000E+00 -0.14557970453E+04  0.14557970453E+04  0.00000000000E+00 0. -1.
        -24    2    1    2    0    0  0.85605989784E+03 -0.76839929690E+03  0.63351570630E+03  0.13156622354E+04  0.79680231678E+02 0.  0.
        254    2    1    2    0    0 -0.85605989784E+03  0.76839929690E+03 -0.63502347671E+03  0.15944240848E+04  0.90313748568E+03 0.  0.
         23    2    4    4    0    0 -0.80614855952E+03  0.20295997523E+03 -0.16476234563E+03  0.85239926659E+03  0.91485668777E+02 0.  0.
         23    2    4    4    0    0 -0.49911338319E+02  0.56543932167E+03 -0.47026113109E+03  0.74202481820E+03  0.85103062419E+02 0.  0.
          3    1    3    3  502    0  0.11222750767E+03 -0.71960018610E+02  0.57942648757E+02  0.14536371040E+03  0.00000000000E+00 0. -1.
         -4    1    3    3    0  502  0.74383239017E+03 -0.69643927829E+03  0.57557305755E+03  0.11702985250E+04  0.00000000000E+00 0.  1.
         11    1    5    5    0    0 -0.42783349012E+03  0.11499821090E+03 -0.13369123966E+03  0.46275201927E+03  0.00000000000E+00 0. -1.
        -11    1    5    5    0    0 -0.37831506939E+03  0.87961764325E+02 -0.31071105964E+02  0.38964724731E+03  0.00000000000E+00 0.  1.
          2    1    6    6  503    0  0.61028674837E+01  0.22893036553E+03 -0.14753366129E+03  0.27241978355E+03  0.00000000000E+00 0. -1.
         -2    1    6    6    0  503 -0.56014205803E+02  0.33650895614E+03 -0.32272746979E+03  0.46960503465E+03  0.00000000000E+00 0.  1.
<mgrwt>
<rscale>  0 0.29100859E+04</rscale>
<asrwt>0</asrwt>
<pdfrwt beam="1">  1        1 0.22396878E+00 0.29100859E+04</pdfrwt>
<pdfrwt beam="2">  1       -2 0.22373681E+00 0.29100859E+04</pdfrwt>
<totfact> 0.49501133E-01</totfact>
</mgrwt>
</event>
<event>
12    4  0.4320235E-008  0.1449230E+04  0.7818608E-02  0.8918935E-01
         -2   -1    0    0    0  501 -0.00000000000E+00  0.00000000000E+00  0.30178468874E+03  0.30178468874E+03  0.00000000000E+00 0.  1.
          1   -1    0    0  501    0  0.00000000000E+00 -0.00000000000E+00 -0.17398719859E+04  0.17398719859E+04  0.00000000000E+00 0. -1.
        -24    2    1    2    0    0  0.10625763950E+03  0.31937196148E+02 -0.11343702847E+04  0.11426593263E+04  0.81016805485E+02 0.  0.
        254    2    1    2    0    0 -0.10625763950E+03 -0.31937196148E+02 -0.30371701249E+03  0.89899734835E+03  0.83883343889E+03 0.  0.
         23    2    4    4    0    0 -0.32867674548E+02  0.20265682560E+03  0.21873127337E+03  0.31419578362E+03  0.93410639109E+02 0.  0.
         23    2    4    4    0    0 -0.73389964956E+02 -0.23459402175E+03 -0.52244828587E+03  0.58480156473E+03  0.92845122149E+02 0.  0.
          3    1    3    3  502    0  0.54147027488E+02 -0.25242372215E+02 -0.45846404614E+03  0.46234009078E+03  0.00000000000E+00 0. -1.
         -4    1    3    3    0  502  0.52110612015E+02  0.57179568363E+02 -0.67590623852E+03  0.68031923550E+03  0.00000000000E+00 0.  1.
         11    1    5    5    0    0  0.29915010343E+02  0.35220206419E+02  0.36543865192E+02  0.58913706955E+02  0.00000000000E+00 0. -1.
        -11    1    5    5    0    0 -0.62782684891E+02  0.16743661918E+03  0.18218740818E+03  0.25528207666E+03  0.00000000000E+00 0.  1.
          1    1    6    6  503    0 -0.59404577628E+02 -0.50447660871E+02 -0.14631293450E+03  0.16577498343E+03  0.00000000000E+00 0. -1.
         -1    1    6    6    0  503 -0.13985387328E+02 -0.18414636088E+03 -0.37613535137E+03  0.41902658130E+03  0.00000000000E+00 0.  1.
<mgrwt>
<rscale>  0 0.14492298E+04</rscale>
<asrwt>0</asrwt>
<pdfrwt beam="1">  1        1 0.26767261E+00 0.14492298E+04</pdfrwt>
<pdfrwt beam="2">  1       -2 0.46428414E-01 0.14492298E+04</pdfrwt>
<totfact> 0.16788510E+01</totfact>
</mgrwt>
</event>
<event>
12    4  0.4320235E-008  0.2345730E+04  0.7818608E-02  0.8460106E-01
          1   -1    0    0  501    0  0.00000000000E+00  0.00000000000E+00  0.12151948199E+04  0.12151948199E+04  0.00000000000E+00 0. -1.
         -2   -1    0    0    0  501 -0.00000000000E+00 -0.00000000000E+00 -0.11320094607E+04  0.11320094607E+04  0.00000000000E+00 0.  1.
        -24    2    1    2    0    0 -0.47272622036E+02 -0.73103815013E+03 -0.64311092699E+03  0.97792660228E+03  0.78085192552E+02 0.  0.
        254    2    1    2    0    0  0.47272622036E+02  0.73103815013E+03  0.72629628611E+03  0.13692776783E+04  0.90042411530E+03 0.  0.
         23    2    4    4    0    0  0.43168553043E+03  0.43565893393E+03  0.59222374938E+03  0.85739423437E+03  0.90800880471E+02 0.  0.
         23    2    4    4    0    0 -0.38441290839E+03  0.29537921619E+03  0.13407253672E+03  0.51188344396E+03  0.95010786757E+02 0.  0.
          1    1    3    3  502    0  0.16281904538E+02 -0.31419150947E+03 -0.29153842577E+03  0.42892430421E+03  0.00000000000E+00 0. -1.
         -2    1    3    3    0  502 -0.63554526573E+02 -0.41684664066E+03 -0.35157250122E+03  0.54900229807E+03  0.00000000000E+00 0.  1.
         11    1    5    5    0    0  0.33715498930E+03  0.28389286467E+03  0.40651935987E+03  0.59960539971E+03  0.00000000000E+00 0. -1.
        -11    1    5    5    0    0  0.94530541131E+02  0.15176606927E+03  0.18570438951E+03  0.25778883465E+03  0.00000000000E+00 0.  1.
          4    1    6    6  503    0 -0.27082951467E+03  0.25534453829E+03  0.11742963121E+03  0.39030651741E+03  0.00000000000E+00 0. -1.
         -4    1    6    6    0  503 -0.11358339372E+03  0.40034677906E+02  0.16642905511E+02  0.12157692655E+03  0.00000000000E+00 0.  1.
<mgrwt>
<rscale>  0 0.23457298E+04</rscale>
<asrwt>0</asrwt>
<pdfrwt beam="1">  1        1 0.18695305E+00 0.23457298E+04</pdfrwt>
<pdfrwt beam="2">  1       -2 0.17415530E+00 0.23457298E+04</pdfrwt>
<totfact> 0.16388733E+00</totfact>
</mgrwt>
</event>
<event>
12    4  0.4320235E-008  0.1271342E+04  0.7818608E-02  0.9052605E-01
          1   -1    0    0  501    0  0.00000000000E+00  0.00000000000E+00  0.14610950885E+04  0.14610950885E+04  0.00000000000E+00 0. -1.
         -4   -1    0    0    0  501 -0.00000000000E+00 -0.00000000000E+00 -0.27655797563E+03  0.27655797563E+03  0.00000000000E+00 0.  1.
        -24    2    1    2    0    0  0.17576227863E+02  0.26623108475E+03  0.77537280028E+02  0.28958495591E+03  0.81605775638E+02 0.  0.
        254    2    1    2    0    0 -0.17576227863E+02 -0.26623108475E+03  0.11069998329E+04  0.14480681083E+04  0.89457515161E+03 0.  0.
         23    2    4    4    0    0  0.32131245135E+01  0.28282224308E+03  0.69341602480E+03  0.75443146863E+03  0.91336258218E+02 0.  0.
         23    2    4    4    0    0 -0.20789352376E+02 -0.54905332784E+03  0.41358380808E+03  0.69363663962E+03  0.90490151624E+02 0.  0.
          1    1    3    3  502    0 -0.53637032135E+01  0.23239729056E+02  0.34200451334E+02  0.41695625553E+02  0.00000000000E+00 0. -1.
         -2    1    3    3    0  502  0.22939931076E+02  0.24299135570E+03  0.43336828694E+02  0.24788933035E+03  0.00000000000E+00 0.  1.
         11    1    5    5    0    0 -0.11669209089E+02  0.13648530829E+03  0.44632329823E+03  0.46687139167E+03  0.00000000000E+00 0. -1.
        -11    1    5    5    0    0  0.14882333602E+02  0.14633693480E+03  0.24709272657E+03  0.28756007696E+03  0.00000000000E+00 0.  1.
          4    1    6    6  503    0 -0.49944093466E+02 -0.32990972654E+03  0.27795399664E+03  0.43427326004E+03  0.00000000000E+00 0. -1.
         -4    1    6    6    0  503  0.29154741089E+02 -0.21914360130E+03  0.13562981144E+03  0.25936337959E+03  0.00000000000E+00 0.  1.
<mgrwt>
<rscale>  0 0.12713418E+04</rscale>
<asrwt>0</asrwt>
<pdfrwt beam="1">  1        1 0.22478386E+00 0.12713418E+04</pdfrwt>
<pdfrwt beam="2">  1       -4 0.42547382E-01 0.12713418E+04</pdfrwt>
<totfact> 0.18147304E+01</totfact>
</mgrwt>
</event>
<event>
12    4  0.4320235E-008  0.1793777E+04  0.7818608E-02  0.8709616E-01
          1   -1    0    0  501    0  0.00000000000E+00  0.00000000000E+00  0.79341460966E+03  0.79341460966E+03  0.00000000000E+00 0. -1.
         -2   -1    0    0    0  501 -0.00000000000E+00 -0.00000000000E+00 -0.10138570537E+04  0.10138570537E+04  0.00000000000E+00 0.  1.
        -24    2    1    2    0    0 -0.32386533726E+03 -0.54304874532E+03  0.13718443124E+03  0.65163218431E+03  0.77551524640E+02 0.  0.
        254    2    1    2    0    0  0.32386533726E+03  0.54304874532E+03 -0.35762687527E+03  0.11556394790E+04  0.89878525084E+03 0.  0.
         23    2    4    4    0    0  0.73931536828E+02  0.41113098366E+03 -0.62412192889E+03  0.75659325197E+03  0.91709372105E+02 0.  0.
         23    2    4    4    0    0  0.24993380044E+03  0.13191776166E+03  0.26649505362E+03  0.39904622707E+03  0.91373285452E+02 0.  0.
          3    1    3    3  502    0 -0.23676175411E+03 -0.36390628336E+03  0.12627087526E+03  0.45213741851E+03  0.00000000000E+00 0. -1.
         -4    1    3    3    0  502 -0.87103583152E+02 -0.17914246196E+03  0.10913555978E+02  0.19949476580E+03  0.00000000000E+00 0.  1.
         11    1    5    5    0    0  0.35241921665E+02  0.10633439622E+03 -0.23883493117E+03  0.26380129115E+03  0.00000000000E+00 0. -1.
        -11    1    5    5    0    0  0.38689615164E+02  0.30479658744E+03 -0.38528699772E+03  0.49279196082E+03  0.00000000000E+00 0.  1.
          2    1    6    6  503    0  0.10598530538E+03  0.96039545794E+02  0.92221570632E+02  0.17018019098E+03  0.00000000000E+00 0. -1.
         -2    1    6    6    0  503  0.14394849506E+03  0.35878215868E+02  0.17427348299E+03  0.22886603610E+03  0.00000000000E+00 0.  1.
<mgrwt>
<rscale>  0 0.17937770E+04</rscale>
<asrwt>0</asrwt>
<pdfrwt beam="1">  1        1 0.12206379E+00 0.17937770E+04</pdfrwt>
<pdfrwt beam="2">  1       -2 0.15597801E+00 0.17937770E+04</pdfrwt>
<totfact> 0.49992880E+00</totfact>
</mgrwt>
</event>
<event>
12    4  0.4320235E-008  0.1909311E+04  0.7818608E-02  0.8650236E-01
          1   -1    0    0  501    0  0.00000000000E+00  0.00000000000E+00  0.28225132354E+04  0.28225132354E+04  0.00000000000E+00 0. -1.
         -2   -1    0    0    0  501 -0.00000000000E+00 -0.00000000000E+00 -0.32289202787E+03  0.32289202787E+03  0.00000000000E+00 0.  1.
        -24    2    1    2    0    0  0.30736011192E+03  0.16800885341E+03 -0.98297905273E+02  0.37267981602E+03  0.80811842367E+02 0.  0.
        254    2    1    2    0    0 -0.30736011192E+03 -0.16800885341E+03  0.25979191128E+04  0.27727254472E+04  0.90339663265E+03 0.  0.
         23    2    4    4    0    0 -0.57650412165E+03 -0.39628309010E+02  0.11349162189E+04  0.12768743527E+04  0.91901487753E+02 0.  0.
         23    2    4    4    0    0  0.26914400973E+03 -0.12838054440E+03  0.14630028939E+04  0.14958510945E+04  0.90955853996E+02 0.  0.
          3    1    3    3  502    0  0.86764636885E+02  0.35214178074E+02 -0.62836406065E+02  0.11276770140E+03  0.00000000000E+00 0. -1.
         -4    1    3    3    0  502  0.22059547503E+03  0.13279467534E+03 -0.35461499208E+02  0.25991211462E+03  0.00000000000E+00 0.  1.
         11    1    5    5    0    0 -0.54580527207E+03 -0.53355642092E+02  0.10328966191E+04  0.11694552772E+04  0.00000000000E+00 0.  1.
        -11    1    5    5    0    0 -0.30698849583E+02  0.13727333082E+02  0.10201959979E+03  0.10741907549E+03  0.00000000000E+00 0. -1.
          1    1    6    6  503    0  0.18317556857E+01  0.10151355441E+02  0.36990249814E+02  0.38401613605E+02  0.00000000000E+00 0. -1.
         -1    1    6    6    0  503  0.26731225405E+03 -0.13853189984E+03  0.14260126441E+04  0.14574494809E+04  0.00000000000E+00 0.  1.
<mgrwt>
<rscale>  0 0.19093109E+04</rscale>
<asrwt>0</asrwt>
<pdfrwt beam="1">  1        1 0.43423279E+00 0.19093109E+04</pdfrwt>
<pdfrwt beam="2">  1       -2 0.49675699E-01 0.19093109E+04</pdfrwt>
<totfact> 0.25334845E+00</totfact>
</mgrwt>
</event>
<event>
12    4  0.4320235E-008  0.1821446E+04  0.7818608E-02  0.8694977E-01
         -2   -1    0    0    0  501 -0.00000000000E+00  0.00000000000E+00  0.15620336035E+04  0.15620336035E+04  0.00000000000E+00 0.  1.
          1   -1    0    0  501    0  0.00000000000E+00 -0.00000000000E+00 -0.53098487090E+03  0.53098487090E+03  0.00000000000E+00 0. -1.
        -24    2    1    2    0    0  0.41156637153E+03  0.45074908264E+03  0.22208840035E+02  0.61600061946E+03  0.80011979833E+02 0.  0.
        254    2    1    2    0    0 -0.41156637153E+03 -0.45074908264E+03  0.10088398926E+04  0.14770178550E+04  0.88952920206E+03 0.  0.
         23    2    4    4    0    0 -0.23043784499E+03 -0.16703392117E+03 -0.99564556552E+02  0.31472641875E+03  0.90209126558E+02 0.  0.
         23    2    4    4    0    0 -0.18112852655E+03 -0.28371516147E+03  0.11084044491E+04  0.11622914362E+04  0.95179429739E+02 0.  0.
          1    1    3    3  502    0  0.31041290452E+03  0.31499382924E+03 -0.15665959511E+02  0.44251859400E+03  0.00000000000E+00 0. -1.
         -2    1    3    3    0  502  0.10115346702E+03  0.13575525340E+03  0.37874799546E+02  0.17348202546E+03  0.00000000000E+00 0.  1.
         11    1    5    5    0    0 -0.52227964650E+02 -0.89424887384E+02 -0.44384254790E+02  0.11267001752E+03  0.00000000000E+00 0. -1.
        -11    1    5    5    0    0 -0.17820988034E+03 -0.77609033789E+02 -0.55180301762E+02  0.20205640123E+03  0.00000000000E+00 0.  1.
          3    1    6    6  503    0 -0.93249426045E+02 -0.64233914788E+02  0.34325214145E+03  0.36144637759E+03  0.00000000000E+00 0. -1.
         -3    1    6    6    0  503 -0.87879100501E+02 -0.21948124668E+03  0.76515230768E+03  0.80084505861E+03  0.00000000000E+00 0.  1.
<mgrwt>
<rscale>  0 0.18214458E+04</rscale>
<asrwt>0</asrwt>
<pdfrwt beam="1">  1        1 0.81689981E-01 0.18214458E+04</pdfrwt>
<pdfrwt beam="2">  1       -2 0.24031286E+00 0.18214458E+04</pdfrwt>
<totfact> 0.24772397E+00</totfact>
</mgrwt>
</event>
<event>
12    4  0.4320235E-008  0.1488431E+04  0.7818608E-02  0.8892183E-01
         -2   -1    0    0    0  501 -0.00000000000E+00  0.00000000000E+00  0.57049911892E+03  0.57049911892E+03  0.00000000000E+00 0.  1.
          1   -1    0    0  501    0  0.00000000000E+00 -0.00000000000E+00 -0.97082850801E+03  0.97082850801E+03  0.00000000000E+00 0. -1.
        -24    2    1    2    0    0 -0.31296643582E+03 -0.14389967957E+03  0.20318209464E+03  0.40726699675E+03  0.76995683842E+02 0.  0.
        254    2    1    2    0    0  0.31296643582E+03  0.14389967957E+03 -0.60351148373E+03  0.11340606302E+04  0.89622111903E+03 0.  0.
         23    2    4    4    0    0  0.38885364899E+03 -0.10978489999E+03 -0.71892024303E+03  0.83031469503E+03  0.96520942545E+02 0.  0.
         23    2    4    4    0    0 -0.75887213172E+02  0.25368457956E+03  0.11540875930E+03  0.30374593515E+03  0.93955714914E+02 0.  0.
          3    1    3    3  502    0 -0.12200468321E+03 -0.54713607107E+02  0.36622554515E+02  0.13863597306E+03  0.00000000000E+00 0. -1.
         -4    1    3    3    0  502 -0.19096175261E+03 -0.89186072465E+02  0.16655954013E+03  0.26863102369E+03  0.00000000000E+00 0.  1.
         11    1    5    5    0    0  0.38894233616E+03 -0.10622701406E+03 -0.72108428623E+03  0.82614942185E+03  0.00000000000E+00 0. -1.
        -11    1    5    5    0    0 -0.88687173840E-01 -0.35578859259E+01  0.21640432021E+01  0.41652731791E+01  0.00000000000E+00 0.  1.
          3    1    6    6  503    0 -0.66121971405E+02  0.21767708000E+03  0.13188435886E+03  0.26296180402E+03  0.00000000000E+00 0. -1.
         -3    1    6    6    0  503 -0.97652417677E+01  0.36007499558E+02 -0.16475599557E+02  0.40784131129E+02  0.00000000000E+00 0.  1.
<mgrwt>
<rscale>  0 0.14884311E+04</rscale>
<asrwt>0</asrwt>
<pdfrwt beam="1">  1        1 0.14935823E+00 0.14884311E+04</pdfrwt>
<pdfrwt beam="2">  1       -2 0.87769096E-01 0.14884311E+04</pdfrwt>
<totfact> 0.15162043E+01</totfact>
</mgrwt>
</event>
<event>
12    4  0.4320235E-008  0.1372347E+04  0.7818608E-02  0.8974082E-01
          1   -1    0    0  501    0  0.00000000000E+00  0.00000000000E+00  0.87786061313E+03  0.87786061313E+03  0.00000000000E+00 0. -1.
         -2   -1    0    0    0  501 -0.00000000000E+00 -0.00000000000E+00 -0.53634234876E+03  0.53634234876E+03  0.00000000000E+00 0.  1.
        -24    2    1    2    0    0  0.22460115968E+03  0.18734168688E+02  0.43729078603E+03  0.49846151190E+03  0.80274512119E+02 0.  0.
        254    2    1    2    0    0 -0.22460115968E+03 -0.18734168688E+02 -0.95772521660E+02  0.91574145000E+03  0.88239071693E+03 0.  0.
         23    2    4    4    0    0 -0.53073334554E+02 -0.42616097369E+03 -0.14391119308E+03  0.46203994979E+03  0.91326498729E+02 0.  0.
         23    2    4    4    0    0 -0.17152782513E+03  0.40742680500E+03  0.48138671420E+02  0.45370150021E+03  0.90051781662E+02 0.  0.
          3    1    3    3  502    0  0.16179496109E+03  0.46467386862E+02  0.33993413884E+03  0.37933105097E+03  0.00000000000E+00 0. -1.
         -4    1    3    3    0  502  0.62806198589E+02 -0.27733218174E+02  0.97356647183E+02  0.11913046093E+03  0.00000000000E+00 0.  1.
         11    1    5    5    0    0  0.26189992880E+02 -0.10564768186E+03 -0.32926839254E+02  0.11371686398E+03  0.00000000000E+00 0.  1.
        -11    1    5    5    0    0 -0.79263327434E+02 -0.32051329182E+03 -0.11098435383E+03  0.34832308581E+03  0.00000000000E+00 0. -1.
          1    1    6    6  503    0 -0.11941542118E+03  0.33134329909E+03  0.58632003290E+01  0.35225388825E+03  0.00000000000E+00 0. -1.
         -1    1    6    6    0  503 -0.52112403948E+02  0.76083505911E+02  0.42275471091E+02  0.10144761196E+03  0.00000000000E+00 0.  1.
<mgrwt>
<rscale>  0 0.13723466E+04</rscale>
<asrwt>0</asrwt>
<pdfrwt beam="1">  1        1 0.13505548E+00 0.13723466E+04</pdfrwt>
<pdfrwt beam="2">  1       -2 0.82514207E-01 0.13723466E+04</pdfrwt>
<totfact> 0.20951333E+01</totfact>
</mgrwt>
</event>
<event>
12    4  0.4320235E-008  0.1850781E+04  0.7818608E-02  0.8679751E-01
          1   -1    0    0  501    0  0.00000000000E+00  0.00000000000E+00  0.13755739870E+04  0.13755739870E+04  0.00000000000E+00 0. -1.
         -4   -1    0    0    0  501 -0.00000000000E+00 -0.00000000000E+00 -0.62253847820E+03  0.62253847820E+03  0.00000000000E+00 0.  1.
        -24    2    1    2    0    0  0.39531569425E+03  0.33390682392E+03  0.79714755928E+03  0.95383336759E+03  0.81151689299E+02 0.  0.
        254    2    1    2    0    0 -0.39531569425E+03 -0.33390682392E+03 -0.44112050452E+02  0.10442790976E+04  0.90598272368E+03 0.  0.
         23    2    4    4    0    0 -0.56288305747E+03 -0.34497888870E+03 -0.29423979943E+03  0.72862179584E+03  0.92004846422E+02 0.  0.
         23    2    4    4    0    0  0.16756736322E+03  0.11072064788E+02  0.25012774897E+03  0.31565730181E+03  0.94203129171E+02 0.  0.
          1    1    3    3  502    0  0.29267321730E+03  0.28453334184E+03  0.65354985372E+03  0.77054801670E+03  0.00000000000E+00 0. -1.
         -2    1    3    3    0  502  0.10264247696E+03  0.49373482074E+02  0.14359770556E+03  0.18328535089E+03  0.00000000000E+00 0.  1.
         11    1    5    5    0    0 -0.17511786700E+03 -0.11134478546E+03 -0.14012631902E+03  0.25039831044E+03  0.00000000000E+00 0. -1.
        -11    1    5    5    0    0 -0.38776519047E+03 -0.23363410324E+03 -0.15411348041E+03  0.47822348539E+03  0.00000000000E+00 0.  1.
          4    1    6    6  503    0 -0.11479290815E+02 -0.55097167647E+01  0.16013037846E+02  0.20458457359E+02  0.00000000000E+00 0. -1.
         -4    1    6    6    0  503  0.17904665403E+03  0.16581781552E+02  0.23411471113E+03  0.29519884445E+03  0.00000000000E+00 0.  1.
<mgrwt>
<rscale>  0 0.18507812E+04</rscale>
<asrwt>0</asrwt>
<pdfrwt beam="1">  1        1 0.21162677E+00 0.18507812E+04</pdfrwt>
<pdfrwt beam="2">  1       -4 0.95775150E-01 0.18507812E+04</pdfrwt>
<totfact> 0.33585081E+00</totfact>
</mgrwt>
</event>
<event>
12    4  0.4320235E-008  0.1601240E+04  0.7818608E-02  0.8819787E-01
         -2   -1    0    0    0  501 -0.00000000000E+00  0.00000000000E+00  0.30792221264E+03  0.30792221264E+03  0.00000000000E+00 0.  1.
          1   -1    0    0  501    0  0.00000000000E+00 -0.00000000000E+00 -0.20816686032E+04  0.20816686032E+04  0.00000000000E+00 0. -1.
        -24    2    1    2    0    0 -0.51923034922E+03  0.14062857266E+03 -0.64558555745E+03  0.84414122245E+03  0.80107056207E+02 0.  0.
        254    2    1    2    0    0  0.51923034922E+03 -0.14062857266E+03 -0.11281608331E+04  0.15454495933E+04  0.90900551664E+03 0.  0.
         23    2    4    4    0    0  0.59483001757E+03 -0.27288945358E+03 -0.35080713933E+03  0.74803730774E+03  0.90569095685E+02 0.  0.
         23    2    4    4    0    0 -0.75599668347E+02  0.13226088092E+03 -0.77735369374E+03  0.79741228560E+03  0.91538721715E+02 0.  0.
          1    1    3    3  502    0 -0.43012426130E+03  0.12824732082E+03 -0.57700779610E+03  0.73102137603E+03  0.00000000000E+00 0. -1.
         -2    1    3    3    0  502 -0.89106087926E+02  0.12381251838E+02 -0.68577761345E+02  0.11311984642E+03  0.00000000000E+00 0.  1.
         11    1    5    5    0    0  0.44923797187E+03 -0.24114117370E+03 -0.29403913934E+03  0.58857695885E+03  0.00000000000E+00 0. -1.
        -11    1    5    5    0    0  0.14559204570E+03 -0.31748279874E+02 -0.56767999991E+02  0.15946034889E+03  0.00000000000E+00 0.  1.
          4    1    6    6  503    0 -0.69218461533E+02  0.46114448823E+02 -0.50148207718E+03  0.50833257966E+03  0.00000000000E+00 0.  1.
         -4    1    6    6    0  503 -0.63812068144E+01  0.86146432092E+02 -0.27587161656E+03  0.28907970594E+03  0.00000000000E+00 0. -1.
<mgrwt>
<rscale>  0 0.16012395E+04</rscale>
<asrwt>0</asrwt>
<pdfrwt beam="1">  1        1 0.32025670E+00 0.16012395E+04</pdfrwt>
<pdfrwt beam="2">  1       -2 0.47372650E-01 0.16012395E+04</pdfrwt>
<totfact> 0.93354104E+00</totfact>
</mgrwt>
</event>
<event>
12    4  0.4320235E-008  0.2464515E+04  0.7818608E-02  0.8415737E-01
          1   -1    0    0  501    0  0.00000000000E+00  0.00000000000E+00  0.11313870140E+04  0.11313870140E+04  0.00000000000E+00 0. -1.
         -2   -1    0    0    0  501 -0.00000000000E+00 -0.00000000000E+00 -0.13421210497E+04  0.13421210497E+04  0.00000000000E+00 0.  1.
        -24    2    1    2    0    0  0.12557525588E+03 -0.22766069115E+03  0.94150323137E+03  0.98003918639E+03  0.80311499722E+02 0.  0.
        254    2    1    2    0    0 -0.12557525588E+03  0.22766069115E+03 -0.11522372670E+04  0.14934688773E+04  0.91389279067E+03 0.  0.
         23    2    4    4    0    0 -0.50908427419E+03  0.70991739231E+02 -0.70165078991E+03  0.87447106011E+03  0.90438811996E+02 0.  0.
         23    2    4    4    0    0  0.38350901831E+03  0.15666895192E+03 -0.45058647708E+03  0.61899781720E+03  0.92226876480E+02 0.  0.
          3    1    3    3  502    0  0.10406291271E+03 -0.11351637385E+03  0.59399643061E+03  0.61363410637E+03  0.00000000000E+00 0. -1.
         -4    1    3    3    0  502  0.21512343173E+02 -0.11414431730E+03  0.34750680077E+03  0.36640508001E+03  0.00000000000E+00 0.  1.
         11    1    5    5    0    0 -0.42789529430E+03  0.88043508089E+02 -0.55905988705E+03  0.70950264236E+03  0.00000000000E+00 0.  1.
        -11    1    5    5    0    0 -0.81188979889E+02 -0.17051768858E+02 -0.14259090286E+03  0.16496841775E+03  0.00000000000E+00 0. -1.
          4    1    6    6  503    0  0.90685335633E+02  0.41141454599E+01 -0.13180921759E+03  0.16004507531E+03  0.00000000000E+00 0.  1.
         -4    1    6    6    0  503  0.29282368268E+03  0.15255480646E+03 -0.31877725950E+03  0.45895274188E+03  0.00000000000E+00 0. -1.
<mgrwt>
<rscale>  0 0.24645148E+04</rscale>
<asrwt>0</asrwt>
<pdfrwt beam="1">  1        1 0.17405954E+00 0.24645148E+04</pdfrwt>
<pdfrwt beam="2">  1       -2 0.20648016E+00 0.24645148E+04</pdfrwt>
<totfact> 0.11327878E+00</totfact>
</mgrwt>
</event>
<event>
12    4  0.4320235E-008  0.2182209E+04  0.7818608E-02  0.8525870E-01
          1   -1    0    0  501    0  0.00000000000E+00  0.00000000000E+00  0.16073886223E+04  0.16073886223E+04  0.00000000000E+00 0. -1.
         -2   -1    0    0    0  501 -0.00000000000E+00 -0.00000000000E+00 -0.74064758604E+03  0.74064758604E+03  0.00000000000E+00 0.  1.
        -24    2    1    2    0    0 -0.34397275555E+03 -0.61078537872E+02 -0.53277732470E+03  0.64202908503E+03  0.79384028393E+02 0.  0.
        254    2    1    2    0    0  0.34397275555E+03  0.61078537872E+02  0.13995183609E+04  0.17060071233E+04  0.91091208014E+03 0.  0.
         23    2    4    4    0    0  0.64861531721E+03  0.26890112849E+02  0.98594961076E+03  0.11832123632E+04  0.80436020966E+02 0.  0.
         23    2    4    4    0    0 -0.30464256166E+03  0.34188425023E+02  0.41356875018E+03  0.52279476013E+03  0.91100556072E+02 0.  0.
          1    1    3    3  502    0 -0.91799538410E+02  0.15000835383E+02 -0.11174783511E+03  0.14539518206E+03  0.00000000000E+00 0. -1.
         -2    1    3    3    0  502 -0.25217321714E+03 -0.76079373255E+02 -0.42102948959E+03  0.49663390297E+03  0.00000000000E+00 0.  1.
         11    1    5    5    0    0  0.13108192949E+03  0.38012803056E+02  0.20470876841E+03  0.24603480506E+03  0.00000000000E+00 0. -1.
        -11    1    5    5    0    0  0.51753338773E+03 -0.11122690207E+02  0.78124084234E+03  0.93717755810E+03  0.00000000000E+00 0.  1.
          1    1    6    6  503    0 -0.26007688220E+02  0.31130480107E+02  0.63704776588E+02  0.75523540690E+02  0.00000000000E+00 0. -1.
         -1    1    6    6    0  503 -0.27863487344E+03  0.30579449163E+01  0.34986397359E+03  0.44727121944E+03  0.00000000000E+00 0.  1.
<mgrwt>
<rscale>  0 0.21822085E+04</rscale>
<asrwt>0</asrwt>
<pdfrwt beam="1">  1        1 0.24729056E+00 0.21822085E+04</pdfrwt>
<pdfrwt beam="2">  1       -2 0.11394578E+00 0.21822085E+04</pdfrwt>
<totfact> 0.26666970E+00</totfact>
</mgrwt>
</event>
<event>
12    4  0.4320235E-008  0.1696509E+04  0.7818608E-02  0.8763358E-01
         -2   -1    0    0    0  501 -0.00000000000E+00  0.00000000000E+00  0.10690149500E+04  0.10690149500E+04  0.00000000000E+00 0.  1.
          1   -1    0    0  501    0  0.00000000000E+00 -0.00000000000E+00 -0.67308292279E+03  0.67308292279E+03  0.00000000000E+00 0. -1.
        -24    2    1    2    0    0 -0.45128259340E+03 -0.25684525692E+03 -0.16909660406E+03  0.55203993936E+03  0.80802029937E+02 0.  0.
        254    2    1    2    0    0  0.45128259340E+03  0.25684525692E+03  0.56502863130E+03  0.11900579335E+04  0.90959060334E+03 0.  0.
         23    2    4    4    0    0  0.25193261459E+03  0.58755341664E+03  0.40256117966E+03  0.76076101510E+03  0.89514015825E+02 0.  0.
         23    2    4    4    0    0  0.19934997881E+03 -0.33070815972E+03  0.16246745164E+03  0.42929691836E+03  0.93764973810E+02 0.  0.
          3    1    3    3  502    0 -0.37964801701E+03 -0.20314416656E+03 -0.16886847618E+03  0.46251133119E+03  0.00000000000E+00 0. -1.
         -4    1    3    3    0  502 -0.71634576384E+02 -0.53701090357E+02 -0.22812787848E+00  0.89528608174E+02  0.00000000000E+00 0.  1.
         11    1    5    5    0    0  0.23625597821E+02  0.14832743030E+03  0.83872758144E+02  0.17202858777E+03  0.00000000000E+00 0. -1.
        -11    1    5    5    0    0  0.22830701677E+03  0.43922598634E+03  0.31868842152E+03  0.58873242733E+03  0.00000000000E+00 0.  1.
          2    1    6    6  503    0  0.43244797081E+02 -0.26570121151E+02  0.44959203899E+02  0.67804231636E+02  0.00000000000E+00 0. -1.
         -2    1    6    6    0  503  0.15610518173E+03 -0.30413803857E+03  0.11750824774E+03  0.36149268672E+03  0.00000000000E+00 0.  1.
<mgrwt>
<rscale>  0 0.16965090E+04</rscale>
<asrwt>0</asrwt>
<pdfrwt beam="1">  1        1 0.10355122E+00 0.16965090E+04</pdfrwt>
<pdfrwt beam="2">  1       -2 0.16446384E+00 0.16965090E+04</pdfrwt>
<totfact> 0.56245669E+00</totfact>
</mgrwt>
</event>
<event>
12    4  0.4320235E-008  0.1446353E+04  0.7818608E-02  0.8920933E-01
          1   -1    0    0  501    0  0.00000000000E+00  0.00000000000E+00  0.12947539052E+03  0.12947539052E+03  0.00000000000E+00 0. -1.
         -2   -1    0    0    0  501 -0.00000000000E+00 -0.00000000000E+00 -0.40392581847E+04  0.40392581847E+04  0.00000000000E+00 0.  1.
        -24    2    1    2    0    0  0.35565219958E+03 -0.10783782386E+03 -0.16889624981E+04  0.17312052653E+04  0.79748776705E+02 0.  0.
        254    2    1    2    0    0 -0.35565219958E+03  0.10783782386E+03 -0.22208202961E+04  0.24375283099E+04  0.93347950739E+03 0.  0.
         23    2    4    4    0    0  0.10582034578E+03 -0.20568596752E+03 -0.15080329398E+04  0.15283283905E+04  0.90109150035E+02 0.  0.
         23    2    4    4    0    0 -0.46147254537E+03  0.31352379138E+03 -0.71278735630E+03  0.90919991940E+03  0.85583878363E+02 0.  0.
          3    1    3    3  502    0  0.93274044891E+02 -0.49287123848E+02 -0.62283229562E+03  0.63170351946E+03  0.00000000000E+00 0. -1.
         -4    1    3    3    0  502  0.26237815469E+03 -0.58550700016E+02 -0.10661302025E+04  0.10995017459E+04  0.00000000000E+00 0.  1.
         11    1    5    5    0    0  0.12075618116E+02  0.12536395295E+01 -0.22572561817E+03  0.22605186763E+03  0.00000000000E+00 0. -1.
        -11    1    5    5    0    0  0.93744727667E+02 -0.20693960705E+03 -0.12823073216E+04  0.13022765229E+04  0.00000000000E+00 0.  1.
          3    1    6    6  503    0 -0.15789554018E+03  0.60412169265E+02 -0.20511023528E+03  0.26580225812E+03  0.00000000000E+00 0. -1.
         -3    1    6    6    0  503 -0.30357700519E+03  0.25311162212E+03 -0.50767712102E+03  0.64339766128E+03  0.00000000000E+00 0.  1.
<mgrwt>
<rscale>  0 0.14463534E+04</rscale>
<asrwt>0</asrwt>
<pdfrwt beam="1">  1        1 0.19919290E-01 0.14463534E+04</pdfrwt>
<pdfrwt beam="2">  1       -2 0.62142437E+00 0.14463534E+04</pdfrwt>
<totfact> 0.92466565E-02</totfact>
</mgrwt>
</event>
<event>
12    4  0.4320235E-008  0.1562753E+04  0.7818608E-02  0.8843763E-01
         -2   -1    0    0    0  501 -0.00000000000E+00  0.00000000000E+00  0.11093301933E+04  0.11093301933E+04  0.00000000000E+00 0.  1.
          1   -1    0    0  501    0  0.00000000000E+00 -0.00000000000E+00 -0.55037661768E+03  0.55037661768E+03  0.00000000000E+00 0. -1.
        -24    2    1    2    0    0 -0.42787222395E+03 -0.12864950368E+03  0.47469633886E+03  0.65727714365E+03  0.83971987102E+02 0.  0.
        254    2    1    2    0    0  0.42787222395E+03  0.12864950368E+03  0.84257236730E+02  0.10024296673E+04  0.89338716194E+03 0.  0.
         23    2    4    4    0    0 -0.85222340120E+02  0.34691734298E+03 -0.13697782934E+03  0.39611363011E+03  0.10260892803E+03 0.  0.
         23    2    4    4    0    0  0.51309456407E+03 -0.21826783929E+03  0.22123506607E+03  0.60631603720E+03  0.88132293484E+02 0.  0.
          3    1    3    3  502    0 -0.44492477780E+02 -0.19844407356E+02  0.20019905096E+02  0.52670463093E+02  0.00000000000E+00 0. -1.
         -4    1    3    3    0  502 -0.38337974617E+03 -0.10880509633E+03  0.45467643376E+03  0.60460668056E+03  0.00000000000E+00 0.  1.
         11    1    5    5    0    0 -0.22585952606E+02  0.87451162786E+02  0.10886650569E+02  0.90974448546E+02  0.00000000000E+00 0. -1.
        -11    1    5    5    0    0 -0.62636387514E+02  0.25946618019E+03 -0.14786447991E+03  0.30513918156E+03  0.00000000000E+00 0.  1.
          4    1    6    6  503    0  0.21821307161E+00 -0.10788357445E+02  0.99350723263E+00  0.10836204591E+02  0.00000000000E+00 0. -1.
         -4    1    6    6    0  503  0.51287635100E+03 -0.20747948185E+03  0.22024155884E+03  0.59547983261E+03  0.00000000000E+00 0.  1.
<mgrwt>
<rscale>  0 0.15627532E+04</rscale>
<asrwt>0</asrwt>
<pdfrwt beam="1">  1        1 0.84673326E-01 0.15627532E+04</pdfrwt>
<pdfrwt beam="2">  1       -2 0.17066618E+00 0.15627532E+04</pdfrwt>
<totfact> 0.68734163E+00</totfact>
</mgrwt>
</event>
<event>
12    4  0.4320235E-008  0.2157127E+04  0.7818608E-02  0.8536488E-01
          1   -1    0    0  501    0  0.00000000000E+00  0.00000000000E+00  0.24286930993E+04  0.24286930993E+04  0.00000000000E+00 0. -1.
         -2   -1    0    0    0  501 -0.00000000000E+00 -0.00000000000E+00 -0.47898152762E+03  0.47898152762E+03  0.00000000000E+00 0.  1.
        -24    2    1    2    0    0  0.16377945227E+02 -0.61015301328E+03 -0.63029920570E+02  0.61885662099E+03  0.80348053865E+02 0.  0.
        254    2    1    2    0    0 -0.16377945227E+02  0.61015301328E+03  0.20127414922E+04  0.22888180059E+04  0.90277605914E+03 0.  0.
         23    2    4    4    0    0 -0.37509203956E+03  0.93419307734E+02  0.11546158662E+04  0.12210266562E+04  0.91362417822E+02 0.  0.
         23    2    4    4    0    0  0.35871409434E+03  0.51673370554E+03  0.85812562601E+03  0.10677913497E+04  0.90051388747E+02 0.  0.
          1    1    3    3  502    0 -0.81065448654E-01 -0.47333268400E+02 -0.27350095265E+02  0.54666924003E+02  0.00000000000E+00 0. -1.
         -2    1    3    3    0  502  0.16459010675E+02 -0.56281974488E+03 -0.35679825305E+02  0.56418969699E+03  0.00000000000E+00 0.  1.
         11    1    5    5    0    0 -0.28028442466E+03  0.31658050907E+02  0.87674901930E+03  0.92100512145E+03  0.00000000000E+00 0. -1.
        -11    1    5    5    0    0 -0.94807614904E+02  0.61761256827E+02  0.27786684693E+03  0.30002153475E+03  0.00000000000E+00 0.  1.
          1    1    6    6  503    0  0.33286100400E+03  0.44300769186E+03  0.78429863044E+03  0.96030026802E+03  0.00000000000E+00 0. -1.
         -1    1    6    6    0  503  0.25853090332E+02  0.73726013679E+02  0.73826995566E+02  0.10749108171E+03  0.00000000000E+00 0.  1.
<mgrwt>
<rscale>  0 0.21571269E+04</rscale>
<asrwt>0</asrwt>
<pdfrwt beam="1">  1        1 0.37364509E+00 0.21571269E+04</pdfrwt>
<pdfrwt beam="2">  1       -2 0.73689467E-01 0.21571269E+04</pdfrwt>
<totfact> 0.20266538E+00</totfact>
</mgrwt>
</event>
<event>
12    4  0.4320235E-008  0.1477044E+04  0.7818608E-02  0.8899863E-01
         -2   -1    0    0    0  501 -0.00000000000E+00  0.00000000000E+00  0.61833359565E+03  0.61833359565E+03  0.00000000000E+00 0.  1.
          1   -1    0    0  501    0  0.00000000000E+00 -0.00000000000E+00 -0.88207247115E+03  0.88207247115E+03  0.00000000000E+00 0. -1.
        -24    2    1    2    0    0 -0.82100119963E+02 -0.15571173864E+03 -0.51320826977E+03  0.54859976327E+03  0.81193576389E+02 0.  0.
        254    2    1    2    0    0  0.82100119963E+02  0.15571173864E+03  0.24946939427E+03  0.95180630354E+03  0.90150634248E+03 0.  0.
         23    2    4    4    0    0  0.16891665283E+03  0.19125497744E+03 -0.29041276335E+03  0.39599072301E+03  0.85777488833E+02 0.  0.
         23    2    4    4    0    0 -0.86816532867E+02 -0.35543238802E+02  0.53988215763E+03  0.55581558053E+03  0.93047209694E+02 0.  0.
          1    1    3    3  502    0 -0.75532367168E+02 -0.14343688628E+03 -0.50879438068E+03  0.53399531894E+03  0.00000000000E+00 0. -1.
         -2    1    3    3    0  502 -0.65677527947E+01 -0.12274852356E+02 -0.44138890863E+01  0.14604444324E+02  0.00000000000E+00 0.  1.
         11    1    5    5    0    0  0.25734671243E+02  0.20412660641E+01 -0.59668660270E+02  0.65013760771E+02  0.00000000000E+00 0.  1.
        -11    1    5    5    0    0  0.14318198159E+03  0.18921371138E+03 -0.23074410308E+03  0.33097696224E+03  0.00000000000E+00 0. -1.
          1    1    6    6  503    0 -0.85971317795E+02 -0.60109436860E+02  0.47470205513E+03  0.48615455673E+03  0.00000000000E+00 0. -1.
         -1    1    6    6    0  503 -0.84521507197E+00  0.24566198058E+02  0.65180102496E+02  0.69661023801E+02  0.00000000000E+00 0.  1.
<mgrwt>
<rscale>  0 0.14770444E+04</rscale>
<asrwt>0</asrwt>
<pdfrwt beam="1">  1        1 0.13570346E+00 0.14770444E+04</pdfrwt>
<pdfrwt beam="2">  1       -2 0.95128246E-01 0.14770444E+04</pdfrwt>
<totfact> 0.14856206E+01</totfact>
</mgrwt>
</event>
<event>
12    4  0.4320235E-008  0.1553721E+04  0.7818608E-02  0.8849495E-01
         -2   -1    0    0    0  501 -0.00000000000E+00  0.00000000000E+00  0.37603010041E+03  0.37603010041E+03  0.00000000000E+00 0.  1.
          1   -1    0    0  501    0  0.00000000000E+00 -0.00000000000E+00 -0.16049563382E+04  0.16049563382E+04  0.00000000000E+00 0. -1.
        -24    2    1    2    0    0 -0.88197944652E+02 -0.49797883346E+03 -0.20062385432E+03  0.55016496058E+03  0.81668579717E+02 0.  0.
        254    2    1    2    0    0  0.88197944652E+02  0.49797883346E+03 -0.10283023835E+04  0.14308214780E+04  0.85678615425E+03 0.  0.
         23    2    4    4    0    0 -0.36958257713E+03  0.14131643230E+03 -0.44551716905E+03  0.60373120629E+03  0.97181305617E+02 0.  0.
         23    2    4    4    0    0  0.45778052178E+03  0.35666240116E+03 -0.58278521443E+03  0.82709027175E+03  0.87570753899E+02 0.  0.
          1    1    3    3  502    0 -0.42724473747E+02 -0.74370790727E+02 -0.42544652623E+02  0.95741540813E+02  0.00000000000E+00 0. -1.
         -2    1    3    3    0  502 -0.45473470905E+02 -0.42360804274E+03 -0.15807920170E+03  0.45442341977E+03  0.00000000000E+00 0.  1.
         11    1    5    5    0    0 -0.67481717437E+02 -0.55588800772E+01 -0.10852228394E+03  0.12791313243E+03  0.00000000000E+00 0. -1.
        -11    1    5    5    0    0 -0.30210085970E+03  0.14687531238E+03 -0.33699488511E+03  0.47581807386E+03  0.00000000000E+00 0.  1.
          4    1    6    6  503    0  0.22266346663E+03  0.18736418726E+03 -0.23227681873E+03  0.37233973540E+03  0.00000000000E+00 0. -1.
         -4    1    6    6    0  503  0.23511705516E+03  0.16929821390E+03 -0.35050839570E+03  0.45475053635E+03  0.00000000000E+00 0.  1.
<mgrwt>
<rscale>  0 0.15537206E+04</rscale>
<asrwt>0</asrwt>
<pdfrwt beam="1">  1        1 0.24691636E+00 0.15537206E+04</pdfrwt>
<pdfrwt beam="2">  1       -2 0.57850785E-01 0.15537206E+04</pdfrwt>
<totfact> 0.13089938E+01</totfact>
</mgrwt>
</event>
<event>
12    4  0.4320235E-008  0.1134486E+04  0.7818608E-02  0.9172217E-01
          1   -1    0    0  501    0  0.00000000000E+00  0.00000000000E+00  0.16059894137E+04  0.16059894137E+04  0.00000000000E+00 0. -1.
         -2   -1    0    0    0  501 -0.00000000000E+00 -0.00000000000E+00 -0.20035272131E+03  0.20035272131E+03  0.00000000000E+00 0.  1.
        -24    2    1    2    0    0 -0.11977947352E+03 -0.62330114613E+02  0.48075343680E+03  0.50724671630E+03  0.89124624734E+02 0.  0.
        254    2    1    2    0    0  0.11977947352E+03  0.62330114613E+02  0.92488325561E+03  0.12990954187E+04  0.90222375551E+03 0.  0.
         23    2    4    4    0    0  0.46748996768E+03  0.18311009683E+03  0.38335310089E+03  0.63804936797E+03  0.89839960884E+02 0.  0.
         23    2    4    4    0    0 -0.34771049415E+03 -0.12077998222E+03  0.54153015472E+03  0.66104605076E+03  0.90755610890E+02 0.  0.
          3    1    3    3  502    0 -0.23659035320E+02 -0.60062729493E+02  0.22253004380E+03  0.23170434139E+03  0.00000000000E+00 0. -1.
         -4    1    3    3    0  502 -0.96120438203E+02 -0.22673851195E+01  0.25822339300E+03  0.27554237490E+03  0.00000000000E+00 0.  1.
         11    1    5    5    0    0  0.42077254628E+03  0.13685442274E+03  0.31451551843E+03  0.54286156621E+03  0.00000000000E+00 0. -1.
        -11    1    5    5    0    0  0.46717421393E+02  0.46255674086E+02  0.68837582453E+02  0.95187801765E+02  0.00000000000E+00 0.  1.
          3    1    6    6  503    0 -0.32621519285E+03 -0.10663810544E+03  0.53300200522E+03  0.63393940968E+03  0.00000000000E+00 0. -1.
         -3    1    6    6    0  503 -0.21495301301E+02 -0.14141876777E+02  0.85281495020E+01  0.27106641081E+02  0.00000000000E+00 0.  1.
<mgrwt>
<rscale>  0 0.11344855E+04</rscale>
<asrwt>0</asrwt>
<pdfrwt beam="1">  1        1 0.24707529E+00 0.11344855E+04</pdfrwt>
<pdfrwt beam="2">  1       -2 0.30823497E-01 0.11344855E+04</pdfrwt>
<totfact> 0.47019815E+01</totfact>
</mgrwt>
</event>
<event>
12    4  0.4320235E-008  0.2526170E+04  0.7818608E-02  0.8393721E-01
         -2   -1    0    0    0  501 -0.00000000000E+00  0.00000000000E+00  0.52831877473E+03  0.52831877473E+03  0.00000000000E+00 0.  1.
          1   -1    0    0  501    0  0.00000000000E+00 -0.00000000000E+00 -0.30197358666E+04  0.30197358666E+04  0.00000000000E+00 0. -1.
        -24    2    1    2    0    0  0.77910816757E+03 -0.68333956056E+03 -0.56387121093E+03  0.11829335349E+04  0.86130794445E+02 0.  0.
        254    2    1    2    0    0 -0.77910816757E+03  0.68333956056E+03 -0.19275458809E+04  0.23651211064E+04  0.89688473782E+03 0.  0.
         23    2    4    4    0    0 -0.95083635564E+03  0.45750900848E+03 -0.16258457063E+04  0.19403292885E+04  0.89995661362E+02 0.  0.
         23    2    4    4    0    0  0.17172818807E+03  0.22583055207E+03 -0.30170017462E+03  0.42479181787E+03  0.94525575018E+02 0.  0.
          1    1    3    3  502    0  0.46626836716E+03 -0.43525639620E+03 -0.38848861670E+03  0.74684518206E+03  0.00000000000E+00 0. -1.
         -2    1    3    3    0  502  0.31283980041E+03 -0.24808316435E+03 -0.17538259422E+03  0.43608835287E+03  0.00000000000E+00 0.  1.
         11    1    5    5    0    0 -0.25671737210E+03  0.16661267144E+03 -0.49303590479E+03  0.58029991801E+03  0.00000000000E+00 0. -1.
        -11    1    5    5    0    0 -0.69411898354E+03  0.29089633705E+03 -0.11328098015E+04  0.13600293705E+04  0.00000000000E+00 0.  1.
          1    1    6    6  503    0  0.31476669981E+02  0.46171209730E+00 -0.49362440109E+02  0.58546088039E+02  0.00000000000E+00 0. -1.
         -1    1    6    6    0  503  0.14025151809E+03  0.22536883998E+03 -0.25233773451E+03  0.36624572983E+03  0.00000000000E+00 0.  1.
<mgrwt>
<rscale>  0 0.25261696E+04</rscale>
<asrwt>0</asrwt>
<pdfrwt beam="1">  1        1 0.46457475E+00 0.25261696E+04</pdfrwt>
<pdfrwt beam="2">  1       -2 0.81279812E-01 0.25261696E+04</pdfrwt>
<totfact> 0.60105360E-01</totfact>
</mgrwt>
</event>
<event>
12    4  0.4320235E-008  0.3138712E+04  0.7818608E-02  0.8205193E-01
         -2   -1    0    0    0  501 -0.00000000000E+00  0.00000000000E+00  0.16648308893E+04  0.16648308893E+04  0.00000000000E+00 0.  1.
          1   -1    0    0  501    0  0.00000000000E+00 -0.00000000000E+00 -0.14793567054E+04  0.14793567054E+04  0.00000000000E+00 0. -1.
        -24    2    1    2    0    0 -0.48859232057E+03  0.12973750608E+04  0.47412004288E+03  0.14681863694E+04  0.94217280955E+02 0.  0.
        254    2    1    2    0    0  0.48859232057E+03 -0.12973750608E+04 -0.28864585906E+03  0.16760012254E+04  0.89652616884E+03 0.  0.
         23    2    4    4    0    0  0.18817796545E+03 -0.39722788356E+03 -0.52781885872E+03  0.69310368942E+03  0.92731000754E+02 0.  0.
         23    2    4    4    0    0  0.30041435512E+03 -0.90014717722E+03  0.23917299967E+03  0.98289753595E+03  0.91488343444E+02 0.  0.
          1    1    3    3  502    0 -0.18665921739E+02  0.16225557930E+02  0.11611575480E+02  0.27322409294E+02  0.00000000000E+00 0. -1.
         -2    1    3    3    0  502 -0.46992639883E+03  0.12811495029E+04  0.46250846740E+03  0.14408639601E+04  0.00000000000E+00 0.  1.
         11    1    5    5    0    0  0.18613700079E+03 -0.36435356195E+03 -0.51503991703E+03  0.65777398649E+03  0.00000000000E+00 0. -1.
        -11    1    5    5    0    0  0.20409646618E+01 -0.32874321610E+02 -0.12778941691E+02  0.35329702926E+02  0.00000000000E+00 0.  1.
          2    1    6    6  503    0  0.13552465585E+03 -0.54614867456E+03  0.13337170106E+03  0.57830209900E+03  0.00000000000E+00 0. -1.
         -2    1    6    6    0  503  0.16488969927E+03 -0.35399850266E+03  0.10580129860E+03  0.40459543694E+03  0.00000000000E+00 0.  1.
<mgrwt>
<rscale>  0 0.31387123E+04</rscale>
<asrwt>0</asrwt>
<pdfrwt beam="1">  1        1 0.22759334E+00 0.31387123E+04</pdfrwt>
<pdfrwt beam="2">  1       -2 0.25612783E+00 0.31387123E+04</pdfrwt>
<totfact> 0.29429432E-01</totfact>
</mgrwt>
</event>
<event>
12    4  0.4320235E-008  0.2176619E+04  0.7818608E-02  0.8528223E-01
         -2   -1    0    0    0  501 -0.00000000000E+00  0.00000000000E+00  0.10638875303E+04  0.10638875303E+04  0.00000000000E+00 0.  1.
          1   -1    0    0  501    0  0.00000000000E+00 -0.00000000000E+00 -0.11132919483E+04  0.11132919483E+04  0.00000000000E+00 0. -1.
        -24    2    1    2    0    0  0.47952405641E+03 -0.66010403551E+03 -0.39930459187E+03  0.91167902634E+03  0.77677742088E+02 0.  0.
        254    2    1    2    0    0 -0.47952405641E+03  0.66010403551E+03  0.34990017383E+03  0.12655004522E+04  0.90187615810E+03 0.  0.
         23    2    4    4    0    0  0.22656309315E+02  0.54136356916E+03  0.47552641418E+03  0.72631122657E+03  0.88401385160E+02 0.  0.
         23    2    4    4    0    0 -0.50218036572E+03  0.11874046635E+03 -0.12562624035E+03  0.53918922564E+03  0.93051871136E+02 0.  0.
          3    1    3    3  502    0  0.84579976194E+02 -0.82366351560E+02 -0.37597951846E+02  0.12390155054E+03  0.00000000000E+00 0. -1.
         -4    1    3    3    0  502  0.39494408021E+03 -0.57773768395E+03 -0.36170664002E+03  0.78777747580E+03  0.00000000000E+00 0.  1.
         11    1    5    5    0    0  0.37970750250E+02  0.37308205335E+03  0.37157236945E+03  0.52791857530E+03  0.00000000000E+00 0. -1.
        -11    1    5    5    0    0 -0.15314440936E+02  0.16828151581E+03  0.10395404474E+03  0.19839265128E+03  0.00000000000E+00 0.  1.
          1    1    6    6  503    0 -0.46376996233E+03  0.91340707870E+02 -0.13391974308E+03  0.49128423592E+03  0.00000000000E+00 0. -1.
         -1    1    6    6    0  503 -0.38410403390E+02  0.27399758478E+02  0.82935027279E+01  0.47904989727E+02  0.00000000000E+00 0.  1.
<mgrwt>
<rscale>  0 0.21766189E+04</rscale>
<asrwt>0</asrwt>
<pdfrwt beam="1">  1        1 0.17127568E+00 0.21766189E+04</pdfrwt>
<pdfrwt beam="2">  1       -2 0.16367501E+00 0.21766189E+04</pdfrwt>
<totfact> 0.23499004E+00</totfact>
</mgrwt>
</event>
<event>
12    4  0.4320235E-008  0.1715434E+04  0.7818608E-02  0.8752610E-01
         -2   -1    0    0    0  501 -0.00000000000E+00  0.00000000000E+00  0.43151328229E+03  0.43151328229E+03  0.00000000000E+00 0.  1.
          1   -1    0    0  501    0  0.00000000000E+00 -0.00000000000E+00 -0.17048810910E+04  0.17048810910E+04  0.00000000000E+00 0. -1.
        -24    2    1    2    0    0 -0.46623460822E+03 -0.12084960795E+03  0.12004634390E+02  0.48831580235E+03  0.79554220122E+02 0.  0.
        254    2    1    2    0    0  0.46623460822E+03  0.12084960795E+03 -0.12853724431E+04  0.16480785710E+04  0.91214106414E+03 0.  0.
         23    2    4    4    0    0  0.24794417345E+03 -0.38470105960E+03 -0.49577174276E+03  0.68086522006E+03  0.91195441539E+02 0.  0.
         23    2    4    4    0    0  0.21829043476E+03  0.50555066756E+03 -0.78960070038E+03  0.96721335092E+03  0.93809427967E+02 0.  0.
          1    1    3    3  502    0 -0.15566539565E+03 -0.70095777273E+02 -0.20529840807E+02  0.17194943372E+03  0.00000000000E+00 0. -1.
         -2    1    3    3    0  502 -0.31056921257E+03 -0.50753830680E+02  0.32534475197E+02  0.31636636863E+03  0.00000000000E+00 0.  1.
         11    1    5    5    0    0  0.11287942731E+03 -0.21540748635E+03 -0.32011025878E+03  0.40201085565E+03  0.00000000000E+00 0.  1.
        -11    1    5    5    0    0  0.13506474614E+03 -0.16929357326E+03 -0.17566148399E+03  0.27885436442E+03  0.00000000000E+00 0. -1.
          4    1    6    6  503    0  0.11016794665E+03  0.34101173556E+03 -0.55886003167E+03  0.66389043919E+03  0.00000000000E+00 0. -1.
         -4    1    6    6    0  503  0.10812248811E+03  0.16453893200E+03 -0.23074066871E+03  0.30332291172E+03  0.00000000000E+00 0.  1.
<mgrwt>
<rscale>  0 0.17154344E+04</rscale>
<asrwt>0</asrwt>
<pdfrwt beam="1">  1        1 0.26228939E+00 0.17154344E+04</pdfrwt>
<pdfrwt beam="2">  1       -2 0.66386660E-01 0.17154344E+04</pdfrwt>
<totfact> 0.82300423E+00</totfact>
</mgrwt>
</event>
<event>
12    4  0.4320235E-008  0.1659848E+04  0.7818608E-02  0.8784602E-01
         -2   -1    0    0    0  501 -0.00000000000E+00  0.00000000000E+00  0.82427405366E+03  0.82427405366E+03  0.00000000000E+00 0.  1.
          1   -1    0    0  501    0  0.00000000000E+00 -0.00000000000E+00 -0.83561286576E+03  0.83561286576E+03  0.00000000000E+00 0. -1.
        -24    2    1    2    0    0 -0.25674410000E+03 -0.95595679165E+02 -0.52249666080E+03  0.59442974310E+03  0.72717894392E+02 0.  0.
        254    2    1    2    0    0  0.25674410000E+03  0.95595679165E+02  0.51115784870E+03  0.10654571763E+04  0.89379000975E+03 0.  0.
         23    2    4    4    0    0 -0.12666867720E+03  0.17854558826E+03  0.60691449542E+03  0.65172600994E+03  0.92076633381E+02 0.  0.
         23    2    4    4    0    0  0.38341277720E+03 -0.82949909096E+02 -0.95756646721E+02  0.41373116638E+03  0.90100485601E+02 0.  0.
          3    1    3    3  502    0 -0.26085520356E+03 -0.96373809241E+02 -0.51961373884E+03  0.58934861154E+03  0.00000000000E+00 0. -1.
         -4    1    3    3    0  502  0.41111035546E+01  0.77813007683E+00 -0.28829219623E+01  0.50811315565E+01  0.00000000000E+00 0.  1.
         11    1    5    5    0    0 -0.51904183278E+02  0.14444392062E+03  0.43237913350E+03  0.45881347576E+03  0.00000000000E+00 0.  1.
        -11    1    5    5    0    0 -0.74764493920E+02  0.34101667636E+02  0.17453536192E+03  0.19291253419E+03  0.00000000000E+00 0. -1.
          4    1    6    6  503    0  0.52629284407E+02 -0.45460935471E+02 -0.19046983844E+02  0.72106350793E+02  0.00000000000E+00 0. -1.
         -4    1    6    6    0  503  0.33078349279E+03 -0.37488973624E+02 -0.76709662877E+02  0.34162481559E+03  0.00000000000E+00 0.  1.
<mgrwt>
<rscale>  0 0.16598482E+04</rscale>
<asrwt>0</asrwt>
<pdfrwt beam="1">  1        1 0.12855583E+00 0.16598482E+04</pdfrwt>
<pdfrwt beam="2">  1       -2 0.12681139E+00 0.16598482E+04</pdfrwt>
<totfact> 0.79670325E+00</totfact>
</mgrwt>
</event>
<event>
12    4  0.4320235E-008  0.1558698E+04  0.7818608E-02  0.8846331E-01
          1   -1    0    0  501    0  0.00000000000E+00  0.00000000000E+00  0.14550196531E+04  0.14550196531E+04  0.00000000000E+00 0. -1.
         -2   -1    0    0    0  501 -0.00000000000E+00 -0.00000000000E+00 -0.41744124817E+03  0.41744124817E+03  0.00000000000E+00 0.  1.
        -24    2    1    2    0    0 -0.61099842590E+01 -0.15353138686E+03  0.93715336139E+03  0.95315579427E+03  0.81488199939E+02 0.  0.
        254    2    1    2    0    0  0.61099842590E+01  0.15353138686E+03  0.10042504351E+03  0.91930510697E+03  0.90079269073E+03 0.  0.
         23    2    4    4    0    0 -0.24696315631E+02 -0.13475877509E+03  0.43568031363E+03  0.46680285052E+03  0.96528390153E+02 0.  0.
         23    2    4    4    0    0  0.30806299890E+02  0.28829016196E+03 -0.33525527012E+03  0.45250225644E+03  0.91115039108E+02 0.  0.
          1    1    3    3  502    0 -0.91775404487E+01 -0.92438388198E+02  0.32683385226E+03  0.33977853058E+03  0.00000000000E+00 0. -1.
         -2    1    3    3    0  502  0.30675561897E+01 -0.61092998666E+02  0.61031950913E+03  0.61337726369E+03  0.00000000000E+00 0.  1.
         11    1    5    5    0    0 -0.16739042771E+02 -0.40204714172E+02  0.37493981522E+02  0.57466627228E+02  0.00000000000E+00 0.  1.
        -11    1    5    5    0    0 -0.79572728603E+01 -0.94554060920E+02  0.39818633210E+03  0.40933622330E+03  0.00000000000E+00 0. -1.
          4    1    6    6  503    0  0.45645286304E+02  0.10600573286E+03 -0.17328567445E+03  0.20820334418E+03  0.00000000000E+00 0. -1.
         -4    1    6    6    0  503 -0.14838986415E+02  0.18228442910E+03 -0.16196959567E+03  0.24429891226E+03  0.00000000000E+00 0.  1.
<mgrwt>
<rscale>  0 0.15586985E+04</rscale>
<asrwt>0</asrwt>
<pdfrwt beam="1">  1        1 0.22384918E+00 0.15586985E+04</pdfrwt>
<pdfrwt beam="2">  1       -2 0.64221731E-01 0.15586985E+04</pdfrwt>
<totfact> 0.13305681E+01</totfact>
</mgrwt>
</event>
<event>
12    4  0.4320235E-008  0.1843831E+04  0.7818608E-02  0.8683332E-01
          1   -1    0    0  501    0  0.00000000000E+00  0.00000000000E+00  0.31905122190E+04  0.31905122190E+04  0.00000000000E+00 0. -1.
         -2   -1    0    0    0  501 -0.00000000000E+00 -0.00000000000E+00 -0.26639239046E+03  0.26639239046E+03  0.00000000000E+00 0.  1.
        -24    2    1    2    0    0 -0.27293792890E+03  0.11920140965E+03  0.22989257361E+04  0.23195663439E+04  0.81390383349E+02 0.  0.
        254    2    1    2    0    0  0.27293792890E+03 -0.11920140965E+03  0.62519409247E+03  0.11373382656E+04  0.90220096878E+03 0.  0.
         23    2    4    4    0    0  0.21335244812E+03  0.37045938786E+03  0.20849495126E+03  0.48510039563E+03  0.95356300113E+02 0.  0.
         23    2    4    4    0    0  0.59585480773E+02 -0.48966079751E+03  0.41669914121E+03  0.65223786997E+03  0.91967051764E+02 0.  0.
          3    1    3    3  502    0 -0.11871353970E+03  0.88163508226E+02  0.12903778410E+04  0.12988228059E+04  0.00000000000E+00 0. -1.
         -4    1    3    3    0  502 -0.15422438920E+03  0.31037901421E+02  0.10085478951E+04  0.10207435380E+04  0.00000000000E+00 0.  1.
         11    1    5    5    0    0  0.92414275116E+02  0.14064307171E+03  0.13345343885E+03  0.21478056757E+03  0.00000000000E+00 0. -1.
        -11    1    5    5    0    0  0.12093817301E+03  0.22981631615E+03  0.75041512406E+02  0.27031982806E+03  0.00000000000E+00 0.  1.
          3    1    6    6  503    0  0.16894150683E+02 -0.27938402055E+03  0.18008150619E+03  0.33282156201E+03  0.00000000000E+00 0. -1.
         -3    1    6    6    0  503  0.42691330090E+02 -0.21027677696E+03  0.23661763502E+03  0.31941630797E+03  0.00000000000E+00 0.  1.
<mgrwt>
<rscale>  0 0.18438310E+04</rscale>
<asrwt>0</asrwt>
<pdfrwt beam="1">  1        1 0.49084801E+00 0.18438310E+04</pdfrwt>
<pdfrwt beam="2">  1       -2 0.40983447E-01 0.18438310E+04</pdfrwt>
<totfact> 0.20197711E+00</totfact>
</mgrwt>
</event>
<event>
12    4  0.4320235E-008  0.2692235E+04  0.7818608E-02  0.8337529E-01
         -2   -1    0    0    0  501 -0.00000000000E+00  0.00000000000E+00  0.13322025221E+04  0.13322025221E+04  0.00000000000E+00 0.  1.
          1   -1    0    0  501    0  0.00000000000E+00 -0.00000000000E+00 -0.13601780842E+04  0.13601780842E+04  0.00000000000E+00 0. -1.
        -24    2    1    2    0    0  0.10869485972E+04 -0.31795336980E+03 -0.39159118058E+03  0.12009229872E+04  0.79503270674E+02 0.  0.
        254    2    1    2    0    0 -0.10869485972E+04  0.31795336980E+03  0.36361561856E+03  0.14914576192E+04  0.89982104518E+03 0.  0.
         23    2    4    4    0    0 -0.88751492912E+03  0.61013381206E+03  0.28153207702E+03  0.11167857891E+04  0.89466028387E+02 0.  0.
         23    2    4    4    0    0 -0.19943366808E+03 -0.29218044226E+03  0.82083541542E+02  0.37467183009E+03  0.92184996991E+02 0.  0.
          1    1    3    3  502    0  0.71687981996E+03 -0.19595621930E+03 -0.29407561216E+03  0.79924713438E+03  0.00000000000E+00 0. -1.
         -2    1    3    3    0  502  0.37006877724E+03 -0.12199715050E+03 -0.97515568420E+02  0.40167585277E+03  0.00000000000E+00 0.  1.
         11    1    5    5    0    0 -0.61575009306E+03  0.47208650333E+03  0.20055275861E+03  0.80139581526E+03  0.00000000000E+00 0.  1.
        -11    1    5    5    0    0 -0.27176483606E+03  0.13804730873E+03  0.80979318405E+02  0.31538997380E+03  0.00000000000E+00 0. -1.
          2    1    6    6  503    0 -0.99506087668E+02 -0.21663794836E+03  0.35520601177E+02  0.24102940746E+03  0.00000000000E+00 0. -1.
         -2    1    6    6    0  503 -0.99927580411E+02 -0.75542493895E+02  0.46562940365E+02  0.13364242263E+03  0.00000000000E+00 0.  1.
<mgrwt>
<rscale>  0 0.26922353E+04</rscale>
<asrwt>0</asrwt>
<pdfrwt beam="1">  1        1 0.20925817E+00 0.26922353E+04</pdfrwt>
<pdfrwt beam="2">  1       -2 0.20495423E+00 0.26922353E+04</pdfrwt>
<totfact> 0.77609700E-01</totfact>
</mgrwt>
</event>
<event>
12    4  0.4320235E-008  0.1698427E+04  0.7818608E-02  0.8762262E-01
          1   -1    0    0  501    0  0.00000000000E+00  0.00000000000E+00  0.51055635057E+03  0.51055635057E+03  0.00000000000E+00 0. -1.
         -2   -1    0    0    0  501 -0.00000000000E+00 -0.00000000000E+00 -0.14125051877E+04  0.14125051877E+04  0.00000000000E+00 0.  1.
        -24    2    1    2    0    0 -0.47522961884E+03 -0.25714363710E+02 -0.25579222829E+02  0.48332997380E+03  0.80306586326E+02 0.  0.
        254    2    1    2    0    0  0.47522961884E+03  0.25714363710E+02 -0.87636961429E+03  0.14397315645E+04  0.10384116995E+04 0.  0.
         23    2    4    4    0    0  0.73415703312E+03 -0.44085062211E+02 -0.88841142611E+03  0.11567274009E+04  0.88393302220E+02 0.  0.
         23    2    4    4    0    0 -0.25892741427E+03  0.69799425921E+02  0.12041811826E+02  0.28300416359E+03  0.89615766784E+02 0.  0.
          1    1    3    3  502    0 -0.44075986670E+03 -0.39599806293E+02 -0.37960345881E+02  0.44416032309E+03  0.00000000000E+00 0. -1.
         -2    1    3    3    0  502 -0.34469752149E+02  0.13885442583E+02  0.12381123052E+02  0.39169650712E+02  0.00000000000E+00 0.  1.
         11    1    5    5    0    0  0.30454145199E+03  0.15286983829E+02 -0.32386217012E+03  0.44482119227E+03  0.00000000000E+00 0.  1.
        -11    1    5    5    0    0  0.42961558113E+03 -0.59372046040E+02 -0.56454925599E+03  0.71190620860E+03  0.00000000000E+00 0. -1.
          2    1    6    6  503    0 -0.17489319247E+03  0.89381129153E+02  0.10889232883E+02  0.19671093109E+03  0.00000000000E+00 0. -1.
         -2    1    6    6    0  503 -0.84034221808E+02 -0.19581703232E+02  0.11525789432E+01  0.86293232496E+02  0.00000000000E+00 0.  1.
<mgrwt>
<rscale>  0 0.16984269E+04</rscale>
<asrwt>0</asrwt>
<pdfrwt beam="1">  1        1 0.78547131E-01 0.16984269E+04</pdfrwt>
<pdfrwt beam="2">  1       -2 0.21730849E+00 0.16984269E+04</pdfrwt>
<totfact> 0.36833105E+00</totfact>
</mgrwt>
</event>
<event>
12    4  0.4320235E-008  0.1424751E+04  0.7818608E-02  0.8936095E-01
         -2   -1    0    0    0  501 -0.00000000000E+00  0.00000000000E+00  0.30097731510E+03  0.30097731510E+03  0.00000000000E+00 0.  1.
          1   -1    0    0  501    0  0.00000000000E+00 -0.00000000000E+00 -0.16861043567E+04  0.16861043567E+04  0.00000000000E+00 0. -1.
        -24    2    1    2    0    0 -0.23215667915E+03 -0.29755526467E+03 -0.16670506379E+03  0.42043561682E+03  0.80868228559E+02 0.  0.
        254    2    1    2    0    0  0.23215667915E+03  0.29755526467E+03 -0.12184219778E+04  0.15666460550E+04  0.90961084337E+03 0.  0.
         23    2    4    4    0    0  0.36902394289E+03 -0.76650350637E+02 -0.10594604489E+04  0.11282245600E+04  0.91543805223E+02 0.  0.
         23    2    4    4    0    0 -0.13686726374E+03  0.37420561531E+03 -0.15896152888E+03  0.43842149498E+03  0.90455233039E+02 0.  0.
          3    1    3    3  502    0 -0.18497487269E+03 -0.27893499782E+03 -0.13695108477E+03  0.36162969479E+03  0.00000000000E+00 0. -1.
         -4    1    3    3    0  502 -0.47181806455E+02 -0.18620266855E+02 -0.29753979020E+02  0.58805922028E+02  0.00000000000E+00 0.  1.
         11    1    5    5    0    0  0.11083525158E+03  0.14535025771E+02 -0.36492008467E+03  0.38165742251E+03  0.00000000000E+00 0.  1.
        -11    1    5    5    0    0  0.25818869131E+03 -0.91185376409E+02 -0.69454036425E+03  0.74656713748E+03  0.00000000000E+00 0. -1.
          1    1    6    6  503    0 -0.12948517917E+03  0.27324307048E+03 -0.14784665391E+03  0.33658107532E+03  0.00000000000E+00 0. -1.
         -1    1    6    6    0  503 -0.73820845654E+01  0.10096254483E+03 -0.11114874968E+02  0.10184041966E+03  0.00000000000E+00 0.  1.
<mgrwt>
<rscale>  0 0.14247514E+04</rscale>
<asrwt>0</asrwt>
<pdfrwt beam="1">  1        1 0.25940067E+00 0.14247514E+04</pdfrwt>
<pdfrwt beam="2">  1       -2 0.46304202E-01 0.14247514E+04</pdfrwt>
<totfact> 0.18400784E+01</totfact>
</mgrwt>
</event>
<event>
12    4  0.4320235E-008  0.1694043E+04  0.7818608E-02  0.8764769E-01
          1   -1    0    0  501    0  0.00000000000E+00  0.00000000000E+00  0.10300678139E+04  0.10300678139E+04  0.00000000000E+00 0. -1.
         -2   -1    0    0    0  501 -0.00000000000E+00 -0.00000000000E+00 -0.69650344166E+03  0.69650344166E+03  0.00000000000E+00 0.  1.
        -24    2    1    2    0    0 -0.40717204495E+03 -0.47685478820E+02 -0.32861040301E+03  0.53080552020E+03  0.75542863533E+02 0.  0.
        254    2    1    2    0    0  0.40717204495E+03  0.47685478820E+02  0.66217477522E+03  0.11957657353E+04  0.90736832751E+03 0.  0.
         23    2    4    4    0    0  0.44094824775E+03 -0.86621737624E+02  0.83734247639E+03  0.95479931165E+03  0.92523619262E+02 0.  0.
         23    2    4    4    0    0 -0.33776202804E+02  0.13430721644E+03 -0.17516770117E+03  0.24096642369E+03  0.90563974885E+02 0.  0.
          1    1    3    3  502    0 -0.16083277045E+03 -0.36731471311E+02 -0.91175717057E+02  0.18849242005E+03  0.00000000000E+00 0. -1.
         -2    1    3    3    0  502 -0.24633927450E+03 -0.10954007509E+02 -0.23743468595E+03  0.34231310015E+03  0.00000000000E+00 0.  1.
         11    1    5    5    0    0  0.92781450535E+02 -0.23207374616E+02  0.10885806906E+03  0.14490361969E+03  0.00000000000E+00 0.  1.
        -11    1    5    5    0    0  0.34816679722E+03 -0.63414363008E+02  0.72848440733E+03  0.80989569195E+03  0.00000000000E+00 0. -1.
          1    1    6    6  503    0  0.23921272032E+02  0.59432937013E+02 -0.38339122203E+02  0.74661834621E+02  0.00000000000E+00 0. -1.
         -1    1    6    6    0  503 -0.57697474836E+02  0.74874279431E+02 -0.13682857897E+03  0.16630458907E+03  0.00000000000E+00 0.  1.
<mgrwt>
<rscale>  0 0.16940434E+04</rscale>
<asrwt>0</asrwt>
<pdfrwt beam="1">  1        1 0.15847197E+00 0.16940434E+04</pdfrwt>
<pdfrwt beam="2">  1       -2 0.10715438E+00 0.16940434E+04</pdfrwt>
<totfact> 0.83774347E+00</totfact>
</mgrwt>
</event>
<event>
12    4  0.4320235E-008  0.1163111E+04  0.7818608E-02  0.9145772E-01
          1   -1    0    0  501    0  0.00000000000E+00  0.00000000000E+00  0.64210040217E+03  0.64210040217E+03  0.00000000000E+00 0. -1.
         -2   -1    0    0    0  501 -0.00000000000E+00 -0.00000000000E+00 -0.52671984811E+03  0.52671984811E+03  0.00000000000E+00 0.  1.
        -24    2    1    2    0    0 -0.88086254394E+02 -0.35753428980E+02  0.23203874737E+03  0.26343814967E+03  0.80747647177E+02 0.  0.
        254    2    1    2    0    0  0.88086254394E+02  0.35753428980E+02 -0.11665819331E+03  0.90538210061E+03  0.89278783490E+03 0.  0.
         23    2    4    4    0    0  0.32093589501E+03 -0.28789177191E+03  0.85348928178E+02  0.44899746932E+03  0.91830097858E+02 0.  0.
         23    2    4    4    0    0 -0.23284964062E+03  0.32364520089E+03 -0.20200712149E+03  0.45638463129E+03  0.92276125567E+02 0.  0.
          1    1    3    3  502    0  0.89214500032E+01  0.12869130522E+01  0.72660547716E+02  0.73217508902E+02  0.00000000000E+00 0. -1.
         -2    1    3    3    0  502 -0.97007704397E+02 -0.37040342032E+02  0.15937819965E+03  0.19022064077E+03  0.00000000000E+00 0.  1.
         11    1    5    5    0    0  0.17756117944E+02  0.37330464510E+01  0.12583675211E+02  0.22080856914E+02  0.00000000000E+00 0.  1.
        -11    1    5    5    0    0  0.30317977707E+03 -0.29162481837E+03  0.72765252967E+02  0.42691661241E+03  0.00000000000E+00 0. -1.
          3    1    6    6  503    0 -0.11846892901E+03  0.23414423353E+03 -0.11050192370E+03  0.28472633243E+03  0.00000000000E+00 0. -1.
         -3    1    6    6    0  503 -0.11438071161E+03  0.89500967365E+02 -0.91505197786E+02  0.17165829886E+03  0.00000000000E+00 0.  1.
<mgrwt>
<rscale>  0 0.11631114E+04</rscale>
<asrwt>0</asrwt>
<pdfrwt beam="1">  1        1 0.98784676E-01 0.11631114E+04</pdfrwt>
<pdfrwt beam="2">  1       -2 0.81033824E-01 0.11631114E+04</pdfrwt>
<totfact> 0.36189327E+01</totfact>
</mgrwt>
</event>
<event>
12    4  0.4320235E-008  0.2501389E+04  0.7818608E-02  0.8402491E-01
          1   -1    0    0  501    0  0.00000000000E+00  0.00000000000E+00  0.31421402812E+04  0.31421402812E+04  0.00000000000E+00 0. -1.
         -2   -1    0    0    0  501 -0.00000000000E+00 -0.00000000000E+00 -0.49782530072E+03  0.49782530072E+03  0.00000000000E+00 0.  1.
        -24    2    1    2    0    0 -0.90344321832E+03 -0.61502111882E+03  0.10406885281E+04  0.15113225876E+04  0.81257158887E+02 0.  0.
        254    2    1    2    0    0  0.90344321832E+03  0.61502111882E+03  0.16036264524E+04  0.21286429943E+04  0.87466712141E+03 0.  0.
         23    2    4    4    0    0  0.91516037883E+03  0.50920809032E+03  0.16697664823E+04  0.19730669535E+04  0.89786967081E+02 0.  0.
         23    2    4    4    0    0 -0.11717160506E+02  0.10581302850E+03 -0.66140029935E+02  0.15557604081E+03  0.92172187033E+02 0.  0.
          3    1    3    3  502    0 -0.33613418046E+02 -0.27261965770E+02  0.65280388925E+02  0.78323724558E+02  0.00000000000E+00 0. -1.
         -4    1    3    3    0  502 -0.86982980027E+03 -0.58775915305E+03  0.97540813921E+03  0.14329988630E+04  0.00000000000E+00 0.  1.
         11    1    5    5    0    0  0.74300023456E+03  0.37326504516E+03  0.13393710535E+04  0.15764805617E+04  0.00000000000E+00 0.  1.
        -11    1    5    5    0    0  0.17216014427E+03  0.13594304515E+03  0.33039542878E+03  0.39658639180E+03  0.00000000000E+00 0. -1.
          4    1    6    6  503    0  0.83173621204E+01  0.10909867159E+01  0.17931335710E+02  0.19796503858E+02  0.00000000000E+00 0. -1.
         -4    1    6    6    0  503 -0.20034522626E+02  0.10472204179E+03 -0.84071365645E+02  0.13577953695E+03  0.00000000000E+00 0.  1.
<mgrwt>
<rscale>  0 0.25013892E+04</rscale>
<asrwt>0</asrwt>
<pdfrwt beam="1">  1        1 0.48340618E+00 0.25013892E+04</pdfrwt>
<pdfrwt beam="2">  1       -2 0.76588510E-01 0.25013892E+04</pdfrwt>
<totfact> 0.55913050E-01</totfact>
</mgrwt>
</event>
<event>
12    4  0.4320235E-008  0.2486119E+04  0.7818608E-02  0.8407948E-01
         -2   -1    0    0    0  501 -0.00000000000E+00  0.00000000000E+00  0.36710072995E+03  0.36710072995E+03  0.00000000000E+00 0.  1.
          1   -1    0    0  501    0  0.00000000000E+00 -0.00000000000E+00 -0.42091897652E+04  0.42091897652E+04  0.00000000000E+00 0. -1.
        -24    2    1    2    0    0  0.12142251932E+03  0.42120528840E+03 -0.34839380326E+04  0.35122902800E+04  0.78749429311E+02 0.  0.
        254    2    1    2    0    0 -0.12142251932E+03 -0.42120528840E+03 -0.35815100264E+03  0.10640002152E+04  0.90092563178E+03 0.  0.
         23    2    4    4    0    0  0.14988873075E+03 -0.29988006860E+03 -0.58408656322E+03  0.67963517086E+03  0.91390179947E+02 0.  0.
         23    2    4    4    0    0 -0.27131125007E+03 -0.12132521980E+03  0.22593556058E+03  0.38436504430E+03  0.91433070438E+02 0.  0.
          1    1    3    3  502    0  0.13276964852E+03  0.37547275165E+03 -0.31154927667E+04  0.31408442728E+04  0.00000000000E+00 0. -1.
         -2    1    3    3    0  502 -0.11347129204E+02  0.45732536750E+02 -0.36844526596E+03  0.37144600721E+03  0.00000000000E+00 0.  1.
         11    1    5    5    0    0  0.16040504725E+03 -0.29501588672E+03 -0.56732780959E+03  0.65926094692E+03  0.00000000000E+00 0. -1.
        -11    1    5    5    0    0 -0.10516316499E+02 -0.48641818848E+01 -0.16758753633E+02  0.20374223947E+02  0.00000000000E+00 0.  1.
          4    1    6    6  503    0 -0.19860859264E+03 -0.11751829406E+03  0.13315901906E+03  0.26643431999E+03  0.00000000000E+00 0. -1.
         -4    1    6    6    0  503 -0.72702657429E+02 -0.38069257444E+01  0.92776541519E+02  0.11793072431E+03  0.00000000000E+00 0.  1.
<mgrwt>
<rscale>  0 0.24861188E+04</rscale>
<asrwt>0</asrwt>
<pdfrwt beam="1">  1        1 0.64756765E+00 0.24861188E+04</pdfrwt>
<pdfrwt beam="2">  1       -2 0.56477036E-01 0.24861188E+04</pdfrwt>
<totfact> 0.14319052E-01</totfact>
</mgrwt>
</event>
<event>
12    4  0.4320235E-008  0.1575853E+04  0.7818608E-02  0.8835522E-01
          1   -1    0    0  501    0  0.00000000000E+00  0.00000000000E+00  0.11259935432E+04  0.11259935432E+04  0.00000000000E+00 0. -1.
         -2   -1    0    0    0  501 -0.00000000000E+00 -0.00000000000E+00 -0.55136007956E+03  0.55136007956E+03  0.00000000000E+00 0.  1.
        -24    2    1    2    0    0  0.31950825104E+03  0.36405690130E+03  0.40198783903E+03  0.63421312186E+03  0.77518458146E+02 0.  0.
        254    2    1    2    0    0 -0.31950825104E+03 -0.36405690130E+03  0.17264562461E+03  0.10431405009E+04  0.90758616287E+03 0.  0.
         23    2    4    4    0    0 -0.25263617076E+03 -0.65148225616E+03  0.36510212359E+02  0.70539123700E+03  0.89384768087E+02 0.  0.
         23    2    4    4    0    0 -0.66872080284E+02  0.28742535486E+03  0.13613541225E+03  0.33774926389E+03  0.91959257546E+02 0.  0.
          1    1    3    3  502    0  0.16404219403E+03  0.14873678175E+03  0.14521352357E+03  0.26480075358E+03  0.00000000000E+00 0. -1.
         -2    1    3    3    0  502  0.15546605701E+03  0.21532011954E+03  0.25677431546E+03  0.36941236828E+03  0.00000000000E+00 0.  1.
         11    1    5    5    0    0 -0.34794466138E+02 -0.11053657194E+03  0.38858509973E+02  0.12222508911E+03  0.00000000000E+00 0. -1.
        -11    1    5    5    0    0 -0.21784170462E+03 -0.54094568421E+03 -0.23482976143E+01  0.58316614789E+03  0.00000000000E+00 0.  1.
          2    1    6    6  503    0  0.18130106021E+02  0.34705620028E+02  0.18220134939E+01  0.39198221121E+02  0.00000000000E+00 0. -1.
         -2    1    6    6    0  503 -0.85002186305E+02  0.25271973483E+03  0.13431339876E+03  0.29855104277E+03  0.00000000000E+00 0.  1.
<mgrwt>
<rscale>  0 0.15758526E+04</rscale>
<asrwt>0</asrwt>
<pdfrwt beam="1">  1        1 0.17322977E+00 0.15758526E+04</pdfrwt>
<pdfrwt beam="2">  1       -2 0.84824628E-01 0.15758526E+04</pdfrwt>
<totfact> 0.12372243E+01</totfact>
</mgrwt>
</event>
<event>
12    4  0.4320235E-008  0.1465919E+04  0.7818608E-02  0.8907438E-01
         -2   -1    0    0    0  501 -0.00000000000E+00  0.00000000000E+00  0.53786806143E+03  0.53786806143E+03  0.00000000000E+00 0.  1.
          1   -1    0    0  501    0  0.00000000000E+00 -0.00000000000E+00 -0.99881333319E+03  0.99881333319E+03  0.00000000000E+00 0. -1.
        -24    2    1    2    0    0  0.35833589774E+02  0.26853728447E+03  0.24148181649E+03  0.37167691801E+03  0.80211871791E+02 0.  0.
        254    2    1    2    0    0 -0.35833589774E+02 -0.26853728447E+03 -0.70242708824E+03  0.11650044766E+04  0.88906428166E+03 0.  0.
         23    2    4    4    0    0 -0.35335894424E+03 -0.19215246030E+03 -0.32336508729E+02  0.41371157827E+03  0.91249705370E+02 0.  0.
         23    2    4    4    0    0  0.31752535446E+03 -0.76384824172E+02 -0.67009057951E+03  0.75129289834E+03  0.93608985948E+02 0.  0.
          3    1    3    3  502    0  0.10084288358E+02  0.80420583797E+00  0.23095490669E+02  0.25213911001E+02  0.00000000000E+00 0. -1.
         -4    1    3    3    0  502  0.25749301416E+02  0.26773307863E+03  0.21838632582E+03  0.34646300701E+03  0.00000000000E+00 0.  1.
         11    1    5    5    0    0 -0.28701062949E+03 -0.17482710086E+03  0.40362349387E+01  0.33608913672E+03  0.00000000000E+00 0.  1.
        -11    1    5    5    0    0 -0.66348314752E+02 -0.17325359441E+02 -0.36372743668E+02  0.77622441550E+02  0.00000000000E+00 0. -1.
          4    1    6    6  503    0  0.79760587358E+02  0.96717108985E+01 -0.10503630140E+03  0.13224189162E+03  0.00000000000E+00 0. -1.
         -4    1    6    6    0  503  0.23776476711E+03 -0.86056535070E+02 -0.56505427811E+03  0.61905100672E+03  0.00000000000E+00 0.  1.
<mgrwt>
<rscale>  0 0.14659192E+04</rscale>
<asrwt>0</asrwt>
<pdfrwt beam="1">  1        1 0.15366359E+00 0.14659192E+04</pdfrwt>
<pdfrwt beam="2">  1       -2 0.82748934E-01 0.14659192E+04</pdfrwt>
<totfact> 0.16514766E+01</totfact>
</mgrwt>
</event>
<event>
12    4  0.4320235E-008  0.1473801E+04  0.7818608E-02  0.8902064E-01
          1   -1    0    0  501    0  0.00000000000E+00  0.00000000000E+00  0.13556223689E+04  0.13556223689E+04  0.00000000000E+00 0. -1.
         -2   -1    0    0    0  501 -0.00000000000E+00 -0.00000000000E+00 -0.40057067709E+03  0.40057067709E+03  0.00000000000E+00 0.  1.
        -24    2    1    2    0    0  0.40925273649E+03 -0.20335487757E+03  0.31257875207E+03  0.55957825127E+03  0.81125424480E+02 0.  0.
        254    2    1    2    0    0 -0.40925273649E+03  0.20335487757E+03  0.64247293975E+03  0.11966147947E+04  0.90015247602E+03 0.  0.
         23    2    4    4    0    0  0.10292324812E+03  0.86686366905E+02  0.64401069212E+03  0.66401488191E+03  0.89767870763E+02 0.  0.
         23    2    4    4    0    0 -0.51217598461E+03  0.11666851066E+03 -0.15377523718E+01  0.53259991281E+03  0.87889259052E+02 0.  0.
          1    1    3    3  502    0  0.40075401843E+03 -0.18341965771E+03  0.30725228209E+03  0.53726205800E+03  0.00000000000E+00 0. -1.
         -2    1    3    3    0  502  0.84987180600E+01 -0.19935219860E+02  0.53264699775E+01  0.22316193267E+02  0.00000000000E+00 0.  1.
         11    1    5    5    0    0  0.60771274968E+02  0.60884259019E+02  0.20621287796E+03  0.22343632627E+03  0.00000000000E+00 0. -1.
        -11    1    5    5    0    0  0.42151973155E+02  0.25802107885E+02  0.43779781416E+03  0.44057855565E+03  0.00000000000E+00 0.  1.
          3    1    6    6  503    0 -0.74213824414E+02 -0.59826574945E+01  0.20591783771E+02  0.77249630962E+02  0.00000000000E+00 0. -1.
         -3    1    6    6    0  503 -0.43796216019E+03  0.12265116816E+03 -0.22129536143E+02  0.45535028185E+03  0.00000000000E+00 0.  1.
<mgrwt>
<rscale>  0 0.14738013E+04</rscale>
<asrwt>0</asrwt>
<pdfrwt beam="1">  1        1 0.20855729E+00 0.14738013E+04</pdfrwt>
<pdfrwt beam="2">  1       -2 0.61626259E-01 0.14738013E+04</pdfrwt>
<totfact> 0.17183011E+01</totfact>
</mgrwt>
</event>
<event>
12    4  0.4320235E-008  0.2122240E+04  0.7818608E-02  0.8551509E-01
          1   -1    0    0  501    0  0.00000000000E+00  0.00000000000E+00  0.15991965246E+04  0.15991965246E+04  0.00000000000E+00 0. -1.
         -2   -1    0    0    0  501 -0.00000000000E+00 -0.00000000000E+00 -0.70408808577E+03  0.70408808577E+03  0.00000000000E+00 0.  1.
        -24    2    1    2    0    0  0.15200794860E+03  0.71365693353E+03 -0.11381929979E+03  0.74222302592E+03  0.74347508282E+02 0.  0.
        254    2    1    2    0    0 -0.15200794860E+03 -0.71365693353E+03  0.10089277387E+04  0.15610615845E+04  0.94157604767E+03 0.  0.
         23    2    4    4    0    0  0.23566809912E+03 -0.34369661693E+03  0.91472894122E+03  0.10093959638E+04  0.92110577214E+02 0.  0.
         23    2    4    4    0    0 -0.38767604773E+03 -0.36996031660E+03  0.94198797431E+02  0.55166562067E+03  0.91094400248E+02 0.  0.
          3    1    3    3  502    0  0.58119740671E+02  0.34615410858E+03 -0.20454197377E+02  0.35159485965E+03  0.00000000000E+00 0. -1.
         -4    1    3    3    0  502  0.93888207933E+02  0.36750282495E+03 -0.93365102409E+02  0.39062816627E+03  0.00000000000E+00 0.  1.
         11    1    5    5    0    0  0.23281755049E+03 -0.31235636255E+03  0.88085727512E+03  0.96316148603E+03  0.00000000000E+00 0.  1.
        -11    1    5    5    0    0  0.28505486347E+01 -0.31340254379E+02  0.33871666108E+02  0.46234477795E+02  0.00000000000E+00 0. -1.
          1    1    6    6  503    0 -0.33954472828E+03 -0.34073321899E+03  0.10945427897E+03  0.49332543844E+03  0.00000000000E+00 0. -1.
         -1    1    6    6    0  503 -0.48131319445E+02 -0.29227097606E+02 -0.15255481536E+02  0.58340182232E+02  0.00000000000E+00 0.  1.
<mgrwt>
<rscale>  0 0.21222396E+04</rscale>
<asrwt>0</asrwt>
<pdfrwt beam="1">  1        1 0.24603023E+00 0.21222396E+04</pdfrwt>
<pdfrwt beam="2">  1       -2 0.10832124E+00 0.21222396E+04</pdfrwt>
<totfact> 0.30705449E+00</totfact>
</mgrwt>
</event>
<event>
12    4  0.4320235E-008  0.1391763E+04  0.7818608E-02  0.8959803E-01
          1   -1    0    0  501    0  0.00000000000E+00  0.00000000000E+00  0.69540286097E+03  0.69540286097E+03  0.00000000000E+00 0. -1.
         -2   -1    0    0    0  501 -0.00000000000E+00 -0.00000000000E+00 -0.69635998844E+03  0.69635998844E+03  0.00000000000E+00 0.  1.
        -24    2    1    2    0    0  0.11175734689E+03  0.24858085320E+03 -0.29155744642E+03  0.40700025207E+03  0.79757855178E+02 0.  0.
        254    2    1    2    0    0 -0.11175734689E+03 -0.24858085320E+03  0.29060031895E+03  0.98476259733E+03  0.90057019858E+03 0.  0.
         23    2    4    4    0    0 -0.31573964511E+03  0.23482793936E+03  0.17460750365E+03  0.44006062054E+03  0.91268202677E+02 0.  0.
         23    2    4    4    0    0  0.20398229822E+03 -0.48340879255E+03  0.11599281530E+03  0.54470197679E+03  0.89179995591E+02 0.  0.
          3    1    3    3  502    0  0.59310034562E+01 -0.43373604214E+01 -0.83919328698E+00  0.73955218068E+01  0.00000000000E+00 0. -1.
         -4    1    3    3    0  502  0.10582634343E+03  0.25291821362E+03 -0.29071825314E+03  0.39960473027E+03  0.00000000000E+00 0.  1.
         11    1    5    5    0    0 -0.24648300632E+03  0.21387058798E+03  0.16896494600E+03  0.36748286189E+03  0.00000000000E+00 0.  1.
        -11    1    5    5    0    0 -0.69256638795E+02  0.20957351374E+02  0.56425576572E+01  0.72577758650E+02  0.00000000000E+00 0. -1.
          4    1    6    6  503    0  0.32358771846E+02 -0.10056444861E+03 -0.11347920738E+02  0.10625005292E+03  0.00000000000E+00 0. -1.
         -4    1    6    6    0  503  0.17162352638E+03 -0.38284434394E+03  0.12734073604E+03  0.43845192387E+03  0.00000000000E+00 0.  1.
<mgrwt>
<rscale>  0 0.13917625E+04</rscale>
<asrwt>0</asrwt>
<pdfrwt beam="1">  1        1 0.10698506E+00 0.13917625E+04</pdfrwt>
<pdfrwt beam="2">  1       -2 0.10713231E+00 0.13917625E+04</pdfrwt>
<totfact> 0.16464460E+01</totfact>
</mgrwt>
</event>
<event>
12    4  0.4320235E-008  0.1920243E+04  0.7818608E-02  0.8644845E-01
         -2   -1    0    0    0  501 -0.00000000000E+00  0.00000000000E+00  0.11305159275E+04  0.11305159275E+04  0.00000000000E+00 0.  1.
          1   -1    0    0  501    0  0.00000000000E+00 -0.00000000000E+00 -0.81540917664E+03  0.81540917664E+03  0.00000000000E+00 0. -1.
        -24    2    1    2    0    0 -0.40581354191E+03 -0.18797335441E+03  0.70191354282E+03  0.83601304089E+03  0.78845229265E+02 0.  0.
        254    2    1    2    0    0  0.40581354191E+03  0.18797335441E+03 -0.38680679198E+03  0.11099120632E+04  0.93929052004E+03 0.  0.
         23    2    4    4    0    0  0.59551739575E+03 -0.99069754799E+02 -0.38108072327E+02  0.61161516232E+03  0.90360924294E+02 0.  0.
         23    2    4    4    0    0 -0.18970385384E+03  0.28704310921E+03 -0.34869871965E+03  0.49829690092E+03  0.91256263739E+02 0.  0.
          1    1    3    3  502    0 -0.99665870908E+02 -0.59701057483E+02  0.24611288987E+03  0.27215630922E+03  0.00000000000E+00 0. -1.
         -2    1    3    3    0  502 -0.30614767100E+03 -0.12827229693E+03  0.45580065295E+03  0.56385673167E+03  0.00000000000E+00 0.  1.
         11    1    5    5    0    0  0.10082197875E+03 -0.48622212520E+02  0.80102484664E+01  0.11222011865E+03  0.00000000000E+00 0.  1.
        -11    1    5    5    0    0  0.49469541701E+03 -0.50447542279E+02 -0.46118320794E+02  0.49939504367E+03  0.00000000000E+00 0. -1.
          1    1    6    6  503    0 -0.92320446858E+02  0.16776342487E+03 -0.25188186339E+03  0.31640496952E+03  0.00000000000E+00 0. -1.
         -1    1    6    6    0  503 -0.97383406985E+02  0.11927968434E+03 -0.96816856267E+02  0.18189193140E+03  0.00000000000E+00 0.  1.
<mgrwt>
<rscale>  0 0.19202428E+04</rscale>
<asrwt>0</asrwt>
<pdfrwt beam="1">  1        1 0.12544757E+00 0.19202428E+04</pdfrwt>
<pdfrwt beam="2">  1       -2 0.17392553E+00 0.19202428E+04</pdfrwt>
<totfact> 0.35059547E+00</totfact>
</mgrwt>
</event>
<event>
12    4  0.4320235E-008  0.1096440E+04  0.7818608E-02  0.9208669E-01
         -2   -1    0    0    0  501 -0.00000000000E+00  0.00000000000E+00  0.86909723825E+03  0.86909723825E+03  0.00000000000E+00 0.  1.
          1   -1    0    0  501    0  0.00000000000E+00 -0.00000000000E+00 -0.34581313728E+03  0.34581313728E+03  0.00000000000E+00 0. -1.
        -24    2    1    2    0    0 -0.54690360664E+02 -0.14201217180E+03  0.12672320591E+03  0.21482409154E+03  0.83259395274E+02 0.  0.
        254    2    1    2    0    0  0.54690360664E+02  0.14201217180E+03  0.39656089505E+03  0.10000862840E+04  0.90540241850E+03 0.  0.
         23    2    4    4    0    0 -0.13382724447E+03 -0.29623102250E+03 -0.49246811214E+02  0.34076922565E+03  0.89642995722E+02 0.  0.
         23    2    4    4    0    0  0.18851760514E+03  0.43824319430E+03  0.44580770627E+03  0.65931705833E+03  0.91424764891E+02 0.  0.
          3    1    3    3  502    0 -0.72804943637E+01 -0.14494088518E+02 -0.12264429003E+02  0.20334709709E+02  0.00000000000E+00 0. -1.
         -4    1    3    3    0  502 -0.47409866300E+02 -0.12751808328E+03  0.13898763492E+03  0.19448938183E+03  0.00000000000E+00 0.  1.
         11    1    5    5    0    0 -0.13258110577E+03 -0.28435044623E+03 -0.65592687332E+02  0.32052351944E+03  0.00000000000E+00 0. -1.
        -11    1    5    5    0    0 -0.12461386985E+01 -0.11880576269E+02  0.16345876117E+02  0.20245706216E+02  0.00000000000E+00 0.  1.
          1    1    6    6  503    0  0.18295352514E+03  0.33551177165E+03  0.33621253641E+03  0.50899804608E+03  0.00000000000E+00 0. -1.
         -1    1    6    6    0  503  0.55640799995E+01  0.10273142265E+03  0.10959516986E+03  0.15031901225E+03  0.00000000000E+00 0.  1.
<mgrwt>
<rscale>  0 0.10964401E+04</rscale>
<asrwt>0</asrwt>
<pdfrwt beam="1">  1        1 0.53202021E-01 0.10964401E+04</pdfrwt>
<pdfrwt beam="2">  1       -2 0.13370727E+00 0.10964401E+04</pdfrwt>
<totfact> 0.25583129E+01</totfact>
</mgrwt>
</event>
<event>
12    4  0.4320235E-008  0.1616182E+04  0.7818608E-02  0.8810668E-01
          1   -1    0    0  501    0  0.00000000000E+00  0.00000000000E+00  0.12346761890E+04  0.12346761890E+04  0.00000000000E+00 0. -1.
         -2   -1    0    0    0  501 -0.00000000000E+00 -0.00000000000E+00 -0.52889264844E+03  0.52889264844E+03  0.00000000000E+00 0.  1.
        -24    2    1    2    0    0  0.38432255819E+03 -0.37628191238E+03  0.39150243041E+03  0.67002783996E+03  0.79820091373E+02 0.  0.
        254    2    1    2    0    0 -0.38432255819E+03  0.37628191238E+03  0.31428111018E+03  0.10935409975E+04  0.89875880564E+03 0.  0.
         23    2    4    4    0    0  0.20283583584E+03  0.32405322758E+03 -0.46837525759E+02  0.39644572827E+03  0.93928648630E+02 0.  0.
         23    2    4    4    0    0 -0.58715839403E+03  0.52228684800E+02  0.36111863594E+03  0.69709526925E+03  0.89734775798E+02 0.  0.
          3    1    3    3  502    0  0.31127550013E+03 -0.29839564365E+03  0.35036475169E+03  0.55559684696E+03  0.00000000000E+00 0. -1.
         -4    1    3    3    0  502  0.73047058062E+02 -0.77886268727E+02  0.41137678727E+02  0.11443099300E+03  0.00000000000E+00 0.  1.
         11    1    5    5    0    0  0.16848706466E+03  0.18581518784E+03 -0.38434406856E+02  0.25375653414E+03  0.00000000000E+00 0. -1.
        -11    1    5    5    0    0  0.34348771189E+02  0.13823803974E+03 -0.84031189030E+01  0.14268919412E+03  0.00000000000E+00 0.  1.
          3    1    6    6  503    0 -0.40862501521E+02  0.64897083673E+01  0.13855702869E+01  0.41397827845E+02  0.00000000000E+00 0. -1.
         -3    1    6    6    0  503 -0.54629589251E+03  0.45738976433E+02  0.35973306565E+03  0.65569744140E+03  0.00000000000E+00 0.  1.
<mgrwt>
<rscale>  0 0.16161821E+04</rscale>
<asrwt>0</asrwt>
<pdfrwt beam="1">  1        1 0.18995018E+00 0.16161821E+04</pdfrwt>
<pdfrwt beam="2">  1       -2 0.81368100E-01 0.16161821E+04</pdfrwt>
<totfact> 0.11273619E+01</totfact>
</mgrwt>
</event>
<event>
12    4  0.4320235E-008  0.1689779E+04  0.7818608E-02  0.8767215E-01
         -2   -1    0    0    0  501 -0.00000000000E+00  0.00000000000E+00  0.40848605073E+03  0.40848605073E+03  0.00000000000E+00 0.  1.
          1   -1    0    0  501    0  0.00000000000E+00 -0.00000000000E+00 -0.17475213398E+04  0.17475213398E+04  0.00000000000E+00 0. -1.
        -24    2    1    2    0    0 -0.26509637993E+02 -0.59985304654E+03 -0.59314111527E+03  0.84785517178E+03  0.80719089041E+02 0.  0.
        254    2    1    2    0    0  0.26509637993E+02  0.59985304654E+03 -0.74589417375E+03  0.13081522187E+04  0.89127867164E+03 0.  0.
         23    2    4    4    0    0  0.41633315740E+03  0.51086471422E+03 -0.46350391343E+03  0.81079021276E+03  0.90712938195E+02 0.  0.
         23    2    4    4    0    0 -0.38982351941E+03  0.88988332324E+02 -0.28239026032E+03  0.49736200594E+03  0.87996626402E+02 0.  0.
          1    1    3    3  502    0  0.16538961287E+02 -0.22727480856E+03 -0.26510577024E+03  0.34958324511E+03  0.00000000000E+00 0. -1.
         -2    1    3    3    0  502 -0.43048599280E+02 -0.37257823799E+03 -0.32803534503E+03  0.49827192668E+03  0.00000000000E+00 0.  1.
         11    1    5    5    0    0  0.11134525582E+03  0.20486495370E+03 -0.15833322245E+03  0.28184539127E+03  0.00000000000E+00 0. -1.
        -11    1    5    5    0    0  0.30498790158E+03  0.30599976052E+03 -0.30517069098E+03  0.52894482149E+03  0.00000000000E+00 0.  1.
          4    1    6    6  503    0 -0.36274722421E+03  0.10540937613E+03 -0.26086553294E+03  0.45907244692E+03  0.00000000000E+00 0.  1.
         -4    1    6    6    0  503 -0.27076295205E+02 -0.16421043802E+02 -0.21524727379E+02  0.38289559024E+02  0.00000000000E+00 0. -1.
<mgrwt>
<rscale>  0 0.16897788E+04</rscale>
<asrwt>0</asrwt>
<pdfrwt beam="1">  1        1 0.26884944E+00 0.16897788E+04</pdfrwt>
<pdfrwt beam="2">  1       -2 0.62844008E-01 0.16897788E+04</pdfrwt>
<totfact> 0.86792659E+00</totfact>
</mgrwt>
</event>
<event>
12    4  0.4320235E-008  0.1372698E+04  0.7818608E-02  0.8973821E-01
         -2   -1    0    0    0  501 -0.00000000000E+00  0.00000000000E+00  0.48560442629E+03  0.48560442629E+03  0.00000000000E+00 0.  1.
          1   -1    0    0  501    0  0.00000000000E+00 -0.00000000000E+00 -0.97008021577E+03  0.97008021577E+03  0.00000000000E+00 0. -1.
        -24    2    1    2    0    0 -0.25774660360E+03  0.27177553188E+03 -0.19208208913E+03  0.42847578579E+03  0.80004491433E+02 0.  0.
        254    2    1    2    0    0  0.25774660360E+03 -0.27177553188E+03 -0.29239370035E+03  0.10272088563E+04  0.91069682497E+03 0.  0.
         23    2    4    4    0    0  0.16865097299E+02  0.90324405957E+02 -0.51561620398E+03  0.53191606774E+03  0.92906961540E+02 0.  0.
         23    2    4    4    0    0  0.24088150630E+03 -0.36209993784E+03  0.22322250363E+03  0.49529278853E+03  0.79664265441E+02 0.  0.
          1    1    3    3  502    0 -0.99457935095E+02  0.97466736356E+02 -0.11537955903E+03  0.18084271672E+03  0.00000000000E+00 0. -1.
         -2    1    3    3    0  502 -0.15828866850E+03  0.17430879552E+03 -0.76702530104E+02  0.24763306907E+03  0.00000000000E+00 0.  1.
         11    1    5    5    0    0 -0.10675976593E+02 -0.17385207757E+01 -0.42861253240E+01  0.11634852857E+02  0.00000000000E+00 0.  1.
        -11    1    5    5    0    0  0.27541073892E+02  0.92062926733E+02 -0.51133007865E+03  0.52028121489E+03  0.00000000000E+00 0. -1.
          1    1    6    6  503    0  0.24613548381E+03 -0.34772383472E+03  0.20954936775E+03  0.47476886918E+03  0.00000000000E+00 0. -1.
         -1    1    6    6    0  503 -0.52539775156E+01 -0.14376103121E+02  0.13673135878E+02  0.20523919349E+02  0.00000000000E+00 0.  1.
<mgrwt>
<rscale>  0 0.13726984E+04</rscale>
<asrwt>0</asrwt>
<pdfrwt beam="1">  1        1 0.14924311E+00 0.13726984E+04</pdfrwt>
<pdfrwt beam="2">  1       -2 0.74708374E-01 0.13726984E+04</pdfrwt>
<totfact> 0.22041330E+01</totfact>
</mgrwt>
</event>
<event>
12    4  0.4320235E-008  0.1264865E+04  0.7818608E-02  0.9057901E-01
          1   -1    0    0  501    0  0.00000000000E+00  0.00000000000E+00  0.82848916948E+03  0.82848916948E+03  0.00000000000E+00 0. -1.
         -2   -1    0    0    0  501 -0.00000000000E+00 -0.00000000000E+00 -0.48277135308E+03  0.48277135308E+03  0.00000000000E+00 0.  1.
        -24    2    1    2    0    0 -0.10052362503E+03  0.78848316545E+02 -0.20407842307E+03  0.25375767937E+03  0.80143002575E+02 0.  0.
        254    2    1    2    0    0  0.10052362503E+03 -0.78848316545E+02  0.54979623947E+03  0.10575028432E+04  0.89426746682E+03 0.  0.
         23    2    4    4    0    0  0.44173844043E+03  0.11509432537E+03  0.43834455072E+03  0.63942854170E+03  0.91342001839E+02 0.  0.
         23    2    4    4    0    0 -0.34121481540E+03 -0.19394264191E+03  0.11145168875E+03  0.41807430150E+03  0.91232362933E+02 0.  0.
          1    1    3    3  502    0 -0.70956880490E+02  0.22628772624E+02 -0.57774128373E+02  0.94259164799E+02  0.00000000000E+00 0. -1.
         -2    1    3    3    0  502 -0.29566744543E+02  0.56219543921E+02 -0.14630429470E+03  0.15949851457E+03  0.00000000000E+00 0.  1.
         11    1    5    5    0    0  0.21331731639E+03  0.12654088203E+02  0.17638727885E+03  0.27708640450E+03  0.00000000000E+00 0.  1.
        -11    1    5    5    0    0  0.22842112404E+03  0.10244023716E+03  0.26195727187E+03  0.36234213719E+03  0.00000000000E+00 0. -1.
          1    1    6    6  503    0 -0.25863618474E+03 -0.18704830037E+03  0.77069948519E+02  0.32835882764E+03  0.00000000000E+00 0. -1.
         -1    1    6    6    0  503 -0.82578630665E+02 -0.68943415430E+01  0.34381740228E+02  0.89715473854E+02  0.00000000000E+00 0.  1.
<mgrwt>
<rscale>  0 0.12648650E+04</rscale>
<asrwt>0</asrwt>
<pdfrwt beam="1">  1        1 0.12745987E+00 0.12648650E+04</pdfrwt>
<pdfrwt beam="2">  1       -2 0.74272516E-01 0.12648650E+04</pdfrwt>
<totfact> 0.29426371E+01</totfact>
</mgrwt>
</event>
<event>
12    4  0.4320235E-008  0.1895519E+04  0.7818608E-02  0.8657090E-01
          1   -1    0    0  501    0  0.00000000000E+00  0.00000000000E+00  0.60800138681E+03  0.60800138681E+03  0.00000000000E+00 0. -1.
         -2   -1    0    0    0  501 -0.00000000000E+00 -0.00000000000E+00 -0.14773778817E+04  0.14773778817E+04  0.00000000000E+00 0.  1.
        -24    2    1    2    0    0  0.64695301413E+02 -0.32381149534E+03  0.37931499027E+03  0.50927831309E+03  0.80281827339E+02 0.  0.
        254    2    1    2    0    0 -0.64695301413E+02  0.32381149534E+03 -0.12486914852E+04  0.15761009555E+04  0.90322999843E+03 0.  0.
         23    2    4    4    0    0 -0.24185167220E+03  0.56899641723E+03 -0.97565281458E+03  0.11585909078E+04  0.90472773961E+02 0.  0.
         23    2    4    4    0    0  0.17715637079E+03 -0.24518492190E+03 -0.27303867062E+03  0.41751004768E+03  0.90909287892E+02 0.  0.
          1    1    3    3  502    0  0.81759871619E+02 -0.23261247200E+03  0.26322540096E+03  0.36066722952E+03  0.00000000000E+00 0. -1.
         -2    1    3    3    0  502 -0.17064570206E+02 -0.91199023339E+02  0.11608958931E+03  0.14861108357E+03  0.00000000000E+00 0.  1.
         11    1    5    5    0    0 -0.87839210597E+00  0.68966493275E+02 -0.12734268886E+03  0.14482164608E+03  0.00000000000E+00 0. -1.
        -11    1    5    5    0    0 -0.24097328009E+03  0.50002992396E+03 -0.84831012572E+03  0.10137692617E+04  0.00000000000E+00 0.  1.
          3    1    6    6  503    0  0.12253297578E+03 -0.18597947587E+03 -0.24761184806E+03  0.33303802020E+03  0.00000000000E+00 0. -1.
         -3    1    6    6    0  503  0.54623395010E+02 -0.59205446024E+02 -0.25426822559E+02  0.84472027481E+02  0.00000000000E+00 0.  1.
<mgrwt>
<rscale>  0 0.18955187E+04</rscale>
<asrwt>0</asrwt>
<pdfrwt beam="1">  1        1 0.93538676E-01 0.18955187E+04</pdfrwt>
<pdfrwt beam="2">  1       -2 0.22728890E+00 0.18955187E+04</pdfrwt>
<totfact> 0.24466526E+00</totfact>
</mgrwt>
</event>
<event>
12    4  0.4320235E-008  0.1830221E+04  0.7818608E-02  0.8690392E-01
          1   -1    0    0  501    0  0.00000000000E+00  0.00000000000E+00  0.74333959202E+03  0.74333959202E+03  0.00000000000E+00 0. -1.
         -2   -1    0    0    0  501 -0.00000000000E+00 -0.00000000000E+00 -0.11265736502E+04  0.11265736502E+04  0.00000000000E+00 0.  1.
        -24    2    1    2    0    0  0.13395616988E+03 -0.34347422210E+02  0.54680216742E+03  0.56871914811E+03  0.72971626482E+02 0.  0.
        254    2    1    2    0    0 -0.13395616988E+03  0.34347422210E+02 -0.93003622560E+03  0.13011940941E+04  0.89945243830E+03 0.  0.
         23    2    4    4    0    0  0.28710271086E+03  0.12123929942E+03 -0.76690913117E+03  0.83259781840E+03  0.89121138968E+02 0.  0.
         23    2    4    4    0    0 -0.42105888074E+03 -0.86891877215E+02 -0.16312709443E+03  0.46859627572E+03  0.90173395760E+02 0.  0.
          3    1    3    3  502    0  0.70775125035E+02 -0.35881046192E+02  0.18292527278E+03  0.19939464191E+03  0.00000000000E+00 0. -1.
         -4    1    3    3    0  502  0.63181044848E+02  0.15336239819E+01  0.36387689464E+03  0.36932450620E+03  0.00000000000E+00 0.  1.
         11    1    5    5    0    0  0.27993664093E+03  0.10822125855E+03 -0.66472990947E+03  0.72934368873E+03  0.00000000000E+00 0. -1.
        -11    1    5    5    0    0  0.71660699329E+01  0.13018040875E+02 -0.10217922170E+03  0.10325412967E+03  0.00000000000E+00 0.  1.
          3    1    6    6  503    0 -0.20484910855E+03 -0.84974662803E+01 -0.10953776793E+03  0.23245190214E+03  0.00000000000E+00 0. -1.
         -3    1    6    6    0  503 -0.21620977219E+03 -0.78394410935E+02 -0.53589326503E+02  0.23614437358E+03  0.00000000000E+00 0.  1.
<mgrwt>
<rscale>  0 0.18302205E+04</rscale>
<asrwt>0</asrwt>
<pdfrwt beam="1">  1        1 0.11435994E+00 0.18302205E+04</pdfrwt>
<pdfrwt beam="2">  1       -2 0.17331902E+00 0.18302205E+04</pdfrwt>
<totfact> 0.41314960E+00</totfact>
</mgrwt>
</event>
<event>
12    4  0.4320235E-008  0.1191392E+04  0.7818608E-02  0.9120425E-01
         -2   -1    0    0    0  501 -0.00000000000E+00  0.00000000000E+00  0.21693231420E+03  0.21693231420E+03  0.00000000000E+00 0.  1.
          1   -1    0    0  501    0  0.00000000000E+00 -0.00000000000E+00 -0.16357806007E+04  0.16357806007E+04  0.00000000000E+00 0. -1.
        -24    2    1    2    0    0  0.33206822410E+02 -0.36993355015E+02  0.64030632364E+02  0.11441564541E+03  0.80745381680E+02 0.  0.
        254    2    1    2    0    0 -0.33206822410E+02  0.36993355015E+02 -0.14828789189E+04  0.17382972695E+04  0.90569106640E+03 0.  0.
         23    2    4    4    0    0  0.33626225211E+03 -0.20346926840E+03 -0.41489520066E+03  0.57938542791E+03  0.95275396451E+02 0.  0.
         23    2    4    4    0    0 -0.36946907452E+03  0.24046262342E+03 -0.10679837182E+04  0.11589118416E+04  0.90320340617E+02 0.  0.
          3    1    3    3  502    0  0.25167221579E+01  0.20221001417E+02 -0.35686714830E+01  0.20687150719E+02  0.00000000000E+00 0. -1.
         -2    1    3    3    0  502  0.30690100252E+02 -0.57214356432E+02  0.67599303847E+02  0.93728494686E+02  0.00000000000E+00 0.  1.
         11    1    5    5    0    0  0.24646586959E+03 -0.98706454408E+02 -0.25401948498E+03  0.36744290409E+03  0.00000000000E+00 0.  1.
        -11    1    5    5    0    0  0.89796382515E+02 -0.10476281399E+03 -0.16087571568E+03  0.21194252382E+03  0.00000000000E+00 0. -1.
          4    1    6    6  503    0 -0.36054612974E+03  0.21894442779E+03 -0.10412871848E+04  0.11234808300E+04  0.00000000000E+00 0.  1.
         -4    1    6    6    0  503 -0.89229447719E+01  0.21518195630E+02 -0.26696533408E+02  0.35431011594E+02  0.00000000000E+00 0. -1.
<mgrwt>
<rscale>  0 0.11913919E+04</rscale>
<asrwt>0</asrwt>
<pdfrwt beam="1">  1        1 0.25165855E+00 0.11913919E+04</pdfrwt>
<pdfrwt beam="2">  1       -2 0.33374203E-01 0.11913919E+04</pdfrwt>
<totfact> 0.38454197E+01</totfact>
</mgrwt>
</event>
<event>
12    4  0.4320235E-008  0.3813150E+04  0.7818608E-02  0.8043339E-01
         -2   -1    0    0    0  501 -0.00000000000E+00  0.00000000000E+00  0.17859946161E+04  0.17859946161E+04  0.00000000000E+00 0.  1.
          1   -1    0    0  501    0  0.00000000000E+00 -0.00000000000E+00 -0.20352960716E+04  0.20352960716E+04  0.00000000000E+00 0. -1.
        -24    2    1    2    0    0 -0.38470635977E+03 -0.14561972436E+04 -0.11033302237E+04  0.18685715278E+04  0.75581586687E+02 0.  0.
        254    2    1    2    0    0  0.38470635977E+03  0.14561972436E+04  0.85402876827E+03  0.19527191599E+04  0.90290508068E+03 0.  0.
         23    2    4    4    0    0  0.21766447754E+03  0.12434451654E+04  0.25773326440E+03  0.12918882701E+04  0.94948211122E+02 0.  0.
         23    2    4    4    0    0  0.16704188224E+03  0.21275207825E+03  0.59629550387E+03  0.66083088976E+03  0.89233960524E+02 0.  0.
          1    1    3    3  502    0 -0.32895805717E+02 -0.62451727539E+02 -0.50679414995E+02  0.86895082776E+02  0.00000000000E+00 0. -1.
         -2    1    3    3    0  502 -0.35181055406E+03 -0.13937455161E+04 -0.10526508087E+04  0.17816764450E+04  0.00000000000E+00 0.  1.
         11    1    5    5    0    0  0.32538113387E+02  0.64878483297E+02  0.21596747432E+02  0.75725596184E+02  0.00000000000E+00 0.  1.
        -11    1    5    5    0    0  0.18512636415E+03  0.11785666821E+04  0.23613651697E+03  0.12161626739E+04  0.00000000000E+00 0. -1.
          4    1    6    6  503    0  0.13278936790E+03  0.11223721165E+03  0.42631036197E+03  0.46040279390E+03  0.00000000000E+00 0. -1.
         -4    1    6    6    0  503  0.34252514340E+02  0.10051486660E+03  0.16998514190E+03  0.20042809587E+03  0.00000000000E+00 0.  1.
<mgrwt>
<rscale>  0 0.38131498E+04</rscale>
<asrwt>0</asrwt>
<pdfrwt beam="1">  1        1 0.31312247E+00 0.38131498E+04</pdfrwt>
<pdfrwt beam="2">  1       -2 0.27476840E+00 0.38131498E+04</pdfrwt>
<totfact> 0.89313530E-02</totfact>
</mgrwt>
</event>
<event>
12    4  0.4320235E-008  0.2305108E+04  0.7818608E-02  0.8475910E-01
          1   -1    0    0  501    0  0.00000000000E+00  0.00000000000E+00  0.17985316644E+04  0.17985316644E+04  0.00000000000E+00 0. -1.
         -2   -1    0    0    0  501 -0.00000000000E+00 -0.00000000000E+00 -0.73859153948E+03  0.73859153948E+03  0.00000000000E+00 0.  1.
        -24    2    1    2    0    0 -0.91975433596E+02  0.31634135182E+03 -0.56044219975E+03  0.65492918431E+03  0.79406838110E+02 0.  0.
        254    2    1    2    0    0  0.91975433596E+02 -0.31634135182E+03  0.16203823246E+04  0.18821940195E+04  0.89915744892E+03 0.  0.
         23    2    4    4    0    0  0.88013697996E+02 -0.12834803125E+02 -0.82180045524E+02  0.15025325446E+03  0.88945699091E+02 0.  0.
         23    2    4    4    0    0  0.39617356003E+01 -0.30350654869E+03  0.17025623701E+04  0.17319407651E+04  0.93639035808E+02 0.  0.
          1    1    3    3  502    0 -0.72635130139E+02  0.24477740183E+03 -0.49067456040E+03  0.55313051155E+03  0.00000000000E+00 0. -1.
         -2    1    3    3    0  502 -0.19340303457E+02  0.71563949984E+02 -0.69767639351E+02  0.10179867276E+03  0.00000000000E+00 0.  1.
         11    1    5    5    0    0 -0.13811732784E+02  0.13838959658E+02 -0.20139594866E+02  0.28069272315E+02  0.00000000000E+00 0. -1.
        -11    1    5    5    0    0  0.10182543078E+03 -0.26673762783E+02 -0.62040450658E+02  0.12218398214E+03  0.00000000000E+00 0.  1.
          2    1    6    6  503    0  0.35914278941E+02 -0.49574287317E+02  0.29200938174E+03  0.29835704184E+03  0.00000000000E+00 0. -1.
         -2    1    6    6    0  503 -0.31952543340E+02 -0.25393226137E+03  0.14105529884E+04  0.14335837232E+04  0.00000000000E+00 0.  1.
<mgrwt>
<rscale>  0 0.23051076E+04</rscale>
<asrwt>0</asrwt>
<pdfrwt beam="1">  1        1 0.27669718E+00 0.23051076E+04</pdfrwt>
<pdfrwt beam="2">  1       -2 0.11362947E+00 0.23051076E+04</pdfrwt>
<totfact> 0.19675095E+00</totfact>
</mgrwt>
</event>
<event>
12    4  0.4320235E-008  0.1141807E+04  0.7818608E-02  0.9165375E-01
         -2   -1    0    0    0  501 -0.00000000000E+00  0.00000000000E+00  0.34232803077E+03  0.34232803077E+03  0.00000000000E+00 0.  1.
          1   -1    0    0  501    0  0.00000000000E+00 -0.00000000000E+00 -0.95210118077E+03  0.95210118077E+03  0.00000000000E+00 0. -1.
        -24    2    1    2    0    0 -0.13442330119E+02 -0.15805975942E+03  0.62421494963E+02  0.18842372583E+03  0.80271250363E+02 0.  0.
        254    2    1    2    0    0  0.13442330119E+02  0.15805975942E+03 -0.67219464496E+03  0.11060054857E+04  0.86385120821E+03 0.  0.
         23    2    4    4    0    0 -0.40135833855E+03  0.68024004037E+02 -0.19422417003E+03  0.45972988548E+03  0.88953686445E+02 0.  0.
         23    2    4    4    0    0  0.41480066866E+03  0.90035755380E+02 -0.47797047493E+03  0.64627560024E+03  0.95133299030E+02 0.  0.
          1    1    3    3  502    0  0.22385711701E+02 -0.21456418387E+02 -0.58636897060E+01  0.31557579681E+02  0.00000000000E+00 0. -1.
         -2    1    3    3    0  502 -0.35828041820E+02 -0.13660334103E+03  0.68285184669E+02  0.15686614614E+03  0.00000000000E+00 0.  1.
         11    1    5    5    0    0 -0.30421717653E+03  0.41188502325E+02 -0.10304653270E+03  0.32382583454E+03  0.00000000000E+00 0. -1.
        -11    1    5    5    0    0 -0.97141162021E+02  0.26835501712E+02 -0.91177637332E+02  0.13590405093E+03  0.00000000000E+00 0.  1.
          4    1    6    6  503    0  0.38943786279E+03  0.94989924200E+02 -0.47291012731E+03  0.61994267734E+03  0.00000000000E+00 0. -1.
         -4    1    6    6    0  503  0.25362805871E+02 -0.49541688204E+01 -0.50603476270E+01  0.26332922900E+02  0.00000000000E+00 0.  1.
<mgrwt>
<rscale>  0 0.11418072E+04</rscale>
<asrwt>0</asrwt>
<pdfrwt beam="1">  1        1 0.14647710E+00 0.11418072E+04</pdfrwt>
<pdfrwt beam="2">  1       -2 0.52665852E-01 0.11418072E+04</pdfrwt>
<totfact> 0.48916554E+01</totfact>
</mgrwt>
</event>
<event>
12    4  0.4320235E-008  0.1475932E+04  0.7818608E-02  0.8900618E-01
          1   -1    0    0  501    0  0.00000000000E+00  0.00000000000E+00  0.45146272809E+03  0.45146272809E+03  0.00000000000E+00 0. -1.
         -2   -1    0    0    0  501 -0.00000000000E+00 -0.00000000000E+00 -0.12062868906E+04  0.12062868906E+04  0.00000000000E+00 0.  1.
        -24    2    1    2    0    0 -0.18029779630E+03  0.13106758077E+03  0.20288310841E+03  0.31179526857E+03  0.79804309048E+02 0.  0.
        254    2    1    2    0    0  0.18029779630E+03 -0.13106758077E+03 -0.95770727091E+03  0.13459543501E+04  0.91907773870E+03 0.  0.
         23    2    4    4    0    0 -0.16671541008E+03  0.31748461545E+03 -0.40964121006E+03  0.55204868169E+03  0.91440237135E+02 0.  0.
         23    2    4    4    0    0  0.34701320638E+03 -0.44855219622E+03 -0.54806606085E+03  0.79390566843E+03  0.91063522718E+02 0.  0.
          1    1    3    3  502    0 -0.30971028568E+02  0.35952148439E+01  0.64350056906E+02  0.71505664140E+02  0.00000000000E+00 0. -1.
         -2    1    3    3    0  502 -0.14932676773E+03  0.12747236593E+03  0.13853305150E+03  0.24028960443E+03  0.00000000000E+00 0.  1.
         11    1    5    5    0    0 -0.37561494015E+02  0.16619427210E+03 -0.17139549883E+03  0.24167709641E+03  0.00000000000E+00 0. -1.
        -11    1    5    5    0    0 -0.12915391607E+03  0.15129034335E+03 -0.23824571123E+03  0.31037158528E+03  0.00000000000E+00 0.  1.
          3    1    6    6  503    0  0.14915967472E+03 -0.26689275775E+03 -0.28758621398E+03  0.41974537898E+03  0.00000000000E+00 0. -1.
         -3    1    6    6    0  503  0.19785353166E+03 -0.18165943847E+03 -0.26047984687E+03  0.37416028945E+03  0.00000000000E+00 0.  1.
<mgrwt>
<rscale>  0 0.14759317E+04</rscale>
<asrwt>0</asrwt>
<pdfrwt beam="1">  1        1 0.69455805E-01 0.14759317E+04</pdfrwt>
<pdfrwt beam="2">  1       -2 0.18558260E+00 0.14759317E+04</pdfrwt>
<totfact> 0.71648339E+00</totfact>
</mgrwt>
</event>
<event>
12    4  0.4320235E-008  0.1707912E+04  0.7818608E-02  0.8756865E-01
          3   -1    0    0  501    0  0.00000000000E+00  0.00000000000E+00  0.73491656665E+03  0.73491656665E+03  0.00000000000E+00 0. -1.
         -4   -1    0    0    0  501 -0.00000000000E+00 -0.00000000000E+00 -0.99227693599E+03  0.99227693599E+03  0.00000000000E+00 0.  1.
        -24    2    1    2    0    0 -0.10913800668E+03  0.43913355620E+03  0.32180729388E+03  0.56099869942E+03  0.80063859923E+02 0.  0.
        254    2    1    2    0    0  0.10913800668E+03 -0.43913355620E+03 -0.57916766322E+03  0.11661948032E+04  0.90544229648E+03 0.  0.
         23    2    4    4    0    0  0.23365137780E+03 -0.53987572335E+03 -0.41460689802E+02  0.59769045425E+03  0.97242620770E+02 0.  0.
         23    2    4    4    0    0 -0.12451337111E+03  0.10074216714E+03 -0.53770697342E+03  0.56850434897E+03  0.91737896800E+02 0.  0.
          3    1    3    3  502    0 -0.10640556673E+03  0.43750525744E+03  0.32589138189E+03  0.55582208278E+03  0.00000000000E+00 0. -1.
         -4    1    3    3    0  502 -0.27324399498E+01  0.16282987694E+01 -0.40840880084E+01  0.51766166385E+01  0.00000000000E+00 0.  1.
         11    1    5    5    0    0  0.95586703552E+02 -0.11535282042E+03 -0.13057636081E+02  0.15037816641E+03  0.00000000000E+00 0.  1.
        -11    1    5    5    0    0  0.13806467425E+03 -0.42452290293E+03 -0.28403053722E+02  0.44731228783E+03  0.00000000000E+00 0. -1.
          1    1    6    6  503    0 -0.42760065538E+02  0.93022518885E+02 -0.29005998248E+03  0.30759779853E+03  0.00000000000E+00 0. -1.
         -1    1    6    6    0  503 -0.81753305576E+02  0.77196482572E+01 -0.24764699094E+03  0.26090655045E+03  0.00000000000E+00 0.  1.
<mgrwt>
<rscale>  0 0.17079119E+04</rscale>
<asrwt>0</asrwt>
<pdfrwt beam="1">  1        3 0.11306409E+00 0.17079119E+04</pdfrwt>
<pdfrwt beam="2">  1       -4 0.15265799E+00 0.17079119E+04</pdfrwt>
<totfact> 0.40444191E-01</totfact>
</mgrwt>
</event>
<event>
12    4  0.4320235E-008  0.1076675E+04  0.7818608E-02  0.9228229E-01
         -2   -1    0    0    0  501 -0.00000000000E+00  0.00000000000E+00  0.17195079352E+03  0.17195079352E+03  0.00000000000E+00 0.  1.
          1   -1    0    0  501    0  0.00000000000E+00 -0.00000000000E+00 -0.16854067456E+04  0.16854067456E+04  0.00000000000E+00 0. -1.
        -24    2    1    2    0    0 -0.44742638612E+02  0.10335965688E+03 -0.91705247791E+02  0.16498032071E+03  0.78252995912E+02 0.  0.
        254    2    1    2    0    0  0.44742638612E+02 -0.10335965688E+03 -0.14217507043E+04  0.16923772185E+04  0.91108751605E+03 0.  0.
         23    2    4    4    0    0 -0.34534249750E+03 -0.24350540734E+03 -0.10231327215E+04  0.11103872269E+04  0.87194632783E+02 0.  0.
         23    2    4    4    0    0  0.39008513611E+03  0.14014575046E+03 -0.39861798284E+03  0.58198999151E+03  0.89491950445E+02 0.  0.
          3    1    3    3  502    0 -0.28840939258E+02  0.58399340132E+02 -0.41318274071E+01  0.65263731910E+02  0.00000000000E+00 0. -1.
         -4    1    3    3    0  502 -0.15901699355E+02  0.44960316748E+02 -0.87573420384E+02  0.99716588801E+02  0.00000000000E+00 0.  1.
         11    1    5    5    0    0 -0.33656633952E+03 -0.23866715907E+03 -0.93888662273E+03  0.10255471730E+04  0.00000000000E+00 0. -1.
        -11    1    5    5    0    0 -0.87761579740E+01 -0.48382482662E+01 -0.84246098764E+02  0.84840053937E+02  0.00000000000E+00 0.  1.
          3    1    6    6  503    0  0.17609831948E+03  0.58826275099E+02 -0.24025501399E+03  0.30363402397E+03  0.00000000000E+00 0. -1.
         -3    1    6    6    0  503  0.21398681663E+03  0.81319475362E+02 -0.15836296885E+03  0.27835596754E+03  0.00000000000E+00 0.  1.
<mgrwt>
<rscale>  0 0.10766746E+04</rscale>
<asrwt>0</asrwt>
<pdfrwt beam="1">  1        1 0.25929334E+00 0.10766746E+04</pdfrwt>
<pdfrwt beam="2">  1       -2 0.26453969E-01 0.10766746E+04</pdfrwt>
<totfact> 0.55318918E+01</totfact>
</mgrwt>
</event>
<event>
12    4  0.4320235E-008  0.1433591E+04  0.7818608E-02  0.8929856E-01
          1   -1    0    0  501    0  0.00000000000E+00  0.00000000000E+00  0.98707017419E+03  0.98707017419E+03  0.00000000000E+00 0. -1.
         -2   -1    0    0    0  501 -0.00000000000E+00 -0.00000000000E+00 -0.52052629730E+03  0.52052629730E+03  0.00000000000E+00 0.  1.
        -24    2    1    2    0    0  0.13134314207E+02  0.10959851181E+03  0.58144384571E+03  0.59718182092E+03  0.79779931812E+02 0.  0.
        254    2    1    2    0    0 -0.13134314207E+02 -0.10959851181E+03 -0.11489996883E+03  0.91041465057E+03  0.89636403829E+03 0.  0.
         23    2    4    4    0    0  0.12451534814E+03  0.27303251505E+03 -0.31805978449E+03  0.44665270260E+03  0.91026282049E+02 0.  0.
         23    2    4    4    0    0 -0.13764966235E+03 -0.38263102686E+03  0.20315981566E+03  0.46376194797E+03  0.91909202070E+02 0.  0.
          1    1    3    3  502    0  0.53791081222E+01  0.55656141849E+02  0.46798409333E+03  0.47131269083E+03  0.00000000000E+00 0. -1.
         -2    1    3    3    0  502  0.77552060850E+01  0.53942369960E+02  0.11345975238E+03  0.12586913009E+03  0.00000000000E+00 0.  1.
         11    1    5    5    0    0  0.12619487416E+03  0.18921180177E+03 -0.25539467478E+03  0.34198346758E+03  0.00000000000E+00 0. -1.
        -11    1    5    5    0    0 -0.16795260154E+01  0.83820713282E+02 -0.62665109715E+02  0.10466923501E+03  0.00000000000E+00 0.  1.
          4    1    6    6  503    0 -0.27258562531E+02 -0.13612366788E+03  0.11304137019E+03  0.17902802451E+03  0.00000000000E+00 0. -1.
         -4    1    6    6    0  503 -0.11039109982E+03 -0.24650735899E+03  0.90118445473E+02  0.28473392346E+03  0.00000000000E+00 0.  1.
<mgrwt>
<rscale>  0 0.14335913E+04</rscale>
<asrwt>0</asrwt>
<pdfrwt beam="1">  1        1 0.15185695E+00 0.14335913E+04</pdfrwt>
<pdfrwt beam="2">  1       -2 0.80080969E-01 0.14335913E+04</pdfrwt>
<totfact> 0.18212249E+01</totfact>
</mgrwt>
</event>
<event>
12    4  0.4320235E-008  0.1103732E+04  0.7818608E-02  0.9201562E-01
         -2   -1    0    0    0  501 -0.00000000000E+00  0.00000000000E+00  0.35000149883E+03  0.35000149883E+03  0.00000000000E+00 0.  1.
          1   -1    0    0  501    0  0.00000000000E+00 -0.00000000000E+00 -0.87015642684E+03  0.87015642684E+03  0.00000000000E+00 0. -1.
        -24    2    1    2    0    0  0.13545111933E+03  0.64285237689E+02 -0.44829443622E+02  0.17569142076E+03  0.79863626272E+02 0.  0.
        254    2    1    2    0    0 -0.13545111933E+03 -0.64285237689E+02 -0.47532548439E+03  0.10444665049E+04  0.91787600810E+03 0.  0.
         23    2    4    4    0    0 -0.43927014715E+02  0.20908817933E+02  0.26720027093E+03  0.28614692374E+03  0.90096148038E+02 0.  0.
         23    2    4    4    0    0 -0.91524104612E+02 -0.85194055622E+02 -0.74252575532E+03  0.75831958116E+03  0.89829844843E+02 0.  0.
          3    1    3    3  502    0 -0.15498472885E+01 -0.79609384061E+01 -0.16294958944E+02  0.18201765131E+02  0.00000000000E+00 0. -1.
         -4    1    3    3    0  502  0.13700096662E+03  0.72246176095E+02 -0.28534484678E+02  0.15748965563E+03  0.00000000000E+00 0.  1.
         11    1    5    5    0    0  0.12852362595E+02  0.27054463320E+02  0.30864875694E+02  0.43008926532E+02  0.00000000000E+00 0. -1.
        -11    1    5    5    0    0 -0.56779377310E+02 -0.61456453867E+01  0.23633539524E+03  0.24313799721E+03  0.00000000000E+00 0.  1.
          1    1    6    6  503    0 -0.33568099005E+02 -0.43371999349E+02 -0.12285692567E+03  0.13454282509E+03  0.00000000000E+00 0. -1.
         -1    1    6    6    0  503 -0.57956005607E+02 -0.41822056273E+02 -0.61966882965E+03  0.62377675608E+03  0.00000000000E+00 0.  1.
<mgrwt>
<rscale>  0 0.11037319E+04</rscale>
<asrwt>0</asrwt>
<pdfrwt beam="1">  1        1 0.13387022E+00 0.11037319E+04</pdfrwt>
<pdfrwt beam="2">  1       -2 0.53846385E-01 0.11037319E+04</pdfrwt>
<totfact> 0.54639955E+01</totfact>
</mgrwt>
</event>
<event>
12    4  0.4320235E-008  0.1390437E+04  0.7818608E-02  0.8960770E-01
         -2   -1    0    0    0  501 -0.00000000000E+00  0.00000000000E+00  0.85502066102E+03  0.85502066102E+03  0.00000000000E+00 0.  1.
          1   -1    0    0  501    0  0.00000000000E+00 -0.00000000000E+00 -0.56528294611E+03  0.56528294611E+03  0.00000000000E+00 0. -1.
        -24    2    1    2    0    0 -0.16062602332E+03 -0.20842935348E+03  0.38587893811E+03  0.47356813794E+03  0.78234977050E+02 0.  0.
        254    2    1    2    0    0  0.16062602332E+03  0.20842935348E+03 -0.96141223203E+02  0.94673546919E+03  0.90433478263E+03 0.  0.
         23    2    4    4    0    0 -0.65856682615E+02  0.21927602297E+03  0.35516432161E+03  0.43237026656E+03  0.91560226979E+02 0.  0.
         23    2    4    4    0    0  0.22648270593E+03 -0.10846669489E+02 -0.45130554482E+03  0.51436520263E+03  0.97379672245E+02 0.  0.
          3    1    3    3  502    0 -0.35870705380E+02 -0.62418318004E+02  0.53497461641E+02  0.89692431837E+02  0.00000000000E+00 0. -1.
         -4    1    3    3    0  502 -0.12475531794E+03 -0.14601103548E+03  0.33238147647E+03  0.38387570610E+03  0.00000000000E+00 0.  1.
         11    1    5    5    0    0  0.21501578305E+02  0.36831932568E+02  0.82432648813E+02  0.92811910424E+02  0.00000000000E+00 0.  1.
        -11    1    5    5    0    0 -0.87358260920E+02  0.18244409041E+03  0.27273167280E+03  0.33955835614E+03  0.00000000000E+00 0. -1.
          4    1    6    6  503    0  0.58577220674E+02 -0.33030324415E+02 -0.69639666652E+02  0.96808967995E+02  0.00000000000E+00 0. -1.
         -4    1    6    6    0  503  0.16790548526E+03  0.22183654926E+02 -0.38166587817E+03  0.41755623463E+03  0.00000000000E+00 0.  1.
<mgrwt>
<rscale>  0 0.13904368E+04</rscale>
<asrwt>0</asrwt>
<pdfrwt beam="1">  1        1 0.86966608E-01 0.13904368E+04</pdfrwt>
<pdfrwt beam="2">  1       -2 0.13154164E+00 0.13904368E+04</pdfrwt>
<totfact> 0.13419096E+01</totfact>
</mgrwt>
</event>
<event>
12    4  0.4320235E-008  0.1284885E+04  0.7818608E-02  0.9041638E-01
         -2   -1    0    0    0  501 -0.00000000000E+00  0.00000000000E+00  0.21009271042E+03  0.21009271042E+03  0.00000000000E+00 0.  1.
          1   -1    0    0  501    0  0.00000000000E+00 -0.00000000000E+00 -0.19645247706E+04  0.19645247706E+04  0.00000000000E+00 0. -1.
        -24    2    1    2    0    0  0.16622118055E+03 -0.12778518610E+03 -0.88605801867E+03  0.91418927426E+03  0.81759905073E+02 0.  0.
        254    2    1    2    0    0 -0.16622118055E+03  0.12778518610E+03 -0.86837404153E+03  0.12604282068E+04  0.88918347588E+03 0.  0.
         23    2    4    4    0    0 -0.23956169771E+03 -0.24195660811E+03 -0.78851880340E+03  0.86313789623E+03  0.85512089003E+02 0.  0.
         23    2    4    4    0    0  0.73340517156E+02  0.36974179421E+03 -0.79855238129E+02  0.39729031055E+03  0.96824098037E+02 0.  0.
          3    1    3    3  502    0  0.92339001768E+02 -0.10489258945E+03 -0.67721034673E+03  0.69147870559E+03  0.00000000000E+00 0. -1.
         -4    1    3    3    0  502  0.73882178781E+02 -0.22892596652E+02 -0.20884767194E+03  0.22271056867E+03  0.00000000000E+00 0.  1.
         11    1    5    5    0    0 -0.23245117725E+02 -0.45893872644E+02 -0.19542434687E+03  0.20208230599E+03  0.00000000000E+00 0. -1.
        -11    1    5    5    0    0 -0.21631657998E+03 -0.19606273546E+03 -0.59309445653E+03  0.66105559023E+03  0.00000000000E+00 0.  1.
          4    1    6    6  503    0  0.44798560629E+02  0.33632108677E+03 -0.92282186313E+02  0.35161738631E+03  0.00000000000E+00 0.  1.
         -4    1    6    6    0  503  0.28541956527E+02  0.33420707433E+02  0.12426948184E+02  0.45672924243E+02  0.00000000000E+00 0. -1.
<mgrwt>
<rscale>  0 0.12848850E+04</rscale>
<asrwt>0</asrwt>
<pdfrwt beam="1">  1        1 0.30223458E+00 0.12848850E+04</pdfrwt>
<pdfrwt beam="2">  1       -2 0.32321956E-01 0.12848850E+04</pdfrwt>
<totfact> 0.24273089E+01</totfact>
</mgrwt>
</event>
<event>
12    4  0.4320235E-008  0.1758931E+04  0.7818608E-02  0.8728450E-01
          1   -1    0    0  501    0  0.00000000000E+00  0.00000000000E+00  0.99014237288E+03  0.99014237288E+03  0.00000000000E+00 0. -1.
         -2   -1    0    0    0  501 -0.00000000000E+00 -0.00000000000E+00 -0.78115979025E+03  0.78115979025E+03  0.00000000000E+00 0.  1.
        -24    2    1    2    0    0 -0.93716475002E+02  0.39582106264E+03 -0.42273035442E+03  0.59193085052E+03  0.78892888979E+02 0.  0.
        254    2    1    2    0    0  0.93716475002E+02 -0.39582106264E+03  0.63171293705E+03  0.11793713126E+04  0.90906455593E+03 0.  0.
         23    2    4    4    0    0  0.15496788549E+03  0.13200775480E+03  0.59792019773E+03  0.63717439739E+03  0.83913985566E+02 0.  0.
         23    2    4    4    0    0 -0.61251410490E+02 -0.52782881743E+03  0.33792739316E+02  0.54219691521E+03  0.10237455659E+03 0.  0.
          3    1    3    3  502    0 -0.21527638347E+02  0.65080640554E+02 -0.34191146375E+02  0.76602633624E+02  0.00000000000E+00 0. -1.
         -4    1    3    3    0  502 -0.72188836654E+02  0.33074042208E+03 -0.38853920805E+03  0.51532821689E+03  0.00000000000E+00 0.  1.
         11    1    5    5    0    0  0.56278425194E+02  0.79485805573E+02  0.37960733037E+03  0.39190174751E+03  0.00000000000E+00 0.  1.
        -11    1    5    5    0    0  0.98689460298E+02  0.52521949223E+02  0.21831286737E+03  0.24527264989E+03  0.00000000000E+00 0. -1.
          4    1    6    6  503    0 -0.28242517232E+02 -0.26519372268E+02  0.17540091522E+01  0.38781354195E+02  0.00000000000E+00 0. -1.
         -4    1    6    6    0  503 -0.33008893258E+02 -0.50130944516E+03  0.32038730163E+02  0.50341556102E+03  0.00000000000E+00 0.  1.
<mgrwt>
<rscale>  0 0.17589308E+04</rscale>
<asrwt>0</asrwt>
<pdfrwt beam="1">  1        1 0.15232960E+00 0.17589308E+04</pdfrwt>
<pdfrwt beam="2">  1       -2 0.12017843E+00 0.17589308E+04</pdfrwt>
<totfact> 0.67636750E+00</totfact>
</mgrwt>
</event>
<event>
12    4  0.4320235E-008  0.1815611E+04  0.7818608E-02  0.8698041E-01
          1   -1    0    0  501    0  0.00000000000E+00  0.00000000000E+00  0.21489309289E+04  0.21489309289E+04  0.00000000000E+00 0. -1.
         -2   -1    0    0    0  501 -0.00000000000E+00 -0.00000000000E+00 -0.38349811768E+03  0.38349811768E+03  0.00000000000E+00 0.  1.
        -24    2    1    2    0    0  0.39498422767E+03  0.53963852053E+03  0.65317003236E+03  0.93820270757E+03  0.79818270840E+02 0.  0.
        254    2    1    2    0    0 -0.39498422767E+03 -0.53963852053E+03  0.11122627789E+04  0.15942263390E+04  0.92585466344E+03 0.  0.
         23    2    4    4    0    0 -0.30333624679E+03 -0.75384986107E+02 -0.56325555170E+02  0.33024722174E+03  0.90525601667E+02 0.  0.
         23    2    4    4    0    0 -0.91647980883E+02 -0.46425353443E+03  0.11685883340E+04  0.12639791173E+04  0.90076733092E+02 0.  0.
          3    1    3    3  502    0  0.36422013848E+03  0.49511420156E+03  0.62723571429E+03  0.87819076694E+03  0.00000000000E+00 0. -1.
         -4    1    3    3    0  502  0.30764089193E+02  0.44524318971E+02  0.25934318069E+02  0.60011940624E+02  0.00000000000E+00 0.  1.
         11    1    5    5    0    0 -0.54944976372E+02 -0.41832653852E+02 -0.38265169740E+02  0.78950266447E+02  0.00000000000E+00 0.  1.
        -11    1    5    5    0    0 -0.24839127041E+03 -0.33552332256E+02 -0.18060385430E+02  0.25129695529E+03  0.00000000000E+00 0. -1.
          3    1    6    6  503    0 -0.56322449625E+01 -0.16960768565E+03  0.33196112199E+03  0.37282257943E+03  0.00000000000E+00 0. -1.
         -3    1    6    6    0  503 -0.86015735921E+02 -0.29464584878E+03  0.83662721204E+03  0.89115653785E+03  0.00000000000E+00 0.  1.
<mgrwt>
<rscale>  0 0.18156112E+04</rscale>
<asrwt>0</asrwt>
<pdfrwt beam="1">  1        1 0.33060475E+00 0.18156112E+04</pdfrwt>
<pdfrwt beam="2">  1       -2 0.58999712E-01 0.18156112E+04</pdfrwt>
<totfact> 0.52433632E+00</totfact>
</mgrwt>
</event>
<event>
12    4  0.4320235E-008  0.1500927E+04  0.7818608E-02  0.8883837E-01
         -4   -1    0    0    0  501 -0.00000000000E+00  0.00000000000E+00  0.26966786067E+03  0.26966786067E+03  0.00000000000E+00 0.  1.
          1   -1    0    0  501    0  0.00000000000E+00 -0.00000000000E+00 -0.20884780150E+04  0.20884780150E+04  0.00000000000E+00 0. -1.
        -24    2    1    2    0    0 -0.51021756939E+02 -0.52294707726E+03 -0.35473266254E+03  0.63796665986E+03  0.71339553671E+02 0.  0.
        254    2    1    2    0    0  0.51021756939E+02  0.52294707726E+03 -0.14640774917E+04  0.17201792158E+04  0.73444997600E+03 0.  0.
         23    2    4    4    0    0 -0.11077754179E+03  0.48835739158E+03 -0.42289056151E+03  0.66187658349E+03  0.92084630018E+02 0.  0.
         23    2    4    4    0    0  0.16179929873E+03  0.34589685680E+02 -0.10411869302E+04  0.10583026323E+04  0.92513665851E+02 0.  0.
          1    1    3    3  502    0 -0.30589221735E+02 -0.26566985886E+03 -0.13791854099E+03  0.30089482937E+03  0.00000000000E+00 0. -1.
         -2    1    3    3    0  502 -0.20432535205E+02 -0.25727721840E+03 -0.21681412155E+03  0.33707183049E+03  0.00000000000E+00 0.  1.
         11    1    5    5    0    0 -0.59391415567E+02  0.92140127259E+02 -0.91811453926E+02  0.14299121080E+03  0.00000000000E+00 0. -1.
        -11    1    5    5    0    0 -0.51386126222E+02  0.39621726433E+03 -0.33107910758E+03  0.51888537269E+03  0.00000000000E+00 0.  1.
          4    1    6    6  503    0  0.40756585117E+02 -0.22168660013E+02 -0.43951441021E+03  0.44195640678E+03  0.00000000000E+00 0. -1.
         -4    1    6    6    0  503  0.12104271361E+03  0.56758345694E+02 -0.60167252002E+03  0.61634622549E+03  0.00000000000E+00 0.  1.
<mgrwt>
<rscale>  0 0.15009269E+04</rscale>
<asrwt>0</asrwt>
<pdfrwt beam="1">  1        1 0.32130430E+00 0.15009269E+04</pdfrwt>
<pdfrwt beam="2">  1       -4 0.41487364E-01 0.15009269E+04</pdfrwt>
<totfact> 0.70481783E+00</totfact>
</mgrwt>
</event>
<event>
12    4  0.4320235E-008  0.1506406E+04  0.7818608E-02  0.8880204E-01
          1   -1    0    0  501    0  0.00000000000E+00  0.00000000000E+00  0.10126811528E+04  0.10126811528E+04  0.00000000000E+00 0. -1.
         -2   -1    0    0    0  501 -0.00000000000E+00 -0.00000000000E+00 -0.56021029864E+03  0.56021029864E+03  0.00000000000E+00 0.  1.
        -24    2    1    2    0    0  0.36748578426E+03  0.10082074807E+03 -0.13837014579E+03  0.41313635057E+03  0.79528121058E+02 0.  0.
        254    2    1    2    0    0 -0.36748578426E+03 -0.10082074807E+03  0.59084099994E+03  0.11597551009E+04  0.92234927326E+03 0.  0.
         23    2    4    4    0    0 -0.15465760115E+03  0.36506807093E+03  0.47684899900E+03  0.62677643971E+03  0.90939911592E+02 0.  0.
         23    2    4    4    0    0 -0.21282818311E+03 -0.46588881900E+03  0.11399200094E+03  0.53297866115E+03  0.93401551228E+02 0.  0.
          1    1    3    3  502    0  0.28846498064E+03  0.81494354481E+02 -0.72338600557E+02  0.30836058113E+03  0.00000000000E+00 0. -1.
         -2    1    3    3    0  502  0.79020803621E+02  0.19326393591E+02 -0.66031545235E+02  0.10477576943E+03  0.00000000000E+00 0.  1.
         11    1    5    5    0    0 -0.13413923148E+02  0.11881264355E+02  0.59271577832E+02  0.61921060355E+02  0.00000000000E+00 0. -1.
        -11    1    5    5    0    0 -0.14124367801E+03  0.35318680658E+03  0.41757742117E+03  0.56485537935E+03  0.00000000000E+00 0.  1.
          2    1    6    6  503    0 -0.34017887801E+02 -0.17554116202E+03  0.53716312841E+02  0.18670125473E+03  0.00000000000E+00 0. -1.
         -2    1    6    6    0  503 -0.17881029530E+03 -0.29034765698E+03  0.60275688104E+02  0.34627740642E+03  0.00000000000E+00 0.  1.
<mgrwt>
<rscale>  0 0.15064055E+04</rscale>
<asrwt>0</asrwt>
<pdfrwt beam="1">  1        1 0.15579710E+00 0.15064055E+04</pdfrwt>
<pdfrwt beam="2">  1       -2 0.86186200E-01 0.15064055E+04</pdfrwt>
<totfact> 0.14635362E+01</totfact>
</mgrwt>
</event>
<event>
12    4  0.4572199E-008  0.1416820E+04  0.7818608E-02  0.8941733E-01
          1   -1    0    0  501    0  0.00000000000E+00  0.00000000000E+00  0.13927393267E+04  0.13927393267E+04  0.00000000000E+00 0. -1.
         -2   -1    0    0    0  501 -0.00000000000E+00 -0.00000000000E+00 -0.36032910935E+03  0.36032910935E+03  0.00000000000E+00 0.  1.
        -24    2    1    2    0    0 -0.12974029592E+03  0.76069010562E+02 -0.17300422410E+03  0.24286133661E+03  0.80200551811E+02 0.  0.
        254    2    1    2    0    0  0.12974029592E+03 -0.76069010562E+02  0.12054144414E+04  0.15102070994E+04  0.89726387913E+03 0.  0.
         23    2    4    4    0    0 -0.82947739861E+02  0.11182611942E+02  0.12527003204E+04  0.12587243320E+04  0.90130310905E+02 0.  0.
         23    2    4    4    0    0  0.21268803578E+03 -0.87251622504E+02 -0.47285878956E+02  0.25148276741E+03  0.90324867892E+02 0.  0.
          3    1    3    3  502    0  0.15647938226E+01  0.10575796839E+02  0.53094581086E+01  0.11936766894E+02  0.00000000000E+00 0. -1.
         -4    1    3    3    0  502 -0.13130508974E+03  0.65493213723E+02 -0.17831368220E+03  0.23092456971E+03  0.00000000000E+00 0.  1.
         11    1    5    5    0    0  0.10036756564E+02 -0.72319263816E+01  0.31370620233E+02  0.33721700065E+02  0.00000000000E+00 0. -1.
        -11    1    5    5    0    0 -0.92984496425E+02  0.18414538323E+02  0.12213297002E+04  0.12250026320E+04  0.00000000000E+00 0.  1.
          1    1    6    6  503    0  0.18058677061E+01  0.25049465125E+01 -0.20503068025E+02  0.20734312471E+02  0.00000000000E+00 0. -1.
         -1    1    6    6    0  503  0.21088216808E+03 -0.89756569016E+02 -0.26782810931E+02  0.23074845494E+03  0.00000000000E+00 0.  1.
<mgrwt>
<rscale>  0 0.14168197E+04</rscale>
<asrwt>0</asrwt>
<pdfrwt beam="1">  1        1 0.21426759E+00 0.14168197E+04</pdfrwt>
<pdfrwt beam="2">  1       -2 0.55435248E-01 0.14168197E+04</pdfrwt>
<totfact> 0.20310435E+01</totfact>
</mgrwt>
</event>
<event>
12    4  0.4320235E-008  0.1891014E+04  0.7818608E-02  0.8659342E-01
          1   -1    0    0  501    0  0.00000000000E+00  0.00000000000E+00  0.75814906930E+03  0.75814906930E+03  0.00000000000E+00 0. -1.
         -2   -1    0    0    0  501 -0.00000000000E+00 -0.00000000000E+00 -0.11791662185E+04  0.11791662185E+04  0.00000000000E+00 0.  1.
        -24    2    1    2    0    0  0.38357490511E+03 -0.39760957456E+03 -0.64784647020E+03  0.85494293719E+03  0.77455117920E+02 0.  0.
        254    2    1    2    0    0 -0.38357490511E+03  0.39760957456E+03  0.22682932099E+03  0.10823723506E+04  0.90269334933E+03 0.  0.
         23    2    4    4    0    0 -0.36932295910E+03  0.37182372722E+03 -0.25588102757E+03  0.59032411812E+03  0.91406410719E+02 0.  0.
         23    2    4    4    0    0 -0.14251946007E+02  0.25785847336E+02  0.48271034856E+03  0.49204823250E+03  0.90742242732E+02 0.  0.
          1    1    3    3  502    0  0.26962843200E+02 -0.62953444051E+02 -0.70049897551E+02  0.97964887476E+02  0.00000000000E+00 0. -1.
         -2    1    3    3    0  502  0.35661206190E+03 -0.33465613051E+03 -0.57779657265E+03  0.75697804972E+03  0.00000000000E+00 0.  1.
         11    1    5    5    0    0 -0.37302065189E+03  0.36629277034E+03 -0.24450632883E+03  0.57714655433E+03  0.00000000000E+00 0. -1.
        -11    1    5    5    0    0  0.36976927900E+01  0.55309568869E+01 -0.11374698739E+02  0.13177563790E+02  0.00000000000E+00 0.  1.
          1    1    6    6  503    0  0.36953660445E+02  0.23251577544E+02  0.24669524205E+03  0.25052894309E+03  0.00000000000E+00 0. -1.
         -1    1    6    6    0  503 -0.51205606452E+02  0.25342697922E+01  0.23601510651E+03  0.24151928941E+03  0.00000000000E+00 0.  1.
<mgrwt>
<rscale>  0 0.18910143E+04</rscale>
<asrwt>0</asrwt>
<pdfrwt beam="1">  1        1 0.11663832E+00 0.18910143E+04</pdfrwt>
<pdfrwt beam="2">  1       -2 0.18141019E+00 0.18910143E+04</pdfrwt>
<totfact> 0.35002062E+00</totfact>
</mgrwt>
</event>
<event>
12    4  0.4320235E-008  0.1940240E+04  0.7818608E-02  0.8635082E-01
         -4   -1    0    0    0  501 -0.00000000000E+00  0.00000000000E+00  0.48297379164E+03  0.48297379164E+03  0.00000000000E+00 0.  1.
          1   -1    0    0  501    0  0.00000000000E+00 -0.00000000000E+00 -0.19486206500E+04  0.19486206500E+04  0.00000000000E+00 0. -1.
        -24    2    1    2    0    0 -0.12689579376E+03 -0.46186137604E+03 -0.13393162547E+04  0.14248135723E+04  0.83109640652E+02 0.  0.
        254    2    1    2    0    0  0.12689579376E+03  0.46186137604E+03 -0.12633060366E+03  0.10067808694E+04  0.87648720724E+03 0.  0.
         23    2    4    4    0    0 -0.50492391699E+02 -0.20464178897E+03  0.13260073814E+03  0.26431379135E+03  0.88606326688E+02 0.  0.
         23    2    4    4    0    0  0.17738818546E+03  0.66650316501E+03 -0.25893134180E+03  0.74246707807E+03  0.92297805688E+02 0.  0.
          3    1    3    3  502    0 -0.11823467029E+03 -0.36379047213E+03 -0.11408169830E+04  0.12032399318E+04  0.00000000000E+00 0. -1.
         -2    1    3    3    0  502 -0.86611234625E+01 -0.98070903912E+02 -0.19849927175E+03  0.22157364045E+03  0.00000000000E+00 0.  1.
         11    1    5    5    0    0 -0.16263228599E+02 -0.55618592600E+02 -0.55894858811E+01  0.58216516554E+02  0.00000000000E+00 0. -1.
        -11    1    5    5    0    0 -0.34229163100E+02 -0.14902319637E+03  0.13819022402E+03  0.20609727480E+03  0.00000000000E+00 0.  1.
          1    1    6    6  503    0 -0.93205256494E+01  0.34647448856E+02 -0.23080668561E+02  0.42661870234E+02  0.00000000000E+00 0. -1.
         -1    1    6    6    0  503  0.18670871111E+03  0.63185571616E+03 -0.23585067324E+03  0.69980520783E+03  0.00000000000E+00 0.  1.
<mgrwt>
<rscale>  0 0.19402399E+04</rscale>
<asrwt>0</asrwt>
<pdfrwt beam="1">  1        1 0.29978779E+00 0.19402399E+04</pdfrwt>
<pdfrwt beam="2">  1       -4 0.74303660E-01 0.19402399E+04</pdfrwt>
<totfact> 0.24313127E+00</totfact>
</mgrwt>
</event>
<event>
12    4  0.4320235E-008  0.1511777E+04  0.7818608E-02  0.8876659E-01
          1   -1    0    0  501    0  0.00000000000E+00  0.00000000000E+00  0.36328155386E+03  0.36328155386E+03  0.00000000000E+00 0. -1.
         -2   -1    0    0    0  501 -0.00000000000E+00 -0.00000000000E+00 -0.15727940027E+04  0.15727940027E+04  0.00000000000E+00 0.  1.
        -24    2    1    2    0    0 -0.30725189040E+03  0.38477897704E+03 -0.30162079164E+03  0.58342281648E+03  0.83357636195E+02 0.  0.
        254    2    1    2    0    0  0.30725189040E+03 -0.38477897704E+03 -0.90789165719E+03  0.13526527401E+04  0.87346642104E+03 0.  0.
         23    2    4    4    0    0  0.30966318880E+03  0.64452498447E+02 -0.82333084128E+03  0.88666351979E+03  0.90846618396E+02 0.  0.
         23    2    4    4    0    0 -0.24112984009E+01 -0.44923147549E+03 -0.84560815906E+02  0.46598922027E+03  0.90447160771E+02 0.  0.
          1    1    3    3  502    0 -0.27535755898E+03  0.35772930716E+03 -0.24686513159E+03  0.51452350353E+03  0.00000000000E+00 0. -1.
         -2    1    3    3    0  502 -0.31894331426E+02  0.27049669878E+02 -0.54755660051E+02  0.68899312952E+02  0.00000000000E+00 0.  1.
         11    1    5    5    0    0  0.59812835046E+02 -0.78468553759E+01 -0.88043601525E+02  0.10672780399E+03  0.00000000000E+00 0. -1.
        -11    1    5    5    0    0  0.24985035376E+03  0.72299353823E+02 -0.73528723976E+03  0.77993571580E+03  0.00000000000E+00 0.  1.
          4    1    6    6  503    0  0.11041055868E+02 -0.54099086873E+02 -0.39881558780E+02  0.68111341537E+02  0.00000000000E+00 0. -1.
         -4    1    6    6    0  503 -0.13452354269E+02 -0.39513238861E+03 -0.44679257126E+02  0.39787787873E+03  0.00000000000E+00 0.  1.
<mgrwt>
<rscale>  0 0.15117765E+04</rscale>
<asrwt>0</asrwt>
<pdfrwt beam="1">  1        1 0.55889471E-01 0.15117765E+04</pdfrwt>
<pdfrwt beam="2">  1       -2 0.24196830E+00 0.15117765E+04</pdfrwt>
<totfact> 0.41481572E+00</totfact>
</mgrwt>
</event>
<event>
12    4  0.4320235E-008  0.2167931E+04  0.7818608E-02  0.8531896E-01
         -2   -1    0    0    0  501 -0.00000000000E+00  0.00000000000E+00  0.55645245820E+03  0.55645245820E+03  0.00000000000E+00 0.  1.
          1   -1    0    0  501    0  0.00000000000E+00 -0.00000000000E+00 -0.21115566526E+04  0.21115566526E+04  0.00000000000E+00 0. -1.
        -24    2    1    2    0    0 -0.45988286860E+03 -0.56584994690E+02 -0.15815348157E+04  0.16499665266E+04  0.80268617999E+02 0.  0.
        254    2    1    2    0    0  0.45988286860E+03  0.56584994690E+02  0.26430621357E+02  0.10180425842E+04  0.90610044201E+03 0.  0.
         23    2    4    4    0    0  0.18262318918E+03  0.28249960872E+03 -0.34825385752E+03  0.49224382142E+03  0.88690316840E+02 0.  0.
         23    2    4    4    0    0  0.27725967942E+03 -0.22591461403E+03  0.37468447887E+03  0.52579876276E+03  0.90363363953E+02 0.  0.
          3    1    3    3  502    0 -0.45871887801E+03 -0.62288086640E+02 -0.15415007885E+04  0.16095115706E+04  0.00000000000E+00 0. -1.
         -4    1    3    3    0  502 -0.11639905860E+01  0.57030919505E+01 -0.40034027203E+02  0.40454956013E+02  0.00000000000E+00 0.  1.
         11    1    5    5    0    0  0.14599902093E+03  0.24608354549E+03 -0.24459104343E+03  0.37642742195E+03  0.00000000000E+00 0.  1.
        -11    1    5    5    0    0  0.36624168247E+02  0.36416063229E+02 -0.10366281409E+03  0.11581639947E+03  0.00000000000E+00 0. -1.
          4    1    6    6  503    0  0.14553312892E+03 -0.12233213481E+03  0.26259081308E+03  0.32418972522E+03  0.00000000000E+00 0. -1.
         -4    1    6    6    0  503  0.13172655050E+03 -0.10358247922E+03  0.11209366579E+03  0.20160903754E+03  0.00000000000E+00 0.  1.
<mgrwt>
<rscale>  0 0.21679307E+04</rscale>
<asrwt>0</asrwt>
<pdfrwt beam="1">  1        1 0.32485486E+00 0.21679307E+04</pdfrwt>
<pdfrwt beam="2">  1       -2 0.85608072E-01 0.21679307E+04</pdfrwt>
<totfact> 0.23828035E+00</totfact>
</mgrwt>
</event>
<event>
12    4  0.4320235E-008  0.1623758E+04  0.7818608E-02  0.8806084E-01
          1   -1    0    0  501    0  0.00000000000E+00  0.00000000000E+00  0.24356145680E+04  0.24356145680E+04  0.00000000000E+00 0. -1.
         -2   -1    0    0    0  501 -0.00000000000E+00 -0.00000000000E+00 -0.27062871186E+03  0.27062871186E+03  0.00000000000E+00 0.  1.
        -24    2    1    2    0    0 -0.16176104205E+03  0.52190943077E+03  0.66153035373E+03  0.86133903994E+03  0.75673272462E+02 0.  0.
        254    2    1    2    0    0  0.16176104205E+03 -0.52190943077E+03  0.15034555024E+04  0.18449042399E+04  0.91909581549E+03 0.  0.
         23    2    4    4    0    0  0.36087033826E+03 -0.68117864986E+03  0.12577639235E+04  0.14778523213E+04  0.88575630105E+02 0.  0.
         23    2    4    4    0    0 -0.19910929621E+03  0.15926921909E+03  0.24569157892E+03  0.36705191862E+03  0.96703479901E+02 0.  0.
          3    1    3    3  502    0 -0.10510077162E+03  0.28260904055E+03  0.41651296044E+03  0.51419557389E+03  0.00000000000E+00 0. -1.
         -4    1    3    3    0  502 -0.56660270428E+02  0.23930039022E+03  0.24501739329E+03  0.34714346605E+03  0.00000000000E+00 0.  1.
         11    1    5    5    0    0  0.32802547502E+03 -0.61291731699E+03  0.11781585452E+04  0.13679641469E+04  0.00000000000E+00 0. -1.
        -11    1    5    5    0    0  0.32844863237E+02 -0.68261332862E+02  0.79605378296E+02  0.10988817434E+03  0.00000000000E+00 0.  1.
          3    1    6    6  503    0 -0.19398477282E+03  0.12820898495E+03  0.17947335432E+03  0.29373171571E+03  0.00000000000E+00 0. -1.
         -3    1    6    6    0  503 -0.51245233931E+01  0.31060234137E+02  0.66218224602E+02  0.73320202906E+02  0.00000000000E+00 0.  1.
<mgrwt>
<rscale>  0 0.16237577E+04</rscale>
<asrwt>0</asrwt>
<pdfrwt beam="1">  1        1 0.37470992E+00 0.16237577E+04</pdfrwt>
<pdfrwt beam="2">  1       -2 0.41635188E-01 0.16237577E+04</pdfrwt>
<totfact> 0.69118778E+00</totfact>
</mgrwt>
</event>
<event>
12    4  0.4320235E-008  0.1571125E+04  0.7818608E-02  0.8838486E-01
         -2   -1    0    0    0  501 -0.00000000000E+00  0.00000000000E+00  0.68958989166E+03  0.68958989166E+03  0.00000000000E+00 0.  1.
          1   -1    0    0  501    0  0.00000000000E+00 -0.00000000000E+00 -0.89489167806E+03  0.89489167806E+03  0.00000000000E+00 0. -1.
        -24    2    1    2    0    0  0.35492288481E+03 -0.15058618967E+03  0.29168131640E+03  0.49016835104E+03  0.80873774150E+02 0.  0.
        254    2    1    2    0    0 -0.35492288481E+03  0.15058618967E+03 -0.49698310280E+03  0.10943132187E+04  0.89547906812E+03 0.  0.
         23    2    4    4    0    0 -0.22537351598E+03  0.51188258588E+03 -0.38203921233E+03  0.68381404089E+03  0.93971694302E+02 0.  0.
         23    2    4    4    0    0 -0.12954936883E+03 -0.36129639622E+03 -0.11494389047E+03  0.41049917779E+03  0.89327219413E+02 0.  0.
          3    1    3    3  502    0  0.33859965803E+02  0.49074273634E+01  0.44649590555E+02  0.56250920563E+02  0.00000000000E+00 0. -1.
         -4    1    3    3    0  502  0.32106291900E+03 -0.15549361703E+03  0.24703172584E+03  0.43391743047E+03  0.00000000000E+00 0.  1.
         11    1    5    5    0    0 -0.16318983332E+03  0.29087925853E+03 -0.18580356771E+03  0.38179134421E+03  0.00000000000E+00 0.  1.
        -11    1    5    5    0    0 -0.62183682658E+02  0.22100332735E+03 -0.19623564463E+03  0.30202269668E+03  0.00000000000E+00 0. -1.
          2    1    6    6  503    0  0.13010883438E+02 -0.42754662741E+02 -0.72640743124E+01  0.45277047712E+02  0.00000000000E+00 0. -1.
         -2    1    6    6    0  503 -0.14256025227E+03 -0.31854173347E+03 -0.10767981616E+03  0.36522213008E+03  0.00000000000E+00 0.  1.
<mgrwt>
<rscale>  0 0.15711248E+04</rscale>
<asrwt>0</asrwt>
<pdfrwt beam="1">  1        1 0.13767564E+00 0.15711248E+04</pdfrwt>
<pdfrwt beam="2">  1       -2 0.10609075E+00 0.15711248E+04</pdfrwt>
<totfact> 0.11104195E+01</totfact>
</mgrwt>
</event>
<event>
12    4  0.4320235E-008  0.1393442E+04  0.7818608E-02  0.8958579E-01
         -2   -1    0    0    0  501 -0.00000000000E+00  0.00000000000E+00  0.60726752119E+03  0.60726752119E+03  0.00000000000E+00 0.  1.
          1   -1    0    0  501    0  0.00000000000E+00 -0.00000000000E+00 -0.79935196210E+03  0.79935196210E+03  0.00000000000E+00 0. -1.
        -24    2    1    2    0    0 -0.11597476828E+03 -0.12454689746E+03  0.30898899581E+03  0.36159230764E+03  0.79452632870E+02 0.  0.
        254    2    1    2    0    0  0.11597476828E+03  0.12454689746E+03 -0.50107343671E+03  0.10450271757E+04  0.90113546836E+03 0.  0.
         23    2    4    4    0    0  0.85722801951E+02 -0.36871366267E+03 -0.34150641929E+03  0.51781362554E+03  0.90587816839E+02 0.  0.
         23    2    4    4    0    0  0.30251966325E+02  0.49326056014E+03 -0.15956701742E+03  0.52721355012E+03  0.90946867602E+02 0.  0.
          1    1    3    3  502    0 -0.12944857329E+02  0.20350201917E+01  0.11389761678E+01  0.13153246943E+02  0.00000000000E+00 0. -1.
         -2    1    3    3    0  502 -0.10302991095E+03 -0.12658191766E+03  0.30785001964E+03  0.34843906070E+03  0.00000000000E+00 0.  1.
         11    1    5    5    0    0  0.30441009247E+02 -0.24049106144E+03 -0.26279476896E+03  0.35752439954E+03  0.00000000000E+00 0. -1.
        -11    1    5    5    0    0  0.55281792703E+02 -0.12822260124E+03 -0.78711650326E+02  0.16028922599E+03  0.00000000000E+00 0.  1.
          4    1    6    6  503    0  0.52754256870E+02  0.26786914114E+03 -0.58676088833E+02  0.27924858423E+03  0.00000000000E+00 0. -1.
         -4    1    6    6    0  503 -0.22502290545E+02  0.22539141900E+03 -0.10089092859E+03  0.24796496589E+03  0.00000000000E+00 0.  1.
<mgrwt>
<rscale>  0 0.13934425E+04</rscale>
<asrwt>0</asrwt>
<pdfrwt beam="1">  1        1 0.12297722E+00 0.13934425E+04</pdfrwt>
<pdfrwt beam="2">  1       -2 0.93425773E-01 0.13934425E+04</pdfrwt>
<totfact> 0.18336959E+01</totfact>
</mgrwt>
</event>
<event>
12    4  0.4320235E-008  0.1978014E+04  0.7818608E-02  0.8616969E-01
         -2   -1    0    0    0  501 -0.00000000000E+00  0.00000000000E+00  0.43625679105E+03  0.43625679105E+03  0.00000000000E+00 0.  1.
          1   -1    0    0  501    0  0.00000000000E+00 -0.00000000000E+00 -0.22421087014E+04  0.22421087014E+04  0.00000000000E+00 0. -1.
        -24    2    1    2    0    0  0.67823415694E+03  0.22422502452E+02 -0.18992858266E+03  0.70904929187E+03  0.78572842236E+02 0.  0.
        254    2    1    2    0    0 -0.67823415694E+03 -0.22422502452E+02 -0.16159233277E+04  0.19693162006E+04  0.89804997450E+03 0.  0.
         23    2    4    4    0    0 -0.53745398499E+03  0.15209703329E+03 -0.31913117566E+03  0.65004966902E+03  0.93432175422E+02 0.  0.
         23    2    4    4    0    0 -0.14078017195E+03 -0.17451953574E+03 -0.12967921521E+04  0.13192665316E+04  0.92293935771E+02 0.  0.
          1    1    3    3  502    0  0.34349946176E+02 -0.13063942121E+02 -0.21411749806E+02  0.42532909797E+02  0.00000000000E+00 0. -1.
         -2    1    3    3    0  502  0.64388421076E+03  0.35486444573E+02 -0.16851683286E+03  0.66651638208E+03  0.00000000000E+00 0.  1.
         11    1    5    5    0    0 -0.11721349442E+03  0.72935337858E+02 -0.64820336371E+02  0.15251309056E+03  0.00000000000E+00 0. -1.
        -11    1    5    5    0    0 -0.42024049056E+03  0.79161695428E+02 -0.25431083929E+03  0.49753657847E+03  0.00000000000E+00 0.  1.
          4    1    6    6  503    0 -0.14292325010E+03 -0.15934024875E+03 -0.10285272040E+04  0.10505639341E+04  0.00000000000E+00 0. -1.
         -4    1    6    6    0  503  0.21430781467E+01 -0.15179286986E+02 -0.26826494805E+03  0.26870259748E+03  0.00000000000E+00 0.  1.
<mgrwt>
<rscale>  0 0.19780143E+04</rscale>
<asrwt>0</asrwt>
<pdfrwt beam="1">  1        1 0.34493980E+00 0.19780143E+04</pdfrwt>
<pdfrwt beam="2">  1       -2 0.67116430E-01 0.19780143E+04</pdfrwt>
<totfact> 0.33914046E+00</totfact>
</mgrwt>
</event>
<event>
12    4  0.4320235E-008  0.1508801E+04  0.7818608E-02  0.8878622E-01
         -2   -1    0    0    0  501 -0.00000000000E+00  0.00000000000E+00  0.25505824348E+04  0.25505824348E+04  0.00000000000E+00 0.  1.
          3   -1    0    0  501    0  0.00000000000E+00 -0.00000000000E+00 -0.22313332435E+03  0.22313332435E+03  0.00000000000E+00 0. -1.
        -24    2    1    2    0    0 -0.33989100471E+03  0.33810328516E+03  0.65169649197E+03  0.81301430627E+03  0.80275887092E+02 0.  0.
        254    2    1    2    0    0  0.33989100471E+03 -0.33810328516E+03  0.16757526185E+04  0.19607014529E+04  0.89797751779E+03 0.  0.
         23    2    4    4    0    0  0.15637812528E+03 -0.61746584919E+03  0.12951796074E+04  0.14462054259E+04  0.91113805842E+02 0.  0.
         23    2    4    4    0    0  0.18351287943E+03  0.27936256403E+03  0.38057301106E+03  0.51449602692E+03  0.90276939835E+02 0.  0.
          3    1    3    3  502    0 -0.20089608934E+03  0.19168432402E+03  0.31036592271E+03  0.41644822580E+03  0.00000000000E+00 0. -1.
         -4    1    3    3    0  502 -0.13899491537E+03  0.14641896114E+03  0.34133056925E+03  0.39656608048E+03  0.00000000000E+00 0.  1.
         11    1    5    5    0    0  0.68629608387E+02 -0.38213752970E+03  0.86371652343E+03  0.94696639202E+03  0.00000000000E+00 0.  1.
        -11    1    5    5    0    0  0.87748516893E+02 -0.23532831949E+03  0.43146308398E+03  0.49923903393E+03  0.00000000000E+00 0. -1.
          3    1    6    6  503    0  0.10482932118E+03  0.98812026852E+02  0.20560589479E+03  0.25105136368E+03  0.00000000000E+00 0. -1.
         -3    1    6    6    0  503  0.78683558249E+02  0.18055053718E+03  0.17496711627E+03  0.26344466324E+03  0.00000000000E+00 0.  1.
<mgrwt>
<rscale>  0 0.15088008E+04</rscale>
<asrwt>0</asrwt>
<pdfrwt beam="1">  1        3 0.34328206E-01 0.15088008E+04</pdfrwt>
<pdfrwt beam="2">  1       -2 0.39239728E+00 0.15088008E+04</pdfrwt>
<totfact> 0.28846249E-01</totfact>
</mgrwt>
</event>
<event>
12    4  0.4320235E-008  0.2070639E+04  0.7818608E-02  0.8574288E-01
          1   -1    0    0  501    0  0.00000000000E+00  0.00000000000E+00  0.17157707366E+04  0.17157707366E+04  0.00000000000E+00 0. -1.
         -2   -1    0    0    0  501 -0.00000000000E+00 -0.00000000000E+00 -0.62472606742E+03  0.62472606742E+03  0.00000000000E+00 0.  1.
        -24    2    1    2    0    0  0.67519564966E+02  0.64265713968E+03 -0.16237487348E+03  0.67093181218E+03  0.78846726161E+02 0.  0.
        254    2    1    2    0    0 -0.67519564966E+02 -0.64265713968E+03  0.12534195427E+04  0.16695649918E+04  0.89376709562E+03 0.  0.
         23    2    4    4    0    0  0.13833680757E+03  0.17861208946E+03  0.20344432687E+03  0.31766316968E+03  0.92092043118E+02 0.  0.
         23    2    4    4    0    0 -0.20585637253E+03 -0.82126922914E+03  0.10499752158E+04  0.13519018222E+04  0.91272066605E+02 0.  0.
          3    1    3    3  502    0  0.72701915380E+02  0.48401132424E+03 -0.95408935248E+02  0.49865358258E+03  0.00000000000E+00 0. -1.
         -4    1    3    3    0  502 -0.51823504145E+01  0.15864581544E+03 -0.66965938232E+02  0.17227822960E+03  0.00000000000E+00 0.  1.
         11    1    5    5    0    0  0.14418276969E+03  0.13677740382E+03  0.14715954586E+03  0.24729064117E+03  0.00000000000E+00 0.  1.
        -11    1    5    5    0    0 -0.58459621235E+01  0.41834685635E+02  0.56284781009E+02  0.70372528508E+02  0.00000000000E+00 0. -1.
          3    1    6    6  503    0 -0.78743556508E+01 -0.18282324417E+03  0.21535041864E+03  0.28259891523E+03  0.00000000000E+00 0. -1.
         -3    1    6    6    0  503 -0.19798201688E+03 -0.63844598497E+03  0.83462479717E+03  0.10693029069E+04  0.00000000000E+00 0.  1.
<mgrwt>
<rscale>  0 0.20706392E+04</rscale>
<asrwt>0</asrwt>
<pdfrwt beam="1">  1        1 0.26396473E+00 0.20706392E+04</pdfrwt>
<pdfrwt beam="2">  1       -2 0.96111703E-01 0.20706392E+04</pdfrwt>
<totfact> 0.34136540E+00</totfact>
</mgrwt>
</event>
<event>
12    4  0.4320235E-008  0.1277985E+04  0.7818608E-02  0.9047208E-01
          3   -1    0    0  501    0  0.00000000000E+00  0.00000000000E+00  0.28056382536E+03  0.28056382536E+03  0.00000000000E+00 0. -1.
         -4   -1    0    0    0  501 -0.00000000000E+00 -0.00000000000E+00 -0.14553242591E+04  0.14553242591E+04  0.00000000000E+00 0.  1.
        -24    2    1    2    0    0 -0.70816321882E+02  0.30193198079E+03 -0.41807310046E+03  0.52695302109E+03  0.81954235058E+02 0.  0.
        254    2    1    2    0    0  0.70816321882E+02 -0.30193198079E+03 -0.75668733324E+03  0.12089350633E+04  0.89037654652E+03 0.  0.
         23    2    4    4    0    0  0.25715699731E+03 -0.50164111710E+03 -0.24515140523E+03  0.62180631061E+03  0.93650119035E+02 0.  0.
         23    2    4    4    0    0 -0.18634067543E+03  0.19970913631E+03 -0.51153592801E+03  0.58712875272E+03  0.91894396914E+02 0.  0.
          3    1    3    3  502    0 -0.18952575930E+02  0.12853093522E+03 -0.11278270410E+03  0.17204458663E+03  0.00000000000E+00 0. -1.
         -4    1    3    3    0  502 -0.51863745952E+02  0.17340104557E+03 -0.30529039636E+03  0.35490843447E+03  0.00000000000E+00 0.  1.
         11    1    5    5    0    0  0.25637701286E+03 -0.45912278407E+03 -0.24283854473E+03  0.57921797484E+03  0.00000000000E+00 0.  1.
        -11    1    5    5    0    0  0.77998444265E+00 -0.42518333031E+02 -0.23128605048E+01  0.42588335765E+02  0.00000000000E+00 0. -1.
          1    1    6    6  503    0 -0.14348717069E+03  0.16245892710E+03 -0.46739817350E+03  0.51521114482E+03  0.00000000000E+00 0. -1.
         -1    1    6    6    0  503 -0.42853504731E+02  0.37250209211E+02 -0.44137754503E+02  0.71917607903E+02  0.00000000000E+00 0.  1.
<mgrwt>
<rscale>  0 0.12779849E+04</rscale>
<asrwt>0</asrwt>
<pdfrwt beam="1">  1        3 0.43163665E-01 0.12779849E+04</pdfrwt>
<pdfrwt beam="2">  1       -4 0.22389604E+00 0.12779849E+04</pdfrwt>
<totfact> 0.11070415E+00</totfact>
</mgrwt>
</event>
<event>
12    4  0.4320235E-008  0.2450671E+04  0.7818608E-02  0.8420773E-01
          1   -1    0    0  501    0  0.00000000000E+00  0.00000000000E+00  0.19271730829E+04  0.19271730829E+04  0.00000000000E+00 0. -1.
         -2   -1    0    0    0  501 -0.00000000000E+00 -0.00000000000E+00 -0.77909304882E+03  0.77909304882E+03  0.00000000000E+00 0.  1.
        -24    2    1    2    0    0 -0.38539692133E+02  0.86100471145E+03 -0.17687056361E+03  0.88312396378E+03  0.76225442789E+02 0.  0.
        254    2    1    2    0    0  0.38539692133E+02 -0.86100471145E+03  0.13249505976E+04  0.18231421679E+04  0.90859168892E+03 0.  0.
         23    2    4    4    0    0 -0.15230262439E+03 -0.98117261901E+03  0.11570520421E+04  0.15274287756E+04  0.91506494473E+02 0.  0.
         23    2    4    4    0    0  0.19084231652E+03  0.12016790756E+03  0.16789855553E+03  0.29571339234E+03  0.91626249958E+02 0.  0.
          3    1    3    3  502    0 -0.22345842584E+01  0.16771955810E+03 -0.44287932683E+01  0.16779290136E+03  0.00000000000E+00 0. -1.
         -4    1    3    3    0  502 -0.36305107875E+02  0.69328515334E+03 -0.17244177034E+03  0.71533106242E+03  0.00000000000E+00 0.  1.
         11    1    5    5    0    0 -0.91666207578E+01 -0.24421426399E+02  0.12855536346E+02  0.29080884069E+02  0.00000000000E+00 0. -1.
        -11    1    5    5    0    0 -0.14313600363E+03 -0.95675119261E+03  0.11441965058E+04  0.14983478915E+04  0.00000000000E+00 0.  1.
          1    1    6    6  503    0  0.31240202113E+02  0.17475553293E+02  0.77773126681E+02  0.85615445012E+02  0.00000000000E+00 0. -1.
         -1    1    6    6    0  503  0.15960211441E+03  0.10269235427E+03  0.90125428846E+02  0.21009794733E+03  0.00000000000E+00 0.  1.
<mgrwt>
<rscale>  0 0.24506711E+04</rscale>
<asrwt>0</asrwt>
<pdfrwt beam="1">  1        1 0.29648816E+00 0.24506711E+04</pdfrwt>
<pdfrwt beam="2">  1       -2 0.11986047E+00 0.24506711E+04</pdfrwt>
<totfact> 0.13940005E+00</totfact>
</mgrwt>
</event>
<event>
12    4  0.4320235E-008  0.1814101E+04  0.7818608E-02  0.8698837E-01
          1   -1    0    0  501    0  0.00000000000E+00  0.00000000000E+00  0.40025909935E+04  0.40025909935E+04  0.00000000000E+00 0. -1.
         -2   -1    0    0    0  501 -0.00000000000E+00 -0.00000000000E+00 -0.20555190442E+03  0.20555190442E+03  0.00000000000E+00 0.  1.
        -24    2    1    2    0    0 -0.96349283296E+02 -0.53128371155E+03  0.25084218938E+04  0.25671245563E+04  0.80015769314E+02 0.  0.
        254    2    1    2    0    0  0.96349283296E+02  0.53128371155E+03  0.12886171952E+04  0.16410183417E+04  0.86073303367E+03 0.  0.
         23    2    4    4    0    0  0.22848141991E+03  0.40308724643E+03  0.13469252589E+04  0.14273307335E+04  0.91554805227E+02 0.  0.
         23    2    4    4    0    0 -0.13213213661E+03  0.12819646512E+03 -0.58308063618E+02  0.21368760816E+03  0.91484033606E+02 0.  0.
          3    1    3    3  502    0 -0.55211722510E+02 -0.45438100268E+03  0.21584960442E+04  0.22064939616E+04  0.00000000000E+00 0. -1.
         -4    1    3    3    0  502 -0.41137560786E+02 -0.76902708871E+02  0.34992584969E+03  0.36063059468E+03  0.00000000000E+00 0.  1.
         11    1    5    5    0    0  0.84796911989E+02  0.24139583360E+03  0.74672581451E+03  0.78934270556E+03  0.00000000000E+00 0. -1.
        -11    1    5    5    0    0  0.14368450792E+03  0.16169141283E+03  0.60019944434E+03  0.63798802793E+03  0.00000000000E+00 0.  1.
          1    1    6    6  503    0 -0.90074551865E+02  0.47108660231E+02  0.62339751464E+01  0.10184062651E+03  0.00000000000E+00 0. -1.
         -1    1    6    6    0  503 -0.42057584747E+02  0.81087804886E+02 -0.64542038765E+02  0.11184698165E+03  0.00000000000E+00 0.  1.
<mgrwt>
<rscale>  0 0.18141005E+04</rscale>
<asrwt>0</asrwt>
<pdfrwt beam="1">  1        1 0.61578317E+00 0.18141005E+04</pdfrwt>
<pdfrwt beam="2">  1       -2 0.31623373E-01 0.18141005E+04</pdfrwt>
<totfact> 0.74243765E-01</totfact>
</mgrwt>
</event>
<event>
12    4  0.4320235E-008  0.2868126E+04  0.7818608E-02  0.8282425E-01
          1   -1    0    0  501    0  0.00000000000E+00  0.00000000000E+00  0.15381192712E+04  0.15381192712E+04  0.00000000000E+00 0. -1.
         -4   -1    0    0    0  501 -0.00000000000E+00 -0.00000000000E+00 -0.13370460595E+04  0.13370460595E+04  0.00000000000E+00 0.  1.
        -24    2    1    2    0    0  0.36689961672E+03  0.99229914723E+03  0.83079012469E+03  0.13475062167E+04  0.79295941693E+02 0.  0.
        254    2    1    2    0    0 -0.36689961672E+03 -0.99229914723E+03 -0.62971691292E+03  0.15276591140E+04  0.90439264255E+03 0.  0.
         23    2    4    4    0    0 -0.57607281604E+03 -0.98859559100E+03 -0.44028548623E+03  0.12292310169E+04  0.89310982971E+02 0.  0.
         23    2    4    4    0    0  0.20917319932E+03 -0.37035562275E+01 -0.18943142670E+03  0.29842809709E+03  0.96994433198E+02 0.  0.
          1    1    3    3  502    0  0.36029174723E+03  0.91554738989E+03  0.77041543235E+03  0.12496307873E+04  0.00000000000E+00 0. -1.
         -2    1    3    3    0  502  0.66078694843E+01  0.76751757339E+02  0.60374692337E+02  0.97875429340E+02  0.00000000000E+00 0.  1.
         11    1    5    5    0    0 -0.55366787952E+03 -0.92142568402E+03 -0.42951687176E+03  0.11576088092E+04  0.00000000000E+00 0.  1.
        -11    1    5    5    0    0 -0.22404936515E+02 -0.67169906987E+02 -0.10768614466E+02  0.71622207746E+02  0.00000000000E+00 0. -1.
          1    1    6    6  503    0  0.19232904981E+03  0.27712185834E+02 -0.15167563540E+03  0.24650340164E+03  0.00000000000E+00 0.  1.
         -1    1    6    6    0  503  0.16844149514E+02 -0.31415742061E+02 -0.37755791295E+02  0.51924695458E+02  0.00000000000E+00 0. -1.
<mgrwt>
<rscale>  0 0.28681257E+04</rscale>
<asrwt>0</asrwt>
<pdfrwt beam="1">  1        1 0.23663373E+00 0.28681257E+04</pdfrwt>
<pdfrwt beam="2">  1       -4 0.20569939E+00 0.28681257E+04</pdfrwt>
<totfact> 0.31048143E-01</totfact>
</mgrwt>
</event>
<event>
12    4  0.4320235E-008  0.1479454E+04  0.7818608E-02  0.8898232E-01
          1   -1    0    0  501    0  0.00000000000E+00  0.00000000000E+00  0.75883776144E+03  0.75883776144E+03  0.00000000000E+00 0. -1.
         -2   -1    0    0    0  501 -0.00000000000E+00 -0.00000000000E+00 -0.72109792945E+03  0.72109792945E+03  0.00000000000E+00 0.  1.
        -24    2    1    2    0    0  0.21060538675E+02 -0.23898034584E+03 -0.34810497835E+03  0.42998776339E+03  0.78468138283E+02 0.  0.
        254    2    1    2    0    0 -0.21060538675E+02  0.23898034584E+03  0.38584481034E+03  0.10499479275E+04  0.94655125631E+03 0.  0.
         23    2    4    4    0    0 -0.41336979194E+03  0.22099467903E+03 -0.17878328840E+02  0.47935106262E+03  0.98714606523E+02 0.  0.
         23    2    4    4    0    0  0.39230925327E+03  0.17985666812E+02  0.40372313918E+03  0.57059686489E+03  0.91424147225E+02 0.  0.
          3    1    3    3  502    0  0.83718790915E+01 -0.29675719753E+02 -0.10518839886E+02  0.32578868840E+02  0.00000000000E+00 0. -1.
         -4    1    3    3    0  502  0.12688659584E+02 -0.20930462608E+03 -0.33758613846E+03  0.39740889455E+03  0.00000000000E+00 0.  1.
         11    1    5    5    0    0 -0.31027121153E+02  0.38910515132E+02  0.21141550404E+02  0.54071023556E+02  0.00000000000E+00 0. -1.
        -11    1    5    5    0    0 -0.38234267079E+03  0.18208416389E+03 -0.39019879244E+02  0.42528003906E+03  0.00000000000E+00 0.  1.
          1    1    6    6  503    0  0.11508862539E+03 -0.36128002044E+02  0.12785472509E+03  0.17577671903E+03  0.00000000000E+00 0. -1.
         -1    1    6    6    0  503  0.27722062788E+03  0.54113668856E+02  0.27586841409E+03  0.39482014585E+03  0.00000000000E+00 0.  1.
<mgrwt>
<rscale>  0 0.14794544E+04</rscale>
<asrwt>0</asrwt>
<pdfrwt beam="1">  1        1 0.11674427E+00 0.14794544E+04</pdfrwt>
<pdfrwt beam="2">  1       -2 0.11093814E+00 0.14794544E+04</pdfrwt>
<totfact> 0.13133991E+01</totfact>
</mgrwt>
</event>
<event>
12    4  0.4320235E-008  0.1439878E+04  0.7818608E-02  0.8925448E-01
         -4   -1    0    0    0  501 -0.00000000000E+00  0.00000000000E+00  0.25857439233E+04  0.25857439233E+04  0.00000000000E+00 0.  1.
          1   -1    0    0  501    0  0.00000000000E+00 -0.00000000000E+00 -0.20044981588E+03  0.20044981588E+03  0.00000000000E+00 0. -1.
        -24    2    1    2    0    0 -0.33465330537E+03  0.18178540043E+03  0.33413172208E+03  0.51292062064E+03  0.80029924231E+02 0.  0.
        254    2    1    2    0    0  0.33465330537E+03 -0.18178540043E+03  0.20511623854E+04  0.22732731186E+04  0.90303088199E+03 0.  0.
         23    2    4    4    0    0  0.42043418350E+02  0.12105688274E+03 -0.17261949357E+02  0.16043188020E+03  0.94963126535E+02 0.  0.
         23    2    4    4    0    0  0.29260988702E+03 -0.30284228317E+03  0.20684243347E+04  0.21128412384E+04  0.91568966301E+02 0.  0.
          1    1    3    3  502    0 -0.27361495401E+03  0.15432520569E+03  0.23080655641E+03  0.38981159379E+03  0.00000000000E+00 0. -1.
         -4    1    3    3    0  502 -0.61038351356E+02  0.27460194737E+02  0.10332516566E+03  0.12310902684E+03  0.00000000000E+00 0.  1.
         11    1    5    5    0    0  0.49158428934E+02  0.89697828733E+02 -0.50596849517E+02  0.11411526101E+03  0.00000000000E+00 0.  1.
        -11    1    5    5    0    0 -0.71150105835E+01  0.31359054010E+02  0.33334900159E+02  0.46316619184E+02  0.00000000000E+00 0. -1.
          4    1    6    6  503    0  0.15892031694E+03 -0.13136602042E+03  0.81370244368E+03  0.83941906418E+03  0.00000000000E+00 0. -1.
         -4    1    6    6    0  503  0.13368957008E+03 -0.17147626275E+03  0.12547218911E+04  0.12734221742E+04  0.00000000000E+00 0.  1.
<mgrwt>
<rscale>  0 0.14398776E+04</rscale>
<asrwt>0</asrwt>
<pdfrwt beam="1">  1        1 0.30838435E-01 0.14398776E+04</pdfrwt>
<pdfrwt beam="2">  1       -4 0.39780674E+00 0.14398776E+04</pdfrwt>
<totfact> 0.48580392E-01</totfact>
</mgrwt>
</event>
<event>
12    4  0.4320235E-008  0.1835073E+04  0.7818608E-02  0.8687867E-01
          1   -1    0    0  501    0  0.00000000000E+00  0.00000000000E+00  0.94698031584E+03  0.94698031584E+03  0.00000000000E+00 0. -1.
         -2   -1    0    0    0  501 -0.00000000000E+00 -0.00000000000E+00 -0.88900848509E+03  0.88900848509E+03  0.00000000000E+00 0.  1.
        -24    2    1    2    0    0  0.30122869560E+03 -0.29771418241E+03  0.57162998237E+03  0.71600273825E+03  0.80787517481E+02 0.  0.
        254    2    1    2    0    0 -0.30122869560E+03  0.29771418241E+03 -0.51365815162E+03  0.11199860627E+04  0.90063956297E+03 0.  0.
         23    2    4    4    0    0  0.14928545137E+03  0.55882612926E+02  0.17732290903E+03  0.25553060615E+03  0.91888324574E+02 0.  0.
         23    2    4    4    0    0 -0.45051414697E+03  0.24183156949E+03 -0.69098106065E+03  0.86445545653E+03  0.91558208356E+02 0.  0.
          3    1    3    3  502    0  0.21965171362E+03 -0.20103484053E+03  0.33898165552E+03  0.45118781586E+03  0.00000000000E+00 0. -1.
         -4    1    3    3    0  502  0.81576981981E+02 -0.96679341887E+02  0.23264832685E+03  0.26481492239E+03  0.00000000000E+00 0.  1.
         11    1    5    5    0    0  0.17622676251E+02  0.25357014501E+02 -0.20399416832E+01  0.30946700385E+02  0.00000000000E+00 0.  1.
        -11    1    5    5    0    0  0.13166277511E+03  0.30525598425E+02  0.17936285072E+03  0.22458390576E+03  0.00000000000E+00 0. -1.
          1    1    6    6  503    0 -0.39507569461E+03  0.18999537593E+03 -0.54063491547E+03  0.69603818801E+03  0.00000000000E+00 0. -1.
         -1    1    6    6    0  503 -0.55438452363E+02  0.51836193558E+02 -0.15034614519E+03  0.16841726852E+03  0.00000000000E+00 0.  1.
<mgrwt>
<rscale>  0 0.18350733E+04</rscale>
<asrwt>0</asrwt>
<pdfrwt beam="1">  1        1 0.14568928E+00 0.18350733E+04</pdfrwt>
<pdfrwt beam="2">  1       -2 0.13677054E+00 0.18350733E+04</pdfrwt>
<totfact> 0.52433789E+00</totfact>
</mgrwt>
</event>
<event>
12    4  0.4320235E-008  0.1954723E+04  0.7818608E-02  0.8628087E-01
         -2   -1    0    0    0  501 -0.00000000000E+00  0.00000000000E+00  0.78311185143E+03  0.78311185143E+03  0.00000000000E+00 0.  1.
          1   -1    0    0  501    0  0.00000000000E+00 -0.00000000000E+00 -0.12197947906E+04  0.12197947906E+04  0.00000000000E+00 0. -1.
        -24    2    1    2    0    0  0.78479801388E+02  0.89342232546E+02  0.60506715664E+03  0.62197048616E+03  0.81239816990E+02 0.  0.
        254    2    1    2    0    0 -0.78479801388E+02 -0.89342232546E+02 -0.10417500958E+04  0.13809361559E+04  0.89866583931E+03 0.  0.
         23    2    4    4    0    0  0.25114586054E+03  0.27447081917E+03 -0.29859782065E+03  0.48568691760E+03  0.91228556839E+02 0.  0.
         23    2    4    4    0    0 -0.32962566193E+03 -0.36381305172E+03 -0.74315227519E+03  0.89524923830E+03  0.90459277923E+02 0.  0.
          3    1    3    3  502    0  0.63838302166E+01 -0.14038834970E+02  0.36928460621E+02  0.40019412532E+02  0.00000000000E+00 0. -1.
         -4    1    3    3    0  502  0.72095971171E+02  0.10338106752E+03  0.56813869602E+03  0.58195107363E+03  0.00000000000E+00 0.  1.
         11    1    5    5    0    0  0.10013382475E+03  0.58513318938E+02 -0.61847785512E+02  0.13143720906E+03  0.00000000000E+00 0.  1.
        -11    1    5    5    0    0  0.15101203579E+03  0.21595750024E+03 -0.23675003514E+03  0.35424970854E+03  0.00000000000E+00 0. -1.
          2    1    6    6  503    0 -0.21760532546E+03 -0.27762191099E+03 -0.46943064661E+03  0.58718918170E+03  0.00000000000E+00 0. -1.
         -2    1    6    6    0  503 -0.11202033646E+03 -0.86191140733E+02 -0.27372162858E+03  0.30806005660E+03  0.00000000000E+00 0.  1.
<mgrwt>
<rscale>  0 0.19547233E+04</rscale>
<asrwt>0</asrwt>
<pdfrwt beam="1">  1        1 0.18766074E+00 0.19547233E+04</pdfrwt>
<pdfrwt beam="2">  1       -2 0.12047875E+00 0.19547233E+04</pdfrwt>
<totfact> 0.44393640E+00</totfact>
</mgrwt>
</event>
<event>
12    4  0.4320235E-008  0.1418481E+04  0.7818608E-02  0.8940549E-01
          1   -1    0    0  501    0  0.00000000000E+00  0.00000000000E+00  0.14245821980E+04  0.14245821980E+04  0.00000000000E+00 0. -1.
         -4   -1    0    0    0  501 -0.00000000000E+00 -0.00000000000E+00 -0.35310139431E+03  0.35310139431E+03  0.00000000000E+00 0.  1.
        -24    2    1    2    0    0  0.15767767512E+03 -0.40725711389E+03  0.62880689902E+03  0.76960198187E+03  0.78539723631E+02 0.  0.
        254    2    1    2    0    0 -0.15767767512E+03  0.40725711389E+03  0.44267390462E+03  0.10080816104E+04  0.79344044599E+03 0.  0.
         23    2    4    4    0    0 -0.46446553188E+03  0.17410034090E+03  0.19386484028E+03  0.54030953642E+03  0.91168305051E+02 0.  0.
         23    2    4    4    0    0  0.30678785676E+03  0.23315677299E+03  0.24880906434E+03  0.46777207398E+03  0.91781767522E+02 0.  0.
          1    1    3    3  502    0  0.34988773573E+02 -0.14978012062E+03  0.27561044418E+03  0.31562543584E+03  0.00000000000E+00 0. -1.
         -2    1    3    3    0  502  0.12268890155E+03 -0.25747699328E+03  0.35319645484E+03  0.45397654603E+03  0.00000000000E+00 0.  1.
         11    1    5    5    0    0 -0.72888253354E+02  0.52176513773E+02  0.78655315425E+01  0.89983068702E+02  0.00000000000E+00 0.  1.
        -11    1    5    5    0    0 -0.39157727852E+03  0.12192382713E+03  0.18599930873E+03  0.45032646772E+03  0.00000000000E+00 0. -1.
          4    1    6    6  503    0  0.28622053753E+03  0.22225821962E+03  0.20050791273E+03  0.41415496539E+03  0.00000000000E+00 0. -1.
         -4    1    6    6    0  503  0.20567319230E+02  0.10898553371E+02  0.48301151617E+02  0.53617108589E+02  0.00000000000E+00 0.  1.
<mgrwt>
<rscale>  0 0.14184808E+04</rscale>
<asrwt>0</asrwt>
<pdfrwt beam="1">  1        1 0.21916649E+00 0.14184808E+04</pdfrwt>
<pdfrwt beam="2">  1       -4 0.54323292E-01 0.14184808E+04</pdfrwt>
<totfact> 0.11438531E+01</totfact>
</mgrwt>
</event>
<event>
12    4  0.4320235E-008  0.1501795E+04  0.7818608E-02  0.8883260E-01
         -2   -1    0    0    0  501 -0.00000000000E+00  0.00000000000E+00  0.46413278817E+03  0.46413278817E+03  0.00000000000E+00 0.  1.
          1   -1    0    0  501    0  0.00000000000E+00 -0.00000000000E+00 -0.12148392010E+04  0.12148392010E+04  0.00000000000E+00 0. -1.
        -24    2    1    2    0    0  0.20179118678E+03 -0.15977029800E+03  0.18816466040E+03  0.32882285876E+03  0.80450617356E+02 0.  0.
        254    2    1    2    0    0 -0.20179118678E+03  0.15977029800E+03 -0.93887107328E+03  0.13501491305E+04  0.93550924691E+03 0.  0.
         23    2    4    4    0    0 -0.40346648125E+03  0.17195281608E+03 -0.10188903858E+04  0.11128935061E+04  0.89673659178E+02 0.  0.
         23    2    4    4    0    0  0.20167529447E+03 -0.12182518088E+02  0.80019312502E+02  0.23725562439E+03  0.95214509319E+02 0.  0.
          1    1    3    3  502    0  0.74817008182E+02 -0.26840637166E+02  0.91241857499E+02  0.12100859918E+03  0.00000000000E+00 0. -1.
         -2    1    3    3    0  502  0.12697417860E+03 -0.13292966083E+03  0.96922802903E+02  0.20781425957E+03  0.00000000000E+00 0.  1.
         11    1    5    5    0    0 -0.56158897713E+02  0.49427875814E+02 -0.11907092764E+03  0.14062298002E+03  0.00000000000E+00 0. -1.
        -11    1    5    5    0    0 -0.34730758354E+03  0.12252494027E+03 -0.89981945814E+03  0.97227052605E+03  0.00000000000E+00 0.  1.
          1    1    6    6  503    0  0.43005473852E+02 -0.43490706317E+02  0.15221951666E+02  0.63028724640E+02  0.00000000000E+00 0. -1.
         -1    1    6    6    0  503  0.15866982062E+03  0.31308188230E+02  0.64797360836E+02  0.17422689975E+03  0.00000000000E+00 0.  1.
<mgrwt>
<rscale>  0 0.15017945E+04</rscale>
<asrwt>0</asrwt>
<pdfrwt beam="1">  1        1 0.18689834E+00 0.15017945E+04</pdfrwt>
<pdfrwt beam="2">  1       -2 0.71405044E-01 0.15017945E+04</pdfrwt>
<totfact> 0.15735018E+01</totfact>
</mgrwt>
</event>
<event>
12    4  0.4320235E-008  0.3627461E+04  0.7818608E-02  0.8084230E-01
          1   -1    0    0  501    0  0.00000000000E+00  0.00000000000E+00  0.35822361381E+04  0.35822361381E+04  0.00000000000E+00 0. -1.
         -2   -1    0    0    0  501 -0.00000000000E+00 -0.00000000000E+00 -0.91831408310E+03  0.91831408310E+03  0.00000000000E+00 0.  1.
        -24    2    1    2    0    0  0.69054755190E+03 -0.58500947112E+02  0.31772381554E+04  0.32529051242E+04  0.79190712105E+02 0.  0.
        254    2    1    2    0    0 -0.69054755190E+03  0.58500947112E+02 -0.51331610045E+03  0.12476450969E+04  0.90158005004E+03 0.  0.
         23    2    4    4    0    0 -0.30828798795E+03 -0.56180548207E+01 -0.72765535374E+03  0.79560312214E+03  0.91809411693E+02 0.  0.
         23    2    4    4    0    0 -0.38225956395E+03  0.64119001933E+02  0.21433925329E+03  0.45204197478E+03  0.90371515540E+02 0.  0.
          3    1    3    3  502    0  0.58926502150E+03 -0.38353997622E+02  0.25717880598E+04  0.26387114505E+04  0.00000000000E+00 0. -1.
         -4    1    3    3    0  502  0.10128253040E+03 -0.20146949489E+02  0.60545009564E+03  0.61419367373E+03  0.00000000000E+00 0.  1.
         11    1    5    5    0    0 -0.22181264503E+02  0.24846384075E+02 -0.92618116300E+02  0.98424929584E+02  0.00000000000E+00 0. -1.
        -11    1    5    5    0    0 -0.28610672345E+03 -0.30464438895E+02 -0.63503723744E+03  0.69717819255E+03  0.00000000000E+00 0.  1.
          4    1    6    6  503    0 -0.64836486324E+02  0.17696985711E+02  0.79378656806E+02  0.10400925160E+03  0.00000000000E+00 0. -1.
         -4    1    6    6    0  503 -0.31742307763E+03  0.46422016221E+02  0.13496059648E+03  0.34803272318E+03  0.00000000000E+00 0.  1.
<mgrwt>
<rscale>  0 0.36274608E+04</rscale>
<asrwt>0</asrwt>
<pdfrwt beam="1">  1        1 0.55111324E+00 0.36274608E+04</pdfrwt>
<pdfrwt beam="2">  1       -2 0.14127909E+00 0.36274608E+04</pdfrwt>
<totfact> 0.53530989E-02</totfact>
</mgrwt>
</event>
<event>
12    4  0.4320235E-008  0.3663780E+04  0.7818608E-02  0.8076036E-01
         -2   -1    0    0    0  501 -0.00000000000E+00  0.00000000000E+00  0.16409942498E+04  0.16409942498E+04  0.00000000000E+00 0.  1.
          1   -1    0    0  501    0  0.00000000000E+00 -0.00000000000E+00 -0.20449928737E+04  0.20449928737E+04  0.00000000000E+00 0. -1.
        -24    2    1    2    0    0 -0.87286074706E+03  0.74112179413E+03 -0.14895738913E+04  0.18805259251E+04  0.79999873894E+02 0.  0.
        254    2    1    2    0    0  0.87286074706E+03 -0.74112179413E+03  0.10855752674E+04  0.18054611985E+04  0.87753580004E+03 0.  0.
         23    2    4    4    0    0  0.81770784229E+03 -0.81378655231E+03  0.60025545836E+03  0.13036281588E+04  0.90802494432E+02 0.  0.
         23    2    4    4    0    0  0.55152904764E+02  0.72664758179E+02  0.48531980907E+03  0.50183303967E+03  0.89325655010E+02 0.  0.
          3    1    3    3  502    0 -0.82015916845E+03  0.67417906295E+03 -0.13576540976E+04  0.17234857468E+04  0.00000000000E+00 0. -1.
         -4    1    3    3    0  502 -0.52701578611E+02  0.66942731186E+02 -0.13191979370E+03  0.15704017835E+03  0.00000000000E+00 0.  1.
         11    1    5    5    0    0  0.64918433909E+03 -0.59907953439E+03  0.48015394932E+03  0.10054274761E+04  0.00000000000E+00 0.  1.
        -11    1    5    5    0    0  0.16852350320E+03 -0.21470701792E+03  0.12010150904E+03  0.29820068268E+03  0.00000000000E+00 0. -1.
          1    1    6    6  503    0  0.71890274657E+02  0.23405616005E+02  0.29409302888E+03  0.30365563404E+03  0.00000000000E+00 0. -1.
         -1    1    6    6    0  503 -0.16737369893E+02  0.49259142174E+02  0.19122678020E+03  0.19817740563E+03  0.00000000000E+00 0.  1.
<mgrwt>
<rscale>  0 0.36637803E+04</rscale>
<asrwt>0</asrwt>
<pdfrwt beam="1">  1        1 0.31461429E+00 0.36637803E+04</pdfrwt>
<pdfrwt beam="2">  1       -2 0.25246066E+00 0.36637803E+04</pdfrwt>
<totfact> 0.12197515E-01</totfact>
</mgrwt>
</event>
<event>
12    4  0.4320235E-008  0.1494906E+04  0.7818608E-02  0.8887847E-01
          1   -1    0    0  501    0  0.00000000000E+00  0.00000000000E+00  0.10538930827E+04  0.10538930827E+04  0.00000000000E+00 0. -1.
         -2   -1    0    0    0  501 -0.00000000000E+00 -0.00000000000E+00 -0.53011634222E+03  0.53011634222E+03  0.00000000000E+00 0.  1.
        -24    2    1    2    0    0 -0.87933628454E+02 -0.45868057678E+03  0.83844491658E+02  0.48264527297E+03  0.88297034001E+02 0.  0.
        254    2    1    2    0    0  0.87933628454E+02  0.45868057678E+03  0.43993224878E+03  0.11013641519E+04  0.89517731042E+03 0.  0.
         23    2    4    4    0    0  0.42745189016E+03  0.60384631960E+01  0.18615387339E+03  0.47484245969E+03  0.89836047938E+02 0.  0.
         23    2    4    4    0    0 -0.33951826170E+03  0.45264211358E+03  0.25377837540E+03  0.62652169223E+03  0.89266085357E+02 0.  0.
          3    1    3    3  502    0 -0.37487008377E+02 -0.65465786235E+02  0.35157779188E+02  0.83229288125E+02  0.00000000000E+00 0. -1.
         -4    1    3    3    0  502 -0.50446620077E+02 -0.39321479055E+03  0.48686712470E+02  0.39941598485E+03  0.00000000000E+00 0.  1.
         11    1    5    5    0    0  0.38881112061E+02 -0.75388713358E+01  0.47974839020E+02  0.62210615132E+02  0.00000000000E+00 0. -1.
        -11    1    5    5    0    0  0.38857077810E+03  0.13577334532E+02  0.13817903437E+03  0.41263184456E+03  0.00000000000E+00 0.  1.
          4    1    6    6  503    0 -0.20586078667E+03  0.24924883246E+03  0.98974962480E+02  0.33808236743E+03  0.00000000000E+00 0.  1.
         -4    1    6    6    0  503 -0.13365747504E+03  0.20339328112E+03  0.15480341292E+03  0.28843932480E+03  0.00000000000E+00 0. -1.
<mgrwt>
<rscale>  0 0.14949059E+04</rscale>
<asrwt>0</asrwt>
<pdfrwt beam="1">  1        1 0.16213740E+00 0.14949059E+04</pdfrwt>
<pdfrwt beam="2">  1       -2 0.81556360E-01 0.14949059E+04</pdfrwt>
<totfact> 0.15435592E+01</totfact>
</mgrwt>
</event>
<event>
12    4  0.4320235E-008  0.2166632E+04  0.7818608E-02  0.8532446E-01
          1   -1    0    0  501    0  0.00000000000E+00  0.00000000000E+00  0.17692073970E+04  0.17692073970E+04  0.00000000000E+00 0. -1.
         -2   -1    0    0    0  501 -0.00000000000E+00 -0.00000000000E+00 -0.66333273223E+03  0.66333273223E+03  0.00000000000E+00 0.  1.
        -24    2    1    2    0    0 -0.10814273366E+03 -0.81279342627E+03  0.85066141918E+03  0.11844022820E+04  0.82800427480E+02 0.  0.
        254    2    1    2    0    0  0.10814273366E+03  0.81279342627E+03  0.25521324558E+03  0.12481378473E+04  0.90575177637E+03 0.  0.
         23    2    4    4    0    0  0.27864062061E+03  0.23771640183E+03  0.47187847764E+03  0.60431908137E+03  0.91556383181E+02 0.  0.
         23    2    4    4    0    0 -0.17049788694E+03  0.57507702444E+03 -0.21666523206E+03  0.64381876588E+03  0.88179742734E+02 0.  0.
          3    1    3    3  502    0  0.74878959062E+01 -0.13414313220E+03  0.16485999679E+03  0.21267173541E+03  0.00000000000E+00 0. -1.
         -4    1    3    3    0  502 -0.11563062957E+03 -0.67865029408E+03  0.68580142239E+03  0.97173054655E+03  0.00000000000E+00 0.  1.
         11    1    5    5    0    0  0.21136952532E+03  0.15273487402E+03  0.27116945840E+03  0.37621522184E+03  0.00000000000E+00 0.  1.
        -11    1    5    5    0    0  0.67271095290E+02  0.84981527813E+02  0.20070901924E+03  0.22810385953E+03  0.00000000000E+00 0. -1.
          4    1    6    6  503    0 -0.15657538710E+03  0.55228526589E+03 -0.18663119101E+03  0.60362742500E+03  0.00000000000E+00 0.  1.
         -4    1    6    6    0  503 -0.13922499847E+02  0.22791758556E+02 -0.30034041048E+02  0.40191340880E+02  0.00000000000E+00 0. -1.
<mgrwt>
<rscale>  0 0.21666316E+04</rscale>
<asrwt>0</asrwt>
<pdfrwt beam="1">  1        1 0.27218575E+00 0.21666316E+04</pdfrwt>
<pdfrwt beam="2">  1       -2 0.10205119E+00 0.21666316E+04</pdfrwt>
<totfact> 0.27018071E+00</totfact>
</mgrwt>
</event>
<event>
12    4  0.4320235E-008  0.1347813E+04  0.7818608E-02  0.8992485E-01
         -2   -1    0    0    0  501 -0.00000000000E+00  0.00000000000E+00  0.20441064774E+03  0.20441064774E+03  0.00000000000E+00 0.  1.
          1   -1    0    0  501    0  0.00000000000E+00 -0.00000000000E+00 -0.22217528550E+04  0.22217528550E+04  0.00000000000E+00 0. -1.
        -24    2    1    2    0    0  0.39109993921E+02  0.22844064631E+03 -0.12811898686E+02  0.24552719293E+03  0.80029602076E+02 0.  0.
        254    2    1    2    0    0 -0.39109993921E+02 -0.22844064631E+03 -0.20045303086E+04  0.21806363098E+04  0.82663065340E+03 0.  0.
         23    2    4    4    0    0 -0.31384560890E+03 -0.37974256240E+03 -0.92881439224E+03  0.10564579184E+04  0.10345858230E+03 0.  0.
         23    2    4    4    0    0  0.27473561498E+03  0.15130191608E+03 -0.10757159163E+04  0.11241783914E+04  0.90776621648E+02 0.  0.
          3    1    3    3  502    0  0.51831139118E+02  0.88639038943E+02  0.10534895855E+02  0.10321981514E+03  0.00000000000E+00 0. -1.
         -4    1    3    3    0  502 -0.12721145197E+02  0.13980160737E+03 -0.23346794540E+02  0.14230737779E+03  0.00000000000E+00 0.  1.
         11    1    5    5    0    0 -0.19381973307E+03 -0.29090255415E+03 -0.71220635052E+03  0.79336515594E+03  0.00000000000E+00 0.  1.
        -11    1    5    5    0    0 -0.12002587584E+03 -0.88840008246E+02 -0.21660804172E+03  0.26309276249E+03  0.00000000000E+00 0. -1.
          2    1    6    6  503    0  0.52373446593E+02 -0.65279287667E+00 -0.11388779180E+03  0.12535482905E+03  0.00000000000E+00 0. -1.
         -2    1    6    6    0  503  0.22236216839E+03  0.15195470896E+03 -0.96182812453E+03  0.99882356232E+03  0.00000000000E+00 0.  1.
<mgrwt>
<rscale>  0 0.13478130E+04</rscale>
<asrwt>0</asrwt>
<pdfrwt beam="1">  1        1 0.34180815E+00 0.13478130E+04</pdfrwt>
<pdfrwt beam="2">  1       -2 0.31447790E-01 0.13478130E+04</pdfrwt>
<totfact> 0.17023323E+01</totfact>
</mgrwt>
</event>
<event>
12    4  0.4320235E-008  0.1867467E+04  0.7818608E-02  0.8671222E-01
          1   -1    0    0  501    0  0.00000000000E+00  0.00000000000E+00  0.23765232198E+04  0.23765232198E+04  0.00000000000E+00 0. -1.
         -2   -1    0    0    0  501 -0.00000000000E+00 -0.00000000000E+00 -0.36686280624E+03  0.36686280624E+03  0.00000000000E+00 0.  1.
        -24    2    1    2    0    0  0.43499182504E+03 -0.12683653260E+03 -0.30512104259E+02  0.46124152730E+03  0.80668235087E+02 0.  0.
        254    2    1    2    0    0 -0.43499182504E+03  0.12683653260E+03  0.20401725178E+04  0.22821444987E+04  0.91682834643E+03 0.  0.
         23    2    4    4    0    0 -0.44495406475E+03  0.20484692321E+03  0.20919473386E+04  0.21505194500E+04  0.92432979227E+02 0.  0.
         23    2    4    4    0    0  0.99622397155E+01 -0.78010390620E+02 -0.51774820769E+02  0.13162504875E+03  0.91976378104E+02 0.  0.
          3    1    3    3  502    0  0.15572428963E+03 -0.54036275787E+02  0.26821763029E+02  0.16700113908E+03  0.00000000000E+00 0. -1.
         -4    1    3    3    0  502  0.27926753540E+03 -0.72800256809E+02 -0.57333867288E+02  0.29424038822E+03  0.00000000000E+00 0.  1.
         11    1    5    5    0    0 -0.38248951193E+03  0.14452464012E+03  0.18043416494E+04  0.18500903724E+04  0.00000000000E+00 0.  1.
        -11    1    5    5    0    0 -0.62464552818E+02  0.60322283096E+02  0.28760568919E+03  0.30042907757E+03  0.00000000000E+00 0. -1.
          1    1    6    6  503    0  0.10248571817E+02 -0.64307462454E+02  0.12153994790E+02  0.66243509425E+02  0.00000000000E+00 0. -1.
         -1    1    6    6    0  503 -0.28633210195E+00 -0.13702928166E+02 -0.63928815559E+02  0.65381539330E+02  0.00000000000E+00 0.  1.
<mgrwt>
<rscale>  0 0.18674667E+04</rscale>
<asrwt>0</asrwt>
<pdfrwt beam="1">  1        1 0.36561895E+00 0.18674667E+04</pdfrwt>
<pdfrwt beam="2">  1       -2 0.56440433E-01 0.18674667E+04</pdfrwt>
<totfact> 0.40048797E+00</totfact>
</mgrwt>
</event>
<event>
12    4  0.4320235E-008  0.1716020E+04  0.7818608E-02  0.8752280E-01
         -2   -1    0    0    0  501 -0.00000000000E+00  0.00000000000E+00  0.72819669455E+03  0.72819669455E+03  0.00000000000E+00 0.  1.
          1   -1    0    0  501    0  0.00000000000E+00 -0.00000000000E+00 -0.10109642940E+04  0.10109642940E+04  0.00000000000E+00 0. -1.
        -24    2    1    2    0    0 -0.55523636990E+03 -0.21459861209E+03 -0.29725034429E+03  0.67327989744E+03  0.10299544821E+03 0.  0.
        254    2    1    2    0    0  0.55523636990E+03  0.21459861209E+03  0.14482744804E+02  0.10658810911E+04  0.88405472668E+03 0.  0.
         23    2    4    4    0    0  0.65489046318E+03  0.49320948057E+02  0.28495095457E+03  0.72172234019E+03  0.91498716595E+02 0.  0.
         23    2    4    4    0    0 -0.99654093282E+02  0.16527766403E+03 -0.27046820977E+03  0.34415875094E+03  0.89691408823E+02 0.  0.
          3    1    3    3  502    0  0.35997196513E+01 -0.74047995616E+00 -0.77276761166E+01  0.85570596758E+01  0.00000000000E+00 0. -1.
         -4    1    3    3    0  502 -0.55883608955E+03 -0.21385813213E+03 -0.28952266817E+03  0.66472283777E+03  0.00000000000E+00 0.  1.
         11    1    5    5    0    0  0.13771751411E+03  0.45312230921E+02  0.78332869133E+02  0.16478880530E+03  0.00000000000E+00 0. -1.
        -11    1    5    5    0    0  0.51717294907E+03  0.40087171356E+01  0.20661808544E+03  0.55693353490E+03  0.00000000000E+00 0.  1.
          3    1    6    6  503    0 -0.20854104862E+02  0.11889882582E+02 -0.95590093636E+02  0.98558251805E+02  0.00000000000E+00 0. -1.
         -3    1    6    6    0  503 -0.78799988420E+02  0.15338778145E+03 -0.17487811613E+03  0.24560049913E+03  0.00000000000E+00 0.  1.
<mgrwt>
<rscale>  0 0.17160196E+04</rscale>
<asrwt>0</asrwt>
<pdfrwt beam="1">  1        1 0.15553297E+00 0.17160196E+04</pdfrwt>
<pdfrwt beam="2">  1       -2 0.11203026E+00 0.17160196E+04</pdfrwt>
<totfact> 0.77678989E+00</totfact>
</mgrwt>
</event>
<event>
12    4  0.4320235E-008  0.1464078E+04  0.7818608E-02  0.8908698E-01
          1   -1    0    0  501    0  0.00000000000E+00  0.00000000000E+00  0.19758310220E+04  0.19758310220E+04  0.00000000000E+00 0. -1.
         -2   -1    0    0    0  501 -0.00000000000E+00 -0.00000000000E+00 -0.27121803487E+03  0.27121803487E+03  0.00000000000E+00 0.  1.
        -24    2    1    2    0    0  0.21112797945E+03 -0.22874218612E+03  0.34071117522E+02  0.32283869167E+03  0.78523680332E+02 0.  0.
        254    2    1    2    0    0 -0.21112797945E+03  0.22874218612E+03  0.16705418697E+04  0.19242103652E+04  0.90276097613E+03 0.  0.
         23    2    4    4    0    0  0.15951166724E+03 -0.26975095765E+03  0.59696574540E+03  0.68022916417E+03  0.90189042963E+02 0.  0.
         23    2    4    4    0    0 -0.37063964669E+03  0.49849314377E+03  0.10735761243E+04  0.12439812011E+04  0.95154463752E+02 0.  0.
          1    1    3    3  502    0  0.10218814302E+02 -0.44604044334E+02  0.20024516508E+02  0.49949236211E+02  0.00000000000E+00 0. -1.
         -2    1    3    3    0  502  0.20090916515E+03 -0.18413814178E+03  0.14046601014E+02  0.27288945546E+03  0.00000000000E+00 0.  1.
         11    1    5    5    0    0  0.12947520010E+03 -0.13182237668E+03  0.34925382540E+03  0.39511922376E+03  0.00000000000E+00 0.  1.
        -11    1    5    5    0    0  0.30036467137E+02 -0.13792858097E+03  0.24771192000E+03  0.28510994041E+03  0.00000000000E+00 0. -1.
          4    1    6    6  503    0 -0.13142312565E+03  0.24949347788E+03  0.52020518885E+03  0.59171992697E+03  0.00000000000E+00 0. -1.
         -4    1    6    6    0  503 -0.23921652104E+03  0.24899966588E+03  0.55337093540E+03  0.65226127410E+03  0.00000000000E+00 0.  1.
<mgrwt>
<rscale>  0 0.14640779E+04</rscale>
<asrwt>0</asrwt>
<pdfrwt beam="1">  1        1 0.30397399E+00 0.14640779E+04</pdfrwt>
<pdfrwt beam="2">  1       -2 0.41725853E-01 0.14640779E+04</pdfrwt>
<totfact> 0.14354006E+01</totfact>
</mgrwt>
</event>
<event>
12    4  0.4320235E-008  0.1179195E+04  0.7818608E-02  0.9131265E-01
          1   -1    0    0  501    0  0.00000000000E+00  0.00000000000E+00  0.53226647612E+03  0.53226647612E+03  0.00000000000E+00 0. -1.
         -2   -1    0    0    0  501 -0.00000000000E+00 -0.00000000000E+00 -0.65310327857E+03  0.65310327857E+03  0.00000000000E+00 0.  1.
        -24    2    1    2    0    0  0.86604637908E+02  0.47945381262E+02 -0.22171307956E+03  0.25612568983E+03  0.81514148797E+02 0.  0.
        254    2    1    2    0    0 -0.86604637908E+02 -0.47945381262E+02  0.10087627711E+03  0.92924406485E+03  0.91843311455E+03 0.  0.
         23    2    4    4    0    0  0.51691626962E+02  0.56649765670E+02 -0.38580760445E+03  0.40391850633E+03  0.91768359776E+02 0.  0.
         23    2    4    4    0    0 -0.13829626487E+03 -0.10459514693E+03  0.48668388155E+03  0.52532555853E+03  0.95077548558E+02 0.  0.
          1    1    3    3  502    0  0.42851123431E+02 -0.19068730653E+02 -0.64949844469E+02  0.80114402979E+02  0.00000000000E+00 0. -1.
         -2    1    3    3    0  502  0.43753514477E+02  0.67014111915E+02 -0.15676323509E+03  0.17601128686E+03  0.00000000000E+00 0.  1.
         11    1    5    5    0    0 -0.18601528896E+02  0.35241558701E+02 -0.20339542888E+03  0.20726235748E+03  0.00000000000E+00 0. -1.
        -11    1    5    5    0    0  0.70293155858E+02  0.21408206968E+02 -0.18241217556E+03  0.19665614885E+03  0.00000000000E+00 0.  1.
          1    1    6    6  503    0  0.90258277063E+01  0.42201256051E+01  0.62516401796E+02  0.63305414614E+02  0.00000000000E+00 0. -1.
         -1    1    6    6    0  503 -0.14732209258E+03 -0.10881527254E+03  0.42416747976E+03  0.46202014391E+03  0.00000000000E+00 0.  1.
<mgrwt>
<rscale>  0 0.11791946E+04</rscale>
<asrwt>0</asrwt>
<pdfrwt beam="1">  1        1 0.81887150E-01 0.11791946E+04</pdfrwt>
<pdfrwt beam="2">  1       -2 0.10047743E+00 0.11791946E+04</pdfrwt>
<totfact> 0.28768939E+01</totfact>
</mgrwt>
</event>
<event>
12    4  0.4320235E-008  0.1859418E+04  0.7818608E-02  0.8675324E-01
          1   -1    0    0  501    0  0.00000000000E+00  0.00000000000E+00  0.72501167151E+03  0.72501167151E+03  0.00000000000E+00 0. -1.
         -2   -1    0    0    0  501 -0.00000000000E+00 -0.00000000000E+00 -0.11922001132E+04  0.11922001132E+04  0.00000000000E+00 0.  1.
        -24    2    1    2    0    0  0.58605627451E+03 -0.14092398695E+03  0.20496756679E+03  0.64140278532E+03  0.77873632194E+02 0.  0.
        254    2    1    2    0    0 -0.58605627451E+03  0.14092398695E+03 -0.67215600850E+03  0.12758089994E+04  0.90142851973E+03 0.  0.
         23    2    4    4    0    0 -0.74238540303E+03  0.29683307041E+03 -0.65230812666E+03  0.10359387347E+04  0.91745362551E+02 0.  0.
         23    2    4    4    0    0  0.15632912851E+03 -0.15590908346E+03 -0.19847881836E+02  0.23987026473E+03  0.91637147276E+02 0.  0.
          3    1    3    3  502    0  0.51793915310E+03 -0.10399816970E+03  0.16075745203E+03  0.55219520462E+03  0.00000000000E+00 0. -1.
         -4    1    3    3    0  502  0.68117121409E+02 -0.36925817249E+02  0.44210114755E+02  0.89207580705E+02  0.00000000000E+00 0.  1.
         11    1    5    5    0    0 -0.48404873010E+02  0.40008150746E+02 -0.72102179604E+02  0.95615940935E+02  0.00000000000E+00 0. -1.
        -11    1    5    5    0    0 -0.69398053002E+03  0.25682491967E+03 -0.58020594706E+03  0.94032279373E+03  0.00000000000E+00 0.  1.
          1    1    6    6  503    0  0.89874178848E+02 -0.79701456019E+02 -0.55937930255E+02  0.13250940403E+03  0.00000000000E+00 0. -1.
         -1    1    6    6    0  503  0.66454949667E+02 -0.76207627440E+02  0.36090048419E+02  0.10736086070E+03  0.00000000000E+00 0.  1.
<mgrwt>
<rscale>  0 0.18594182E+04</rscale>
<asrwt>0</asrwt>
<pdfrwt beam="1">  1        1 0.11154026E+00 0.18594182E+04</pdfrwt>
<pdfrwt beam="2">  1       -2 0.18341540E+00 0.18594182E+04</pdfrwt>
<totfact> 0.36443709E+00</totfact>
</mgrwt>
</event>
<event>
12    4  0.4320235E-008  0.2004743E+04  0.7818608E-02  0.8604406E-01
          1   -1    0    0  501    0  0.00000000000E+00  0.00000000000E+00  0.68204972164E+03  0.68204972164E+03  0.00000000000E+00 0. -1.
         -2   -1    0    0    0  501 -0.00000000000E+00 -0.00000000000E+00 -0.14731309054E+04  0.14731309054E+04  0.00000000000E+00 0.  1.
        -24    2    1    2    0    0  0.65817326063E+03 -0.15097425032E+03 -0.77276089458E+03  0.10301438083E+04  0.89730709571E+02 0.  0.
        254    2    1    2    0    0 -0.65817326063E+03  0.15097425032E+03 -0.18320289218E+02  0.11250368188E+04  0.89965934966E+03 0.  0.
         23    2    4    4    0    0  0.30937234117E+02  0.13307755418E+03 -0.32571564425E+03  0.36503144672E+03  0.92144062779E+02 0.  0.
         23    2    4    4    0    0 -0.68911049475E+03  0.17896696140E+02  0.30739535503E+03  0.76000537210E+03  0.89009525424E+02 0.  0.
          1    1    3    3  502    0  0.23907728161E+02  0.11199435880E+02 -0.34002890715E+02  0.43048849076E+02  0.00000000000E+00 0. -1.
         -2    1    3    3    0  502  0.63426553247E+03 -0.16217368620E+03 -0.73875800386E+03  0.98709495918E+03  0.00000000000E+00 0.  1.
         11    1    5    5    0    0  0.56055743392E+02  0.12356088207E+03 -0.29151201974E+03  0.32154128133E+03  0.00000000000E+00 0.  1.
        -11    1    5    5    0    0 -0.25118509275E+02  0.95166721019E+01 -0.34203624508E+02  0.43490165389E+02  0.00000000000E+00 0. -1.
          3    1    6    6  503    0 -0.10743709165E+01  0.14667011859E+01 -0.41588156853E+01  0.45388581317E+01  0.00000000000E+00 0. -1.
         -3    1    6    6    0  503 -0.68803612383E+03  0.16429994954E+02  0.31155417072E+03  0.75546651397E+03  0.00000000000E+00 0.  1.
<mgrwt>
<rscale>  0 0.20047429E+04</rscale>
<asrwt>0</asrwt>
<pdfrwt beam="1">  1        1 0.10493073E+00 0.20047429E+04</pdfrwt>
<pdfrwt beam="2">  1       -2 0.22663552E+00 0.20047429E+04</pdfrwt>
<totfact> 0.20649047E+00</totfact>
</mgrwt>
</event>
<event>
12    4  0.4320235E-008  0.1581711E+04  0.7818608E-02  0.8831863E-01
         -2   -1    0    0    0  501 -0.00000000000E+00  0.00000000000E+00  0.19939406726E+04  0.19939406726E+04  0.00000000000E+00 0.  1.
          1   -1    0    0  501    0  0.00000000000E+00 -0.00000000000E+00 -0.31367643549E+03  0.31367643549E+03  0.00000000000E+00 0. -1.
        -24    2    1    2    0    0 -0.10404834290E+03  0.21976033787E+03  0.12550083096E+04  0.12811155875E+04  0.84205863426E+02 0.  0.
        254    2    1    2    0    0  0.10404834290E+03 -0.21976033787E+03  0.42525592747E+03  0.10265015206E+04  0.90207655119E+03 0.  0.
         23    2    4    4    0    0 -0.25780611851E+03 -0.39123281389E+03  0.38608390317E+03  0.61423096639E+03  0.93229771992E+02 0.  0.
         23    2    4    4    0    0  0.36185446141E+03  0.17147247601E+03  0.39172024307E+02  0.41227055423E+03  0.89950548184E+02 0.  0.
          1    1    3    3  502    0  0.10351304447E+02  0.57582577051E+02  0.31441156319E+03  0.31980858924E+03  0.00000000000E+00 0. -1.
         -2    1    3    3    0  502 -0.11439964735E+03  0.16217776082E+03  0.94059674645E+03  0.96130699823E+03  0.00000000000E+00 0.  1.
         11    1    5    5    0    0 -0.21087964806E+03 -0.35617939569E+03  0.30479224486E+03  0.51403531047E+03  0.00000000000E+00 0. -1.
        -11    1    5    5    0    0 -0.46926470451E+02 -0.35053418200E+02  0.81291658301E+02  0.10019565592E+03  0.00000000000E+00 0.  1.
          1    1    6    6  503    0  0.32248499591E+03  0.18003377508E+03  0.42852467050E+02  0.37181321478E+03  0.00000000000E+00 0. -1.
         -1    1    6    6    0  503  0.39369465507E+02 -0.85612990679E+01 -0.36804427433E+01  0.40457339444E+02  0.00000000000E+00 0.  1.
<mgrwt>
<rscale>  0 0.15817107E+04</rscale>
<asrwt>0</asrwt>
<pdfrwt beam="1">  1        1 0.48257914E-01 0.15817107E+04</pdfrwt>
<pdfrwt beam="2">  1       -2 0.30676010E+00 0.15817107E+04</pdfrwt>
<totfact> 0.20128096E+00</totfact>
</mgrwt>
</event>
<event>
12    4  0.4320235E-008  0.2169685E+04  0.7818608E-02  0.8531153E-01
         -2   -1    0    0    0  501 -0.00000000000E+00  0.00000000000E+00  0.37076678819E+03  0.37076678819E+03  0.00000000000E+00 0.  1.
          1   -1    0    0  501    0  0.00000000000E+00 -0.00000000000E+00 -0.31741873173E+04  0.31741873173E+04  0.00000000000E+00 0. -1.
        -24    2    1    2    0    0 -0.15364744555E+03 -0.62133043443E+03 -0.22025977408E+04  0.22953360185E+04  0.86438323007E+02 0.  0.
        254    2    1    2    0    0  0.15364744555E+03  0.62133043443E+03 -0.60082278833E+03  0.12496180870E+04  0.88932462812E+03 0.  0.
         23    2    4    4    0    0  0.13707491346E+03  0.70817988809E+03 -0.10197901437E+03  0.73410738312E+03  0.90585014129E+02 0.  0.
         23    2    4    4    0    0  0.16572532094E+02 -0.86849453658E+02 -0.49884377395E+03  0.51551070391E+03  0.95334666370E+02 0.  0.
          1    1    3    3  502    0 -0.11831363397E+03 -0.55456167252E+03 -0.20100050207E+04  0.20884580312E+04  0.00000000000E+00 0. -1.
         -2    1    3    3    0  502 -0.35333811588E+02 -0.66768761909E+02 -0.19259272004E+03  0.20687798728E+03  0.00000000000E+00 0.  1.
         11    1    5    5    0    0  0.65488946848E+01  0.25362163628E+03 -0.24668150020E+02  0.25490260892E+03  0.00000000000E+00 0. -1.
        -11    1    5    5    0    0  0.13052601877E+03  0.45455825181E+03 -0.77310864353E+02  0.47920477419E+03  0.00000000000E+00 0.  1.
          3    1    6    6  503    0  0.47671259975E+02 -0.50381264047E+02 -0.17677387996E+03  0.18989424802E+03  0.00000000000E+00 0. -1.
         -3    1    6    6    0  503 -0.31098727881E+02 -0.36468189612E+02 -0.32206989400E+03  0.32561645589E+03  0.00000000000E+00 0.  1.
<mgrwt>
<rscale>  0 0.21696850E+04</rscale>
<asrwt>0</asrwt>
<pdfrwt beam="1">  1        1 0.48833650E+00 0.21696850E+04</pdfrwt>
<pdfrwt beam="2">  1       -2 0.57041045E-01 0.21696850E+04</pdfrwt>
<totfact> 0.10302924E+00</totfact>
</mgrwt>
</event>
<event>
12    4  0.4320235E-008  0.1548844E+04  0.7818608E-02  0.8852607E-01
         -2   -1    0    0    0  501 -0.00000000000E+00  0.00000000000E+00  0.70051667501E+03  0.70051667501E+03  0.00000000000E+00 0.  1.
          1   -1    0    0  501    0  0.00000000000E+00 -0.00000000000E+00 -0.85612408450E+03  0.85612408450E+03  0.00000000000E+00 0. -1.
        -24    2    1    2    0    0 -0.33836006107E+03 -0.35904728202E+03  0.76735170114E+02  0.50559399802E+03  0.79589715685E+02 0.  0.
        254    2    1    2    0    0  0.33836006107E+03  0.35904728202E+03 -0.23234257961E+03  0.10510467615E+04  0.89850639336E+03 0.  0.
         23    2    4    4    0    0 -0.35501104441E+02 -0.11675971163E+03 -0.39059349533E+03  0.41903683551E+03  0.90196630987E+02 0.  0.
         23    2    4    4    0    0  0.37386116551E+03  0.47580699365E+03  0.15825091572E+03  0.63200992599E+03  0.90712336219E+02 0.  0.
          3    1    3    3  502    0 -0.21021276061E+03 -0.18147070541E+03  0.15183856276E+02  0.27812150427E+03  0.00000000000E+00 0. -1.
         -4    1    3    3    0  502 -0.12814730046E+03 -0.17757657661E+03  0.61551313837E+02  0.22747249375E+03  0.00000000000E+00 0.  1.
         11    1    5    5    0    0 -0.45947233917E+01 -0.10196010687E+03 -0.35601119796E+03  0.37035246448E+03  0.00000000000E+00 0. -1.
        -11    1    5    5    0    0 -0.30906381049E+02 -0.14799604766E+02 -0.34582297370E+02  0.48684371026E+02  0.00000000000E+00 0.  1.
          1    1    6    6  503    0  0.28903469343E+03  0.39873557644E+03  0.96561255130E+02  0.50185176090E+03  0.00000000000E+00 0. -1.
         -1    1    6    6    0  503  0.84826472086E+02  0.77071417206E+02  0.61689660587E+02  0.13015816509E+03  0.00000000000E+00 0.  1.
<mgrwt>
<rscale>  0 0.15488437E+04</rscale>
<asrwt>0</asrwt>
<pdfrwt beam="1">  1        1 0.13171140E+00 0.15488437E+04</pdfrwt>
<pdfrwt beam="2">  1       -2 0.10777180E+00 0.15488437E+04</pdfrwt>
<totfact> 0.11534973E+01</totfact>
</mgrwt>
</event>
<event>
12    4  0.4320235E-008  0.1869242E+04  0.7818608E-02  0.8670320E-01
          1   -1    0    0  501    0  0.00000000000E+00  0.00000000000E+00  0.18716589061E+04  0.18716589061E+04  0.00000000000E+00 0. -1.
         -2   -1    0    0    0  501 -0.00000000000E+00 -0.00000000000E+00 -0.46670691748E+03  0.46670691748E+03  0.00000000000E+00 0.  1.
        -24    2    1    2    0    0 -0.28130839552E+03 -0.25399264036E+02  0.13430363685E+04  0.13747118823E+04  0.79413703425E+02 0.  0.
        254    2    1    2    0    0  0.28130839552E+03  0.25399264036E+02  0.61915620127E+02  0.96365394127E+03  0.91924743051E+03 0.  0.
         23    2    4    4    0    0  0.11401701356E+03  0.46233653778E+03  0.30991288593E+02  0.48611839619E+03  0.92712898810E+02 0.  0.
         23    2    4    4    0    0  0.16729138196E+03 -0.43693727374E+03  0.30924331534E+02  0.47753554507E+03  0.90461565665E+02 0.  0.
          1    1    3    3  502    0 -0.12207974976E+03 -0.41181669245E+02  0.72127317060E+03  0.73268982647E+03  0.00000000000E+00 0. -1.
         -2    1    3    3    0  502 -0.15922864576E+03  0.15782405209E+02  0.62176319792E+03  0.64202205588E+03  0.00000000000E+00 0.  1.
         11    1    5    5    0    0  0.10604295456E+03  0.39852301667E+03  0.57844554754E+02  0.41642729923E+03  0.00000000000E+00 0.  1.
        -11    1    5    5    0    0  0.79740589989E+01  0.63813521109E+02 -0.26853266160E+02  0.69691096969E+02  0.00000000000E+00 0. -1.
          2    1    6    6  503    0 -0.17602557299E+01 -0.90328213728E+02  0.14895430682E+02  0.91565050925E+02  0.00000000000E+00 0. -1.
         -2    1    6    6    0  503  0.16905163769E+03 -0.34660906001E+03  0.16028900852E+02  0.38597049415E+03  0.00000000000E+00 0.  1.
<mgrwt>
<rscale>  0 0.18692417E+04</rscale>
<asrwt>0</asrwt>
<pdfrwt beam="1">  1        1 0.28794752E+00 0.18692417E+04</pdfrwt>
<pdfrwt beam="2">  1       -2 0.71801065E-01 0.18692417E+04</pdfrwt>
<totfact> 0.52738974E+00</totfact>
</mgrwt>
</event>
<event>
12    4  0.4320235E-008  0.1549165E+04  0.7818608E-02  0.8852401E-01
          1   -1    0    0  501    0  0.00000000000E+00  0.00000000000E+00  0.47804380808E+03  0.47804380808E+03  0.00000000000E+00 0. -1.
         -2   -1    0    0    0  501 -0.00000000000E+00 -0.00000000000E+00 -0.12550695996E+04  0.12550695996E+04  0.00000000000E+00 0.  1.
        -24    2    1    2    0    0 -0.50724354222E+03 -0.10553201462E+02 -0.17580585066E+03  0.54331884075E+03  0.82947479747E+02 0.  0.
        254    2    1    2    0    0  0.50724354222E+03  0.10553201462E+02 -0.60121994086E+03  0.11897945669E+04  0.89260199028E+03 0.  0.
         23    2    4    4    0    0 -0.18015505909E+03 -0.17987557348E+03 -0.32467868238E+02  0.27287497490E+03  0.92712039184E+02 0.  0.
         23    2    4    4    0    0  0.68739860132E+03  0.19042877494E+03 -0.56875207262E+03  0.91691959204E+03  0.92101372058E+02 0.  0.
          3    1    3    3  502    0 -0.17739410766E+03  0.11637572718E+02 -0.10064386280E+03  0.20428727237E+03  0.00000000000E+00 0. -1.
         -4    1    3    3    0  502 -0.32984943456E+03 -0.22190774180E+02 -0.75161987860E+02  0.33903156838E+03  0.00000000000E+00 0.  1.
         11    1    5    5    0    0 -0.70891773086E+02 -0.73164300052E+02  0.32455692964E+02  0.10692067293E+03  0.00000000000E+00 0.  1.
        -11    1    5    5    0    0 -0.10926328601E+03 -0.10671127343E+03 -0.64923561202E+02  0.16595430198E+03  0.00000000000E+00 0. -1.
          1    1    6    6  503    0  0.48246133506E+03  0.14878505101E+03 -0.35030023280E+03  0.61450482857E+03  0.00000000000E+00 0. -1.
         -1    1    6    6    0  503  0.20493726625E+03  0.41643723928E+02 -0.21845183982E+03  0.30241476347E+03  0.00000000000E+00 0.  1.
<mgrwt>
<rscale>  0 0.15491653E+04</rscale>
<asrwt>0</asrwt>
<pdfrwt beam="1">  1        1 0.73545202E-01 0.15491653E+04</pdfrwt>
<pdfrwt beam="2">  1       -2 0.19308763E+00 0.15491653E+04</pdfrwt>
<totfact> 0.58662042E+00</totfact>
</mgrwt>
</event>
<event>
12    4  0.4320235E-008  0.1788286E+04  0.7818608E-02  0.8712554E-01
         -2   -1    0    0    0  501 -0.00000000000E+00  0.00000000000E+00  0.31077312234E+03  0.31077312234E+03  0.00000000000E+00 0.  1.
          1   -1    0    0  501    0  0.00000000000E+00 -0.00000000000E+00 -0.25725900827E+04  0.25725900827E+04  0.00000000000E+00 0. -1.
        -24    2    1    2    0    0 -0.66908277236E+03  0.32678730975E+02 -0.78258965381E+03  0.10332141891E+04  0.79657632916E+02 0.  0.
        254    2    1    2    0    0  0.66908277236E+03 -0.32678730975E+02 -0.14792273066E+04  0.18501490160E+04  0.88667823997E+03 0.  0.
         23    2    4    4    0    0 -0.87267439089E+02  0.65820529005E+02 -0.83720069311E+03  0.84915459257E+03  0.90612215334E+02 0.  0.
         23    2    4    4    0    0  0.75635021145E+03 -0.98499259981E+02 -0.64202661346E+03  0.10009944235E+04  0.89576318377E+02 0.  0.
          3    1    3    3  502    0 -0.59046353644E+03  0.33360248466E+02 -0.64769644713E+03  0.87708082961E+03  0.00000000000E+00 0. -1.
         -4    1    3    3    0  502 -0.78619235920E+02 -0.68151749101E+00 -0.13489320668E+03  0.15613335944E+03  0.00000000000E+00 0.  1.
         11    1    5    5    0    0 -0.94821325766E+02  0.58180007392E+02 -0.82662977221E+03  0.83408199680E+03  0.00000000000E+00 0.  1.
        -11    1    5    5    0    0  0.75538866772E+01  0.76405216135E+01 -0.10570920899E+02  0.15072595765E+02  0.00000000000E+00 0. -1.
          4    1    6    6  503    0  0.65494987784E+02 -0.72513905217E+01 -0.25831226930E+02  0.70777315392E+02  0.00000000000E+00 0. -1.
         -4    1    6    6    0  503  0.69085522367E+03 -0.91247869459E+02 -0.61619538653E+03  0.93021710806E+03  0.00000000000E+00 0.  1.
<mgrwt>
<rscale>  0 0.17882862E+04</rscale>
<asrwt>0</asrwt>
<pdfrwt beam="1">  1        1 0.39578306E+00 0.17882862E+04</pdfrwt>
<pdfrwt beam="2">  1       -2 0.47811253E-01 0.17882862E+04</pdfrwt>
<totfact> 0.41523735E+00</totfact>
</mgrwt>
</event>
<event>
12    4  0.4320235E-008  0.2606894E+04  0.7818608E-02  0.8365863E-01
          1   -1    0    0  501    0  0.00000000000E+00  0.00000000000E+00  0.26147492474E+04  0.26147492474E+04  0.00000000000E+00 0. -1.
         -2   -1    0    0    0  501 -0.00000000000E+00 -0.00000000000E+00 -0.64976562940E+03  0.64976562940E+03  0.00000000000E+00 0.  1.
        -24    2    1    2    0    0  0.75266625207E+03  0.79574350507E+03  0.12796830266E+04  0.16862131517E+04  0.77536646654E+02 0.  0.
        254    2    1    2    0    0 -0.75266625207E+03 -0.79574350507E+03  0.68530059149E+03  0.15783017252E+04  0.90646854444E+03 0.  0.
         23    2    4    4    0    0 -0.68756970919E+03 -0.33954035027E+03  0.31805698181E+02  0.77311967798E+03  0.93073517190E+02 0.  0.
         23    2    4    4    0    0 -0.65096542889E+02 -0.45620315481E+03  0.65349489331E+03  0.80518204717E+03  0.94359287600E+02 0.  0.
          1    1    3    3  502    0  0.54177229639E+03  0.61452611688E+03  0.92778059134E+03  0.12377141815E+04  0.00000000000E+00 0. -1.
         -2    1    3    3    0  502  0.21089395568E+03  0.18121738819E+03  0.35190243521E+03  0.44849897016E+03  0.00000000000E+00 0.  1.
         11    1    5    5    0    0 -0.57358010152E+03 -0.28947888607E+03  0.60582768447E+02  0.64533900407E+03  0.00000000000E+00 0.  1.
        -11    1    5    5    0    0 -0.11398960766E+03 -0.50061464192E+02 -0.28777070266E+02  0.12778067391E+03  0.00000000000E+00 0. -1.
          1    1    6    6  503    0 -0.54984745895E+02 -0.14641268301E+03  0.17126982696E+03  0.23193393382E+03  0.00000000000E+00 0. -1.
         -1    1    6    6    0  503 -0.10111796994E+02 -0.30979047179E+03  0.48222506635E+03  0.57324811336E+03  0.00000000000E+00 0.  1.
<mgrwt>
<rscale>  0 0.26068941E+04</rscale>
<asrwt>0</asrwt>
<pdfrwt beam="1">  1        1 0.40226911E+00 0.26068941E+04</pdfrwt>
<pdfrwt beam="2">  1       -2 0.99963944E-01 0.26068941E+04</pdfrwt>
<totfact> 0.72076571E-01</totfact>
</mgrwt>
</event>
<event>
12    4  0.4320235E-008  0.2032872E+04  0.7818608E-02  0.8591404E-01
         -2   -1    0    0    0  501 -0.00000000000E+00  0.00000000000E+00  0.58879747360E+03  0.58879747360E+03  0.00000000000E+00 0.  1.
          1   -1    0    0  501    0  0.00000000000E+00 -0.00000000000E+00 -0.17546654518E+04  0.17546654518E+04  0.00000000000E+00 0. -1.
        -24    2    1    2    0    0 -0.17163143205E+03  0.32874992286E+03 -0.13018231397E+04  0.13558466226E+04  0.77734912941E+02 0.  0.
        254    2    1    2    0    0  0.17163143205E+03 -0.32874992286E+03  0.13595516151E+03  0.98761630280E+03  0.90518964608E+03 0.  0.
         23    2    4    4    0    0 -0.23964180143E+03  0.15796627192E+03 -0.76316010464E+02  0.30993516822E+03  0.88623580310E+02 0.  0.
         23    2    4    4    0    0  0.41127323348E+03 -0.48671619478E+03  0.21227117197E+03  0.67768113458E+03  0.90301400180E+02 0.  0.
          3    1    3    3  502    0 -0.17448460055E+03  0.31355805355E+03 -0.11889546551E+04  0.12419245954E+04  0.00000000000E+00 0. -1.
         -4    1    3    3    0  502  0.28531685038E+01  0.15191869306E+02 -0.11286848460E+03  0.11392202719E+03  0.00000000000E+00 0.  1.
         11    1    5    5    0    0 -0.22417342259E+03  0.16452054482E+03 -0.85337639492E+02  0.29086637100E+03  0.00000000000E+00 0.  1.
        -11    1    5    5    0    0 -0.15468378845E+02 -0.65542728950E+01  0.90216290275E+01  0.19068797225E+02  0.00000000000E+00 0. -1.
          1    1    6    6  503    0  0.10223607865E+03 -0.14399738622E+03  0.19911268224E+02  0.17771865861E+03  0.00000000000E+00 0. -1.
         -1    1    6    6    0  503  0.30903715484E+03 -0.34271880856E+03  0.19235990375E+03  0.49996247597E+03  0.00000000000E+00 0.  1.
<mgrwt>
<rscale>  0 0.20328724E+04</rscale>
<asrwt>0</asrwt>
<pdfrwt beam="1">  1        1 0.26994853E+00 0.20328724E+04</pdfrwt>
<pdfrwt beam="2">  1       -2 0.90584227E-01 0.20328724E+04</pdfrwt>
<totfact> 0.36985959E+00</totfact>
</mgrwt>
</event>
<event>
12    4  0.4320235E-008  0.1676491E+04  0.7818608E-02  0.8774887E-01
         -2   -1    0    0    0  501 -0.00000000000E+00  0.00000000000E+00  0.28210928907E+03  0.28210928907E+03  0.00000000000E+00 0.  1.
          3   -1    0    0  501    0  0.00000000000E+00 -0.00000000000E+00 -0.24907212568E+04  0.24907212568E+04  0.00000000000E+00 0. -1.
        -24    2    1    2    0    0 -0.27671342751E+02 -0.21203857180E+03 -0.16998358626E+04  0.17150829617E+04  0.79633828872E+02 0.  0.
        254    2    1    2    0    0  0.27671342751E+02  0.21203857180E+03 -0.50877610510E+03  0.10577475841E+04  0.90235844731E+03 0.  0.
         23    2    4    4    0    0 -0.16514124472E+03  0.47464566942E+03 -0.91075887483E+02  0.52013703807E+03  0.98425499182E+02 0.  0.
         23    2    4    4    0    0  0.19281258747E+03 -0.26260709762E+03 -0.41770021761E+03  0.53761054604E+03  0.91719386263E+02 0.  0.
          3    1    3    3  502    0  0.12097432783E+02 -0.16788241252E+03 -0.13015396016E+04  0.13123780655E+04  0.00000000000E+00 0. -1.
         -4    1    3    3    0  502 -0.39768775534E+02 -0.44156159277E+02 -0.39829626103E+03  0.40270489624E+03  0.00000000000E+00 0.  1.
         11    1    5    5    0    0 -0.94174768591E+02  0.19750198372E+03  0.34711358240E+01  0.21883319994E+03  0.00000000000E+00 0. -1.
        -11    1    5    5    0    0 -0.70966476126E+02  0.27714368570E+03 -0.94547023307E+02  0.30130383813E+03  0.00000000000E+00 0.  1.
          3    1    6    6  503    0  0.14045099879E+03 -0.22310793986E+03 -0.37828606451E+03  0.46108999392E+03  0.00000000000E+00 0. -1.
         -3    1    6    6    0  503  0.52361588680E+02 -0.39499157753E+02 -0.39414153106E+02  0.76520552124E+02  0.00000000000E+00 0.  1.
<mgrwt>
<rscale>  0 0.16764911E+04</rscale>
<asrwt>0</asrwt>
<pdfrwt beam="1">  1        3 0.38318787E+00 0.16764911E+04</pdfrwt>
<pdfrwt beam="2">  1       -2 0.43401431E-01 0.16764911E+04</pdfrwt>
<totfact> 0.26791239E-01</totfact>
</mgrwt>
</event>
<event>
12    4  0.4320235E-008  0.1384580E+04  0.7818608E-02  0.8965056E-01
         -2   -1    0    0    0  501 -0.00000000000E+00  0.00000000000E+00  0.11025612834E+04  0.11025612834E+04  0.00000000000E+00 0.  1.
          1   -1    0    0  501    0  0.00000000000E+00 -0.00000000000E+00 -0.43468394648E+03  0.43468394648E+03  0.00000000000E+00 0. -1.
        -24    2    1    2    0    0 -0.12719496351E+03 -0.32820909034E+03  0.38920476884E+03  0.53084346924E+03  0.80091641386E+02 0.  0.
        254    2    1    2    0    0  0.12719496351E+03  0.32820909034E+03  0.27867256803E+03  0.10064017606E+04  0.90071434863E+03 0.  0.
         23    2    4    4    0    0 -0.46005539934E+02  0.55168653135E+02 -0.30933078247E+03  0.32903465393E+03  0.86128859915E+02 0.  0.
         23    2    4    4    0    0  0.17320050345E+03  0.27304043721E+03  0.58800335050E+03  0.67736710667E+03  0.92351298059E+02 0.  0.
          3    1    3    3  502    0 -0.40833585768E+02 -0.13796086704E+03  0.21559632743E+03  0.25919559981E+03  0.00000000000E+00 0. -1.
         -4    1    3    3    0  502 -0.86361377744E+02 -0.19024822330E+03  0.17360844142E+03  0.27164786943E+03  0.00000000000E+00 0.  1.
         11    1    5    5    0    0  0.25255578158E+02  0.80557161077E+01 -0.82268168330E+02  0.86433733637E+02  0.00000000000E+00 0.  1.
        -11    1    5    5    0    0 -0.71261118092E+02  0.47112937027E+02 -0.22706261414E+03  0.24260092029E+03  0.00000000000E+00 0. -1.
          3    1    6    6  503    0  0.17685734601E+03  0.24572798633E+03  0.56682445047E+03  0.64261241954E+03  0.00000000000E+00 0. -1.
         -3    1    6    6    0  503 -0.36568425676E+01  0.27312450878E+02  0.21178900031E+02  0.34754687123E+02  0.00000000000E+00 0.  1.
<mgrwt>
<rscale>  0 0.13845804E+04</rscale>
<asrwt>0</asrwt>
<pdfrwt beam="1">  1        1 0.66874454E-01 0.13845804E+04</pdfrwt>
<pdfrwt beam="2">  1       -2 0.16962481E+00 0.13845804E+04</pdfrwt>
<totfact> 0.98088288E+00</totfact>
</mgrwt>
</event>
<event>
12    4  0.4320235E-008  0.1774215E+04  0.7818608E-02  0.8720133E-01
          1   -1    0    0  501    0  0.00000000000E+00  0.00000000000E+00  0.12160174753E+04  0.12160174753E+04  0.00000000000E+00 0. -1.
         -2   -1    0    0    0  501 -0.00000000000E+00 -0.00000000000E+00 -0.64716129809E+03  0.64716129809E+03  0.00000000000E+00 0.  1.
        -24    2    1    2    0    0 -0.17870378396E+03  0.17576493290E+02 -0.44980658327E+03  0.49115355024E+03  0.81620291851E+02 0.  0.
        254    2    1    2    0    0  0.17870378396E+03 -0.17576493290E+02  0.10186627604E+04  0.13720252231E+04  0.90140746491E+03 0.  0.
         23    2    4    4    0    0  0.34264246489E+01 -0.37573227825E+03  0.84207599996E+03  0.92668659586E+03  0.92030277242E+02 0.  0.
         23    2    4    4    0    0  0.17527735932E+03  0.35815578496E+03  0.17658676048E+03  0.44533862724E+03  0.90254584077E+02 0.  0.
          1    1    3    3  502    0 -0.11084195875E+02  0.26120925035E+02 -0.48968486968E+02  0.56595713962E+02  0.00000000000E+00 0. -1.
         -2    1    3    3    0  502 -0.16761958809E+03 -0.85444317452E+01 -0.40083809630E+03  0.43455783628E+03  0.00000000000E+00 0.  1.
         11    1    5    5    0    0  0.38737595917E+02 -0.28349542001E+03  0.58317925091E+03  0.64959086601E+03  0.00000000000E+00 0. -1.
        -11    1    5    5    0    0 -0.35311171268E+02 -0.92236858236E+02  0.25889674905E+03  0.27709572985E+03  0.00000000000E+00 0.  1.
          3    1    6    6  503    0  0.14318244141E+03  0.33685490979E+03  0.17753650604E+03  0.40680665279E+03  0.00000000000E+00 0. -1.
         -3    1    6    6    0  503  0.32094917908E+02  0.21300875172E+02 -0.94974555959E+00  0.38531974453E+02  0.00000000000E+00 0.  1.
<mgrwt>
<rscale>  0 0.17742147E+04</rscale>
<asrwt>0</asrwt>
<pdfrwt beam="1">  1        1 0.18707961E+00 0.17742147E+04</pdfrwt>
<pdfrwt beam="2">  1       -2 0.99563277E-01 0.17742147E+04</pdfrwt>
<totfact> 0.72013314E+00</totfact>
</mgrwt>
</event>
<event>
12    4  0.4320235E-008  0.1547662E+04  0.7818608E-02  0.8853363E-01
          1   -1    0    0  501    0  0.00000000000E+00  0.00000000000E+00  0.93070993093E+03  0.93070993093E+03  0.00000000000E+00 0. -1.
         -2   -1    0    0    0  501 -0.00000000000E+00 -0.00000000000E+00 -0.64339512732E+03  0.64339512732E+03  0.00000000000E+00 0.  1.
        -24    2    1    2    0    0 -0.36560179668E+03  0.34128362616E+02 -0.22467167345E+03  0.43705878844E+03  0.75588390830E+02 0.  0.
        254    2    1    2    0    0  0.36560179668E+03 -0.34128362616E+02  0.51198647706E+03  0.11370462698E+04  0.94652767952E+03 0.  0.
         23    2    4    4    0    0 -0.13087635635E+03 -0.25637075912E+03  0.50109258053E+03  0.58517296429E+03  0.92081687066E+02 0.  0.
         23    2    4    4    0    0  0.49647815303E+03  0.22224239650E+03  0.10893896532E+02  0.55187330551E+03  0.92537717223E+02 0.  0.
          1    1    3    3  502    0 -0.11428116238E+03 -0.23560822414E+02 -0.61335668742E+02  0.13182321756E+03  0.00000000000E+00 0. -1.
         -2    1    3    3    0  502 -0.25132063430E+03  0.57689185030E+02 -0.16333600471E+03  0.30523557088E+03  0.00000000000E+00 0.  1.
         11    1    5    5    0    0 -0.52158381766E+02 -0.15242568468E+03  0.35195530443E+03  0.38707444046E+03  0.00000000000E+00 0.  1.
        -11    1    5    5    0    0 -0.78717974586E+02 -0.10394507444E+03  0.14913727610E+03  0.19809852384E+03  0.00000000000E+00 0. -1.
          2    1    6    6  503    0  0.19954890173E+03  0.82120283287E+02  0.49175615308E+02  0.22131820136E+03  0.00000000000E+00 0. -1.
         -2    1    6    6    0  503  0.29692925130E+03  0.14012211322E+03 -0.38281718775E+02  0.33055510415E+03  0.00000000000E+00 0.  1.
<mgrwt>
<rscale>  0 0.15476618E+04</rscale>
<asrwt>0</asrwt>
<pdfrwt beam="1">  1        1 0.14318614E+00 0.15476618E+04</pdfrwt>
<pdfrwt beam="2">  1       -2 0.98983865E-01 0.15476618E+04</pdfrwt>
<totfact> 0.12277241E+01</totfact>
</mgrwt>
</event>
<event>
12    4  0.4320235E-008  0.1369640E+04  0.7818608E-02  0.8976093E-01
         -2   -1    0    0    0  501 -0.00000000000E+00  0.00000000000E+00  0.46677515658E+03  0.46677515658E+03  0.00000000000E+00 0.  1.
          1   -1    0    0  501    0  0.00000000000E+00 -0.00000000000E+00 -0.10047200996E+04  0.10047200996E+04  0.00000000000E+00 0. -1.
        -24    2    1    2    0    0 -0.62199536727E+02 -0.51843131719E+02 -0.55671366035E+03  0.56792410093E+03  0.77789408796E+02 0.  0.
        254    2    1    2    0    0  0.62199536727E+02  0.51843131719E+02  0.18768717287E+02  0.90357115529E+03  0.89974000425E+03 0.  0.
         23    2    4    4    0    0 -0.20226397918E+03 -0.34073897710E+03  0.92143132589E+02  0.41681435881E+03  0.90719816123E+02 0.  0.
         23    2    4    4    0    0  0.26446351590E+03  0.39258210882E+03 -0.73374415301E+02  0.48675679648E+03  0.86525780476E+02 0.  0.
          3    1    3    3  502    0 -0.41070373352E+02 -0.64089131621E+02 -0.28088559166E+03  0.29101702349E+03  0.00000000000E+00 0. -1.
         -4    1    3    3    0  502 -0.21129163375E+02  0.12245999902E+02 -0.27582806868E+03  0.27690707743E+03  0.00000000000E+00 0.  1.
         11    1    5    5    0    0 -0.13907477355E+03 -0.27940588169E+03  0.10165315342E+03  0.32824198842E+03  0.00000000000E+00 0.  1.
        -11    1    5    5    0    0 -0.63189205625E+02 -0.61333095414E+02 -0.95100208301E+01  0.88572370392E+02  0.00000000000E+00 0. -1.
          3    1    6    6  503    0  0.71912739142E+02  0.58803197458E+02  0.68926658724E+01  0.93149164918E+02  0.00000000000E+00 0. -1.
         -3    1    6    6    0  503  0.19255077676E+03  0.33377891136E+03 -0.80267081174E+02  0.39360763156E+03  0.00000000000E+00 0.  1.
<mgrwt>
<rscale>  0 0.13696399E+04</rscale>
<asrwt>0</asrwt>
<pdfrwt beam="1">  1        1 0.15457232E+00 0.13696399E+04</pdfrwt>
<pdfrwt beam="2">  1       -2 0.71811563E-01 0.13696399E+04</pdfrwt>
<totfact> 0.22595983E+01</totfact>
</mgrwt>
</event>
<event>
12    4  0.4320235E-008  0.1268563E+04  0.7818608E-02  0.9054873E-01
         -2   -1    0    0    0  501 -0.00000000000E+00  0.00000000000E+00  0.37908783659E+03  0.37908783659E+03  0.00000000000E+00 0.  1.
          1   -1    0    0  501    0  0.00000000000E+00 -0.00000000000E+00 -0.10612661876E+04  0.10612661876E+04  0.00000000000E+00 0. -1.
        -24    2    1    2    0    0  0.23843194792E+03 -0.71768692449E+02  0.31820003261E+02  0.26246101126E+03  0.76633744641E+02 0.  0.
        254    2    1    2    0    0 -0.23843194792E+03  0.71768692449E+02 -0.71399835423E+03  0.11778930129E+04  0.90312665832E+03 0.  0.
         23    2    4    4    0    0  0.30251314823E+03 -0.13322810770E+03 -0.33908698808E+03  0.48230017639E+03  0.91485196192E+02 0.  0.
         23    2    4    4    0    0 -0.54094509616E+03  0.20499680015E+03 -0.37491136615E+03  0.69559283651E+03  0.92981592814E+02 0.  0.
          3    1    3    3  502    0  0.38603929884E+02 -0.25516005493E+02 -0.20759754284E+02  0.50717820702E+02  0.00000000000E+00 0. -1.
         -2    1    3    3    0  502  0.19982801804E+03 -0.46252686955E+02  0.52579757545E+02  0.21174319056E+03  0.00000000000E+00 0.  1.
         11    1    5    5    0    0  0.26368544208E+03 -0.91608466610E+02 -0.24048910359E+03  0.36845234761E+03  0.00000000000E+00 0.  1.
        -11    1    5    5    0    0  0.38827706158E+02 -0.41619641093E+02 -0.98597884496E+02  0.11384782878E+03  0.00000000000E+00 0. -1.
          4    1    6    6  503    0 -0.51655211204E+02  0.19242590232E+02 -0.72720757154E+02  0.91251556943E+02  0.00000000000E+00 0. -1.
         -4    1    6    6    0  503 -0.48928988495E+03  0.18575420992E+03 -0.30219060900E+03  0.60434127956E+03  0.00000000000E+00 0.  1.
<mgrwt>
<rscale>  0 0.12685631E+04</rscale>
<asrwt>0</asrwt>
<pdfrwt beam="1">  1        1 0.16327172E+00 0.12685631E+04</pdfrwt>
<pdfrwt beam="2">  1       -2 0.58321206E-01 0.12685631E+04</pdfrwt>
<totfact> 0.32214123E+01</totfact>
</mgrwt>
</event>
<event>
12    4  0.4320235E-008  0.1752187E+04  0.7818608E-02  0.8732147E-01
         -4   -1    0    0    0  501 -0.00000000000E+00  0.00000000000E+00  0.39455840543E+03  0.39455840543E+03  0.00000000000E+00 0.  1.
          1   -1    0    0  501    0  0.00000000000E+00 -0.00000000000E+00 -0.19453138695E+04  0.19453138695E+04  0.00000000000E+00 0. -1.
        -24    2    1    2    0    0 -0.60102812203E+03 -0.21487703593E+03 -0.52593857416E+03  0.83085177673E+03  0.79349524642E+02 0.  0.
        254    2    1    2    0    0  0.60102812203E+03  0.21487703593E+03 -0.10248168899E+04  0.15090204982E+04  0.90525480509E+03 0.  0.
         23    2    4    4    0    0  0.61842560758E+02 -0.18209115558E+03 -0.74991187363E+03  0.77947415627E+03  0.90721832103E+02 0.  0.
         23    2    4    4    0    0  0.53918556128E+03  0.39696819151E+03 -0.27490501631E+03  0.72954634197E+03  0.91434580568E+02 0.  0.
          1    1    3    3  502    0 -0.48574404892E+03 -0.16100968300E+03 -0.45720221414E+03  0.68622537384E+03  0.00000000000E+00 0. -1.
         -2    1    3    3    0  502 -0.11528407311E+03 -0.53867352937E+02 -0.68736360021E+02  0.14462640290E+03  0.00000000000E+00 0.  1.
         11    1    5    5    0    0  0.26300771709E+01 -0.50280960889E+02 -0.36271287045E+03  0.36619082283E+03  0.00000000000E+00 0. -1.
        -11    1    5    5    0    0  0.59212483587E+02 -0.13181019469E+03 -0.38719900318E+03  0.41328333344E+03  0.00000000000E+00 0.  1.
          3    1    6    6  503    0  0.35918834589E+03  0.24756993776E+03 -0.13352079386E+03  0.45621808853E+03  0.00000000000E+00 0. -1.
         -3    1    6    6    0  503  0.17999721538E+03  0.14939825375E+03 -0.14138422245E+03  0.27332825344E+03  0.00000000000E+00 0.  1.
<mgrwt>
<rscale>  0 0.17521871E+04</rscale>
<asrwt>0</asrwt>
<pdfrwt beam="1">  1        1 0.29927906E+00 0.17521871E+04</pdfrwt>
<pdfrwt beam="2">  1       -4 0.60701292E-01 0.17521871E+04</pdfrwt>
<totfact> 0.38790592E+00</totfact>
</mgrwt>
</event>
<event>
12    4  0.4320235E-008  0.1424176E+04  0.7818608E-02  0.8936502E-01
         -2   -1    0    0    0  501 -0.00000000000E+00  0.00000000000E+00  0.22377777463E+03  0.22377777463E+03  0.00000000000E+00 0.  1.
          1   -1    0    0  501    0  0.00000000000E+00 -0.00000000000E+00 -0.22659497122E+04  0.22659497122E+04  0.00000000000E+00 0. -1.
        -24    2    1    2    0    0 -0.28456548454E+03 -0.25301126237E+03 -0.29109897505E+03  0.48585244613E+03  0.79509573320E+02 0.  0.
        254    2    1    2    0    0  0.28456548454E+03  0.25301126237E+03 -0.17510729625E+04  0.20038750407E+04  0.89680903473E+03 0.  0.
         23    2    4    4    0    0 -0.12741651385E+03 -0.23776694165E+03 -0.29536184926E+03  0.41031715563E+03  0.91397262874E+02 0.  0.
         23    2    4    4    0    0  0.41198199839E+03  0.49077820402E+03 -0.14557111132E+04  0.15935578850E+04  0.98688779785E+02 0.  0.
          3    1    3    3  502    0 -0.17522534148E+03 -0.17514804232E+03 -0.23116818970E+03  0.33885024562E+03  0.00000000000E+00 0. -1.
         -4    1    3    3    0  502 -0.10934014306E+03 -0.77863220053E+02 -0.59930785357E+02  0.14700220051E+03  0.00000000000E+00 0.  1.
         11    1    5    5    0    0 -0.20764755830E+02 -0.26563942699E+02 -0.93190831226E+02  0.99102720250E+02  0.00000000000E+00 0. -1.
        -11    1    5    5    0    0 -0.10665175802E+03 -0.21120299895E+03 -0.20217101804E+03  0.31121443538E+03  0.00000000000E+00 0.  1.
          2    1    6    6  503    0 -0.12865854734E+01  0.16396287592E+02 -0.19000916802E+02  0.25130228576E+02  0.00000000000E+00 0. -1.
         -2    1    6    6    0  503  0.41326858386E+03  0.47438191643E+03 -0.14367101964E+04  0.15684276565E+04  0.00000000000E+00 0.  1.
<mgrwt>
<rscale>  0 0.14241758E+04</rscale>
<asrwt>0</asrwt>
<pdfrwt beam="1">  1        1 0.34860766E+00 0.14241758E+04</pdfrwt>
<pdfrwt beam="2">  1       -2 0.34427349E-01 0.14241758E+04</pdfrwt>
<totfact> 0.13292979E+01</totfact>
</mgrwt>
</event>
<event>
12    4  0.4320235E-008  0.1965226E+04  0.7818608E-02  0.8623054E-01
          1   -1    0    0  501    0  0.00000000000E+00  0.00000000000E+00  0.18313622187E+04  0.18313622187E+04  0.00000000000E+00 0. -1.
         -2   -1    0    0    0  501 -0.00000000000E+00 -0.00000000000E+00 -0.52721852508E+03  0.52721852508E+03  0.00000000000E+00 0.  1.
        -24    2    1    2    0    0 -0.32478748403E+03 -0.70664113057E+03  0.46810958439E+03  0.91114971337E+03  0.78984935160E+02 0.  0.
        254    2    1    2    0    0  0.32478748403E+03  0.70664113057E+03  0.83603410919E+03  0.14474310304E+04  0.88953637292E+03 0.  0.
         23    2    4    4    0    0  0.12305213986E+03 -0.22540179792E+02 -0.14087800719E+03  0.20802290285E+03  0.88187450189E+02 0.  0.
         23    2    4    4    0    0  0.20173534416E+03  0.72918131036E+03  0.97691211638E+03  0.12394081275E+04  0.96812659126E+02 0.  0.
          1    1    3    3  502    0 -0.19279466803E+02 -0.51808375976E+02  0.11756274916E+02  0.56515623162E+02  0.00000000000E+00 0. -1.
         -2    1    3    3    0  502 -0.30550801722E+03 -0.65483275460E+03  0.45635330948E+03  0.85463409021E+03  0.00000000000E+00 0.  1.
         11    1    5    5    0    0  0.13085100086E+03 -0.10169036880E+02 -0.14199055793E+03  0.19335643842E+03  0.00000000000E+00 0. -1.
        -11    1    5    5    0    0 -0.77988609942E+01 -0.12371142913E+02  0.11125507421E+01  0.14666464432E+02  0.00000000000E+00 0.  1.
          4    1    6    6  503    0 -0.14091222959E+01  0.10634191740E+03  0.16232603392E+03  0.19406269685E+03  0.00000000000E+00 0. -1.
         -4    1    6    6    0  503  0.20314446646E+03  0.62283939296E+03  0.81458608246E+03  0.10453454307E+04  0.00000000000E+00 0.  1.
<mgrwt>
<rscale>  0 0.19652258E+04</rscale>
<asrwt>0</asrwt>
<pdfrwt beam="1">  1        1 0.28174803E+00 0.19652258E+04</pdfrwt>
<pdfrwt beam="2">  1       -2 0.81110543E-01 0.19652258E+04</pdfrwt>
<totfact> 0.42461269E+00</totfact>
</mgrwt>
</event>
<event>
12    4  0.4320235E-008  0.2156832E+04  0.7818608E-02  0.8536613E-01
         -2   -1    0    0    0  501 -0.00000000000E+00  0.00000000000E+00  0.35744522680E+03  0.35744522680E+03  0.00000000000E+00 0.  1.
          1   -1    0    0  501    0  0.00000000000E+00 -0.00000000000E+00 -0.32535925063E+04  0.32535925063E+04  0.00000000000E+00 0. -1.
        -24    2    1    2    0    0  0.28566644139E+03  0.17990047116E+03 -0.25715973322E+04  0.25948451459E+04  0.78351751388E+02 0.  0.
        254    2    1    2    0    0 -0.28566644139E+03 -0.17990047116E+03 -0.32454994732E+03  0.10161925872E+04  0.90185653557E+03 0.  0.
         23    2    4    4    0    0  0.20867172333E+03 -0.30628549426E+03 -0.32030702758E+03  0.49773861303E+03  0.88274814499E+02 0.  0.
         23    2    4    4    0    0 -0.49433816472E+03  0.12638502310E+03 -0.42429197374E+01  0.51845397419E+03  0.91832052230E+02 0.  0.
          3    1    3    3  502    0  0.22154831493E+03  0.15846232662E+03 -0.22340403646E+04  0.22505844386E+04  0.00000000000E+00 0. -1.
         -4    1    3    3    0  502  0.64118126465E+02  0.21438144544E+02 -0.33755696756E+03  0.34426070722E+03  0.00000000000E+00 0.  1.
         11    1    5    5    0    0  0.17717854796E+03 -0.22039603553E+03 -0.19891861291E+03  0.34573872345E+03  0.00000000000E+00 0.  1.
        -11    1    5    5    0    0  0.31493175368E+02 -0.85889458738E+02 -0.12138841466E+03  0.15199988958E+03  0.00000000000E+00 0. -1.
          4    1    6    6  503    0 -0.41455584669E+03  0.10169917270E+03  0.30642439989E+02  0.42794652806E+03  0.00000000000E+00 0.  1.
         -4    1    6    6    0  503 -0.79782318035E+02  0.24685850406E+02 -0.34885359726E+02  0.90507446127E+02  0.00000000000E+00 0. -1.
<mgrwt>
<rscale>  0 0.21568320E+04</rscale>
<asrwt>0</asrwt>
<pdfrwt beam="1">  1        1 0.50055271E+00 0.21568320E+04</pdfrwt>
<pdfrwt beam="2">  1       -2 0.54991572E-01 0.21568320E+04</pdfrwt>
<totfact> 0.97064822E-01</totfact>
</mgrwt>
</event>
<event>
12    4  0.4320235E-008  0.1903098E+04  0.7818608E-02  0.8653316E-01
          1   -1    0    0  501    0  0.00000000000E+00  0.00000000000E+00  0.15728448223E+04  0.15728448223E+04  0.00000000000E+00 0. -1.
         -2   -1    0    0    0  501 -0.00000000000E+00 -0.00000000000E+00 -0.57567379236E+03  0.57567379236E+03  0.00000000000E+00 0.  1.
        -24    2    1    2    0    0  0.70331183186E+03 -0.11845700620E+03  0.18013994259E+03  0.73983370649E+03  0.78891819569E+02 0.  0.
        254    2    1    2    0    0 -0.70331183186E+03  0.11845700620E+03  0.81703108738E+03  0.14086849082E+04  0.89898485954E+03 0.  0.
         23    2    4    4    0    0  0.14764174447E+02  0.24335017549E+03 -0.56464681416E+02  0.26738983778E+03  0.94190107461E+02 0.  0.
         23    2    4    4    0    0 -0.71807600631E+03 -0.12489316929E+03  0.87349576880E+03  0.11412950704E+04  0.91258561646E+02 0.  0.
          1    1    3    3  502    0  0.65468404612E+03 -0.99733422533E+02  0.14787776454E+03  0.67854682157E+03  0.00000000000E+00 0. -1.
         -4    1    3    3    0  502  0.48627785740E+02 -0.18723583671E+02  0.32262178048E+02  0.61286884926E+02  0.00000000000E+00 0.  1.
         11    1    5    5    0    0  0.24871084495E+02  0.11617076117E+02  0.38596721049E+01  0.27720468434E+02  0.00000000000E+00 0.  1.
        -11    1    5    5    0    0 -0.10106910048E+02  0.23173309938E+03 -0.60324353521E+02  0.23966936935E+03  0.00000000000E+00 0. -1.
          4    1    6    6  503    0 -0.51934918303E+03 -0.60549462052E+02  0.57775295268E+03  0.77922287286E+03  0.00000000000E+00 0. -1.
         -4    1    6    6    0  503 -0.19872682328E+03 -0.64343707236E+02  0.29574281612E+03  0.36207219755E+03  0.00000000000E+00 0.  1.
<mgrwt>
<rscale>  0 0.19030980E+04</rscale>
<asrwt>0</asrwt>
<pdfrwt beam="1">  1        1 0.24197612E+00 0.19030980E+04</pdfrwt>
<pdfrwt beam="2">  1       -2 0.88565200E-01 0.19030980E+04</pdfrwt>
<totfact> 0.52451626E+00</totfact>
</mgrwt>
</event>
<event>
12    4  0.4320235E-008  0.2614668E+04  0.7818608E-02  0.8363236E-01
         -2   -1    0    0    0  501 -0.00000000000E+00  0.00000000000E+00  0.98872003057E+03  0.98872003057E+03  0.00000000000E+00 0.  1.
          1   -1    0    0  501    0  0.00000000000E+00 -0.00000000000E+00 -0.17286210932E+04  0.17286210932E+04  0.00000000000E+00 0. -1.
        -24    2    1    2    0    0  0.33182393713E+03  0.10375437629E+04 -0.70210269892E+03  0.12984743402E+04  0.80518489360E+02 0.  0.
        254    2    1    2    0    0 -0.33182393713E+03 -0.10375437629E+04 -0.37798363744E+02  0.14188667836E+04  0.90837770120E+03 0.  0.
         23    2    4    4    0    0 -0.24274223282E+03 -0.11352399945E+04 -0.20696400805E+03  0.11826689039E+04  0.90432289844E+02 0.  0.
         23    2    4    4    0    0 -0.89081704311E+02  0.97696231552E+02  0.16916564431E+03  0.23619787966E+03  0.98449578145E+02 0.  0.
          1    1    3    3  502    0  0.22909759793E+03  0.69565060882E+03 -0.51570041910E+03  0.89574683990E+03  0.00000000000E+00 0. -1.
         -2    1    3    3    0  502  0.10272633920E+03  0.34189315410E+03 -0.18640227983E+03  0.40272750032E+03  0.00000000000E+00 0.  1.
         11    1    5    5    0    0 -0.10376220513E+03 -0.55539963584E+03 -0.57286934066E+02  0.56790592841E+03  0.00000000000E+00 0. -1.
        -11    1    5    5    0    0 -0.13898002768E+03 -0.57984035863E+03 -0.14967707399E+03  0.61476297552E+03  0.00000000000E+00 0.  1.
          2    1    6    6  503    0 -0.17707419567E+01  0.65436580764E+02  0.39071695448E+02  0.76234368984E+02  0.00000000000E+00 0. -1.
         -2    1    6    6    0  503 -0.87310962354E+02  0.32259650788E+02  0.13009394886E+03  0.15996351067E+03  0.00000000000E+00 0.  1.
<mgrwt>
<rscale>  0 0.26146681E+04</rscale>
<asrwt>0</asrwt>
<pdfrwt beam="1">  1        1 0.26594170E+00 0.26146681E+04</pdfrwt>
<pdfrwt beam="2">  1       -2 0.15211078E+00 0.26146681E+04</pdfrwt>
<totfact> 0.10165294E+00</totfact>
</mgrwt>
</event>
<event>
12    4  0.4320235E-008  0.1788030E+04  0.7818608E-02  0.8712691E-01
         -2   -1    0    0    0  501 -0.00000000000E+00  0.00000000000E+00  0.18978365226E+04  0.18978365226E+04  0.00000000000E+00 0.  1.
          1   -1    0    0  501    0  0.00000000000E+00 -0.00000000000E+00 -0.42114433278E+03  0.42114433278E+03  0.00000000000E+00 0. -1.
        -24    2    1    2    0    0  0.57984579910E+03  0.30601187054E+03  0.74544313321E+03  0.99571392688E+03  0.76787653254E+02 0.  0.
        254    2    1    2    0    0 -0.57984579910E+03 -0.30601187054E+03  0.73124905662E+03  0.13232669285E+04  0.88681777476E+03 0.  0.
         23    2    4    4    0    0 -0.68307833697E+02 -0.52554986308E+03  0.33456370201E+03  0.63328045706E+03  0.90789029396E+02 0.  0.
         23    2    4    4    0    0 -0.51153796540E+03  0.21953799254E+03  0.39668535461E+03  0.68998647144E+03  0.94095908518E+02 0.  0.
          3    1    3    3  502    0  0.26496883646E+03  0.15281578941E+03  0.29274281982E+03  0.42339049156E+03  0.00000000000E+00 0. -1.
         -4    1    3    3    0  502  0.31487696264E+03  0.15319608113E+03  0.45270031339E+03  0.57232343532E+03  0.00000000000E+00 0.  1.
         11    1    5    5    0    0 -0.47148400658E+02 -0.37159593230E+03  0.18568833822E+03  0.41807495445E+03  0.00000000000E+00 0. -1.
        -11    1    5    5    0    0 -0.21159433039E+02 -0.15395393078E+03  0.14887536379E+03  0.21520550260E+03  0.00000000000E+00 0.  1.
          2    1    6    6  503    0 -0.45338938624E+03  0.16356738010E+03  0.31921213409E+03  0.57811124357E+03  0.00000000000E+00 0.  1.
         -2    1    6    6    0  503 -0.58148579162E+02  0.55970612441E+02  0.77473220512E+02  0.11187522788E+03  0.00000000000E+00 0. -1.
<mgrwt>
<rscale>  0 0.17880303E+04</rscale>
<asrwt>0</asrwt>
<pdfrwt beam="1">  1        1 0.64791437E-01 0.17880303E+04</pdfrwt>
<pdfrwt beam="2">  1       -2 0.29197484E+00 0.17880303E+04</pdfrwt>
<totfact> 0.16488091E+00</totfact>
</mgrwt>
</event>
<event>
12    4  0.4320235E-008  0.1971583E+04  0.7818608E-02  0.8620023E-01
          1   -1    0    0  501    0  0.00000000000E+00  0.00000000000E+00  0.11160847856E+04  0.11160847856E+04  0.00000000000E+00 0. -1.
         -2   -1    0    0    0  501 -0.00000000000E+00 -0.00000000000E+00 -0.87070918057E+03  0.87070918057E+03  0.00000000000E+00 0.  1.
        -24    2    1    2    0    0 -0.61862823699E+03 -0.25280071125E+03  0.49261899994E+03  0.83329957862E+03  0.71453575211E+02 0.  0.
        254    2    1    2    0    0  0.61862823699E+03  0.25280071125E+03 -0.24724339492E+03  0.11534943875E+04  0.90708925170E+03 0.  0.
         23    2    4    4    0    0  0.72989508934E+03  0.14666598020E+03 -0.45803577663E+03  0.87875051491E+03  0.90265960295E+02 0.  0.
         23    2    4    4    0    0 -0.11126685235E+03  0.10613473105E+03  0.21079238171E+03  0.27474387263E+03  0.86057386624E+02 0.  0.
          1    1    3    3  502    0 -0.53852715314E+03 -0.22270910819E+03  0.45714737290E+03  0.74067169656E+03  0.00000000000E+00 0. -1.
         -2    1    3    3    0  502 -0.80101083854E+02 -0.30091603063E+02  0.35471627038E+02  0.92627882056E+02  0.00000000000E+00 0.  1.
         11    1    5    5    0    0  0.53092078888E+03  0.14711383672E+03 -0.33266950974E+03  0.64357467922E+03  0.00000000000E+00 0.  1.
        -11    1    5    5    0    0  0.19897430046E+03 -0.44785652011E+00 -0.12536626689E+03  0.23517583569E+03  0.00000000000E+00 0. -1.
          3    1    6    6  503    0 -0.27716689883E+02  0.13829042549E+02  0.12451432605E+01  0.31000124155E+02  0.00000000000E+00 0. -1.
         -3    1    6    6    0  503 -0.83550162470E+02  0.92305688505E+02  0.20954723845E+03  0.24374374848E+03  0.00000000000E+00 0.  1.
<mgrwt>
<rscale>  0 0.19715834E+04</rscale>
<asrwt>0</asrwt>
<pdfrwt beam="1">  1        1 0.17170535E+00 0.19715834E+04</pdfrwt>
<pdfrwt beam="2">  1       -2 0.13395526E+00 0.19715834E+04</pdfrwt>
<totfact> 0.40465503E+00</totfact>
</mgrwt>
</event>
<event>
12    4  0.4320235E-008  0.1442889E+04  0.7818608E-02  0.8923345E-01
         -2   -1    0    0    0  501 -0.00000000000E+00  0.00000000000E+00  0.49233551472E+03  0.49233551472E+03  0.00000000000E+00 0.  1.
          1   -1    0    0  501    0  0.00000000000E+00 -0.00000000000E+00 -0.10571702618E+04  0.10571702618E+04  0.00000000000E+00 0. -1.
        -24    2    1    2    0    0 -0.35561437397E+03 -0.13628736860E+03  0.51224699628E+02  0.39206377623E+03  0.77808771788E+02 0.  0.
        254    2    1    2    0    0  0.35561437397E+03  0.13628736860E+03 -0.61605944675E+03  0.11574420003E+04  0.90283271560E+03 0.  0.
         23    2    4    4    0    0  0.43760396850E+03  0.15430135113E+03  0.54067700040E+02  0.47585544130E+03  0.90603226311E+02 0.  0.
         23    2    4    4    0    0 -0.81989594535E+02 -0.18013982532E+02 -0.67012714679E+03  0.68158655902E+03  0.91886056557E+02 0.  0.
          3    1    3    3  502    0 -0.86026317125E+02 -0.23439730553E+02  0.44693552057E+02  0.99736963067E+02  0.00000000000E+00 0. -1.
         -4    1    3    3    0  502 -0.26958805685E+03 -0.11284763805E+03  0.65311475718E+01  0.29232681316E+03  0.00000000000E+00 0.  1.
         11    1    5    5    0    0  0.37801757199E+03  0.16157213583E+03  0.60324209644E+02  0.41550192548E+03  0.00000000000E+00 0. -1.
        -11    1    5    5    0    0  0.59586396515E+02 -0.72707846953E+01 -0.62565096038E+01  0.60353515823E+02  0.00000000000E+00 0.  1.
          2    1    6    6  503    0 -0.12368197478E+02  0.12507536467E+02 -0.41505991654E+03  0.41543247959E+03  0.00000000000E+00 0. -1.
         -2    1    6    6    0  503 -0.69621397056E+02 -0.30521518999E+02 -0.25506723025E+03  0.26615407943E+03  0.00000000000E+00 0.  1.
<mgrwt>
<rscale>  0 0.14428894E+04</rscale>
<asrwt>0</asrwt>
<pdfrwt beam="1">  1        1 0.16264158E+00 0.14428894E+04</pdfrwt>
<pdfrwt beam="2">  1       -2 0.75743925E-01 0.14428894E+04</pdfrwt>
<totfact> 0.18189799E+01</totfact>
</mgrwt>
</event>
<event>
12    4  0.4320235E-008  0.1773480E+04  0.7818608E-02  0.8720531E-01
         -2   -1    0    0    0  501 -0.00000000000E+00  0.00000000000E+00  0.46026673915E+03  0.46026673915E+03  0.00000000000E+00 0.  1.
          1   -1    0    0  501    0  0.00000000000E+00 -0.00000000000E+00 -0.17083747944E+04  0.17083747944E+04  0.00000000000E+00 0. -1.
        -24    2    1    2    0    0 -0.30975305183E+03 -0.20472334001E+03 -0.11378555165E+04  0.11995764101E+04  0.80061152736E+02 0.  0.
        254    2    1    2    0    0  0.30975305183E+03  0.20472334001E+03 -0.11025253878E+03  0.96906512347E+03  0.88829780600E+03 0.  0.
         23    2    4    4    0    0  0.57536447120E+03  0.31126503102E+03 -0.50057987212E+02  0.66261124398E+03  0.92831375675E+02 0.  0.
         23    2    4    4    0    0 -0.26561141937E+03 -0.10654169101E+03 -0.60194551564E+02  0.30645387948E+03  0.91597151633E+02 0.  0.
          1    1    3    3  502    0 -0.26202178525E+03 -0.19833141606E+03 -0.10368030347E+04  0.10876356464E+04  0.00000000000E+00 0. -1.
         -2    1    3    3    0  502 -0.47731266577E+02 -0.63919239570E+01 -0.10105248174E+03  0.11194076365E+03  0.00000000000E+00 0.  1.
         11    1    5    5    0    0  0.47919254166E+03  0.22065020397E+03 -0.54786727851E+02  0.53039003577E+03  0.00000000000E+00 0. -1.
        -11    1    5    5    0    0  0.96171929542E+02  0.90614827051E+02  0.47287406390E+01  0.13222120821E+03  0.00000000000E+00 0.  1.
          1    1    6    6  503    0 -0.13004778489E+03 -0.46255887274E+01 -0.36902322191E+02  0.13526124282E+03  0.00000000000E+00 0. -1.
         -1    1    6    6    0  503 -0.13556363449E+03 -0.10191610228E+03 -0.23292229373E+02  0.17119263667E+03  0.00000000000E+00 0.  1.
<mgrwt>
<rscale>  0 0.17734803E+04</rscale>
<asrwt>0</asrwt>
<pdfrwt beam="1">  1        1 0.26282690E+00 0.17734803E+04</pdfrwt>
<pdfrwt beam="2">  1       -2 0.70810266E-01 0.17734803E+04</pdfrwt>
<totfact> 0.70780136E+00</totfact>
</mgrwt>
</event>
<event>
12    4  0.4320235E-008  0.2854924E+04  0.7818608E-02  0.8286417E-01
          1   -1    0    0  501    0  0.00000000000E+00  0.00000000000E+00  0.18923401264E+04  0.18923401264E+04  0.00000000000E+00 0. -1.
         -2   -1    0    0    0  501 -0.00000000000E+00 -0.00000000000E+00 -0.10767874764E+04  0.10767874764E+04  0.00000000000E+00 0.  1.
        -24    2    1    2    0    0 -0.56218276958E+03  0.11054188513E+04  0.19616234022E+02  0.12426118047E+04  0.75491704448E+02 0.  0.
        254    2    1    2    0    0  0.56218276958E+03 -0.11054188513E+04  0.79593641598E+03  0.17265157981E+04  0.89963421426E+03 0.  0.
         23    2    4    4    0    0  0.69176055641E+03 -0.11669828688E+04  0.73115220377E+03  0.15438921328E+04  0.92939169431E+02 0.  0.
         23    2    4    4    0    0 -0.12957778683E+03  0.61564017545E+02  0.64784212213E+02  0.18262366522E+03  0.92595236659E+02 0.  0.
          1    1    3    3  502    0 -0.52886719046E+02  0.87154513590E+02 -0.17710813286E+02  0.10347263985E+03  0.00000000000E+00 0. -1.
         -2    1    3    3    0  502 -0.50929605054E+03  0.10182643377E+04  0.37327047307E+02  0.11391391649E+04  0.00000000000E+00 0.  1.
         11    1    5    5    0    0  0.65555877105E+03 -0.11015126146E+04  0.71349120340E+03  0.14670231899E+04  0.00000000000E+00 0.  1.
        -11    1    5    5    0    0  0.36201785361E+02 -0.65470254206E+02  0.17661000369E+02  0.76868942904E+02  0.00000000000E+00 0. -1.
          3    1    6    6  503    0 -0.71904162161E+01  0.23720108855E+02  0.47207392748E+02  0.53318698217E+02  0.00000000000E+00 0. -1.
         -3    1    6    6    0  503 -0.12238737061E+03  0.37843908690E+02  0.17576819465E+02  0.12930496701E+03  0.00000000000E+00 0.  1.
<mgrwt>
<rscale>  0 0.28549243E+04</rscale>
<asrwt>0</asrwt>
<pdfrwt beam="1">  1        1 0.29112925E+00 0.28549243E+04</pdfrwt>
<pdfrwt beam="2">  1       -2 0.16565961E+00 0.28549243E+04</pdfrwt>
<totfact> 0.61149618E-01</totfact>
</mgrwt>
</event>
<event>
12    4  0.4320235E-008  0.2232303E+04  0.7818608E-02  0.8505102E-01
          1   -1    0    0  501    0  0.00000000000E+00  0.00000000000E+00  0.18402018651E+04  0.18402018651E+04  0.00000000000E+00 0. -1.
         -2   -1    0    0    0  501 -0.00000000000E+00 -0.00000000000E+00 -0.67698799006E+03  0.67698799006E+03  0.00000000000E+00 0.  1.
        -24    2    1    2    0    0  0.89521496459E+02  0.92043757959E+03  0.48814521740E+03  0.10487697196E+04  0.80079555421E+02 0.  0.
        254    2    1    2    0    0 -0.89521496459E+02 -0.92043757959E+03  0.67506865764E+03  0.14684201356E+04  0.91941316380E+03 0.  0.
         23    2    4    4    0    0 -0.45379346087E+03 -0.22859588946E+03  0.26207850454E+03  0.57936104677E+03  0.93752302205E+02 0.  0.
         23    2    4    4    0    0  0.36427196441E+03 -0.69184169013E+03  0.41299015310E+03  0.88905908880E+03  0.92337471095E+02 0.  0.
          1    1    3    3  502    0  0.31432153691E+02  0.37912794145E+03  0.15700634178E+03  0.41155433133E+03  0.00000000000E+00 0. -1.
         -2    1    3    3    0  502  0.58089342767E+02  0.54130963814E+03  0.33113887562E+03  0.63721538826E+03  0.00000000000E+00 0.  1.
         11    1    5    5    0    0 -0.19669594648E+03 -0.15131304777E+03  0.12111501014E+03  0.27614086888E+03  0.00000000000E+00 0. -1.
        -11    1    5    5    0    0 -0.25709751439E+03 -0.77282841694E+02  0.14096349440E+03  0.30322017789E+03  0.00000000000E+00 0.  1.
          4    1    6    6  503    0 -0.13741767942E+00 -0.40226974340E+02  0.28334519703E+02  0.49204403817E+02  0.00000000000E+00 0. -1.
         -4    1    6    6    0  503  0.36440938209E+03 -0.65161471579E+03  0.38465563340E+03  0.83985468498E+03  0.00000000000E+00 0.  1.
<mgrwt>
<rscale>  0 0.22323034E+04</rscale>
<asrwt>0</asrwt>
<pdfrwt beam="1">  1        1 0.28310798E+00 0.22323034E+04</pdfrwt>
<pdfrwt beam="2">  1       -2 0.10415200E+00 0.22323034E+04</pdfrwt>
<totfact> 0.22896980E+00</totfact>
</mgrwt>
</event>
<event>
12    4  0.4320235E-008  0.3431065E+04  0.7818608E-02  0.8130324E-01
         -4   -1    0    0    0  501 -0.00000000000E+00  0.00000000000E+00  0.14365575371E+04  0.14365575371E+04  0.00000000000E+00 0.  1.
          3   -1    0    0  501    0  0.00000000000E+00 -0.00000000000E+00 -0.20486835877E+04  0.20486835877E+04  0.00000000000E+00 0. -1.
        -24    2    1    2    0    0  0.18488345227E+03  0.69462999269E+03  0.11651220428E+04  0.13714113165E+04  0.81036452916E+02 0.  0.
        254    2    1    2    0    0 -0.18488345227E+03 -0.69462999269E+03 -0.17772480934E+04  0.21138298083E+04  0.89049028924E+03 0.  0.
         23    2    4    4    0    0 -0.75135963976E+02 -0.88724133645E+03 -0.13024446169E+04  0.15803457991E+04  0.91039894615E+02 0.  0.
         23    2    4    4    0    0 -0.10974748829E+03  0.19261134376E+03 -0.47480347654E+03  0.53348400923E+03  0.10011596196E+03 0.  0.
          1    1    3    3  502    0  0.81032201211E+02  0.44047324352E+03  0.68790686705E+03  0.82085245546E+03  0.00000000000E+00 0. -1.
         -2    1    3    3    0  502  0.10385125106E+03  0.25415674917E+03  0.47721517576E+03  0.55055886104E+03  0.00000000000E+00 0.  1.
         11    1    5    5    0    0  0.49772132999E+00 -0.48080002789E+03 -0.73433363579E+03  0.87773276297E+03  0.00000000000E+00 0. -1.
        -11    1    5    5    0    0 -0.75633685306E+02 -0.40644130856E+03 -0.56811098108E+03  0.70261303609E+03  0.00000000000E+00 0.  1.
          2    1    6    6  503    0  0.50983501321E+01  0.70390753675E+02 -0.19363631442E+03  0.20609675795E+03  0.00000000000E+00 0.  1.
         -2    1    6    6    0  503 -0.11484583842E+03  0.12222059009E+03 -0.28116716212E+03  0.32738725127E+03  0.00000000000E+00 0. -1.
<mgrwt>
<rscale>  0 0.34310651E+04</rscale>
<asrwt>0</asrwt>
<pdfrwt beam="1">  1        3 0.31518209E+00 0.34310651E+04</pdfrwt>
<pdfrwt beam="2">  1       -4 0.22100885E+00 0.34310651E+04</pdfrwt>
<totfact> 0.57387823E-03</totfact>
</mgrwt>
</event>
<event>
12    4  0.4320235E-008  0.1177668E+04  0.7818608E-02  0.9132631E-01
          1   -1    0    0  501    0  0.00000000000E+00  0.00000000000E+00  0.54862015806E+03  0.54862015806E+03  0.00000000000E+00 0. -1.
         -2   -1    0    0    0  501 -0.00000000000E+00 -0.00000000000E+00 -0.63199576858E+03  0.63199576858E+03  0.00000000000E+00 0.  1.
        -24    2    1    2    0    0 -0.63438129528E+01  0.16688989435E+03  0.13610652797E+03  0.22978246952E+03  0.79890647420E+02 0.  0.
        254    2    1    2    0    0  0.63438129528E+01 -0.16688989435E+03 -0.21948213849E+03  0.95083345713E+03  0.90995569852E+03 0.  0.
         23    2    4    4    0    0 -0.29121399896E+03  0.45212918300E+02  0.21447619677E+03  0.37625475567E+03  0.93369165204E+02 0.  0.
         23    2    4    4    0    0  0.29755781192E+03 -0.21210281265E+03 -0.43395833526E+03  0.57457870146E+03  0.91063674749E+02 0.  0.
          1    1    3    3  502    0 -0.38505517867E+01  0.12561607366E+03  0.14013930740E+03  0.18823721786E+03  0.00000000000E+00 0. -1.
         -2    1    3    3    0  502 -0.24932611661E+01  0.41273820688E+02 -0.40327794279E+01  0.41545251658E+02  0.00000000000E+00 0.  1.
         11    1    5    5    0    0 -0.80468814283E+02 -0.14747799327E+02  0.22261604336E+02  0.84783882223E+02  0.00000000000E+00 0. -1.
        -11    1    5    5    0    0 -0.21074518468E+03  0.59960717627E+02  0.19221459243E+03  0.29147087345E+03  0.00000000000E+00 0.  1.
          2    1    6    6  503    0  0.18135786613E+03 -0.18041427118E+03 -0.28359321815E+03  0.38192289567E+03  0.00000000000E+00 0.  1.
         -2    1    6    6    0  503  0.11619994578E+03 -0.31688541466E+02 -0.15036511711E+03  0.19265580579E+03  0.00000000000E+00 0. -1.
<mgrwt>
<rscale>  0 0.11776682E+04</rscale>
<asrwt>0</asrwt>
<pdfrwt beam="1">  1        1 0.84403102E-01 0.11776682E+04</pdfrwt>
<pdfrwt beam="2">  1       -2 0.97230118E-01 0.11776682E+04</pdfrwt>
<totfact> 0.29802472E+01</totfact>
</mgrwt>
</event>
<event>
12    4  0.4320235E-008  0.1609508E+04  0.7818608E-02  0.8814728E-01
          1   -1    0    0  501    0  0.00000000000E+00  0.00000000000E+00  0.19846346406E+04  0.19846346406E+04  0.00000000000E+00 0. -1.
         -2   -1    0    0    0  501 -0.00000000000E+00 -0.00000000000E+00 -0.32632155362E+03  0.32632155362E+03  0.00000000000E+00 0.  1.
        -24    2    1    2    0    0  0.45715472668E+02 -0.42498631087E+02  0.13569082256E+04  0.13607098170E+04  0.80219917680E+02 0.  0.
        254    2    1    2    0    0 -0.45715472668E+02  0.42498631087E+02  0.30140486140E+03  0.95024637728E+03  0.89901459886E+03 0.  0.
         23    2    4    4    0    0 -0.26672756327E+03  0.45010119133E+00  0.54087142496E+03  0.60955986401E+03  0.88755472364E+02 0.  0.
         23    2    4    4    0    0  0.22101209061E+03  0.42048529896E+02 -0.23946656356E+03  0.34068651327E+03  0.90047999430E+02 0.  0.
          3    1    3    3  502    0 -0.16040236189E+02 -0.22756286714E+02  0.71355710898E+03  0.71410005289E+03  0.00000000000E+00 0. -1.
         -4    1    3    3    0  502  0.61755708857E+02 -0.19742344373E+02  0.64335111662E+03  0.64660976408E+03  0.00000000000E+00 0.  1.
         11    1    5    5    0    0 -0.25454718025E+02  0.28264355926E+02  0.81380489718E+02  0.89830955646E+02  0.00000000000E+00 0.  1.
        -11    1    5    5    0    0 -0.24127284525E+03 -0.27814254734E+02  0.45949093524E+03  0.51972890836E+03  0.00000000000E+00 0. -1.
          1    1    6    6  503    0  0.14240346991E+03  0.48005313174E+02 -0.20612988082E+03  0.25509368103E+03  0.00000000000E+00 0. -1.
         -1    1    6    6    0  503  0.78608620694E+02 -0.59567832782E+01 -0.33336682738E+02  0.85592832237E+02  0.00000000000E+00 0.  1.
<mgrwt>
<rscale>  0 0.16095081E+04</rscale>
<asrwt>0</asrwt>
<pdfrwt beam="1">  1        1 0.30532840E+00 0.16095081E+04</pdfrwt>
<pdfrwt beam="2">  1       -2 0.50203317E-01 0.16095081E+04</pdfrwt>
<totfact> 0.96465585E+00</totfact>
</mgrwt>
</event>
<event>
12    4  0.4320235E-008  0.1952167E+04  0.7818608E-02  0.8629317E-01
         -2   -1    0    0    0  501 -0.00000000000E+00  0.00000000000E+00  0.51294680573E+03  0.51294680573E+03  0.00000000000E+00 0.  1.
          1   -1    0    0  501    0  0.00000000000E+00 -0.00000000000E+00 -0.18573834691E+04  0.18573834691E+04  0.00000000000E+00 0. -1.
        -24    2    1    2    0    0 -0.41719071369E+03 -0.34630983663E+03 -0.12108636417E+04  0.13293036946E+04  0.82939490148E+02 0.  0.
        254    2    1    2    0    0  0.41719071369E+03  0.34630983663E+03 -0.13357302168E+03  0.10410265803E+04  0.87858749946E+03 0.  0.
         23    2    4    4    0    0  0.23807187305E+03 -0.17071457367E+03  0.22516142953E+03  0.38029039712E+03  0.90007968498E+02 0.  0.
         23    2    4    4    0    0  0.17911884064E+03  0.51702441030E+03 -0.35873445121E+03  0.66073618316E+03  0.92109159933E+02 0.  0.
          1    1    3    3  502    0 -0.20215821959E+03 -0.15871612039E+03 -0.47557432445E+03  0.54058273252E+03  0.00000000000E+00 0. -1.
         -2    1    3    3    0  502 -0.21503249410E+03 -0.18759371623E+03 -0.73528931727E+03  0.78872096205E+03  0.00000000000E+00 0.  1.
         11    1    5    5    0    0 -0.42643324088E+01 -0.31769164766E+01  0.21473616581E+02  0.22122240806E+02  0.00000000000E+00 0.  1.
        -11    1    5    5    0    0  0.24233620546E+03 -0.16753765719E+03  0.20368781295E+03  0.35816815631E+03  0.00000000000E+00 0. -1.
          1    1    6    6  503    0  0.14402808271E+03  0.48463442292E+03 -0.34082214923E+03  0.60973301526E+03  0.00000000000E+00 0. -1.
         -1    1    6    6    0  503  0.35090757928E+02  0.32389987376E+02 -0.17912301973E+02  0.51003167903E+02  0.00000000000E+00 0.  1.
<mgrwt>
<rscale>  0 0.19521669E+04</rscale>
<asrwt>0</asrwt>
<pdfrwt beam="1">  1        1 0.28575130E+00 0.19521669E+04</pdfrwt>
<pdfrwt beam="2">  1       -2 0.78914893E-01 0.19521669E+04</pdfrwt>
<totfact> 0.43414872E+00</totfact>
</mgrwt>
</event>
<event>
12    4  0.4320235E-008  0.2975181E+04  0.7818608E-02  0.8250854E-01
          1   -1    0    0  501    0  0.00000000000E+00  0.00000000000E+00  0.20715659067E+04  0.20715659067E+04  0.00000000000E+00 0. -1.
         -2   -1    0    0    0  501 -0.00000000000E+00 -0.00000000000E+00 -0.10682377553E+04  0.10682377553E+04  0.00000000000E+00 0.  1.
        -24    2    1    2    0    0  0.13273026664E+04  0.20586430908E+03  0.54810772515E+03  0.14530352926E+04  0.82322542795E+02 0.  0.
        254    2    1    2    0    0 -0.13273026664E+04 -0.20586430908E+03  0.45522042628E+03  0.16867683694E+04  0.91315355412E+03 0.  0.
         23    2    4    4    0    0 -0.23138911012E+03  0.10184919355E+03  0.47342728533E+03  0.54452482917E+03  0.91976717630E+02 0.  0.
         23    2    4    4    0    0 -0.10959135563E+04 -0.30771350263E+03 -0.18206859052E+02  0.11422435402E+04  0.93138031128E+02 0.  0.
          3    1    3    3  502    0  0.88950828813E+03  0.16440282055E+03  0.33790609845E+03  0.96562612507E+03  0.00000000000E+00 0. -1.
         -4    1    3    3    0  502  0.43779437829E+03  0.41461488534E+02  0.21020162670E+03  0.48740916750E+03  0.00000000000E+00 0.  1.
         11    1    5    5    0    0 -0.15378013482E+03  0.60186847595E+02  0.21244974076E+03  0.26908303335E+03  0.00000000000E+00 0. -1.
        -11    1    5    5    0    0 -0.77608975301E+02  0.41662345955E+02  0.26097754457E+03  0.27544179583E+03  0.00000000000E+00 0.  1.
          2    1    6    6  503    0 -0.47751301820E+03 -0.11985863669E+03  0.36192003605E+02  0.49365436944E+03  0.00000000000E+00 0. -1.
         -2    1    6    6    0  503 -0.61840053810E+03 -0.18785486594E+03 -0.54398862656E+02  0.64858917077E+03  0.00000000000E+00 0.  1.
<mgrwt>
<rscale>  0 0.29751806E+04</rscale>
<asrwt>0</asrwt>
<pdfrwt beam="1">  1        1 0.31870245E+00 0.29751806E+04</pdfrwt>
<pdfrwt beam="2">  1       -2 0.16434427E+00 0.29751806E+04</pdfrwt>
<totfact> 0.46765682E-01</totfact>
</mgrwt>
</event>
<event>
12    4  0.4320235E-008  0.1530996E+04  0.7818608E-02  0.8864099E-01
          1   -1    0    0  501    0  0.00000000000E+00  0.00000000000E+00  0.13384171818E+04  0.13384171818E+04  0.00000000000E+00 0. -1.
         -2   -1    0    0    0  501 -0.00000000000E+00 -0.00000000000E+00 -0.43782078871E+03  0.43782078871E+03  0.00000000000E+00 0.  1.
        -24    2    1    2    0    0 -0.20424340565E+03 -0.29102456065E+03  0.69863643941E+03  0.78798826333E+03  0.80137163830E+02 0.  0.
        254    2    1    2    0    0  0.20424340565E+03  0.29102456065E+03  0.20195995366E+03  0.98824970716E+03  0.89968827777E+03 0.  0.
         23    2    4    4    0    0 -0.17466834480E+03  0.37757884313E+03 -0.15523510610E+03  0.45348625397E+03  0.92070792937E+02 0.  0.
         23    2    4    4    0    0  0.37891175045E+03 -0.86554282480E+02  0.35719505977E+03  0.53476345319E+03  0.85544618229E+02 0.  0.
          1    1    3    3  502    0 -0.19017580105E+03 -0.27479590403E+03  0.68599897627E+03  0.76306894814E+03  0.00000000000E+00 0. -1.
         -2    1    3    3    0  502 -0.14067604591E+02 -0.16228656627E+02  0.12637463134E+02  0.24919315186E+02  0.00000000000E+00 0.  1.
         11    1    5    5    0    0 -0.13595495063E+03  0.21583228175E+03 -0.12642681609E+03  0.28469468255E+03  0.00000000000E+00 0. -1.
        -11    1    5    5    0    0 -0.38713394175E+02  0.16174656138E+03 -0.28808290012E+02  0.16879157142E+03  0.00000000000E+00 0.  1.
          2    1    6    6  503    0  0.32843208849E+03 -0.10347055302E+03  0.31718089079E+03  0.46816397723E+03  0.00000000000E+00 0. -1.
         -2    1    6    6    0  503  0.50479661956E+02  0.16916270536E+02  0.40014168979E+02  0.66599475967E+02  0.00000000000E+00 0.  1.
<mgrwt>
<rscale>  0 0.15309956E+04</rscale>
<asrwt>0</asrwt>
<pdfrwt beam="1">  1        1 0.20591033E+00 0.15309956E+04</pdfrwt>
<pdfrwt beam="2">  1       -2 0.67357045E-01 0.15309956E+04</pdfrwt>
<totfact> 0.14531956E+01</totfact>
</mgrwt>
</event>
<event>
12    4  0.4320235E-008  0.2987168E+04  0.7818608E-02  0.8247405E-01
          1   -1    0    0  501    0  0.00000000000E+00  0.00000000000E+00  0.13369359971E+04  0.13369359971E+04  0.00000000000E+00 0. -1.
         -2   -1    0    0    0  501 -0.00000000000E+00 -0.00000000000E+00 -0.16685859300E+04  0.16685859300E+04  0.00000000000E+00 0.  1.
        -24    2    1    2    0    0  0.81515475095E+03 -0.25564091818E+03  0.90648067259E+03  0.12481938530E+04  0.80318975201E+02 0.  0.
        254    2    1    2    0    0 -0.81515475095E+03  0.25564091818E+03 -0.12381306055E+04  0.17573280741E+04  0.90851803327E+03 0.  0.
         23    2    4    4    0    0 -0.17031489511E+03  0.33403342072E+03 -0.34929206879E+02  0.38711242781E+03  0.89724537420E+02 0.  0.
         23    2    4    4    0    0 -0.64483985583E+03 -0.78392502535E+02 -0.12032013986E+04  0.13702156463E+04  0.88506991975E+02 0.  0.
          1    1    3    3  502    0  0.18774957468E+03 -0.52368352347E+02  0.25714887398E+03  0.32267303964E+03  0.00000000000E+00 0. -1.
         -2    1    3    3    0  502  0.62740517627E+03 -0.20327256584E+03  0.64933179861E+03  0.92552081333E+03  0.00000000000E+00 0.  1.
         11    1    5    5    0    0 -0.47008410176E+02  0.85172467045E+02 -0.49189126060E+02  0.10901242999E+03  0.00000000000E+00 0. -1.
        -11    1    5    5    0    0 -0.12330648494E+03  0.24886095367E+03  0.14259919181E+02  0.27809999782E+03  0.00000000000E+00 0.  1.
          1    1    6    6  503    0 -0.64699877756E+01  0.83735808540E+01 -0.12304041596E+02  0.16228587053E+02  0.00000000000E+00 0. -1.
         -1    1    6    6    0  503 -0.63836986806E+03 -0.86766083389E+02 -0.11908973570E+04  0.13539870593E+04  0.00000000000E+00 0.  1.
<mgrwt>
<rscale>  0 0.29871676E+04</rscale>
<asrwt>0</asrwt>
<pdfrwt beam="1">  1        1 0.20568246E+00 0.29871676E+04</pdfrwt>
<pdfrwt beam="2">  1       -2 0.25670553E+00 0.29871676E+04</pdfrwt>
<totfact> 0.37219667E-01</totfact>
</mgrwt>
</event>
<event>
12    4  0.4320235E-008  0.1363365E+04  0.7818608E-02  0.8980772E-01
         -2   -1    0    0    0  501 -0.00000000000E+00  0.00000000000E+00  0.18681212558E+04  0.18681212558E+04  0.00000000000E+00 0.  1.
          1   -1    0    0  501    0  0.00000000000E+00 -0.00000000000E+00 -0.24874783876E+03  0.24874783876E+03  0.00000000000E+00 0. -1.
        -24    2    1    2    0    0 -0.10541833799E+03 -0.11154307827E+03 -0.67106841284E+02  0.18552507971E+03  0.79758026294E+02 0.  0.
        254    2    1    2    0    0  0.10541833799E+03  0.11154307827E+03  0.16864802584E+04  0.19313440149E+04  0.92861141372E+03 0.  0.
         23    2    4    4    0    0  0.25352725862E+03  0.42111837555E+03  0.56182248569E+03  0.75217103337E+03  0.92195449647E+02 0.  0.
         23    2    4    4    0    0 -0.14810892063E+03 -0.30957529728E+03  0.11246577727E+04  0.11791729815E+04  0.88434708321E+02 0.  0.
          3    1    3    3  502    0 -0.87988405141E+02 -0.11690566504E+03 -0.37990621737E+02  0.15116937950E+03  0.00000000000E+00 0. -1.
         -4    1    3    3    0  502 -0.17429932852E+02  0.53625867720E+01 -0.29116219547E+02  0.34355700209E+02  0.00000000000E+00 0.  1.
         11    1    5    5    0    0  0.19050725725E+03  0.37890485318E+03  0.46955208476E+03  0.63272510866E+03  0.00000000000E+00 0. -1.
        -11    1    5    5    0    0  0.63020001367E+02  0.42213522369E+02  0.92270400927E+02  0.11944592471E+03  0.00000000000E+00 0.  1.
          3    1    6    6  503    0  0.84863157008E+01 -0.42675940871E+02  0.17708585716E+03  0.18235310332E+03  0.00000000000E+00 0. -1.
         -3    1    6    6    0  503 -0.15659523633E+03 -0.26689935641E+03  0.94757191550E+03  0.99681987818E+03  0.00000000000E+00 0.  1.
<mgrwt>
<rscale>  0 0.13633651E+04</rscale>
<asrwt>0</asrwt>
<pdfrwt beam="1">  1        1 0.38268899E-01 0.13633651E+04</pdfrwt>
<pdfrwt beam="2">  1       -2 0.28740326E+00 0.13633651E+04</pdfrwt>
<totfact> 0.36398576E+00</totfact>
</mgrwt>
</event>
<event>
12    4  0.4320235E-008  0.1321762E+04  0.7818608E-02  0.9012484E-01
         -2   -1    0    0    0  501 -0.00000000000E+00  0.00000000000E+00  0.36950586271E+03  0.36950586271E+03  0.00000000000E+00 0.  1.
          1   -1    0    0  501    0  0.00000000000E+00 -0.00000000000E+00 -0.11820203966E+04  0.11820203966E+04  0.00000000000E+00 0. -1.
        -24    2    1    2    0    0 -0.33732493658E+03  0.40319995400E+02 -0.26673400689E+03  0.43921422379E+03  0.79676151256E+02 0.  0.
        254    2    1    2    0    0  0.33732493658E+03 -0.40319995400E+02 -0.54578052696E+03  0.11123120355E+04  0.90771574064E+03 0.  0.
         23    2    4    4    0    0 -0.40494059859E+02 -0.13737612489E+03  0.20222921199E+03  0.26384561824E+03  0.90586353881E+02 0.  0.
         23    2    4    4    0    0  0.37781899644E+03  0.97056129494E+02 -0.74800973895E+03  0.84846641724E+03  0.90606872057E+02 0.  0.
          1    1    3    3  502    0 -0.27248457853E+03  0.63421335395E+02 -0.20614598477E+03  0.34751442899E+03  0.00000000000E+00 0. -1.
         -2    1    3    3    0  502 -0.64840358057E+02 -0.23101339995E+02 -0.60588022122E+02  0.91699794804E+02  0.00000000000E+00 0.  1.
         11    1    5    5    0    0  0.25890622662E+02 -0.45712909486E+02  0.91505869075E+02  0.10551454170E+03  0.00000000000E+00 0.  1.
        -11    1    5    5    0    0 -0.66384682521E+02 -0.91663215409E+02  0.11072334292E+03  0.15833107654E+03  0.00000000000E+00 0. -1.
          4    1    6    6  503    0  0.21720332787E+03  0.39398149240E+02 -0.33065030238E+03  0.39756650044E+03  0.00000000000E+00 0.  1.
         -4    1    6    6    0  503  0.16061566857E+03  0.57657980255E+02 -0.41735943657E+03  0.45089991680E+03  0.00000000000E+00 0. -1.
<mgrwt>
<rscale>  0 0.13217617E+04</rscale>
<asrwt>0</asrwt>
<pdfrwt beam="1">  1        1 0.18184929E+00 0.13217617E+04</pdfrwt>
<pdfrwt beam="2">  1       -2 0.56847055E-01 0.13217617E+04</pdfrwt>
<totfact> 0.27496860E+01</totfact>
</mgrwt>
</event>
<event>
12    4  0.4320235E-008  0.1802922E+04  0.7818608E-02  0.8704747E-01
         -2   -1    0    0    0  501 -0.00000000000E+00  0.00000000000E+00  0.20876456012E+04  0.20876456012E+04  0.00000000000E+00 0.  1.
          1   -1    0    0  501    0  0.00000000000E+00 -0.00000000000E+00 -0.38925741401E+03  0.38925741401E+03  0.00000000000E+00 0. -1.
        -24    2    1    2    0    0 -0.85035242219E+02  0.53278337428E+03  0.10958028556E+03  0.55660523663E+03  0.81929446037E+02 0.  0.
        254    2    1    2    0    0  0.85035242219E+02 -0.53278337428E+03  0.15888079016E+04  0.19202977785E+04  0.93388644588E+03 0.  0.
         23    2    4    4    0    0  0.74734710521E+02  0.14738498535E+03 -0.13198246984E+01  0.18835479939E+03  0.90377971048E+02 0.  0.
         23    2    4    4    0    0  0.10300531698E+02 -0.68016835964E+03  0.15901277263E+04  0.17319429792E+04  0.91570730791E+02 0.  0.
          1    1    3    3  502    0 -0.84280835367E+02  0.44138265177E+03  0.11863535235E+03  0.46475396859E+03  0.00000000000E+00 0. -1.
         -2    1    3    3    0  502 -0.75440685189E+00  0.91400722515E+02 -0.90550667901E+01  0.91851268040E+02  0.00000000000E+00 0.  1.
         11    1    5    5    0    0  0.23126085548E+02  0.12476146311E+03  0.19309941916E+02  0.12834762314E+03  0.00000000000E+00 0.  1.
        -11    1    5    5    0    0  0.51608624972E+02  0.22623522247E+02 -0.20629766615E+02  0.60007176246E+02  0.00000000000E+00 0. -1.
          4    1    6    6  503    0 -0.24689920126E+02 -0.25741450056E+03  0.69004244187E+03  0.73690595657E+03  0.00000000000E+00 0. -1.
         -4    1    6    6    0  503  0.34990451824E+02 -0.42275385907E+03  0.90008528442E+03  0.99503702258E+03  0.00000000000E+00 0.  1.
<mgrwt>
<rscale>  0 0.18029215E+04</rscale>
<asrwt>0</asrwt>
<pdfrwt beam="1">  1        1 0.59885757E-01 0.18029215E+04</pdfrwt>
<pdfrwt beam="2">  1       -2 0.32117624E+00 0.18029215E+04</pdfrwt>
<totfact> 0.12117158E+00</totfact>
</mgrwt>
</event>
<event>
12    4  0.4320235E-008  0.2291597E+04  0.7818608E-02  0.8481242E-01
          1   -1    0    0  501    0  0.00000000000E+00  0.00000000000E+00  0.16026301425E+04  0.16026301425E+04  0.00000000000E+00 0. -1.
         -2   -1    0    0    0  501 -0.00000000000E+00 -0.00000000000E+00 -0.81918704792E+03  0.81918704792E+03  0.00000000000E+00 0.  1.
        -24    2    1    2    0    0  0.31700947266E+03 -0.36743382136E+03 -0.54040477922E+03  0.72960898754E+03  0.69204988741E+02 0.  0.
        254    2    1    2    0    0 -0.31700947266E+03  0.36743382136E+03  0.13238478738E+04  0.16922082029E+04  0.93567771701E+03 0.  0.
         23    2    4    4    0    0 -0.50892990310E+02 -0.33191566156E+02  0.11737123012E+04  0.11785051278E+04  0.87074644872E+02 0.  0.
         23    2    4    4    0    0 -0.26611648235E+03  0.40062538751E+03  0.15013557258E+03  0.51370307505E+03  0.10015725568E+03 0.  0.
          1    1    3    3  502    0  0.12267119244E+03 -0.15464368818E+03 -0.26976988999E+03  0.33427336910E+03  0.00000000000E+00 0. -1.
         -2    1    3    3    0  502  0.19433828022E+03 -0.21279013318E+03 -0.27063488923E+03  0.39533561844E+03  0.00000000000E+00 0.  1.
         11    1    5    5    0    0 -0.13271499678E+02  0.29746226730E+02  0.32267982025E+03  0.32431965267E+03  0.00000000000E+00 0.  1.
        -11    1    5    5    0    0 -0.37621490632E+02 -0.62937792886E+02  0.85103248093E+03  0.85418547514E+03  0.00000000000E+00 0. -1.
          2    1    6    6  503    0 -0.26953025513E+03  0.35954796099E+03  0.14496423518E+03  0.47216090919E+03  0.00000000000E+00 0. -1.
         -2    1    6    6    0  503  0.34137727802E+01  0.41077426517E+02  0.51713374024E+01  0.41542165861E+02  0.00000000000E+00 0.  1.
<mgrwt>
<rscale>  0 0.22915967E+04</rscale>
<asrwt>0</asrwt>
<pdfrwt beam="1">  1        1 0.24655848E+00 0.22915967E+04</pdfrwt>
<pdfrwt beam="2">  1       -2 0.12602878E+00 0.22915967E+04</pdfrwt>
<totfact> 0.20732180E+00</totfact>
</mgrwt>
</event>
<event>
12    4  0.4320235E-008  0.1881764E+04  0.7818608E-02  0.8663987E-01
          1   -1    0    0  501    0  0.00000000000E+00  0.00000000000E+00  0.20524692868E+04  0.20524692868E+04  0.00000000000E+00 0. -1.
         -2   -1    0    0    0  501 -0.00000000000E+00 -0.00000000000E+00 -0.43131409582E+03  0.43131409582E+03  0.00000000000E+00 0.  1.
        -24    2    1    2    0    0  0.52558492933E+02 -0.21929682007E+02  0.15678443634E+04  0.15713815761E+04  0.88661173905E+02 0.  0.
        254    2    1    2    0    0 -0.52558492933E+02  0.21929682007E+02  0.53310827559E+02  0.91240180648E+03  0.90906089235E+03 0.  0.
         23    2    4    4    0    0  0.29638618641E+03  0.16495873265E+02  0.33385477288E+03  0.45554598922E+03  0.89141761214E+02 0.  0.
         23    2    4    4    0    0 -0.34894467934E+03  0.54338087416E+01 -0.28054394532E+03  0.45685581726E+03  0.90666515296E+02 0.  0.
          3    1    3    3  502    0  0.50491104557E+02 -0.12359817755E+02  0.15512032903E+04  0.15520740203E+04  0.00000000000E+00 0. -1.
         -4    1    3    3    0  502  0.20673883751E+01 -0.95698642514E+01  0.16641073117E+02  0.19307555800E+02  0.00000000000E+00 0.  1.
         11    1    5    5    0    0  0.13377963362E+03  0.44197566679E+02  0.19095485512E+03  0.23730607233E+03  0.00000000000E+00 0.  1.
        -11    1    5    5    0    0  0.16260655279E+03 -0.27701693414E+02  0.14289991776E+03  0.21823991689E+03  0.00000000000E+00 0. -1.
          2    1    6    6  503    0 -0.54700702359E+02  0.78704216351E+01 -0.81211654585E+01  0.55857530411E+02  0.00000000000E+00 0. -1.
         -2    1    6    6    0  503 -0.29424397698E+03 -0.24366128935E+01 -0.27242277986E+03  0.40099828685E+03  0.00000000000E+00 0.  1.
<mgrwt>
<rscale>  0 0.18817640E+04</rscale>
<asrwt>0</asrwt>
<pdfrwt beam="1">  1        1 0.31576450E+00 0.18817640E+04</pdfrwt>
<pdfrwt beam="2">  1       -2 0.66356016E-01 0.18817640E+04</pdfrwt>
<totfact> 0.47174313E+00</totfact>
</mgrwt>
</event>
<event>
12    4  0.4320235E-008  0.3337287E+04  0.7818608E-02  0.8153472E-01
         -2   -1    0    0    0  501 -0.00000000000E+00  0.00000000000E+00  0.12773374112E+04  0.12773374112E+04  0.00000000000E+00 0.  1.
          1   -1    0    0  501    0  0.00000000000E+00 -0.00000000000E+00 -0.21798239471E+04  0.21798239471E+04  0.00000000000E+00 0. -1.
        -24    2    1    2    0    0 -0.12140333295E+04 -0.66790192176E+03 -0.11276434154E+04  0.17882478635E+04  0.79251794963E+02 0.  0.
        254    2    1    2    0    0  0.12140333295E+04  0.66790192176E+03  0.22515687951E+03  0.16689134947E+04  0.90255566602E+03 0.  0.
         23    2    4    4    0    0  0.13320998241E+04  0.49648033091E+03  0.21870163920E+03  0.14414379030E+04  0.94499528543E+02 0.  0.
         23    2    4    4    0    0 -0.11806649464E+03  0.17142159084E+03  0.64552403058E+01  0.22747559169E+03  0.91533686265E+02 0.  0.
          3    1    3    3  502    0 -0.11596956622E+04 -0.62398763695E+03 -0.10857724087E+04  0.17067970950E+04  0.00000000000E+00 0. -1.
         -4    1    3    3    0  502 -0.54337667245E+02 -0.43914284811E+02 -0.41871006723E+02  0.81450768542E+02  0.00000000000E+00 0.  1.
         11    1    5    5    0    0  0.15462038752E+03  0.49229824519E+02  0.54731822706E+02  0.17125014533E+03  0.00000000000E+00 0. -1.
        -11    1    5    5    0    0  0.11774794366E+04  0.44725050639E+03  0.16396981650E+03  0.12701877577E+04  0.00000000000E+00 0.  1.
          3    1    6    6  503    0 -0.49065141978E+02  0.55215489583E+02 -0.40700717215E+02  0.84336746611E+02  0.00000000000E+00 0. -1.
         -3    1    6    6    0  503 -0.69001352662E+02  0.11620610126E+03  0.47155957521E+02  0.14313884508E+03  0.00000000000E+00 0.  1.
<mgrwt>
<rscale>  0 0.33372867E+04</rscale>
<asrwt>0</asrwt>
<pdfrwt beam="1">  1        1 0.33535753E+00 0.33372867E+04</pdfrwt>
<pdfrwt beam="2">  1       -2 0.19651345E+00 0.33372867E+04</pdfrwt>
<totfact> 0.22937271E-01</totfact>
</mgrwt>
</event>
<event>
12    4  0.4320235E-008  0.2051863E+04  0.7818608E-02  0.8582750E-01
         -2   -1    0    0    0  501 -0.00000000000E+00  0.00000000000E+00  0.37237777427E+03  0.37237777427E+03  0.00000000000E+00 0.  1.
          1   -1    0    0  501    0  0.00000000000E+00 -0.00000000000E+00 -0.28265251229E+04  0.28265251229E+04  0.00000000000E+00 0. -1.
        -24    2    1    2    0    0  0.57549397042E+03  0.16781476825E+03 -0.10589053403E+03  0.61393503460E+03  0.79676314397E+02 0.  0.
        254    2    1    2    0    0 -0.57549397042E+03 -0.16781476825E+03 -0.23482568146E+04  0.25849678626E+04  0.89910715538E+03 0.  0.
         23    2    4    4    0    0 -0.41005058603E+02  0.24266139523E+03 -0.13603812351E+04  0.13854854380E+04  0.91470358602E+02 0.  0.
         23    2    4    4    0    0 -0.53448891181E+03 -0.41047616349E+03 -0.98787557955E+03  0.11994824246E+04  0.93224721579E+02 0.  0.
          1    1    3    3  502    0  0.16907292596E+03  0.19837248652E+02 -0.52416780369E+02  0.17811987422E+03  0.00000000000E+00 0. -1.
         -2    1    3    3    0  502  0.40642104446E+03  0.14797751960E+03 -0.53473753662E+02  0.43581516038E+03  0.00000000000E+00 0.  1.
         11    1    5    5    0    0  0.11995462667E+02  0.13333741096E+02 -0.34594120907E+02  0.38967075558E+02  0.00000000000E+00 0.  1.
        -11    1    5    5    0    0 -0.53000521270E+02  0.22932765414E+03 -0.13257871142E+04  0.13465183624E+04  0.00000000000E+00 0. -1.
          3    1    6    6  503    0 -0.53212824140E+03 -0.41505582765E+03 -0.98320438049E+03  0.11925278442E+04  0.00000000000E+00 0. -1.
         -3    1    6    6    0  503 -0.23606704102E+01  0.45796641574E+01 -0.46711990612E+01  0.69545804510E+01  0.00000000000E+00 0.  1.
<mgrwt>
<rscale>  0 0.20518627E+04</rscale>
<asrwt>0</asrwt>
<pdfrwt beam="1">  1        1 0.43485003E+00 0.20518627E+04</pdfrwt>
<pdfrwt beam="2">  1       -2 0.57288887E-01 0.20518627E+04</pdfrwt>
<totfact> 0.18501697E+00</totfact>
</mgrwt>
</event>
<event>
12    4  0.4320235E-008  0.1077818E+04  0.7818608E-02  0.9227086E-01
          1   -1    0    0  501    0  0.00000000000E+00  0.00000000000E+00  0.20080855340E+03  0.20080855340E+03  0.00000000000E+00 0. -1.
         -2   -1    0    0    0  501 -0.00000000000E+00 -0.00000000000E+00 -0.14462675607E+04  0.14462675607E+04  0.00000000000E+00 0.  1.
        -24    2    1    2    0    0  0.69597509956E+02  0.10467099600E+03 -0.29799307075E+03  0.33301383376E+03  0.79363168209E+02 0.  0.
        254    2    1    2    0    0 -0.69597509956E+02 -0.10467099600E+03 -0.94746593659E+03  0.13140622804E+04  0.90181380834E+03 0.  0.
         23    2    4    4    0    0 -0.25008513851E+03 -0.43985948910E+03 -0.46792846132E+03  0.69526974426E+03  0.91782491332E+02 0.  0.
         23    2    4    4    0    0  0.18048762855E+03  0.33518849310E+03 -0.47953747528E+03  0.61879253612E+03  0.89559491960E+02 0.  0.
          3    1    3    3  502    0 -0.91353612845E+01 -0.42030853480E+01 -0.63065430049E+01  0.11869845699E+02  0.00000000000E+00 0. -1.
         -4    1    3    3    0  502  0.78732871241E+02  0.10887408135E+03 -0.29168652774E+03  0.32114398807E+03  0.00000000000E+00 0.  1.
         11    1    5    5    0    0 -0.77457276842E+02 -0.16710616197E+03 -0.22785867499E+03  0.29299091261E+03  0.00000000000E+00 0.  1.
        -11    1    5    5    0    0 -0.17262786167E+03 -0.27275332713E+03 -0.24006978633E+03  0.40227883164E+03  0.00000000000E+00 0. -1.
          4    1    6    6  503    0  0.14360017599E+03  0.18103185428E+03 -0.31074553189E+03  0.38724195072E+03  0.00000000000E+00 0. -1.
         -4    1    6    6    0  503  0.36887452566E+02  0.15415663882E+03 -0.16879194339E+03  0.23155058541E+03  0.00000000000E+00 0.  1.
<mgrwt>
<rscale>  0 0.10778180E+04</rscale>
<asrwt>0</asrwt>
<pdfrwt beam="1">  1        1 0.30893622E-01 0.10778180E+04</pdfrwt>
<pdfrwt beam="2">  1       -2 0.22250271E+00 0.10778180E+04</pdfrwt>
<totfact> 0.12285094E+01</totfact>
</mgrwt>
</event>
<event>
12    4  0.4320235E-008  0.1069799E+04  0.7818608E-02  0.9235138E-01
          1   -1    0    0  501    0  0.00000000000E+00  0.00000000000E+00  0.17632432739E+04  0.17632432739E+04  0.00000000000E+00 0. -1.
         -2   -1    0    0    0  501 -0.00000000000E+00 -0.00000000000E+00 -0.16226774506E+03  0.16226774506E+03  0.00000000000E+00 0.  1.
        -24    2    1    2    0    0 -0.11250766770E+03  0.11166462132E+02  0.27831209056E+03  0.31083357884E+03  0.79857553303E+02 0.  0.
        254    2    1    2    0    0  0.11250766770E+03 -0.11166462132E+02  0.13226634383E+04  0.16146774402E+04  0.91921814578E+03 0.  0.
         23    2    4    4    0    0  0.49100660327E+03 -0.21404202197E+02  0.51227683720E+03  0.71573912074E+03  0.91155398658E+02 0.  0.
         23    2    4    4    0    0 -0.37849893556E+03  0.10237740065E+02  0.81038660113E+03  0.89893831943E+03  0.89428201933E+02 0.  0.
          1    1    3    3  502    0 -0.94461924953E+02 -0.42267358501E+01  0.26937135223E+03  0.28548528152E+03  0.00000000000E+00 0. -1.
         -2    1    3    3    0  502 -0.18045742748E+02  0.15393197982E+02  0.89407383248E+01  0.25348297324E+02  0.00000000000E+00 0.  1.
         11    1    5    5    0    0  0.34815678278E+03  0.24466295078E+02  0.37656845464E+03  0.51343504557E+03  0.00000000000E+00 0.  1.
        -11    1    5    5    0    0  0.14284982049E+03 -0.45870497274E+02  0.13570838256E+03  0.20230407517E+03  0.00000000000E+00 0. -1.
          2    1    6    6  503    0 -0.82042013744E+02 -0.21777283390E+02  0.12075505242E+03  0.14760394567E+03  0.00000000000E+00 0. -1.
         -2    1    6    6    0  503 -0.29645692182E+03  0.32015023455E+02  0.68963154871E+03  0.75133437376E+03  0.00000000000E+00 0.  1.
<mgrwt>
<rscale>  0 0.10697991E+04</rscale>
<asrwt>0</asrwt>
<pdfrwt beam="1">  1        1 0.27126818E+00 0.10697991E+04</pdfrwt>
<pdfrwt beam="2">  1       -2 0.24964270E-01 0.10697991E+04</pdfrwt>
<totfact> 0.54467292E+01</totfact>
</mgrwt>
</event>
<event>
12    4  0.4320235E-008  0.2114419E+04  0.7818608E-02  0.8554918E-01
          1   -1    0    0  501    0  0.00000000000E+00  0.00000000000E+00  0.33755657781E+04  0.33755657781E+04  0.00000000000E+00 0. -1.
         -2   -1    0    0    0  501 -0.00000000000E+00 -0.00000000000E+00 -0.33111245116E+03  0.33111245116E+03  0.00000000000E+00 0.  1.
        -24    2    1    2    0    0 -0.84140949505E+03 -0.46225182627E+02  0.15598820400E+04  0.17747049593E+04  0.78987392367E+02 0.  0.
        254    2    1    2    0    0  0.84140949505E+03  0.46225182627E+02  0.14845712870E+04  0.19319732700E+04  0.90468895417E+03 0.  0.
         23    2    4    4    0    0  0.77429268687E+03  0.36234453137E+02  0.47147323306E+03  0.91168735248E+03  0.89692355585E+02 0.  0.
         23    2    4    4    0    0  0.67116808187E+02  0.99907294897E+01  0.10130980540E+04  0.10202859175E+04  0.10005601380E+03 0.  0.
          1    1    3    3  502    0 -0.34591708157E+03  0.12316471927E+02  0.68764823988E+03  0.76985091063E+03  0.00000000000E+00 0. -1.
         -2    1    3    3    0  502 -0.49549241349E+03 -0.58541654554E+02  0.87223380010E+03  0.10048540487E+04  0.00000000000E+00 0.  1.
         11    1    5    5    0    0  0.54800286026E+03  0.71927926414E+01  0.37452085646E+03  0.66379570882E+03  0.00000000000E+00 0. -1.
        -11    1    5    5    0    0  0.22628982660E+03  0.29041660496E+02  0.96952376599E+02  0.24789164366E+03  0.00000000000E+00 0.  1.
          3    1    6    6  503    0 -0.19014181485E+02  0.26020995401E+02  0.21668067493E+03  0.21906425128E+03  0.00000000000E+00 0. -1.
         -3    1    6    6    0  503  0.86130989671E+02 -0.16030265911E+02  0.79641737902E+03  0.80122166622E+03  0.00000000000E+00 0.  1.
<mgrwt>
<rscale>  0 0.21144189E+04</rscale>
<asrwt>0</asrwt>
<pdfrwt beam="1">  1        1 0.51931779E+00 0.21144189E+04</pdfrwt>
<pdfrwt beam="2">  1       -2 0.50940379E-01 0.21144189E+04</pdfrwt>
<totfact> 0.92136715E-01</totfact>
</mgrwt>
</event>
<event>
12    4  0.4320235E-008  0.3353989E+04  0.7818608E-02  0.8149292E-01
          1   -1    0    0  501    0  0.00000000000E+00  0.00000000000E+00  0.20449622438E+04  0.20449622438E+04  0.00000000000E+00 0. -1.
         -2   -1    0    0    0  501 -0.00000000000E+00 -0.00000000000E+00 -0.13752384345E+04  0.13752384345E+04  0.00000000000E+00 0.  1.
        -24    2    1    2    0    0 -0.11134137761E+04  0.10511009869E+03 -0.79036974932E+03  0.13718974653E+04  0.81730931412E+02 0.  0.
        254    2    1    2    0    0  0.11134137761E+04 -0.10511009869E+03  0.14600935586E+04  0.20483032130E+04  0.90162879434E+03 0.  0.
         23    2    4    4    0    0  0.93522310768E+03 -0.37837630872E+03  0.74806784525E+03  0.12598750383E+04  0.99341426289E+02 0.  0.
         23    2    4    4    0    0  0.17819066840E+03  0.27326621003E+03  0.71202571336E+03  0.78842817465E+03  0.90620274992E+02 0.  0.
          3    1    3    3  502    0 -0.84120242788E+01 -0.14462215124E+01  0.97237570351E+00  0.85906474516E+01  0.00000000000E+00 0. -1.
         -4    1    3    3    0  502 -0.11050017518E+04  0.10655632020E+03 -0.79134212502E+03  0.13633068179E+04  0.00000000000E+00 0.  1.
         11    1    5    5    0    0  0.40257840773E+03 -0.14543731641E+03  0.37532839496E+03  0.56929148196E+03  0.00000000000E+00 0. -1.
        -11    1    5    5    0    0  0.53264469994E+03 -0.23293899231E+03  0.37273945030E+03  0.69058355637E+03  0.00000000000E+00 0.  1.
          4    1    6    6  503    0 -0.81757162005E+01  0.29425328641E+02  0.85050879487E+02  0.90367828360E+02  0.00000000000E+00 0. -1.
         -4    1    6    6    0  503  0.18636638460E+03  0.24384088139E+03  0.62697483387E+03  0.69806034629E+03  0.00000000000E+00 0.  1.
<mgrwt>
<rscale>  0 0.33539891E+04</rscale>
<asrwt>0</asrwt>
<pdfrwt beam="1">  1        1 0.31460958E+00 0.33539891E+04</pdfrwt>
<pdfrwt beam="2">  1       -2 0.21157514E+00 0.33539891E+04</pdfrwt>
<totfact> 0.22565617E-01</totfact>
</mgrwt>
</event>
<event>
12    4  0.4320235E-008  0.1573882E+04  0.7818608E-02  0.8836756E-01
          1   -1    0    0  501    0  0.00000000000E+00  0.00000000000E+00  0.14081231061E+04  0.14081231061E+04  0.00000000000E+00 0. -1.
         -2   -1    0    0    0  501 -0.00000000000E+00 -0.00000000000E+00 -0.43978815217E+03  0.43978815217E+03  0.00000000000E+00 0.  1.
        -24    2    1    2    0    0 -0.38614898599E+03  0.91530529669E+02  0.73941879117E+03  0.84291065410E+03  0.79179194364E+02 0.  0.
        254    2    1    2    0    0  0.38614898599E+03 -0.91530529669E+02  0.22891616276E+03  0.10050006042E+04  0.89450250282E+03 0.  0.
         23    2    4    4    0    0 -0.26463692706E+03 -0.14669590164E+03  0.10466551106E+03  0.33298846213E+03  0.91509868262E+02 0.  0.
         23    2    4    4    0    0  0.65078591305E+03  0.55165371966E+02  0.12425065170E+03  0.67201214203E+03  0.97962093189E+02 0.  0.
          1    1    3    3  502    0 -0.30343512702E+03  0.10409215598E+03  0.59737886515E+03  0.67806309572E+03  0.00000000000E+00 0. -1.
         -2    1    3    3    0  502 -0.82713858975E+02 -0.12561626312E+02  0.14203992602E+03  0.16484755839E+03  0.00000000000E+00 0.  1.
         11    1    5    5    0    0 -0.25992370152E+03 -0.13156852968E+03  0.77365121675E+02  0.30142324175E+03  0.00000000000E+00 0. -1.
        -11    1    5    5    0    0 -0.47132255323E+01 -0.15127371952E+02  0.27300389383E+02  0.31565220379E+02  0.00000000000E+00 0.  1.
          2    1    6    6  503    0  0.43740819770E+03 -0.87259358720E+01  0.74647778026E+02  0.44381794030E+03  0.00000000000E+00 0.  1.
         -2    1    6    6    0  503  0.21337771535E+03  0.63891307838E+02  0.49602873672E+02  0.22819420173E+03  0.00000000000E+00 0. -1.
<mgrwt>
<rscale>  0 0.15738816E+04</rscale>
<asrwt>0</asrwt>
<pdfrwt beam="1">  1        1 0.21663432E+00 0.15738816E+04</pdfrwt>
<pdfrwt beam="2">  1       -2 0.67659716E-01 0.15738816E+04</pdfrwt>
<totfact> 0.12805851E+01</totfact>
</mgrwt>
</event>
<event>
12    4  0.4320235E-008  0.2306844E+04  0.7818608E-02  0.8475227E-01
          1   -1    0    0  501    0  0.00000000000E+00  0.00000000000E+00  0.30084623459E+04  0.30084623459E+04  0.00000000000E+00 0. -1.
         -2   -1    0    0    0  501 -0.00000000000E+00 -0.00000000000E+00 -0.44221355073E+03  0.44221355073E+03  0.00000000000E+00 0.  1.
        -24    2    1    2    0    0  0.35028520522E+03  0.83135981909E+03  0.52855669761E+03  0.10487893871E+04  0.82025130506E+02 0.  0.
        254    2    1    2    0    0 -0.35028520522E+03 -0.83135981909E+03  0.20376920976E+04  0.24018865096E+04  0.89610872477E+03 0.  0.
         23    2    4    4    0    0 -0.28105365005E+03 -0.94479470845E+03  0.20067075197E+04  0.22379082131E+04  0.98640281820E+02 0.  0.
         23    2    4    4    0    0 -0.69231555167E+02  0.11343488936E+03  0.30984577819E+02  0.16397829646E+03  0.90930497051E+02 0.  0.
          1    1    3    3  502    0  0.17496357147E+02  0.14361605838E+02  0.58337517376E+01  0.23375433579E+02  0.00000000000E+00 0. -1.
         -2    1    3    3    0  502  0.33278884807E+03  0.81699821326E+03  0.52272294588E+03  0.10254139535E+04  0.00000000000E+00 0.  1.
         11    1    5    5    0    0 -0.75812580053E+02 -0.41626933233E+03  0.82112597525E+03  0.92372916570E+03  0.00000000000E+00 0. -1.
        -11    1    5    5    0    0 -0.20524107000E+03 -0.52852537612E+03  0.11855815445E+04  0.13141790474E+04  0.00000000000E+00 0.  1.
          1    1    6    6  503    0 -0.15020256052E+02  0.57415410419E+02  0.56512025168E+02  0.81949657925E+02  0.00000000000E+00 0. -1.
         -1    1    6    6    0  503 -0.54211299115E+02  0.56019478939E+02 -0.25527447349E+02  0.82028638538E+02  0.00000000000E+00 0.  1.
<mgrwt>
<rscale>  0 0.23068444E+04</rscale>
<asrwt>0</asrwt>
<pdfrwt beam="1">  1        1 0.46284035E+00 0.23068444E+04</pdfrwt>
<pdfrwt beam="2">  1       -2 0.68032856E-01 0.23068444E+04</pdfrwt>
<totfact> 0.92611393E-01</totfact>
</mgrwt>
</event>
<event>
12    4  0.4320235E-008  0.1398767E+04  0.7818608E-02  0.8954712E-01
          1   -1    0    0  501    0  0.00000000000E+00  0.00000000000E+00  0.19990702543E+04  0.19990702543E+04  0.00000000000E+00 0. -1.
         -2   -1    0    0    0  501 -0.00000000000E+00 -0.00000000000E+00 -0.24468229322E+03  0.24468229322E+03  0.00000000000E+00 0.  1.
        -24    2    1    2    0    0  0.98351866099E+02  0.15821007390E+02  0.11250160224E+04  0.11324340679E+04  0.82598265685E+02 0.  0.
        254    2    1    2    0    0 -0.98351866099E+02 -0.15821007390E+02  0.62937193861E+03  0.11113184796E+04  0.91049235701E+03 0.  0.
         23    2    4    4    0    0  0.20141632273E+01 -0.39182734541E+03  0.47283942215E+02  0.40488733413E+03  0.90361809850E+02 0.  0.
         23    2    4    4    0    0 -0.10036602933E+03  0.37600633802E+03  0.58208799639E+03  0.70643114548E+03  0.93618490099E+02 0.  0.
          3    1    3    3  502    0  0.98444587206E+02  0.87530938603E+01  0.65950669783E+03  0.66687108041E+03  0.00000000000E+00 0. -1.
         -4    1    3    3    0  502 -0.92721106969E-01  0.70679135298E+01  0.46550932460E+03  0.46556298746E+03  0.00000000000E+00 0.  1.
         11    1    5    5    0    0  0.30633377222E+02 -0.10301685277E+03  0.39669628056E+02  0.11456245085E+03  0.00000000000E+00 0.  1.
        -11    1    5    5    0    0 -0.28619213995E+02 -0.28881049264E+03  0.76143141583E+01  0.29032488328E+03  0.00000000000E+00 0. -1.
          2    1    6    6  503    0 -0.58146970882E+02  0.19620943804E+03  0.38707836914E+03  0.43784572358E+03  0.00000000000E+00 0.  1.
         -2    1    6    6    0  503 -0.42219058445E+02  0.17979689998E+03  0.19500962725E+03  0.26858542191E+03  0.00000000000E+00 0. -1.
<mgrwt>
<rscale>  0 0.13987667E+04</rscale>
<asrwt>0</asrwt>
<pdfrwt beam="1">  1        1 0.30754926E+00 0.13987667E+04</pdfrwt>
<pdfrwt beam="2">  1       -2 0.37643431E-01 0.13987667E+04</pdfrwt>
<totfact> 0.17024464E+01</totfact>
</mgrwt>
</event>
<event>
12    4  0.4320235E-008  0.2539762E+04  0.7818608E-02  0.8388955E-01
         -2   -1    0    0    0  501 -0.00000000000E+00  0.00000000000E+00  0.94447618651E+03  0.94447618651E+03  0.00000000000E+00 0.  1.
          1   -1    0    0  501    0  0.00000000000E+00 -0.00000000000E+00 -0.17073996209E+04  0.17073996209E+04  0.00000000000E+00 0. -1.
        -24    2    1    2    0    0  0.51377450955E+02  0.80329594627E+03 -0.11262019158E+04  0.13864960077E+04  0.78207445689E+02 0.  0.
        254    2    1    2    0    0 -0.51377450955E+02 -0.80329594627E+03  0.36327848141E+03  0.12653797997E+04  0.90625093798E+03 0.  0.
         23    2    4    4    0    0  0.13990478012E+02 -0.98997475500E+03  0.33185287555E+03  0.10482888958E+04  0.92398750048E+02 0.  0.
         23    2    4    4    0    0 -0.65367928967E+02  0.18667880873E+03  0.31425605863E+02  0.21709090388E+03  0.83779162552E+02 0.  0.
          1    1    3    3  502    0  0.20619309904E+01  0.49505949957E+03 -0.73142769054E+03  0.88321833437E+03  0.00000000000E+00 0. -1.
         -2    1    3    3    0  502  0.49315519965E+02  0.30823644670E+03 -0.39477422526E+03  0.50327767337E+03  0.00000000000E+00 0.  1.
         11    1    5    5    0    0  0.48227290682E+02 -0.33179493954E+03  0.10841646165E+03  0.35237463391E+03  0.00000000000E+00 0. -1.
        -11    1    5    5    0    0 -0.34236812671E+02 -0.65817981546E+03  0.22343641390E+03  0.69591426187E+03  0.00000000000E+00 0.  1.
          3    1    6    6  503    0  0.17450331659E+01  0.11675992192E+03  0.61602794111E+01  0.11693533919E+03  0.00000000000E+00 0. -1.
         -3    1    6    6    0  503 -0.67112962133E+02  0.69918886804E+02  0.25265326452E+02  0.10015556469E+03  0.00000000000E+00 0.  1.
<mgrwt>
<rscale>  0 0.25397624E+04</rscale>
<asrwt>0</asrwt>
<pdfrwt beam="1">  1        1 0.26267687E+00 0.25397624E+04</pdfrwt>
<pdfrwt beam="2">  1       -2 0.14530403E+00 0.25397624E+04</pdfrwt>
<totfact> 0.11939908E+00</totfact>
</mgrwt>
</event>
<event>
12    4  0.4320235E-008  0.2179680E+04  0.7818608E-02  0.8526934E-01
          1   -1    0    0  501    0  0.00000000000E+00  0.00000000000E+00  0.93051976199E+03  0.93051976199E+03  0.00000000000E+00 0. -1.
         -2   -1    0    0    0  501 -0.00000000000E+00 -0.00000000000E+00 -0.12764387625E+04  0.12764387625E+04  0.00000000000E+00 0.  1.
        -24    2    1    2    0    0 -0.18592307381E+03 -0.62370404193E+03 -0.77369434888E+03  0.10142227521E+04  0.80440811721E+02 0.  0.
        254    2    1    2    0    0  0.18592307381E+03  0.62370404193E+03  0.42777534833E+03  0.11927357724E+04  0.90335638194E+03 0.  0.
         23    2    4    4    0    0  0.51518215126E+03  0.38338722963E+03  0.89641122102E+02  0.65540924478E+03  0.95537063789E+02 0.  0.
         23    2    4    4    0    0 -0.32925907745E+03  0.24031681230E+03  0.33813422623E+03  0.53732652760E+03  0.90671560905E+02 0.  0.
          3    1    3    3  502    0 -0.37548652826E+02 -0.19369578616E+03 -0.28445519918E+03  0.34618307186E+03  0.00000000000E+00 0. -1.
         -4    1    3    3    0  502 -0.14837442098E+03 -0.43000825577E+03 -0.48923914970E+03  0.66803968028E+03  0.00000000000E+00 0.  1.
         11    1    5    5    0    0  0.25417460580E+03  0.22987224589E+03  0.82614951856E+02  0.35252121913E+03  0.00000000000E+00 0. -1.
        -11    1    5    5    0    0  0.26100754545E+03  0.15351498374E+03  0.70261702456E+01  0.30288802566E+03  0.00000000000E+00 0.  1.
          3    1    6    6  503    0 -0.10452349869E+03  0.58487185977E+02  0.51977209368E+02  0.13056623987E+03  0.00000000000E+00 0. -1.
         -3    1    6    6    0  503 -0.22473557876E+03  0.18182962632E+03  0.28615701687E+03  0.40676028772E+03  0.00000000000E+00 0.  1.
<mgrwt>
<rscale>  0 0.21796802E+04</rscale>
<asrwt>0</asrwt>
<pdfrwt beam="1">  1        1 0.14315689E+00 0.21796802E+04</pdfrwt>
<pdfrwt beam="2">  1       -2 0.19637519E+00 0.21796802E+04</pdfrwt>
<totfact> 0.19330238E+00</totfact>
</mgrwt>
</event>
<event>
12    4  0.4320235E-008  0.1566989E+04  0.7818608E-02  0.8841088E-01
         -2   -1    0    0    0  501 -0.00000000000E+00  0.00000000000E+00  0.37433731427E+03  0.37433731427E+03  0.00000000000E+00 0.  1.
          1   -1    0    0  501    0  0.00000000000E+00 -0.00000000000E+00 -0.16398681270E+04  0.16398681270E+04  0.00000000000E+00 0. -1.
        -24    2    1    2    0    0  0.30468141744E+03  0.19091019043E+03 -0.91295324349E+03  0.98412102811E+03  0.75717278259E+02 0.  0.
        254    2    1    2    0    0 -0.30468141744E+03 -0.19091019043E+03 -0.35257756922E+03  0.10300844132E+04  0.89860196358E+03 0.  0.
         23    2    4    4    0    0 -0.34794364482E+02 -0.46545172249E+03  0.34455192949E+02  0.47657263678E+03  0.89879719873E+02 0.  0.
         23    2    4    4    0    0 -0.26988705296E+03  0.27454153205E+03 -0.38703276217E+03  0.55351177637E+03  0.91481437490E+02 0.  0.
          1    1    3    3  502    0  0.25510704070E+03  0.12693995049E+03 -0.74655045231E+03  0.79908130443E+03  0.00000000000E+00 0. -1.
         -4    1    3    3    0  502  0.49574376745E+02  0.63970239944E+02 -0.16640279118E+03  0.18503972368E+03  0.00000000000E+00 0.  1.
         11    1    5    5    0    0 -0.59270853571E+02 -0.29104881307E+03 -0.51011169291E+00  0.29702307298E+03  0.00000000000E+00 0. -1.
        -11    1    5    5    0    0  0.24476489089E+02 -0.17440290942E+03  0.34965304642E+02  0.17954956380E+03  0.00000000000E+00 0.  1.
          1    1    6    6  503    0 -0.79771742848E+02  0.82243684558E+02 -0.60567760491E+02  0.12959941442E+03  0.00000000000E+00 0. -1.
         -1    1    6    6    0  503 -0.19011531011E+03  0.19229784749E+03 -0.32646500168E+03  0.42391236195E+03  0.00000000000E+00 0.  1.
<mgrwt>
<rscale>  0 0.15669893E+04</rscale>
<asrwt>0</asrwt>
<pdfrwt beam="1">  1        1 0.25228741E+00 0.15669893E+04</pdfrwt>
<pdfrwt beam="2">  1       -2 0.57590356E-01 0.15669893E+04</pdfrwt>
<totfact> 0.12492747E+01</totfact>
</mgrwt>
</event>
<event>
12    4  0.4320235E-008  0.1874341E+04  0.7818608E-02  0.8667735E-01
         -4   -1    0    0    0  501 -0.00000000000E+00  0.00000000000E+00  0.48116886298E+03  0.48116886298E+03  0.00000000000E+00 0.  1.
          3   -1    0    0  501    0  0.00000000000E+00 -0.00000000000E+00 -0.18253220855E+04  0.18253220855E+04  0.00000000000E+00 0. -1.
        -24    2    1    2    0    0  0.65195345419E+03 -0.19049625987E+03 -0.79266050407E+03  0.10470262151E+04  0.81370073963E+02 0.  0.
        254    2    1    2    0    0 -0.65195345419E+03  0.19049625987E+03 -0.55149271849E+03  0.12594647334E+04  0.90596637062E+03 0.  0.
         23    2    4    4    0    0 -0.34828299213E+03 -0.34866253058E+03 -0.18312001167E+03  0.53350708346E+03  0.90720816755E+02 0.  0.
         23    2    4    4    0    0 -0.30367046206E+03  0.53915879045E+03 -0.36837270681E+03  0.72595764995E+03  0.91695733519E+02 0.  0.
          1    1    3    3  502    0  0.62826248822E+03 -0.19413085330E+03 -0.77902427919E+03  0.10194505235E+04  0.00000000000E+00 0. -1.
         -2    1    3    3    0  502  0.23690965969E+02  0.36345934218E+01 -0.13636224877E+02  0.27575691592E+02  0.00000000000E+00 0.  1.
         11    1    5    5    0    0 -0.15757792326E+03 -0.10520733311E+03 -0.44619653255E+02  0.19465430460E+03  0.00000000000E+00 0. -1.
        -11    1    5    5    0    0 -0.19070506887E+03 -0.24345519746E+03 -0.13850035842E+03  0.33885277887E+03  0.00000000000E+00 0.  1.
          2    1    6    6  503    0 -0.31527124246E+02  0.15333413146E+02 -0.16592481972E+02  0.38786383950E+02  0.00000000000E+00 0. -1.
         -2    1    6    6    0  503 -0.27214333781E+03  0.52382537730E+03 -0.35178022484E+03  0.68717126600E+03  0.00000000000E+00 0.  1.
<mgrwt>
<rscale>  0 0.18743406E+04</rscale>
<asrwt>0</asrwt>
<pdfrwt beam="1">  1        3 0.28081878E+00 0.18743406E+04</pdfrwt>
<pdfrwt beam="2">  1       -4 0.74025980E-01 0.18743406E+04</pdfrwt>
<totfact> 0.17602149E-01</totfact>
</mgrwt>
</event>
<event>
12    4  0.4320235E-008  0.2819620E+04  0.7818608E-02  0.8297203E-01
         -2   -1    0    0    0  501 -0.00000000000E+00  0.00000000000E+00  0.86079605311E+03  0.86079605311E+03  0.00000000000E+00 0.  1.
          1   -1    0    0  501    0  0.00000000000E+00 -0.00000000000E+00 -0.23089846887E+04  0.23089846887E+04  0.00000000000E+00 0. -1.
        -24    2    1    2    0    0 -0.10030603313E+04  0.32085005124E+03 -0.14381614691E+04  0.17844839696E+04  0.83665064502E+02 0.  0.
        254    2    1    2    0    0  0.10030603313E+04 -0.32085005124E+03 -0.10027166418E+02  0.13852967721E+04  0.89992878568E+03 0.  0.
         23    2    4    4    0    0  0.90240487720E+03  0.59751338814E+02 -0.21283164282E+03  0.93363831385E+03  0.92078271215E+02 0.  0.
         23    2    4    4    0    0  0.10065545408E+03 -0.38060139005E+03  0.20280447640E+03  0.45165845829E+03  0.88751161968E+02 0.  0.
          3    1    3    3  502    0 -0.41174320306E+03  0.10518720009E+03 -0.63482968912E+03  0.76394080040E+03  0.00000000000E+00 0. -1.
         -4    1    3    3    0  502 -0.59131712821E+03  0.21566285115E+03 -0.80333178002E+03  0.10205431692E+04  0.00000000000E+00 0.  1.
         11    1    5    5    0    0  0.13608804237E+03  0.28540141850E+02 -0.55054189972E+01  0.13915748134E+03  0.00000000000E+00 0.  1.
        -11    1    5    5    0    0  0.76631683482E+03  0.31211196964E+02 -0.20732622382E+03  0.79448083252E+03  0.00000000000E+00 0. -1.
          4    1    6    6  503    0  0.27834855339E+02 -0.19957725580E+03  0.14466094375E+03  0.24805775305E+03  0.00000000000E+00 0. -1.
         -4    1    6    6    0  503  0.72820598739E+02 -0.18102413426E+03  0.58143532653E+02  0.20360070524E+03  0.00000000000E+00 0.  1.
<mgrwt>
<rscale>  0 0.28196205E+04</rscale>
<asrwt>0</asrwt>
<pdfrwt beam="1">  1        1 0.35522841E+00 0.28196205E+04</pdfrwt>
<pdfrwt beam="2">  1       -2 0.13243016E+00 0.28196205E+04</pdfrwt>
<totfact> 0.57774034E-01</totfact>
</mgrwt>
</event>
<event>
12    4  0.4320235E-008  0.1711715E+04  0.7818608E-02  0.8754711E-01
         -4   -1    0    0    0  501 -0.00000000000E+00  0.00000000000E+00  0.61597349647E+03  0.61597349647E+03  0.00000000000E+00 0.  1.
          3   -1    0    0  501    0  0.00000000000E+00 -0.00000000000E+00 -0.11891619409E+04  0.11891619409E+04  0.00000000000E+00 0. -1.
        -24    2    1    2    0    0  0.24399765961E+03  0.40819496541E+03  0.16679021207E+03  0.51026592913E+03  0.79964716630E+02 0.  0.
        254    2    1    2    0    0 -0.24399765961E+03 -0.40819496541E+03 -0.73997865650E+03  0.12948695082E+04  0.95024241308E+03 0.  0.
         23    2    4    4    0    0  0.23517082793E+03 -0.49739404075E+03 -0.47701778590E+03  0.73374536338E+03  0.90167289724E+02 0.  0.
         23    2    4    4    0    0 -0.47916848754E+03  0.89199075343E+02 -0.26296087060E+03  0.56112414486E+03  0.90293809234E+02 0.  0.
          3    1    3    3  502    0  0.90034827196E+02  0.92813966482E+02  0.24746925684E+02  0.13165528023E+03  0.00000000000E+00 0. -1.
         -4    1    3    3    0  502  0.15396283241E+03  0.31538099893E+03  0.14204328639E+03  0.37861064890E+03  0.00000000000E+00 0.  1.
         11    1    5    5    0    0  0.92048184092E+01  0.16074413027E+01 -0.11950232230E+02  0.15169726426E+02  0.00000000000E+00 0.  1.
        -11    1    5    5    0    0  0.22596600952E+03 -0.49900148206E+03 -0.46506755367E+03  0.71857563696E+03  0.00000000000E+00 0. -1.
          2    1    6    6  503    0 -0.47536464371E+03  0.86283443181E+02 -0.24339203404E+03  0.54097694894E+03  0.00000000000E+00 0. -1.
         -2    1    6    6    0  503 -0.38038438260E+01  0.29156321621E+01 -0.19568836562E+02  0.20147195912E+02  0.00000000000E+00 0.  1.
<mgrwt>
<rscale>  0 0.17117152E+04</rscale>
<asrwt>0</asrwt>
<pdfrwt beam="1">  1        3 0.18294799E+00 0.17117152E+04</pdfrwt>
<pdfrwt beam="2">  1       -4 0.94765154E-01 0.17117152E+04</pdfrwt>
<totfact> 0.38775415E-01</totfact>
</mgrwt>
</event>
<event>
12    4  0.4320235E-008  0.1903506E+04  0.7818608E-02  0.8653113E-01
          1   -1    0    0  501    0  0.00000000000E+00  0.00000000000E+00  0.13817119741E+04  0.13817119741E+04  0.00000000000E+00 0. -1.
         -2   -1    0    0    0  501 -0.00000000000E+00 -0.00000000000E+00 -0.65558811551E+03  0.65558811551E+03  0.00000000000E+00 0.  1.
        -24    2    1    2    0    0 -0.67487826073E+03 -0.29579954328E+03  0.35899899356E+03  0.82350992893E+03  0.79563113633E+02 0.  0.
        254    2    1    2    0    0  0.67487826073E+03  0.29579954328E+03  0.36712486499E+03  0.12137901606E+04  0.89193489167E+03 0.  0.
         23    2    4    4    0    0 -0.13128331460E+03  0.30588094232E+03  0.10126752171E+03  0.35995968660E+03  0.92289790630E+02 0.  0.
         23    2    4    4    0    0  0.80616157533E+03 -0.10081399040E+02  0.26585734328E+03  0.85383047405E+03  0.91368655982E+02 0.  0.
          3    1    3    3  502    0 -0.56070108342E+03 -0.27546807022E+03  0.29218256314E+03  0.68966587045E+03  0.00000000000E+00 0. -1.
         -4    1    3    3    0  502 -0.11417717731E+03 -0.20331473059E+02  0.66816430422E+02  0.13384405848E+03  0.00000000000E+00 0.  1.
         11    1    5    5    0    0 -0.84866934944E+02  0.27549653570E+03  0.97661167716E+02  0.30436563786E+03  0.00000000000E+00 0. -1.
        -11    1    5    5    0    0 -0.46416379655E+02  0.30384406622E+02  0.36063539924E+01  0.55594048738E+02  0.00000000000E+00 0.  1.
          2    1    6    6  503    0  0.21663790326E+03 -0.37316961731E+02  0.94704778699E+02  0.23936067319E+03  0.00000000000E+00 0. -1.
         -2    1    6    6    0  503  0.58952367207E+03  0.27235562691E+02  0.17115256458E+03  0.61446980086E+03  0.00000000000E+00 0.  1.
<mgrwt>
<rscale>  0 0.19035062E+04</rscale>
<asrwt>0</asrwt>
<pdfrwt beam="1">  1        1 0.21257107E+00 0.19035062E+04</pdfrwt>
<pdfrwt beam="2">  1       -2 0.10085971E+00 0.19035062E+04</pdfrwt>
<totfact> 0.52572931E+00</totfact>
</mgrwt>
</event>
<event>
12    4  0.4320235E-008  0.2479774E+04  0.7818608E-02  0.8410227E-01
          1   -1    0    0  501    0  0.00000000000E+00  0.00000000000E+00  0.18692284752E+04  0.18692284752E+04  0.00000000000E+00 0. -1.
         -2   -1    0    0    0  501 -0.00000000000E+00 -0.00000000000E+00 -0.82243539888E+03  0.82243539888E+03  0.00000000000E+00 0.  1.
        -24    2    1    2    0    0  0.58505025549E+03 -0.58291072571E+02  0.14305305567E+04  0.15486801992E+04  0.79442024304E+02 0.  0.
        254    2    1    2    0    0 -0.58505025549E+03  0.58291072571E+02 -0.38373748036E+03  0.11429836749E+04  0.90192880905E+03 0.  0.
         23    2    4    4    0    0  0.14886672413E+03  0.98493332256E+02 -0.34723077958E+03  0.40126531366E+03  0.92641241399E+02 0.  0.
         23    2    4    4    0    0 -0.73391697961E+03 -0.40202259685E+02 -0.36506700790E+02  0.74171836122E+03  0.92536660391E+02 0.  0.
          3    1    3    3  502    0  0.54080605367E+03 -0.36737735882E+02  0.13429671708E+04  0.14482339834E+04  0.00000000000E+00 0. -1.
         -4    1    3    3    0  502  0.44244201815E+02 -0.21553336689E+02  0.87563385956E+02  0.10044621584E+03  0.00000000000E+00 0.  1.
         11    1    5    5    0    0  0.83567963993E+02  0.79759100864E+02 -0.29095856685E+03  0.31305272144E+03  0.00000000000E+00 0.  1.
        -11    1    5    5    0    0  0.65298760133E+02  0.18734231392E+02 -0.56272212726E+02  0.88212592218E+02  0.00000000000E+00 0. -1.
          3    1    6    6  503    0 -0.17999795361E+03  0.20343935305E+02 -0.35020521741E+02  0.18449817329E+03  0.00000000000E+00 0. -1.
         -3    1    6    6    0  503 -0.55391902601E+03 -0.60546194991E+02 -0.14861790488E+01  0.55722018792E+03  0.00000000000E+00 0.  1.
<mgrwt>
<rscale>  0 0.24797739E+04</rscale>
<asrwt>0</asrwt>
<pdfrwt beam="1">  1        1 0.28757361E+00 0.24797739E+04</pdfrwt>
<pdfrwt beam="2">  1       -2 0.12652852E+00 0.24797739E+04</pdfrwt>
<totfact> 0.13293409E+00</totfact>
</mgrwt>
</event>
<event>
12    4  0.4320235E-008  0.1828952E+04  0.7818608E-02  0.8691053E-01
          1   -1    0    0  501    0  0.00000000000E+00  0.00000000000E+00  0.73900616358E+03  0.73900616358E+03  0.00000000000E+00 0. -1.
         -2   -1    0    0    0  501 -0.00000000000E+00 -0.00000000000E+00 -0.11316098646E+04  0.11316098646E+04  0.00000000000E+00 0.  1.
        -24    2    1    2    0    0  0.37170872743E+03  0.54802941523E+03 -0.11207177966E+03  0.67642716192E+03  0.80560558488E+02 0.  0.
        254    2    1    2    0    0 -0.37170872743E+03 -0.54802941523E+03 -0.28053192139E+03  0.11941888663E+04  0.95335474586E+03 0.  0.
         23    2    4    4    0    0 -0.62656625678E+03 -0.47636446404E+03  0.67746207709E+01  0.79286929775E+03  0.95328123260E+02 0.  0.
         23    2    4    4    0    0  0.25485752936E+03 -0.71664951183E+02 -0.28730654216E+03  0.40131956854E+03  0.91783012737E+02 0.  0.
          3    1    3    3  502    0  0.32957557155E+03  0.46935503766E+03 -0.70016318061E+02  0.57776854669E+03  0.00000000000E+00 0. -1.
         -4    1    3    3    0  502  0.42133155875E+02  0.78674377563E+02 -0.42055461603E+02  0.98658615232E+02  0.00000000000E+00 0.  1.
         11    1    5    5    0    0 -0.40308525094E+03 -0.35838972780E+03 -0.11575168854E+02  0.53949504266E+03  0.00000000000E+00 0.  1.
        -11    1    5    5    0    0 -0.22348100584E+03 -0.11797473625E+03  0.18349789625E+02  0.25337425509E+03  0.00000000000E+00 0. -1.
          1    1    6    6  503    0  0.19478997155E+03 -0.19653963194E+02 -0.23644803875E+03  0.30698059599E+03  0.00000000000E+00 0. -1.
         -1    1    6    6    0  503  0.60067557806E+02 -0.52010987989E+02 -0.50858503406E+02  0.94338972547E+02  0.00000000000E+00 0.  1.
<mgrwt>
<rscale>  0 0.18289523E+04</rscale>
<asrwt>0</asrwt>
<pdfrwt beam="1">  1        1 0.11369326E+00 0.18289523E+04</pdfrwt>
<pdfrwt beam="2">  1       -2 0.17409383E+00 0.18289523E+04</pdfrwt>
<totfact> 0.41174893E+00</totfact>
</mgrwt>
</event>
<event>
12    4  0.4320235E-008  0.2426835E+04  0.7818608E-02  0.8429525E-01
         -2   -1    0    0    0  501 -0.00000000000E+00  0.00000000000E+00  0.56618210137E+03  0.56618210137E+03  0.00000000000E+00 0.  1.
          1   -1    0    0  501    0  0.00000000000E+00 -0.00000000000E+00 -0.26005440255E+04  0.26005440255E+04  0.00000000000E+00 0. -1.
        -24    2    1    2    0    0  0.11422881047E+03 -0.80487542948E+03 -0.17592949058E+04  0.19396906503E+04  0.80053576917E+02 0.  0.
        254    2    1    2    0    0 -0.11422881047E+03  0.80487542948E+03 -0.27506701826E+03  0.12270354765E+04  0.87697292884E+03 0.  0.
         23    2    4    4    0    0  0.69907385275E+01  0.72657464494E+03 -0.54134398633E+03  0.91088989418E+03  0.93314000528E+02 0.  0.
         23    2    4    4    0    0 -0.12121954900E+03  0.78300784549E+02  0.26627696806E+03  0.31614558232E+03  0.90660981555E+02 0.  0.
          1    1    3    3  502    0  0.62457805205E+02 -0.65002772941E+03 -0.13774519235E+04  0.15244050735E+04  0.00000000000E+00 0. -1.
         -2    1    3    3    0  502  0.51771005266E+02 -0.15484770007E+03 -0.38184298232E+03  0.41528557686E+03  0.00000000000E+00 0.  1.
         11    1    5    5    0    0  0.26181455305E+02  0.35320151377E+03 -0.31404337672E+03  0.47334978651E+03  0.00000000000E+00 0. -1.
        -11    1    5    5    0    0 -0.19190716778E+02  0.37337313117E+03 -0.22730060961E+03  0.43754010767E+03  0.00000000000E+00 0.  1.
          4    1    6    6  503    0 -0.11980521034E+03  0.76691723173E+02  0.27367899055E+03  0.30843978131E+03  0.00000000000E+00 0. -1.
         -4    1    6    6    0  503 -0.14143386579E+01  0.16090613758E+01 -0.74020224814E+01  0.77058010074E+01  0.00000000000E+00 0.  1.
<mgrwt>
<rscale>  0 0.24268345E+04</rscale>
<asrwt>0</asrwt>
<pdfrwt beam="1">  1        1 0.40008370E+00 0.24268345E+04</pdfrwt>
<pdfrwt beam="2">  1       -2 0.87104938E-01 0.24268345E+04</pdfrwt>
<totfact> 0.10321925E+00</totfact>
</mgrwt>
</event>
<event>
12    4  0.4320235E-008  0.1281574E+04  0.7818608E-02  0.9044306E-01
         -2   -1    0    0    0  501 -0.00000000000E+00  0.00000000000E+00  0.29748109840E+04  0.29748109840E+04  0.00000000000E+00 0.  1.
          1   -1    0    0  501    0  0.00000000000E+00 -0.00000000000E+00 -0.13802836383E+03  0.13802836383E+03  0.00000000000E+00 0. -1.
        -24    2    1    2    0    0  0.25418233362E+03 -0.20019495317E+03  0.70784661840E+03  0.78229518991E+03  0.79071176647E+02 0.  0.
        254    2    1    2    0    0 -0.25418233362E+03  0.20019495317E+03  0.21289360018E+04  0.23305441579E+04  0.89128048021E+03 0.  0.
         23    2    4    4    0    0 -0.56283296598E+03  0.15593908928E+03  0.10625801449E+04  0.12158803297E+04  0.90501185627E+02 0.  0.
         23    2    4    4    0    0  0.30865063236E+03  0.44255863886E+02  0.10663558568E+04  0.11146638282E+04  0.90204446601E+02 0.  0.
          1    1    3    3  502    0  0.13738519516E+03 -0.13561062625E+03  0.33992450268E+03  0.39091380293E+03  0.00000000000E+00 0. -1.
         -2    1    3    3    0  502  0.11679713846E+03 -0.64584326919E+02  0.36792211572E+03  0.39138138697E+03  0.00000000000E+00 0.  1.
         11    1    5    5    0    0 -0.43926573815E+03  0.92807029646E+02  0.86306600330E+03  0.97285685459E+03  0.00000000000E+00 0.  1.
        -11    1    5    5    0    0 -0.12356722783E+03  0.63132059637E+02  0.19951414164E+03  0.24302347512E+03  0.00000000000E+00 0. -1.
          1    1    6    6  503    0  0.54809457105E+01  0.18236692736E+01  0.11763775251E+03  0.11777948612E+03  0.00000000000E+00 0. -1.
         -1    1    6    6    0  503  0.30316968665E+03  0.42432194613E+02  0.94871810434E+03  0.99688434211E+03  0.00000000000E+00 0.  1.
<mgrwt>
<rscale>  0 0.12815745E+04</rscale>
<asrwt>0</asrwt>
<pdfrwt beam="1">  1        1 0.21235135E-01 0.12815745E+04</pdfrwt>
<pdfrwt beam="2">  1       -2 0.45766318E+00 0.12815745E+04</pdfrwt>
<totfact> 0.65142651E-01</totfact>
</mgrwt>
</event>
<event>
12    4  0.4320235E-008  0.1785795E+04  0.7818608E-02  0.8713890E-01
         -2   -1    0    0    0  501 -0.00000000000E+00  0.00000000000E+00  0.20849735167E+04  0.20849735167E+04  0.00000000000E+00 0.  1.
          1   -1    0    0  501    0  0.00000000000E+00 -0.00000000000E+00 -0.38238670616E+03  0.38238670616E+03  0.00000000000E+00 0. -1.
        -24    2    1    2    0    0  0.22798672108E+03 -0.35761815775E+03 -0.68457081779E+02  0.43691501358E+03  0.79622015200E+02 0.  0.
        254    2    1    2    0    0 -0.22798672108E+03  0.35761815775E+03  0.17710438924E+04  0.20304452093E+04  0.89791012226E+03 0.  0.
         23    2    4    4    0    0  0.27737312331E+03  0.34611929197E+03  0.10620612307E+04  0.11548216485E+04  0.94364020534E+02 0.  0.
         23    2    4    4    0    0 -0.50535984439E+03  0.11498865778E+02  0.70898266166E+03  0.87562356078E+03  0.92408925070E+02 0.  0.
          1    1    3    3  502    0  0.22135680358E+03 -0.33606768955E+03 -0.45909925343E+02  0.40502845295E+03  0.00000000000E+00 0. -1.
         -2    1    3    3    0  502  0.66299175008E+01 -0.21550468195E+02 -0.22547156436E+02  0.31886560631E+02  0.00000000000E+00 0.  1.
         11    1    5    5    0    0  0.16277401461E+03  0.13707279320E+03  0.55888847416E+03  0.59803064889E+03  0.00000000000E+00 0. -1.
        -11    1    5    5    0    0  0.11459910870E+03  0.20904649877E+03  0.50317275655E+03  0.55679099966E+03  0.00000000000E+00 0.  1.
          4    1    6    6  503    0 -0.34523421913E+03  0.37843231725E+02  0.42841259750E+03  0.55150351762E+03  0.00000000000E+00 0. -1.
         -4    1    6    6    0  503 -0.16012562526E+03 -0.26344365947E+02  0.28057006415E+03  0.32412004316E+03  0.00000000000E+00 0.  1.
<mgrwt>
<rscale>  0 0.17857952E+04</rscale>
<asrwt>0</asrwt>
<pdfrwt beam="1">  1        1 0.58828725E-01 0.17857952E+04</pdfrwt>
<pdfrwt beam="2">  1       -2 0.32076515E+00 0.17857952E+04</pdfrwt>
<totfact> 0.12498702E+00</totfact>
</mgrwt>
</event>
<event>
12    4  0.4320235E-008  0.3184130E+04  0.7818608E-02  0.8193021E-01
         -4   -1    0    0    0  501 -0.00000000000E+00  0.00000000000E+00  0.62395242196E+03  0.62395242196E+03  0.00000000000E+00 0.  1.
          3   -1    0    0  501    0  0.00000000000E+00 -0.00000000000E+00 -0.40622820082E+04  0.40622820082E+04  0.00000000000E+00 0. -1.
        -24    2    1    2    0    0 -0.62119311837E+03 -0.12580082918E+04 -0.21878525063E+04  0.26004538296E+04  0.84827929291E+02 0.  0.
        254    2    1    2    0    0  0.62119311837E+03  0.12580082918E+04 -0.12504770799E+04  0.20857806006E+04  0.90461153753E+03 0.  0.
         23    2    4    4    0    0  0.94927934803E+02  0.18319269404E+03 -0.75383294343E+03  0.78686202875E+03  0.91196873397E+02 0.  0.
         23    2    4    4    0    0  0.52626518356E+03  0.10748155978E+04 -0.49664413650E+03  0.12989185719E+04  0.91380771118E+02 0.  0.
          1    1    3    3  502    0 -0.17309773947E+03 -0.35550744306E+03 -0.54780682126E+03  0.67560393937E+03  0.00000000000E+00 0. -1.
         -2    1    3    3    0  502 -0.44809537890E+03 -0.90250084879E+03 -0.16400456851E+04  0.19248498902E+04  0.00000000000E+00 0.  1.
         11    1    5    5    0    0 -0.76407135369E+01 -0.35298594446E+01 -0.97417786056E+01  0.12874108181E+02  0.00000000000E+00 0.  1.
        -11    1    5    5    0    0  0.10256864834E+03  0.18672255349E+03 -0.74409116483E+03  0.77398792056E+03  0.00000000000E+00 0. -1.
          3    1    6    6  503    0  0.49636373816E+03  0.95171310326E+03 -0.45078468803E+03  0.11641914046E+04  0.00000000000E+00 0. -1.
         -3    1    6    6    0  503  0.29901445403E+02  0.12310249455E+03 -0.45859448469E+02  0.13472716733E+03  0.00000000000E+00 0.  1.
<mgrwt>
<rscale>  0 0.31841298E+04</rscale>
<asrwt>0</asrwt>
<pdfrwt beam="1">  1        3 0.62496646E+00 0.31841298E+04</pdfrwt>
<pdfrwt beam="2">  1       -4 0.95992681E-01 0.31841298E+04</pdfrwt>
<totfact> 0.14842750E-03</totfact>
</mgrwt>
</event>
<event>
12    4  0.4320235E-008  0.1784776E+04  0.7818608E-02  0.8714437E-01
         -2   -1    0    0    0  501 -0.00000000000E+00  0.00000000000E+00  0.58984424194E+03  0.58984424194E+03  0.00000000000E+00 0.  1.
          1   -1    0    0  501    0  0.00000000000E+00 -0.00000000000E+00 -0.13501133342E+04  0.13501133342E+04  0.00000000000E+00 0. -1.
        -24    2    1    2    0    0  0.40393879412E+03  0.42416397413E+03  0.46795713279E+02  0.59296109375E+03  0.79570054513E+02 0.  0.
        254    2    1    2    0    0 -0.40393879412E+03 -0.42416397413E+03 -0.80706480552E+03  0.13469964824E+04  0.90551879986E+03 0.  0.
         23    2    4    4    0    0  0.17986239598E+03 -0.43575393949E+03 -0.43763117405E+03  0.64974967572E+03  0.91769381198E+02 0.  0.
         23    2    4    4    0    0 -0.58380119010E+03  0.11589965365E+02 -0.36943363147E+03  0.69724680666E+03  0.93347439585E+02 0.  0.
          3    1    3    3  502    0  0.12952719806E+03  0.16752324995E+03  0.48480224981E+02  0.21723643002E+03  0.00000000000E+00 0. -1.
         -4    1    3    3    0  502  0.27441159606E+03  0.25664072418E+03 -0.16845117023E+01  0.37572466373E+03  0.00000000000E+00 0.  1.
         11    1    5    5    0    0  0.36055404846E+02 -0.14772552479E+03 -0.93491156494E+02  0.17850327514E+03  0.00000000000E+00 0.  1.
        -11    1    5    5    0    0  0.14380699114E+03 -0.28802841470E+03 -0.34414001755E+03  0.47124640058E+03  0.00000000000E+00 0. -1.
          3    1    6    6  503    0 -0.42427662890E+03 -0.21878106296E+02 -0.29995069306E+03  0.52005742725E+03  0.00000000000E+00 0. -1.
         -3    1    6    6    0  503 -0.15952456120E+03  0.33468071661E+02 -0.69482938404E+02  0.17718937941E+03  0.00000000000E+00 0.  1.
<mgrwt>
<rscale>  0 0.17847763E+04</rscale>
<asrwt>0</asrwt>
<pdfrwt beam="1">  1        1 0.20770974E+00 0.17847763E+04</pdfrwt>
<pdfrwt beam="2">  1       -2 0.90745269E-01 0.17847763E+04</pdfrwt>
<totfact> 0.71615368E+00</totfact>
</mgrwt>
</event>
<event>
12    4  0.4320235E-008  0.1852848E+04  0.7818608E-02  0.8678690E-01
          1   -1    0    0  501    0  0.00000000000E+00  0.00000000000E+00  0.13083272992E+04  0.13083272992E+04  0.00000000000E+00 0. -1.
         -2   -1    0    0    0  501 -0.00000000000E+00 -0.00000000000E+00 -0.65599895935E+03  0.65599895935E+03  0.00000000000E+00 0.  1.
        -24    2    1    2    0    0  0.34049344482E+03  0.44533874455E+02 -0.41464046744E+03  0.54440852643E+03  0.80838570441E+02 0.  0.
        254    2    1    2    0    0 -0.34049344482E+03 -0.44533874455E+02  0.10669688073E+04  0.14199177321E+04  0.87167934375E+03 0.  0.
         23    2    4    4    0    0 -0.50232878869E+03  0.23992066148E+03  0.47803379845E+03  0.73938864739E+03  0.91011667845E+02 0.  0.
         23    2    4    4    0    0  0.16183534387E+03 -0.28445453594E+03  0.58893500881E+03  0.68052908470E+03  0.95761834667E+02 0.  0.
          3    1    3    3  502    0  0.42644057820E+02  0.17170630362E+02 -0.22399671534E+02  0.51137965341E+02  0.00000000000E+00 0. -1.
         -4    1    3    3    0  502  0.29784938700E+03  0.27363244093E+02 -0.39224079590E+03  0.49327056109E+03  0.00000000000E+00 0.  1.
         11    1    5    5    0    0 -0.10162942631E+03  0.15709882487E+02  0.64027975201E+02  0.12114009373E+03  0.00000000000E+00 0. -1.
        -11    1    5    5    0    0 -0.40069936238E+03  0.22421077900E+03  0.41400582324E+03  0.61824855367E+03  0.00000000000E+00 0.  1.
          3    1    6    6  503    0  0.38337497902E+02 -0.86520242344E+02  0.26450040381E+03  0.28091988128E+03  0.00000000000E+00 0. -1.
         -3    1    6    6    0  503  0.12349784597E+03 -0.19793429360E+03  0.32443460500E+03  0.39960920343E+03  0.00000000000E+00 0.  1.
<mgrwt>
<rscale>  0 0.18528479E+04</rscale>
<asrwt>0</asrwt>
<pdfrwt beam="1">  1        1 0.20128112E+00 0.18528479E+04</pdfrwt>
<pdfrwt beam="2">  1       -2 0.10092292E+00 0.18528479E+04</pdfrwt>
<totfact> 0.59428542E+00</totfact>
</mgrwt>
</event>
<event>
12    4  0.4320235E-008  0.1468631E+04  0.7818608E-02  0.8905585E-01
         -2   -1    0    0    0  501 -0.00000000000E+00  0.00000000000E+00  0.24444207455E+03  0.24444207455E+03  0.00000000000E+00 0.  1.
          1   -1    0    0  501    0  0.00000000000E+00 -0.00000000000E+00 -0.22059185285E+04  0.22059185285E+04  0.00000000000E+00 0. -1.
        -24    2    1    2    0    0 -0.67456582076E+02  0.43487766375E+03 -0.67427883063E+03  0.80909791717E+03  0.79489151685E+02 0.  0.
        254    2    1    2    0    0  0.67456582076E+02 -0.43487766375E+03 -0.12871976234E+04  0.16412626859E+04  0.91825732215E+03 0.  0.
         23    2    4    4    0    0  0.10220563377E+03 -0.36723149190E+02 -0.12151373027E+04  0.12236576776E+04  0.94788534247E+02 0.  0.
         23    2    4    4    0    0 -0.34749051699E+02 -0.39815451457E+03 -0.72060320620E+02  0.41760500829E+03  0.97297168920E+02 0.  0.
          1    1    3    3  502    0 -0.80066207649E+01  0.13973770756E+03 -0.27980775965E+03  0.31286277383E+03  0.00000000000E+00 0. -1.
         -2    1    3    3    0  502 -0.59449961311E+02  0.29513995620E+03 -0.39447107098E+03  0.49623514334E+03  0.00000000000E+00 0.  1.
         11    1    5    5    0    0  0.54483543819E+02 -0.46600321299E+02 -0.35644910338E+03  0.36358769203E+03  0.00000000000E+00 0. -1.
        -11    1    5    5    0    0  0.47722089955E+02  0.98771721098E+01 -0.85868819935E+03  0.86006998559E+03  0.00000000000E+00 0.  1.
          3    1    6    6  503    0  0.21656134014E+02 -0.43568158636E+02 -0.27277251268E+02  0.55778320377E+02  0.00000000000E+00 0. -1.
         -3    1    6    6    0  503 -0.56405185713E+02 -0.35458635593E+03 -0.44783069352E+02  0.36182668791E+03  0.00000000000E+00 0.  1.
<mgrwt>
<rscale>  0 0.14686311E+04</rscale>
<asrwt>0</asrwt>
<pdfrwt beam="1">  1        1 0.33937207E+00 0.14686311E+04</pdfrwt>
<pdfrwt beam="2">  1       -2 0.37606475E-01 0.14686311E+04</pdfrwt>
<totfact> 0.12276052E+01</totfact>
</mgrwt>
</event>
<event>
12    4  0.4320235E-008  0.1665096E+04  0.7818608E-02  0.8781526E-01
         -2   -1    0    0    0  501 -0.00000000000E+00  0.00000000000E+00  0.21960611663E+04  0.21960611663E+04  0.00000000000E+00 0.  1.
          1   -1    0    0  501    0  0.00000000000E+00 -0.00000000000E+00 -0.31562684060E+03  0.31562684060E+03  0.00000000000E+00 0. -1.
        -24    2    1    2    0    0  0.31561537613E+02 -0.56640410175E+02 -0.20866358468E+03  0.23247237209E+03  0.79364006262E+02 0.  0.
        254    2    1    2    0    0 -0.31561537613E+02  0.56640410175E+02  0.20890979104E+04  0.22792156348E+04  0.90900471072E+03 0.  0.
         23    2    4    4    0    0  0.18804049750E+03  0.34631121294E+03  0.16632827566E+04  0.17117321175E+04  0.90700765246E+02 0.  0.
         23    2    4    4    0    0 -0.21960203511E+03 -0.28967080277E+03  0.42581515380E+03  0.56748351732E+03  0.92654030822E+02 0.  0.
          3    1    3    3  502    0 -0.36107093912E+01  0.16851655687E+02 -0.65694056454E+02  0.67917041861E+02  0.00000000000E+00 0. -1.
         -4    1    3    3    0  502  0.35172247004E+02 -0.73492065862E+02 -0.14296952823E+03  0.16455533023E+03  0.00000000000E+00 0.  1.
         11    1    5    5    0    0  0.55806122508E+02  0.19401110745E+03  0.88579173271E+03  0.90850516062E+03  0.00000000000E+00 0. -1.
        -11    1    5    5    0    0  0.13223437499E+03  0.15230010549E+03  0.77749102388E+03  0.80322695689E+03  0.00000000000E+00 0.  1.
          1    1    6    6  503    0 -0.20330888678E+03 -0.29001540906E+03  0.42164551338E+03  0.55066176541E+03  0.00000000000E+00 0. -1.
         -1    1    6    6    0  503 -0.16293148329E+02  0.34460629028E+00  0.41696404134E+01  0.16821751905E+02  0.00000000000E+00 0.  1.
<mgrwt>
<rscale>  0 0.16650956E+04</rscale>
<asrwt>0</asrwt>
<pdfrwt beam="1">  1        1 0.48557977E-01 0.16650956E+04</pdfrwt>
<pdfrwt beam="2">  1       -2 0.33785555E+00 0.16650956E+04</pdfrwt>
<totfact> 0.12743915E+00</totfact>
</mgrwt>
</event>
<event>
12    4  0.4320235E-008  0.2464538E+04  0.7818608E-02  0.8415729E-01
         -2   -1    0    0    0  501 -0.00000000000E+00  0.00000000000E+00  0.12153342020E+04  0.12153342020E+04  0.00000000000E+00 0.  1.
          1   -1    0    0  501    0  0.00000000000E+00 -0.00000000000E+00 -0.12494402043E+04  0.12494402043E+04  0.00000000000E+00 0. -1.
        -24    2    1    2    0    0  0.82365165934E+03  0.52808183677E+02 -0.69710718097E+03  0.10833640705E+04  0.80799302581E+02 0.  0.
        254    2    1    2    0    0 -0.82365165934E+03 -0.52808183677E+02  0.66300117867E+03  0.13814103358E+04  0.88743066926E+03 0.  0.
         23    2    4    4    0    0 -0.21185794117E+03 -0.63951180236E+02 -0.20263294019E+03  0.31742793535E+03  0.10357048323E+03 0.  0.
         23    2    4    4    0    0 -0.61179371817E+03  0.11142996559E+02  0.86563411886E+03  0.10639824005E+04  0.91216230869E+02 0.  0.
          1    1    3    3  502    0  0.71143467135E+03  0.61557047047E+02 -0.57085891972E+03  0.91422561103E+03  0.00000000000E+00 0. -1.
         -2    1    3    3    0  502  0.11221698799E+03 -0.87488633698E+01 -0.12624826125E+03  0.16913845948E+03  0.00000000000E+00 0.  1.
         11    1    5    5    0    0 -0.45470005841E+02 -0.54053269900E+02 -0.27903761849E+02  0.75946674341E+02  0.00000000000E+00 0. -1.
        -11    1    5    5    0    0 -0.16638793533E+03 -0.98979103354E+01 -0.17472917834E+03  0.24148126101E+03  0.00000000000E+00 0.  1.
          4    1    6    6  503    0 -0.45673767380E+03  0.10021454675E+02  0.57323728109E+03  0.73301481067E+03  0.00000000000E+00 0.  1.
         -4    1    6    6    0  503 -0.15505604436E+03  0.11215418842E+01  0.29239683777E+03  0.33096758978E+03  0.00000000000E+00 0. -1.
<mgrwt>
<rscale>  0 0.24645384E+04</rscale>
<asrwt>0</asrwt>
<pdfrwt beam="1">  1        1 0.19222157E+00 0.24645384E+04</pdfrwt>
<pdfrwt beam="2">  1       -2 0.18697449E+00 0.24645384E+04</pdfrwt>
<totfact> 0.12495735E+00</totfact>
</mgrwt>
</event>
<event>
12    4  0.4320235E-008  0.2467262E+04  0.7818608E-02  0.8414742E-01
          1   -1    0    0  501    0  0.00000000000E+00  0.00000000000E+00  0.20219285718E+04  0.20219285718E+04  0.00000000000E+00 0. -1.
         -2   -1    0    0    0  501 -0.00000000000E+00 -0.00000000000E+00 -0.75267003367E+03  0.75267003367E+03  0.00000000000E+00 0.  1.
        -24    2    1    2    0    0 -0.59326060630E+03 -0.87915052118E+03  0.57871129022E+03  0.12108401746E+04  0.79770829191E+02 0.  0.
        254    2    1    2    0    0  0.59326060630E+03  0.87915052118E+03  0.69054724795E+03  0.15637584309E+04  0.91848850981E+03 0.  0.
         23    2    4    4    0    0  0.55879438206E+03  0.10507728152E+04  0.51505006124E+03  0.13000114274E+04  0.91534010239E+02 0.  0.
         23    2    4    4    0    0  0.34466224237E+02 -0.17162229407E+03  0.17549718671E+03  0.26374700352E+03  0.90117073221E+02 0.  0.
          1    1    3    3  502    0 -0.44847344920E+03 -0.66331162085E+03  0.39697514832E+03  0.89370017869E+03  0.00000000000E+00 0. -1.
         -2    1    3    3    0  502 -0.14478715709E+03 -0.21583890032E+03  0.18173614190E+03  0.31713999594E+03  0.00000000000E+00 0.  1.
         11    1    5    5    0    0  0.83950236744E+02  0.23106461487E+03  0.12110469579E+03  0.27405263333E+03  0.00000000000E+00 0. -1.
        -11    1    5    5    0    0  0.47484414532E+03  0.81970820038E+03  0.39394536545E+03  0.10259587940E+04  0.00000000000E+00 0.  1.
          1    1    6    6  503    0  0.28509017742E+02 -0.36458934986E+01  0.27976044110E+02  0.40108797989E+02  0.00000000000E+00 0. -1.
         -1    1    6    6    0  503  0.59572064947E+01 -0.16797640057E+03  0.14752114260E+03  0.22363820553E+03  0.00000000000E+00 0.  1.
<mgrwt>
<rscale>  0 0.24672617E+04</rscale>
<asrwt>0</asrwt>
<pdfrwt beam="1">  1        1 0.31106593E+00 0.24672617E+04</pdfrwt>
<pdfrwt beam="2">  1       -2 0.11579539E+00 0.24672617E+04</pdfrwt>
<totfact> 0.13070126E+00</totfact>
</mgrwt>
</event>
<event>
12    4  0.4320235E-008  0.1885152E+04  0.7818608E-02  0.8662283E-01
         -2   -1    0    0    0  501 -0.00000000000E+00  0.00000000000E+00  0.29015442695E+03  0.29015442695E+03  0.00000000000E+00 0.  1.
          1   -1    0    0  501    0  0.00000000000E+00 -0.00000000000E+00 -0.30619883939E+04  0.30619883939E+04  0.00000000000E+00 0. -1.
        -24    2    1    2    0    0  0.40277461317E+03 -0.55752666400E+02 -0.12870685419E+02  0.41452616620E+03  0.79564684979E+02 0.  0.
        254    2    1    2    0    0 -0.40277461317E+03  0.55752666400E+02 -0.27589632815E+04  0.29376166546E+04  0.92324291061E+03 0.  0.
         23    2    4    4    0    0 -0.65531213274E+03 -0.13876188495E+03 -0.19289882144E+04  0.20440185099E+04  0.91253960339E+02 0.  0.
         23    2    4    4    0    0  0.25253751958E+03  0.19451455135E+03 -0.82997506708E+03  0.89359814474E+03  0.89710215905E+02 0.  0.
          3    1    3    3  502    0  0.12710670781E+02 -0.11511091690E+02 -0.13718268837E+02  0.21960357088E+02  0.00000000000E+00 0. -1.
         -4    1    3    3    0  502  0.39006394239E+03 -0.44241574710E+02  0.84758341804E+00  0.39256580911E+03  0.00000000000E+00 0.  1.
         11    1    5    5    0    0 -0.28014090054E+03 -0.84149743777E+02 -0.72629221845E+03  0.78298179424E+03  0.00000000000E+00 0. -1.
        -11    1    5    5    0    0 -0.37517123221E+03 -0.54612141177E+02 -0.12026959960E+04  0.12610367156E+04  0.00000000000E+00 0.  1.
          1    1    6    6  503    0  0.11725339490E+03  0.11019360804E+03 -0.53013337700E+03  0.55401478977E+03  0.00000000000E+00 0. -1.
         -1    1    6    6    0  503  0.13528412468E+03  0.84320943312E+02 -0.29984169008E+03  0.33958335498E+03  0.00000000000E+00 0.  1.
<mgrwt>
<rscale>  0 0.18851520E+04</rscale>
<asrwt>0</asrwt>
<pdfrwt beam="1">  1        1 0.47107515E+00 0.18851520E+04</pdfrwt>
<pdfrwt beam="2">  1       -2 0.44639141E-01 0.18851520E+04</pdfrwt>
<totfact> 0.21144542E+00</totfact>
</mgrwt>
</event>
<event>
12    4  0.4320235E-008  0.2241279E+04  0.7818608E-02  0.8501441E-01
          1   -1    0    0  501    0  0.00000000000E+00  0.00000000000E+00  0.13460866893E+04  0.13460866893E+04  0.00000000000E+00 0. -1.
         -2   -1    0    0    0  501 -0.00000000000E+00 -0.00000000000E+00 -0.93295097165E+03  0.93295097165E+03  0.00000000000E+00 0.  1.
        -24    2    1    2    0    0 -0.44403683171E+03 -0.56660393588E+03 -0.44981044573E+03  0.85238224076E+03  0.77571381376E+02 0.  0.
        254    2    1    2    0    0  0.44403683171E+03  0.56660393588E+03  0.86294616341E+03  0.14266554202E+04  0.87889753612E+03 0.  0.
         23    2    4    4    0    0  0.30628273422E+03  0.62879810487E+03  0.19046569742E+03  0.73129733832E+03  0.96552810294E+02 0.  0.
         23    2    4    4    0    0  0.13775409748E+03 -0.62194168985E+02  0.67248046600E+03  0.69535808189E+03  0.91916151320E+02 0.  0.
          3    1    3    3  502    0 -0.40063832560E+02 -0.79848345550E+02 -0.34996232780E+02  0.95945845534E+02  0.00000000000E+00 0. -1.
         -4    1    3    3    0  502 -0.40397299915E+03 -0.48675559033E+03 -0.41481421295E+03  0.75643639523E+03  0.00000000000E+00 0.  1.
         11    1    5    5    0    0  0.26850182430E+03  0.47681748186E+03  0.17196159430E+03  0.57360171772E+03  0.00000000000E+00 0.  1.
        -11    1    5    5    0    0  0.37780909928E+02  0.15198062301E+03  0.18504103116E+02  0.15769562060E+03  0.00000000000E+00 0. -1.
          4    1    6    6  503    0  0.70239751854E+02  0.66343822187E+01  0.17621825468E+03  0.18981704626E+03  0.00000000000E+00 0. -1.
         -4    1    6    6    0  503  0.67514345631E+02 -0.68828551204E+02  0.49626221131E+03  0.50554103563E+03  0.00000000000E+00 0.  1.
<mgrwt>
<rscale>  0 0.22412790E+04</rscale>
<asrwt>0</asrwt>
<pdfrwt beam="1">  1        1 0.20709026E+00 0.22412790E+04</pdfrwt>
<pdfrwt beam="2">  1       -2 0.14353092E+00 0.22412790E+04</pdfrwt>
<totfact> 0.22505486E+00</totfact>
</mgrwt>
</event>
<event>
12    4  0.4320235E-008  0.1359071E+04  0.7818608E-02  0.8983989E-01
         -2   -1    0    0    0  501 -0.00000000000E+00  0.00000000000E+00  0.34608095058E+03  0.34608095058E+03  0.00000000000E+00 0.  1.
          1   -1    0    0  501    0  0.00000000000E+00 -0.00000000000E+00 -0.13342797222E+04  0.13342797222E+04  0.00000000000E+00 0. -1.
        -24    2    1    2    0    0  0.12250586409E+03  0.31389605542E+03 -0.77097462658E+02  0.35463150455E+03  0.79253169852E+02 0.  0.
        254    2    1    2    0    0 -0.12250586409E+03 -0.31389605542E+03 -0.91110130896E+03  0.13257291682E+04  0.90217171977E+03 0.  0.
         23    2    4    4    0    0  0.31484899944E+03 -0.34355829788E+03 -0.66032033617E+03  0.81309810825E+03  0.89125702169E+02 0.  0.
         23    2    4    4    0    0 -0.43735486353E+03  0.29662242467E+02 -0.25078097279E+03  0.51263105998E+03  0.87979441127E+02 0.  0.
          1    1    3    3  502    0 -0.60597587633E+01  0.10856509483E+02 -0.15270121966E+02  0.19691650497E+02  0.00000000000E+00 0. -1.
         -2    1    3    3    0  502  0.12856562285E+03  0.30303954593E+03 -0.61827340692E+02  0.33493985406E+03  0.00000000000E+00 0.  1.
         11    1    5    5    0    0  0.22252034689E+03 -0.20033811423E+03 -0.47361102703E+03  0.56031961390E+03  0.00000000000E+00 0. -1.
        -11    1    5    5    0    0  0.92328652545E+02 -0.14322018365E+03 -0.18670930913E+03  0.25277849435E+03  0.00000000000E+00 0.  1.
          2    1    6    6  503    0 -0.35889806580E+03  0.46490007226E+02 -0.17392534466E+03  0.40152106784E+03  0.00000000000E+00 0.  1.
         -2    1    6    6    0  503 -0.78456797728E+02 -0.16827764760E+02 -0.76855628139E+02  0.11110999214E+03  0.00000000000E+00 0. -1.
<mgrwt>
<rscale>  0 0.13590714E+04</rscale>
<asrwt>0</asrwt>
<pdfrwt beam="1">  1        1 0.20527380E+00 0.13590714E+04</pdfrwt>
<pdfrwt beam="2">  1       -2 0.53243223E-01 0.13590714E+04</pdfrwt>
<totfact> 0.24397988E+01</totfact>
</mgrwt>
</event>
<event>
12    4  0.4320235E-008  0.1916301E+04  0.7818608E-02  0.8646785E-01
          1   -1    0    0  501    0  0.00000000000E+00  0.00000000000E+00  0.21533570928E+04  0.21533570928E+04  0.00000000000E+00 0. -1.
         -2   -1    0    0    0  501 -0.00000000000E+00 -0.00000000000E+00 -0.42633524839E+03  0.42633524839E+03  0.00000000000E+00 0.  1.
        -24    2    1    2    0    0 -0.55778061483E+03  0.16921080525E+03  0.13006088459E+04  0.14275097001E+04  0.80306057390E+02 0.  0.
        254    2    1    2    0    0  0.55778061483E+03 -0.16921080525E+03  0.42641299846E+03  0.11521826411E+04  0.89774455289E+03 0.  0.
         23    2    4    4    0    0 -0.21548866380E+03 -0.97819471791E+01 -0.27894450555E+02  0.23686207872E+03  0.93778959518E+02 0.  0.
         23    2    4    4    0    0  0.77326927863E+03 -0.15942885807E+03  0.45430744901E+03  0.91532056235E+03  0.89741493013E+02 0.  0.
          3    1    3    3  502    0 -0.51440887021E+03  0.17630905695E+03  0.12198869992E+04  0.13355993636E+04  0.00000000000E+00 0. -1.
         -4    1    3    3    0  502 -0.43371744619E+02 -0.70982517072E+01  0.80721846696E+02  0.91910336430E+02  0.00000000000E+00 0.  1.
         11    1    5    5    0    0 -0.17605684029E+03 -0.38617704210E+02  0.72804256363E+00  0.18024391290E+03  0.00000000000E+00 0. -1.
        -11    1    5    5    0    0 -0.39431823511E+02  0.28835757031E+02 -0.28622493119E+02  0.56618165824E+02  0.00000000000E+00 0.  1.
          3    1    6    6  503    0  0.70434657051E+03 -0.12131592056E+03  0.42338822559E+03  0.83071007791E+03  0.00000000000E+00 0. -1.
         -3    1    6    6    0  503  0.68922708120E+02 -0.38112937504E+02  0.30919223427E+02  0.84610484439E+02  0.00000000000E+00 0.  1.
<mgrwt>
<rscale>  0 0.19163006E+04</rscale>
<asrwt>0</asrwt>
<pdfrwt beam="1">  1        1 0.33128570E+00 0.19163006E+04</pdfrwt>
<pdfrwt beam="2">  1       -2 0.65590039E-01 0.19163006E+04</pdfrwt>
<totfact> 0.41187511E+00</totfact>
</mgrwt>
</event>
<event>
12    4  0.4320235E-008  0.2150796E+04  0.7818608E-02  0.8539192E-01
         -2   -1    0    0    0  501 -0.00000000000E+00  0.00000000000E+00  0.80523655723E+03  0.80523655723E+03  0.00000000000E+00 0.  1.
          1   -1    0    0  501    0  0.00000000000E+00 -0.00000000000E+00 -0.14361999525E+04  0.14361999525E+04  0.00000000000E+00 0. -1.
        -24    2    1    2    0    0 -0.25618764881E+03  0.19101970307E+03  0.54194599946E+03  0.63443152590E+03  0.81714480742E+02 0.  0.
        254    2    1    2    0    0  0.25618764881E+03 -0.19101970307E+03 -0.11729093948E+04  0.16070049839E+04  0.10510128122E+04 0.  0.
         23    2    4    4    0    0  0.19855569478E+03  0.42233789903E+03 -0.50208288793E+03  0.69154090686E+03  0.91367032430E+02 0.  0.
         23    2    4    4    0    0  0.57631954029E+02 -0.61335760210E+03 -0.67082650682E+03  0.91546407700E+03  0.92397423360E+02 0.  0.
          1    1    3    3  502    0 -0.83431117258E+02  0.26148224630E+02  0.10640488074E+03  0.13771884266E+03  0.00000000000E+00 0. -1.
         -2    1    3    3    0  502 -0.17275653155E+03  0.16487147844E+03  0.43554111873E+03  0.49671268325E+03  0.00000000000E+00 0.  1.
         11    1    5    5    0    0 -0.35155923024E+01 -0.30122733665E+01 -0.45948691765E+01  0.65227297063E+01  0.00000000000E+00 0.  1.
        -11    1    5    5    0    0  0.20207128708E+03  0.42535017240E+03 -0.49748801876E+03  0.68501817715E+03  0.00000000000E+00 0. -1.
          1    1    6    6  503    0  0.59315522122E+02 -0.45163999196E+03 -0.54665065512E+03  0.71156443998E+03  0.00000000000E+00 0. -1.
         -1    1    6    6    0  503 -0.16835680926E+01 -0.16171761014E+03 -0.12417585171E+03  0.20389963702E+03  0.00000000000E+00 0.  1.
<mgrwt>
<rscale>  0 0.21507959E+04</rscale>
<asrwt>0</asrwt>
<pdfrwt beam="1">  1        1 0.22095384E+00 0.21507959E+04</pdfrwt>
<pdfrwt beam="2">  1       -2 0.12388255E+00 0.21507959E+04</pdfrwt>
<totfact> 0.28562595E+00</totfact>
</mgrwt>
</event>
<event>
12    4  0.4320235E-008  0.1632202E+04  0.7818608E-02  0.8801006E-01
         -2   -1    0    0    0  501 -0.00000000000E+00  0.00000000000E+00  0.38440021664E+03  0.38440021664E+03  0.00000000000E+00 0.  1.
          1   -1    0    0  501    0  0.00000000000E+00 -0.00000000000E+00 -0.17326240857E+04  0.17326240857E+04  0.00000000000E+00 0. -1.
        -24    2    1    2    0    0 -0.81401477166E+02  0.29635063487E+03 -0.10855055182E+04  0.11310209369E+04  0.80226121341E+02 0.  0.
        254    2    1    2    0    0  0.81401477166E+02 -0.29635063487E+03 -0.26271835087E+03  0.98600336538E+03  0.89929517144E+03 0.  0.
         23    2    4    4    0    0 -0.27492439666E+02 -0.60190463116E+03 -0.14111551716E+03  0.62542427584E+03  0.90536823264E+02 0.  0.
         23    2    4    4    0    0  0.10889391683E+03  0.30555399629E+03 -0.12160283371E+03  0.36057908954E+03  0.10004449449E+03 0.  0.
          1    1    3    3  502    0 -0.67371589478E+02  0.19706392667E+03 -0.84832613352E+03  0.87351608519E+03  0.00000000000E+00 0. -1.
         -2    1    3    3    0  502 -0.14029887689E+02  0.99286708205E+02 -0.23717938464E+03  0.25750485175E+03  0.00000000000E+00 0.  1.
         11    1    5    5    0    0  0.31420592869E+02 -0.21281471555E+03 -0.63726129197E+02  0.22436215446E+03  0.00000000000E+00 0. -1.
        -11    1    5    5    0    0 -0.58913032535E+02 -0.38908991561E+03 -0.77389387965E+02  0.40106212138E+03  0.00000000000E+00 0.  1.
          2    1    6    6  503    0  0.64032031085E+01  0.59051089551E+02 -0.64303404021E+02  0.87538334208E+02  0.00000000000E+00 0. -1.
         -2    1    6    6    0  503  0.10249071372E+03  0.24650290674E+03 -0.57299429685E+02  0.27304075533E+03  0.00000000000E+00 0.  1.
<mgrwt>
<rscale>  0 0.16322023E+04</rscale>
<asrwt>0</asrwt>
<pdfrwt beam="1">  1        1 0.26655755E+00 0.16322023E+04</pdfrwt>
<pdfrwt beam="2">  1       -2 0.59138494E-01 0.16322023E+04</pdfrwt>
<totfact> 0.10156985E+01</totfact>
</mgrwt>
</event>
<event>
12    4  0.4320235E-008  0.1519805E+04  0.7818608E-02  0.8871388E-01
          1   -1    0    0  501    0  0.00000000000E+00  0.00000000000E+00  0.17431088604E+04  0.17431088604E+04  0.00000000000E+00 0. -1.
         -2   -1    0    0    0  501 -0.00000000000E+00 -0.00000000000E+00 -0.33127711065E+03  0.33127711065E+03  0.00000000000E+00 0.  1.
        -24    2    1    2    0    0  0.89552145578E+02  0.48952248728E+02  0.11128112655E+04  0.11203963314E+04  0.80765817480E+02 0.  0.
        254    2    1    2    0    0 -0.89552145578E+02 -0.48952248728E+02  0.29902048424E+03  0.95398963967E+03  0.90014836175E+03 0.  0.
         23    2    4    4    0    0  0.21385165702E+03  0.32411408983E+03  0.22622704231E+03  0.45857179600E+03  0.91252084811E+02 0.  0.
         23    2    4    4    0    0 -0.30340380259E+03 -0.37306633856E+03  0.72793441930E+02  0.49541784367E+03  0.94380052130E+02 0.  0.
          3    1    3    3  502    0  0.77875227226E+02  0.50620217100E+02  0.10956058306E+04  0.10995358537E+04  0.00000000000E+00 0. -1.
         -4    1    3    3    0  502  0.11676918352E+02 -0.16679683722E+01  0.17205434898E+02  0.20860477721E+02  0.00000000000E+00 0.  1.
         11    1    5    5    0    0  0.15101820045E+03  0.15636218857E+03  0.99062558254E+02  0.23889123326E+03  0.00000000000E+00 0. -1.
        -11    1    5    5    0    0  0.62833456563E+02  0.16775190126E+03  0.12716448406E+03  0.21968056274E+03  0.00000000000E+00 0.  1.
          1    1    6    6  503    0 -0.81708706562E+02 -0.14607474006E+03  0.60217605112E+02  0.17787721152E+03  0.00000000000E+00 0.  1.
         -1    1    6    6    0  503 -0.22169509603E+03 -0.22699159850E+03  0.12575836819E+02  0.31754063215E+03  0.00000000000E+00 0. -1.
<mgrwt>
<rscale>  0 0.15198053E+04</rscale>
<asrwt>0</asrwt>
<pdfrwt beam="1">  1        1 0.26817059E+00 0.15198053E+04</pdfrwt>
<pdfrwt beam="2">  1       -2 0.50965710E-01 0.15198053E+04</pdfrwt>
<totfact> 0.13741041E+01</totfact>
</mgrwt>
</event>
<event>
12    4  0.4320235E-008  0.1046802E+04  0.7818608E-02  0.9258652E-01
          1   -1    0    0  501    0  0.00000000000E+00  0.00000000000E+00  0.12427751601E+04  0.12427751601E+04  0.00000000000E+00 0. -1.
         -2   -1    0    0    0  501 -0.00000000000E+00 -0.00000000000E+00 -0.22043307936E+03  0.22043307936E+03  0.00000000000E+00 0.  1.
        -24    2    1    2    0    0 -0.11007008152E+03  0.95475057215E+02  0.82312239427E+02  0.18545196391E+03  0.79913808340E+02 0.  0.
        254    2    1    2    0    0  0.11007008152E+03 -0.95475057215E+02  0.94002984131E+03  0.12777562755E+04  0.85309676341E+03 0.  0.
         23    2    4    4    0    0  0.38842656725E+03  0.17228112972E+03  0.66430250144E+03  0.79386396279E+03  0.91466891264E+02 0.  0.
         23    2    4    4    0    0 -0.27835648573E+03 -0.26775618693E+03  0.27572733987E+03  0.48389231275E+03  0.94607058941E+02 0.  0.
          3    1    3    3  502    0 -0.77267956875E+02  0.10282813030E+03  0.80603803038E+02  0.15179240628E+03  0.00000000000E+00 0. -1.
         -4    1    3    3    0  502 -0.32802124650E+02 -0.73530730822E+01  0.17084363894E+01  0.33659557635E+02  0.00000000000E+00 0.  1.
         11    1    5    5    0    0  0.20244645039E+03  0.86344618313E+02  0.26024050499E+03  0.34082998522E+03  0.00000000000E+00 0.  1.
        -11    1    5    5    0    0  0.18598011686E+03  0.85936511404E+02  0.40406199645E+03  0.45303397757E+03  0.00000000000E+00 0. -1.
          1    1    6    6  503    0 -0.17187564756E+03 -0.21960807686E+03  0.17207750449E+03  0.32768828663E+03  0.00000000000E+00 0. -1.
         -1    1    6    6    0  503 -0.10648083817E+03 -0.48148110070E+02  0.10364983538E+03  0.15620402612E+03  0.00000000000E+00 0.  1.
<mgrwt>
<rscale>  0 0.10468023E+04</rscale>
<asrwt>0</asrwt>
<pdfrwt beam="1">  1        1 0.19119618E+00 0.10468023E+04</pdfrwt>
<pdfrwt beam="2">  1       -2 0.33912782E-01 0.10468023E+04</pdfrwt>
<totfact> 0.70932614E+01</totfact>
</mgrwt>
</event>
<event>
12    4  0.4320235E-008  0.1550209E+04  0.7818608E-02  0.8851734E-01
          1   -1    0    0  501    0  0.00000000000E+00  0.00000000000E+00  0.55207508379E+03  0.55207508379E+03  0.00000000000E+00 0. -1.
         -2   -1    0    0    0  501 -0.00000000000E+00 -0.00000000000E+00 -0.10882346781E+04  0.10882346781E+04  0.00000000000E+00 0.  1.
        -24    2    1    2    0    0  0.36918076781E+03  0.34779346211E+03 -0.16119490569E+03  0.53742241560E+03  0.74728331702E+02 0.  0.
        254    2    1    2    0    0 -0.36918076781E+03 -0.34779346211E+03 -0.37496468861E+03  0.11028873463E+04  0.90471390467E+03 0.  0.
         23    2    4    4    0    0  0.90620078330E+02 -0.44865081224E+03  0.38783664999E+02  0.46962835688E+03  0.97709114213E+02 0.  0.
         23    2    4    4    0    0 -0.45980084614E+03  0.10085735012E+03 -0.41374835361E+03  0.63325898941E+03  0.90775681593E+02 0.  0.
          1    1    3    3  502    0  0.35731167478E+03  0.32877499880E+03 -0.16831394209E+03  0.51390097867E+03  0.00000000000E+00 0. -1.
         -2    1    3    3    0  502  0.11869093024E+02  0.19018463316E+02  0.71190364004E+01  0.23521436933E+02  0.00000000000E+00 0.  1.
         11    1    5    5    0    0  0.18476447703E+02 -0.13337587558E+03 -0.32334820275E+02  0.13847759353E+03  0.00000000000E+00 0.  1.
        -11    1    5    5    0    0  0.72143630627E+02 -0.31527493665E+03  0.71118485275E+02  0.33115076335E+03  0.00000000000E+00 0. -1.
          4    1    6    6  503    0 -0.67346340876E+02  0.43763293467E+02 -0.46826754266E+02  0.92970427554E+02  0.00000000000E+00 0.  1.
         -4    1    6    6    0  503 -0.39245450526E+03  0.57094056655E+02 -0.36692159935E+03  0.54028856186E+03  0.00000000000E+00 0. -1.
<mgrwt>
<rscale>  0 0.15502093E+04</rscale>
<asrwt>0</asrwt>
<pdfrwt beam="1">  1        1 0.84934629E-01 0.15502093E+04</pdfrwt>
<pdfrwt beam="2">  1       -2 0.16742072E+00 0.15502093E+04</pdfrwt>
<totfact> 0.72263121E+00</totfact>
</mgrwt>
</event>
<event>
12    4  0.4320235E-008  0.1494817E+04  0.7818608E-02  0.8887907E-01
         -2   -1    0    0    0  501 -0.00000000000E+00  0.00000000000E+00  0.24163424393E+03  0.24163424393E+03  0.00000000000E+00 0.  1.
          1   -1    0    0  501    0  0.00000000000E+00 -0.00000000000E+00 -0.23118381009E+04  0.23118381009E+04  0.00000000000E+00 0. -1.
        -24    2    1    2    0    0  0.22303115983E+02  0.20740177115E+03  0.58622032168E+02  0.23068800129E+03  0.79167465715E+02 0.  0.
        254    2    1    2    0    0 -0.22303115983E+02 -0.20740177115E+03 -0.21288258891E+04  0.23227843435E+04  0.90549131232E+03 0.  0.
         23    2    4    4    0    0 -0.10730666086E+02  0.15961007327E+03 -0.24978442522E+02  0.18555883290E+03  0.90651173147E+02 0.  0.
         23    2    4    4    0    0 -0.11572449898E+02 -0.36701184442E+03 -0.21038474466E+04  0.21372255106E+04  0.82019443763E+02 0.  0.
          1    1    3    3  502    0 -0.38972481678E+01 -0.50219102076E+01 -0.42078613949E+01  0.76232685204E+01  0.00000000000E+00 0. -1.
         -2    1    3    3    0  502  0.26200364151E+02  0.21242368135E+03  0.62829893563E+02  0.22306473277E+03  0.00000000000E+00 0.  1.
         11    1    5    5    0    0 -0.20471997187E+02  0.16894465579E+03 -0.25371343881E+02  0.17206133929E+03  0.00000000000E+00 0.  1.
        -11    1    5    5    0    0  0.97413311013E+01 -0.93345825152E+01  0.39290135833E+00  0.13497493613E+02  0.00000000000E+00 0. -1.
          1    1    6    6  503    0  0.26302690673E+02 -0.19018378917E+03 -0.93934314141E+03  0.95876339235E+03  0.00000000000E+00 0. -1.
         -1    1    6    6    0  503 -0.37875140570E+02 -0.17682805525E+03 -0.11645043052E+04  0.11784621183E+04  0.00000000000E+00 0.  1.
<mgrwt>
<rscale>  0 0.14948167E+04</rscale>
<asrwt>0</asrwt>
<pdfrwt beam="1">  1        1 0.35566741E+00 0.14948167E+04</pdfrwt>
<pdfrwt beam="2">  1       -2 0.37174498E-01 0.14948167E+04</pdfrwt>
<totfact> 0.10606313E+01</totfact>
</mgrwt>
</event>
