<event>
12    6  0.1494052E-007  0.1546333E+04  0.7818608E-02  0.8854213E-01
          2   -1    0    0  501    0  0.00000000000E+00  0.00000000000E+00  0.30462486717E+04  0.30462486717E+04  0.00000000000E+00 0. -1.
         -3   -1    0    0    0  501 -0.00000000000E+00 -0.00000000000E+00 -0.19623695951E+03  0.19623695951E+03  0.00000000000E+00 0.  1.
         24    2    1    2    0    0  0.81912663972E+02 -0.25465542809E+02  0.20139156020E+04  0.20166020813E+04  0.58904362960E+02 0.  0.
        254    2    1    2    0    0 -0.81912663972E+02  0.25465542809E+02  0.83609611014E+03  0.12258835499E+04  0.89239878642E+03 0.  0.
         23    2    4    4    0    0  0.24241766637E+03  0.24688119596E+03  0.74587093640E+02  0.36425613379E+03  0.86038634243E+02 0.  0.
         23    2    4    4    0    0 -0.32433033034E+03 -0.22141565315E+03  0.76150901650E+03  0.86162741606E+03  0.91053650373E+02 0.  0.
          2    1    3    3  502    0  0.47749751433E+02 -0.44207655224E+02  0.12408855468E+04  0.12425905584E+04  0.00000000000E+00 0. -1.
         -1    1    3    3    0  502  0.34162912539E+02  0.18742112415E+02  0.77303005522E+03  0.77401152294E+03  0.00000000000E+00 0.  1.
         11    1    5    5    0    0  0.78847891250E+02  0.31968475538E+02  0.43475418362E+01  0.85193159953E+02  0.00000000000E+00 0. -1.
        -11    1    5    5    0    0  0.16356977512E+03  0.21491272042E+03  0.70239551804E+02  0.27906297384E+03  0.00000000000E+00 0.  1.
          3    1    6    6  503    0 -0.20952558205E+02  0.42418670692E+01  0.73783613516E+02  0.76818127776E+02  0.00000000000E+00 0. -1.
         -3    1    6    6    0  503 -0.30337777214E+03 -0.22565752022E+03  0.68772540299E+03  0.78480928828E+03  0.00000000000E+00 0.  1.
<mgrwt>
<rscale>  0 0.15463332E+04</rscale>
<asrwt>0</asrwt>
<pdfrwt beam="1">  1        2 0.46865361E+00 0.15463332E+04</pdfrwt>
<pdfrwt beam="2">  1       -3 0.30190304E-01 0.15463332E+04</pdfrwt>
<totfact> 0.10996108E+01</totfact>
</mgrwt>
</event>
<event>
12    6  0.1494052E-007  0.2294005E+04  0.7818608E-02  0.8480289E-01
         -1   -1    0    0    0  501 -0.00000000000E+00  0.00000000000E+00  0.74439127723E+03  0.74439127723E+03  0.00000000000E+00 0.  1.
          2   -1    0    0  501    0  0.00000000000E+00 -0.00000000000E+00 -0.17673691820E+04  0.17673691820E+04  0.00000000000E+00 0. -1.
         24    2    1    2    0    0  0.44586850651E+03  0.54486182601E+03  0.29644864528E+03  0.76822847320E+03  0.81363709404E+02 0.  0.
        254    2    1    2    0    0 -0.44586850651E+03 -0.54486182601E+03 -0.13194265501E+04  0.17435319860E+04  0.89629472318E+03 0.  0.
         23    2    4    4    0    0  0.22044689017E+03 -0.35568280535E+03 -0.63825931511E+03  0.76858482849E+03  0.90777727753E+02 0.  0.
         23    2    4    4    0    0 -0.66631539668E+03 -0.18917902066E+03 -0.68116723496E+03  0.97494715756E+03  0.82269364420E+02 0.  0.
          2    1    3    3  502    0  0.42776839380E+03  0.51949067643E+03  0.30013982819E+03  0.73684481276E+03  0.00000000000E+00 0. -1.
         -1    1    3    3    0  502  0.18100112715E+02  0.25371149584E+02 -0.36911829091E+01  0.31383660442E+02  0.00000000000E+00 0.  1.
         11    1    5    5    0    0  0.22238249202E+03 -0.32722266340E+03 -0.61723151511E+03  0.73314622515E+03  0.00000000000E+00 0. -1.
        -11    1    5    5    0    0 -0.19356018471E+01 -0.28460141950E+02 -0.21027799996E+02  0.35438603344E+02  0.00000000000E+00 0.  1.
          1    1    6    6  503    0 -0.60823014609E+03 -0.15005598511E+03 -0.62777426863E+03  0.88688287932E+03  0.00000000000E+00 0. -1.
         -1    1    6    6    0  503 -0.58085250593E+02 -0.39123035545E+02 -0.53392966334E+02  0.88064278233E+02  0.00000000000E+00 0.  1.
<mgrwt>
<rscale>  0 0.22940045E+04</rscale>
<asrwt>0</asrwt>
<pdfrwt beam="1">  1        2 0.27190295E+00 0.22940045E+04</pdfrwt>
<pdfrwt beam="2">  1       -1 0.11452174E+00 0.22940045E+04</pdfrwt>
<totfact> 0.64412239E+00</totfact>
</mgrwt>
</event>
<event>
12    6  0.1494052E-007  0.1343800E+04  0.7818608E-02  0.8995535E-01
          2   -1    0    0  501    0  0.00000000000E+00  0.00000000000E+00  0.10082360576E+04  0.10082360576E+04  0.00000000000E+00 0. -1.
         -1   -1    0    0    0  501 -0.00000000000E+00 -0.00000000000E+00 -0.44776190922E+03  0.44776190922E+03  0.00000000000E+00 0.  1.
         24    2    1    2    0    0  0.62934743489E+02  0.34771301167E+03  0.15973906125E+03  0.39593179749E+03  0.79876781057E+02 0.  0.
        254    2    1    2    0    0 -0.62934743489E+02 -0.34771301167E+03  0.40073508713E+03  0.10600661693E+04  0.91557989979E+03 0.  0.
         23    2    4    4    0    0  0.38088622441E+03 -0.18933916577E+03  0.38305667881E+03  0.57962511143E+03  0.91154895509E+02 0.  0.
         23    2    4    4    0    0 -0.44382096790E+03 -0.15837384590E+03  0.17678408322E+02  0.48044105791E+03  0.91933440006E+02 0.  0.
          2    1    3    3  502    0  0.32304279476E+02  0.31454858998E+03  0.13007135468E+03  0.34191071822E+03  0.00000000000E+00 0. -1.
         -3    1    3    3    0  502  0.30630464013E+02  0.33164421696E+02  0.29667706571E+02  0.54021079268E+02  0.00000000000E+00 0.  1.
         11    1    5    5    0    0  0.43812262059E+02 -0.40488322686E+02  0.93855150277E+02  0.11120974694E+03  0.00000000000E+00 0. -1.
        -11    1    5    5    0    0  0.33707396236E+03 -0.14885084308E+03  0.28920152853E+03  0.46841536449E+03  0.00000000000E+00 0.  1.
          4    1    6    6  503    0  0.31104716973E+01 -0.34433334548E+01  0.55876024567E+01  0.72631178343E+01  0.00000000000E+00 0. -1.
         -4    1    6    6    0  503 -0.44693143960E+03 -0.15493051245E+03  0.12090805866E+02  0.47317794008E+03  0.00000000000E+00 0.  1.
<mgrwt>
<rscale>  0 0.13438001E+04</rscale>
<asrwt>0</asrwt>
<pdfrwt beam="1">  1        2 0.15511324E+00 0.13438001E+04</pdfrwt>
<pdfrwt beam="2">  1       -1 0.68886448E-01 0.13438001E+04</pdfrwt>
<totfact> 0.59160027E+01</totfact>
</mgrwt>
</event>
<event>
12    6  0.1494052E-007  0.1342866E+04  0.7818608E-02  0.8996246E-01
          2   -1    0    0  501    0  0.00000000000E+00  0.00000000000E+00  0.41838616429E+04  0.41838616429E+04  0.00000000000E+00 0. -1.
         -1   -1    0    0    0  501 -0.00000000000E+00 -0.00000000000E+00 -0.10775271557E+03  0.10775271557E+03  0.00000000000E+00 0.  1.
         24    2    1    2    0    0 -0.14022082518E+03 -0.31245533132E+03  0.14838925394E+04  0.15250059453E+04  0.80099006419E+02 0.  0.
        254    2    1    2    0    0  0.14022082518E+03  0.31245533132E+03  0.25922163880E+04  0.27666084132E+04  0.90401664592E+03 0.  0.
         23    2    4    4    0    0 -0.25907756336E+03  0.23396852174E+03  0.41750199709E+03  0.55226434451E+03  0.93944322032E+02 0.  0.
         23    2    4    4    0    0  0.39929838854E+03  0.78486809578E+02  0.21747143909E+04  0.22143440687E+04  0.91310406372E+02 0.  0.
          2    1    3    3  502    0 -0.44507408167E+02 -0.19555151426E+03  0.83033843849E+03  0.85421497677E+03  0.00000000000E+00 0. -1.
         -1    1    3    3    0  502 -0.95713417016E+02 -0.11690381706E+03  0.65355410089E+03  0.67079096851E+03  0.00000000000E+00 0.  1.
         11    1    5    5    0    0 -0.17913667899E+03  0.17104003747E+03  0.22541236084E+03  0.33489606835E+03  0.00000000000E+00 0.  1.
        -11    1    5    5    0    0 -0.79940884362E+02  0.62928484274E+02  0.19208963624E+03  0.21736827615E+03  0.00000000000E+00 0. -1.
          2    1    6    6  503    0  0.94779798318E+02  0.54622585024E+02  0.47838341340E+03  0.49073162440E+03  0.00000000000E+00 0. -1.
         -2    1    6    6    0  503  0.30451859022E+03  0.23864224554E+02  0.16963309775E+04  0.17236124443E+04  0.00000000000E+00 0.  1.
<mgrwt>
<rscale>  0 0.13428663E+04</rscale>
<asrwt>0</asrwt>
<pdfrwt beam="1">  1        2 0.64367090E+00 0.13428663E+04</pdfrwt>
<pdfrwt beam="2">  1       -1 0.16577344E-01 0.13428663E+04</pdfrwt>
<totfact> 0.77408753E+00</totfact>
</mgrwt>
</event>
<event>
12    6  0.1494052E-007  0.2373006E+04  0.7818608E-02  0.8449679E-01
          2   -1    0    0  501    0  0.00000000000E+00  0.00000000000E+00  0.73770931766E+03  0.73770931766E+03  0.00000000000E+00 0. -1.
         -1   -1    0    0    0  501 -0.00000000000E+00 -0.00000000000E+00 -0.19083250723E+04  0.19083250723E+04  0.00000000000E+00 0.  1.
         24    2    1    2    0    0 -0.36586072287E+03  0.10996314749E+03  0.54532085603E+03  0.67081758812E+03  0.81703354652E+02 0.  0.
        254    2    1    2    0    0  0.36586072287E+03 -0.10996314749E+03 -0.17159366107E+04  0.19752168019E+04  0.90060923833E+03 0.  0.
         23    2    4    4    0    0  0.31932361253E+03  0.11476339923E+03 -0.16894891086E+04  0.17257190604E+04  0.92707174331E+02 0.  0.
         23    2    4    4    0    0  0.46537110341E+02 -0.22472654672E+03 -0.26447502103E+02  0.24949774145E+03  0.94243987509E+02 0.  0.
          4    1    3    3  502    0 -0.20258307714E+03  0.49483185893E+02  0.22888199116E+03  0.30963761836E+03  0.00000000000E+00 0. -1.
         -3    1    3    3    0  502 -0.16327764573E+03  0.60479961596E+02  0.31643886487E+03  0.36117996975E+03  0.00000000000E+00 0.  1.
         11    1    5    5    0    0  0.52228748549E+02  0.21387272734E+02 -0.14637222738E+03  0.15687602289E+03  0.00000000000E+00 0. -1.
        -11    1    5    5    0    0  0.26709486398E+03  0.93376126493E+02 -0.15431168812E+04  0.15688430375E+04  0.00000000000E+00 0.  1.
          1    1    6    6  503    0  0.31324608123E+02 -0.18913238292E+03  0.15603865166E+02  0.19234284481E+03  0.00000000000E+00 0.  1.
         -1    1    6    6    0  503  0.15212502219E+02 -0.35594163801E+02 -0.42051367269E+02  0.57154896638E+02  0.00000000000E+00 0. -1.
<mgrwt>
<rscale>  0 0.23730058E+04</rscale>
<asrwt>0</asrwt>
<pdfrwt beam="1">  1        2 0.11349374E+00 0.23730058E+04</pdfrwt>
<pdfrwt beam="2">  1       -1 0.29358847E+00 0.23730058E+04</pdfrwt>
<totfact> 0.14317675E+00</totfact>
</mgrwt>
</event>
<event>
12    6  0.1494052E-007  0.2260622E+04  0.7818608E-02  0.8493611E-01
          2   -1    0    0  501    0  0.00000000000E+00  0.00000000000E+00  0.21881155748E+04  0.21881155748E+04  0.00000000000E+00 0. -1.
         -1   -1    0    0    0  501 -0.00000000000E+00 -0.00000000000E+00 -0.58388271800E+03  0.58388271800E+03  0.00000000000E+00 0.  1.
         24    2    1    2    0    0 -0.83815091707E+02 -0.11831853339E+03  0.18412588493E+04  0.18485795903E+04  0.77382858844E+02 0.  0.
        254    2    1    2    0    0  0.83815091707E+02  0.11831853339E+03 -0.23702599243E+03  0.92341870250E+03  0.88062281034E+03 0.  0.
         23    2    4    4    0    0  0.32864317718E+03 -0.26109929626E+03 -0.99180768711E+02  0.44093006468E+03  0.91669605880E+02 0.  0.
         23    2    4    4    0    0 -0.24482808548E+03  0.37941782965E+03 -0.13784522372E+03  0.48248863782E+03  0.99475117648E+02 0.  0.
          4    1    3    3  502    0 -0.68232724256E+02 -0.12777090247E+03  0.16977982280E+04  0.17039659419E+04  0.00000000000E+00 0. -1.
         -3    1    3    3    0  502 -0.15582367451E+02  0.94523690725E+01  0.14346062125E+03  0.14461364841E+03  0.00000000000E+00 0.  1.
         11    1    5    5    0    0  0.69986355681E+02 -0.66174537644E+02 -0.62867639323E+02  0.11501956133E+03  0.00000000000E+00 0. -1.
        -11    1    5    5    0    0  0.25865682150E+03 -0.19492475861E+03 -0.36313129388E+02  0.32591050335E+03  0.00000000000E+00 0.  1.
          3    1    6    6  503    0 -0.11155077735E+03  0.16091075090E+03 -0.91505231380E+01  0.19600912672E+03  0.00000000000E+00 0. -1.
         -3    1    6    6    0  503 -0.13327730812E+03  0.21850707875E+03 -0.12869470058E+03  0.28647951110E+03  0.00000000000E+00 0.  1.
<mgrwt>
<rscale>  0 0.22606219E+04</rscale>
<asrwt>0</asrwt>
<pdfrwt beam="1">  1        2 0.33663316E+00 0.22606219E+04</pdfrwt>
<pdfrwt beam="2">  1       -1 0.89828112E-01 0.22606219E+04</pdfrwt>
<totfact> 0.65833050E+00</totfact>
</mgrwt>
</event>
<event>
12    6  0.1494052E-007  0.1568675E+04  0.7818608E-02  0.8840026E-01
          2   -1    0    0  501    0  0.00000000000E+00  0.00000000000E+00  0.18472579664E+04  0.18472579664E+04  0.00000000000E+00 0. -1.
         -1   -1    0    0    0  501 -0.00000000000E+00 -0.00000000000E+00 -0.33302636635E+03  0.33302636635E+03  0.00000000000E+00 0.  1.
         24    2    1    2    0    0 -0.43813769225E+03 -0.17061676869E+03  0.20182214178E+03  0.51807276329E+03  0.81194162474E+02 0.  0.
        254    2    1    2    0    0  0.43813769225E+03  0.17061676869E+03  0.13124094582E+04  0.16622115694E+04  0.90523698353E+03 0.  0.
         23    2    4    4    0    0 -0.16676450673E+02  0.27382103040E+03  0.23360588387E+02  0.28812714449E+03  0.84943943881E+02 0.  0.
         23    2    4    4    0    0  0.45481414292E+03 -0.10320426171E+03  0.12890488699E+04  0.13740844249E+04  0.94625545080E+02 0.  0.
          2    1    3    3  502    0 -0.25562783279E+03 -0.56291661294E+02  0.10773299112E+03  0.28305606759E+03  0.00000000000E+00 0. -1.
         -1    1    3    3    0  502 -0.18250985946E+03 -0.11432510740E+03  0.94089150662E+02  0.23501669569E+03  0.00000000000E+00 0.  1.
         11    1    5    5    0    0  0.36359937956E+01 -0.30803910852E+00  0.12511248448E+02  0.13032523804E+02  0.00000000000E+00 0.  1.
        -11    1    5    5    0    0 -0.20312444469E+02  0.27412906951E+03  0.10849339939E+02  0.27509462068E+03  0.00000000000E+00 0. -1.
          2    1    6    6  503    0  0.15616760947E+03 -0.80659711221E+02  0.44344322801E+03  0.47700755521E+03  0.00000000000E+00 0.  1.
         -2    1    6    6    0  503  0.29864653345E+03 -0.22544550486E+02  0.84560564184E+03  0.89707686974E+03  0.00000000000E+00 0. -1.
<mgrwt>
<rscale>  0 0.15686754E+04</rscale>
<asrwt>0</asrwt>
<pdfrwt beam="1">  1        2 0.28419353E+00 0.15686754E+04</pdfrwt>
<pdfrwt beam="2">  1       -1 0.51234827E-01 0.15686754E+04</pdfrwt>
<totfact> 0.34075360E+01</totfact>
</mgrwt>
</event>
<event>
12    6  0.1494052E-007  0.3512274E+04  0.7818608E-02  0.8110887E-01
         -1   -1    0    0    0  501 -0.00000000000E+00  0.00000000000E+00  0.15134612222E+04  0.15134612222E+04  0.00000000000E+00 0.  1.
          2   -1    0    0  501    0  0.00000000000E+00 -0.00000000000E+00 -0.20377242678E+04  0.20377242678E+04  0.00000000000E+00 0. -1.
         24    2    1    2    0    0 -0.13348707510E+04 -0.36282904588E+03  0.64647657038E+03  0.15288917886E+04  0.77803000080E+02 0.  0.
        254    2    1    2    0    0  0.13348707510E+04  0.36282904588E+03 -0.11707396160E+04  0.20222937014E+04  0.89750528006E+03 0.  0.
         23    2    4    4    0    0  0.13162415009E+04  0.27611716971E+03 -0.12761478013E+04  0.18564022283E+04  0.94570832740E+02 0.  0.
         23    2    4    4    0    0  0.18629250029E+02  0.86711876176E+02  0.10540818526E+03  0.16589147304E+03  0.92428874720E+02 0.  0.
          4    1    3    3  502    0 -0.46571665058E+03 -0.10920343839E+03  0.18732961664E+03  0.51372149542E+03  0.00000000000E+00 0. -1.
         -3    1    3    3    0  502 -0.86915410039E+03 -0.25362560750E+03  0.45914695374E+03  0.10151702932E+04  0.00000000000E+00 0.  1.
         11    1    5    5    0    0  0.14946068846E+03  0.47917280885E+02 -0.11513516913E+03  0.19465526032E+03  0.00000000000E+00 0. -1.
        -11    1    5    5    0    0  0.11667808125E+04  0.22819988882E+03 -0.11610126322E+04  0.16617469680E+04  0.00000000000E+00 0.  1.
          1    1    6    6  503    0 -0.65637224885E+01 -0.17617747388E+02  0.63696880946E+01  0.19850450936E+02  0.00000000000E+00 0. -1.
         -1    1    6    6    0  503  0.25192972517E+02  0.10432962356E+03  0.99038497164E+02  0.14604102211E+03  0.00000000000E+00 0.  1.
<mgrwt>
<rscale>  0 0.35122737E+04</rscale>
<asrwt>0</asrwt>
<pdfrwt beam="1">  1        2 0.31349604E+00 0.35122737E+04</pdfrwt>
<pdfrwt beam="2">  1       -1 0.23284019E+00 0.35122737E+04</pdfrwt>
<totfact> 0.53722988E-01</totfact>
</mgrwt>
</event>
<event>
12    6  0.1494052E-007  0.2714849E+04  0.7818608E-02  0.8330203E-01
         -1   -1    0    0    0  501 -0.00000000000E+00  0.00000000000E+00  0.20771260138E+04  0.20771260138E+04  0.00000000000E+00 0.  1.
          2   -1    0    0  501    0  0.00000000000E+00 -0.00000000000E+00 -0.88709173106E+03  0.88709173106E+03  0.00000000000E+00 0. -1.
         24    2    1    2    0    0 -0.25952199402E+03 -0.49375083445E+02  0.18112871666E+04  0.18323347363E+04  0.83065164984E+02 0.  0.
        254    2    1    2    0    0  0.25952199402E+03  0.49375083445E+02 -0.62125288392E+03  0.11318830085E+04  0.90852321654E+03 0.  0.
         23    2    4    4    0    0 -0.15312027848E+03  0.32766921548E+03 -0.66130170291E+02  0.38054662248E+03  0.98130515135E+02 0.  0.
         23    2    4    4    0    0  0.41264227250E+03 -0.27829413204E+03 -0.55512271363E+03  0.75133638606E+03  0.92864787987E+02 0.  0.
          4    1    3    3  502    0 -0.73865552119E+02 -0.96625866211E+01  0.29735370806E+03  0.30654316672E+03  0.00000000000E+00 0. -1.
         -3    1    3    3    0  502 -0.18565644190E+03 -0.39712496824E+02  0.15139334586E+04  0.15257915696E+04  0.00000000000E+00 0.  1.
         11    1    5    5    0    0 -0.37753929029E+02  0.19431894141E+03 -0.25402279245E+02  0.19957576490E+03  0.00000000000E+00 0.  1.
        -11    1    5    5    0    0 -0.11536634945E+03  0.13335027407E+03 -0.40727891046E+02  0.18097085757E+03  0.00000000000E+00 0. -1.
          4    1    6    6  503    0  0.70937737288E+02 -0.76529574157E+02 -0.16238597188E+03  0.19302368289E+03  0.00000000000E+00 0. -1.
         -4    1    6    6    0  503  0.34170453521E+03 -0.20176455788E+03 -0.39273674174E+03  0.55831270316E+03  0.00000000000E+00 0.  1.
<mgrwt>
<rscale>  0 0.27148490E+04</rscale>
<asrwt>0</asrwt>
<pdfrwt beam="1">  1        2 0.13647565E+00 0.27148490E+04</pdfrwt>
<pdfrwt beam="2">  1       -1 0.31955785E+00 0.27148490E+04</pdfrwt>
<totfact> 0.73644753E-01</totfact>
</mgrwt>
</event>
<event>
12    6  0.1494052E-007  0.1510171E+04  0.7818608E-02  0.8877717E-01
         -1   -1    0    0    0  501 -0.00000000000E+00  0.00000000000E+00  0.67128635669E+03  0.67128635669E+03  0.00000000000E+00 0.  1.
          2   -1    0    0  501    0  0.00000000000E+00 -0.00000000000E+00 -0.84934544877E+03  0.84934544877E+03  0.00000000000E+00 0. -1.
         24    2    1    2    0    0 -0.41260789834E+03 -0.15280357724E+03 -0.28577700419E+03  0.53064900087E+03  0.79533986541E+02 0.  0.
        254    2    1    2    0    0  0.41260789834E+03  0.15280357724E+03  0.10771791211E+03  0.98998280459E+03  0.88026620622E+03 0.  0.
         23    2    4    4    0    0  0.42900001985E+03  0.89984931072E+02  0.44678872848E+03  0.63258753577E+03  0.91697969817E+02 0.  0.
         23    2    4    4    0    0 -0.16392121516E+02  0.62818646169E+02 -0.33907081636E+03  0.35739526882E+03  0.92452559237E+02 0.  0.
          4    1    3    3  502    0 -0.36416209305E+03 -0.11321993477E+03 -0.22179549507E+03  0.44116439711E+03  0.00000000000E+00 0. -1.
         -3    1    3    3    0  502 -0.48445805283E+02 -0.39583642472E+02 -0.63981509117E+02  0.89484603758E+02  0.00000000000E+00 0.  1.
         11    1    5    5    0    0  0.28849063105E+02  0.14191822925E+02  0.64627655026E+01  0.32793957034E+02  0.00000000000E+00 0.  1.
        -11    1    5    5    0    0  0.40015095675E+03  0.75793108147E+02  0.44032596297E+03  0.59979357874E+03  0.00000000000E+00 0. -1.
          1    1    6    6  503    0 -0.36606605120E+01 -0.24441633512E+02 -0.69062166731E+02  0.73351051510E+02  0.00000000000E+00 0.  1.
         -1    1    6    6    0  503 -0.12731461004E+02  0.87260279681E+02 -0.27000864963E+03  0.28404421731E+03  0.00000000000E+00 0. -1.
<mgrwt>
<rscale>  0 0.15101709E+04</rscale>
<asrwt>0</asrwt>
<pdfrwt beam="1">  1        2 0.13066853E+00 0.15101709E+04</pdfrwt>
<pdfrwt beam="2">  1       -1 0.10327482E+00 0.15101709E+04</pdfrwt>
<totfact> 0.30992168E+01</totfact>
</mgrwt>
</event>
<event>
12    6  0.1494052E-007  0.1799570E+04  0.7818608E-02  0.8706528E-01
         -1   -1    0    0    0  501 -0.00000000000E+00  0.00000000000E+00  0.87426838046E+03  0.87426838046E+03  0.00000000000E+00 0.  1.
          2   -1    0    0  501    0  0.00000000000E+00 -0.00000000000E+00 -0.92604597026E+03  0.92604597026E+03  0.00000000000E+00 0. -1.
         24    2    1    2    0    0  0.53510746712E+03 -0.40777673301E+03 -0.18587875848E-01  0.68131680990E+03  0.10756732658E+03 0.  0.
        254    2    1    2    0    0 -0.53510746712E+03  0.40777673301E+03 -0.51759001922E+02  0.11189975408E+04  0.89266714779E+03 0.  0.
         23    2    4    4    0    0 -0.62879621331E+03  0.16265361814E+03 -0.32256416937E+03  0.73096490785E+03  0.91766964560E+02 0.  0.
         23    2    4    4    0    0  0.93688746188E+02  0.24512311487E+03  0.27080516744E+03  0.38803263298E+03  0.91492966572E+02 0.  0.
          2    1    3    3  502    0  0.69004462731E+02 -0.90324932501E+02  0.26641785172E+02  0.11674756539E+03  0.00000000000E+00 0. -1.
         -1    1    3    3    0  502  0.46610300439E+03 -0.31745180051E+03 -0.26660373048E+02  0.56456924451E+03  0.00000000000E+00 0.  1.
         11    1    5    5    0    0 -0.86593164202E+02  0.44364783864E+02 -0.77122989714E+02  0.12415540937E+03  0.00000000000E+00 0. -1.
        -11    1    5    5    0    0 -0.54220304911E+03  0.11828883428E+03 -0.24544117965E+03  0.60680949848E+03  0.00000000000E+00 0.  1.
          3    1    6    6  503    0 -0.44241631255E+01  0.69611773803E+02  0.34689606117E+02  0.77902124772E+02  0.00000000000E+00 0. -1.
         -3    1    6    6    0  503  0.98112909313E+02  0.17551134107E+03  0.23611556133E+03  0.31013050820E+03  0.00000000000E+00 0.  1.
<mgrwt>
<rscale>  0 0.17995696E+04</rscale>
<asrwt>0</asrwt>
<pdfrwt beam="1">  1        2 0.14246861E+00 0.17995696E+04</pdfrwt>
<pdfrwt beam="2">  1       -1 0.13450283E+00 0.17995696E+04</pdfrwt>
<totfact> 0.14110016E+01</totfact>
</mgrwt>
</event>
<event>
12    6  0.1494052E-007  0.3319357E+04  0.7818608E-02  0.8157987E-01
         -3   -1    0    0    0  501 -0.00000000000E+00  0.00000000000E+00  0.21716290666E+04  0.21716290666E+04  0.00000000000E+00 0.  1.
          2   -1    0    0  501    0  0.00000000000E+00 -0.00000000000E+00 -0.12684177190E+04  0.12684177190E+04  0.00000000000E+00 0. -1.
         24    2    1    2    0    0 -0.59719909004E+01  0.12690268866E+04 -0.48015096621E+03  0.13591875630E+04  0.79881019941E+02 0.  0.
        254    2    1    2    0    0  0.59719909004E+01 -0.12690268866E+04  0.13833623138E+04  0.20808592226E+04  0.89767416670E+03 0.  0.
         23    2    4    4    0    0  0.19504916157E+03  0.34008412241E+02  0.99650226146E+02  0.23980586995E+03  0.91520162573E+02 0.  0.
         23    2    4    4    0    0 -0.18907717067E+03 -0.13030352989E+04  0.12837120876E+04  0.18410533527E+04  0.88935689762E+02 0.  0.
          2    1    3    3  502    0 -0.37864053852E+02  0.98087932307E+03 -0.36640244981E+03  0.10477636605E+04  0.00000000000E+00 0. -1.
         -1    1    3    3    0  502  0.31892062951E+02  0.28814756357E+03 -0.11374851641E+03  0.31142390251E+03  0.00000000000E+00 0.  1.
         11    1    5    5    0    0  0.15877020729E+03 -0.12132143320E+02  0.77241924835E+02  0.17697876307E+03  0.00000000000E+00 0. -1.
        -11    1    5    5    0    0  0.36278954281E+02  0.46140555561E+02  0.22408301310E+02  0.62827106879E+02  0.00000000000E+00 0.  1.
          2    1    6    6  503    0 -0.39947764843E+02 -0.15620802093E+03  0.19148517128E+03  0.25032646791E+03  0.00000000000E+00 0. -1.
         -2    1    6    6    0  503 -0.14912940583E+03 -0.11468272779E+04  0.10922269163E+04  0.15907268848E+04  0.00000000000E+00 0.  1.
<mgrwt>
<rscale>  0 0.33193570E+04</rscale>
<asrwt>0</asrwt>
<pdfrwt beam="1">  1        2 0.19514119E+00 0.33193570E+04</pdfrwt>
<pdfrwt beam="2">  1       -3 0.33409678E+00 0.33193570E+04</pdfrwt>
<totfact> 0.22077662E-01</totfact>
</mgrwt>
</event>
<event>
12    6  0.1494052E-007  0.1746037E+04  0.7818608E-02  0.8735535E-01
          2   -1    0    0  501    0  0.00000000000E+00  0.00000000000E+00  0.11032297900E+04  0.11032297900E+04  0.00000000000E+00 0. -1.
         -1   -1    0    0    0  501 -0.00000000000E+00 -0.00000000000E+00 -0.69084525048E+03  0.69084525048E+03  0.00000000000E+00 0.  1.
         24    2    1    2    0    0  0.41413795974E+03 -0.27386606483E+01  0.62980356835E+03  0.75799314463E+03  0.79895698484E+02 0.  0.
        254    2    1    2    0    0 -0.41413795974E+03  0.27386606483E+01 -0.21741902880E+03  0.10360818959E+04  0.92448737738E+03 0.  0.
         23    2    4    4    0    0 -0.62728588914E+03 -0.23903882689E+03 -0.16228509603E+03  0.69632466130E+03  0.88906884231E+02 0.  0.
         23    2    4    4    0    0  0.21314792940E+03  0.24177748754E+03 -0.55133932761E+02  0.33975723458E+03  0.92232503071E+02 0.  0.
          2    1    3    3  502    0  0.24124704932E+03 -0.40618538891E+02  0.37532249157E+03  0.44801448323E+03  0.00000000000E+00 0. -1.
         -1    1    3    3    0  502  0.17289091043E+03  0.37879878243E+02  0.25448107678E+03  0.30997866140E+03  0.00000000000E+00 0.  1.
         11    1    5    5    0    0 -0.51130079062E+03 -0.16649073717E+03 -0.10434297058E+03  0.54775461619E+03  0.00000000000E+00 0. -1.
        -11    1    5    5    0    0 -0.11598509853E+03 -0.72548089718E+02 -0.57942125457E+02  0.14857004511E+03  0.00000000000E+00 0.  1.
          1    1    6    6  503    0  0.21468290041E+03  0.23961105951E+03 -0.66131087666E+02  0.32844410228E+03  0.00000000000E+00 0. -1.
         -1    1    6    6    0  503 -0.15349710159E+01  0.21664280291E+01  0.10997154904E+02  0.11313132299E+02  0.00000000000E+00 0.  1.
<mgrwt>
<rscale>  0 0.17460367E+04</rscale>
<asrwt>0</asrwt>
<pdfrwt beam="1">  1        2 0.16972766E+00 0.17460367E+04</pdfrwt>
<pdfrwt beam="2">  1       -1 0.10628388E+00 0.17460367E+04</pdfrwt>
<totfact> 0.19409151E+01</totfact>
</mgrwt>
</event>
<event>
12    6  0.1494052E-007  0.1415781E+04  0.7818608E-02  0.8942474E-01
          2   -1    0    0  501    0  0.00000000000E+00  0.00000000000E+00  0.43768433775E+04  0.43768433775E+04  0.00000000000E+00 0. -1.
         -1   -1    0    0    0  501 -0.00000000000E+00 -0.00000000000E+00 -0.11449099812E+03  0.11449099812E+03  0.00000000000E+00 0.  1.
         24    2    1    2    0    0  0.10079550577E+03  0.76551529243E+02  0.25342465262E+04  0.25386697957E+04  0.80118695291E+02 0.  0.
        254    2    1    2    0    0 -0.10079550577E+03 -0.76551529243E+02  0.17281058532E+04  0.19526645799E+04  0.90029398050E+03 0.  0.
         23    2    4    4    0    0  0.17768376771E+03 -0.24710124436E+03  0.17275598769E+03  0.36075673778E+03  0.87579942340E+02 0.  0.
         23    2    4    4    0    0 -0.27847927349E+03  0.17054971512E+03  0.15553498655E+04  0.15919078421E+04  0.91757630361E+02 0.  0.
          4    1    3    3  502    0  0.45694083762E+02  0.82560344803E+02  0.15853214247E+04  0.15881272554E+04  0.00000000000E+00 0. -1.
         -3    1    3    3    0  502  0.55101422009E+02 -0.60088155606E+01  0.94892510158E+03  0.95054254034E+03  0.00000000000E+00 0.  1.
         11    1    5    5    0    0  0.17707275645E+03 -0.24669173454E+03  0.18031344114E+03  0.35316357403E+03  0.00000000000E+00 0.  1.
        -11    1    5    5    0    0  0.61101126128E+00 -0.40950982593E+00 -0.75574534543E+01  0.75931637525E+01  0.00000000000E+00 0. -1.
          1    1    6    6  503    0 -0.50022725685E+01  0.31673106850E+02  0.17190506935E+03  0.17487012694E+03  0.00000000000E+00 0. -1.
         -1    1    6    6    0  503 -0.27347700092E+03  0.13887660827E+03  0.13834447961E+04  0.14170377152E+04  0.00000000000E+00 0.  1.
<mgrwt>
<rscale>  0 0.14157813E+04</rscale>
<asrwt>0</asrwt>
<pdfrwt beam="1">  1        2 0.67336039E+00 0.14157813E+04</pdfrwt>
<pdfrwt beam="2">  1       -1 0.17614003E-01 0.14157813E+04</pdfrwt>
<totfact> 0.46851320E+00</totfact>
</mgrwt>
</event>
<event>
12    6  0.1494052E-007  0.1643754E+04  0.7818608E-02  0.8794110E-01
         -1   -1    0    0    0  501 -0.00000000000E+00  0.00000000000E+00  0.75562354894E+03  0.75562354894E+03  0.00000000000E+00 0.  1.
          2   -1    0    0  501    0  0.00000000000E+00 -0.00000000000E+00 -0.89393905600E+03  0.89393905600E+03  0.00000000000E+00 0. -1.
         24    2    1    2    0    0  0.56362267491E+02 -0.33398599125E+03 -0.50862976509E+03  0.61623645977E+03  0.79497099728E+02 0.  0.
        254    2    1    2    0    0 -0.56362267491E+02  0.33398599125E+03  0.37031425803E+03  0.10333261452E+04  0.90327566392E+03 0.  0.
         23    2    4    4    0    0 -0.84335502231E+02  0.25767255093E+03 -0.26293552300E+03  0.38843910744E+03  0.90786730805E+02 0.  0.
         23    2    4    4    0    0  0.27973234739E+02  0.76313440314E+02  0.63324978103E+03  0.64488703773E+03  0.90927241324E+02 0.  0.
          4    1    3    3  502    0  0.54491626256E+02 -0.17386806001E+03 -0.32502968163E+03  0.37261740910E+03  0.00000000000E+00 0. -1.
         -3    1    3    3    0  502  0.18706412356E+01 -0.16011793123E+03 -0.18360008347E+03  0.24361905067E+03  0.00000000000E+00 0.  1.
         11    1    5    5    0    0 -0.45292485525E+02  0.12105849295E+03 -0.18704031614E+03  0.22735577368E+03  0.00000000000E+00 0.  1.
        -11    1    5    5    0    0 -0.39043016706E+02  0.13661405798E+03 -0.75895206858E+02  0.16108333376E+03  0.00000000000E+00 0. -1.
          1    1    6    6  503    0 -0.11302321340E+00  0.15977092537E+02  0.44379627308E+03  0.44408378968E+03  0.00000000000E+00 0. -1.
         -1    1    6    6    0  503  0.28086257953E+02  0.60336347777E+02  0.18945350796E+03  0.20080324805E+03  0.00000000000E+00 0.  1.
<mgrwt>
<rscale>  0 0.16437535E+04</rscale>
<asrwt>0</asrwt>
<pdfrwt beam="1">  1        2 0.13752908E+00 0.16437535E+04</pdfrwt>
<pdfrwt beam="2">  1       -1 0.11624978E+00 0.16437535E+04</pdfrwt>
<totfact> 0.21597479E+01</totfact>
</mgrwt>
</event>
<event>
12    6  0.1494052E-007  0.2153262E+04  0.7818608E-02  0.8538137E-01
         -1   -1    0    0    0  501 -0.00000000000E+00  0.00000000000E+00  0.66090813030E+03  0.66090813030E+03  0.00000000000E+00 0.  1.
          2   -1    0    0  501    0  0.00000000000E+00 -0.00000000000E+00 -0.17538504500E+04  0.17538504500E+04  0.00000000000E+00 0. -1.
         24    2    1    2    0    0  0.36141558252E+03  0.80233086882E+03 -0.54509569563E+03  0.10383582520E+04  0.81868771432E+02 0.  0.
        254    2    1    2    0    0 -0.36141558252E+03 -0.80233086882E+03 -0.54784662405E+03  0.13764003283E+04  0.90553072499E+03 0.  0.
         23    2    4    4    0    0 -0.29352303098E+03 -0.99169988745E+03 -0.47855085437E+03  0.11430200464E+04  0.88653650013E+02 0.  0.
         23    2    4    4    0    0 -0.67892551534E+02  0.18936901863E+03 -0.69295769676E+02  0.23338028195E+03  0.95887582812E+02 0.  0.
          2    1    3    3  502    0  0.32498721483E+03  0.75496899565E+03 -0.52506131062E+03  0.97533802043E+03  0.00000000000E+00 0. -1.
         -1    1    3    3    0  502  0.36428367688E+02  0.47361873168E+02 -0.20034385006E+02  0.63020231553E+02  0.00000000000E+00 0.  1.
         11    1    5    5    0    0 -0.15654491223E+03 -0.38275553082E+03 -0.17668103003E+03  0.44969355376E+03  0.00000000000E+00 0.  1.
        -11    1    5    5    0    0 -0.13697811875E+03 -0.60894435662E+03 -0.30186982434E+03  0.69332649259E+03  0.00000000000E+00 0. -1.
          3    1    6    6  503    0 -0.50303981350E+02  0.56534070389E+02  0.12048949954E+02  0.76627467982E+02  0.00000000000E+00 0. -1.
         -3    1    6    6    0  503 -0.17588570185E+02  0.13283494824E+03 -0.81344719630E+02  0.15675281397E+03  0.00000000000E+00 0.  1.
<mgrwt>
<rscale>  0 0.21532617E+04</rscale>
<asrwt>0</asrwt>
<pdfrwt beam="1">  1        2 0.26982314E+00 0.21532617E+04</pdfrwt>
<pdfrwt beam="2">  1       -1 0.10167818E+00 0.21532617E+04</pdfrwt>
<totfact> 0.87724465E+00</totfact>
</mgrwt>
</event>
<event>
12    6  0.1494052E-007  0.1794186E+04  0.7818608E-02  0.8709397E-01
          2   -1    0    0  501    0  0.00000000000E+00  0.00000000000E+00  0.15554401101E+04  0.15554401101E+04  0.00000000000E+00 0. -1.
         -1   -1    0    0    0  501 -0.00000000000E+00 -0.00000000000E+00 -0.51739451878E+03  0.51739451878E+03  0.00000000000E+00 0.  1.
         24    2    1    2    0    0 -0.16294528829E+03  0.52831583492E+03 -0.33310753167E+02  0.55997121004E+03  0.82397581299E+02 0.  0.
        254    2    1    2    0    0  0.16294528829E+03 -0.52831583492E+03  0.10713563445E+04  0.15128634189E+04  0.91393791847E+03 0.  0.
         23    2    4    4    0    0  0.43336168979E+02 -0.54196457036E+03  0.13881621420E+03  0.56840037149E+03  0.90583783936E+02 0.  0.
         23    2    4    4    0    0  0.11960911931E+03  0.13648735449E+02  0.93254013033E+03  0.94446304739E+03  0.88807228292E+02 0.  0.
          4    1    3    3  502    0  0.63580581169E+01  0.51831726541E+02 -0.13393728949E+02  0.53910525450E+02  0.00000000000E+00 0. -1.
         -3    1    3    3    0  502 -0.16930334640E+03  0.47648410838E+03 -0.19917024219E+02  0.50606068459E+03  0.00000000000E+00 0.  1.
         11    1    5    5    0    0  0.43758920503E+02 -0.10327192565E+03  0.36303345943E+02  0.11788921357E+03  0.00000000000E+00 0.  1.
        -11    1    5    5    0    0 -0.42275152340E+00 -0.43869264472E+03  0.10251286825E+03  0.45051115791E+03  0.00000000000E+00 0. -1.
          4    1    6    6  503    0  0.23248600027E+02 -0.20291990907E+02  0.45858331299E+03  0.45962040561E+03  0.00000000000E+00 0. -1.
         -4    1    6    6    0  503  0.96360519280E+02  0.33940726356E+02  0.47395681735E+03  0.48484264178E+03  0.00000000000E+00 0.  1.
<mgrwt>
<rscale>  0 0.17941864E+04</rscale>
<asrwt>0</asrwt>
<pdfrwt beam="1">  1        2 0.23929848E+00 0.17941864E+04</pdfrwt>
<pdfrwt beam="2">  1       -1 0.79599157E-01 0.17941864E+04</pdfrwt>
<totfact> 0.20042318E+01</totfact>
</mgrwt>
</event>
<event>
12    6  0.1494052E-007  0.1642031E+04  0.7818608E-02  0.8795135E-01
          2   -1    0    0  501    0  0.00000000000E+00  0.00000000000E+00  0.26613850023E+03  0.26613850023E+03  0.00000000000E+00 0. -1.
         -1   -1    0    0    0  501 -0.00000000000E+00 -0.00000000000E+00 -0.25327671844E+04  0.25327671844E+04  0.00000000000E+00 0.  1.
         24    2    1    2    0    0 -0.50230887513E+03  0.20150671533E+03 -0.99090367510E+03  0.11318254623E+04  0.78864576571E+02 0.  0.
        254    2    1    2    0    0  0.50230887513E+03 -0.20150671533E+03 -0.12757250091E+04  0.16670802223E+04  0.92669466738E+03 0.  0.
         23    2    4    4    0    0 -0.14159666599E+02 -0.61578178584E+02  0.12375631451E+03  0.16593879040E+03  0.90706606950E+02 0.  0.
         23    2    4    4    0    0  0.51646854173E+03 -0.13992853675E+03 -0.13994813236E+04  0.15011414319E+04  0.92508775802E+02 0.  0.
          2    1    3    3  502    0 -0.31005095108E+03  0.14439445405E+03 -0.55378070696E+03  0.65088741117E+03  0.00000000000E+00 0. -1.
         -1    1    3    3    0  502 -0.19225792405E+03  0.57112261280E+02 -0.43712296814E+03  0.48093805113E+03  0.00000000000E+00 0.  1.
         11    1    5    5    0    0  0.25783275897E+02  0.41242847368E+01  0.86376200196E+01  0.27502645694E+02  0.00000000000E+00 0. -1.
        -11    1    5    5    0    0 -0.39942942496E+02 -0.65702463321E+02  0.11511869449E+03  0.13843614471E+03  0.00000000000E+00 0.  1.
          2    1    6    6  503    0  0.40132273652E+02  0.11184667227E+01 -0.57229618495E+02  0.69907650435E+02  0.00000000000E+00 0. -1.
         -2    1    6    6    0  503  0.47633626808E+03 -0.14104700347E+03 -0.13422517051E+04  0.14312337815E+04  0.00000000000E+00 0.  1.
<mgrwt>
<rscale>  0 0.16420315E+04</rscale>
<asrwt>0</asrwt>
<pdfrwt beam="1">  1        2 0.40944386E-01 0.16420315E+04</pdfrwt>
<pdfrwt beam="2">  1       -1 0.38965648E+00 0.16420315E+04</pdfrwt>
<totfact> 0.11612243E+00</totfact>
</mgrwt>
</event>
<event>
12    6  0.1494052E-007  0.1209085E+04  0.7818608E-02  0.9104941E-01
          2   -1    0    0  501    0  0.00000000000E+00  0.00000000000E+00  0.19372880330E+04  0.19372880330E+04  0.00000000000E+00 0. -1.
         -1   -1    0    0    0  501 -0.00000000000E+00 -0.00000000000E+00 -0.18865120155E+03  0.18865120155E+03  0.00000000000E+00 0.  1.
         24    2    1    2    0    0  0.13159213700E+03 -0.22271542291E+03  0.42147254004E+03  0.50019985126E+03  0.75114173579E+02 0.  0.
        254    2    1    2    0    0 -0.13159213700E+03  0.22271542291E+03  0.13271642914E+04  0.16257393833E+04  0.90263217087E+03 0.  0.
         23    2    4    4    0    0 -0.28169992002E+03  0.43334030343E+03  0.12256800994E+04  0.13332854412E+04  0.90662550805E+02 0.  0.
         23    2    4    4    0    0  0.15010778301E+03 -0.21062488052E+03  0.10148419196E+03  0.29245394206E+03  0.91296660340E+02 0.  0.
          2    1    3    3  502    0  0.95871065933E+02 -0.11905795838E+03  0.29908928612E+03  0.33588757019E+03  0.00000000000E+00 0. -1.
         -1    1    3    3    0  502  0.35721071069E+02 -0.10365746453E+03  0.12238325392E+03  0.16431228107E+03  0.00000000000E+00 0.  1.
         11    1    5    5    0    0 -0.10056825751E+03  0.13500051536E+03  0.50942041172E+03  0.53651492938E+03  0.00000000000E+00 0. -1.
        -11    1    5    5    0    0 -0.18113166251E+03  0.29833978807E+03  0.71625968773E+03  0.79677051186E+03  0.00000000000E+00 0.  1.
          3    1    6    6  503    0 -0.10867563636E+02 -0.22089648634E+02  0.10739359113E+00  0.24618449374E+02  0.00000000000E+00 0. -1.
         -3    1    6    6    0  503  0.16097534665E+03 -0.18853523189E+03  0.10137679837E+03  0.26783549268E+03  0.00000000000E+00 0.  1.
<mgrwt>
<rscale>  0 0.12090851E+04</rscale>
<asrwt>0</asrwt>
<pdfrwt beam="1">  1        2 0.29804430E+00 0.12090851E+04</pdfrwt>
<pdfrwt beam="2">  1       -1 0.29023263E-01 0.12090851E+04</pdfrwt>
<totfact> 0.88032628E+01</totfact>
</mgrwt>
</event>
<event>
12    6  0.1494052E-007  0.1849025E+04  0.7818608E-02  0.8680654E-01
          2   -1    0    0  501    0  0.00000000000E+00  0.00000000000E+00  0.92429279348E+03  0.92429279348E+03  0.00000000000E+00 0. -1.
         -1   -1    0    0    0  501 -0.00000000000E+00 -0.00000000000E+00 -0.92473236702E+03  0.92473236702E+03  0.00000000000E+00 0.  1.
         24    2    1    2    0    0 -0.27567579294E+03  0.29039360611E+03  0.57589409132E+03  0.70673315158E+03  0.86557228702E+02 0.  0.
        254    2    1    2    0    0  0.27567579294E+03 -0.29039360611E+03 -0.57633366486E+03  0.11422920089E+04  0.90130180911E+03 0.  0.
         23    2    4    4    0    0  0.16630558757E+03 -0.11301602078E+03 -0.79596616056E+03  0.82581288604E+03  0.89300753554E+02 0.  0.
         23    2    4    4    0    0  0.10937020537E+03 -0.17737758534E+03  0.21963249570E+03  0.31647912288E+03  0.92173491043E+02 0.  0.
          2    1    3    3  502    0 -0.23314076871E+03  0.19182095796E+03  0.43808202550E+03  0.53203924575E+03  0.00000000000E+00 0. -1.
         -1    1    3    3    0  502 -0.42535024230E+02  0.98572648152E+02  0.13781206581E+03  0.17469390583E+03  0.00000000000E+00 0.  1.
         11    1    5    5    0    0 -0.66691636255E+01 -0.20883596372E+02 -0.12100789652E+03  0.12297769457E+03  0.00000000000E+00 0. -1.
        -11    1    5    5    0    0  0.17297475119E+03 -0.92132424403E+02 -0.67495826403E+03  0.70283519147E+03  0.00000000000E+00 0.  1.
          4    1    6    6  503    0  0.40905317706E+01  0.44051078322E+01 -0.57919901825E+01  0.83477287602E+01  0.00000000000E+00 0. -1.
         -4    1    6    6    0  503  0.10527967360E+03 -0.18178269317E+03  0.22542448588E+03  0.30813139412E+03  0.00000000000E+00 0.  1.
<mgrwt>
<rscale>  0 0.18490251E+04</rscale>
<asrwt>0</asrwt>
<pdfrwt beam="1">  1        2 0.14219889E+00 0.18490251E+04</pdfrwt>
<pdfrwt beam="2">  1       -1 0.14226652E+00 0.18490251E+04</pdfrwt>
<totfact> 0.12176695E+01</totfact>
</mgrwt>
</event>
<event>
12    6  0.1494052E-007  0.2819561E+04  0.7818608E-02  0.8297221E-01
         -1   -1    0    0    0  501 -0.00000000000E+00  0.00000000000E+00  0.10099194764E+04  0.10099194764E+04  0.00000000000E+00 0.  1.
          2   -1    0    0  501    0  0.00000000000E+00 -0.00000000000E+00 -0.19679603189E+04  0.19679603189E+04  0.00000000000E+00 0. -1.
         24    2    1    2    0    0  0.89748135319E+02 -0.31884446550E+03 -0.17163511230E+04  0.17498439348E+04  0.79850470922E+02 0.  0.
        254    2    1    2    0    0 -0.89748135319E+02  0.31884446550E+03  0.75831028054E+03  0.12280358605E+04  0.90737041613E+03 0.  0.
         23    2    4    4    0    0  0.87981060860E+02  0.30997512665E+03 -0.97802384099E+02  0.34874651145E+03  0.90739058287E+02 0.  0.
         23    2    4    4    0    0 -0.17772919618E+03  0.88693388530E+01  0.85611266464E+03  0.87928934903E+03  0.92490715321E+02 0.  0.
          2    1    3    3  502    0  0.72169153731E+02 -0.18132255795E+03 -0.82455076021E+03  0.84733122976E+03  0.00000000000E+00 0. -1.
         -1    1    3    3    0  502  0.17578981588E+02 -0.13752190755E+03 -0.89180036284E+03  0.90251270507E+03  0.00000000000E+00 0.  1.
         11    1    5    5    0    0  0.51029086835E+02  0.27645379889E+03 -0.63516094464E+02  0.28820993196E+03  0.00000000000E+00 0. -1.
        -11    1    5    5    0    0  0.36951974025E+02  0.33521327761E+02 -0.34286289635E+02  0.60536579488E+02  0.00000000000E+00 0.  1.
          3    1    6    6  503    0 -0.18264980062E+03  0.18139584076E+02  0.72929066850E+03  0.75203382459E+03  0.00000000000E+00 0. -1.
         -3    1    6    6    0  503  0.49206044426E+01 -0.92702452227E+01  0.12682199614E+03  0.12725552443E+03  0.00000000000E+00 0.  1.
<mgrwt>
<rscale>  0 0.28195613E+04</rscale>
<asrwt>0</asrwt>
<pdfrwt beam="1">  1        2 0.30276312E+00 0.28195613E+04</pdfrwt>
<pdfrwt beam="2">  1       -1 0.15537223E+00 0.28195613E+04</pdfrwt>
<totfact> 0.21812420E+00</totfact>
</mgrwt>
</event>
<event>
12    6  0.1494052E-007  0.1835459E+04  0.7818608E-02  0.8687667E-01
          2   -1    0    0  501    0  0.00000000000E+00  0.00000000000E+00  0.18500908640E+04  0.18500908640E+04  0.00000000000E+00 0. -1.
         -1   -1    0    0    0  501 -0.00000000000E+00 -0.00000000000E+00 -0.45523581464E+03  0.45523581464E+03  0.00000000000E+00 0.  1.
         24    2    1    2    0    0 -0.44977897799E+03 -0.21668442314E+03  0.26520356676E+02  0.50639461632E+03  0.80491675593E+02 0.  0.
        254    2    1    2    0    0  0.44977897799E+03  0.21668442314E+03  0.13683346927E+04  0.17989320623E+04  0.10557288787E+04 0.  0.
         23    2    4    4    0    0  0.54742007751E+03  0.34642004825E+03  0.30910432205E+03  0.72345721814E+03  0.90384033375E+02 0.  0.
         23    2    4    4    0    0 -0.97641099513E+02 -0.12973562511E+03  0.10592303706E+04  0.10754748442E+04  0.91170420917E+02 0.  0.
          4    1    3    3  502    0  0.35200087884E+00  0.27635511854E+01  0.43045056314E+01  0.51273666247E+01  0.00000000000E+00 0. -1.
         -3    1    3    3    0  502 -0.45013097887E+03 -0.21944797433E+03  0.22215851044E+02  0.50126724969E+03  0.00000000000E+00 0.  1.
         11    1    5    5    0    0 -0.11873532401E-02 -0.15764627308E+01 -0.31665615729E+01  0.35372797948E+01  0.00000000000E+00 0.  1.
        -11    1    5    5    0    0  0.54742126486E+03  0.34799651098E+03  0.31227088362E+03  0.71991993835E+03  0.00000000000E+00 0. -1.
          1    1    6    6  503    0 -0.32501035741E+02 -0.12906112100E+02  0.46786987431E+03  0.46917491870E+03  0.00000000000E+00 0. -1.
         -1    1    6    6    0  503 -0.65140063772E+02 -0.11682951301E+03  0.59136049632E+03  0.60629992547E+03  0.00000000000E+00 0.  1.
<mgrwt>
<rscale>  0 0.18354592E+04</rscale>
<asrwt>0</asrwt>
<pdfrwt beam="1">  1        2 0.28462936E+00 0.18354592E+04</pdfrwt>
<pdfrwt beam="2">  1       -1 0.70036280E-01 0.18354592E+04</pdfrwt>
<totfact> 0.17883838E+01</totfact>
</mgrwt>
</event>
<event>
12    6  0.1494052E-007  0.1251623E+04  0.7818608E-02  0.9068833E-01
         -1   -1    0    0    0  501 -0.00000000000E+00  0.00000000000E+00  0.25225668550E+03  0.25225668550E+03  0.00000000000E+00 0.  1.
          2   -1    0    0  501    0  0.00000000000E+00 -0.00000000000E+00 -0.15525469000E+04  0.15525469000E+04  0.00000000000E+00 0. -1.
         24    2    1    2    0    0 -0.24729314823E+03  0.10222157656E+03 -0.12354388991E+03  0.30518104999E+03  0.79178460859E+02 0.  0.
        254    2    1    2    0    0  0.24729314823E+03 -0.10222157656E+03 -0.11767463246E+04  0.14996225355E+04  0.89024304810E+03 0.  0.
         23    2    4    4    0    0  0.55465078092E+03  0.57279128784E+02 -0.63014688089E+03  0.84613726820E+03  0.89133595035E+02 0.  0.
         23    2    4    4    0    0 -0.30735763269E+03 -0.15950070534E+03 -0.54659944370E+03  0.65348526731E+03  0.91448637849E+02 0.  0.
          4    1    3    3  502    0 -0.10939005624E+03  0.34278225273E+02 -0.94864495536E+02  0.14879668560E+03  0.00000000000E+00 0. -1.
         -1    1    3    3    0  502 -0.13790309200E+03  0.67943351282E+02 -0.28679394371E+02  0.15638436439E+03  0.00000000000E+00 0.  1.
         11    1    5    5    0    0  0.17402343973E+03  0.32235412823E+02 -0.14375860646E+03  0.22801275478E+03  0.00000000000E+00 0.  1.
        -11    1    5    5    0    0  0.38062734120E+03  0.25043715961E+02 -0.48638827444E+03  0.61812451342E+03  0.00000000000E+00 0. -1.
          4    1    6    6  503    0 -0.19191856551E+03 -0.70356335679E+02 -0.24970942761E+03  0.32270349858E+03  0.00000000000E+00 0. -1.
         -4    1    6    6    0  503 -0.11543906719E+03 -0.89144369660E+02 -0.29689001609E+03  0.33078176874E+03  0.00000000000E+00 0.  1.
<mgrwt>
<rscale>  0 0.12516235E+04</rscale>
<asrwt>0</asrwt>
<pdfrwt beam="1">  1        2 0.23885337E+00 0.12516235E+04</pdfrwt>
<pdfrwt beam="2">  1       -1 0.38808721E-01 0.12516235E+04</pdfrwt>
<totfact> 0.85489088E+01</totfact>
</mgrwt>
</event>
<event>
12    6  0.1494052E-007  0.1626560E+04  0.7818608E-02  0.8804395E-01
          2   -1    0    0  501    0  0.00000000000E+00  0.00000000000E+00  0.11355741506E+04  0.11355741506E+04  0.00000000000E+00 0. -1.
         -3   -1    0    0    0  501 -0.00000000000E+00 -0.00000000000E+00 -0.58245832532E+03  0.58245832532E+03  0.00000000000E+00 0.  1.
         24    2    1    2    0    0 -0.17386428781E+03 -0.53295103834E+03  0.21334470552E+03  0.60483751935E+03  0.77761568899E+02 0.  0.
        254    2    1    2    0    0  0.17386428781E+03  0.53295103834E+03  0.33977111981E+03  0.11131949566E+04  0.89971828797E+03 0.  0.
         23    2    4    4    0    0  0.36025373097E+03  0.44740839466E+03  0.55464727729E+03  0.80346207341E+03  0.89222636808E+02 0.  0.
         23    2    4    4    0    0 -0.18638944316E+03  0.85542643686E+02 -0.21487615748E+03  0.30973288320E+03  0.87773159182E+02 0.  0.
          2    1    3    3  502    0 -0.10260262698E+02 -0.16884908234E+02  0.24485790837E+02  0.31463106484E+02  0.00000000000E+00 0. -1.
         -1    1    3    3    0  502 -0.16360402511E+03 -0.51606613011E+03  0.18885891468E+03  0.57337441287E+03  0.00000000000E+00 0.  1.
         11    1    5    5    0    0  0.32353997979E+03  0.41178820239E+03  0.53505006540E+03  0.74868298674E+03  0.00000000000E+00 0.  1.
        -11    1    5    5    0    0  0.36713751173E+02  0.35620192263E+02  0.19597211888E+02  0.54779086665E+02  0.00000000000E+00 0. -1.
          1    1    6    6  503    0 -0.14768987604E+02  0.43814532991E+02 -0.50261063453E+02  0.68293563353E+02  0.00000000000E+00 0. -1.
         -1    1    6    6    0  503 -0.17162045555E+03  0.41728110695E+02 -0.16461509402E+03  0.24143931984E+03  0.00000000000E+00 0.  1.
<mgrwt>
<rscale>  0 0.16265603E+04</rscale>
<asrwt>0</asrwt>
<pdfrwt beam="1">  1        2 0.17470371E+00 0.16265603E+04</pdfrwt>
<pdfrwt beam="2">  1       -3 0.89608974E-01 0.16265603E+04</pdfrwt>
<totfact> 0.14180477E+01</totfact>
</mgrwt>
</event>
<event>
12    6  0.1494052E-007  0.1542305E+04  0.7818608E-02  0.8856798E-01
         -1   -1    0    0    0  501 -0.00000000000E+00  0.00000000000E+00  0.11098198899E+04  0.11098198899E+04  0.00000000000E+00 0.  1.
          2   -1    0    0  501    0  0.00000000000E+00 -0.00000000000E+00 -0.53583147469E+03  0.53583147469E+03  0.00000000000E+00 0. -1.
         24    2    1    2    0    0  0.31478535001E+03  0.30534747297E+03 -0.59504477893E+02  0.45448789960E+03  0.10340005881E+03 0.  0.
        254    2    1    2    0    0 -0.31478535001E+03 -0.30534747297E+03  0.63349289314E+03  0.11911634650E+04  0.90842185074E+03 0.  0.
         23    2    4    4    0    0  0.35349669215E+02  0.19302799340E+03  0.52220322657E+03  0.56524037230E+03  0.91055276019E+02 0.  0.
         23    2    4    4    0    0 -0.35013501923E+03 -0.49837546638E+03  0.11128966657E+03  0.62592309272E+03  0.91769771365E+02 0.  0.
          4    1    3    3  502    0  0.20347780217E+03  0.17909472786E+03 -0.85382295503E+02  0.28419759659E+03  0.00000000000E+00 0. -1.
         -3    1    3    3    0  502  0.11130754784E+03  0.12625274512E+03  0.25877817610E+02  0.17029030301E+03  0.00000000000E+00 0.  1.
         11    1    5    5    0    0  0.49956567395E+02  0.10150773862E+03  0.19791718304E+03  0.22797081166E+03  0.00000000000E+00 0.  1.
        -11    1    5    5    0    0 -0.14606898180E+02  0.91520254788E+02  0.32428604353E+03  0.33726956065E+03  0.00000000000E+00 0. -1.
          3    1    6    6  503    0 -0.59278328180E+02 -0.15458510800E+03  0.25817912191E+02  0.16756204939E+03  0.00000000000E+00 0. -1.
         -3    1    6    6    0  503 -0.29085669105E+03 -0.34379035838E+03  0.85471754381E+02  0.45836104332E+03  0.00000000000E+00 0.  1.
<mgrwt>
<rscale>  0 0.15423053E+04</rscale>
<asrwt>0</asrwt>
<pdfrwt beam="1">  1        2 0.82435612E-01 0.15423053E+04</pdfrwt>
<pdfrwt beam="2">  1       -1 0.17074152E+00 0.15423053E+04</pdfrwt>
<totfact> 0.15187041E+01</totfact>
</mgrwt>
</event>
<event>
12    6  0.1494052E-007  0.1589202E+04  0.7818608E-02  0.8827210E-01
         -1   -1    0    0    0  501 -0.00000000000E+00  0.00000000000E+00  0.33152631738E+03  0.33152631738E+03  0.00000000000E+00 0.  1.
          2   -1    0    0  501    0  0.00000000000E+00 -0.00000000000E+00 -0.19044954576E+04  0.19044954576E+04  0.00000000000E+00 0. -1.
         24    2    1    2    0    0  0.17478783648E+03 -0.17233189888E+03 -0.12045007645E+04  0.12317779708E+04  0.78776941408E+02 0.  0.
        254    2    1    2    0    0 -0.17478783648E+03  0.17233189888E+03 -0.36846837572E+03  0.10042438042E+04  0.90138094233E+03 0.  0.
         23    2    4    4    0    0 -0.35046433738E+03 -0.55583290788E+02 -0.54409287856E+03  0.65603431094E+03  0.91810689153E+02 0.  0.
         23    2    4    4    0    0  0.17567650090E+03  0.22791518967E+03  0.17562450284E+03  0.34820949325E+03  0.87168334504E+02 0.  0.
          4    1    3    3  502    0  0.15473686716E+03 -0.12395677762E+03 -0.10524601116E+04  0.10709720198E+04  0.00000000000E+00 0. -1.
         -3    1    3    3    0  502  0.20050969315E+02 -0.48375121266E+02 -0.15204065299E+03  0.16080595104E+03  0.00000000000E+00 0.  1.
         11    1    5    5    0    0  0.27774897012E+01  0.26326636029E+01  0.93741408657E+00  0.39400649558E+01  0.00000000000E+00 0.  1.
        -11    1    5    5    0    0 -0.35324182708E+03 -0.58215954391E+02 -0.54503029264E+03  0.65209424598E+03  0.00000000000E+00 0. -1.
          3    1    6    6  503    0  0.92269755562E+02  0.17428420156E+03  0.14380950697E+03  0.24406938562E+03  0.00000000000E+00 0. -1.
         -3    1    6    6    0  503  0.83406745340E+02  0.53630988112E+02  0.31814995870E+02  0.10414010763E+03  0.00000000000E+00 0.  1.
<mgrwt>
<rscale>  0 0.15892015E+04</rscale>
<asrwt>0</asrwt>
<pdfrwt beam="1">  1        2 0.29299931E+00 0.15892015E+04</pdfrwt>
<pdfrwt beam="2">  1       -1 0.51004048E-01 0.15892015E+04</pdfrwt>
<totfact> 0.31897144E+01</totfact>
</mgrwt>
</event>
<event>
12    6  0.1955985E-007  0.1956997E+04  0.7818608E-02  0.8626994E-01
          2   -1    0    0  501    0  0.00000000000E+00  0.00000000000E+00  0.14348552551E+04  0.14348552551E+04  0.00000000000E+00 0. -1.
         -1   -1    0    0    0  501 -0.00000000000E+00 -0.00000000000E+00 -0.66728604517E+03  0.66728604517E+03  0.00000000000E+00 0.  1.
         24    2    1    2    0    0  0.61265851701E+03 -0.27435166241E+03 -0.98508995745E+02  0.68289188211E+03  0.77575816248E+02 0.  0.
        254    2    1    2    0    0 -0.61265851701E+03  0.27435166241E+03  0.86607820566E+03  0.14192494181E+04  0.90197458913E+03 0.  0.
         23    2    4    4    0    0 -0.68357894771E+03  0.51167964318E+03  0.62770265214E+03  0.10637189270E+04  0.91602953904E+02 0.  0.
         23    2    4    4    0    0  0.70920430696E+02 -0.23732798076E+03  0.23837555353E+03  0.35553049114E+03  0.90690394592E+02 0.  0.
          4    1    3    3  502    0  0.90600011778E+02 -0.33809288240E+02 -0.41604366262E+02  0.10527275715E+03  0.00000000000E+00 0. -1.
         -1    1    3    3    0  502  0.52205850524E+03 -0.24054237417E+03 -0.56904629483E+02  0.57761912496E+03  0.00000000000E+00 0.  1.
         11    1    5    5    0    0 -0.56563730340E+03  0.46083605145E+03  0.51763306331E+03  0.89457219582E+03  0.00000000000E+00 0.  1.
        -11    1    5    5    0    0 -0.11794164431E+03  0.50843591729E+02  0.11006958883E+03  0.16914673118E+03  0.00000000000E+00 0. -1.
          3    1    6    6  503    0  0.33997062735E+00 -0.52812091564E+01 -0.81355451296E+01  0.97053513453E+01  0.00000000000E+00 0. -1.
         -3    1    6    6    0  503  0.70580460068E+02 -0.23204677161E+03  0.24651109866E+03  0.34582513980E+03  0.00000000000E+00 0.  1.
<mgrwt>
<rscale>  0 0.19569966E+04</rscale>
<asrwt>0</asrwt>
<pdfrwt beam="1">  1        2 0.22074696E+00 0.19569966E+04</pdfrwt>
<pdfrwt beam="2">  1       -1 0.10265939E+00 0.19569966E+04</pdfrwt>
<totfact> 0.13174618E+01</totfact>
</mgrwt>
</event>
<event>
12    6  0.1494052E-007  0.1143021E+04  0.7818608E-02  0.9164246E-01
          2   -1    0    0  501    0  0.00000000000E+00  0.00000000000E+00  0.72407246021E+03  0.72407246021E+03  0.00000000000E+00 0. -1.
         -1   -1    0    0    0  501 -0.00000000000E+00 -0.00000000000E+00 -0.45109338817E+03  0.45109338817E+03  0.00000000000E+00 0.  1.
         24    2    1    2    0    0 -0.13515890965E+03  0.11493171846E+03  0.17706345055E+03  0.26337843080E+03  0.80867184451E+02 0.  0.
        254    2    1    2    0    0  0.13515890965E+03 -0.11493171846E+03  0.95915621491E+02  0.91178741759E+03  0.88920147192E+03 0.  0.
         23    2    4    4    0    0  0.47297107767E+03  0.82582703052E+02 -0.32277127405E+02  0.48960758075E+03  0.90289683910E+02 0.  0.
         23    2    4    4    0    0 -0.33781216802E+03 -0.19751442151E+03  0.12819274890E+03  0.42217983684E+03  0.93131231067E+02 0.  0.
          2    1    3    3  502    0 -0.29743266864E+02  0.65193147729E+02  0.10230285897E+03  0.12490269568E+03  0.00000000000E+00 0. -1.
         -3    1    3    3    0  502 -0.10541564278E+03  0.49738570733E+02  0.74760591581E+02  0.13847573512E+03  0.00000000000E+00 0.  1.
         11    1    5    5    0    0  0.35489729491E+03  0.50471409089E+02 -0.61744711195E+02  0.36374697583E+03  0.00000000000E+00 0.  1.
        -11    1    5    5    0    0  0.11807378276E+03  0.32111293963E+02  0.29467583789E+02  0.12586060491E+03  0.00000000000E+00 0. -1.
          2    1    6    6  503    0 -0.10683721095E+03 -0.47135453492E+02  0.82080802134E+02  0.14273471441E+03  0.00000000000E+00 0. -1.
         -2    1    6    6    0  503 -0.23097495707E+03 -0.15037896802E+03  0.46111946763E+02  0.27944512243E+03  0.00000000000E+00 0.  1.
<mgrwt>
<rscale>  0 0.11430211E+04</rscale>
<asrwt>0</asrwt>
<pdfrwt beam="1">  1        2 0.11139576E+00 0.11430211E+04</pdfrwt>
<pdfrwt beam="2">  1       -1 0.69398983E-01 0.11430211E+04</pdfrwt>
<totfact> 0.93236817E+01</totfact>
</mgrwt>
</event>
<event>
12    6  0.1494052E-007  0.1499511E+04  0.7818608E-02  0.8884778E-01
         -1   -1    0    0    0  501 -0.00000000000E+00  0.00000000000E+00  0.18604278028E+03  0.18604278028E+03  0.00000000000E+00 0.  1.
          2   -1    0    0  501    0  0.00000000000E+00 -0.00000000000E+00 -0.30215278096E+04  0.30215278096E+04  0.00000000000E+00 0. -1.
         24    2    1    2    0    0  0.81026012882E+02  0.12843825899E+03 -0.18190007770E+04  0.18270650498E+04  0.79632082309E+02 0.  0.
        254    2    1    2    0    0 -0.81026012882E+02 -0.12843825899E+03 -0.10164842523E+04  0.13805055400E+04  0.92167983037E+03 0.  0.
         23    2    4    4    0    0 -0.34872616894E+03 -0.13770498948E+03 -0.10273439553E+04  0.10976966369E+04  0.94497084412E+02 0.  0.
         23    2    4    4    0    0  0.26770015606E+03  0.92667304830E+01  0.10859703001E+02  0.28280890319E+03  0.90076060775E+02 0.  0.
          2    1    3    3  502    0  0.43153411837E+02  0.79350562983E+02 -0.14566941996E+04  0.14594919390E+04  0.00000000000E+00 0. -1.
         -1    1    3    3    0  502  0.37872601045E+02  0.49087696011E+02 -0.36230657735E+03  0.36757311082E+03  0.00000000000E+00 0.  1.
         11    1    5    5    0    0 -0.15354298952E+02 -0.26817545964E+02 -0.46523304482E+02  0.55851169440E+02  0.00000000000E+00 0. -1.
        -11    1    5    5    0    0 -0.33337186999E+03 -0.11088744351E+03 -0.98082065085E+03  0.10418454674E+04  0.00000000000E+00 0.  1.
          1    1    6    6  503    0  0.21767875945E+00  0.10854867957E+02 -0.96645682653E+01  0.14535453971E+02  0.00000000000E+00 0. -1.
         -1    1    6    6    0  503  0.26748247730E+03 -0.15881374739E+01  0.20524271266E+02  0.26827344922E+03  0.00000000000E+00 0.  1.
<mgrwt>
<rscale>  0 0.14995112E+04</rscale>
<asrwt>0</asrwt>
<pdfrwt beam="1">  1        2 0.46485040E+00 0.14995112E+04</pdfrwt>
<pdfrwt beam="2">  1       -1 0.28621968E-01 0.14995112E+04</pdfrwt>
<totfact> 0.20733395E+01</totfact>
</mgrwt>
</event>
<event>
12    6  0.1494052E-007  0.1234264E+04  0.7818608E-02  0.9083383E-01
         -3   -1    0    0    0  501 -0.00000000000E+00  0.00000000000E+00  0.52491135348E+03  0.52491135348E+03  0.00000000000E+00 0.  1.
          2   -1    0    0  501    0  0.00000000000E+00 -0.00000000000E+00 -0.72555425829E+03  0.72555425829E+03  0.00000000000E+00 0. -1.
         24    2    1    2    0    0 -0.11324683111E+02  0.42314390275E+02 -0.32900490850E+03  0.34129603066E+03  0.79498394037E+02 0.  0.
        254    2    1    2    0    0  0.11324683111E+02 -0.42314390275E+02  0.12836200370E+03  0.90916958111E+03  0.89899597727E+03 0.  0.
         23    2    4    4    0    0 -0.38360468446E+02  0.39697465133E+03  0.19419197202E+03  0.45290857672E+03  0.91407097818E+02 0.  0.
         23    2    4    4    0    0  0.49685151557E+02 -0.43928904160E+03 -0.65829968327E+02  0.45626100439E+03  0.91635380959E+02 0.  0.
          2    1    3    3  502    0 -0.14076942570E+02  0.50189836394E+02 -0.32884625283E+03  0.33295200553E+03  0.00000000000E+00 0. -1.
         -1    1    3    3    0  502  0.27522594594E+01 -0.78754461185E+01 -0.15865567317E+00  0.83440251270E+01  0.00000000000E+00 0.  1.
         11    1    5    5    0    0 -0.17427382965E+02  0.15217825910E+03  0.12488214779E+03  0.19762967150E+03  0.00000000000E+00 0.  1.
        -11    1    5    5    0    0 -0.20933085482E+02  0.24479639222E+03  0.69309824230E+02  0.25527890522E+03  0.00000000000E+00 0. -1.
          3    1    6    6  503    0  0.74523676785E+02 -0.34921303407E+03 -0.64244279102E+02  0.36280965941E+03  0.00000000000E+00 0. -1.
         -3    1    6    6    0  503 -0.24838525228E+02 -0.90076007528E+02 -0.15856892252E+01  0.93451344977E+02  0.00000000000E+00 0.  1.
<mgrwt>
<rscale>  0 0.12342636E+04</rscale>
<asrwt>0</asrwt>
<pdfrwt beam="1">  1        2 0.11162373E+00 0.12342636E+04</pdfrwt>
<pdfrwt beam="2">  1       -3 0.80755593E-01 0.12342636E+04</pdfrwt>
<totfact> 0.34738339E+01</totfact>
</mgrwt>
</event>
<event>
12    6  0.1494052E-007  0.2564515E+04  0.7818608E-02  0.8380355E-01
          2   -1    0    0  501    0  0.00000000000E+00  0.00000000000E+00  0.33894767547E+04  0.33894767547E+04  0.00000000000E+00 0. -1.
         -1   -1    0    0    0  501 -0.00000000000E+00 -0.00000000000E+00 -0.48508511284E+03  0.48508511284E+03  0.00000000000E+00 0.  1.
         24    2    1    2    0    0  0.63411918939E+03  0.10686926908E+03 -0.10901854211E+03  0.65654070090E+03  0.75049732782E+02 0.  0.
        254    2    1    2    0    0 -0.63411918939E+03 -0.10686926908E+03  0.30134101840E+04  0.32180211667E+04  0.92816545136E+03 0.  0.
         23    2    4    4    0    0 -0.52002763487E+03  0.36096138719E+03  0.17190597747E+04  0.18342142264E+04  0.91942673588E+02 0.  0.
         23    2    4    4    0    0 -0.11409155452E+03 -0.46783065628E+03  0.12943504093E+04  0.13838069403E+04  0.87728331538E+02 0.  0.
          2    1    3    3  502    0  0.14699156851E+03  0.55701649486E+02 -0.16296157700E+02  0.15803404609E+03  0.00000000000E+00 0. -1.
         -1    1    3    3    0  502  0.48712762088E+03  0.51167619599E+02 -0.92722384414E+02  0.49850665481E+03  0.00000000000E+00 0.  1.
         11    1    5    5    0    0 -0.22880357823E+03  0.12343763347E+03  0.60555707737E+03  0.65900478050E+03  0.00000000000E+00 0.  1.
        -11    1    5    5    0    0 -0.29122405664E+03  0.23752375372E+03  0.11135026974E+04  0.11752094459E+04  0.00000000000E+00 0. -1.
          1    1    6    6  503    0 -0.93057224362E+02 -0.24592530920E+03  0.61595854894E+03  0.66973415526E+03  0.00000000000E+00 0. -1.
         -1    1    6    6    0  503 -0.21034330154E+02 -0.22190534708E+03  0.67839186033E+03  0.71407278500E+03  0.00000000000E+00 0.  1.
<mgrwt>
<rscale>  0 0.25645153E+04</rscale>
<asrwt>0</asrwt>
<pdfrwt beam="1">  1        2 0.52145795E+00 0.25645153E+04</pdfrwt>
<pdfrwt beam="2">  1       -1 0.74628481E-01 0.25645153E+04</pdfrwt>
<totfact> 0.17676061E+00</totfact>
</mgrwt>
</event>
<event>
12    6  0.1494052E-007  0.1378540E+04  0.7818608E-02  0.8969500E-01
          2   -1    0    0  501    0  0.00000000000E+00  0.00000000000E+00  0.13977179741E+04  0.13977179741E+04  0.00000000000E+00 0. -1.
         -1   -1    0    0    0  501 -0.00000000000E+00 -0.00000000000E+00 -0.33990640396E+03  0.33990640396E+03  0.00000000000E+00 0.  1.
         24    2    1    2    0    0  0.22768891692E+03  0.15069486438E+03 -0.46205955135E+02  0.28715388989E+03  0.75968290419E+02 0.  0.
        254    2    1    2    0    0 -0.22768891692E+03 -0.15069486438E+03  0.11040175252E+04  0.14504704881E+04  0.90025482828E+03 0.  0.
         23    2    4    4    0    0  0.25018376535E+03  0.11995178545E+03  0.11219053927E+03  0.31313832106E+03  0.92133293296E+02 0.  0.
         23    2    4    4    0    0 -0.47787268227E+03 -0.27064664983E+03  0.99182698596E+03  0.11373321671E+04  0.90508445036E+02 0.  0.
          2    1    3    3  502    0  0.75412910388E+02  0.34379450478E+02  0.18475500195E+02  0.84914061120E+02  0.00000000000E+00 0. -1.
         -1    1    3    3    0  502  0.15227600653E+03  0.11631541390E+03 -0.64681455331E+02  0.20223982877E+03  0.00000000000E+00 0.  1.
         11    1    5    5    0    0  0.23365129431E+03  0.82332322590E+02  0.78117246059E+02  0.25975727671E+03  0.00000000000E+00 0.  1.
        -11    1    5    5    0    0  0.16532471047E+02  0.37619462861E+02  0.34073293212E+02  0.53381044343E+02  0.00000000000E+00 0. -1.
          1    1    6    6  503    0 -0.11928616317E+03 -0.99753609810E+02  0.34237765483E+03  0.37603514453E+03  0.00000000000E+00 0. -1.
         -1    1    6    6    0  503 -0.35858651910E+03 -0.17089304002E+03  0.64944933113E+03  0.76129702253E+03  0.00000000000E+00 0.  1.
<mgrwt>
<rscale>  0 0.13785402E+04</rscale>
<asrwt>0</asrwt>
<pdfrwt beam="1">  1        2 0.21503353E+00 0.13785402E+04</pdfrwt>
<pdfrwt beam="2">  1       -1 0.52293294E-01 0.13785402E+04</pdfrwt>
<totfact> 0.59387601E+01</totfact>
</mgrwt>
</event>
<event>
12    6  0.1494052E-007  0.1950696E+04  0.7818608E-02  0.8630025E-01
         -3   -1    0    0    0  501 -0.00000000000E+00  0.00000000000E+00  0.29920385111E+03  0.29920385111E+03  0.00000000000E+00 0.  1.
          2   -1    0    0  501    0  0.00000000000E+00 -0.00000000000E+00 -0.31794499606E+04  0.31794499606E+04  0.00000000000E+00 0. -1.
         24    2    1    2    0    0 -0.15544063175E+02 -0.29003074743E+03  0.12872942252E+03  0.32718020796E+03  0.78205958249E+02 0.  0.
        254    2    1    2    0    0  0.15544063175E+02  0.29003074743E+03 -0.30089755320E+04  0.31514736037E+04  0.89078205555E+03 0.  0.
         23    2    4    4    0    0  0.33439892039E+03  0.38666236820E+03 -0.23549067252E+04  0.24117122463E+04  0.97158887346E+02 0.  0.
         23    2    4    4    0    0 -0.31885485722E+03 -0.96631620771E+02 -0.65406880677E+03  0.73976135745E+03  0.91841014167E+02 0.  0.
          2    1    3    3  502    0  0.22328972821E+02 -0.13487682781E+03  0.31813706149E+02  0.14036542881E+03  0.00000000000E+00 0. -1.
         -1    1    3    3    0  502 -0.37873035996E+02 -0.15515391962E+03  0.96915716367E+02  0.18681477915E+03  0.00000000000E+00 0.  1.
         11    1    5    5    0    0  0.80426577708E+02  0.82593773887E+02 -0.36585516666E+03  0.38358854109E+03  0.00000000000E+00 0. -1.
        -11    1    5    5    0    0  0.25397234268E+03  0.30406859432E+03 -0.19890515585E+04  0.20281237052E+04  0.00000000000E+00 0.  1.
          2    1    6    6  503    0 -0.16943818547E+03 -0.33087286188E+02 -0.24560780714E+03  0.30021202863E+03  0.00000000000E+00 0.  1.
         -2    1    6    6    0  503 -0.14941667175E+03 -0.63544334583E+02 -0.40846099963E+03  0.43954932883E+03  0.00000000000E+00 0. -1.
<mgrwt>
<rscale>  0 0.19506960E+04</rscale>
<asrwt>0</asrwt>
<pdfrwt beam="1">  1        2 0.48914616E+00 0.19506960E+04</pdfrwt>
<pdfrwt beam="2">  1       -3 0.46031361E-01 0.19506960E+04</pdfrwt>
<totfact> 0.37997657E+00</totfact>
</mgrwt>
</event>
<event>
12    6  0.1494052E-007  0.1589838E+04  0.7818608E-02  0.8826815E-01
          2   -1    0    0  501    0  0.00000000000E+00  0.00000000000E+00  0.11341573342E+04  0.11341573342E+04  0.00000000000E+00 0. -1.
         -1   -1    0    0    0  501 -0.00000000000E+00 -0.00000000000E+00 -0.55715060411E+03  0.55715060411E+03  0.00000000000E+00 0.  1.
         24    2    1    2    0    0  0.30330523927E+03  0.38927915885E+03  0.41926287228E+03  0.65254167921E+03  0.80603693136E+02 0.  0.
        254    2    1    2    0    0 -0.30330523927E+03 -0.38927915885E+03  0.15774385778E+03  0.10387662591E+04  0.90034431448E+03 0.  0.
         23    2    4    4    0    0  0.14472149339E+03 -0.36864231847E+03 -0.20461811397E+03  0.45501355137E+03  0.91253984834E+02 0.  0.
         23    2    4    4    0    0 -0.44802673266E+03 -0.20636840382E+02  0.36236197175E+03  0.58375270770E+03  0.91143802973E+02 0.  0.
          4    1    3    3  502    0  0.28983631879E+03  0.37189703534E+03  0.37258210159E+03  0.60094086149E+03  0.00000000000E+00 0. -1.
         -3    1    3    3    0  502  0.13468920475E+02  0.17382123512E+02  0.46680770695E+02  0.51600817719E+02  0.00000000000E+00 0.  1.
         11    1    5    5    0    0  0.20133870090E+02 -0.46385681828E+02  0.51331546825E+01  0.50826700468E+02  0.00000000000E+00 0.  1.
        -11    1    5    5    0    0  0.12458762330E+03 -0.32225663664E+03 -0.20975126865E+03  0.40418685090E+03  0.00000000000E+00 0. -1.
          3    1    6    6  503    0 -0.31997628132E+03 -0.51552130170E+02  0.28073689244E+03  0.42878391471E+03  0.00000000000E+00 0. -1.
         -3    1    6    6    0  503 -0.12805045133E+03  0.30915289788E+02  0.81625079310E+02  0.15496879299E+03  0.00000000000E+00 0.  1.
<mgrwt>
<rscale>  0 0.15898383E+04</rscale>
<asrwt>0</asrwt>
<pdfrwt beam="1">  1        2 0.17448574E+00 0.15898383E+04</pdfrwt>
<pdfrwt beam="2">  1       -1 0.85715478E-01 0.15898383E+04</pdfrwt>
<totfact> 0.30548663E+01</totfact>
</mgrwt>
</event>
<event>
12    6  0.1494052E-007  0.1996927E+04  0.7818608E-02  0.8608059E-01
          2   -1    0    0  501    0  0.00000000000E+00  0.00000000000E+00  0.11215170239E+04  0.11215170239E+04  0.00000000000E+00 0. -1.
         -1   -1    0    0    0  501 -0.00000000000E+00 -0.00000000000E+00 -0.88891165354E+03  0.88891165354E+03  0.00000000000E+00 0.  1.
         24    2    1    2    0    0 -0.64836281743E+03  0.15135365745E+03 -0.36264972132E+03  0.76213623638E+03  0.77810987538E+02 0.  0.
        254    2    1    2    0    0  0.64836281743E+03 -0.15135365745E+03  0.59525509166E+03  0.12482924410E+04  0.87213710020E+03 0.  0.
         23    2    4    4    0    0  0.31671944691E+03 -0.47791455516E+03  0.15627364123E+03  0.60155648541E+03  0.93462420835E+02 0.  0.
         23    2    4    4    0    0  0.33164337052E+03  0.32656089771E+03  0.43898145043E+03  0.64673595563E+03  0.94516333805E+02 0.  0.
          4    1    3    3  502    0 -0.25795582556E+03  0.51513586107E+02 -0.10154667727E+03  0.28196912093E+03  0.00000000000E+00 0. -1.
         -3    1    3    3    0  502 -0.39040699187E+03  0.99840071341E+02 -0.26110304405E+03  0.48016711545E+03  0.00000000000E+00 0.  1.
         11    1    5    5    0    0  0.21127153322E+03 -0.25874684206E+03  0.57055798553E+02  0.33888191627E+03  0.00000000000E+00 0.  1.
        -11    1    5    5    0    0  0.10544791369E+03 -0.21916771310E+03  0.99217842678E+02  0.26267456914E+03  0.00000000000E+00 0. -1.
          3    1    6    6  503    0  0.88046429764E+02  0.12788211516E+03  0.10128269478E+03  0.18537581674E+03  0.00000000000E+00 0. -1.
         -3    1    6    6    0  503  0.24359694075E+03  0.19867878255E+03  0.33769875566E+03  0.46136013889E+03  0.00000000000E+00 0.  1.
<mgrwt>
<rscale>  0 0.19969272E+04</rscale>
<asrwt>0</asrwt>
<pdfrwt beam="1">  1        2 0.17254108E+00 0.19969272E+04</pdfrwt>
<pdfrwt beam="2">  1       -1 0.13675564E+00 0.19969272E+04</pdfrwt>
<totfact> 0.99789783E+00</totfact>
</mgrwt>
</event>
<event>
12    6  0.1494052E-007  0.1115315E+04  0.7818608E-02  0.9190392E-01
          2   -1    0    0  501    0  0.00000000000E+00  0.00000000000E+00  0.21045477276E+04  0.21045477276E+04  0.00000000000E+00 0. -1.
         -1   -1    0    0    0  501 -0.00000000000E+00 -0.00000000000E+00 -0.14776661686E+03  0.14776661686E+03  0.00000000000E+00 0.  1.
         24    2    1    2    0    0  0.92329000392E+02  0.22661430933E+02  0.68402357833E+03  0.69448142993E+03  0.73334957823E+02 0.  0.
        254    2    1    2    0    0 -0.92329000392E+02 -0.22661430933E+02  0.12727575325E+04  0.15578329146E+04  0.89324882789E+03 0.  0.
         23    2    4    4    0    0 -0.67759892705E+02 -0.43573567342E+03  0.47692999507E+03  0.65611071680E+03  0.92531466796E+02 0.  0.
         23    2    4    4    0    0 -0.24569107687E+02  0.41307424249E+03  0.79582753738E+03  0.90172219777E+03  0.92344365477E+02 0.  0.
          4    1    3    3  502    0  0.57237459350E+02  0.43166725702E+02  0.54319140784E+03  0.54790181466E+03  0.00000000000E+00 0. -1.
         -3    1    3    3    0  502  0.35091541042E+02 -0.20505294769E+02  0.14083217049E+03  0.14657961527E+03  0.00000000000E+00 0.  1.
         11    1    5    5    0    0 -0.61950307057E+02 -0.12263976284E+03  0.14882506390E+03  0.20255184921E+03  0.00000000000E+00 0.  1.
        -11    1    5    5    0    0 -0.58095856476E+01 -0.31309591058E+03  0.32810493117E+03  0.45355886759E+03  0.00000000000E+00 0. -1.
          3    1    6    6  503    0 -0.57678583063E+02  0.23872197398E+03  0.43235273779E+03  0.49723625138E+03  0.00000000000E+00 0. -1.
         -3    1    6    6    0  503  0.33109475376E+02  0.17435226850E+03  0.36347479959E+03  0.40448594639E+03  0.00000000000E+00 0.  1.
<mgrwt>
<rscale>  0 0.11153150E+04</rscale>
<asrwt>0</asrwt>
<pdfrwt beam="1">  1        2 0.32377655E+00 0.11153150E+04</pdfrwt>
<pdfrwt beam="2">  1       -1 0.22733327E-01 0.11153150E+04</pdfrwt>
<totfact> 0.10909656E+02</totfact>
</mgrwt>
</event>
<event>
12    6  0.1494052E-007  0.2474851E+04  0.7818608E-02  0.8412000E-01
         -1   -1    0    0    0  501 -0.00000000000E+00  0.00000000000E+00  0.51658550336E+03  0.51658550336E+03  0.00000000000E+00 0.  1.
          2   -1    0    0  501    0  0.00000000000E+00 -0.00000000000E+00 -0.29641214157E+04  0.29641214157E+04  0.00000000000E+00 0. -1.
         24    2    1    2    0    0 -0.61351473360E+03  0.38125328641E+03 -0.21782866150E+04  0.22963052473E+04  0.79566418103E+02 0.  0.
        254    2    1    2    0    0  0.61351473360E+03 -0.38125328641E+03 -0.26924929736E+03  0.11844016718E+04  0.89919838705E+03 0.  0.
         23    2    4    4    0    0  0.68665649457E+03 -0.46551489231E+03 -0.45078142425E+03  0.94825495762E+03  0.88217434195E+02 0.  0.
         23    2    4    4    0    0 -0.73141760974E+02  0.84261605897E+02  0.18153212689E+03  0.23614671417E+03  0.10179205320E+03 0.  0.
          2    1    3    3  502    0 -0.43236408614E+03  0.25393378449E+03 -0.16155996875E+04  0.16916215357E+04  0.00000000000E+00 0. -1.
         -3    1    3    3    0  502 -0.18115064746E+03  0.12731950192E+03 -0.56268692744E+03  0.60468371150E+03  0.00000000000E+00 0.  1.
         11    1    5    5    0    0  0.41454581287E+02 -0.31644110081E+02 -0.59646994085E+01  0.52491996071E+02  0.00000000000E+00 0. -1.
        -11    1    5    5    0    0  0.64520191329E+03 -0.43387078223E+03 -0.44481672484E+03  0.89576296155E+03  0.00000000000E+00 0.  1.
          2    1    6    6  503    0 -0.53567570794E+02  0.48254662587E+02  0.18135746497E+03  0.19516282228E+03  0.00000000000E+00 0.  1.
         -2    1    6    6    0  503 -0.19574190180E+02  0.36006943310E+02  0.17466192466E+00  0.40983891891E+02  0.00000000000E+00 0. -1.
<mgrwt>
<rscale>  0 0.24748512E+04</rscale>
<asrwt>0</asrwt>
<pdfrwt beam="1">  1        2 0.45601867E+00 0.24748512E+04</pdfrwt>
<pdfrwt beam="2">  1       -1 0.79474694E-01 0.24748512E+04</pdfrwt>
<totfact> 0.29486239E+00</totfact>
</mgrwt>
</event>
<event>
12    6  0.1494052E-007  0.1103737E+04  0.7818608E-02  0.9201557E-01
          2   -1    0    0  501    0  0.00000000000E+00  0.00000000000E+00  0.19608988481E+04  0.19608988481E+04  0.00000000000E+00 0. -1.
         -1   -1    0    0    0  501 -0.00000000000E+00 -0.00000000000E+00 -0.15531591117E+03  0.15531591117E+03  0.00000000000E+00 0.  1.
         24    2    1    2    0    0  0.79135253421E+01 -0.56621275899E+02  0.61552351979E+03  0.62392645285E+03  0.84536515115E+02 0.  0.
        254    2    1    2    0    0 -0.79135253421E+01  0.56621275899E+02  0.11900594171E+04  0.14922883064E+04  0.89856239647E+03 0.  0.
         23    2    4    4    0    0  0.13387912917E+03  0.89975532741E+02 -0.87006255310E+02  0.20335557826E+03  0.88114613012E+02 0.  0.
         23    2    4    4    0    0 -0.14179265451E+03 -0.33354256842E+02  0.12770656724E+04  0.12889327281E+04  0.96089451145E+02 0.  0.
          2    1    3    3  502    0 -0.18279293831E+02 -0.47985700514E+02  0.55551939908E+03  0.55788758975E+03  0.00000000000E+00 0. -1.
         -3    1    3    3    0  502  0.26192819173E+02 -0.86355753851E+01  0.60004120703E+02  0.66038863102E+02  0.00000000000E+00 0.  1.
         11    1    5    5    0    0  0.41119471123E+02 -0.88817196579E+01  0.37854121286E+00  0.42069456177E+02  0.00000000000E+00 0. -1.
        -11    1    5    5    0    0  0.92759658047E+02  0.98857252399E+02 -0.87384796523E+02  0.16128612208E+03  0.00000000000E+00 0.  1.
          3    1    6    6  503    0 -0.69368447031E+02  0.32427163557E+02  0.58121350794E+03  0.58623599701E+03  0.00000000000E+00 0. -1.
         -3    1    6    6    0  503 -0.72424207482E+02 -0.65781420399E+02  0.69585216450E+03  0.70269673113E+03  0.00000000000E+00 0.  1.
<mgrwt>
<rscale>  0 0.11037369E+04</rscale>
<asrwt>0</asrwt>
<pdfrwt beam="1">  1        2 0.30167673E+00 0.11037369E+04</pdfrwt>
<pdfrwt beam="2">  1       -1 0.23894757E-01 0.11037369E+04</pdfrwt>
<totfact> 0.12043954E+02</totfact>
</mgrwt>
</event>
<event>
12    6  0.1494052E-007  0.1656059E+04  0.7818608E-02  0.8786830E-01
          2   -1    0    0  501    0  0.00000000000E+00  0.00000000000E+00  0.15869491897E+04  0.15869491897E+04  0.00000000000E+00 0. -1.
         -1   -1    0    0    0  501 -0.00000000000E+00 -0.00000000000E+00 -0.43204484306E+03  0.43204484306E+03  0.00000000000E+00 0.  1.
         24    2    1    2    0    0 -0.41973875277E+03 -0.21229144797E+03  0.82916464414E+03  0.95676327880E+03  0.81447437709E+02 0.  0.
        254    2    1    2    0    0  0.41973875277E+03  0.21229144797E+03  0.32573970250E+03  0.10622307540E+04  0.89497460378E+03 0.  0.
         23    2    4    4    0    0  0.66148065238E+03  0.27696528164E+03  0.13558124693E+03  0.73554718446E+03  0.91547612449E+02 0.  0.
         23    2    4    4    0    0 -0.24174189961E+03 -0.64673833668E+02  0.19015845557E+03  0.32668356949E+03  0.89107045542E+02 0.  0.
          2    1    3    3  502    0 -0.24959747510E+03 -0.14816970152E+03  0.57683454028E+03  0.64574859419E+03  0.00000000000E+00 0. -1.
         -1    1    3    3    0  502 -0.17014127767E+03 -0.64121746448E+02  0.25233010385E+03  0.31101468461E+03  0.00000000000E+00 0.  1.
         11    1    5    5    0    0  0.45192478791E+03  0.16494674751E+03  0.53033086516E+02  0.48399995011E+03  0.00000000000E+00 0. -1.
        -11    1    5    5    0    0  0.20955586447E+03  0.11201853413E+03  0.82548160416E+02  0.25154723435E+03  0.00000000000E+00 0.  1.
          1    1    6    6  503    0 -0.73061667439E+02 -0.54925246923E+02  0.98830224105E+02  0.13461873271E+03  0.00000000000E+00 0. -1.
         -1    1    6    6    0  503 -0.16868023217E+03 -0.97485867451E+01  0.91328231463E+02  0.19206483679E+03  0.00000000000E+00 0.  1.
<mgrwt>
<rscale>  0 0.16560594E+04</rscale>
<asrwt>0</asrwt>
<pdfrwt beam="1">  1        2 0.24414603E+00 0.16560594E+04</pdfrwt>
<pdfrwt beam="2">  1       -1 0.66468438E-01 0.16560594E+04</pdfrwt>
<totfact> 0.28295815E+01</totfact>
</mgrwt>
</event>
<event>
12    6  0.1494052E-007  0.1833628E+04  0.7818608E-02  0.8688618E-01
         -1   -1    0    0    0  501 -0.00000000000E+00  0.00000000000E+00  0.96745555287E+03  0.96745555287E+03  0.00000000000E+00 0.  1.
          2   -1    0    0  501    0  0.00000000000E+00 -0.00000000000E+00 -0.86882371161E+03  0.86882371161E+03  0.00000000000E+00 0. -1.
         24    2    1    2    0    0 -0.53973239741E+03 -0.25300790703E+03  0.38163516209E+03  0.71210845528E+03  0.78287887358E+02 0.  0.
        254    2    1    2    0    0  0.53973239741E+03  0.25300790703E+03 -0.28300332083E+03  0.11241708092E+04  0.91013464214E+03 0.  0.
         23    2    4    4    0    0  0.19067363015E+03 -0.33569008214E+03 -0.13102800485E+03  0.41734836396E+03  0.89258357401E+02 0.  0.
         23    2    4    4    0    0  0.34905876725E+03  0.58869798916E+03 -0.15197531598E+03  0.70682244524E+03  0.89967366199E+02 0.  0.
          2    1    3    3  502    0 -0.90474933327E+02 -0.36513429859E+02  0.98491244855E+02  0.13863430107E+03  0.00000000000E+00 0. -1.
         -1    1    3    3    0  502 -0.44925746408E+03 -0.21649447717E+03  0.28314391723E+03  0.57347415421E+03  0.00000000000E+00 0.  1.
         11    1    5    5    0    0  0.54628775942E+02 -0.49000048024E+02 -0.53120926880E+02  0.90593270941E+02  0.00000000000E+00 0. -1.
        -11    1    5    5    0    0  0.13604485421E+03 -0.28669003412E+03 -0.77907077968E+02  0.32675509302E+03  0.00000000000E+00 0.  1.
          3    1    6    6  503    0  0.77886112058E+02  0.20490901744E+03 -0.29397413285E+02  0.22117450076E+03  0.00000000000E+00 0. -1.
         -3    1    6    6    0  503  0.27117265520E+03  0.38378897173E+03 -0.12257790270E+03  0.48564794448E+03  0.00000000000E+00 0.  1.
<mgrwt>
<rscale>  0 0.18336285E+04</rscale>
<asrwt>0</asrwt>
<pdfrwt beam="1">  1        2 0.13366519E+00 0.18336285E+04</pdfrwt>
<pdfrwt beam="2">  1       -1 0.14883932E+00 0.18336285E+04</pdfrwt>
<totfact> 0.11790935E+01</totfact>
</mgrwt>
</event>
<event>
12    6  0.1494052E-007  0.1238266E+04  0.7818608E-02  0.9080006E-01
          2   -1    0    0  501    0  0.00000000000E+00  0.00000000000E+00  0.39492962363E+03  0.39492962363E+03  0.00000000000E+00 0. -1.
         -1   -1    0    0    0  501 -0.00000000000E+00 -0.00000000000E+00 -0.97061782078E+03  0.97061782078E+03  0.00000000000E+00 0.  1.
         24    2    1    2    0    0 -0.50545280705E+02  0.95017431625E+02  0.19301462875E+03  0.22802917222E+03  0.56209596650E+02 0.  0.
        254    2    1    2    0    0  0.50545280705E+02 -0.95017431625E+02 -0.76870282590E+03  0.11375182722E+04  0.83154112784E+03 0.  0.
         23    2    4    4    0    0 -0.17959377235E+03 -0.30940761059E+03 -0.71790340780E+03  0.80665636929E+03  0.85569869859E+02 0.  0.
         23    2    4    4    0    0  0.23013905305E+03  0.21439017897E+03 -0.50799418098E+02  0.33086190289E+03  0.89229397229E+02 0.  0.
          4    1    3    3  502    0 -0.16530185012E+02  0.63597088031E+02  0.15416371743E+03  0.16758367580E+03  0.00000000000E+00 0. -1.
         -3    1    3    3    0  502 -0.34015095693E+02  0.31420343594E+02  0.38850911321E+02  0.60445496417E+02  0.00000000000E+00 0.  1.
         11    1    5    5    0    0 -0.33847193979E+02 -0.46473569439E+02 -0.58834508844E+02  0.82261319145E+02  0.00000000000E+00 0.  1.
        -11    1    5    5    0    0 -0.14574657837E+03 -0.26293404115E+03 -0.65906889896E+03  0.72439505015E+03  0.00000000000E+00 0. -1.
          1    1    6    6  503    0  0.16539607261E+03  0.14789383511E+03  0.61746488675E+01  0.22196074785E+03  0.00000000000E+00 0. -1.
         -1    1    6    6    0  503  0.64742980444E+02  0.66496343857E+02 -0.56974066965E+02  0.10890115504E+03  0.00000000000E+00 0.  1.
<mgrwt>
<rscale>  0 0.12382661E+04</rscale>
<asrwt>0</asrwt>
<pdfrwt beam="1">  1        2 0.60758405E-01 0.12382661E+04</pdfrwt>
<pdfrwt beam="2">  1       -1 0.14932582E+00 0.12382661E+04</pdfrwt>
<totfact> 0.32099117E+01</totfact>
</mgrwt>
</event>
<event>
12    6  0.1494052E-007  0.2377887E+04  0.7818608E-02  0.8447829E-01
         -1   -1    0    0    0  501 -0.00000000000E+00  0.00000000000E+00  0.69578243683E+03  0.69578243683E+03  0.00000000000E+00 0.  1.
          2   -1    0    0  501    0  0.00000000000E+00 -0.00000000000E+00 -0.20316500589E+04  0.20316500589E+04  0.00000000000E+00 0. -1.
         24    2    1    2    0    0 -0.86198594196E+03 -0.21153711311E+03 -0.11404698839E+04  0.14474216056E+04  0.81179023729E+02 0.  0.
        254    2    1    2    0    0  0.86198594196E+03  0.21153711311E+03 -0.19539773811E+03  0.12800108901E+04  0.90137666285E+03 0.  0.
         23    2    4    4    0    0  0.32721078424E+03 -0.34706446280E+03 -0.89947485648E+02  0.49414382274E+03  0.92557704767E+02 0.  0.
         23    2    4    4    0    0  0.53477515771E+03  0.55860157591E+03 -0.10545025246E+03  0.78586706735E+03  0.91908116513E+02 0.  0.
          4    1    3    3  502    0 -0.40255615133E+03 -0.10862872302E+03 -0.59985213513E+03  0.73053010784E+03  0.00000000000E+00 0. -1.
         -3    1    3    3    0  502 -0.45942979063E+03 -0.10290839009E+03 -0.54061774881E+03  0.71689149779E+03  0.00000000000E+00 0.  1.
         11    1    5    5    0    0  0.25064303506E+03 -0.31347719718E+03 -0.62845502860E+02  0.40625046635E+03  0.00000000000E+00 0. -1.
        -11    1    5    5    0    0  0.76567749183E+02 -0.33587265619E+02 -0.27101982788E+02  0.87893356392E+02  0.00000000000E+00 0.  1.
          3    1    6    6  503    0  0.22121289679E+03  0.17456241201E+03 -0.59028215039E+02  0.28790885982E+03  0.00000000000E+00 0. -1.
         -3    1    6    6    0  503  0.31356226092E+03  0.38403916390E+03 -0.46422037419E+02  0.49795820753E+03  0.00000000000E+00 0.  1.
<mgrwt>
<rscale>  0 0.23778868E+04</rscale>
<asrwt>0</asrwt>
<pdfrwt beam="1">  1        2 0.31256154E+00 0.23778868E+04</pdfrwt>
<pdfrwt beam="2">  1       -1 0.10704345E+00 0.23778868E+04</pdfrwt>
<totfact> 0.53518971E+00</totfact>
</mgrwt>
</event>
<event>
12    6  0.1494052E-007  0.1520206E+04  0.7818608E-02  0.8871126E-01
          2   -1    0    0  501    0  0.00000000000E+00  0.00000000000E+00  0.11362465881E+04  0.11362465881E+04  0.00000000000E+00 0. -1.
         -1   -1    0    0    0  501 -0.00000000000E+00 -0.00000000000E+00 -0.50847797600E+03  0.50847797600E+03  0.00000000000E+00 0.  1.
         24    2    1    2    0    0 -0.16531336057E+03  0.45784363597E+03  0.13796457066E+03  0.51306590583E+03  0.85165126590E+02 0.  0.
        254    2    1    2    0    0  0.16531336057E+03 -0.45784363597E+03  0.48980404147E+03  0.11316586583E+04  0.89654560268E+03 0.  0.
         23    2    4    4    0    0 -0.72910864569E+02  0.84378671343E+02 -0.18351672571E+03  0.23032948738E+03  0.83291835072E+02 0.  0.
         23    2    4    4    0    0  0.23822422514E+03 -0.54222230731E+03  0.67332076718E+03  0.90132917092E+03  0.90981354354E+02 0.  0.
          4    1    3    3  502    0 -0.86401128366E+02  0.23331834066E+03  0.11461937821E+03  0.27393467275E+03  0.00000000000E+00 0. -1.
         -3    1    3    3    0  502 -0.78912232208E+02  0.22452529531E+03  0.23345192450E+02  0.23913123309E+03  0.00000000000E+00 0.  1.
         11    1    5    5    0    0 -0.87678697772E+02  0.55597697413E+02 -0.15832417509E+03  0.18932829270E+03  0.00000000000E+00 0.  1.
        -11    1    5    5    0    0  0.14767833202E+02  0.28780973930E+02 -0.25192550628E+02  0.41001194678E+02  0.00000000000E+00 0. -1.
          2    1    6    6  503    0  0.57015886041E+02 -0.20663744078E+03  0.19697360157E+03  0.29111585823E+03  0.00000000000E+00 0. -1.
         -2    1    6    6    0  503  0.18120833910E+03 -0.33558486653E+03  0.47634716561E+03  0.61021331269E+03  0.00000000000E+00 0.  1.
<mgrwt>
<rscale>  0 0.15202057E+04</rscale>
<asrwt>0</asrwt>
<pdfrwt beam="1">  1        2 0.17480717E+00 0.15202057E+04</pdfrwt>
<pdfrwt beam="2">  1       -1 0.78227381E-01 0.15202057E+04</pdfrwt>
<totfact> 0.37261107E+01</totfact>
</mgrwt>
</event>
<event>
12    6  0.1494052E-007  0.2374592E+04  0.7818608E-02  0.8449078E-01
         -1   -1    0    0    0  501 -0.00000000000E+00  0.00000000000E+00  0.10051025911E+04  0.10051025911E+04  0.00000000000E+00 0.  1.
          2   -1    0    0  501    0  0.00000000000E+00 -0.00000000000E+00 -0.14025156297E+04  0.14025156297E+04  0.00000000000E+00 0. -1.
         24    2    1    2    0    0  0.78083091481E+03 -0.65220192428E+03 -0.23746511120E+03  0.10477052393E+04  0.78945056555E+02 0.  0.
        254    2    1    2    0    0 -0.78083091481E+03  0.65220192428E+03 -0.15994792744E+03  0.13599129815E+04  0.88809667843E+03 0.  0.
         23    2    4    4    0    0  0.13599483418E+03 -0.33884658492E+02  0.78647892486E+02  0.18680383867E+03  0.95222991675E+02 0.  0.
         23    2    4    4    0    0 -0.91682574899E+03  0.68608658278E+03 -0.23859581992E+03  0.11731091428E+04  0.89290775987E+02 0.  0.
          2    1    3    3  502    0  0.38283635792E+03 -0.35670148547E+03 -0.15011847985E+03  0.54436677404E+03  0.00000000000E+00 0. -1.
         -1    1    3    3    0  502  0.39799455689E+03 -0.29550043881E+03 -0.87346631354E+02  0.50333846531E+03  0.00000000000E+00 0.  1.
         11    1    5    5    0    0  0.55363798643E+02  0.33186958265E+02  0.28909488487E+02  0.70726818984E+02  0.00000000000E+00 0.  1.
        -11    1    5    5    0    0  0.80631035538E+02 -0.67071616756E+02  0.49738403999E+02  0.11607701968E+03  0.00000000000E+00 0. -1.
          1    1    6    6  503    0 -0.67366069003E+03  0.49966166392E+03 -0.13418219159E+03  0.84940294573E+03  0.00000000000E+00 0. -1.
         -1    1    6    6    0  503 -0.24316505896E+03  0.18642491885E+03 -0.10441362833E+03  0.32370619711E+03  0.00000000000E+00 0.  1.
<mgrwt>
<rscale>  0 0.23745923E+04</rscale>
<asrwt>0</asrwt>
<pdfrwt beam="1">  1        2 0.21577163E+00 0.23745923E+04</pdfrwt>
<pdfrwt beam="2">  1       -1 0.15463117E+00 0.23745923E+04</pdfrwt>
<totfact> 0.47565351E+00</totfact>
</mgrwt>
</event>
<event>
12    6  0.1494052E-007  0.1875452E+04  0.7818608E-02  0.8667173E-01
         -1   -1    0    0    0  501 -0.00000000000E+00  0.00000000000E+00  0.51205348527E+03  0.51205348527E+03  0.00000000000E+00 0.  1.
          2   -1    0    0  501    0  0.00000000000E+00 -0.00000000000E+00 -0.17172629681E+04  0.17172629681E+04  0.00000000000E+00 0. -1.
         24    2    1    2    0    0 -0.45062851716E+03 -0.51693269152E+01  0.20070845399E+03  0.50066343331E+03  0.85365142363E+02 0.  0.
        254    2    1    2    0    0  0.45062851716E+03  0.51693269152E+01 -0.14059179368E+04  0.17286530200E+04  0.89919032260E+03 0.  0.
         23    2    4    4    0    0  0.53086526035E+03 -0.64008479639E+02 -0.14762117879E+04  0.15727830477E+04  0.92359418326E+02 0.  0.
         23    2    4    4    0    0 -0.80236743188E+02  0.69177806554E+02  0.70293851135E+02  0.15586997235E+03  0.90170499035E+02 0.  0.
          4    1    3    3  502    0 -0.24528546942E+03 -0.43620630626E+02  0.96119232533E+02  0.26703300880E+03  0.00000000000E+00 0. -1.
         -3    1    3    3    0  502 -0.20534304774E+03  0.38451303711E+02  0.10458922146E+03  0.23363042451E+03  0.00000000000E+00 0.  1.
         11    1    5    5    0    0  0.31717507500E+03 -0.70161633318E+02 -0.98143372840E+03  0.10337963272E+04  0.00000000000E+00 0. -1.
        -11    1    5    5    0    0  0.21369018536E+03  0.61531536791E+01 -0.49477805951E+03  0.53898672042E+03  0.00000000000E+00 0.  1.
          3    1    6    6  503    0 -0.14827228608E+02  0.66988166944E+02  0.56747138894E+02  0.89036503701E+02  0.00000000000E+00 0. -1.
         -3    1    6    6    0  503 -0.65409514580E+02  0.21896396103E+01  0.13546712241E+02  0.66833468649E+02  0.00000000000E+00 0.  1.
<mgrwt>
<rscale>  0 0.18754525E+04</rscale>
<asrwt>0</asrwt>
<pdfrwt beam="1">  1        2 0.26419430E+00 0.18754525E+04</pdfrwt>
<pdfrwt beam="2">  1       -1 0.78777459E-01 0.18754525E+04</pdfrwt>
<totfact> 0.16525514E+01</totfact>
</mgrwt>
</event>
<event>
12    6  0.1494052E-007  0.1913472E+04  0.7818608E-02  0.8648180E-01
         -1   -1    0    0    0  501 -0.00000000000E+00  0.00000000000E+00  0.15837371785E+04  0.15837371785E+04  0.00000000000E+00 0.  1.
          2   -1    0    0  501    0  0.00000000000E+00 -0.00000000000E+00 -0.57796430028E+03  0.57796430028E+03  0.00000000000E+00 0. -1.
         24    2    1    2    0    0 -0.23440119541E+03 -0.15159109723E+03  0.11664654701E+04  0.12027071658E+04  0.89101361451E+02 0.  0.
        254    2    1    2    0    0  0.23440119541E+03  0.15159109723E+03 -0.16069259190E+03  0.95899431294E+03  0.90328522737E+03 0.  0.
         23    2    4    4    0    0 -0.26595033607E+03  0.27492547465E+01  0.17634068094E+03  0.33171876104E+03  0.90576823856E+02 0.  0.
         23    2    4    4    0    0  0.50035153148E+03  0.14884184248E+03 -0.33703327284E+03  0.62727555189E+03  0.85893200406E+02 0.  0.
          2    1    3    3  502    0 -0.10751853369E+02 -0.18622811537E+02  0.30462220851E+02  0.37287509431E+02  0.00000000000E+00 0. -1.
         -1    1    3    3    0  502 -0.22364934204E+03 -0.13296828569E+03  0.11360032492E+04  0.11654196564E+04  0.00000000000E+00 0.  1.
         11    1    5    5    0    0 -0.24746227987E+03 -0.60931817229E+01  0.18544179756E+03  0.30929495164E+03  0.00000000000E+00 0.  1.
        -11    1    5    5    0    0 -0.18488056193E+02  0.88424364694E+01 -0.91011166271E+01  0.22423809408E+02  0.00000000000E+00 0. -1.
          3    1    6    6  503    0  0.40833099435E+03  0.88110794557E+02 -0.25014226279E+03  0.48689718083E+03  0.00000000000E+00 0. -1.
         -3    1    6    6    0  503  0.92020537128E+02  0.60731047927E+02 -0.86891010051E+02  0.14037837107E+03  0.00000000000E+00 0.  1.
<mgrwt>
<rscale>  0 0.19134718E+04</rscale>
<asrwt>0</asrwt>
<pdfrwt beam="1">  1        2 0.88917585E-01 0.19134718E+04</pdfrwt>
<pdfrwt beam="2">  1       -1 0.24365187E+00 0.19134718E+04</pdfrwt>
<totfact> 0.42535885E+00</totfact>
</mgrwt>
</event>
<event>
12    6  0.1494052E-007  0.1666930E+04  0.7818608E-02  0.8780453E-01
          2   -1    0    0  501    0  0.00000000000E+00  0.00000000000E+00  0.11818902923E+04  0.11818902923E+04  0.00000000000E+00 0. -1.
         -1   -1    0    0    0  501 -0.00000000000E+00 -0.00000000000E+00 -0.58775670510E+03  0.58775670510E+03  0.00000000000E+00 0.  1.
         24    2    1    2    0    0 -0.28212909599E+03 -0.79559386249E+02  0.75376256992E+03  0.81267100365E+03  0.79684538074E+02 0.  0.
        254    2    1    2    0    0  0.28212909599E+03  0.79559386249E+02 -0.15962898272E+03  0.95697599375E+03  0.89688077120E+03 0.  0.
         23    2    4    4    0    0 -0.29217833140E+03 -0.55897276485E+02 -0.17979762114E+03  0.35956233873E+03  0.92006565007E+02 0.  0.
         23    2    4    4    0    0  0.57430742739E+03  0.13545666273E+03  0.20168638425E+02  0.59741365502E+03  0.91207305599E+02 0.  0.
          2    1    3    3  502    0 -0.22591950604E+03 -0.53830498241E+02  0.66592204249E+03  0.70525847207E+03  0.00000000000E+00 0. -1.
         -1    1    3    3    0  502 -0.56209589948E+02 -0.25728888008E+02  0.87840527429E+02  0.10741253157E+03  0.00000000000E+00 0.  1.
         11    1    5    5    0    0 -0.59058608581E+01  0.94936631947E+01  0.53764659203E+01  0.12406257257E+02  0.00000000000E+00 0. -1.
        -11    1    5    5    0    0 -0.28627247054E+03 -0.65390939679E+02 -0.18517408706E+03  0.34715608147E+03  0.00000000000E+00 0.  1.
          1    1    6    6  503    0  0.16247958321E+02  0.22218693420E+02  0.33948203141E+01  0.27734298114E+02  0.00000000000E+00 0. -1.
         -1    1    6    6    0  503  0.55805946907E+03  0.11323796931E+03  0.16773818111E+02  0.56967935691E+03  0.00000000000E+00 0.  1.
<mgrwt>
<rscale>  0 0.16669300E+04</rscale>
<asrwt>0</asrwt>
<pdfrwt beam="1">  1        2 0.18182928E+00 0.16669300E+04</pdfrwt>
<pdfrwt beam="2">  1       -1 0.90424109E-01 0.16669300E+04</pdfrwt>
<totfact> 0.25260100E+01</totfact>
</mgrwt>
</event>
<event>
12    6  0.1494052E-007  0.2273294E+04  0.7818608E-02  0.8488526E-01
         -1   -1    0    0    0  501 -0.00000000000E+00  0.00000000000E+00  0.13444005782E+04  0.13444005782E+04  0.00000000000E+00 0.  1.
          2   -1    0    0  501    0  0.00000000000E+00 -0.00000000000E+00 -0.96099776265E+03  0.96099776265E+03  0.00000000000E+00 0. -1.
         24    2    1    2    0    0  0.36439715157E+03  0.72531750344E+03 -0.26694886293E+03  0.85827657078E+03  0.80661091335E+02 0.  0.
        254    2    1    2    0    0 -0.36439715157E+03 -0.72531750344E+03  0.65035167846E+03  0.14471217701E+04  0.10061477758E+04 0.  0.
         23    2    4    4    0    0  0.16254328746E+03  0.13105188454E+03  0.30445423491E+03  0.37987520359E+03  0.89542573184E+02 0.  0.
         23    2    4    4    0    0 -0.52694043903E+03 -0.85636938799E+03  0.34589744356E+03  0.10672465665E+04  0.91298615563E+02 0.  0.
          4    1    3    3  502    0  0.33169486364E+03  0.62181089795E+03 -0.25323166661E+03  0.74886350716E+03  0.00000000000E+00 0. -1.
         -3    1    3    3    0  502  0.32702287924E+02  0.10350660549E+03 -0.13717196322E+02  0.10941306362E+03  0.00000000000E+00 0.  1.
         11    1    5    5    0    0  0.14258921987E+03  0.14395336778E+03  0.28149422830E+03  0.34683318510E+03  0.00000000000E+00 0. -1.
        -11    1    5    5    0    0  0.19954067591E+02 -0.12901483234E+02  0.22960006604E+02  0.33042018496E+02  0.00000000000E+00 0.  1.
          4    1    6    6  503    0 -0.43233039589E+03 -0.67114351682E+03  0.30877361963E+03  0.85596982398E+03  0.00000000000E+00 0. -1.
         -4    1    6    6    0  503 -0.94610043135E+02 -0.18522587117E+03  0.37123823923E+02  0.21127674248E+03  0.00000000000E+00 0.  1.
<mgrwt>
<rscale>  0 0.22732936E+04</rscale>
<asrwt>0</asrwt>
<pdfrwt beam="1">  1        2 0.14784581E+00 0.22732936E+04</pdfrwt>
<pdfrwt beam="2">  1       -1 0.20683086E+00 0.22732936E+04</pdfrwt>
<totfact> 0.37379575E+00</totfact>
</mgrwt>
</event>
<event>
12    6  0.1494052E-007  0.1880265E+04  0.7818608E-02  0.8664743E-01
          2   -1    0    0  501    0  0.00000000000E+00  0.00000000000E+00  0.76201497369E+03  0.76201497369E+03  0.00000000000E+00 0. -1.
         -1   -1    0    0    0  501 -0.00000000000E+00 -0.00000000000E+00 -0.11598840902E+04  0.11598840902E+04  0.00000000000E+00 0.  1.
         24    2    1    2    0    0 -0.99280626206E+02 -0.22631182327E+03  0.53603695877E+03  0.59593875723E+03  0.82059107447E+02 0.  0.
        254    2    1    2    0    0  0.99280626206E+02  0.22631182327E+03 -0.93390607526E+03  0.13259603066E+04  0.90824913612E+03 0.  0.
         23    2    4    4    0    0 -0.14833092948E+03  0.33811461711E+03 -0.33688382978E+02  0.38139723618E+03  0.89472820846E+02 0.  0.
         23    2    4    4    0    0  0.24761155568E+03 -0.11180279385E+03 -0.90021769228E+03  0.94456307046E+03  0.89421213116E+02 0.  0.
          4    1    3    3  502    0 -0.65915565156E+02 -0.62502426404E+02  0.22866545241E+03  0.24604736162E+03  0.00000000000E+00 0. -1.
         -3    1    3    3    0  502 -0.33365061051E+02 -0.16380939686E+03  0.30737150636E+03  0.34989139561E+03  0.00000000000E+00 0.  1.
         11    1    5    5    0    0 -0.63561574980E+02  0.17647742398E+03  0.25999893263E+02  0.18936829048E+03  0.00000000000E+00 0. -1.
        -11    1    5    5    0    0 -0.84769354495E+02  0.16163719313E+03 -0.59688276240E+02  0.19202894570E+03  0.00000000000E+00 0.  1.
          3    1    6    6  503    0  0.19333381547E+03 -0.54907818092E+02 -0.72818669968E+03  0.75541293494E+03  0.00000000000E+00 0. -1.
         -3    1    6    6    0  503  0.54277740210E+02 -0.56894975755E+02 -0.17203099260E+03  0.18915013551E+03  0.00000000000E+00 0.  1.
<mgrwt>
<rscale>  0 0.18802649E+04</rscale>
<asrwt>0</asrwt>
<pdfrwt beam="1">  1        2 0.11723307E+00 0.18802649E+04</pdfrwt>
<pdfrwt beam="2">  1       -1 0.17844371E+00 0.18802649E+04</pdfrwt>
<totfact> 0.83988198E+00</totfact>
</mgrwt>
</event>
<event>
12    6  0.1494052E-007  0.2605172E+04  0.7818608E-02  0.8366447E-01
         -1   -1    0    0    0  501 -0.00000000000E+00  0.00000000000E+00  0.10961408856E+04  0.10961408856E+04  0.00000000000E+00 0.  1.
          2   -1    0    0  501    0  0.00000000000E+00 -0.00000000000E+00 -0.15479121268E+04  0.15479121268E+04  0.00000000000E+00 0. -1.
         24    2    1    2    0    0  0.86567301768E+03  0.23941142710E+03 -0.92361438658E+03  0.12906931540E+04  0.78215585028E+02 0.  0.
        254    2    1    2    0    0 -0.86567301768E+03 -0.23941142710E+03  0.47184314532E+03  0.13533598584E+04  0.89567814950E+03 0.  0.
         23    2    4    4    0    0 -0.14519577517E+03 -0.47519194782E+03  0.19528021913E+03  0.54154725772E+03  0.90828783757E+02 0.  0.
         23    2    4    4    0    0 -0.72047724251E+03  0.23578052072E+03  0.27656292619E+03  0.81181260065E+03  0.88728436794E+02 0.  0.
          2    1    3    3  502    0  0.85013621172E+03  0.22300804964E+03 -0.90300436416E+03  0.12601115230E+04  0.00000000000E+00 0. -1.
         -1    1    3    3    0  502  0.15536805960E+02  0.16403377462E+02 -0.20610022427E+02  0.30581631024E+02  0.00000000000E+00 0.  1.
         11    1    5    5    0    0 -0.69757341346E+02 -0.16390074715E+03  0.28394096078E+02  0.18037673431E+03  0.00000000000E+00 0.  1.
        -11    1    5    5    0    0 -0.75438433823E+02 -0.31129120067E+03  0.16688612305E+03  0.36117052341E+03  0.00000000000E+00 0. -1.
          4    1    6    6  503    0 -0.22736940377E+03  0.10907130078E+03  0.64565876444E+02  0.26031163406E+03  0.00000000000E+00 0. -1.
         -4    1    6    6    0  503 -0.49310783874E+03  0.12670921994E+03  0.21199704975E+03  0.55150096659E+03  0.00000000000E+00 0.  1.
<mgrwt>
<rscale>  0 0.26051716E+04</rscale>
<asrwt>0</asrwt>
<pdfrwt beam="1">  1        2 0.23814033E+00 0.26051716E+04</pdfrwt>
<pdfrwt beam="2">  1       -1 0.16863706E+00 0.26051716E+04</pdfrwt>
<totfact> 0.30247160E+00</totfact>
</mgrwt>
</event>
<event>
12    6  0.1494052E-007  0.1837889E+04  0.7818608E-02  0.8686406E-01
         -1   -1    0    0    0  501 -0.00000000000E+00  0.00000000000E+00  0.76782473903E+03  0.76782473903E+03  0.00000000000E+00 0.  1.
          2   -1    0    0  501    0  0.00000000000E+00 -0.00000000000E+00 -0.10998065218E+04  0.10998065218E+04  0.00000000000E+00 0. -1.
         24    2    1    2    0    0  0.31794816435E+03 -0.44170898554E+03 -0.57628814712E+03  0.79670401415E+03  0.80195975752E+02 0.  0.
        254    2    1    2    0    0 -0.31794816435E+03  0.44170898554E+03  0.24430636432E+03  0.10709272467E+04  0.88938276630E+03 0.  0.
         23    2    4    4    0    0 -0.60629448066E+03  0.25253695793E+03  0.25749421203E+03  0.71137965319E+03  0.91596011646E+02 0.  0.
         23    2    4    4    0    0  0.28834631631E+03  0.18917202762E+03 -0.13187847710E+02  0.35954759352E+03  0.10085087266E+03 0.  0.
          4    1    3    3  502    0  0.76917120344E+02 -0.15633157018E+03 -0.14995973524E+03  0.22987763143E+03  0.00000000000E+00 0. -1.
         -1    1    3    3    0  502  0.24103104401E+03 -0.28537741536E+03 -0.42632841187E+03  0.56682638272E+03  0.00000000000E+00 0.  1.
         11    1    5    5    0    0 -0.22236915288E+03  0.89300677087E+02  0.47382877218E+02  0.24426990837E+03  0.00000000000E+00 0. -1.
        -11    1    5    5    0    0 -0.38392532778E+03  0.16323628084E+03  0.21011133481E+03  0.46710974483E+03  0.00000000000E+00 0.  1.
          2    1    6    6  503    0  0.10760924957E+03  0.87560335649E+02 -0.52828386552E+02  0.14844999629E+03  0.00000000000E+00 0.  1.
         -2    1    6    6    0  503  0.18073706674E+03  0.10161169197E+03  0.39640538842E+02  0.21109759723E+03  0.00000000000E+00 0. -1.
<mgrwt>
<rscale>  0 0.18378886E+04</rscale>
<asrwt>0</asrwt>
<pdfrwt beam="1">  1        2 0.16920100E+00 0.18378886E+04</pdfrwt>
<pdfrwt beam="2">  1       -1 0.11812688E+00 0.18378886E+04</pdfrwt>
<totfact> 0.15052338E+01</totfact>
</mgrwt>
</event>
<event>
12    6  0.1494052E-007  0.1794946E+04  0.7818608E-02  0.8708992E-01
          2   -1    0    0  501    0  0.00000000000E+00  0.00000000000E+00  0.21276791066E+04  0.21276791066E+04  0.00000000000E+00 0. -1.
         -1   -1    0    0    0  501 -0.00000000000E+00 -0.00000000000E+00 -0.37856148914E+03  0.37856148914E+03  0.00000000000E+00 0.  1.
         24    2    1    2    0    0 -0.35933710959E+03 -0.38782910113E+03  0.21196003647E+02  0.53512377190E+03  0.79834896295E+02 0.  0.
        254    2    1    2    0    0  0.35933710959E+03  0.38782910113E+03  0.17279216138E+04  0.19711168239E+04  0.78743498764E+03 0.  0.
         23    2    4    4    0    0 -0.19278166691E+03  0.26984840523E+03  0.41528786737E+03  0.53918235423E+03  0.90943198894E+02 0.  0.
         23    2    4    4    0    0  0.55211877651E+03  0.11798069590E+03  0.13126337465E+04  0.14319344696E+04  0.93136378504E+02 0.  0.
          2    1    3    3  502    0 -0.60940542117E+02 -0.40110300570E+02 -0.18320368150E+02  0.75221152441E+02  0.00000000000E+00 0. -1.
         -1    1    3    3    0  502 -0.29839656748E+03 -0.34771880056E+03  0.39516371797E+02  0.45990261946E+03  0.00000000000E+00 0.  1.
         11    1    5    5    0    0 -0.20025046442E+03  0.23738072706E+03  0.37539226931E+03  0.48720551510E+03  0.00000000000E+00 0.  1.
        -11    1    5    5    0    0  0.74687975089E+01  0.32467678167E+02  0.39895598056E+02  0.51976839131E+02  0.00000000000E+00 0. -1.
          4    1    6    6  503    0  0.75203822462E+02  0.42741147516E+02  0.25598419586E+03  0.27020423597E+03  0.00000000000E+00 0. -1.
         -4    1    6    6    0  503  0.47691495405E+03  0.75239548387E+02  0.10566495506E+04  0.11617302337E+04  0.00000000000E+00 0.  1.
<mgrwt>
<rscale>  0 0.17949455E+04</rscale>
<asrwt>0</asrwt>
<pdfrwt beam="1">  1        2 0.32733524E+00 0.17949455E+04</pdfrwt>
<pdfrwt beam="2">  1       -1 0.58240231E-01 0.17949455E+04</pdfrwt>
<totfact> 0.18219272E+01</totfact>
</mgrwt>
</event>
<event>
12    6  0.1494052E-007  0.1320723E+04  0.7818608E-02  0.9013291E-01
         -1   -1    0    0    0  501 -0.00000000000E+00  0.00000000000E+00  0.27868334214E+03  0.27868334214E+03  0.00000000000E+00 0.  1.
          2   -1    0    0  501    0  0.00000000000E+00 -0.00000000000E+00 -0.15647769883E+04  0.15647769883E+04  0.00000000000E+00 0. -1.
         24    2    1    2    0    0 -0.16308692921E+03  0.26729800389E+03 -0.53559606076E+03  0.62455131396E+03  0.71802744419E+02 0.  0.
        254    2    1    2    0    0  0.16308692921E+03 -0.26729800389E+03 -0.75049758540E+03  0.12189090165E+04  0.90799063618E+03 0.  0.
         23    2    4    4    0    0  0.40564123502E+03 -0.16944542063E+03 -0.81901403227E+03  0.93366913638E+03  0.87735449272E+02 0.  0.
         23    2    4    4    0    0 -0.24255430581E+03 -0.97852583255E+02  0.68516446869E+02  0.28523988009E+03  0.90882156579E+02 0.  0.
          2    1    3    3  502    0 -0.12888615494E+03  0.22042911566E+03 -0.37399149937E+03  0.45284685885E+03  0.00000000000E+00 0. -1.
         -1    1    3    3    0  502 -0.34200774275E+02  0.46868888229E+02 -0.16160456139E+03  0.17170445511E+03  0.00000000000E+00 0.  1.
         11    1    5    5    0    0  0.28222754261E+03 -0.15841130589E+03 -0.56787691360E+03  0.65362888296E+03  0.00000000000E+00 0.  1.
        -11    1    5    5    0    0  0.12341369241E+03 -0.11034114736E+02 -0.25113711867E+03  0.28004025342E+03  0.00000000000E+00 0. -1.
          1    1    6    6  503    0 -0.42147467609E+02 -0.58263934839E+02  0.90290234089E+01  0.72474950104E+02  0.00000000000E+00 0. -1.
         -1    1    6    6    0  503 -0.20040683820E+03 -0.39588648415E+02  0.59487423460E+02  0.21276492999E+03  0.00000000000E+00 0.  1.
<mgrwt>
<rscale>  0 0.13207230E+04</rscale>
<asrwt>0</asrwt>
<pdfrwt beam="1">  1        2 0.24073492E+00 0.13207230E+04</pdfrwt>
<pdfrwt beam="2">  1       -1 0.42874361E-01 0.13207230E+04</pdfrwt>
<totfact> 0.69737566E+01</totfact>
</mgrwt>
</event>
<event>
12    6  0.1494052E-007  0.1527513E+04  0.7818608E-02  0.8866360E-01
          2   -1    0    0  501    0  0.00000000000E+00  0.00000000000E+00  0.55527660294E+03  0.55527660294E+03  0.00000000000E+00 0. -1.
         -1   -1    0    0    0  501 -0.00000000000E+00 -0.00000000000E+00 -0.10505109551E+04  0.10505109551E+04  0.00000000000E+00 0.  1.
         24    2    1    2    0    0  0.45337079334E+03 -0.19728532983E+03 -0.12675510592E+03  0.51654931418E+03  0.79308003867E+02 0.  0.
        254    2    1    2    0    0 -0.45337079334E+03  0.19728532983E+03 -0.36847924623E+03  0.10892382438E+04  0.89788441312E+03 0.  0.
         23    2    4    4    0    0 -0.31785666683E+03 -0.14213753498E+03 -0.56056878928E+03  0.66625048014E+03  0.91740913851E+02 0.  0.
         23    2    4    4    0    0 -0.13551412651E+03  0.33942286481E+03  0.19208954306E+03  0.42298776370E+03  0.91914612796E+02 0.  0.
          2    1    3    3  502    0  0.26992945442E+03 -0.15912563881E+03 -0.75932612726E+02  0.32241067130E+03  0.00000000000E+00 0. -1.
         -3    1    3    3    0  502  0.18344133892E+03 -0.38159691015E+02 -0.50822493198E+02  0.19413864288E+03  0.00000000000E+00 0.  1.
         11    1    5    5    0    0 -0.80787092045E+02  0.51705246342E+01 -0.12380703756E+03  0.14792386933E+03  0.00000000000E+00 0. -1.
        -11    1    5    5    0    0 -0.23706957479E+03 -0.14730805962E+03 -0.43676175172E+03  0.51832661082E+03  0.00000000000E+00 0.  1.
          3    1    6    6  503    0 -0.10317553330E+02  0.13205632135E+03  0.46560739957E+02  0.14040379774E+03  0.00000000000E+00 0. -1.
         -3    1    6    6    0  503 -0.12519657318E+03  0.20736654346E+03  0.14552880310E+03  0.28258396596E+03  0.00000000000E+00 0.  1.
<mgrwt>
<rscale>  0 0.15275132E+04</rscale>
<asrwt>0</asrwt>
<pdfrwt beam="1">  1        2 0.85427171E-01 0.15275132E+04</pdfrwt>
<pdfrwt beam="2">  1       -1 0.16161707E+00 0.15275132E+04</pdfrwt>
<totfact> 0.17041589E+01</totfact>
</mgrwt>
</event>
<event>
12    6  0.1494052E-007  0.1508099E+04  0.7818608E-02  0.8879085E-01
          2   -1    0    0  501    0  0.00000000000E+00  0.00000000000E+00  0.58828797310E+03  0.58828797310E+03  0.00000000000E+00 0. -1.
         -1   -1    0    0    0  501 -0.00000000000E+00 -0.00000000000E+00 -0.96651730805E+03  0.96651730805E+03  0.00000000000E+00 0.  1.
         24    2    1    2    0    0  0.35604996984E+03  0.32604926181E+03 -0.13553401937E+03  0.50802707421E+03  0.81500525010E+02 0.  0.
        254    2    1    2    0    0 -0.35604996984E+03 -0.32604926181E+03 -0.24269531558E+03  0.10467782069E+04  0.89652880387E+03 0.  0.
         23    2    4    4    0    0  0.27938318344E+03 -0.20146054163E+03 -0.24715974406E+02  0.35758983385E+03  0.92834782592E+02 0.  0.
         23    2    4    4    0    0 -0.63543315328E+03 -0.12458872018E+03 -0.21797934117E+03  0.68918837309E+03  0.90376871737E+02 0.  0.
          4    1    3    3  502    0  0.27872624131E+03  0.28701539658E+03 -0.13215221546E+03  0.42134352199E+03  0.00000000000E+00 0. -1.
         -3    1    3    3    0  502  0.77323728531E+02  0.39033865224E+02 -0.33818039069E+01  0.86683552222E+02  0.00000000000E+00 0.  1.
         11    1    5    5    0    0  0.67741257580E+02 -0.98999149096E+02  0.78109216155E+01  0.12021114756E+03  0.00000000000E+00 0. -1.
        -11    1    5    5    0    0  0.21164192586E+03 -0.10246139253E+03 -0.32526896021E+02  0.23737868629E+03  0.00000000000E+00 0.  1.
          1    1    6    6  503    0 -0.50730642441E+03 -0.78337573273E+02 -0.20356251777E+03  0.55220854962E+03  0.00000000000E+00 0. -1.
         -1    1    6    6    0  503 -0.12812672887E+03 -0.46251146906E+02 -0.14416823399E+02  0.13697982347E+03  0.00000000000E+00 0.  1.
<mgrwt>
<rscale>  0 0.15080988E+04</rscale>
<asrwt>0</asrwt>
<pdfrwt beam="1">  1        2 0.90505844E-01 0.15080988E+04</pdfrwt>
<pdfrwt beam="2">  1       -1 0.14869497E+00 0.15080988E+04</pdfrwt>
<totfact> 0.20022089E+01</totfact>
</mgrwt>
</event>
<event>
12    6  0.1494052E-007  0.1726457E+04  0.7818608E-02  0.8746417E-01
          2   -1    0    0  501    0  0.00000000000E+00  0.00000000000E+00  0.13152135128E+04  0.13152135128E+04  0.00000000000E+00 0. -1.
         -1   -1    0    0    0  501 -0.00000000000E+00 -0.00000000000E+00 -0.56657252894E+03  0.56657252894E+03  0.00000000000E+00 0.  1.
         24    2    1    2    0    0  0.32492433700E+03 -0.48517770276E+03  0.52009875018E+03  0.78587533506E+03  0.78256656560E+02 0.  0.
        254    2    1    2    0    0 -0.32492433700E+03  0.48517770276E+03  0.22854223363E+03  0.10959107066E+04  0.89878556750E+03 0.  0.
         23    2    4    4    0    0  0.29567243474E+03  0.13619569933E+03  0.16363710429E+03  0.37520850242E+03  0.89626230538E+02 0.  0.
         23    2    4    4    0    0 -0.62059677174E+03  0.34898200343E+03  0.64905129343E+02  0.72070220422E+03  0.90940637520E+02 0.  0.
          2    1    3    3  502    0  0.18692485504E+02 -0.64195494075E+01  0.97383814416E+01  0.22033059298E+02  0.00000000000E+00 0. -1.
         -1    1    3    3    0  502  0.30623185149E+03 -0.47875815335E+03  0.51036036874E+03  0.76384227576E+03  0.00000000000E+00 0.  1.
         11    1    5    5    0    0  0.20846693460E+03  0.99632015365E+02  0.15911509977E+03  0.28053986577E+03  0.00000000000E+00 0.  1.
        -11    1    5    5    0    0  0.87205500140E+02  0.36563683967E+02  0.45220045169E+01  0.94668636648E+02  0.00000000000E+00 0. -1.
          2    1    6    6  503    0 -0.39549602269E+02  0.35456544723E+02  0.26470345590E+02  0.59346582033E+02  0.00000000000E+00 0. -1.
         -2    1    6    6    0  503 -0.58104716947E+03  0.31352545870E+03  0.38434783753E+02  0.66135562219E+03  0.00000000000E+00 0.  1.
<mgrwt>
<rscale>  0 0.17264575E+04</rscale>
<asrwt>0</asrwt>
<pdfrwt beam="1">  1        2 0.20234054E+00 0.17264575E+04</pdfrwt>
<pdfrwt beam="2">  1       -1 0.87165005E-01 0.17264575E+04</pdfrwt>
<totfact> 0.22724959E+01</totfact>
</mgrwt>
</event>
<event>
12    6  0.1494052E-007  0.2098408E+04  0.7818608E-02  0.8561945E-01
         -1   -1    0    0    0  501 -0.00000000000E+00  0.00000000000E+00  0.13229983082E+04  0.13229983082E+04  0.00000000000E+00 0.  1.
          2   -1    0    0  501    0  0.00000000000E+00 -0.00000000000E+00 -0.83207148114E+03  0.83207148114E+03  0.00000000000E+00 0. -1.
         24    2    1    2    0    0 -0.28627623612E+03 -0.62877107026E+03 -0.31444871653E+03  0.76338815958E+03  0.81094664996E+02 0.  0.
        254    2    1    2    0    0  0.28627623612E+03  0.62877107026E+03  0.80537554356E+03  0.13916816297E+04  0.90046701784E+03 0.  0.
         23    2    4    4    0    0  0.37346355580E+02  0.40188611266E+03 -0.95558470128E+02  0.42552744352E+03  0.95052544165E+02 0.  0.
         23    2    4    4    0    0  0.24892988055E+03  0.22688495760E+03  0.90093401369E+03  0.96615418622E+03  0.91263054482E+02 0.  0.
          4    1    3    3  502    0 -0.26764239535E+03 -0.53491719229E+03 -0.28944070358E+03  0.66448835601E+03  0.00000000000E+00 0. -1.
         -3    1    3    3    0  502 -0.18633840773E+02 -0.93853877977E+02 -0.25008012950E+02  0.98899803564E+02  0.00000000000E+00 0.  1.
         11    1    5    5    0    0  0.56508537279E+02  0.34790196234E+03 -0.10432398111E+03  0.36757649982E+03  0.00000000000E+00 0.  1.
        -11    1    5    5    0    0 -0.19162181699E+02  0.53984150313E+02  0.87655109774E+01  0.57950943696E+02  0.00000000000E+00 0. -1.
          3    1    6    6  503    0  0.55252736178E+02  0.47416942428E+02  0.10666468416E+03  0.12914560051E+03  0.00000000000E+00 0. -1.
         -3    1    6    6    0  503  0.19367714437E+03  0.17946801518E+03  0.79426932952E+03  0.83700858570E+03  0.00000000000E+00 0.  1.
<mgrwt>
<rscale>  0 0.20984081E+04</rscale>
<asrwt>0</asrwt>
<pdfrwt beam="1">  1        2 0.12801100E+00 0.20984081E+04</pdfrwt>
<pdfrwt beam="2">  1       -1 0.20353820E+00 0.20984081E+04</pdfrwt>
<totfact> 0.48890559E+00</totfact>
</mgrwt>
</event>
<event>
12    6  0.1494052E-007  0.1564079E+04  0.7818608E-02  0.8842925E-01
          2   -1    0    0  501    0  0.00000000000E+00  0.00000000000E+00  0.41622612153E+03  0.41622612153E+03  0.00000000000E+00 0. -1.
         -1   -1    0    0    0  501 -0.00000000000E+00 -0.00000000000E+00 -0.14693588975E+04  0.14693588975E+04  0.00000000000E+00 0.  1.
         24    2    1    2    0    0 -0.14869778720E+03 -0.29281945393E+03 -0.84823116562E+03  0.91314901333E+03  0.80565164356E+02 0.  0.
        254    2    1    2    0    0  0.14869778720E+03  0.29281945393E+03 -0.20490161032E+03  0.97243600566E+03  0.89207222279E+03 0.  0.
         23    2    4    4    0    0  0.43579277814E+03  0.11558751614E+03  0.14047844181E+03  0.48113432168E+03  0.92088129082E+02 0.  0.
         23    2    4    4    0    0 -0.28709499094E+03  0.17723193778E+03 -0.34538005213E+03  0.49130168398E+03  0.90858520123E+02 0.  0.
          2    1    3    3  502    0 -0.80881584867E+02 -0.15008855738E+03 -0.54743720339E+03  0.57337238988E+03  0.00000000000E+00 0. -1.
         -1    1    3    3    0  502 -0.67816202334E+02 -0.14273089655E+03 -0.30079396223E+03  0.33977662345E+03  0.00000000000E+00 0.  1.
         11    1    5    5    0    0  0.38418681038E+03  0.12877445606E+03  0.13711140639E+03  0.42776384089E+03  0.00000000000E+00 0.  1.
        -11    1    5    5    0    0  0.51605967754E+02 -0.13186939923E+02  0.33670354213E+01  0.53370480791E+02  0.00000000000E+00 0. -1.
          1    1    6    6  503    0 -0.13698213628E+03  0.12087840359E+03 -0.13689512686E+03  0.22828922417E+03  0.00000000000E+00 0. -1.
         -1    1    6    6    0  503 -0.15011285466E+03  0.56353534194E+02 -0.20848492527E+03  0.26301245981E+03  0.00000000000E+00 0.  1.
<mgrwt>
<rscale>  0 0.15640787E+04</rscale>
<asrwt>0</asrwt>
<pdfrwt beam="1">  1        2 0.64034788E-01 0.15640787E+04</pdfrwt>
<pdfrwt beam="2">  1       -1 0.22605521E+00 0.15640787E+04</pdfrwt>
<totfact> 0.83827376E+00</totfact>
</mgrwt>
</event>
<event>
12    6  0.1494052E-007  0.1191599E+04  0.7818608E-02  0.9120242E-01
         -1   -1    0    0    0  501 -0.00000000000E+00  0.00000000000E+00  0.20176931380E+03  0.20176931380E+03  0.00000000000E+00 0.  1.
          2   -1    0    0  501    0  0.00000000000E+00 -0.00000000000E+00 -0.17593203676E+04  0.17593203676E+04  0.00000000000E+00 0. -1.
         24    2    1    2    0    0 -0.42081871256E+02 -0.12508468379E+03 -0.75626508738E+03  0.77194350356E+03  0.80887751224E+02 0.  0.
        254    2    1    2    0    0  0.42081871256E+02  0.12508468379E+03 -0.80128596645E+03  0.11891461779E+04  0.86867276364E+03 0.  0.
         23    2    4    4    0    0 -0.20154433383E+03  0.10938763259E+03  0.88584400819E+02  0.26190939267E+03  0.90352427934E+02 0.  0.
         23    2    4    4    0    0  0.24362620509E+03  0.15697051197E+02 -0.88987036727E+03  0.92723678520E+03  0.91096981615E+02 0.  0.
          2    1    3    3  502    0 -0.22228257580E+02 -0.67927471698E+02 -0.19980392626E+03  0.21220236991E+03  0.00000000000E+00 0. -1.
         -1    1    3    3    0  502 -0.19853613677E+02 -0.57157212093E+02 -0.55646116112E+03  0.55974113366E+03  0.00000000000E+00 0.  1.
         11    1    5    5    0    0 -0.51684830869E+02  0.47491190067E+02  0.69284281111E+02  0.98625790162E+02  0.00000000000E+00 0.  1.
        -11    1    5    5    0    0 -0.14985950297E+03  0.61896442527E+02  0.19300119708E+02  0.16328360251E+03  0.00000000000E+00 0. -1.
          3    1    6    6  503    0  0.23660289902E+03  0.35738237134E+02 -0.82220966902E+03  0.85632172298E+03  0.00000000000E+00 0. -1.
         -3    1    6    6    0  503  0.70233060708E+01 -0.20041185937E+02 -0.67660698250E+02  0.70915062220E+02  0.00000000000E+00 0.  1.
<mgrwt>
<rscale>  0 0.11915987E+04</rscale>
<asrwt>0</asrwt>
<pdfrwt beam="1">  1        2 0.27066467E+00 0.11915987E+04</pdfrwt>
<pdfrwt beam="2">  1       -1 0.31041434E-01 0.11915987E+04</pdfrwt>
<totfact> 0.98241653E+01</totfact>
</mgrwt>
</event>
<event>
12    6  0.1494052E-007  0.1741938E+04  0.7818608E-02  0.8737800E-01
         -1   -1    0    0    0  501 -0.00000000000E+00  0.00000000000E+00  0.25263510325E+03  0.25263510325E+03  0.00000000000E+00 0.  1.
          2   -1    0    0  501    0  0.00000000000E+00 -0.00000000000E+00 -0.30026991806E+04  0.30026991806E+04  0.00000000000E+00 0. -1.
         24    2    1    2    0    0 -0.51065271276E+02 -0.17926099517E+03 -0.21616387430E+04  0.21711432234E+04  0.80241355785E+02 0.  0.
        254    2    1    2    0    0  0.51065271276E+02  0.17926099517E+03 -0.58842533436E+03  0.10841910604E+04  0.89133815976E+03 0.  0.
         23    2    4    4    0    0  0.42632087403E+03  0.21214221020E+03 -0.47836100134E+03  0.68118651515E+03  0.91826008472E+02 0.  0.
         23    2    4    4    0    0 -0.37525560275E+03 -0.32881215030E+02 -0.11006433302E+03  0.40300454527E+03  0.91654592937E+02 0.  0.
          2    1    3    3  502    0 -0.65720545614E+02 -0.16055282254E+03 -0.20280996558E+04  0.20355059845E+04  0.00000000000E+00 0. -1.
         -1    1    3    3    0  502  0.14655274337E+02 -0.18708172634E+02 -0.13353908717E+03  0.13563723896E+03  0.00000000000E+00 0.  1.
         11    1    5    5    0    0  0.36351212983E+03  0.20970219850E+03 -0.39115218256E+03  0.57368642176E+03  0.00000000000E+00 0. -1.
        -11    1    5    5    0    0  0.62808744197E+02  0.24400117005E+01 -0.87208818788E+02  0.10750009339E+03  0.00000000000E+00 0.  1.
          4    1    6    6  503    0 -0.23858055940E+03 -0.63910943656E+02 -0.59977492003E+02  0.25417039873E+03  0.00000000000E+00 0. -1.
         -4    1    6    6    0  503 -0.13667504335E+03  0.31029728625E+02 -0.50086841016E+02  0.14883414654E+03  0.00000000000E+00 0.  1.
<mgrwt>
<rscale>  0 0.17419383E+04</rscale>
<asrwt>0</asrwt>
<pdfrwt beam="1">  1        2 0.46195375E+00 0.17419383E+04</pdfrwt>
<pdfrwt beam="2">  1       -1 0.38866937E-01 0.17419383E+04</pdfrwt>
<totfact> 0.12076193E+01</totfact>
</mgrwt>
</event>
<event>
12    6  0.1494052E-007  0.2541652E+04  0.7818608E-02  0.8388295E-01
          2   -1    0    0  501    0  0.00000000000E+00  0.00000000000E+00  0.15638871445E+04  0.15638871445E+04  0.00000000000E+00 0. -1.
         -1   -1    0    0    0  501 -0.00000000000E+00 -0.00000000000E+00 -0.10326824394E+04  0.10326824394E+04  0.00000000000E+00 0.  1.
         24    2    1    2    0    0  0.39498617779E+03 -0.30403340465E+03  0.12457283648E+04  0.13440179404E+04  0.78068389761E+02 0.  0.
        254    2    1    2    0    0 -0.39498617779E+03  0.30403340465E+03 -0.71452365962E+03  0.12525516436E+04  0.89993953569E+03 0.  0.
         23    2    4    4    0    0 -0.35692890896E+03  0.44339512529E+03 -0.85504055809E+03  0.10314012452E+04  0.93256042431E+02 0.  0.
         23    2    4    4    0    0 -0.38057268829E+02 -0.13936172064E+03  0.14051689847E+03  0.22115039837E+03  0.91062918099E+02 0.  0.
          4    1    3    3  502    0  0.25693390312E+03 -0.19086768298E+03  0.89430827670E+03  0.94985935630E+03  0.00000000000E+00 0. -1.
         -3    1    3    3    0  502  0.13805227467E+03 -0.11316572167E+03  0.35142008805E+03  0.39415858406E+03  0.00000000000E+00 0.  1.
         11    1    5    5    0    0 -0.28989075329E+03  0.29492623772E+03 -0.59698332289E+03  0.72622807874E+03  0.00000000000E+00 0. -1.
        -11    1    5    5    0    0 -0.67038155664E+02  0.14846888757E+03 -0.25805723520E+03  0.30517316647E+03  0.00000000000E+00 0.  1.
          3    1    6    6  503    0  0.16925819335E+02 -0.31397047132E+02  0.75840194119E+02  0.83809265436E+02  0.00000000000E+00 0. -1.
         -3    1    6    6    0  503 -0.54983088164E+02 -0.10796467351E+03  0.64676704352E+02  0.13734113294E+03  0.00000000000E+00 0.  1.
<mgrwt>
<rscale>  0 0.25416521E+04</rscale>
<asrwt>0</asrwt>
<pdfrwt beam="1">  1        2 0.24059802E+00 0.25416521E+04</pdfrwt>
<pdfrwt beam="2">  1       -1 0.15887422E+00 0.25416521E+04</pdfrwt>
<totfact> 0.35251654E+00</totfact>
</mgrwt>
</event>
<event>
12    6  0.1494052E-007  0.1536229E+04  0.7818608E-02  0.8860712E-01
         -1   -1    0    0    0  501 -0.00000000000E+00  0.00000000000E+00  0.30025521256E+03  0.30025521256E+03  0.00000000000E+00 0.  1.
          2   -1    0    0  501    0  0.00000000000E+00 -0.00000000000E+00 -0.19649939465E+04  0.19649939465E+04  0.00000000000E+00 0. -1.
         24    2    1    2    0    0  0.17117279009E+03  0.45717971801E+03 -0.35735882048E+03  0.61009181213E+03  0.78697357226E+02 0.  0.
        254    2    1    2    0    0 -0.17117279009E+03 -0.45717971801E+03 -0.13073799135E+04  0.16551573469E+04  0.88993830481E+03 0.  0.
         23    2    4    4    0    0 -0.18576649371E+03 -0.59012306406E+03 -0.13503696017E+04  0.14881486113E+04  0.91289689104E+02 0.  0.
         23    2    4    4    0    0  0.14593703622E+02  0.13294334606E+03  0.42989688175E+02  0.16700873564E+03  0.90315530481E+02 0.  0.
          2    1    3    3  502    0  0.11718978411E+03  0.36375238166E+03 -0.24307516900E+03  0.45291807035E+03  0.00000000000E+00 0. -1.
         -1    1    3    3    0  502  0.53983005983E+02  0.93427336346E+02 -0.11428365148E+03  0.15717374179E+03  0.00000000000E+00 0.  1.
         11    1    5    5    0    0 -0.28965066439E+02 -0.19024111880E+03 -0.49242177196E+03  0.52868692045E+03  0.00000000000E+00 0. -1.
        -11    1    5    5    0    0 -0.15680142727E+03 -0.39988194526E+03 -0.85794782970E+03  0.95946169086E+03  0.00000000000E+00 0.  1.
          4    1    6    6  503    0 -0.23865374428E+02  0.16912488797E+02  0.33395546277E+02  0.44394266353E+02  0.00000000000E+00 0.  1.
         -4    1    6    6    0  503  0.38459078050E+02  0.11603085726E+03  0.95941418985E+01  0.12261446929E+03  0.00000000000E+00 0. -1.
<mgrwt>
<rscale>  0 0.15362287E+04</rscale>
<asrwt>0</asrwt>
<pdfrwt beam="1">  1        2 0.30230675E+00 0.15362287E+04</pdfrwt>
<pdfrwt beam="2">  1       -1 0.46193112E-01 0.15362287E+04</pdfrwt>
<totfact> 0.35771229E+01</totfact>
</mgrwt>
</event>
<event>
12    6  0.1494052E-007  0.1648745E+04  0.7818608E-02  0.8791150E-01
          2   -1    0    0  501    0  0.00000000000E+00  0.00000000000E+00  0.26332031659E+04  0.26332031659E+04  0.00000000000E+00 0. -1.
         -1   -1    0    0    0  501 -0.00000000000E+00 -0.00000000000E+00 -0.25808478214E+03  0.25808478214E+03  0.00000000000E+00 0.  1.
         24    2    1    2    0    0 -0.97104621029E+02  0.36286010418E+03  0.86484232394E+02  0.39361822635E+03  0.79743482698E+02 0.  0.
        254    2    1    2    0    0  0.97104621029E+02 -0.36286010418E+03  0.22886341514E+04  0.24976697217E+04  0.92704422613E+03 0.  0.
         23    2    4    4    0    0  0.84481758793E+02 -0.64291776595E+03  0.19017238988E+04  0.20113515911E+04  0.92200947152E+02 0.  0.
         23    2    4    4    0    0  0.12622862236E+02  0.28005766177E+03  0.38691025261E+03  0.48631813057E+03  0.90631947884E+02 0.  0.
          2    1    3    3  502    0 -0.40594694804E+02  0.22218992662E+03  0.86936424229E+02  0.24202114493E+03  0.00000000000E+00 0. -1.
         -1    1    3    3    0  502 -0.56509926225E+02  0.14067017756E+03 -0.45219183569E+00  0.15159708142E+03  0.00000000000E+00 0.  1.
         11    1    5    5    0    0  0.10274943851E+03 -0.57754873817E+03  0.17268102321E+04  0.18237306736E+04  0.00000000000E+00 0. -1.
        -11    1    5    5    0    0 -0.18267679716E+02 -0.65369027783E+02  0.17491366672E+03  0.18762091760E+03  0.00000000000E+00 0.  1.
          3    1    6    6  503    0  0.13592949281E+02  0.26965881728E+03  0.32040952240E+03  0.41900227691E+03  0.00000000000E+00 0. -1.
         -3    1    6    6    0  503 -0.97008704535E+00  0.10398844485E+02  0.66500730211E+02  0.67315853661E+02  0.00000000000E+00 0.  1.
<mgrwt>
<rscale>  0 0.16487446E+04</rscale>
<asrwt>0</asrwt>
<pdfrwt beam="1">  1        2 0.40510816E+00 0.16487446E+04</pdfrwt>
<pdfrwt beam="2">  1       -1 0.39705353E-01 0.16487446E+04</pdfrwt>
<totfact> 0.19591660E+01</totfact>
</mgrwt>
</event>
<event>
12    6  0.1494052E-007  0.4136643E+04  0.7818608E-02  0.7977535E-01
         -1   -1    0    0    0  501 -0.00000000000E+00  0.00000000000E+00  0.21180405094E+04  0.21180405094E+04  0.00000000000E+00 0.  1.
          2   -1    0    0  501    0  0.00000000000E+00 -0.00000000000E+00 -0.20197699139E+04  0.20197699139E+04  0.00000000000E+00 0. -1.
         24    2    1    2    0    0  0.55802145155E+03  0.93358362039E+03 -0.15989294204E+04  0.19359258986E+04  0.90925665245E+02 0.  0.
        254    2    1    2    0    0 -0.55802145155E+03 -0.93358362039E+03  0.16972000159E+04  0.22018845248E+04  0.88591266487E+03 0.  0.
         23    2    4    4    0    0 -0.15802513390E+03 -0.97217101206E+03  0.11525782491E+04  0.15189782935E+04  0.93648364550E+02 0.  0.
         23    2    4    4    0    0 -0.39999631765E+03  0.38587391671E+02  0.54462176679E+03  0.68290623126E+03  0.90895604416E+02 0.  0.
          4    1    3    3  502    0  0.44232986308E+03  0.70193932313E+03 -0.12757820216E+04  0.15218391136E+04  0.00000000000E+00 0. -1.
         -3    1    3    3    0  502  0.11569158847E+03  0.23164429726E+03 -0.32314739881E+03  0.41408678493E+03  0.00000000000E+00 0.  1.
         11    1    5    5    0    0 -0.21967660146E+02 -0.12362199605E+03  0.19889405591E+03  0.23521016448E+03  0.00000000000E+00 0. -1.
        -11    1    5    5    0    0 -0.13605747376E+03 -0.84854901601E+03  0.95368419322E+03  0.12837681290E+04  0.00000000000E+00 0.  1.
          3    1    6    6  503    0 -0.21003036698E+03 -0.23774921351E+02  0.26006651716E+03  0.33513071373E+03  0.00000000000E+00 0. -1.
         -3    1    6    6    0  503 -0.18996595067E+03  0.62362313022E+02  0.28455524963E+03  0.34777551753E+03  0.00000000000E+00 0.  1.
<mgrwt>
<rscale>  0 0.41366433E+04</rscale>
<asrwt>0</asrwt>
<pdfrwt beam="1">  1        2 0.31073383E+00 0.41366433E+04</pdfrwt>
<pdfrwt beam="2">  1       -1 0.32585239E+00 0.41366433E+04</pdfrwt>
<totfact> 0.12958763E-01</totfact>
</mgrwt>
</event>
<event>
12    6  0.1494052E-007  0.1154056E+04  0.7818608E-02  0.9154050E-01
         -1   -1    0    0    0  501 -0.00000000000E+00  0.00000000000E+00  0.35193497314E+03  0.35193497314E+03  0.00000000000E+00 0.  1.
          2   -1    0    0  501    0  0.00000000000E+00 -0.00000000000E+00 -0.94608768788E+03  0.94608768788E+03  0.00000000000E+00 0. -1.
         24    2    1    2    0    0 -0.90228104683E+02 -0.18876070484E+03 -0.85183330695E+02  0.23987167780E+03  0.80687715406E+02 0.  0.
        254    2    1    2    0    0  0.90228104683E+02  0.18876070484E+03 -0.50896938405E+03  0.10581509832E+04  0.90380415734E+03 0.  0.
         23    2    4    4    0    0  0.20828241861E+03 -0.13345856468E+03  0.15390767854E+03  0.30598215548E+03  0.93513376418E+02 0.  0.
         23    2    4    4    0    0 -0.11805431393E+03  0.32221926952E+03 -0.66287706259E+03  0.75216882774E+03  0.92681533292E+02 0.  0.
          2    1    3    3  502    0 -0.77262287871E+01  0.50333348135E+00 -0.22967058892E+02  0.24237032616E+02  0.00000000000E+00 0. -1.
         -1    1    3    3    0  502 -0.82501875896E+02 -0.18926403832E+03 -0.62216271803E+02  0.21563464519E+03  0.00000000000E+00 0.  1.
         11    1    5    5    0    0  0.16468937281E+03 -0.88341938012E+02  0.66449048029E+02  0.19834909506E+03  0.00000000000E+00 0. -1.
        -11    1    5    5    0    0  0.43593045807E+02 -0.45116626671E+02  0.87458630513E+02  0.10763306042E+03  0.00000000000E+00 0.  1.
          1    1    6    6  503    0 -0.10658994989E+03  0.25379156343E+03 -0.44253079544E+03  0.52115744262E+03  0.00000000000E+00 0. -1.
         -1    1    6    6    0  503 -0.11464364038E+02  0.68427706096E+02 -0.22034626715E+03  0.23101138512E+03  0.00000000000E+00 0.  1.
<mgrwt>
<rscale>  0 0.11540561E+04</rscale>
<asrwt>0</asrwt>
<pdfrwt beam="1">  1        2 0.14555195E+00 0.11540561E+04</pdfrwt>
<pdfrwt beam="2">  1       -1 0.54143843E-01 0.11540561E+04</pdfrwt>
<totfact> 0.10619062E+02</totfact>
</mgrwt>
</event>
<event>
12    6  0.1494052E-007  0.1066221E+04  0.7818608E-02  0.9238756E-01
         -1   -1    0    0    0  501 -0.00000000000E+00  0.00000000000E+00  0.92517876404E+03  0.92517876404E+03  0.00000000000E+00 0.  1.
          2   -1    0    0  501    0  0.00000000000E+00 -0.00000000000E+00 -0.30719106198E+03  0.30719106198E+03  0.00000000000E+00 0. -1.
         24    2    1    2    0    0 -0.79088617818E+02 -0.68592990350E+02  0.18172002631E+03  0.22296742401E+03  0.75711930456E+02 0.  0.
        254    2    1    2    0    0  0.79088617818E+02  0.68592990350E+02  0.43626767575E+03  0.10094024020E+04  0.90421441953E+03 0.  0.
         23    2    4    4    0    0 -0.14030801263E+03 -0.11739074577E+03  0.62212615253E+03  0.65494368844E+03  0.91887756380E+02 0.  0.
         23    2    4    4    0    0  0.21939663045E+03  0.18598373612E+03 -0.18585847678E+03  0.35445871357E+03  0.91502867054E+02 0.  0.
          2    1    3    3  502    0  0.14394912031E+02 -0.67960190085E+01  0.13683267364E+02  0.20991216556E+02  0.00000000000E+00 0. -1.
         -3    1    3    3    0  502 -0.93483529849E+02 -0.61796971341E+02  0.16803675895E+03  0.20197620745E+03  0.00000000000E+00 0.  1.
         11    1    5    5    0    0 -0.12266445309E+03 -0.89931229040E+02  0.36026641139E+03  0.39105764433E+03  0.00000000000E+00 0.  1.
        -11    1    5    5    0    0 -0.17643559538E+02 -0.27459516732E+02  0.26185974114E+03  0.26388604412E+03  0.00000000000E+00 0. -1.
          3    1    6    6  503    0  0.36003435410E+02 -0.36655666448E+01 -0.10517447394E+02  0.37686873575E+02  0.00000000000E+00 0. -1.
         -3    1    6    6    0  503  0.18339319504E+03  0.18964930277E+03 -0.17534102938E+03  0.31677183999E+03  0.00000000000E+00 0.  1.
<mgrwt>
<rscale>  0 0.10662207E+04</rscale>
<asrwt>0</asrwt>
<pdfrwt beam="1">  1        2 0.47260164E-01 0.10662207E+04</pdfrwt>
<pdfrwt beam="2">  1       -1 0.14233519E+00 0.10662207E+04</pdfrwt>
<totfact> 0.48926631E+01</totfact>
</mgrwt>
</event>
<event>
12    6  0.1494052E-007  0.3086668E+04  0.7818608E-02  0.8219406E-01
         -1   -1    0    0    0  501 -0.00000000000E+00  0.00000000000E+00  0.12282323771E+04  0.12282323771E+04  0.00000000000E+00 0.  1.
          2   -1    0    0  501    0  0.00000000000E+00 -0.00000000000E+00 -0.19392747589E+04  0.19392747589E+04  0.00000000000E+00 0. -1.
         24    2    1    2    0    0 -0.52457854767E+02  0.13994177617E+04 -0.14710915410E+03  0.14112169005E+04  0.93649018120E+02 0.  0.
        254    2    1    2    0    0  0.52457854767E+02 -0.13994177617E+04 -0.56393322762E+03  0.17562902355E+04  0.89744794154E+03 0.  0.
         23    2    4    4    0    0 -0.22615749058E+02 -0.13933723183E+03 -0.45515158770E+03  0.48546906080E+03  0.92687134615E+02 0.  0.
         23    2    4    4    0    0  0.75073603826E+02 -0.12600805299E+04 -0.10878163992E+03  0.12708211747E+04  0.98559753918E+02 0.  0.
          2    1    3    3  502    0 -0.53322256662E+02  0.12885276854E+04 -0.16024517867E+03  0.12995481432E+04  0.00000000000E+00 0. -1.
         -1    1    3    3    0  502  0.86440189488E+00  0.11089007631E+03  0.13136024575E+02  0.11166875730E+03  0.00000000000E+00 0.  1.
         11    1    5    5    0    0  0.10178404051E+02 -0.75706820764E+02 -0.35016617598E+03  0.35840127430E+03  0.00000000000E+00 0. -1.
        -11    1    5    5    0    0 -0.32794153110E+02 -0.63630411065E+02 -0.10498541172E+03  0.12706778649E+03  0.00000000000E+00 0.  1.
          4    1    6    6  503    0  0.50482114633E+02 -0.11948157642E+04 -0.94335611502E+02  0.11995967497E+04  0.00000000000E+00 0. -1.
         -4    1    6    6    0  503  0.24591489192E+02 -0.65264765725E+02 -0.14446028420E+02  0.71224425044E+02  0.00000000000E+00 0.  1.
<mgrwt>
<rscale>  0 0.30866681E+04</rscale>
<asrwt>0</asrwt>
<pdfrwt beam="1">  1        2 0.29834996E+00 0.30866681E+04</pdfrwt>
<pdfrwt beam="2">  1       -1 0.18895883E+00 0.30866681E+04</pdfrwt>
<totfact> 0.12548316E+00</totfact>
</mgrwt>
</event>
<event>
12    6  0.1494052E-007  0.1812226E+04  0.7818608E-02  0.8699825E-01
          2   -1    0    0  501    0  0.00000000000E+00  0.00000000000E+00  0.56085525463E+03  0.56085525463E+03  0.00000000000E+00 0. -1.
         -1   -1    0    0    0  501 -0.00000000000E+00 -0.00000000000E+00 -0.14639090640E+04  0.14639090640E+04  0.00000000000E+00 0.  1.
         24    2    1    2    0    0  0.23175278905E+03  0.45532141032E+03  0.15871340066E+03  0.54085796278E+03  0.79438343507E+02 0.  0.
        254    2    1    2    0    0 -0.23175278905E+03 -0.45532141032E+03 -0.10617672100E+04  0.14839063558E+04  0.90199862676E+03 0.  0.
         23    2    4    4    0    0  0.11077464620E+01  0.19661195913E+03 -0.24522006109E+01  0.21550705326E+03  0.88203101646E+02 0.  0.
         23    2    4    4    0    0 -0.23286053552E+03 -0.65193336945E+03 -0.10593150094E+04  0.12683993026E+04  0.86298055650E+02 0.  0.
          2    1    3    3  502    0  0.72552161098E+02  0.22809815175E+03  0.65230082959E+02  0.24808778010E+03  0.00000000000E+00 0. -1.
         -1    1    3    3    0  502  0.15920062796E+03  0.22722325858E+03  0.93483317701E+02  0.29277018268E+03  0.00000000000E+00 0.  1.
         11    1    5    5    0    0  0.15041305869E+01  0.20277144897E+03  0.84783881301E+01  0.20295419678E+03  0.00000000000E+00 0.  1.
        -11    1    5    5    0    0 -0.39638412489E+00 -0.61594898388E+01 -0.10930588741E+02  0.12552856475E+02  0.00000000000E+00 0. -1.
          3    1    6    6  503    0  0.40562908941E+01 -0.56813246872E+02 -0.80008542122E+02  0.98211839044E+02  0.00000000000E+00 0. -1.
         -3    1    6    6    0  503 -0.23691682641E+03 -0.59512012258E+03 -0.97930646726E+03  0.11701874635E+04  0.00000000000E+00 0.  1.
<mgrwt>
<rscale>  0 0.18122264E+04</rscale>
<asrwt>0</asrwt>
<pdfrwt beam="1">  1        2 0.86285423E-01 0.18122264E+04</pdfrwt>
<pdfrwt beam="2">  1       -1 0.22521678E+00 0.18122264E+04</pdfrwt>
<totfact> 0.58851100E+00</totfact>
</mgrwt>
</event>
<event>
12    6  0.1494052E-007  0.1565024E+04  0.7818608E-02  0.8842328E-01
         -1   -1    0    0    0  501 -0.00000000000E+00  0.00000000000E+00  0.35001645059E+03  0.35001645059E+03  0.00000000000E+00 0.  1.
          2   -1    0    0  501    0  0.00000000000E+00 -0.00000000000E+00 -0.17494187945E+04  0.17494187945E+04  0.00000000000E+00 0. -1.
         24    2    1    2    0    0  0.16481781383E+03 -0.35960771135E+03 -0.20308167286E+02  0.40424087155E+03  0.80719531456E+02 0.  0.
        254    2    1    2    0    0 -0.16481781383E+03  0.35960771135E+03 -0.13790941766E+04  0.16951943735E+04  0.90293997489E+03 0.  0.
         23    2    4    4    0    0  0.27217684102E+03 -0.12265725528E+02 -0.89168169566E+03  0.93683691829E+03  0.91304349791E+02 0.  0.
         23    2    4    4    0    0 -0.43699465485E+03  0.37187343688E+03 -0.48741248095E+03  0.75835745524E+03  0.90999570872E+02 0.  0.
          2    1    3    3  502    0  0.17586412251E+02 -0.67023614159E+02  0.24826265239E+02  0.73605639706E+02  0.00000000000E+00 0. -1.
         -1    1    3    3    0  502  0.14723140158E+03 -0.29258409719E+03 -0.45134432525E+02  0.33063523185E+03  0.00000000000E+00 0.  1.
         11    1    5    5    0    0  0.15511716868E+02  0.16285164288E+02 -0.31359726202E+02  0.38590832636E+02  0.00000000000E+00 0. -1.
        -11    1    5    5    0    0  0.25666512415E+03 -0.28550889816E+02 -0.86032196945E+03  0.89824608565E+03  0.00000000000E+00 0.  1.
          4    1    6    6  503    0 -0.17618691203E+03  0.97014300075E+02 -0.14869702090E+03  0.25012877966E+03  0.00000000000E+00 0. -1.
         -4    1    6    6    0  503 -0.26080774283E+03  0.27485913680E+03 -0.33871546005E+03  0.50822867558E+03  0.00000000000E+00 0.  1.
<mgrwt>
<rscale>  0 0.15650244E+04</rscale>
<asrwt>0</asrwt>
<pdfrwt beam="1">  1        2 0.26914135E+00 0.15650244E+04</pdfrwt>
<pdfrwt beam="2">  1       -1 0.53848685E-01 0.15650244E+04</pdfrwt>
<totfact> 0.35097530E+01</totfact>
</mgrwt>
</event>
<event>
12    6  0.1494052E-007  0.1623218E+04  0.7818608E-02  0.8806410E-01
          2   -1    0    0  501    0  0.00000000000E+00  0.00000000000E+00  0.10809831642E+04  0.10809831642E+04  0.00000000000E+00 0. -1.
         -1   -1    0    0    0  501 -0.00000000000E+00 -0.00000000000E+00 -0.60936134768E+03  0.60936134768E+03  0.00000000000E+00 0.  1.
         24    2    1    2    0    0  0.40342312831E+03 -0.51169694375E+02  0.56435734741E+03  0.70019122172E+03  0.79999833253E+02 0.  0.
        254    2    1    2    0    0 -0.40342312831E+03  0.51169694375E+02 -0.92735530890E+02  0.99015329016E+03  0.89801731678E+03 0.  0.
         23    2    4    4    0    0 -0.46450392484E+03 -0.18006647875E+03  0.24918901855E+03  0.56369665180E+03  0.86434456781E+02 0.  0.
         23    2    4    4    0    0  0.61080796528E+02  0.23123617313E+03 -0.34192454944E+03  0.42645663836E+03  0.88044508180E+02 0.  0.
          4    1    3    3  502    0  0.16957965508E+03 -0.59657694388E+02  0.26526207104E+03  0.32043761678E+03  0.00000000000E+00 0. -1.
         -3    1    3    3    0  502  0.23384347323E+03  0.84880000131E+01  0.29909527637E+03  0.37975360494E+03  0.00000000000E+00 0.  1.
         11    1    5    5    0    0 -0.89547711844E+02 -0.67027571096E+02  0.77562659940E+02  0.13611559132E+03  0.00000000000E+00 0. -1.
        -11    1    5    5    0    0 -0.37495621300E+03 -0.11303890766E+03  0.17162635861E+03  0.42758106048E+03  0.00000000000E+00 0.  1.
          3    1    6    6  503    0  0.37296889310E+02  0.34718358495E+02 -0.11208141377E+03  0.12312053315E+03  0.00000000000E+00 0. -1.
         -3    1    6    6    0  503  0.23783907218E+02  0.19651781463E+03 -0.22984313567E+03  0.30333610521E+03  0.00000000000E+00 0.  1.
<mgrwt>
<rscale>  0 0.16232182E+04</rscale>
<asrwt>0</asrwt>
<pdfrwt beam="1">  1        2 0.16630510E+00 0.16232182E+04</pdfrwt>
<pdfrwt beam="2">  1       -1 0.93747900E-01 0.16232182E+04</pdfrwt>
<totfact> 0.26967837E+01</totfact>
</mgrwt>
</event>
<event>
12    6  0.1494052E-007  0.1397374E+04  0.7818608E-02  0.8955722E-01
         -1   -1    0    0    0  501 -0.00000000000E+00  0.00000000000E+00  0.49840572462E+03  0.49840572462E+03  0.00000000000E+00 0.  1.
          2   -1    0    0  501    0  0.00000000000E+00 -0.00000000000E+00 -0.97944977776E+03  0.97944977776E+03  0.00000000000E+00 0. -1.
         24    2    1    2    0    0  0.70320609682E+02  0.24902814029E+03 -0.46859729868E+03  0.54112590580E+03  0.79207416303E+02 0.  0.
        254    2    1    2    0    0 -0.70320609682E+02 -0.24902814029E+03 -0.12446754456E+02  0.93672959658E+03  0.90019298632E+03 0.  0.
         23    2    4    4    0    0 -0.48917015928E+02  0.24818620676E+03 -0.25982044291E+03  0.37388821999E+03  0.91084964852E+02 0.  0.
         23    2    4    4    0    0 -0.21403593755E+02 -0.49721434705E+03  0.24737368845E+03  0.56284137659E+03  0.88974449856E+02 0.  0.
          2    1    3    3  502    0  0.61147396289E+01  0.15966182622E+03 -0.29765616080E+03  0.33782906751E+03  0.00000000000E+00 0. -1.
         -1    1    3    3    0  502  0.64205870054E+02  0.89366314074E+02 -0.17094113788E+03  0.20329683830E+03  0.00000000000E+00 0.  1.
         11    1    5    5    0    0 -0.27827493254E+02  0.97543524032E+01 -0.27508389810E+02  0.40326520821E+02  0.00000000000E+00 0.  1.
        -11    1    5    5    0    0 -0.21089522674E+02  0.23843185435E+03 -0.23231205310E+03  0.33356169917E+03  0.00000000000E+00 0. -1.
          2    1    6    6  503    0  0.73301582520E+01 -0.35735547315E+02  0.45506139873E+02  0.58322974273E+02  0.00000000000E+00 0.  1.
         -2    1    6    6    0  503 -0.28733752007E+02 -0.46147879973E+03  0.20186754858E+03  0.50451840232E+03  0.00000000000E+00 0. -1.
<mgrwt>
<rscale>  0 0.13973738E+04</rscale>
<asrwt>0</asrwt>
<pdfrwt beam="1">  1        2 0.15068458E+00 0.13973738E+04</pdfrwt>
<pdfrwt beam="2">  1       -1 0.76677805E-01 0.13973738E+04</pdfrwt>
<totfact> 0.49244092E+01</totfact>
</mgrwt>
</event>
<event>
12    6  0.1494052E-007  0.1453829E+04  0.7818608E-02  0.8915750E-01
          2   -1    0    0  501    0  0.00000000000E+00  0.00000000000E+00  0.74919092669E+03  0.74919092669E+03  0.00000000000E+00 0. -1.
         -1   -1    0    0    0  501 -0.00000000000E+00 -0.00000000000E+00 -0.70530087574E+03  0.70530087574E+03  0.00000000000E+00 0.  1.
         24    2    1    2    0    0  0.28569335847E+03 -0.76230179179E+02 -0.31005702896E+03  0.43709889865E+03  0.86535257002E+02 0.  0.
        254    2    1    2    0    0 -0.28569335847E+03  0.76230179179E+02  0.35394707991E+03  0.10173929038E+04  0.90685062165E+03 0.  0.
         23    2    4    4    0    0 -0.53080585134E+03  0.29322681869E+03  0.23309613747E+03  0.65621990314E+03  0.92487474654E+02 0.  0.
         23    2    4    4    0    0  0.24511249287E+03 -0.21699663951E+03  0.12085094244E+03  0.36117300063E+03  0.93130609235E+02 0.  0.
          4    1    3    3  502    0  0.18768367132E+03 -0.41522301749E+02 -0.14009713321E+03  0.23785808533E+03  0.00000000000E+00 0. -1.
         -3    1    3    3    0  502  0.98009687149E+02 -0.34707877430E+02 -0.16995989575E+03  0.19924081332E+03  0.00000000000E+00 0.  1.
         11    1    5    5    0    0 -0.23745547720E+03  0.13374737778E+03  0.55858936664E+02  0.27819720617E+03  0.00000000000E+00 0. -1.
        -11    1    5    5    0    0 -0.29335037414E+03  0.15947944091E+03  0.17723720080E+03  0.37802269697E+03  0.00000000000E+00 0.  1.
          3    1    6    6  503    0  0.18812124075E+03 -0.15142030986E+03  0.12922091710E+03  0.27389004523E+03  0.00000000000E+00 0. -1.
         -3    1    6    6    0  503  0.56991252122E+02 -0.65576329645E+02 -0.83699746542E+01  0.87282955403E+02  0.00000000000E+00 0.  1.
<mgrwt>
<rscale>  0 0.14538294E+04</rscale>
<asrwt>0</asrwt>
<pdfrwt beam="1">  1        2 0.11526014E+00 0.14538294E+04</pdfrwt>
<pdfrwt beam="2">  1       -1 0.10850783E+00 0.14538294E+04</pdfrwt>
<totfact> 0.32782881E+01</totfact>
</mgrwt>
</event>
<event>
12    6  0.1494052E-007  0.3053052E+04  0.7818608E-02  0.8228742E-01
         -1   -1    0    0    0  501 -0.00000000000E+00  0.00000000000E+00  0.98206333463E+03  0.98206333463E+03  0.00000000000E+00 0.  1.
          2   -1    0    0  501    0  0.00000000000E+00 -0.00000000000E+00 -0.23728432267E+04  0.23728432267E+04  0.00000000000E+00 0. -1.
         24    2    1    2    0    0  0.21814161432E+03 -0.12526850438E+04 -0.12711597067E+04  0.17998147028E+04  0.81733601444E+02 0.  0.
        254    2    1    2    0    0 -0.21814161432E+03  0.12526850438E+04 -0.11962018537E+03  0.15550918585E+04  0.88724073214E+03 0.  0.
         23    2    4    4    0    0 -0.33771526701E+03  0.58982524490E+03 -0.42807242354E+03  0.80845896173E+03  0.91730430726E+02 0.  0.
         23    2    4    4    0    0  0.11957365268E+03  0.66285979891E+03  0.30845223817E+03  0.74663289678E+03  0.92935073542E+02 0.  0.
          4    1    3    3  502    0  0.13491508180E+03 -0.94662698495E+03 -0.98165191501E+03  0.13703814105E+04  0.00000000000E+00 0. -1.
         -3    1    3    3    0  502  0.83226532526E+02 -0.30605805887E+03 -0.28950779164E+03  0.42943329229E+03  0.00000000000E+00 0.  1.
         11    1    5    5    0    0 -0.33590806290E+03  0.54520013768E+03 -0.40936476397E+03  0.76003745094E+03  0.00000000000E+00 0.  1.
        -11    1    5    5    0    0 -0.18072041078E+01  0.44625107224E+02 -0.18707659565E+02  0.48421510797E+02  0.00000000000E+00 0. -1.
          2    1    6    6  503    0  0.86388642359E+01  0.93810569274E+02  0.79614215760E+02  0.12334292130E+03  0.00000000000E+00 0. -1.
         -2    1    6    6    0  503  0.11093478845E+03  0.56904922963E+03  0.22883802240E+03  0.62328997548E+03  0.00000000000E+00 0.  1.
<mgrwt>
<rscale>  0 0.30530525E+04</rscale>
<asrwt>0</asrwt>
<pdfrwt beam="1">  1        2 0.36505280E+00 0.30530525E+04</pdfrwt>
<pdfrwt beam="2">  1       -1 0.15108667E+00 0.30530525E+04</pdfrwt>
<totfact> 0.13657354E+00</totfact>
</mgrwt>
</event>
<event>
12    6  0.1494052E-007  0.2739350E+04  0.7818608E-02  0.8322349E-01
         -1   -1    0    0    0  501 -0.00000000000E+00  0.00000000000E+00  0.81463004974E+03  0.81463004974E+03  0.00000000000E+00 0.  1.
          2   -1    0    0  501    0  0.00000000000E+00 -0.00000000000E+00 -0.23028978059E+04  0.23028978059E+04  0.00000000000E+00 0. -1.
         24    2    1    2    0    0  0.76481929963E+03 -0.60418800007E+03 -0.15035351219E+04  0.17935654066E+04  0.79166310161E+02 0.  0.
        254    2    1    2    0    0 -0.76481929963E+03  0.60418800007E+03  0.15267365752E+02  0.13239624490E+04  0.89590835095E+03 0.  0.
         23    2    4    4    0    0  0.14707810470E+03 -0.63453001828E+02 -0.41334714889E+02  0.18859350792E+03  0.90557717802E+02 0.  0.
         23    2    4    4    0    0 -0.91189740432E+03  0.66764100190E+03  0.56602080641E+02  0.11353689410E+04  0.92506504182E+02 0.  0.
          4    1    3    3  502    0  0.36617213003E+03 -0.28342708040E+03 -0.78653038797E+03  0.91271188768E+03  0.00000000000E+00 0. -1.
         -3    1    3    3    0  502  0.39864716960E+03 -0.32076091968E+03 -0.71700473391E+03  0.88085351897E+03  0.00000000000E+00 0.  1.
         11    1    5    5    0    0  0.24481113478E+02  0.16607003578E+02  0.13135144658E+02  0.32367414326E+02  0.00000000000E+00 0. -1.
        -11    1    5    5    0    0  0.12259699122E+03 -0.80060005406E+02 -0.54469859547E+02  0.15622609360E+03  0.00000000000E+00 0.  1.
          2    1    6    6  503    0 -0.17899491368E+03  0.92812892850E+02  0.27350795488E+02  0.20347353198E+03  0.00000000000E+00 0. -1.
         -2    1    6    6    0  503 -0.73290249065E+03  0.57482810905E+03  0.29251285152E+02  0.93189540907E+03  0.00000000000E+00 0.  1.
<mgrwt>
<rscale>  0 0.27393501E+04</rscale>
<asrwt>0</asrwt>
<pdfrwt beam="1">  1        2 0.35429197E+00 0.27393501E+04</pdfrwt>
<pdfrwt beam="2">  1       -1 0.12532770E+00 0.27393501E+04</pdfrwt>
<totfact> 0.24966979E+00</totfact>
</mgrwt>
</event>
<event>
12    6  0.1494052E-007  0.2712305E+04  0.7818608E-02  0.8331024E-01
         -1   -1    0    0    0  501 -0.00000000000E+00  0.00000000000E+00  0.69584422139E+03  0.69584422139E+03  0.00000000000E+00 0.  1.
          2   -1    0    0  501    0  0.00000000000E+00 -0.00000000000E+00 -0.26430472668E+04  0.26430472668E+04  0.00000000000E+00 0. -1.
         24    2    1    2    0    0 -0.27985971527E+03  0.39425175343E+03 -0.22218583604E+04  0.22751492256E+04  0.76769261879E+02 0.  0.
        254    2    1    2    0    0  0.27985971527E+03 -0.39425175343E+03  0.27465531497E+03  0.10637422627E+04  0.90683854902E+03 0.  0.
         23    2    4    4    0    0  0.15493250652E+03 -0.58412964986E+03  0.45224686263E+03  0.76094402438E+03  0.96421232400E+02 0.  0.
         23    2    4    4    0    0  0.12492720875E+03  0.18987789643E+03 -0.17759154766E+03  0.30279823827E+03  0.92128129581E+02 0.  0.
          4    1    3    3  502    0 -0.24400070037E+03  0.37483397813E+03 -0.20802135353E+04  0.21277512086E+04  0.00000000000E+00 0. -1.
         -3    1    3    3    0  502 -0.35859014903E+02  0.19417775301E+02 -0.14164482506E+03  0.14739801700E+03  0.00000000000E+00 0.  1.
         11    1    5    5    0    0 -0.11837857606E+02 -0.52501727356E+02  0.28194985908E+02  0.60757908772E+02  0.00000000000E+00 0. -1.
        -11    1    5    5    0    0  0.16677036413E+03 -0.53162792250E+03  0.42405187672E+03  0.70018611561E+03  0.00000000000E+00 0.  1.
          4    1    6    6  503    0 -0.98630884181E+01  0.20881664074E+02 -0.91375547890E-01  0.23093998292E+02  0.00000000000E+00 0. -1.
         -4    1    6    6    0  503  0.13479029717E+03  0.16899623235E+03 -0.17750017211E+03  0.27970423998E+03  0.00000000000E+00 0.  1.
<mgrwt>
<rscale>  0 0.27123047E+04</rscale>
<asrwt>0</asrwt>
<pdfrwt beam="1">  1        2 0.40662265E+00 0.27123047E+04</pdfrwt>
<pdfrwt beam="2">  1       -1 0.10705296E+00 0.27123047E+04</pdfrwt>
<totfact> 0.23264231E+00</totfact>
</mgrwt>
</event>
<event>
12    6  0.1494052E-007  0.1991378E+04  0.7818608E-02  0.8610662E-01
          2   -1    0    0  501    0  0.00000000000E+00  0.00000000000E+00  0.19485131727E+04  0.19485131727E+04  0.00000000000E+00 0. -1.
         -1   -1    0    0    0  501 -0.00000000000E+00 -0.00000000000E+00 -0.50879668011E+03  0.50879668011E+03  0.00000000000E+00 0.  1.
         24    2    1    2    0    0  0.19161459900E+03 -0.75430926400E+03  0.75421983141E+03  0.10866793431E+04  0.79535025700E+02 0.  0.
        254    2    1    2    0    0 -0.19161459900E+03  0.75430926400E+03  0.68549666118E+03  0.13706305097E+04  0.89611589727E+03 0.  0.
         23    2    4    4    0    0  0.20572492943E+03  0.70825724087E+03  0.28738876963E+03  0.79810054560E+03  0.10208383879E+03 0.  0.
         23    2    4    4    0    0 -0.39733952844E+03  0.46052023126E+02  0.39810789155E+03  0.57252996411E+03  0.96442608792E+02 0.  0.
          4    1    3    3  502    0  0.38187464782E+02 -0.75169835012E+02  0.60149224122E+02  0.10356985915E+03  0.00000000000E+00 0. -1.
         -3    1    3    3    0  502  0.15342713422E+03 -0.67913942899E+03  0.69407060728E+03  0.98310948394E+03  0.00000000000E+00 0.  1.
         11    1    5    5    0    0  0.42138340161E+01  0.27261522335E+01 -0.60454764050E+01  0.78572315785E+01  0.00000000000E+00 0. -1.
        -11    1    5    5    0    0  0.20151109542E+03  0.70553108864E+03  0.29343424603E+03  0.79024331402E+03  0.00000000000E+00 0.  1.
          4    1    6    6  503    0 -0.34678964301E+03  0.37247737293E+02  0.38515330809E+03  0.51960900797E+03  0.00000000000E+00 0.  1.
         -4    1    6    6    0  503 -0.50549885425E+02  0.88042858326E+01  0.12954583465E+02  0.52920956135E+02  0.00000000000E+00 0. -1.
<mgrwt>
<rscale>  0 0.19913785E+04</rscale>
<asrwt>0</asrwt>
<pdfrwt beam="1">  1        2 0.29977125E+00 0.19913785E+04</pdfrwt>
<pdfrwt beam="2">  1       -1 0.78276413E-01 0.19913785E+04</pdfrwt>
<totfact> 0.12342473E+01</totfact>
</mgrwt>
</event>
<event>
12    6  0.1494052E-007  0.3269803E+04  0.7818608E-02  0.8170622E-01
          2   -1    0    0  501    0  0.00000000000E+00  0.00000000000E+00  0.22390901354E+04  0.22390901354E+04  0.00000000000E+00 0. -1.
         -1   -1    0    0    0  501 -0.00000000000E+00 -0.00000000000E+00 -0.11937454102E+04  0.11937454102E+04  0.00000000000E+00 0.  1.
         24    2    1    2    0    0  0.72041350293E+03 -0.11887183057E+04 -0.13606047698E+03  0.13993015346E+04  0.86518818000E+02 0.  0.
        254    2    1    2    0    0 -0.72041350293E+03  0.11887183057E+04  0.11814052022E+04  0.20335340109E+04  0.89860753193E+03 0.  0.
         23    2    4    4    0    0 -0.30963251742E+03  0.50376041143E+03  0.10651097528E+04  0.12215174655E+04  0.89438722813E+02 0.  0.
         23    2    4    4    0    0 -0.41078098551E+03  0.68495789427E+03  0.11629544940E+03  0.81201654543E+03  0.89094913049E+02 0.  0.
          4    1    3    3  502    0  0.48350303219E+03 -0.83215248672E+03 -0.13002108492E+03  0.97116343929E+03  0.00000000000E+00 0. -1.
         -3    1    3    3    0  502  0.23691047074E+03 -0.35656581898E+03 -0.60393920616E+01  0.42813809532E+03  0.00000000000E+00 0.  1.
         11    1    5    5    0    0 -0.30871718395E+03  0.49398445060E+03  0.10619119709E+04  0.12111911373E+04  0.00000000000E+00 0.  1.
        -11    1    5    5    0    0 -0.91533346453E+00  0.97759608243E+01  0.31977818461E+01  0.10326328201E+02  0.00000000000E+00 0. -1.
          3    1    6    6  503    0 -0.31307117029E+03  0.45230674385E+03  0.10045292864E+03  0.55918309977E+03  0.00000000000E+00 0. -1.
         -3    1    6    6    0  503 -0.97709815218E+02  0.23265115042E+03  0.15842520765E+02  0.25283344566E+03  0.00000000000E+00 0.  1.
<mgrwt>
<rscale>  0 0.32698034E+04</rscale>
<asrwt>0</asrwt>
<pdfrwt beam="1">  1        2 0.34447540E+00 0.32698034E+04</pdfrwt>
<pdfrwt beam="2">  1       -1 0.18365314E+00 0.32698034E+04</pdfrwt>
<totfact> 0.91547999E-01</totfact>
</mgrwt>
</event>
<event>
12    6  0.1494052E-007  0.2323218E+04  0.7818608E-02  0.8468823E-01
          2   -1    0    0  501    0  0.00000000000E+00  0.00000000000E+00  0.21307975785E+04  0.21307975785E+04  0.00000000000E+00 0. -1.
         -1   -1    0    0    0  501 -0.00000000000E+00 -0.00000000000E+00 -0.63325344741E+03  0.63325344741E+03  0.00000000000E+00 0.  1.
         24    2    1    2    0    0 -0.21174900222E+03  0.68454480388E+03 -0.15799237633E+03  0.73826075205E+03  0.81413258051E+02 0.  0.
        254    2    1    2    0    0  0.21174900222E+03 -0.68454480388E+03  0.16555365075E+04  0.20257902739E+04  0.92172982908E+03 0.  0.
         23    2    4    4    0    0  0.62852821672E+02 -0.88415969382E+03  0.13861805422E+04  0.16478779397E+04  0.91194117851E+02 0.  0.
         23    2    4    4    0    0  0.14889618055E+03  0.19961488995E+03  0.26935596527E+03  0.37791233422E+03  0.90823562252E+02 0.  0.
          2    1    3    3  502    0 -0.61762185630E+02  0.16300374470E+03 -0.48207995493E+01  0.17437897944E+03  0.00000000000E+00 0. -1.
         -1    1    3    3    0  502 -0.14998681659E+03  0.52154105917E+03 -0.15317157678E+03  0.56388177262E+03  0.00000000000E+00 0.  1.
         11    1    5    5    0    0  0.11754582263E+02 -0.51978805931E+03  0.74201243889E+03  0.90603546083E+03  0.00000000000E+00 0.  1.
        -11    1    5    5    0    0  0.51098239409E+02 -0.36437163451E+03  0.64416810331E+03  0.74184247886E+03  0.00000000000E+00 0. -1.
          2    1    6    6  503    0  0.14642712827E+03  0.17169948789E+03  0.19425371045E+03  0.29775177927E+03  0.00000000000E+00 0.  1.
         -2    1    6    6    0  503  0.24690522746E+01  0.27915402059E+02  0.75102254814E+02  0.80160554947E+02  0.00000000000E+00 0. -1.
<mgrwt>
<rscale>  0 0.23232175E+04</rscale>
<asrwt>0</asrwt>
<pdfrwt beam="1">  1        2 0.32781501E+00 0.23232175E+04</pdfrwt>
<pdfrwt beam="2">  1       -1 0.97423609E-01 0.23232175E+04</pdfrwt>
<totfact> 0.58814350E+00</totfact>
</mgrwt>
</event>
<event>
12    6  0.1494052E-007  0.1328610E+04  0.7818608E-02  0.9007180E-01
          2   -1    0    0  501    0  0.00000000000E+00  0.00000000000E+00  0.20462901769E+04  0.20462901769E+04  0.00000000000E+00 0. -1.
         -1   -1    0    0    0  501 -0.00000000000E+00 -0.00000000000E+00 -0.21565926809E+03  0.21565926809E+03  0.00000000000E+00 0.  1.
         24    2    1    2    0    0  0.44924342357E+01  0.35631538233E+03  0.61315218939E+03  0.71366659059E+03  0.79897193416E+02 0.  0.
        254    2    1    2    0    0 -0.44924342357E+01 -0.35631538233E+03  0.12174787194E+04  0.15482828544E+04  0.88766239716E+03 0.  0.
         23    2    4    4    0    0  0.12688941494E+02 -0.22573157989E+03  0.13315252454E+04  0.13533218681E+04  0.86051404249E+02 0.  0.
         23    2    4    4    0    0 -0.17181375730E+02 -0.13058380244E+03 -0.11404652596E+03  0.19496098630E+03  0.87497696918E+02 0.  0.
          2    1    3    3  502    0 -0.14744022552E+02  0.22703706729E+03  0.31937925262E+03  0.39213049247E+03  0.00000000000E+00 0. -1.
         -1    1    3    3    0  502  0.19236456788E+02  0.12927831503E+03  0.29377293678E+03  0.32153609812E+03  0.00000000000E+00 0.  1.
         11    1    5    5    0    0 -0.37128128579E+02 -0.93326869786E+02  0.55609695210E+03  0.56509487937E+03  0.00000000000E+00 0. -1.
        -11    1    5    5    0    0  0.49817070072E+02 -0.13240471010E+03  0.77542829327E+03  0.78822698871E+03  0.00000000000E+00 0.  1.
          2    1    6    6  503    0  0.30918557348E+02 -0.48768472074E+02 -0.68798249265E+02  0.89819375186E+02  0.00000000000E+00 0. -1.
         -2    1    6    6    0  503 -0.48099933077E+02 -0.81815330363E+02 -0.45248276697E+02  0.10514161112E+03  0.00000000000E+00 0.  1.
<mgrwt>
<rscale>  0 0.13286105E+04</rscale>
<asrwt>0</asrwt>
<pdfrwt beam="1">  1        2 0.31481386E+00 0.13286105E+04</pdfrwt>
<pdfrwt beam="2">  1       -1 0.33178350E-01 0.13286105E+04</pdfrwt>
<totfact> 0.59963798E+01</totfact>
</mgrwt>
</event>
<event>
12    6  0.1494052E-007  0.1156761E+04  0.7818608E-02  0.9151569E-01
          2   -1    0    0  501    0  0.00000000000E+00  0.00000000000E+00  0.62193103663E+03  0.62193103663E+03  0.00000000000E+00 0. -1.
         -1   -1    0    0    0  501 -0.00000000000E+00 -0.00000000000E+00 -0.53787932833E+03  0.53787932833E+03  0.00000000000E+00 0.  1.
         24    2    1    2    0    0 -0.11120100034E+02  0.10549384758E+03  0.21172060686E+03  0.25050495654E+03  0.81697670573E+02 0.  0.
        254    2    1    2    0    0  0.11120100034E+02 -0.10549384758E+03 -0.12766889856E+03  0.90930540842E+03  0.89402705195E+03 0.  0.
         23    2    4    4    0    0  0.23818364580E+03 -0.42622760644E+03 -0.60508538384E+02  0.50036550853E+03  0.91120454850E+02 0.  0.
         23    2    4    4    0    0 -0.22706354576E+03  0.32073375886E+03 -0.67160360177E+02  0.40893989988E+03  0.91067721224E+02 0.  0.
          2    1    3    3  502    0  0.21143705493E+01  0.11283190995E+03  0.20486585327E+03  0.23389212963E+03  0.00000000000E+00 0. -1.
         -1    1    3    3    0  502 -0.13234470583E+02 -0.73380623740E+01  0.68547535929E+01  0.16612826907E+02  0.00000000000E+00 0.  1.
         11    1    5    5    0    0  0.19786658877E+03 -0.26860625568E+03 -0.31467807016E+02  0.33509809075E+03  0.00000000000E+00 0. -1.
        -11    1    5    5    0    0  0.40317057023E+02 -0.15762135076E+03 -0.29040731368E+02  0.16526741778E+03  0.00000000000E+00 0.  1.
          1    1    6    6  503    0 -0.13263847504E+03  0.12496021869E+03 -0.27861384795E+01  0.18225197909E+03  0.00000000000E+00 0. -1.
         -1    1    6    6    0  503 -0.94425070724E+02  0.19577354017E+03 -0.64374221698E+02  0.22668792079E+03  0.00000000000E+00 0.  1.
<mgrwt>
<rscale>  0 0.11567607E+04</rscale>
<asrwt>0</asrwt>
<pdfrwt beam="1">  1        2 0.95681698E-01 0.11567607E+04</pdfrwt>
<pdfrwt beam="2">  1       -1 0.82750666E-01 0.11567607E+04</pdfrwt>
<totfact> 0.77918669E+01</totfact>
</mgrwt>
</event>
<event>
12    6  0.1494052E-007  0.1810952E+04  0.7818608E-02  0.8700497E-01
         -1   -1    0    0    0  501 -0.00000000000E+00  0.00000000000E+00  0.39382779280E+03  0.39382779280E+03  0.00000000000E+00 0.  1.
          2   -1    0    0  501    0  0.00000000000E+00 -0.00000000000E+00 -0.20818398157E+04  0.20818398157E+04  0.00000000000E+00 0. -1.
         24    2    1    2    0    0 -0.52831678740E+03 -0.26728516689E+03 -0.10665325234E+04  0.12225292033E+04  0.80783917071E+02 0.  0.
        254    2    1    2    0    0  0.52831678740E+03  0.26728516689E+03 -0.62147949946E+03  0.12531384051E+04  0.91299458151E+03 0.  0.
         23    2    4    4    0    0 -0.22796500993E+03 -0.67466629517E+02 -0.11227057917E+03  0.27753206945E+03  0.88879552057E+02 0.  0.
         23    2    4    4    0    0  0.75628179732E+03  0.33475179641E+03 -0.50920892029E+03  0.97560633568E+03  0.92157883828E+02 0.  0.
          2    1    3    3  502    0 -0.45531101915E+03 -0.24672533866E+03 -0.97184459200E+03  0.11012099836E+04  0.00000000000E+00 0. -1.
         -1    1    3    3    0  502 -0.73005768250E+02 -0.20559828239E+02 -0.94687931405E+02  0.12131921978E+03  0.00000000000E+00 0.  1.
         11    1    5    5    0    0 -0.18177605999E+03 -0.56958880430E+02 -0.12578440096E+03  0.22827300666E+03  0.00000000000E+00 0.  1.
        -11    1    5    5    0    0 -0.46188949938E+02 -0.10507749087E+02  0.13513821787E+02  0.49259062786E+02  0.00000000000E+00 0. -1.
          1    1    6    6  503    0  0.16122120246E+03  0.40573913028E+02 -0.13065927059E+03  0.21144825261E+03  0.00000000000E+00 0. -1.
         -1    1    6    6    0  503  0.59506059486E+03  0.29417788338E+03 -0.37854964970E+03  0.76415808307E+03  0.00000000000E+00 0.  1.
<mgrwt>
<rscale>  0 0.18109516E+04</rscale>
<asrwt>0</asrwt>
<pdfrwt beam="1">  1        2 0.32028305E+00 0.18109516E+04</pdfrwt>
<pdfrwt beam="2">  1       -1 0.60588891E-01 0.18109516E+04</pdfrwt>
<totfact> 0.17849160E+01</totfact>
</mgrwt>
</event>
<event>
12    6  0.1494052E-007  0.1739509E+04  0.7818608E-02  0.8739146E-01
         -1   -1    0    0    0  501 -0.00000000000E+00  0.00000000000E+00  0.51223444227E+03  0.51223444227E+03  0.00000000000E+00 0.  1.
          2   -1    0    0  501    0  0.00000000000E+00 -0.00000000000E+00 -0.14768105090E+04  0.14768105090E+04  0.00000000000E+00 0. -1.
         24    2    1    2    0    0 -0.40612445933E+02 -0.44556278944E+03 -0.85477572634E+03  0.96813124524E+03  0.80380318345E+02 0.  0.
        254    2    1    2    0    0  0.40612445933E+02  0.44556278944E+03 -0.10980034038E+03  0.10209137060E+04  0.91106152936E+03 0.  0.
         23    2    4    4    0    0 -0.23599148101E+03  0.66219807029E+02  0.29543799785E+03  0.39471012187E+03  0.91844584923E+02 0.  0.
         23    2    4    4    0    0  0.27660392694E+03  0.37934298241E+03 -0.40523833823E+03  0.62620358414E+03  0.86614013360E+02 0.  0.
          2    1    3    3  502    0 -0.18299662266E+02 -0.18203610154E+03 -0.43608215623E+03  0.47290555810E+03  0.00000000000E+00 0. -1.
         -1    1    3    3    0  502 -0.22312783666E+02 -0.26352668790E+03 -0.41869357010E+03  0.49522568713E+03  0.00000000000E+00 0.  1.
         11    1    5    5    0    0 -0.57610483774E+02  0.41644652544E+02  0.38166545638E+02  0.80684138045E+02  0.00000000000E+00 0. -1.
        -11    1    5    5    0    0 -0.17838099724E+03  0.24575154485E+02  0.25727145221E+03  0.31402598383E+03  0.00000000000E+00 0.  1.
          4    1    6    6  503    0  0.23045145146E+03  0.25885719513E+03 -0.31880615290E+03  0.47090581019E+03  0.00000000000E+00 0. -1.
         -4    1    6    6    0  503  0.46152475483E+02  0.12048578728E+03 -0.86432185337E+02  0.15529777395E+03  0.00000000000E+00 0.  1.
<mgrwt>
<rscale>  0 0.17395094E+04</rscale>
<asrwt>0</asrwt>
<pdfrwt beam="1">  1        2 0.22720161E+00 0.17395094E+04</pdfrwt>
<pdfrwt beam="2">  1       -1 0.78805300E-01 0.17395094E+04</pdfrwt>
<totfact> 0.22779255E+01</totfact>
</mgrwt>
</event>
<event>
12    6  0.1494052E-007  0.1847023E+04  0.7818608E-02  0.8681685E-01
         -1   -1    0    0    0  501 -0.00000000000E+00  0.00000000000E+00  0.65351011141E+03  0.65351011141E+03  0.00000000000E+00 0.  1.
          2   -1    0    0  501    0  0.00000000000E+00 -0.00000000000E+00 -0.13050660395E+04  0.13050660395E+04  0.00000000000E+00 0. -1.
         24    2    1    2    0    0  0.23664096965E+02  0.63972183441E+03 -0.55910091495E+03  0.85380494187E+03  0.81148202403E+02 0.  0.
        254    2    1    2    0    0 -0.23664096965E+02 -0.63972183441E+03 -0.92455013184E+02  0.11047712091E+04  0.89563802960E+03 0.  0.
         23    2    4    4    0    0 -0.18442444152E+03  0.10278584346E+03 -0.23340754550E+03  0.32752679458E+03  0.90649956560E+02 0.  0.
         23    2    4    4    0    0  0.16076034455E+03 -0.74250767788E+03  0.14095253232E+03  0.77724441451E+03  0.84141092415E+02 0.  0.
          4    1    3    3  502    0  0.31500011904E+02  0.31545059598E+03 -0.22954476026E+03  0.39139765740E+03  0.00000000000E+00 0. -1.
         -3    1    3    3    0  502 -0.78359149387E+01  0.32427123843E+03 -0.32955615469E+03  0.46240728447E+03  0.00000000000E+00 0.  1.
         11    1    5    5    0    0  0.88947906434E+01  0.12454062981E+02 -0.24624310798E+02  0.28992717493E+02  0.00000000000E+00 0.  1.
        -11    1    5    5    0    0 -0.19331923216E+03  0.90331780483E+02 -0.20878323471E+03  0.29853407709E+03  0.00000000000E+00 0. -1.
          1    1    6    6  503    0  0.55705380207E+02 -0.19319426358E+03  0.72798203256E+02  0.21383800238E+03  0.00000000000E+00 0. -1.
         -1    1    6    6    0  503  0.10505496434E+03 -0.54931341429E+03  0.68154329064E+02  0.56340641213E+03  0.00000000000E+00 0.  1.
<mgrwt>
<rscale>  0 0.18470234E+04</rscale>
<asrwt>0</asrwt>
<pdfrwt beam="1">  1        2 0.20077939E+00 0.18470234E+04</pdfrwt>
<pdfrwt beam="2">  1       -1 0.10054002E+00 0.18470234E+04</pdfrwt>
<totfact> 0.16573577E+01</totfact>
</mgrwt>
</event>
<event>
12    6  0.1494052E-007  0.1508864E+04  0.7818608E-02  0.8878580E-01
          2   -1    0    0  501    0  0.00000000000E+00  0.00000000000E+00  0.17229195271E+04  0.17229195271E+04  0.00000000000E+00 0. -1.
         -1   -1    0    0    0  501 -0.00000000000E+00 -0.00000000000E+00 -0.33035079813E+03  0.33035079813E+03  0.00000000000E+00 0.  1.
         24    2    1    2    0    0  0.19775830573E+03 -0.17234380345E+03 -0.98708489642E+02  0.29127577239E+03  0.79293603657E+02 0.  0.
        254    2    1    2    0    0 -0.19775830573E+03  0.17234380345E+03  0.14912772186E+04  0.17619945529E+04  0.90105844837E+03 0.  0.
         23    2    4    4    0    0 -0.90557314757E+02 -0.20148544355E+02 -0.91887000677E+02  0.16086949198E+03  0.93963724170E+02 0.  0.
         23    2    4    4    0    0 -0.10720099098E+03  0.19249234781E+03  0.15831642193E+04  0.16011250609E+04  0.92990100662E+02 0.  0.
          2    1    3    3  502    0  0.62645762603E+02 -0.18024126312E+02 -0.38706648701E+01  0.65301935254E+02  0.00000000000E+00 0. -1.
         -3    1    3    3    0  502  0.13511254313E+03 -0.15431967714E+03 -0.94837824772E+02  0.22597383714E+03  0.00000000000E+00 0.  1.
         11    1    5    5    0    0 -0.33548809127E+02  0.15159777684E+02 -0.86007122517E+02  0.93555152594E+02  0.00000000000E+00 0.  1.
        -11    1    5    5    0    0 -0.57008505629E+02 -0.35308322039E+02 -0.58798781601E+01  0.67314339382E+02  0.00000000000E+00 0. -1.
          2    1    6    6  503    0 -0.68246114219E+02  0.54069674952E+02  0.40742710001E+03  0.41662681584E+03  0.00000000000E+00 0.  1.
         -2    1    6    6    0  503 -0.38954876760E+02  0.13842267286E+03  0.11757371193E+04  0.11844982450E+04  0.00000000000E+00 0. -1.
<mgrwt>
<rscale>  0 0.15088643E+04</rscale>
<asrwt>0</asrwt>
<pdfrwt beam="1">  1        2 0.26506454E+00 0.15088643E+04</pdfrwt>
<pdfrwt beam="2">  1       -1 0.50823201E-01 0.15088643E+04</pdfrwt>
<totfact> 0.40753842E+01</totfact>
</mgrwt>
</event>
<event>
12    6  0.1494052E-007  0.1260929E+04  0.7818608E-02  0.9061136E-01
         -1   -1    0    0    0  501 -0.00000000000E+00  0.00000000000E+00  0.64663307034E+03  0.64663307034E+03  0.00000000000E+00 0.  1.
          2   -1    0    0  501    0  0.00000000000E+00 -0.00000000000E+00 -0.61470012102E+03  0.61470012102E+03  0.00000000000E+00 0. -1.
         24    2    1    2    0    0  0.22485920943E+03  0.10922913084E+03 -0.15767945690E+03  0.30626246264E+03  0.80257197826E+02 0.  0.
        254    2    1    2    0    0 -0.22485920943E+03 -0.10922913084E+03  0.18961240622E+03  0.95507072872E+03  0.90206128681E+03 0.  0.
         23    2    4    4    0    0 -0.49527501606E+03 -0.34432165882E+02  0.35491275858E+03  0.61740392207E+03  0.93496637374E+02 0.  0.
         23    2    4    4    0    0  0.27041580663E+03 -0.74796964959E+02 -0.16530035236E+03  0.33766680665E+03  0.89304934789E+02 0.  0.
          2    1    3    3  502    0  0.15152844098E+03  0.50302459735E+02 -0.13598188648E+03  0.20971952539E+03  0.00000000000E+00 0. -1.
         -1    1    3    3    0  502  0.73330768452E+02  0.58926671107E+02 -0.21697570418E+02  0.96542937243E+02  0.00000000000E+00 0.  1.
         11    1    5    5    0    0 -0.41578342519E+03 -0.35584536349E+01  0.32237252143E+03  0.52612979561E+03  0.00000000000E+00 0. -1.
        -11    1    5    5    0    0 -0.79491590872E+02 -0.30873712247E+02  0.32540237156E+02  0.91274126462E+02  0.00000000000E+00 0.  1.
          2    1    6    6  503    0  0.27058130046E+03 -0.58397678522E+02 -0.16263229875E+03  0.32105107633E+03  0.00000000000E+00 0. -1.
         -2    1    6    6    0  503 -0.16549383095E+00 -0.16399286436E+02 -0.26680536075E+01  0.16615730314E+02  0.00000000000E+00 0.  1.
<mgrwt>
<rscale>  0 0.12609289E+04</rscale>
<asrwt>0</asrwt>
<pdfrwt beam="1">  1        2 0.94569249E-01 0.12609289E+04</pdfrwt>
<pdfrwt beam="2">  1       -1 0.99482011E-01 0.12609289E+04</pdfrwt>
<totfact> 0.52192362E+01</totfact>
</mgrwt>
</event>
<event>
12    6  0.1494052E-007  0.1271308E+04  0.7818608E-02  0.9052633E-01
          2   -1    0    0  501    0  0.00000000000E+00  0.00000000000E+00  0.18248400714E+04  0.18248400714E+04  0.00000000000E+00 0. -1.
         -1   -1    0    0    0  501 -0.00000000000E+00 -0.00000000000E+00 -0.22142001043E+03  0.22142001043E+03  0.00000000000E+00 0.  1.
         24    2    1    2    0    0  0.25139304763E+03  0.16230316084E+03  0.40596515739E+03  0.51025182083E+03  0.77514071154E+02 0.  0.
        254    2    1    2    0    0 -0.25139304763E+03 -0.16230316084E+03  0.11974549036E+04  0.15360082610E+04  0.91426601781E+03 0.  0.
         23    2    4    4    0    0 -0.42670794424E+03 -0.10031874335E+02  0.12098448723E+04  0.12859654273E+04  0.88329820313E+02 0.  0.
         23    2    4    4    0    0  0.17531489661E+03 -0.15227128651E+03 -0.12389968655E+02  0.25004283369E+03  0.91902392201E+02 0.  0.
          2    1    3    3  502    0  0.24647669510E+03  0.13630982620E+03  0.38158547654E+03  0.47427692950E+03  0.00000000000E+00 0. -1.
         -1    1    3    3    0  502  0.49163525290E+01  0.25993334638E+02  0.24379680848E+02  0.35974891327E+02  0.00000000000E+00 0.  1.
         11    1    5    5    0    0 -0.13130809514E+03  0.36456885146E+02  0.40952505671E+03  0.43160362880E+03  0.00000000000E+00 0.  1.
        -11    1    5    5    0    0 -0.29539984910E+03 -0.46488759481E+02  0.80031981555E+03  0.85436179851E+03  0.00000000000E+00 0. -1.
          1    1    6    6  503    0  0.76128224631E+02 -0.10123895215E+03  0.30915608311E+02  0.13038637526E+03  0.00000000000E+00 0. -1.
         -1    1    6    6    0  503  0.99186671976E+02 -0.51032334358E+02 -0.43305576965E+02  0.11965645843E+03  0.00000000000E+00 0.  1.
<mgrwt>
<rscale>  0 0.12713082E+04</rscale>
<asrwt>0</asrwt>
<pdfrwt beam="1">  1        2 0.28074462E+00 0.12713082E+04</pdfrwt>
<pdfrwt beam="2">  1       -1 0.34064618E-01 0.12713082E+04</pdfrwt>
<totfact> 0.76197799E+01</totfact>
</mgrwt>
</event>
<event>
12    6  0.1494052E-007  0.2075446E+04  0.7818608E-02  0.8572138E-01
          2   -1    0    0  501    0  0.00000000000E+00  0.00000000000E+00  0.32147097281E+04  0.32147097281E+04  0.00000000000E+00 0. -1.
         -1   -1    0    0    0  501 -0.00000000000E+00 -0.00000000000E+00 -0.33498158035E+03  0.33498158035E+03  0.00000000000E+00 0.  1.
         24    2    1    2    0    0  0.25888011127E+03  0.93598456013E+02 -0.17941508135E+03  0.33684380170E+03  0.74124168432E+02 0.  0.
        254    2    1    2    0    0 -0.25888011127E+03 -0.93598456013E+02  0.30591432291E+04  0.32128475067E+04  0.94247133775E+03 0.  0.
         23    2    4    4    0    0  0.20995894743E+03 -0.20971032150E+03  0.38768061997E+03  0.49655443461E+03  0.90602786301E+02 0.  0.
         23    2    4    4    0    0 -0.46883905871E+03  0.11611186549E+03  0.26714626091E+04  0.27162930721E+04  0.90794016621E+02 0.  0.
          4    1    3    3  502    0  0.35612246013E+02  0.23155937961E+02 -0.61405822163E+02  0.74666622559E+02  0.00000000000E+00 0. -1.
         -3    1    3    3    0  502  0.22326786526E+03  0.70442518052E+02 -0.11800925919E+03  0.26217717914E+03  0.00000000000E+00 0.  1.
         11    1    5    5    0    0  0.25291334632E+02 -0.16547800565E+02  0.97463628111E+02  0.10204234472E+03  0.00000000000E+00 0.  1.
        -11    1    5    5    0    0  0.18466761280E+03 -0.19316252093E+03  0.29021699186E+03  0.39451208990E+03  0.00000000000E+00 0. -1.
          2    1    6    6  503    0 -0.32501951872E+03  0.12189269606E+03  0.18374889035E+04  0.18699895688E+04  0.00000000000E+00 0. -1.
         -2    1    6    6    0  503 -0.14381953999E+03 -0.57808305751E+01  0.83397370556E+03  0.84630350327E+03  0.00000000000E+00 0.  1.
<mgrwt>
<rscale>  0 0.20754455E+04</rscale>
<asrwt>0</asrwt>
<pdfrwt beam="1">  1        2 0.49457071E+00 0.20754455E+04</pdfrwt>
<pdfrwt beam="2">  1       -1 0.51535630E-01 0.20754455E+04</pdfrwt>
<totfact> 0.50644867E+00</totfact>
</mgrwt>
</event>
<event>
12    6  0.1494052E-007  0.2096808E+04  0.7818608E-02  0.8562651E-01
          2   -1    0    0  501    0  0.00000000000E+00  0.00000000000E+00  0.38240325234E+04  0.38240325234E+04  0.00000000000E+00 0. -1.
         -1   -1    0    0    0  501 -0.00000000000E+00 -0.00000000000E+00 -0.28743250400E+03  0.28743250400E+03  0.00000000000E+00 0.  1.
         24    2    1    2    0    0 -0.32303825470E+03 -0.13761770047E+03 -0.75890138397E+02  0.36779542921E+03  0.78878508814E+02 0.  0.
        254    2    1    2    0    0  0.32303825470E+03  0.13761770047E+03  0.36124901578E+04  0.37436695982E+04  0.91743368957E+03 0.  0.
         23    2    4    4    0    0 -0.29892494556E+03  0.20361633228E+02  0.16523534849E+04  0.16818495675E+04  0.92602426413E+02 0.  0.
         23    2    4    4    0    0  0.62196320026E+03  0.11725606724E+03  0.19601366728E+04  0.20618200307E+04  0.91536084853E+02 0.  0.
          4    1    3    3  502    0  0.20339382933E+01 -0.78063056359E+01  0.36262321549E+01  0.88444825910E+01  0.00000000000E+00 0. -1.
         -3    1    3    3    0  502 -0.32507219300E+03 -0.12981139484E+03 -0.79516370551E+02  0.35895094661E+03  0.00000000000E+00 0.  1.
         11    1    5    5    0    0 -0.29040543187E+02  0.88545712344E+01  0.65832644169E+02  0.72496162786E+02  0.00000000000E+00 0. -1.
        -11    1    5    5    0    0 -0.26988440237E+03  0.11507061994E+02  0.15865208408E+04  0.16093534047E+04  0.00000000000E+00 0.  1.
          1    1    6    6  503    0  0.43069760993E+03  0.60047565541E+02  0.14574203985E+04  0.15209143169E+04  0.00000000000E+00 0. -1.
         -1    1    6    6    0  503  0.19126559033E+03  0.57208501703E+02  0.50271627432E+03  0.54090571376E+03  0.00000000000E+00 0.  1.
<mgrwt>
<rscale>  0 0.20968083E+04</rscale>
<asrwt>0</asrwt>
<pdfrwt beam="1">  1        2 0.58831266E+00 0.20968083E+04</pdfrwt>
<pdfrwt beam="2">  1       -1 0.44220388E-01 0.20968083E+04</pdfrwt>
<totfact> 0.25169685E+00</totfact>
</mgrwt>
</event>
<event>
12    6  0.1494052E-007  0.1551792E+04  0.7818608E-02  0.8850724E-01
          2   -1    0    0  501    0  0.00000000000E+00  0.00000000000E+00  0.13775649781E+04  0.13775649781E+04  0.00000000000E+00 0. -1.
         -1   -1    0    0    0  501 -0.00000000000E+00 -0.00000000000E+00 -0.43701356366E+03  0.43701356366E+03  0.00000000000E+00 0.  1.
         24    2    1    2    0    0 -0.15730874808E+03 -0.39361832363E+03 -0.21886285367E+02  0.43174557477E+03  0.79017750721E+02 0.  0.
        254    2    1    2    0    0  0.15730874808E+03  0.39361832363E+03  0.96243769976E+03  0.13828329669E+04  0.89791940709E+03 0.  0.
         23    2    4    4    0    0  0.30112427534E+03 -0.15841022512E+03  0.61540010178E+03  0.70888980317E+03  0.89653996871E+02 0.  0.
         23    2    4    4    0    0 -0.14381552726E+03  0.55202854875E+03  0.34703759799E+03  0.67394316377E+03  0.91355728130E+02 0.  0.
          2    1    3    3  502    0 -0.73721385924E+02 -0.11641950364E+03  0.19867552031E+02  0.13922306991E+03  0.00000000000E+00 0. -1.
         -1    1    3    3    0  502 -0.83587362159E+02 -0.27719881999E+03 -0.41753837399E+02  0.29252250487E+03  0.00000000000E+00 0.  1.
         11    1    5    5    0    0  0.21431600634E+03 -0.11794417437E+03  0.51492596876E+03  0.57007975946E+03  0.00000000000E+00 0.  1.
        -11    1    5    5    0    0  0.86808269006E+02 -0.40466050748E+02  0.10047413301E+03  0.13881004371E+03  0.00000000000E+00 0. -1.
          3    1    6    6  503    0 -0.60975777632E+02  0.30762985511E+03  0.23845334965E+03  0.39397230000E+03  0.00000000000E+00 0. -1.
         -3    1    6    6    0  503 -0.82839749630E+02  0.24439869364E+03  0.10858424834E+03  0.27997086377E+03  0.00000000000E+00 0.  1.
<mgrwt>
<rscale>  0 0.15517920E+04</rscale>
<asrwt>0</asrwt>
<pdfrwt beam="1">  1        2 0.21193307E+00 0.15517920E+04</pdfrwt>
<pdfrwt beam="2">  1       -1 0.67232856E-01 0.15517920E+04</pdfrwt>
<totfact> 0.36640906E+01</totfact>
</mgrwt>
</event>
<event>
12    6  0.1494052E-007  0.1996908E+04  0.7818608E-02  0.8608067E-01
          2   -1    0    0  501    0  0.00000000000E+00  0.00000000000E+00  0.55764206234E+03  0.55764206234E+03  0.00000000000E+00 0. -1.
         -1   -1    0    0    0  501 -0.00000000000E+00 -0.00000000000E+00 -0.17877250600E+04  0.17877250600E+04  0.00000000000E+00 0.  1.
         24    2    1    2    0    0 -0.57912900141E+03 -0.51674466348E+03 -0.31851072242E+03  0.84268882741E+03  0.79119732276E+02 0.  0.
        254    2    1    2    0    0  0.57912900141E+03  0.51674466348E+03 -0.91157227526E+03  0.15026782950E+04  0.90810935331E+03 0.  0.
         23    2    4    4    0    0  0.45138241794E+03  0.69611225598E+03 -0.94608582359E+03  0.12616001662E+04  0.90764715019E+02 0.  0.
         23    2    4    4    0    0  0.12774658347E+03 -0.17936759250E+03  0.34513548328E+02  0.24107812879E+03  0.91845284778E+02 0.  0.
          4    1    3    3  502    0 -0.50452951089E+03 -0.48207923701E+03 -0.28898988304E+03  0.75529171226E+03  0.00000000000E+00 0. -1.
         -3    1    3    3    0  502 -0.74599490522E+02 -0.34665426473E+02 -0.29520839379E+02  0.87397115149E+02  0.00000000000E+00 0.  1.
         11    1    5    5    0    0  0.16259005478E+02  0.42310623095E+02 -0.83777907772E+02  0.95253776389E+02  0.00000000000E+00 0.  1.
        -11    1    5    5    0    0  0.43512341246E+03  0.65380163289E+03 -0.86230791582E+03  0.11663463898E+04  0.00000000000E+00 0. -1.
          3    1    6    6  503    0  0.63132221712E+02 -0.13920864446E+03 -0.95643895060E+01  0.15315417610E+03  0.00000000000E+00 0. -1.
         -3    1    6    6    0  503  0.64614361757E+02 -0.40158948042E+02  0.44077937834E+02  0.87923952691E+02  0.00000000000E+00 0.  1.
<mgrwt>
<rscale>  0 0.19969083E+04</rscale>
<asrwt>0</asrwt>
<pdfrwt beam="1">  1        2 0.85791087E-01 0.19969083E+04</pdfrwt>
<pdfrwt beam="2">  1       -1 0.27503462E+00 0.19969083E+04</pdfrwt>
<totfact> 0.27556541E+00</totfact>
</mgrwt>
</event>
<event>
12    6  0.1494052E-007  0.1066601E+04  0.7818608E-02  0.9238371E-01
         -1   -1    0    0    0  501 -0.00000000000E+00  0.00000000000E+00  0.18017528051E+03  0.18017528051E+03  0.00000000000E+00 0.  1.
          2   -1    0    0  501    0  0.00000000000E+00 -0.00000000000E+00 -0.15785146047E+04  0.15785146047E+04  0.00000000000E+00 0. -1.
         24    2    1    2    0    0  0.54580003738E+02 -0.12736451212E+03 -0.20316287914E+03  0.25859929475E+03  0.79985898959E+02 0.  0.
        254    2    1    2    0    0 -0.54580003738E+02  0.12736451212E+03 -0.11951764451E+04  0.15000905905E+04  0.89589304551E+03 0.  0.
         23    2    4    4    0    0  0.23769804175E+03  0.74089180700E+02  0.16002716478E+00  0.26498468251E+03  0.90704413396E+02 0.  0.
         23    2    4    4    0    0 -0.29227804549E+03  0.53275331421E+02 -0.11953364722E+04  0.12351059079E+04  0.91611163037E+02 0.  0.
          4    1    3    3  502    0  0.20986061401E+02 -0.73110988345E+02 -0.17096945364E+03  0.18712612182E+03  0.00000000000E+00 0. -1.
         -3    1    3    3    0  502  0.33593942337E+02 -0.54253523775E+02 -0.32193425496E+02  0.71473172932E+02  0.00000000000E+00 0.  1.
         11    1    5    5    0    0  0.21185052305E+03  0.94506928846E+02 -0.18851734343E+01  0.23198223551E+03  0.00000000000E+00 0.  1.
        -11    1    5    5    0    0  0.25847518701E+02 -0.20417748146E+02  0.20452005991E+01  0.33002446998E+02  0.00000000000E+00 0. -1.
          3    1    6    6  503    0  0.64693915672E+01 -0.22771426685E+01 -0.20965487726E+02  0.22058786947E+02  0.00000000000E+00 0. -1.
         -3    1    6    6    0  503 -0.29874743705E+03  0.55552474089E+02 -0.11743709845E+04  0.12130471210E+04  0.00000000000E+00 0.  1.
<mgrwt>
<rscale>  0 0.10666008E+04</rscale>
<asrwt>0</asrwt>
<pdfrwt beam="1">  1        2 0.24284839E+00 0.10666008E+04</pdfrwt>
<pdfrwt beam="2">  1       -1 0.27719275E-01 0.10666008E+04</pdfrwt>
<totfact> 0.15218509E+02</totfact>
</mgrwt>
</event>
<event>
12    6  0.1494052E-007  0.1717175E+04  0.7818608E-02  0.8751629E-01
          2   -1    0    0  501    0  0.00000000000E+00  0.00000000000E+00  0.63032418583E+03  0.63032418583E+03  0.00000000000E+00 0. -1.
         -1   -1    0    0    0  501 -0.00000000000E+00 -0.00000000000E+00 -0.11695138653E+04  0.11695138653E+04  0.00000000000E+00 0.  1.
         24    2    1    2    0    0  0.80923104394E+02 -0.20455773012E+03 -0.65720346594E+03  0.69838564384E+03  0.86218896382E+02 0.  0.
        254    2    1    2    0    0 -0.80923104394E+02  0.20455773012E+03  0.11801378644E+03  0.11014524073E+04  0.10727896989E+04 0.  0.
         23    2    4    4    0    0 -0.21338006428E+03  0.74504035748E+02 -0.44180969365E+03  0.50479732718E+03  0.92426365041E+02 0.  0.
         23    2    4    4    0    0  0.13245695989E+03  0.13005369437E+03  0.55982348009E+03  0.59665508015E+03  0.90200588524E+02 0.  0.
          2    1    3    3  502    0 -0.14666288024E+02 -0.33461574426E+02 -0.64617213319E+02  0.74230460221E+02  0.00000000000E+00 0. -1.
         -1    1    3    3    0  502  0.95589392418E+02 -0.17109615570E+03 -0.59258625262E+03  0.62415518362E+03  0.00000000000E+00 0.  1.
         11    1    5    5    0    0 -0.91374777237E+02  0.56196363320E+02 -0.12445541484E+03  0.16430621244E+03  0.00000000000E+00 0. -1.
        -11    1    5    5    0    0 -0.12200528704E+03  0.18307672428E+02 -0.31735427881E+03  0.34049111474E+03  0.00000000000E+00 0.  1.
          2    1    6    6  503    0  0.25799799626E+02 -0.80935723332E+01  0.39724836309E+02  0.48054117343E+02  0.00000000000E+00 0. -1.
         -2    1    6    6    0  503  0.10665716026E+03  0.13814726671E+03  0.52009864378E+03  0.54860096281E+03  0.00000000000E+00 0.  1.
<mgrwt>
<rscale>  0 0.17171754E+04</rscale>
<asrwt>0</asrwt>
<pdfrwt beam="1">  1        2 0.96972952E-01 0.17171754E+04</pdfrwt>
<pdfrwt beam="2">  1       -1 0.17992521E+00 0.17171754E+04</pdfrwt>
<totfact> 0.10561187E+01</totfact>
</mgrwt>
</event>
<event>
12    6  0.1494052E-007  0.3019346E+04  0.7818608E-02  0.8238228E-01
          2   -1    0    0  501    0  0.00000000000E+00  0.00000000000E+00  0.15596723294E+04  0.15596723294E+04  0.00000000000E+00 0. -1.
         -1   -1    0    0    0  501 -0.00000000000E+00 -0.00000000000E+00 -0.14612761191E+04  0.14612761191E+04  0.00000000000E+00 0.  1.
         24    2    1    2    0    0  0.67713853199E+03  0.29529335271E+03  0.12025731559E+04  0.14136224967E+04  0.80197331840E+02 0.  0.
        254    2    1    2    0    0 -0.67713853199E+03 -0.29529335271E+03 -0.11041769456E+04  0.16073259518E+04  0.90475147557E+03 0.  0.
         23    2    4    4    0    0 -0.25322059827E+03  0.15325863190E+03 -0.89705096404E+03  0.94899970166E+03  0.91055598544E+02 0.  0.
         23    2    4    4    0    0 -0.42391793372E+03 -0.44855198461E+03 -0.20712598153E+03  0.65832625015E+03  0.97913134872E+02 0.  0.
          4    1    3    3  502    0  0.22295255102E+03  0.13902468982E+03  0.42380019487E+03  0.49864046121E+03  0.00000000000E+00 0. -1.
         -3    1    3    3    0  502  0.45418598098E+03  0.15626866289E+03  0.77877296106E+03  0.91498203545E+03  0.00000000000E+00 0.  1.
         11    1    5    5    0    0 -0.16145325970E+03  0.10387315954E+03 -0.43729884474E+03  0.47758461862E+03  0.00000000000E+00 0.  1.
        -11    1    5    5    0    0 -0.91767338573E+02  0.49385472358E+02 -0.45975211930E+03  0.47141508303E+03  0.00000000000E+00 0. -1.
          1    1    6    6  503    0 -0.14562315315E+03 -0.90711016681E+02 -0.55235147325E+02  0.18023737898E+03  0.00000000000E+00 0. -1.
         -1    1    6    6    0  503 -0.27829478058E+03 -0.35784096793E+03 -0.15189083421E+03  0.47808887117E+03  0.00000000000E+00 0.  1.
<mgrwt>
<rscale>  0 0.30193456E+04</rscale>
<asrwt>0</asrwt>
<pdfrwt beam="1">  1        2 0.23994959E+00 0.30193456E+04</pdfrwt>
<pdfrwt beam="2">  1       -1 0.22481171E+00 0.30193456E+04</pdfrwt>
<totfact> 0.11682428E+00</totfact>
</mgrwt>
</event>
<event>
12    6  0.1494052E-007  0.1996274E+04  0.7818608E-02  0.8608364E-01
          2   -1    0    0  501    0  0.00000000000E+00  0.00000000000E+00  0.12755180592E+04  0.12755180592E+04  0.00000000000E+00 0. -1.
         -1   -1    0    0    0  501 -0.00000000000E+00 -0.00000000000E+00 -0.78107705663E+03  0.78107705663E+03  0.00000000000E+00 0.  1.
         24    2    1    2    0    0  0.22102038299E+03  0.24575943866E+03 -0.54748549085E+03  0.64599335135E+03  0.91210393621E+02 0.  0.
        254    2    1    2    0    0 -0.22102038299E+03 -0.24575943866E+03  0.10419264934E+04  0.14106017645E+04  0.89159341006E+03 0.  0.
         23    2    4    4    0    0  0.15206886937E+03  0.25741859414E+03  0.41679467673E+03  0.52114186173E+03  0.92096492094E+02 0.  0.
         23    2    4    4    0    0 -0.37308925235E+03 -0.50317803279E+03  0.62513181669E+03  0.88945990275E+03  0.89249131374E+02 0.  0.
          2    1    3    3  502    0  0.11922134692E+03  0.83530250981E+02 -0.17912456822E+03  0.23081733759E+03  0.00000000000E+00 0. -1.
         -1    1    3    3    0  502  0.10179903606E+03  0.16222918768E+03 -0.36836092263E+03  0.41517601375E+03  0.00000000000E+00 0.  1.
         11    1    5    5    0    0  0.10094144833E+03  0.11850029977E+03  0.27587826805E+03  0.31676539555E+03  0.00000000000E+00 0. -1.
        -11    1    5    5    0    0  0.51127421042E+02  0.13891829437E+03  0.14091640869E+03  0.20437646618E+03  0.00000000000E+00 0.  1.
          2    1    6    6  503    0 -0.53891965611E+02 -0.69920398350E+02  0.48500117249E+02  0.10072471115E+03  0.00000000000E+00 0.  1.
         -2    1    6    6    0  503 -0.31919728674E+03 -0.43325763445E+03  0.57663169944E+03  0.78873519160E+03  0.00000000000E+00 0. -1.
<mgrwt>
<rscale>  0 0.19962744E+04</rscale>
<asrwt>0</asrwt>
<pdfrwt beam="1">  1        2 0.19623355E+00 0.19962744E+04</pdfrwt>
<pdfrwt beam="2">  1       -1 0.12016570E+00 0.19962744E+04</pdfrwt>
<totfact> 0.11169093E+01</totfact>
</mgrwt>
</event>
<event>
12    6  0.1494052E-007  0.1652859E+04  0.7818608E-02  0.8788717E-01
          2   -1    0    0  501    0  0.00000000000E+00  0.00000000000E+00  0.74234925129E+03  0.74234925129E+03  0.00000000000E+00 0. -1.
         -1   -1    0    0    0  501 -0.00000000000E+00 -0.00000000000E+00 -0.92003233476E+03  0.92003233476E+03  0.00000000000E+00 0.  1.
         24    2    1    2    0    0  0.98222933255E+02 -0.97652523548E+02 -0.62671476716E+03  0.64641391881E+03  0.76784080930E+02 0.  0.
        254    2    1    2    0    0 -0.98222933255E+02  0.97652523548E+02  0.44903168369E+03  0.10159676672E+04  0.90076472397E+03 0.  0.
         23    2    4    4    0    0  0.62305765157E+02 -0.14218665528E+03  0.63551779376E+03  0.66057651478E+03  0.91539130321E+02 0.  0.
         23    2    4    4    0    0 -0.16052869841E+03  0.23983917883E+03 -0.18648611006E+03  0.35539115247E+03  0.90738675826E+02 0.  0.
          4    1    3    3  502    0  0.87836244884E+01  0.51200978694E+01 -0.15728988540E+03  0.15761813192E+03  0.00000000000E+00 0. -1.
         -3    1    3    3    0  502  0.89439308767E+02 -0.10277262142E+03 -0.46942488176E+03  0.48879578689E+03  0.00000000000E+00 0.  1.
         11    1    5    5    0    0 -0.20976499690E+00 -0.10259618227E+03  0.43224045061E+03  0.44424973581E+03  0.00000000000E+00 0. -1.
        -11    1    5    5    0    0  0.62515530154E+02 -0.39590473006E+02  0.20327734314E+03  0.21632677897E+03  0.00000000000E+00 0.  1.
          4    1    6    6  503    0 -0.16099007034E+03  0.18213434603E+03 -0.16508849149E+03  0.29384508295E+03  0.00000000000E+00 0. -1.
         -4    1    6    6    0  503  0.46137192834E+00  0.57704832800E+02 -0.21397618576E+02  0.61546069519E+02  0.00000000000E+00 0.  1.
<mgrwt>
<rscale>  0 0.16528585E+04</rscale>
<asrwt>0</asrwt>
<pdfrwt beam="1">  1        2 0.11420758E+00 0.16528585E+04</pdfrwt>
<pdfrwt beam="2">  1       -1 0.14154344E+00 0.16528585E+04</pdfrwt>
<totfact> 0.16880055E+01</totfact>
</mgrwt>
</event>
<event>
12    6  0.1494052E-007  0.1100492E+04  0.7818608E-02  0.9204713E-01
         -1   -1    0    0    0  501 -0.00000000000E+00  0.00000000000E+00  0.73142062441E+03  0.73142062441E+03  0.00000000000E+00 0.  1.
          2   -1    0    0  501    0  0.00000000000E+00 -0.00000000000E+00 -0.41394851281E+03  0.41394851281E+03  0.00000000000E+00 0. -1.
         24    2    1    2    0    0 -0.12680670059E+03  0.80286344444E+02  0.13073363206E+03  0.21482718270E+03  0.80830683889E+02 0.  0.
        254    2    1    2    0    0  0.12680670059E+03 -0.80286344444E+02  0.18673847954E+03  0.93054195452E+03  0.89917252681E+03 0.  0.
         23    2    4    4    0    0 -0.23418194522E+03  0.13240964383E+03 -0.20392117661E+03  0.34974761912E+03  0.91466133413E+02 0.  0.
         23    2    4    4    0    0  0.36098864581E+03 -0.21269598828E+03  0.39065965615E+03  0.58079433540E+03  0.95680234410E+02 0.  0.
          2    1    3    3  502    0 -0.10823394410E+01 -0.26599348571E+01 -0.89534982228E+01  0.94027571773E+01  0.00000000000E+00 0. -1.
         -1    1    3    3    0  502 -0.12572436115E+03  0.82946279301E+02  0.13968713028E+03  0.20542442552E+03  0.00000000000E+00 0.  1.
         11    1    5    5    0    0 -0.12615607364E+03  0.31833431675E+02 -0.58881708506E+02  0.14281378744E+03  0.00000000000E+00 0. -1.
        -11    1    5    5    0    0 -0.10802587159E+03  0.10057621216E+03 -0.14503946811E+03  0.20693383168E+03  0.00000000000E+00 0.  1.
          1    1    6    6  503    0  0.11444646759E+03 -0.19278805937E+02  0.11627215254E+03  0.16428292595E+03  0.00000000000E+00 0. -1.
         -1    1    6    6    0  503  0.24654217823E+03 -0.19341718234E+03  0.27438750361E+03  0.41651140945E+03  0.00000000000E+00 0.  1.
<mgrwt>
<rscale>  0 0.11004917E+04</rscale>
<asrwt>0</asrwt>
<pdfrwt beam="1">  1        2 0.63684387E-01 0.11004917E+04</pdfrwt>
<pdfrwt beam="2">  1       -1 0.11252625E+00 0.11004917E+04</pdfrwt>
<totfact> 0.62878355E+01</totfact>
</mgrwt>
</event>
<event>
12    6  0.1494052E-007  0.2516543E+04  0.7818608E-02  0.8397116E-01
          2   -1    0    0  501    0  0.00000000000E+00  0.00000000000E+00  0.29358485508E+04  0.29358485508E+04  0.00000000000E+00 0. -1.
         -1   -1    0    0    0  501 -0.00000000000E+00 -0.00000000000E+00 -0.53928082290E+03  0.53928082290E+03  0.00000000000E+00 0.  1.
         24    2    1    2    0    0  0.28727564761E+03 -0.93698542865E+03  0.17489530227E+04  0.20063677192E+04  0.78776632328E+02 0.  0.
        254    2    1    2    0    0 -0.28727564761E+03  0.93698542865E+03  0.64761470518E+03  0.14687616545E+04  0.88169552574E+03 0.  0.
         23    2    4    4    0    0 -0.37626917390E+03  0.17086869006E+03  0.53570713254E+03  0.68420453326E+03  0.10187792208E+03 0.  0.
         23    2    4    4    0    0  0.88993526287E+02  0.76611673859E+03  0.11190757264E+03  0.78455712123E+03  0.90287688988E+02 0.  0.
          2    1    3    3  502    0  0.20538804713E+03 -0.53865972758E+03  0.10357094593E+04  0.11853407257E+04  0.00000000000E+00 0. -1.
         -1    1    3    3    0  502  0.81887600484E+02 -0.39832570107E+03  0.71324356343E+03  0.82102699348E+03  0.00000000000E+00 0.  1.
         11    1    5    5    0    0 -0.15421912404E+03  0.12301137557E+03  0.22346222684E+03  0.29807835139E+03  0.00000000000E+00 0.  1.
        -11    1    5    5    0    0 -0.22205004986E+03  0.47857314483E+02  0.31224490570E+03  0.38612618187E+03  0.00000000000E+00 0. -1.
          3    1    6    6  503    0  0.36825322016E+02  0.57828245144E+03  0.10885052033E+03  0.58958895322E+03  0.00000000000E+00 0. -1.
         -3    1    6    6    0  503  0.52168204270E+02  0.18783428715E+03  0.30570523110E+01  0.19496816801E+03  0.00000000000E+00 0.  1.
<mgrwt>
<rscale>  0 0.25165427E+04</rscale>
<asrwt>0</asrwt>
<pdfrwt beam="1">  1        2 0.45166900E+00 0.25165427E+04</pdfrwt>
<pdfrwt beam="2">  1       -1 0.82966282E-01 0.25165427E+04</pdfrwt>
<totfact> 0.27900074E+00</totfact>
</mgrwt>
</event>
<event>
12    6  0.1494052E-007  0.1339415E+04  0.7818608E-02  0.8998880E-01
          2   -1    0    0  501    0  0.00000000000E+00  0.00000000000E+00  0.17173282242E+04  0.17173282242E+04  0.00000000000E+00 0. -1.
         -1   -1    0    0    0  501 -0.00000000000E+00 -0.00000000000E+00 -0.26116616890E+03  0.26116616890E+03  0.00000000000E+00 0.  1.
         24    2    1    2    0    0 -0.22509508203E+03 -0.52421484271E+02 -0.66524616358E+01  0.24476558508E+03  0.80312691563E+02 0.  0.
        254    2    1    2    0    0  0.22509508203E+03  0.52421484271E+02  0.14628145170E+04  0.17337288080E+04  0.90142856669E+03 0.  0.
         23    2    4    4    0    0  0.26792712789E+03 -0.38400817902E+03  0.83992330739E+03  0.96627989346E+03  0.94754645260E+02 0.  0.
         23    2    4    4    0    0 -0.42832045857E+02  0.43642966329E+03  0.62289120956E+03  0.76744891457E+03  0.93160841422E+02 0.  0.
          4    1    3    3  502    0 -0.13801295928E+03  0.20051533010E+01  0.17889874711E+02  0.13918205770E+03  0.00000000000E+00 0. -1.
         -3    1    3    3    0  502 -0.87082122751E+02 -0.54426637572E+02 -0.24542336347E+02  0.10558352738E+03  0.00000000000E+00 0.  1.
         11    1    5    5    0    0  0.66937725315E+02 -0.55084728759E+02  0.21777371584E+03  0.23439363840E+03  0.00000000000E+00 0. -1.
        -11    1    5    5    0    0  0.20098940257E+03 -0.32892345026E+03  0.62214959155E+03  0.73188625506E+03  0.00000000000E+00 0.  1.
          1    1    6    6  503    0  0.42476104658E+01  0.55960161210E+02  0.14034533397E+03  0.15115023851E+03  0.00000000000E+00 0. -1.
         -1    1    6    6    0  503 -0.47079656322E+02  0.38046950208E+03  0.48254587559E+03  0.61629867605E+03  0.00000000000E+00 0.  1.
<mgrwt>
<rscale>  0 0.13394148E+04</rscale>
<asrwt>0</asrwt>
<pdfrwt beam="1">  1        2 0.26420434E+00 0.13394148E+04</pdfrwt>
<pdfrwt beam="2">  1       -1 0.40179412E-01 0.13394148E+04</pdfrwt>
<totfact> 0.64524886E+01</totfact>
</mgrwt>
</event>
<event>
12    6  0.1494052E-007  0.1286170E+04  0.7818608E-02  0.9040605E-01
          2   -1    0    0  501    0  0.00000000000E+00  0.00000000000E+00  0.59082660804E+03  0.59082660804E+03  0.00000000000E+00 0. -1.
         -1   -1    0    0    0  501 -0.00000000000E+00 -0.00000000000E+00 -0.69996545113E+03  0.69996545113E+03  0.00000000000E+00 0.  1.
         24    2    1    2    0    0  0.27498821984E+03  0.15302753264E+02  0.10093424580E+03  0.30426314140E+03  0.80843317160E+02 0.  0.
        254    2    1    2    0    0 -0.27498821984E+03 -0.15302753264E+02 -0.21007308889E+03  0.98652891777E+03  0.92371852185E+03 0.  0.
         23    2    4    4    0    0  0.10538893942E+03 -0.25069963405E+03  0.21797486806E+03  0.36044074683E+03  0.91909487038E+02 0.  0.
         23    2    4    4    0    0 -0.38037715926E+03  0.23539688078E+03 -0.42804795695E+03  0.62608817094E+03  0.93074537719E+02 0.  0.
          4    1    3    3  502    0  0.25155520221E+03  0.41288332632E+01  0.11280032465E+03  0.27571902413E+03  0.00000000000E+00 0. -1.
         -3    1    3    3    0  502  0.23433017634E+02  0.11173920001E+02 -0.11866078854E+02  0.28544117274E+02  0.00000000000E+00 0.  1.
         11    1    5    5    0    0  0.76800414136E+02 -0.24641283453E+03  0.19801214661E+03  0.32530969681E+03  0.00000000000E+00 0.  1.
        -11    1    5    5    0    0  0.28588525282E+02 -0.42867995142E+01  0.19962721448E+02  0.35131050019E+02  0.00000000000E+00 0. -1.
          1    1    6    6  503    0 -0.34577699922E+02  0.23774428098E+02 -0.85861083954E+02  0.95566555348E+02  0.00000000000E+00 0. -1.
         -1    1    6    6    0  503 -0.34579945934E+03  0.21162245268E+03 -0.34218687300E+03  0.53052161559E+03  0.00000000000E+00 0.  1.
<mgrwt>
<rscale>  0 0.12861698E+04</rscale>
<asrwt>0</asrwt>
<pdfrwt beam="1">  1        2 0.90896402E-01 0.12861698E+04</pdfrwt>
<pdfrwt beam="2">  1       -1 0.10768699E+00 0.12861698E+04</pdfrwt>
<totfact> 0.45486789E+01</totfact>
</mgrwt>
</event>
<event>
12    6  0.1494052E-007  0.1304341E+04  0.7818608E-02  0.9026130E-01
         -1   -1    0    0    0  501 -0.00000000000E+00  0.00000000000E+00  0.60248369344E+03  0.60248369344E+03  0.00000000000E+00 0.  1.
          2   -1    0    0  501    0  0.00000000000E+00 -0.00000000000E+00 -0.70595484325E+03  0.70595484325E+03  0.00000000000E+00 0. -1.
         24    2    1    2    0    0  0.12379922026E+03  0.13376634396E+03  0.25573281056E+03  0.32421417539E+03  0.80597018620E+02 0.  0.
        254    2    1    2    0    0 -0.12379922026E+03 -0.13376634396E+03 -0.35920396038E+03  0.98422436131E+03  0.89802584959E+03 0.  0.
         23    2    4    4    0    0 -0.34828706225E+03  0.15312401175E+03 -0.45161501235E+03  0.59736205365E+03  0.90191258166E+02 0.  0.
         23    2    4    4    0    0  0.22448784199E+03 -0.28689035571E+03  0.92411051976E+02  0.38686230766E+03  0.91770230247E+02 0.  0.
          2    1    3    3  502    0 -0.77313376063E+01  0.23498678449E+02  0.16330052331E+02  0.29641728681E+02  0.00000000000E+00 0. -1.
         -1    1    3    3    0  502  0.13153055787E+03  0.11026766551E+03  0.23940275823E+03  0.29457244671E+03  0.00000000000E+00 0.  1.
         11    1    5    5    0    0 -0.62914991248E+01 -0.92378727438E+01 -0.61453554057E+01  0.12754867586E+02  0.00000000000E+00 0. -1.
        -11    1    5    5    0    0 -0.34199556313E+03  0.16236188449E+03 -0.44546965695E+03  0.58460718606E+03  0.00000000000E+00 0.  1.
          2    1    6    6  503    0  0.45404229456E+02 -0.10929525184E+03  0.28563603233E+00  0.11835150069E+03  0.00000000000E+00 0. -1.
         -2    1    6    6    0  503  0.17908361253E+03 -0.17759510386E+03  0.92125415943E+02  0.26851080697E+03  0.00000000000E+00 0.  1.
<mgrwt>
<rscale>  0 0.13043409E+04</rscale>
<asrwt>0</asrwt>
<pdfrwt beam="1">  1        2 0.10860844E+00 0.13043409E+04</pdfrwt>
<pdfrwt beam="2">  1       -1 0.92689799E-01 0.13043409E+04</pdfrwt>
<totfact> 0.51356676E+01</totfact>
</mgrwt>
</event>
<event>
12    6  0.1494052E-007  0.1276787E+04  0.7818608E-02  0.9048178E-01
         -1   -1    0    0    0  501 -0.00000000000E+00  0.00000000000E+00  0.48129392308E+03  0.48129392308E+03  0.00000000000E+00 0.  1.
          2   -1    0    0  501    0  0.00000000000E+00 -0.00000000000E+00 -0.84677241725E+03  0.84677241725E+03  0.00000000000E+00 0. -1.
         24    2    1    2    0    0 -0.94125832812E+02  0.10941287595E+03 -0.37716049563E+03  0.41156479701E+03  0.79402096027E+02 0.  0.
        254    2    1    2    0    0  0.94125832812E+02 -0.10941287595E+03  0.11682001465E+02  0.91650154332E+03  0.90499047504E+03 0.  0.
         23    2    4    4    0    0 -0.58629620157E+02 -0.45418014016E+03  0.17048407999E+03  0.49693168087E+03  0.90328521804E+02 0.  0.
         23    2    4    4    0    0  0.15275545297E+03  0.34476726421E+03 -0.15880207852E+03  0.41956986245E+03  0.92855126125E+02 0.  0.
          2    1    3    3  502    0 -0.10544959750E+03  0.11102016833E+03 -0.34578723517E+03  0.37817179614E+03  0.00000000000E+00 0. -1.
         -1    1    3    3    0  502  0.11323764692E+02 -0.16072923810E+01 -0.31373260457E+02  0.33393000873E+02  0.00000000000E+00 0.  1.
         11    1    5    5    0    0 -0.18443931539E+02 -0.70260845334E+02  0.63193983451E+02  0.96282109149E+02  0.00000000000E+00 0.  1.
        -11    1    5    5    0    0 -0.40185688618E+02 -0.38391929482E+03  0.10729009654E+03  0.40064957172E+03  0.00000000000E+00 0. -1.
          1    1    6    6  503    0  0.10130473756E+03  0.14673656493E+03 -0.39184677864E+02  0.18256425805E+03  0.00000000000E+00 0. -1.
         -1    1    6    6    0  503  0.51450715412E+02  0.19803069928E+03 -0.11961740066E+03  0.23700560440E+03  0.00000000000E+00 0.  1.
<mgrwt>
<rscale>  0 0.12767872E+04</rscale>
<asrwt>0</asrwt>
<pdfrwt beam="1">  1        2 0.13027268E+00 0.12767872E+04</pdfrwt>
<pdfrwt beam="2">  1       -1 0.74045219E-01 0.12767872E+04</pdfrwt>
<totfact> 0.65678244E+01</totfact>
</mgrwt>
</event>
<event>
12    6  0.1494052E-007  0.2555093E+04  0.7818608E-02  0.8383617E-01
          2   -1    0    0  501    0  0.00000000000E+00  0.00000000000E+00  0.28355877483E+04  0.28355877483E+04  0.00000000000E+00 0. -1.
         -1   -1    0    0    0  501 -0.00000000000E+00 -0.00000000000E+00 -0.57558630257E+03  0.57558630257E+03  0.00000000000E+00 0.  1.
         24    2    1    2    0    0 -0.29876718568E+03  0.20647041017E+03  0.23805433205E+04  0.24094111267E+04  0.79897531847E+02 0.  0.
        254    2    1    2    0    0  0.29876718568E+03 -0.20647041017E+03 -0.12054187474E+03  0.10017629241E+04  0.92580060004E+03 0.  0.
         23    2    4    4    0    0  0.20141228911E+03  0.28529176387E+03 -0.29241159937E+03  0.46398490688E+03  0.88425955628E+02 0.  0.
         23    2    4    4    0    0  0.97354896563E+02 -0.49176217404E+03  0.17186972463E+03  0.53777801723E+03  0.91421998841E+02 0.  0.
          2    1    3    3  502    0 -0.28191933537E+03  0.16405959189E+03  0.20995403630E+04  0.21247267582E+04  0.00000000000E+00 0. -1.
         -1    1    3    3    0  502 -0.16847850308E+02  0.42410818280E+02  0.28100295751E+03  0.28468436855E+03  0.00000000000E+00 0.  1.
         11    1    5    5    0    0  0.14264569169E+03  0.19972113852E+03 -0.14959664691E+03  0.28742909264E+03  0.00000000000E+00 0.  1.
        -11    1    5    5    0    0  0.58766597425E+02  0.85570625344E+02 -0.14281495246E+03  0.17655581424E+03  0.00000000000E+00 0. -1.
          1    1    6    6  503    0 -0.44595757612E+01  0.15358689192E+01  0.56606964348E+01  0.73681879341E+01  0.00000000000E+00 0. -1.
         -1    1    6    6    0  503  0.10181447232E+03 -0.49329804296E+03  0.16620902820E+03  0.53040982930E+03  0.00000000000E+00 0.  1.
<mgrwt>
<rscale>  0 0.25550933E+04</rscale>
<asrwt>0</asrwt>
<pdfrwt beam="1">  1        2 0.43624426E+00 0.25550933E+04</pdfrwt>
<pdfrwt beam="2">  1       -1 0.88551741E-01 0.25550933E+04</pdfrwt>
<totfact> 0.27805258E+00</totfact>
</mgrwt>
</event>
<event>
12    6  0.1494052E-007  0.1580397E+04  0.7818608E-02  0.8832682E-01
          4   -1    0    0  501    0  0.00000000000E+00  0.00000000000E+00  0.35717819672E+03  0.35717819672E+03  0.00000000000E+00 0. -1.
         -3   -1    0    0    0  501 -0.00000000000E+00 -0.00000000000E+00 -0.17481863041E+04  0.17481863041E+04  0.00000000000E+00 0.  1.
         24    2    1    2    0    0 -0.38899953409E+03 -0.19805762013E+03 -0.68940168844E+02  0.44885071853E+03  0.78528735053E+02 0.  0.
        254    2    1    2    0    0  0.38899953409E+03  0.19805762013E+03 -0.13220679386E+04  0.16565137823E+04  0.89756716654E+03 0.  0.
         23    2    4    4    0    0 -0.18342815785E+03 -0.25888154950E+02 -0.10361581114E+02  0.20532812348E+03  0.87955615338E+02 0.  0.
         23    2    4    4    0    0  0.57242769194E+03  0.22394577508E+03 -0.13117063574E+04  0.14511856588E+04  0.86839366698E+02 0.  0.
          4    1    3    3  502    0 -0.33844370911E+03 -0.19093521392E+03 -0.41252553687E+02  0.39077125449E+03  0.00000000000E+00 0. -1.
         -3    1    3    3    0  502 -0.50555824987E+02 -0.71224062078E+01 -0.27687615157E+02  0.58079464042E+02  0.00000000000E+00 0.  1.
         11    1    5    5    0    0 -0.10236202285E+03  0.29551095192E+02 -0.11066719972E+02  0.10711546685E+03  0.00000000000E+00 0.  1.
        -11    1    5    5    0    0 -0.81066135000E+02 -0.55439250142E+02  0.70513885833E+00  0.98212656623E+02  0.00000000000E+00 0. -1.
          1    1    6    6  503    0  0.11990572724E+03  0.77305464314E+02 -0.35945571233E+03  0.38673237175E+03  0.00000000000E+00 0. -1.
         -1    1    6    6    0  503  0.45252196470E+03  0.14664031077E+03 -0.95225064512E+03  0.10644532871E+04  0.00000000000E+00 0.  1.
<mgrwt>
<rscale>  0 0.15803975E+04</rscale>
<asrwt>0</asrwt>
<pdfrwt beam="1">  1        4 0.54950491E-01 0.15803975E+04</pdfrwt>
<pdfrwt beam="2">  1       -3 0.26895174E+00 0.15803975E+04</pdfrwt>
<totfact> 0.39705306E-01</totfact>
</mgrwt>
</event>
<event>
12    6  0.1494052E-007  0.2479889E+04  0.7818608E-02  0.8410185E-01
          2   -1    0    0  501    0  0.00000000000E+00  0.00000000000E+00  0.31395771490E+04  0.31395771490E+04  0.00000000000E+00 0. -1.
         -1   -1    0    0    0  501 -0.00000000000E+00 -0.00000000000E+00 -0.48970362569E+03  0.48970362569E+03  0.00000000000E+00 0.  1.
         24    2    1    2    0    0  0.93760309047E+03  0.38249209005E+03  0.17182859203E+04  0.19960904333E+04  0.80441033005E+02 0.  0.
        254    2    1    2    0    0 -0.93760309047E+03 -0.38249209005E+03  0.93158760294E+03  0.16331903413E+04  0.87980422528E+03 0.  0.
         23    2    4    4    0    0 -0.59466042189E+03  0.12532005367E+03  0.14501659786E+03  0.63193200512E+03  0.94774006084E+02 0.  0.
         23    2    4    4    0    0 -0.34294266858E+03 -0.50781214372E+03  0.78657100509E+03  0.10012583362E+04  0.91331607523E+02 0.  0.
          4    1    3    3  502    0  0.71957597796E+03  0.26683745598E+03  0.13461355734E+04  0.15495395439E+04  0.00000000000E+00 0. -1.
         -3    1    3    3    0  502  0.21802711252E+03  0.11565463407E+03  0.37215034690E+03  0.44655088945E+03  0.00000000000E+00 0.  1.
         11    1    5    5    0    0 -0.44969084479E+03  0.11546170062E+03  0.73773054048E+02  0.47010182270E+03  0.00000000000E+00 0.  1.
        -11    1    5    5    0    0 -0.14496957710E+03  0.98583530466E+01  0.71243543810E+02  0.16183018242E+03  0.00000000000E+00 0. -1.
          1    1    6    6  503    0 -0.36652340107E+02 -0.11876096618E+03  0.16496509666E+03  0.20654550162E+03  0.00000000000E+00 0. -1.
         -1    1    6    6    0  503 -0.30629032848E+03 -0.38905117754E+03  0.62160590843E+03  0.79471283458E+03  0.00000000000E+00 0.  1.
<mgrwt>
<rscale>  0 0.24798890E+04</rscale>
<asrwt>0</asrwt>
<pdfrwt beam="1">  1        2 0.48301186E+00 0.24798890E+04</pdfrwt>
<pdfrwt beam="2">  1       -1 0.75339021E-01 0.24798890E+04</pdfrwt>
<totfact> 0.25550718E+00</totfact>
</mgrwt>
</event>
<event>
12    6  0.1494052E-007  0.1147504E+04  0.7818608E-02  0.9160089E-01
          2   -1    0    0  501    0  0.00000000000E+00  0.00000000000E+00  0.10449058638E+04  0.10449058638E+04  0.00000000000E+00 0. -1.
         -1   -1    0    0    0  501 -0.00000000000E+00 -0.00000000000E+00 -0.31504421118E+03  0.31504421118E+03  0.00000000000E+00 0.  1.
         24    2    1    2    0    0  0.21172360807E+03 -0.98477192520E+01  0.11978839143E+03  0.25662332405E+03  0.81132040132E+02 0.  0.
        254    2    1    2    0    0 -0.21172360807E+03  0.98477192520E+01  0.61007326123E+03  0.11033267510E+04  0.89454830589E+03 0.  0.
         23    2    4    4    0    0  0.15583407933E+03 -0.34025245607E+03  0.15308085581E+03  0.41404648618E+03  0.89133328036E+02 0.  0.
         23    2    4    4    0    0 -0.36755768740E+03  0.35010017532E+03  0.45699240542E+03  0.68928026479E+03  0.92716980613E+02 0.  0.
          2    1    3    3  502    0  0.22251392686E+02 -0.11228663559E+01  0.49610871454E+02  0.54384040598E+02  0.00000000000E+00 0. -1.
         -3    1    3    3    0  502  0.18947221539E+03 -0.87248528962E+01  0.70177519973E+02  0.20223928345E+03  0.00000000000E+00 0.  1.
         11    1    5    5    0    0 -0.10211658573E+02 -0.97361990624E+01  0.10786837481E+01  0.14150445280E+02  0.00000000000E+00 0.  1.
        -11    1    5    5    0    0  0.16604573790E+03 -0.33051625700E+03  0.15200217206E+03  0.39989604090E+03  0.00000000000E+00 0. -1.
          4    1    6    6  503    0 -0.25991973044E+03  0.23108776966E+03  0.25475923861E+03  0.43111726156E+03  0.00000000000E+00 0. -1.
         -4    1    6    6    0  503 -0.10763795696E+03  0.11901240566E+03  0.20223316681E+03  0.25816300323E+03  0.00000000000E+00 0.  1.
<mgrwt>
<rscale>  0 0.11475043E+04</rscale>
<asrwt>0</asrwt>
<pdfrwt beam="1">  1        2 0.16075475E+00 0.11475043E+04</pdfrwt>
<pdfrwt beam="2">  1       -1 0.48468340E-01 0.11475043E+04</pdfrwt>
<totfact> 0.11333898E+02</totfact>
</mgrwt>
</event>
<event>
12    6  0.1494052E-007  0.1415606E+04  0.7818608E-02  0.8942599E-01
          2   -1    0    0  501    0  0.00000000000E+00  0.00000000000E+00  0.16291373933E+04  0.16291373933E+04  0.00000000000E+00 0. -1.
         -1   -1    0    0    0  501 -0.00000000000E+00 -0.00000000000E+00 -0.30751546362E+03  0.30751546362E+03  0.00000000000E+00 0.  1.
         24    2    1    2    0    0  0.21782702521E+03  0.52314586161E+02 -0.89497484949E+02  0.25374125289E+03  0.78672706623E+02 0.  0.
        254    2    1    2    0    0 -0.21782702521E+03 -0.52314586161E+02  0.14111194146E+04  0.16829116040E+04  0.88924014518E+03 0.  0.
         23    2    4    4    0    0 -0.21466978703E+03  0.37379737169E+03  0.95786295576E+03  0.10543201985E+04  0.91005748940E+02 0.  0.
         23    2    4    4    0    0 -0.31572381754E+01 -0.42611195785E+03  0.45325645886E+03  0.62859140555E+03  0.90024268135E+02 0.  0.
          2    1    3    3  502    0  0.86529481724E+02  0.60903704361E+02 -0.37533009299E+02  0.11227350177E+03  0.00000000000E+00 0. -1.
         -1    1    3    3    0  502  0.13129754349E+03 -0.85891182003E+01 -0.51964475649E+02  0.14146775112E+03  0.00000000000E+00 0.  1.
         11    1    5    5    0    0 -0.37087268837E+01  0.39435809638E+02  0.47710557755E+02  0.62009959347E+02  0.00000000000E+00 0. -1.
        -11    1    5    5    0    0 -0.21096106015E+03  0.33436156205E+03  0.91015239801E+03  0.99231023913E+03  0.00000000000E+00 0.  1.
          4    1    6    6  503    0  0.36605539209E+02 -0.28828678437E+03  0.32731763313E+03  0.43770545861E+03  0.00000000000E+00 0. -1.
         -4    1    6    6    0  503 -0.39762777384E+02 -0.13782517348E+03  0.12593882573E+03  0.19088594693E+03  0.00000000000E+00 0.  1.
<mgrwt>
<rscale>  0 0.14156058E+04</rscale>
<asrwt>0</asrwt>
<pdfrwt beam="1">  1        2 0.25063652E+00 0.14156058E+04</pdfrwt>
<pdfrwt beam="2">  1       -1 0.47310072E-01 0.14156058E+04</pdfrwt>
<totfact> 0.53032541E+01</totfact>
</mgrwt>
</event>
<event>
12    6  0.1494052E-007  0.3290921E+04  0.7818608E-02  0.8165209E-01
          2   -1    0    0  501    0  0.00000000000E+00  0.00000000000E+00  0.38433479097E+04  0.38433479097E+04  0.00000000000E+00 0. -1.
         -1   -1    0    0    0  501 -0.00000000000E+00 -0.00000000000E+00 -0.70447429539E+03  0.70447429539E+03  0.00000000000E+00 0.  1.
         24    2    1    2    0    0  0.99705067477E+03 -0.11468696602E+04  0.12781729173E+04  0.19873980305E+04  0.81270287345E+02 0.  0.
        254    2    1    2    0    0 -0.99705067477E+03  0.11468696602E+04  0.18607006971E+04  0.25604241746E+04  0.88551951104E+03 0.  0.
         23    2    4    4    0    0 -0.99853171860E+03  0.12328785014E+04  0.15257147363E+04  0.22030570504E+04  0.92735747260E+02 0.  0.
         23    2    4    4    0    0  0.14810438288E+01 -0.86008841185E+02  0.33498596078E+03  0.35736712418E+03  0.89977515343E+02 0.  0.
          4    1    3    3  502    0  0.98333582648E+02 -0.95822074557E+02  0.89955369445E+02  0.16414424127E+03  0.00000000000E+00 0. -1.
         -3    1    3    3    0  502  0.89871709212E+03 -0.10510475857E+04  0.11882175479E+04  0.18232537892E+04  0.00000000000E+00 0.  1.
         11    1    5    5    0    0 -0.63926816204E+02  0.69002911738E+02  0.12180234431E+03  0.15389558388E+03  0.00000000000E+00 0. -1.
        -11    1    5    5    0    0 -0.93460490239E+03  0.11638755897E+04  0.14039123920E+04  0.20491614666E+04  0.00000000000E+00 0.  1.
          1    1    6    6  503    0 -0.28385691477E+02 -0.96033966568E+01  0.33625670043E+02  0.45040630478E+02  0.00000000000E+00 0. -1.
         -1    1    6    6    0  503  0.29866735305E+02 -0.76405444529E+02  0.30136029074E+03  0.31232649370E+03  0.00000000000E+00 0.  1.
<mgrwt>
<rscale>  0 0.32909207E+04</rscale>
<asrwt>0</asrwt>
<pdfrwt beam="1">  1        2 0.59128428E+00 0.32909207E+04</pdfrwt>
<pdfrwt beam="2">  1       -1 0.10838066E+00 0.32909207E+04</pdfrwt>
<totfact> 0.34062094E-01</totfact>
</mgrwt>
</event>
<event>
12    6  0.1494052E-007  0.2063066E+04  0.7818608E-02  0.8577690E-01
         -1   -1    0    0    0  501 -0.00000000000E+00  0.00000000000E+00  0.39801805469E+03  0.39801805469E+03  0.00000000000E+00 0.  1.
          2   -1    0    0  501    0  0.00000000000E+00 -0.00000000000E+00 -0.26733983021E+04  0.26733983021E+04  0.00000000000E+00 0. -1.
         24    2    1    2    0    0 -0.33198319853E+03  0.49269802135E+03 -0.46106433395E+02  0.60126768554E+03  0.80205000599E+02 0.  0.
        254    2    1    2    0    0  0.33198319853E+03 -0.49269802135E+03 -0.22292738140E+04  0.24701486712E+04  0.88261460213E+03 0.  0.
         23    2    4    4    0    0  0.44152400586E+03 -0.67692797923E+03 -0.19053711881E+04  0.20716227165E+04  0.89478369534E+02 0.  0.
         23    2    4    4    0    0 -0.10954080733E+03  0.18422995788E+03 -0.32390262592E+03  0.39852595468E+03  0.89275750459E+02 0.  0.
          2    1    3    3  502    0 -0.20660287427E+02  0.43423707824E+02 -0.25150853045E+02  0.54268142466E+02  0.00000000000E+00 0. -1.
         -1    1    3    3    0  502 -0.31132291110E+03  0.44927431353E+03 -0.20955580350E+02  0.54699954307E+03  0.00000000000E+00 0.  1.
         11    1    5    5    0    0  0.13718152898E+03 -0.24488418566E+03 -0.76109587760E+03  0.81120525835E+03  0.00000000000E+00 0. -1.
        -11    1    5    5    0    0  0.30434247687E+03 -0.43204379358E+03 -0.11442753105E+04  0.12604174582E+04  0.00000000000E+00 0.  1.
          4    1    6    6  503    0 -0.23406296943E+01  0.87417713608E+02 -0.13191082936E+03  0.15826497434E+03  0.00000000000E+00 0. -1.
         -4    1    6    6    0  503 -0.10720017763E+03  0.96812244273E+02 -0.19199179657E+03  0.24026098034E+03  0.00000000000E+00 0.  1.
<mgrwt>
<rscale>  0 0.20630664E+04</rscale>
<asrwt>0</asrwt>
<pdfrwt beam="1">  1        2 0.41129206E+00 0.20630664E+04</pdfrwt>
<pdfrwt beam="2">  1       -1 0.61233545E-01 0.20630664E+04</pdfrwt>
<totfact> 0.78435806E+00</totfact>
</mgrwt>
</event>
<event>
12    6  0.1494052E-007  0.2153724E+04  0.7818608E-02  0.8537940E-01
         -1   -1    0    0    0  501 -0.00000000000E+00  0.00000000000E+00  0.45720000844E+03  0.45720000844E+03  0.00000000000E+00 0.  1.
          2   -1    0    0  501    0  0.00000000000E+00 -0.00000000000E+00 -0.25363782738E+04  0.25363782738E+04  0.00000000000E+00 0. -1.
         24    2    1    2    0    0 -0.67284510506E+03  0.57711036737E+03 -0.83981994942E+03  0.12236794304E+04  0.79478862232E+02 0.  0.
        254    2    1    2    0    0  0.67284510506E+03 -0.57711036737E+03 -0.12393583159E+04  0.17698988517E+04  0.90041990132E+03 0.  0.
         23    2    4    4    0    0  0.19553195648E+03  0.11001069478E+03 -0.76857119757E+03  0.80581582902E+03  0.91117317788E+02 0.  0.
         23    2    4    4    0    0  0.47731314858E+03 -0.68712106215E+03 -0.47078711834E+03  0.96408302273E+03  0.88613588476E+02 0.  0.
          2    1    3    3  502    0 -0.59727627819E+03  0.47767447316E+03 -0.71051950549E+03  0.10439108307E+04  0.00000000000E+00 0. -1.
         -1    1    3    3    0  502 -0.75568826861E+02  0.99435894213E+02 -0.12930044392E+03  0.17976859973E+03  0.00000000000E+00 0.  1.
         11    1    5    5    0    0 -0.24956503763E+01 -0.72632429172E+01 -0.76066523162E+01  0.10809446236E+02  0.00000000000E+00 0. -1.
        -11    1    5    5    0    0  0.19802760685E+03  0.11727393770E+03 -0.76096454525E+03  0.79500638278E+03  0.00000000000E+00 0.  1.
          3    1    6    6  503    0  0.10367928887E+03 -0.92514432837E+02 -0.72008603027E+02  0.15650416650E+03  0.00000000000E+00 0. -1.
         -3    1    6    6    0  503  0.37363385971E+03 -0.59460662931E+03 -0.39877851532E+03  0.80757885622E+03  0.00000000000E+00 0.  1.
<mgrwt>
<rscale>  0 0.21537244E+04</rscale>
<asrwt>0</asrwt>
<pdfrwt beam="1">  1        2 0.39021205E+00 0.21537244E+04</pdfrwt>
<pdfrwt beam="2">  1       -1 0.70338462E-01 0.21537244E+04</pdfrwt>
<totfact> 0.70743055E+00</totfact>
</mgrwt>
</event>
<event>
12    6  0.1494052E-007  0.1201081E+04  0.7818608E-02  0.9111911E-01
          2   -1    0    0  501    0  0.00000000000E+00  0.00000000000E+00  0.36659555418E+03  0.36659555418E+03  0.00000000000E+00 0. -1.
         -1   -1    0    0    0  501 -0.00000000000E+00 -0.00000000000E+00 -0.98377863513E+03  0.98377863513E+03  0.00000000000E+00 0.  1.
         24    2    1    2    0    0 -0.15353305015E+03  0.16610758344E+03 -0.26535737478E+03  0.35774834637E+03  0.80032594707E+02 0.  0.
        254    2    1    2    0    0  0.15353305015E+03 -0.16610758344E+03 -0.35182570616E+03  0.99262584294E+03  0.90020031648E+03 0.  0.
         23    2    4    4    0    0 -0.29621607883E+03 -0.26025441188E+03 -0.33241280648E+03  0.52362428302E+03  0.90596863069E+02 0.  0.
         23    2    4    4    0    0  0.44974912898E+03  0.94146828441E+02 -0.19412899681E+02  0.46900155992E+03  0.91911360585E+02 0.  0.
          2    1    3    3  502    0 -0.61574772620E+02  0.63937634716E+02 -0.48931421689E+02  0.10135954708E+03  0.00000000000E+00 0. -1.
         -3    1    3    3    0  502 -0.91958277531E+02  0.10216994872E+03 -0.21642595309E+03  0.25638879929E+03  0.00000000000E+00 0.  1.
         11    1    5    5    0    0 -0.17457689240E+03 -0.20887249751E+03 -0.23337257390E+03  0.35856320200E+03  0.00000000000E+00 0.  1.
        -11    1    5    5    0    0 -0.12163918643E+03 -0.51381914364E+02 -0.99040232577E+02  0.16506108102E+03  0.00000000000E+00 0. -1.
          1    1    6    6  503    0  0.15408616958E+02  0.16515433212E+02  0.13900859655E+02  0.26522045733E+02  0.00000000000E+00 0. -1.
         -1    1    6    6    0  503  0.43434051203E+03  0.77631395229E+02 -0.33313759336E+02  0.44247951418E+03  0.00000000000E+00 0.  1.
<mgrwt>
<rscale>  0 0.12010810E+04</rscale>
<asrwt>0</asrwt>
<pdfrwt beam="1">  1        2 0.56399318E-01 0.12010810E+04</pdfrwt>
<pdfrwt beam="2">  1       -1 0.15135056E+00 0.12010810E+04</pdfrwt>
<totfact> 0.33750580E+01</totfact>
</mgrwt>
</event>
<event>
12    6  0.1494052E-007  0.1118502E+04  0.7818608E-02  0.9187344E-01
         -1   -1    0    0    0  501 -0.00000000000E+00  0.00000000000E+00  0.75502073255E+03  0.75502073255E+03  0.00000000000E+00 0.  1.
          2   -1    0    0  501    0  0.00000000000E+00 -0.00000000000E+00 -0.41424239828E+03  0.41424239828E+03  0.00000000000E+00 0. -1.
         24    2    1    2    0    0  0.92164420325E+02 -0.50803325252E+02  0.21901512937E+03  0.25539042472E+03  0.78621777617E+02 0.  0.
        254    2    1    2    0    0 -0.92164420325E+02  0.50803325252E+02  0.12176320489E+03  0.91387270610E+03  0.89958978799E+03 0.  0.
         23    2    4    4    0    0 -0.47982277521E+03  0.67070506046E+01  0.14883775342E+03  0.51224324486E+03  0.99827776324E+02 0.  0.
         23    2    4    4    0    0  0.38765835488E+03  0.44096274648E+02 -0.27074548528E+02  0.40162946124E+03  0.91376755295E+02 0.  0.
          2    1    3    3  502    0 -0.12442166881E+02  0.86009821208E+00  0.98699258902E+01  0.15904801876E+02  0.00000000000E+00 0. -1.
         -1    1    3    3    0  502  0.10460658721E+03 -0.51663423464E+02  0.20914520348E+03  0.23948562285E+03  0.00000000000E+00 0.  1.
         11    1    5    5    0    0 -0.25357504542E+03 -0.13680428260E+02  0.29532770272E+02  0.25565531932E+03  0.00000000000E+00 0. -1.
        -11    1    5    5    0    0 -0.22624772979E+03  0.20387478865E+02  0.11930498315E+03  0.25658792555E+03  0.00000000000E+00 0.  1.
          3    1    6    6  503    0  0.71101970881E+02  0.41582758881E+02  0.96840567156E+01  0.82936102235E+02  0.00000000000E+00 0. -1.
         -3    1    6    6    0  503  0.31655638400E+03  0.25135157668E+01 -0.36758605244E+02  0.31869335901E+03  0.00000000000E+00 0.  1.
<mgrwt>
<rscale>  0 0.11185019E+04</rscale>
<asrwt>0</asrwt>
<pdfrwt beam="1">  1        2 0.63729600E-01 0.11185019E+04</pdfrwt>
<pdfrwt beam="2">  1       -1 0.11615704E+00 0.11185019E+04</pdfrwt>
<totfact> 0.58154932E+01</totfact>
</mgrwt>
</event>
<event>
12    6  0.1494052E-007  0.2080017E+04  0.7818608E-02  0.8570098E-01
          2   -1    0    0  501    0  0.00000000000E+00  0.00000000000E+00  0.15475492013E+04  0.15475492013E+04  0.00000000000E+00 0. -1.
         -1   -1    0    0    0  501 -0.00000000000E+00 -0.00000000000E+00 -0.69892287790E+03  0.69892287790E+03  0.00000000000E+00 0.  1.
         24    2    1    2    0    0  0.30556561567E+03  0.28556923253E+03 -0.44552521522E+03  0.61621887619E+03  0.79453470202E+02 0.  0.
        254    2    1    2    0    0 -0.30556561567E+03 -0.28556923253E+03  0.12941515386E+04  0.16302532030E+04  0.89887550250E+03 0.  0.
         23    2    4    4    0    0 -0.25031958609E+03  0.24735495987E+03  0.21691085202E+03  0.42350588858E+03  0.91992111546E+02 0.  0.
         23    2    4    4    0    0 -0.55246029580E+02 -0.53292419240E+03  0.10772406866E+04  0.12067473145E+04  0.93441240427E+02 0.  0.
          2    1    3    3  502    0  0.18053827676E+03  0.16361152486E+03 -0.31471826586E+03  0.39800802418E+03  0.00000000000E+00 0. -1.
         -3    1    3    3    0  502  0.12502733891E+03  0.12195770768E+03 -0.13080694936E+03  0.21821085201E+03  0.00000000000E+00 0.  1.
         11    1    5    5    0    0 -0.14167247092E+03  0.19890549539E+03  0.15694381506E+03  0.29028580089E+03  0.00000000000E+00 0. -1.
        -11    1    5    5    0    0 -0.10864711516E+03  0.48449464480E+02  0.59967036957E+02  0.13322008769E+03  0.00000000000E+00 0.  1.
          2    1    6    6  503    0 -0.60293000277E+02 -0.16357528410E+03  0.33225595996E+03  0.37521479499E+03  0.00000000000E+00 0. -1.
         -2    1    6    6    0  503  0.50469706965E+01 -0.36934890830E+03  0.74498472665E+03  0.83153251946E+03  0.00000000000E+00 0.  1.
<mgrwt>
<rscale>  0 0.20800169E+04</rscale>
<asrwt>0</asrwt>
<pdfrwt beam="1">  1        2 0.23808449E+00 0.20800169E+04</pdfrwt>
<pdfrwt beam="2">  1       -1 0.10752660E+00 0.20800169E+04</pdfrwt>
<totfact> 0.10105204E+01</totfact>
</mgrwt>
</event>
<event>
12    6  0.1494052E-007  0.1535832E+04  0.7818608E-02  0.8860969E-01
         -1   -1    0    0    0  501 -0.00000000000E+00  0.00000000000E+00  0.23194836307E+03  0.23194836307E+03  0.00000000000E+00 0.  1.
          2   -1    0    0  501    0  0.00000000000E+00 -0.00000000000E+00 -0.25423544443E+04  0.25423544443E+04  0.00000000000E+00 0. -1.
         24    2    1    2    0    0 -0.70073404047E+02 -0.49368378729E+03 -0.69997028971E+03  0.86293039724E+03  0.77823519716E+02 0.  0.
        254    2    1    2    0    0  0.70073404047E+02  0.49368378729E+03 -0.16104357915E+04  0.19113724101E+04  0.90067035468E+03 0.  0.
         23    2    4    4    0    0 -0.39855874133E+03  0.12999496350E+03 -0.68447080551E+03  0.80789978140E+03  0.91945703300E+02 0.  0.
         23    2    4    4    0    0  0.46863214538E+03  0.36368882379E+03 -0.92596498602E+03  0.11034726287E+04  0.91405901422E+02 0.  0.
          4    1    3    3  502    0 -0.18884618943E+02 -0.79954710192E+02 -0.16854074210E+03  0.18749764335E+03  0.00000000000E+00 0. -1.
         -3    1    3    3    0  502 -0.51188785104E+02 -0.41372907710E+03 -0.53142954761E+03  0.67543275389E+03  0.00000000000E+00 0.  1.
         11    1    5    5    0    0 -0.33439961442E+03  0.85306515882E+02 -0.60438255215E+03  0.69597311236E+03  0.00000000000E+00 0. -1.
        -11    1    5    5    0    0 -0.64159126907E+02  0.44688447618E+02 -0.80088253363E+02  0.11192666904E+03  0.00000000000E+00 0.  1.
          4    1    6    6  503    0  0.11911851578E+03  0.12607849664E+03 -0.21339358764E+03  0.27499423878E+03  0.00000000000E+00 0. -1.
         -4    1    6    6    0  503  0.34951362960E+03  0.23761032715E+03 -0.71257139838E+03  0.82847838996E+03  0.00000000000E+00 0.  1.
<mgrwt>
<rscale>  0 0.15358320E+04</rscale>
<asrwt>0</asrwt>
<pdfrwt beam="1">  1        2 0.39113145E+00 0.15358320E+04</pdfrwt>
<pdfrwt beam="2">  1       -1 0.35684363E-01 0.15358320E+04</pdfrwt>
<totfact> 0.27126085E+01</totfact>
</mgrwt>
</event>
<event>
12    6  0.1494052E-007  0.2869560E+04  0.7818608E-02  0.8281992E-01
         -1   -1    0    0    0  501 -0.00000000000E+00  0.00000000000E+00  0.17692142164E+04  0.17692142164E+04  0.00000000000E+00 0.  1.
          2   -1    0    0  501    0  0.00000000000E+00 -0.00000000000E+00 -0.11635637032E+04  0.11635637032E+04  0.00000000000E+00 0. -1.
         24    2    1    2    0    0 -0.99328756477E+03  0.68978466746E+03  0.70380070463E+03  0.14015071143E+04  0.80397051395E+02 0.  0.
        254    2    1    2    0    0  0.99328756477E+03 -0.68978466746E+03 -0.98150191423E+02  0.15312708053E+04  0.93420219715E+03 0.  0.
         23    2    4    4    0    0  0.24318900821E+03  0.14232551095E+03  0.21609087534E+03  0.36483372635E+03  0.83731336365E+02 0.  0.
         23    2    4    4    0    0  0.75009855656E+03 -0.83211017841E+03 -0.31424106677E+03  0.11664370789E+04  0.82297129092E+02 0.  0.
          4    1    3    3  502    0 -0.95704087116E+02  0.42859176394E+02  0.47927408092E+02  0.11529621736E+03  0.00000000000E+00 0. -1.
         -3    1    3    3    0  502 -0.89758347766E+03  0.64692549106E+03  0.65587329653E+03  0.12862108970E+04  0.00000000000E+00 0.  1.
         11    1    5    5    0    0  0.24878053128E+03  0.13122132162E+03  0.20370554079E+03  0.34728480436E+03  0.00000000000E+00 0. -1.
        -11    1    5    5    0    0 -0.55915230649E+01  0.11104189329E+02  0.12385334555E+02  0.17548921986E+02  0.00000000000E+00 0.  1.
          3    1    6    6  503    0  0.63757601502E+03 -0.73846513472E+03 -0.25405691260E+03  0.10081561610E+04  0.00000000000E+00 0. -1.
         -3    1    6    6    0  503  0.11252254154E+03 -0.93645043684E+02 -0.60184154168E+02  0.15828091791E+03  0.00000000000E+00 0.  1.
<mgrwt>
<rscale>  0 0.28695599E+04</rscale>
<asrwt>0</asrwt>
<pdfrwt beam="1">  1        2 0.17900980E+00 0.28695599E+04</pdfrwt>
<pdfrwt beam="2">  1       -1 0.27218680E+00 0.28695599E+04</pdfrwt>
<totfact> 0.98210390E-01</totfact>
</mgrwt>
</event>
<event>
12    6  0.1494052E-007  0.3164264E+04  0.7818608E-02  0.8198319E-01
         -1   -1    0    0    0  501 -0.00000000000E+00  0.00000000000E+00  0.93076878806E+03  0.93076878806E+03  0.00000000000E+00 0.  1.
          2   -1    0    0  501    0  0.00000000000E+00 -0.00000000000E+00 -0.26893265452E+04  0.26893265452E+04  0.00000000000E+00 0. -1.
         24    2    1    2    0    0 -0.50252848925E+03  0.12185812925E+04 -0.15345019536E+04  0.20245674112E+04  0.81863961028E+02 0.  0.
        254    2    1    2    0    0  0.50252848925E+03 -0.12185812925E+04 -0.22405580354E+03  0.15955279221E+04  0.87065096229E+03 0.  0.
         23    2    4    4    0    0  0.34829917996E+03 -0.86263146421E+03 -0.54642372647E+03  0.10828970200E+04  0.92960772689E+02 0.  0.
         23    2    4    4    0    0  0.15422930929E+03 -0.35594982824E+03  0.32236792293E+03  0.51263090206E+03  0.91555469207E+02 0.  0.
          4    1    3    3  502    0 -0.34406139987E+03  0.81664064617E+03 -0.10885852016E+04  0.14036730150E+04  0.00000000000E+00 0. -1.
         -3    1    3    3    0  502 -0.15846708938E+03  0.40194064629E+03 -0.44591675201E+03  0.62089439624E+03  0.00000000000E+00 0.  1.
         11    1    5    5    0    0  0.19825118792E+03 -0.51370186175E+03 -0.37489486688E+03  0.66613759652E+03  0.00000000000E+00 0.  1.
        -11    1    5    5    0    0  0.15004799203E+03 -0.34892960246E+03 -0.17152885959E+03  0.41675942348E+03  0.00000000000E+00 0. -1.
          1    1    6    6  503    0  0.48289219391E+01 -0.77299831191E+02  0.33569269446E+02  0.84412547885E+02  0.00000000000E+00 0. -1.
         -1    1    6    6    0  503  0.14940038735E+03 -0.27864999705E+03  0.28879865348E+03  0.42821835418E+03  0.00000000000E+00 0.  1.
<mgrwt>
<rscale>  0 0.31642637E+04</rscale>
<asrwt>0</asrwt>
<pdfrwt beam="1">  1        2 0.41374254E+00 0.31642637E+04</pdfrwt>
<pdfrwt beam="2">  1       -1 0.14319520E+00 0.31642637E+04</pdfrwt>
<totfact> 0.10209706E+00</totfact>
</mgrwt>
</event>
<event>
12    6  0.1494052E-007  0.1144029E+04  0.7818608E-02  0.9163310E-01
         -1   -1    0    0    0  501 -0.00000000000E+00  0.00000000000E+00  0.39545527300E+03  0.39545527300E+03  0.00000000000E+00 0.  1.
          2   -1    0    0  501    0  0.00000000000E+00 -0.00000000000E+00 -0.82740191871E+03  0.82740191871E+03  0.00000000000E+00 0. -1.
         24    2    1    2    0    0  0.13214979051E+03  0.90655031524E+02 -0.23851114169E+03  0.29817123530E+03  0.79602882979E+02 0.  0.
        254    2    1    2    0    0 -0.13214979051E+03 -0.90655031524E+02 -0.19343550402E+03  0.92468595641E+03  0.88991287320E+03 0.  0.
         23    2    4    4    0    0 -0.14898163081E+03 -0.44131993805E+02  0.33820822903E+03  0.38305116465E+03  0.90555117789E+02 0.  0.
         23    2    4    4    0    0  0.16831840302E+02 -0.46523037718E+02 -0.53164373305E+03  0.54163479176E+03  0.90969692033E+02 0.  0.
          4    1    3    3  502    0  0.15688152235E+02 -0.53051086739E+01 -0.70158404813E+02  0.72086504038E+02  0.00000000000E+00 0. -1.
         -3    1    3    3    0  502  0.11646163828E+03  0.95960140197E+02 -0.16835273688E+03  0.22608473127E+03  0.00000000000E+00 0.  1.
         11    1    5    5    0    0 -0.95157950895E+02 -0.57603799108E+02  0.28598359747E+03  0.30685477235E+03  0.00000000000E+00 0. -1.
        -11    1    5    5    0    0 -0.53823679917E+02  0.13471805302E+02  0.52224631555E+02  0.76196392297E+02  0.00000000000E+00 0.  1.
          4    1    6    6  503    0 -0.31822582360E+02 -0.32188586647E+02 -0.35431654325E+03  0.35719601717E+03  0.00000000000E+00 0. -1.
         -4    1    6    6    0  503  0.48654422661E+02 -0.14334451072E+02 -0.17732718980E+03  0.18443877460E+03  0.00000000000E+00 0.  1.
<mgrwt>
<rscale>  0 0.11440288E+04</rscale>
<asrwt>0</asrwt>
<pdfrwt beam="1">  1        2 0.12729260E+00 0.11440288E+04</pdfrwt>
<pdfrwt beam="2">  1       -1 0.60839274E-01 0.11440288E+04</pdfrwt>
<totfact> 0.10196710E+02</totfact>
</mgrwt>
</event>
<event>
12    6  0.1494052E-007  0.1217440E+04  0.7818608E-02  0.9097727E-01
         -1   -1    0    0    0  501 -0.00000000000E+00  0.00000000000E+00  0.56761703658E+03  0.56761703658E+03  0.00000000000E+00 0.  1.
          2   -1    0    0  501    0  0.00000000000E+00 -0.00000000000E+00 -0.65279955557E+03  0.65279955557E+03  0.00000000000E+00 0. -1.
         24    2    1    2    0    0 -0.46540403498E+02  0.13846154045E+03 -0.24433564639E+03  0.29568368591E+03  0.79945773361E+02 0.  0.
        254    2    1    2    0    0  0.46540403498E+02 -0.13846154045E+03  0.15915312741E+03  0.92473290624E+03  0.89914605186E+03 0.  0.
         23    2    4    4    0    0 -0.21461725972E+03 -0.43849191549E+03  0.14394694207E+03  0.51692135263E+03  0.90284187757E+02 0.  0.
         23    2    4    4    0    0  0.26115766322E+03  0.30003037504E+03  0.15206185339E+02  0.40781155360E+03  0.88642451307E+02 0.  0.
          2    1    3    3  502    0 -0.65065136107E+02  0.13115813375E+03 -0.21954424115E+03  0.26388558469E+03  0.00000000000E+00 0. -1.
         -1    1    3    3    0  502  0.18524732609E+02  0.73034066951E+01 -0.24791405243E+02  0.31798101225E+02  0.00000000000E+00 0.  1.
         11    1    5    5    0    0 -0.61285589540E+01 -0.85053176488E+02  0.13491098757E+02  0.86334302634E+02  0.00000000000E+00 0.  1.
        -11    1    5    5    0    0 -0.20848870077E+03 -0.35343873900E+03  0.13045584331E+03  0.43058705000E+03  0.00000000000E+00 0. -1.
          4    1    6    6  503    0  0.24434097703E+03  0.28464792825E+03  0.36130908782E+02  0.37687185976E+03  0.00000000000E+00 0. -1.
         -4    1    6    6    0  503  0.16816686194E+02  0.15382446791E+02 -0.20924723443E+02  0.30939693841E+02  0.00000000000E+00 0.  1.
<mgrwt>
<rscale>  0 0.12174402E+04</rscale>
<asrwt>0</asrwt>
<pdfrwt beam="1">  1        2 0.10043070E+00 0.12174402E+04</pdfrwt>
<pdfrwt beam="2">  1       -1 0.87325698E-01 0.12174402E+04</pdfrwt>
<totfact> 0.65042931E+01</totfact>
</mgrwt>
</event>
<event>
12    6  0.1494052E-007  0.2749198E+04  0.7818608E-02  0.8319216E-01
          2   -1    0    0  501    0  0.00000000000E+00  0.00000000000E+00  0.24076972098E+04  0.24076972098E+04  0.00000000000E+00 0. -1.
         -1   -1    0    0    0  501 -0.00000000000E+00 -0.00000000000E+00 -0.78478395029E+03  0.78478395029E+03  0.00000000000E+00 0.  1.
         24    2    1    2    0    0  0.55721027181E+03 -0.58762111963E+03  0.17898619044E+04  0.19666749003E+04  0.91775048471E+02 0.  0.
        254    2    1    2    0    0 -0.55721027181E+03  0.58762111963E+03 -0.16694864486E+03  0.12258062598E+04  0.90495705383E+03 0.  0.
         23    2    4    4    0    0 -0.56748902826E+03  0.15849658434E+03 -0.41113961277E+03  0.72395519780E+03  0.88940332762E+02 0.  0.
         23    2    4    4    0    0  0.10278756456E+02  0.42912453529E+03  0.24419096791E+03  0.50185106199E+03  0.89284601076E+02 0.  0.
          2    1    3    3  502    0  0.51075293651E+03 -0.54847084034E+03  0.15899325247E+04  0.17577184809E+04  0.00000000000E+00 0. -1.
         -1    1    3    3    0  502  0.46457335298E+02 -0.39150279291E+02  0.19992937966E+03  0.20895641943E+03  0.00000000000E+00 0.  1.
         11    1    5    5    0    0 -0.12652217927E+03  0.11407423943E+02 -0.55338809787E+02  0.13856541789E+03  0.00000000000E+00 0. -1.
        -11    1    5    5    0    0 -0.44096684900E+03  0.14708916040E+03 -0.35580080298E+03  0.58538977991E+03  0.00000000000E+00 0.  1.
          2    1    6    6  503    0  0.47421599896E+02  0.18685740665E+03  0.94999641224E+02  0.21491726406E+03  0.00000000000E+00 0. -1.
         -2    1    6    6    0  503 -0.37142843440E+02  0.24226712863E+03  0.14919132669E+03  0.28693379793E+03  0.00000000000E+00 0.  1.
<mgrwt>
<rscale>  0 0.27491978E+04</rscale>
<asrwt>0</asrwt>
<pdfrwt beam="1">  1        2 0.37041495E+00 0.27491978E+04</pdfrwt>
<pdfrwt beam="2">  1       -1 0.12073599E+00 0.27491978E+04</pdfrwt>
<totfact> 0.23838624E+00</totfact>
</mgrwt>
</event>
<event>
12    6  0.1494052E-007  0.1429599E+04  0.7818608E-02  0.8932668E-01
         -1   -1    0    0    0  501 -0.00000000000E+00  0.00000000000E+00  0.56925832072E+03  0.56925832072E+03  0.00000000000E+00 0.  1.
          2   -1    0    0  501    0  0.00000000000E+00 -0.00000000000E+00 -0.89755035566E+03  0.89755035566E+03  0.00000000000E+00 0. -1.
         24    2    1    2    0    0  0.21366169990E+03  0.77404830211E+02 -0.46827893969E+03  0.52673134040E+03  0.80733573319E+02 0.  0.
        254    2    1    2    0    0 -0.21366169990E+03 -0.77404830211E+02  0.13998690475E+03  0.94007733598E+03  0.90139127707E+03 0.  0.
         23    2    4    4    0    0  0.26193526253E+03 -0.22394171764E+02  0.31828607972E+03  0.42136943955E+03  0.84466533952E+02 0.  0.
         23    2    4    4    0    0 -0.47559696243E+03 -0.55010658447E+02 -0.17829917497E+03  0.51870789643E+03  0.89714228562E+02 0.  0.
          4    1    3    3  502    0  0.21457113086E+03  0.59482611237E+02 -0.42298004624E+03  0.47800739613E+03  0.00000000000E+00 0. -1.
         -3    1    3    3    0  502 -0.90943096072E+00  0.17922218973E+02 -0.45298893450E+02  0.48723944271E+02  0.00000000000E+00 0.  1.
         11    1    5    5    0    0  0.63779013981E+02  0.99065792948E+01  0.13448238083E+03  0.14916907753E+03  0.00000000000E+00 0. -1.
        -11    1    5    5    0    0  0.19815624855E+03 -0.32300751059E+02  0.18380369889E+03  0.27220036202E+03  0.00000000000E+00 0.  1.
          3    1    6    6  503    0 -0.34985022628E+03 -0.71879983655E+02 -0.15664742640E+03  0.39000042189E+03  0.00000000000E+00 0. -1.
         -3    1    6    6    0  503 -0.12574673615E+03  0.16869325208E+02 -0.21651748573E+02  0.12870747454E+03  0.00000000000E+00 0.  1.
<mgrwt>
<rscale>  0 0.14295986E+04</rscale>
<asrwt>0</asrwt>
<pdfrwt beam="1">  1        2 0.13808467E+00 0.14295986E+04</pdfrwt>
<pdfrwt beam="2">  1       -1 0.87578204E-01 0.14295986E+04</pdfrwt>
<totfact> 0.41863414E+01</totfact>
</mgrwt>
</event>
<event>
12    6  0.1494052E-007  0.1879432E+04  0.7818608E-02  0.8665163E-01
          2   -1    0    0  501    0  0.00000000000E+00  0.00000000000E+00  0.37183154788E+04  0.37183154788E+04  0.00000000000E+00 0. -1.
         -1   -1    0    0    0  501 -0.00000000000E+00 -0.00000000000E+00 -0.23749093240E+03  0.23749093240E+03  0.00000000000E+00 0.  1.
         24    2    1    2    0    0  0.25111143850E+02  0.30207707039E+03  0.27165346305E+04  0.27346234066E+04  0.81997873258E+02 0.  0.
        254    2    1    2    0    0 -0.25111143850E+02 -0.30207707039E+03  0.76428991592E+03  0.12211830046E+04  0.90292177358E+03 0.  0.
         23    2    4    4    0    0  0.10726810602E+03 -0.31989233364E+03  0.92737838272E+03  0.99118167760E+03  0.92589964815E+02 0.  0.
         23    2    4    4    0    0 -0.13237924987E+03  0.17815263256E+02 -0.16308846680E+03  0.23000132702E+03  0.91984308596E+02 0.  0.
          2    1    3    3  502    0  0.26868283041E+02  0.30539915616E+03  0.27079871031E+04  0.27252861685E+04  0.00000000000E+00 0. -1.
         -1    1    3    3    0  502 -0.17571391913E+01 -0.33220857791E+01  0.85475273118E+01  0.93372380931E+01  0.00000000000E+00 0.  1.
         11    1    5    5    0    0 -0.13865642215E+02 -0.74054087609E+02  0.17955518135E+03  0.19472115210E+03  0.00000000000E+00 0.  1.
        -11    1    5    5    0    0  0.12113374824E+03 -0.24583824603E+03  0.74782320138E+03  0.79646052551E+03  0.00000000000E+00 0. -1.
          3    1    6    6  503    0 -0.33580878625E+02  0.65691818026E+01  0.51216566304E+01  0.34598568257E+02  0.00000000000E+00 0. -1.
         -3    1    6    6    0  503 -0.98798371245E+02  0.11246081453E+02 -0.16821012343E+03  0.19540275877E+03  0.00000000000E+00 0.  1.
<mgrwt>
<rscale>  0 0.18794321E+04</rscale>
<asrwt>0</asrwt>
<pdfrwt beam="1">  1        2 0.57204849E+00 0.18794321E+04</pdfrwt>
<pdfrwt beam="2">  1       -1 0.36537069E-01 0.18794321E+04</pdfrwt>
<totfact> 0.43796953E+00</totfact>
</mgrwt>
</event>
<event>
12    6  0.1494052E-007  0.1598380E+04  0.7818608E-02  0.8821544E-01
          2   -1    0    0  501    0  0.00000000000E+00  0.00000000000E+00  0.15169296453E+04  0.15169296453E+04  0.00000000000E+00 0. -1.
         -1   -1    0    0    0  501 -0.00000000000E+00 -0.00000000000E+00 -0.42105119320E+03  0.42105119320E+03  0.00000000000E+00 0.  1.
         24    2    1    2    0    0 -0.35062519824E+03 -0.29448026430E+03  0.71381477858E+03  0.85275255748E+03  0.89435621952E+02 0.  0.
        254    2    1    2    0    0  0.35062519824E+03  0.29448026430E+03  0.38206367353E+03  0.10852282810E+04  0.90669240408E+03 0.  0.
         23    2    4    4    0    0  0.35433866910E+03  0.46048802281E+03  0.57062062878E+03  0.81836066313E+03  0.80629779863E+02 0.  0.
         23    2    4    4    0    0 -0.37134708645E+01 -0.16600775851E+03 -0.18855695525E+03  0.26686761790E+03  0.89956847187E+02 0.  0.
          2    1    3    3  502    0 -0.10549480135E+03 -0.12806274416E+03  0.31377023254E+03  0.35493799230E+03  0.00000000000E+00 0. -1.
         -1    1    3    3    0  502 -0.24513039688E+03 -0.16641752014E+03  0.40004454604E+03  0.49781456518E+03  0.00000000000E+00 0.  1.
         11    1    5    5    0    0  0.35010901980E+03  0.42479413992E+03  0.53057019256E+03  0.76454634672E+03  0.00000000000E+00 0. -1.
        -11    1    5    5    0    0  0.42296492981E+01  0.35693882885E+02  0.40050436224E+02  0.53814316407E+02  0.00000000000E+00 0.  1.
          1    1    6    6  503    0 -0.13521540944E+02 -0.14402748596E+03 -0.19418824842E+03  0.24214835248E+03  0.00000000000E+00 0. -1.
         -1    1    6    6    0  503  0.98080700790E+01 -0.21980272552E+02  0.56312931708E+01  0.24719265420E+02  0.00000000000E+00 0.  1.
<mgrwt>
<rscale>  0 0.15983805E+04</rscale>
<asrwt>0</asrwt>
<pdfrwt beam="1">  1        2 0.23337379E+00 0.15983805E+04</pdfrwt>
<pdfrwt beam="2">  1       -1 0.64777107E-01 0.15983805E+04</pdfrwt>
<totfact> 0.32789317E+01</totfact>
</mgrwt>
</event>
<event>
12    6  0.1494052E-007  0.1699560E+04  0.7818608E-02  0.8761615E-01
         -3   -1    0    0    0  501 -0.00000000000E+00  0.00000000000E+00  0.41900258736E+03  0.41900258736E+03  0.00000000000E+00 0.  1.
          2   -1    0    0  501    0  0.00000000000E+00 -0.00000000000E+00 -0.17234414498E+04  0.17234414498E+04  0.00000000000E+00 0. -1.
         24    2    1    2    0    0 -0.10566740693E+03  0.26303487319E+03  0.20432412821E+03  0.35849451298E+03  0.80106311017E+02 0.  0.
        254    2    1    2    0    0  0.10566740693E+03 -0.26303487319E+03 -0.15087629906E+04  0.17839495242E+04  0.90871183411E+03 0.  0.
         23    2    4    4    0    0  0.59586525357E+02 -0.18399732953E+03 -0.16087727828E+04  0.16229333430E+04  0.91417710858E+02 0.  0.
         23    2    4    4    0    0  0.46080881577E+02 -0.79037543664E+02  0.10000979212E+03  0.16101618121E+03  0.86913009011E+02 0.  0.
          2    1    3    3  502    0 -0.32238139587E+02  0.12270817017E+03  0.47111166503E+02  0.13533681938E+03  0.00000000000E+00 0. -1.
         -1    1    3    3    0  502 -0.73429267347E+02  0.14032670302E+03  0.15721296171E+03  0.22315769360E+03  0.00000000000E+00 0.  1.
         11    1    5    5    0    0  0.49324504376E+02 -0.27097223258E+02 -0.46973437876E+03  0.47309359838E+03  0.00000000000E+00 0.  1.
        -11    1    5    5    0    0  0.10262020981E+02 -0.15690010627E+03 -0.11390384040E+04  0.11498397446E+04  0.00000000000E+00 0. -1.
          3    1    6    6  503    0  0.65364799720E+02 -0.40376987617E+02  0.86624301518E+02  0.11578699316E+03  0.00000000000E+00 0. -1.
         -3    1    6    6    0  503 -0.19283918144E+02 -0.38660556047E+02  0.13385490604E+02  0.45229188049E+02  0.00000000000E+00 0.  1.
<mgrwt>
<rscale>  0 0.16995604E+04</rscale>
<asrwt>0</asrwt>
<pdfrwt beam="1">  1        2 0.26514483E+00 0.16995604E+04</pdfrwt>
<pdfrwt beam="2">  1       -3 0.64461938E-01 0.16995604E+04</pdfrwt>
<totfact> 0.13504532E+01</totfact>
</mgrwt>
</event>
<event>
12    6  0.1494052E-007  0.1087688E+04  0.7818608E-02  0.9217276E-01
          2   -1    0    0  501    0  0.00000000000E+00  0.00000000000E+00  0.19691937550E+04  0.19691937550E+04  0.00000000000E+00 0. -1.
         -1   -1    0    0    0  501 -0.00000000000E+00 -0.00000000000E+00 -0.15019654872E+03  0.15019654872E+03  0.00000000000E+00 0.  1.
         24    2    1    2    0    0 -0.20805401914E+01  0.11110405672E+03  0.35291281052E+02  0.14142847579E+03  0.80050603862E+02 0.  0.
        254    2    1    2    0    0  0.20805401914E+01 -0.11110405672E+03  0.17837059253E+04  0.19779618280E+04  0.84757166365E+03 0.  0.
         23    2    4    4    0    0 -0.74237120249E+02  0.29751760721E+03  0.32431544557E+03  0.45778883066E+03  0.10179503241E+03 0.  0.
         23    2    4    4    0    0  0.76317660440E+02 -0.40862166393E+03  0.14593904797E+04  0.15201729973E+04  0.91155471589E+02 0.  0.
          4    1    3    3  502    0  0.33467576782E+02  0.87798374982E+02  0.18730118548E+02  0.95809449878E+02  0.00000000000E+00 0. -1.
         -3    1    3    3    0  502 -0.35548116973E+02  0.23305681739E+02  0.16561162504E+02  0.45619025912E+02  0.00000000000E+00 0.  1.
         11    1    5    5    0    0 -0.55989974614E+02  0.14665246008E+03  0.97567762258E+02  0.18482772935E+03  0.00000000000E+00 0.  1.
        -11    1    5    5    0    0 -0.18247145635E+02  0.15086514712E+03  0.22674768331E+03  0.27296110131E+03  0.00000000000E+00 0. -1.
          1    1    6    6  503    0 -0.86611983969E+01 -0.34672376103E+02  0.66951706198E+02  0.75892825650E+02  0.00000000000E+00 0. -1.
         -1    1    6    6    0  503  0.84978858837E+02 -0.37394928783E+03  0.13924387735E+04  0.14442801717E+04  0.00000000000E+00 0.  1.
<mgrwt>
<rscale>  0 0.10876876E+04</rscale>
<asrwt>0</asrwt>
<pdfrwt beam="1">  1        2 0.30295287E+00 0.10876876E+04</pdfrwt>
<pdfrwt beam="2">  1       -1 0.23107163E-01 0.10876876E+04</pdfrwt>
<totfact> 0.12632815E+02</totfact>
</mgrwt>
</event>
<event>
12    6  0.1494052E-007  0.1574580E+04  0.7818608E-02  0.8836318E-01
          2   -1    0    0  501    0  0.00000000000E+00  0.00000000000E+00  0.58272073577E+03  0.58272073577E+03  0.00000000000E+00 0. -1.
         -1   -1    0    0    0  501 -0.00000000000E+00 -0.00000000000E+00 -0.10636754044E+04  0.10636754044E+04  0.00000000000E+00 0.  1.
         24    2    1    2    0    0 -0.23121134025E+03 -0.23024710386E+03 -0.59384511072E+03  0.68224631636E+03  0.79596532400E+02 0.  0.
        254    2    1    2    0    0  0.23121134025E+03  0.23024710386E+03  0.11289044213E+03  0.96414982377E+03  0.90020454235E+03 0.  0.
         23    2    4    4    0    0 -0.27876692053E+03 -0.25128767256E+02 -0.14886424610E+03  0.33003242078E+03  0.91751752404E+02 0.  0.
         23    2    4    4    0    0  0.50997826078E+03  0.25537587111E+03  0.26175468823E+03  0.63411740300E+03  0.91075254364E+02 0.  0.
          2    1    3    3  502    0 -0.75210091363E+02 -0.91257270961E+02 -0.14465330606E+03  0.18683957370E+03  0.00000000000E+00 0. -1.
         -1    1    3    3    0  502 -0.15600124889E+03 -0.13898983289E+03 -0.44919180466E+03  0.49540674266E+03  0.00000000000E+00 0.  1.
         11    1    5    5    0    0 -0.77479883858E+02  0.26219583783E+02 -0.15720887198E+02  0.83293128592E+02  0.00000000000E+00 0. -1.
        -11    1    5    5    0    0 -0.20128703667E+03 -0.51348351038E+02 -0.13314335890E+03  0.24673929218E+03  0.00000000000E+00 0.  1.
          3    1    6    6  503    0  0.17661185679E+03  0.41580854383E+02  0.87713063898E+02  0.20152989106E+03  0.00000000000E+00 0. -1.
         -3    1    6    6    0  503  0.33336640399E+03  0.21379501673E+03  0.17404162433E+03  0.43258751194E+03  0.00000000000E+00 0.  1.
<mgrwt>
<rscale>  0 0.15745802E+04</rscale>
<asrwt>0</asrwt>
<pdfrwt beam="1">  1        2 0.89649346E-01 0.15745802E+04</pdfrwt>
<pdfrwt beam="2">  1       -1 0.16364237E+00 0.15745802E+04</pdfrwt>
<totfact> 0.15473336E+01</totfact>
</mgrwt>
</event>
<event>
12    6  0.1494052E-007  0.2218826E+04  0.7818608E-02  0.8510633E-01
         -3   -1    0    0    0  501 -0.00000000000E+00  0.00000000000E+00  0.91852379541E+03  0.91852379541E+03  0.00000000000E+00 0.  1.
          2   -1    0    0  501    0  0.00000000000E+00 -0.00000000000E+00 -0.13399731383E+04  0.13399731383E+04  0.00000000000E+00 0. -1.
         24    2    1    2    0    0 -0.29882588343E+03  0.65265130747E+03 -0.77093325003E+03  0.10570697092E+04  0.88360943120E+02 0.  0.
        254    2    1    2    0    0  0.29882588343E+03 -0.65265130747E+03  0.34948390709E+03  0.12014272246E+04  0.89779604419E+03 0.  0.
         23    2    4    4    0    0  0.21050598882E+03 -0.17776845365E+01  0.47312665517E+03  0.52592699757E+03  0.91839226054E+02 0.  0.
         23    2    4    4    0    0  0.88319894605E+02 -0.65087362293E+03 -0.12364274808E+03  0.67550022704E+03  0.97857808881E+02 0.  0.
          4    1    3    3  502    0 -0.77398314342E+02  0.18820834061E+03 -0.27800347830E+03  0.34452694014E+03  0.00000000000E+00 0. -1.
         -3    1    3    3    0  502 -0.22142756908E+03  0.46444296686E+03 -0.49292977173E+03  0.71254276902E+03  0.00000000000E+00 0.  1.
         11    1    5    5    0    0  0.83947990777E+02 -0.11200083581E+02  0.95993389740E+02  0.12801342860E+03  0.00000000000E+00 0. -1.
        -11    1    5    5    0    0  0.12655799804E+03  0.94223990448E+01  0.37713326543E+03  0.39791356897E+03  0.00000000000E+00 0.  1.
          3    1    6    6  503    0 -0.12191778040E+01 -0.11005251210E+03 -0.54998169955E+02  0.12303593179E+03  0.00000000000E+00 0. -1.
         -3    1    6    6    0  503  0.89539072409E+02 -0.54082111084E+03 -0.68644578127E+02  0.55246429524E+03  0.00000000000E+00 0.  1.
<mgrwt>
<rscale>  0 0.22188260E+04</rscale>
<asrwt>0</asrwt>
<pdfrwt beam="1">  1        2 0.20614971E+00 0.22188260E+04</pdfrwt>
<pdfrwt beam="2">  1       -3 0.14131135E+00 0.22188260E+04</pdfrwt>
<totfact> 0.34074262E+00</totfact>
</mgrwt>
</event>
<event>
12    6  0.1494052E-007  0.1644834E+04  0.7818608E-02  0.8793468E-01
         -1   -1    0    0    0  501 -0.00000000000E+00  0.00000000000E+00  0.66553845297E+03  0.66553845297E+03  0.00000000000E+00 0.  1.
          2   -1    0    0  501    0  0.00000000000E+00 -0.00000000000E+00 -0.10162750484E+04  0.10162750484E+04  0.00000000000E+00 0. -1.
         24    2    1    2    0    0 -0.28123345513E+03  0.62503309268E+02 -0.62430019661E+03  0.69183488743E+03  0.76719332766E+02 0.  0.
        254    2    1    2    0    0  0.28123345513E+03 -0.62503309268E+02  0.27356360118E+03  0.98997861395E+03  0.90676440834E+03 0.  0.
         23    2    4    4    0    0 -0.21050362126E+03  0.26677185462E+03  0.10636856254E+03  0.36741213509E+03  0.90545065747E+02 0.  0.
         23    2    4    4    0    0  0.49173707640E+03 -0.32927516389E+03  0.16719503864E+03  0.62256647886E+03  0.96991514029E+02 0.  0.
          4    1    3    3  502    0 -0.23724201400E+03  0.23819773072E+02 -0.52364562218E+03  0.57537456707E+03  0.00000000000E+00 0. -1.
         -3    1    3    3    0  502 -0.43991441127E+02  0.38683536196E+02 -0.10065457443E+03  0.11646032036E+03  0.00000000000E+00 0.  1.
         11    1    5    5    0    0 -0.23343136331E+02  0.65371383176E+02  0.53017430516E+02  0.87345106850E+02  0.00000000000E+00 0. -1.
        -11    1    5    5    0    0 -0.18716048493E+03  0.20140047144E+03  0.53351132024E+02  0.28006702824E+03  0.00000000000E+00 0.  1.
          1    1    6    6  503    0  0.88345299180E+02 -0.10224502624E+03  0.57530665554E+02  0.14686291144E+03  0.00000000000E+00 0. -1.
         -1    1    6    6    0  503  0.40339177722E+03 -0.22703013764E+03  0.10966437309E+03  0.47570356741E+03  0.00000000000E+00 0.  1.
<mgrwt>
<rscale>  0 0.16448345E+04</rscale>
<asrwt>0</asrwt>
<pdfrwt beam="1">  1        2 0.15635001E+00 0.16448345E+04</pdfrwt>
<pdfrwt beam="2">  1       -1 0.10239053E+00 0.16448345E+04</pdfrwt>
<totfact> 0.24203973E+01</totfact>
</mgrwt>
</event>
<event>
12    6  0.1494052E-007  0.1472665E+04  0.7818608E-02  0.8902837E-01
         -1   -1    0    0    0  501 -0.00000000000E+00  0.00000000000E+00  0.24812146394E+03  0.24812146394E+03  0.00000000000E+00 0.  1.
          2   -1    0    0  501    0  0.00000000000E+00 -0.00000000000E+00 -0.21851620077E+04  0.21851620077E+04  0.00000000000E+00 0. -1.
         24    2    1    2    0    0 -0.29404372183E+03 -0.33658248520E+03 -0.74835490277E+03  0.87558794412E+03  0.82883699824E+02 0.  0.
        254    2    1    2    0    0  0.29404372183E+03  0.33658248520E+03 -0.11886856410E+04  0.15576955275E+04  0.90204895856E+03 0.  0.
         23    2    4    4    0    0  0.89681497522E+02  0.27640897587E+03 -0.12750923717E+04  0.13106339625E+04  0.86348911109E+02 0.  0.
         23    2    4    4    0    0  0.20436222431E+03  0.60173509326E+02  0.86406730722E+02  0.24706156496E+03  0.90490462587E+02 0.  0.
          4    1    3    3  502    0 -0.17548474037E+03 -0.15085243479E+03 -0.43171106383E+03  0.48982220633E+03  0.00000000000E+00 0. -1.
         -3    1    3    3    0  502 -0.11855898147E+03 -0.18573005041E+03 -0.31664383894E+03  0.38576573779E+03  0.00000000000E+00 0.  1.
         11    1    5    5    0    0  0.66898805743E+02  0.26805704886E+03 -0.12106547920E+04  0.12417789888E+04  0.00000000000E+00 0. -1.
        -11    1    5    5    0    0  0.22782691779E+02  0.83519270168E+01 -0.64437579653E+02  0.68854973685E+02  0.00000000000E+00 0.  1.
          4    1    6    6  503    0  0.15297662637E+03  0.37127427930E+02  0.10327677906E+03  0.18827210950E+03  0.00000000000E+00 0. -1.
         -4    1    6    6    0  503  0.51385597938E+02  0.23046081396E+02 -0.16870048341E+02  0.58789455468E+02  0.00000000000E+00 0.  1.
<mgrwt>
<rscale>  0 0.14726651E+04</rscale>
<asrwt>0</asrwt>
<pdfrwt beam="1">  1        2 0.33617877E+00 0.14726651E+04</pdfrwt>
<pdfrwt beam="2">  1       -1 0.38172532E-01 0.14726651E+04</pdfrwt>
<totfact> 0.38551756E+01</totfact>
</mgrwt>
</event>
<event>
12    6  0.1494052E-007  0.2323420E+04  0.7818608E-02  0.8468744E-01
          2   -1    0    0  501    0  0.00000000000E+00  0.00000000000E+00  0.31759253973E+04  0.31759253973E+04  0.00000000000E+00 0. -1.
         -1   -1    0    0    0  501 -0.00000000000E+00 -0.00000000000E+00 -0.42493762305E+03  0.42493762305E+03  0.00000000000E+00 0.  1.
         24    2    1    2    0    0 -0.67274945545E+03 -0.54165386673E+03  0.19108915169E+04  0.20984461905E+04  0.77390463527E+02 0.  0.
        254    2    1    2    0    0  0.67274945545E+03  0.54165386673E+03  0.84009625736E+03  0.15024168299E+04  0.89750424395E+03 0.  0.
         23    2    4    4    0    0  0.47128309882E+03  0.77972257440E+03  0.67835176707E+03  0.11394211706E+04  0.89690757136E+02 0.  0.
         23    2    4    4    0    0  0.20146635663E+03 -0.23806870767E+03  0.16174449029E+03  0.36299565925E+03  0.91319034550E+02 0.  0.
          4    1    3    3  502    0 -0.46989053246E+02 -0.19605139578E+02  0.87583411414E+02  0.10130738659E+03  0.00000000000E+00 0. -1.
         -1    1    3    3    0  502 -0.62576040221E+03 -0.52204872715E+03  0.18233081055E+04  0.19971388039E+04  0.00000000000E+00 0.  1.
         11    1    5    5    0    0  0.36162156750E+03  0.52640408045E+03  0.49532598623E+03  0.80821980094E+03  0.00000000000E+00 0.  1.
        -11    1    5    5    0    0  0.10966153132E+03  0.25331849395E+03  0.18302578083E+03  0.33120136968E+03  0.00000000000E+00 0. -1.
          3    1    6    6  503    0  0.60342087144E+02 -0.19704194719E+02  0.18352451788E+02  0.66077494331E+02  0.00000000000E+00 0. -1.
         -3    1    6    6    0  503  0.14112426949E+03 -0.21836451295E+03  0.14339203850E+03  0.29691816492E+03  0.00000000000E+00 0.  1.
<mgrwt>
<rscale>  0 0.23234201E+04</rscale>
<asrwt>0</asrwt>
<pdfrwt beam="1">  1        2 0.48860389E+00 0.23234201E+04</pdfrwt>
<pdfrwt beam="2">  1       -1 0.65375021E-01 0.23234201E+04</pdfrwt>
<totfact> 0.32867616E+00</totfact>
</mgrwt>
</event>
<event>
12    6  0.1494052E-007  0.2180065E+04  0.7818608E-02  0.8526772E-01
          2   -1    0    0  501    0  0.00000000000E+00  0.00000000000E+00  0.16686661846E+04  0.16686661846E+04  0.00000000000E+00 0. -1.
         -1   -1    0    0    0  501 -0.00000000000E+00 -0.00000000000E+00 -0.71204827076E+03  0.71204827076E+03  0.00000000000E+00 0.  1.
         24    2    1    2    0    0  0.43746217943E+03 -0.75829683476E+03  0.48105813984E+03  0.10018854800E+04  0.77267930271E+02 0.  0.
        254    2    1    2    0    0 -0.43746217943E+03  0.75829683476E+03  0.47555977399E+03  0.13788289754E+04  0.95321823138E+03 0.  0.
         23    2    4    4    0    0 -0.19625918084E+03  0.93853819290E+03  0.25972444130E+03  0.99766755717E+03  0.92261387485E+02 0.  0.
         23    2    4    4    0    0 -0.24120299858E+03 -0.18024135814E+03  0.21583533269E+03  0.38116141820E+03  0.89628690589E+02 0.  0.
          2    1    3    3  502    0  0.94181371523E+02 -0.15956658056E+03  0.13887310007E+03  0.23155423187E+03  0.00000000000E+00 0. -1.
         -1    1    3    3    0  502  0.34328080791E+03 -0.59873025420E+03  0.34218503977E+03  0.77033124811E+03  0.00000000000E+00 0.  1.
         11    1    5    5    0    0 -0.37097668516E+02  0.22579932813E+03  0.10202587188E+03  0.25054111864E+03  0.00000000000E+00 0.  1.
        -11    1    5    5    0    0 -0.15916151233E+03  0.71273886477E+03  0.15769856942E+03  0.74712643853E+03  0.00000000000E+00 0. -1.
          1    1    6    6  503    0 -0.24702291301E+03 -0.18279085758E+03  0.21424537024E+03  0.37461166004E+03  0.00000000000E+00 0. -1.
         -1    1    6    6    0  503  0.58199144297E+01  0.25494994397E+01  0.15899624503E+01  0.65497581601E+01  0.00000000000E+00 0.  1.
<mgrwt>
<rscale>  0 0.21800650E+04</rscale>
<asrwt>0</asrwt>
<pdfrwt beam="1">  1        2 0.25671787E+00 0.21800650E+04</pdfrwt>
<pdfrwt beam="2">  1       -1 0.10954589E+00 0.21800650E+04</pdfrwt>
<totfact> 0.82035650E+00</totfact>
</mgrwt>
</event>
<event>
12    6  0.1494052E-007  0.1817381E+04  0.7818608E-02  0.8697111E-01
         -1   -1    0    0    0  501 -0.00000000000E+00  0.00000000000E+00  0.65364218886E+03  0.65364218886E+03  0.00000000000E+00 0.  1.
          2   -1    0    0  501    0  0.00000000000E+00 -0.00000000000E+00 -0.12632577011E+04  0.12632577011E+04  0.00000000000E+00 0. -1.
         24    2    1    2    0    0 -0.10942046709E+03 -0.37560767347E+03 -0.82418437764E+03  0.91571902511E+03  0.78787572743E+02 0.  0.
        254    2    1    2    0    0  0.10942046709E+03  0.37560767347E+03  0.21456886540E+03  0.10011808649E+04  0.89625295714E+03 0.  0.
         23    2    4    4    0    0 -0.24763009792E+03  0.46400112792E+02  0.39330777795E+03  0.47555632710E+03  0.89382191654E+02 0.  0.
         23    2    4    4    0    0  0.35705056500E+03  0.32920756067E+03 -0.17873891255E+03  0.52562453776E+03  0.92037122206E+02 0.  0.
          2    1    3    3  502    0 -0.90182431623E+02 -0.18693328335E+03 -0.47475265723E+03  0.51813802113E+03  0.00000000000E+00 0. -1.
         -1    1    3    3    0  502 -0.19238035463E+02 -0.18867439012E+03 -0.34943172041E+03  0.39758100398E+03  0.00000000000E+00 0.  1.
         11    1    5    5    0    0 -0.36895760397E+02  0.11977303412E+02  0.13477230829E+03  0.14024381631E+03  0.00000000000E+00 0.  1.
        -11    1    5    5    0    0 -0.21073433752E+03  0.34422809380E+02  0.25853546966E+03  0.33531251078E+03  0.00000000000E+00 0. -1.
          1    1    6    6  503    0  0.30593921410E+03  0.28613974577E+03 -0.18611528618E+03  0.45838156222E+03  0.00000000000E+00 0. -1.
         -1    1    6    6    0  503  0.51111350903E+02  0.43067814908E+02  0.73763736313E+01  0.67242975544E+02  0.00000000000E+00 0.  1.
<mgrwt>
<rscale>  0 0.18173811E+04</rscale>
<asrwt>0</asrwt>
<pdfrwt beam="1">  1        2 0.19434734E+00 0.18173811E+04</pdfrwt>
<pdfrwt beam="2">  1       -1 0.10056034E+00 0.18173811E+04</pdfrwt>
<totfact> 0.17571060E+01</totfact>
</mgrwt>
</event>
<event>
12    6  0.1494052E-007  0.2420540E+04  0.7818608E-02  0.8431853E-01
         -1   -1    0    0    0  501 -0.00000000000E+00  0.00000000000E+00  0.14173873988E+04  0.14173873988E+04  0.00000000000E+00 0.  1.
          2   -1    0    0  501    0  0.00000000000E+00 -0.00000000000E+00 -0.10334182878E+04  0.10334182878E+04  0.00000000000E+00 0. -1.
         24    2    1    2    0    0  0.89022763481E+03  0.53545584886E+03  0.24963942672E+03  0.10714617454E+04  0.80574317269E+02 0.  0.
        254    2    1    2    0    0 -0.89022763481E+03 -0.53545584886E+03  0.13432968422E+03  0.13793439412E+04  0.89740015384E+03 0.  0.
         23    2    4    4    0    0 -0.71928783250E+03 -0.51709956874E+03  0.45813380399E+03  0.10014592061E+04  0.90923095079E+02 0.  0.
         23    2    4    4    0    0 -0.17093980231E+03 -0.18356280114E+02 -0.32380411977E+03  0.37788473503E+03  0.91599104568E+02 0.  0.
          2    1    3    3  502    0  0.47764095476E+03  0.26760821975E+03  0.16901917974E+03  0.57299434907E+03  0.00000000000E+00 0. -1.
         -1    1    3    3    0  502  0.41258668006E+03  0.26784762910E+03  0.80620246976E+02  0.49846739632E+03  0.00000000000E+00 0.  1.
         11    1    5    5    0    0 -0.42358142125E+03 -0.33297951562E+03  0.23522739465E+03  0.58790178214E+03  0.00000000000E+00 0. -1.
        -11    1    5    5    0    0 -0.29570641126E+03 -0.18412005313E+03  0.22290640934E+03  0.41355742400E+03  0.00000000000E+00 0.  1.
          4    1    6    6  503    0 -0.14809423772E+03 -0.13864263146E+02 -0.32180339541E+03  0.35451593241E+03  0.00000000000E+00 0. -1.
         -4    1    6    6    0  503 -0.22845564588E+02 -0.44920169686E+01 -0.20007243587E+01  0.23368802617E+02  0.00000000000E+00 0.  1.
<mgrwt>
<rscale>  0 0.24205405E+04</rscale>
<asrwt>0</asrwt>
<pdfrwt beam="1">  1        2 0.15898743E+00 0.24205405E+04</pdfrwt>
<pdfrwt beam="2">  1       -1 0.21805960E+00 0.24205405E+04</pdfrwt>
<totfact> 0.27832217E+00</totfact>
</mgrwt>
</event>
<event>
12    6  0.1494052E-007  0.1739583E+04  0.7818608E-02  0.8739105E-01
          2   -1    0    0  501    0  0.00000000000E+00  0.00000000000E+00  0.24640647424E+04  0.24640647424E+04  0.00000000000E+00 0. -1.
         -1   -1    0    0    0  501 -0.00000000000E+00 -0.00000000000E+00 -0.30702831781E+03  0.30702831781E+03  0.00000000000E+00 0.  1.
         24    2    1    2    0    0  0.24239779545E+03  0.46903548378E+03  0.23018620621E+03  0.58145553690E+03  0.79711201062E+02 0.  0.
        254    2    1    2    0    0 -0.24239779545E+03 -0.46903548378E+03  0.19268502184E+04  0.21896375233E+04  0.89610810908E+03 0.  0.
         23    2    4    4    0    0 -0.99752030608E+02  0.18060685540E+03  0.10861082077E+03  0.25122417239E+03  0.93530586309E+02 0.  0.
         23    2    4    4    0    0 -0.14264576485E+03 -0.64964233918E+03  0.18182393976E+04  0.19384133509E+04  0.95230399267E+02 0.  0.
          2    1    3    3  502    0  0.57788631926E+02  0.10821017365E+03  0.91630203419E+02  0.15311780380E+03  0.00000000000E+00 0. -1.
         -1    1    3    3    0  502  0.18460916353E+03  0.36082531013E+03  0.13855600279E+03  0.42833773310E+03  0.00000000000E+00 0.  1.
         11    1    5    5    0    0 -0.11291591590E+02  0.37361321296E+02  0.67416001553E+02  0.77899201762E+02  0.00000000000E+00 0. -1.
        -11    1    5    5    0    0 -0.88460439018E+02  0.14324553411E+03  0.41194819217E+02  0.17332497063E+03  0.00000000000E+00 0.  1.
          4    1    6    6  503    0 -0.29969566370E+02 -0.31683299897E+03  0.94428890339E+03  0.99647521655E+03  0.00000000000E+00 0. -1.
         -4    1    6    6    0  503 -0.11267619848E+03 -0.33280934021E+03  0.87395049423E+03  0.94193813438E+03  0.00000000000E+00 0.  1.
<mgrwt>
<rscale>  0 0.17395835E+04</rscale>
<asrwt>0</asrwt>
<pdfrwt beam="1">  1        2 0.37908687E+00 0.17395835E+04</pdfrwt>
<pdfrwt beam="2">  1       -1 0.47235127E-01 0.17395835E+04</pdfrwt>
<totfact> 0.17659950E+01</totfact>
</mgrwt>
</event>
<event>
12    6  0.1494052E-007  0.1315315E+04  0.7818608E-02  0.9017508E-01
         -1   -1    0    0    0  501 -0.00000000000E+00  0.00000000000E+00  0.27725362853E+03  0.27725362853E+03  0.00000000000E+00 0.  1.
          2   -1    0    0  501    0  0.00000000000E+00 -0.00000000000E+00 -0.15599910615E+04  0.15599910615E+04  0.00000000000E+00 0. -1.
         24    2    1    2    0    0  0.12435173741E+03  0.17609429814E+03 -0.74813081538E+03  0.78277521764E+03  0.81023255827E+02 0.  0.
        254    2    1    2    0    0 -0.12435173741E+03 -0.17609429814E+03 -0.53460661762E+03  0.10544694724E+04  0.88296606743E+03 0.  0.
         23    2    4    4    0    0 -0.33117397533E+03 -0.28448725211E+03  0.19545982430E+02  0.44648502766E+03  0.91420106923E+02 0.  0.
         23    2    4    4    0    0  0.20682223792E+03  0.10839295397E+03 -0.55415260005E+03  0.60798444476E+03  0.89641008249E+02 0.  0.
          4    1    3    3  502    0  0.75220785693E+02  0.15831976009E+03 -0.52033647533E+03  0.54906589822E+03  0.00000000000E+00 0. -1.
         -3    1    3    3    0  502  0.49130951718E+02  0.17774538055E+02 -0.22779434006E+03  0.23370931941E+03  0.00000000000E+00 0.  1.
         11    1    5    5    0    0 -0.17991916060E+03 -0.10712221069E+03  0.37369478820E+02  0.21270296265E+03  0.00000000000E+00 0.  1.
        -11    1    5    5    0    0 -0.15125481473E+03 -0.17736504142E+03 -0.17823496390E+02  0.23378206501E+03  0.00000000000E+00 0. -1.
          1    1    6    6  503    0  0.36838332912E+01  0.20508956228E+02 -0.16575825561E+02  0.26626038126E+02  0.00000000000E+00 0. -1.
         -1    1    6    6    0  503  0.20313840463E+03  0.87883997743E+02 -0.53757677449E+03  0.58135840664E+03  0.00000000000E+00 0.  1.
<mgrwt>
<rscale>  0 0.13153147E+04</rscale>
<asrwt>0</asrwt>
<pdfrwt beam="1">  1        2 0.23999863E+00 0.13153147E+04</pdfrwt>
<pdfrwt beam="2">  1       -1 0.42654403E-01 0.13153147E+04</pdfrwt>
<totfact> 0.70868921E+01</totfact>
</mgrwt>
</event>
<event>
12    6  0.1494052E-007  0.1199527E+04  0.7818608E-02  0.9113271E-01
          2   -1    0    0  501    0  0.00000000000E+00  0.00000000000E+00  0.12312924889E+04  0.12312924889E+04  0.00000000000E+00 0. -1.
         -1   -1    0    0    0  501 -0.00000000000E+00 -0.00000000000E+00 -0.29214526744E+03  0.29214526744E+03  0.00000000000E+00 0.  1.
         24    2    1    2    0    0  0.15713255466E+03 -0.51113549688E+02 -0.27724836494E+02  0.18567139785E+03  0.80012291100E+02 0.  0.
        254    2    1    2    0    0 -0.15713255466E+03  0.51113549688E+02  0.96687205798E+03  0.13377663585E+04  0.90965598926E+03 0.  0.
         23    2    4    4    0    0  0.84564463466E+02  0.46293963044E+02 -0.14668435789E+03  0.19461971147E+03  0.84061000152E+02 0.  0.
         23    2    4    4    0    0 -0.24169701813E+03  0.48195866437E+01  0.11135564159E+04  0.11431466471E+04  0.91299991007E+02 0.  0.
          4    1    3    3  502    0  0.88168402304E+01  0.15402824139E+02  0.76368082666E+01  0.19321089607E+02  0.00000000000E+00 0. -1.
         -3    1    3    3    0  502  0.14831571443E+03 -0.66516373827E+02 -0.35361644761E+02  0.16635030825E+03  0.00000000000E+00 0.  1.
         11    1    5    5    0    0  0.27503338543E+02  0.42836602246E+02 -0.18320725167E+02  0.54102283626E+02  0.00000000000E+00 0.  1.
        -11    1    5    5    0    0  0.57061124923E+02  0.34573607988E+01 -0.12836363272E+03  0.14051742784E+03  0.00000000000E+00 0. -1.
          2    1    6    6  503    0 -0.20816306201E+03 -0.29638007299E+02  0.91626704288E+03  0.94008274409E+03  0.00000000000E+00 0. -1.
         -2    1    6    6    0  503 -0.33533956113E+02  0.34457593943E+02  0.19728937299E+03  0.20306390296E+03  0.00000000000E+00 0.  1.
<mgrwt>
<rscale>  0 0.11995270E+04</rscale>
<asrwt>0</asrwt>
<pdfrwt beam="1">  1        2 0.18942961E+00 0.11995270E+04</pdfrwt>
<pdfrwt beam="2">  1       -1 0.44945426E-01 0.11995270E+04</pdfrwt>
<totfact> 0.10013630E+02</totfact>
</mgrwt>
</event>
<event>
12    6  0.1494052E-007  0.1353817E+04  0.7818608E-02  0.8987944E-01
         -1   -1    0    0    0  501 -0.00000000000E+00  0.00000000000E+00  0.16419416471E+03  0.16419416471E+03  0.00000000000E+00 0.  1.
          2   -1    0    0  501    0  0.00000000000E+00 -0.00000000000E+00 -0.27906301891E+04  0.27906301891E+04  0.00000000000E+00 0. -1.
         24    2    1    2    0    0 -0.28805765603E+03  0.16969496101E+01 -0.22723293810E+03  0.37571891235E+03  0.80930835333E+02 0.  0.
        254    2    1    2    0    0  0.28805765603E+03 -0.16969496101E+01 -0.23992030863E+04  0.25791054414E+04  0.90145955872E+03 0.  0.
         23    2    4    4    0    0 -0.28898541265E+02  0.92533028329E+01  0.46551873845E+02  0.11118094499E+03  0.96298371067E+02 0.  0.
         23    2    4    4    0    0  0.31695619730E+03 -0.10950252443E+02 -0.24457549601E+04  0.24679244965E+04  0.91393961245E+02 0.  0.
          2    1    3    3  502    0 -0.22013700978E+02 -0.20370245517E+02 -0.10230714811E+02  0.31689390317E+02  0.00000000000E+00 0. -1.
         -1    1    3    3    0  502 -0.26604395505E+03  0.22067195127E+02 -0.21700222329E+03  0.34402952204E+03  0.00000000000E+00 0.  1.
         11    1    5    5    0    0 -0.52523290902E+01  0.18200586332E+02  0.72510992326E+02  0.74944594947E+02  0.00000000000E+00 0. -1.
        -11    1    5    5    0    0 -0.23646212175E+02 -0.89472834993E+01 -0.25959118481E+02  0.36236350044E+02  0.00000000000E+00 0.  1.
          1    1    6    6  503    0  0.30242594781E+03 -0.12736663651E+02 -0.24146285633E+04  0.24335272292E+04  0.00000000000E+00 0. -1.
         -1    1    6    6    0  503  0.14530249486E+02  0.17864112076E+01 -0.31126396789E+02  0.34397267220E+02  0.00000000000E+00 0.  1.
<mgrwt>
<rscale>  0 0.13538171E+04</rscale>
<asrwt>0</asrwt>
<pdfrwt beam="1">  1        2 0.42932769E+00 0.13538171E+04</pdfrwt>
<pdfrwt beam="2">  1       -1 0.25260643E-01 0.13538171E+04</pdfrwt>
<totfact> 0.36114164E+01</totfact>
</mgrwt>
</event>
<event>
12    6  0.1500145E-007  0.3133227E+04  0.7818608E-02  0.8206678E-01
         -1   -1    0    0    0  501 -0.00000000000E+00  0.00000000000E+00  0.10092152799E+04  0.10092152799E+04  0.00000000000E+00 0.  1.
          2   -1    0    0  501    0  0.00000000000E+00 -0.00000000000E+00 -0.24318674188E+04  0.24318674188E+04  0.00000000000E+00 0. -1.
         24    2    1    2    0    0  0.90777405212E+03  0.47393852784E+03  0.45284933372E+03  0.11225755818E+04  0.80199500761E+02 0.  0.
        254    2    1    2    0    0 -0.90777405212E+03 -0.47393852784E+03 -0.18755014726E+04  0.23185071169E+04  0.89960992622E+03 0.  0.
         23    2    4    4    0    0 -0.67949865485E+03 -0.38047006572E+03 -0.18952056763E+04  0.20510337233E+04  0.91972201578E+02 0.  0.
         23    2    4    4    0    0 -0.22827539727E+03 -0.93468462120E+02  0.19704203683E+02  0.26747339356E+03  0.10152709101E+03 0.  0.
          4    1    3    3  502    0  0.88150446316E+02  0.71104123410E+02  0.37560526116E+02  0.11931928039E+03  0.00000000000E+00 0. -1.
         -3    1    3    3    0  502  0.81962360580E+03  0.40283440443E+03  0.41528880760E+03  0.10032563014E+04  0.00000000000E+00 0.  1.
         11    1    5    5    0    0 -0.79749417788E+02 -0.13793861281E+02 -0.21307722176E+03  0.22793012675E+03  0.00000000000E+00 0.  1.
        -11    1    5    5    0    0 -0.59974923706E+03 -0.36667620444E+03 -0.16821284545E+04  0.18231035966E+04  0.00000000000E+00 0. -1.
          3    1    6    6  503    0 -0.10217201565E+03  0.17344897556E+01  0.36653734889E+02  0.10856162084E+03  0.00000000000E+00 0. -1.
         -3    1    6    6    0  503 -0.12610338162E+03 -0.95202951875E+02 -0.16949531206E+02  0.15891177272E+03  0.00000000000E+00 0.  1.
<mgrwt>
<rscale>  0 0.31332269E+04</rscale>
<asrwt>0</asrwt>
<pdfrwt beam="1">  1        2 0.37413344E+00 0.31332269E+04</pdfrwt>
<pdfrwt beam="2">  1       -1 0.15526389E+00 0.31332269E+04</pdfrwt>
<totfact> 0.11649003E+00</totfact>
</mgrwt>
</event>
<event>
12    6  0.1494052E-007  0.1685932E+04  0.7818608E-02  0.8769429E-01
         -1   -1    0    0    0  501 -0.00000000000E+00  0.00000000000E+00  0.37947304764E+03  0.37947304764E+03  0.00000000000E+00 0.  1.
          2   -1    0    0  501    0  0.00000000000E+00 -0.00000000000E+00 -0.18725755625E+04  0.18725755625E+04  0.00000000000E+00 0. -1.
         24    2    1    2    0    0  0.57614816331E+03 -0.22070225981E+02 -0.75768353904E+03  0.95560029669E+03  0.81570710079E+02 0.  0.
        254    2    1    2    0    0 -0.57614816331E+03  0.22070225981E+02 -0.73541897582E+03  0.12964483135E+04  0.89861190650E+03 0.  0.
         23    2    4    4    0    0 -0.63396376722E+03 -0.11490258827E+03 -0.12621949997E+03  0.66271988647E+03  0.90297413094E+02 0.  0.
         23    2    4    4    0    0  0.57815603911E+02  0.13697281425E+03 -0.60919947585E+03  0.63372842699E+03  0.91561574308E+02 0.  0.
          4    1    3    3  502    0  0.49536255497E+03  0.21385083545E+01 -0.67706276359E+03  0.83892944872E+03  0.00000000000E+00 0. -1.
         -3    1    3    3    0  502  0.80785608336E+02 -0.24208734335E+02 -0.80620775455E+02  0.11667084798E+03  0.00000000000E+00 0.  1.
         11    1    5    5    0    0 -0.59801139658E+03 -0.88363394596E+02 -0.12835896648E+03  0.61798199344E+03  0.00000000000E+00 0.  1.
        -11    1    5    5    0    0 -0.35952370639E+02 -0.26539193675E+02  0.21394665100E+01  0.44737893026E+02  0.00000000000E+00 0. -1.
          2    1    6    6  503    0  0.59181460694E+02  0.34131137721E+02 -0.30688114470E+03  0.31439372898E+03  0.00000000000E+00 0. -1.
         -2    1    6    6    0  503 -0.13658567836E+01  0.10284167653E+03 -0.30231833116E+03  0.31933469801E+03  0.00000000000E+00 0.  1.
<mgrwt>
<rscale>  0 0.16859323E+04</rscale>
<asrwt>0</asrwt>
<pdfrwt beam="1">  1        2 0.28808855E+00 0.16859323E+04</pdfrwt>
<pdfrwt beam="2">  1       -1 0.58380468E-01 0.16859323E+04</pdfrwt>
<totfact> 0.25369550E+01</totfact>
</mgrwt>
</event>
<event>
12    6  0.1494052E-007  0.1960824E+04  0.7818608E-02  0.8625159E-01
          2   -1    0    0  501    0  0.00000000000E+00  0.00000000000E+00  0.17361108013E+04  0.17361108013E+04  0.00000000000E+00 0. -1.
         -1   -1    0    0    0  501 -0.00000000000E+00 -0.00000000000E+00 -0.55365582430E+03  0.55365582430E+03  0.00000000000E+00 0.  1.
         24    2    1    2    0    0  0.44137926562E+03 -0.59505029641E+03  0.24804896087E+03  0.78533044655E+03  0.79467678427E+02 0.  0.
        254    2    1    2    0    0 -0.44137926562E+03  0.59505029641E+03  0.93440601609E+03  0.15044361790E+04  0.91723121536E+03 0.  0.
         23    2    4    4    0    0 -0.69766564285E+03  0.37467951988E+03  0.79626016647E+03  0.11268683285E+04  0.93165901557E+02 0.  0.
         23    2    4    4    0    0  0.25628637724E+03  0.22037077653E+03  0.13814584962E+03  0.37756785052E+03  0.96058418017E+02 0.  0.
          4    1    3    3  502    0 -0.31327868700E+01 -0.65541102585E+01  0.12464198163E+00  0.72654146803E+01  0.00000000000E+00 0. -1.
         -3    1    3    3    0  502  0.44451205249E+03 -0.58849618615E+03  0.24792431889E+03  0.77806503187E+03  0.00000000000E+00 0.  1.
         11    1    5    5    0    0 -0.37852498711E+03  0.24057565565E+03  0.40315670775E+03  0.60306976625E+03  0.00000000000E+00 0.  1.
        -11    1    5    5    0    0 -0.31914065575E+03  0.13410386422E+03  0.39310345871E+03  0.52379856224E+03  0.00000000000E+00 0. -1.
          1    1    6    6  503    0 -0.24131806067E+01 -0.66464462614E+01  0.13654800247E+01  0.72016126141E+01  0.00000000000E+00 0. -1.
         -1    1    6    6    0  503  0.25869955785E+03  0.22701722279E+03  0.13678036960E+03  0.37036623791E+03  0.00000000000E+00 0.  1.
<mgrwt>
<rscale>  0 0.19608242E+04</rscale>
<asrwt>0</asrwt>
<pdfrwt beam="1">  1        2 0.26709397E+00 0.19608242E+04</pdfrwt>
<pdfrwt beam="2">  1       -1 0.85177820E-01 0.19608242E+04</pdfrwt>
<totfact> 0.13545517E+01</totfact>
</mgrwt>
</event>
<event>
12    6  0.1494052E-007  0.1944712E+04  0.7818608E-02  0.8632915E-01
          2   -1    0    0  501    0  0.00000000000E+00  0.00000000000E+00  0.91602961102E+03  0.91602961102E+03  0.00000000000E+00 0. -1.
         -1   -1    0    0    0  501 -0.00000000000E+00 -0.00000000000E+00 -0.10321462523E+04  0.10321462523E+04  0.00000000000E+00 0.  1.
         24    2    1    2    0    0  0.14503951158E+02 -0.57377487394E+03  0.45432093912E+03  0.73625649001E+03  0.78981851083E+02 0.  0.
        254    2    1    2    0    0 -0.14503951158E+02  0.57377487394E+03 -0.57043758045E+03  0.12119193734E+04  0.90217601595E+03 0.  0.
         23    2    4    4    0    0 -0.16121900055E+03  0.65200190470E+03 -0.70599142332E+03  0.97873657504E+03  0.91669753224E+02 0.  0.
         23    2    4    4    0    0  0.14671504940E+03 -0.78227030757E+02  0.13555384287E+03  0.23318279831E+03  0.91403495840E+02 0.  0.
          4    1    3    3  502    0  0.20327941909E+02 -0.33806645029E+03  0.31422544447E+03  0.46199543286E+03  0.00000000000E+00 0. -1.
         -3    1    3    3    0  502 -0.58239907505E+01 -0.23570842365E+03  0.14009549465E+03  0.27426105715E+03  0.00000000000E+00 0.  1.
         11    1    5    5    0    0 -0.13002864000E+03  0.43131567121E+03 -0.52374182775E+03  0.69083004971E+03  0.00000000000E+00 0. -1.
        -11    1    5    5    0    0 -0.31190360548E+02  0.22068623348E+03 -0.18224959557E+03  0.28790652533E+03  0.00000000000E+00 0.  1.
          1    1    6    6  503    0  0.92587014871E+02 -0.20800958385E+01  0.90403761866E+02  0.12941994545E+03  0.00000000000E+00 0. -1.
         -1    1    6    6    0  503  0.54128034524E+02 -0.76146934918E+02  0.45150081005E+02  0.10376285286E+03  0.00000000000E+00 0.  1.
<mgrwt>
<rscale>  0 0.19447123E+04</rscale>
<asrwt>0</asrwt>
<pdfrwt beam="1">  1        2 0.14092763E+00 0.19447123E+04</pdfrwt>
<pdfrwt beam="2">  1       -1 0.15879173E+00 0.19447123E+04</pdfrwt>
<totfact> 0.90900893E+00</totfact>
</mgrwt>
</event>
<event>
12    6  0.2429812E-007  0.2593274E+04  0.7818608E-02  0.8370490E-01
         -1   -1    0    0    0  501 -0.00000000000E+00  0.00000000000E+00  0.81713353608E+03  0.81713353608E+03  0.00000000000E+00 0.  1.
          2   -1    0    0  501    0  0.00000000000E+00 -0.00000000000E+00 -0.20575180847E+04  0.20575180847E+04  0.00000000000E+00 0. -1.
         24    2    1    2    0    0  0.65740908963E+02 -0.23017869268E+03 -0.18084286876E+04  0.18259298105E+04  0.79380456227E+02 0.  0.
        254    2    1    2    0    0 -0.65740908963E+02  0.23017869268E+03  0.56804413900E+03  0.10487218103E+04  0.84843337624E+03 0.  0.
         23    2    4    4    0    0  0.27863880575E+03  0.74927337122E+02 -0.61705754845E+02  0.30865509621E+03  0.90590718701E+02 0.  0.
         23    2    4    4    0    0 -0.34437971471E+03  0.15525135556E+03  0.62974989384E+03  0.74006671411E+03  0.91724812497E+02 0.  0.
          4    1    3    3  502    0  0.38077526552E+02 -0.16421849343E+03 -0.14933437429E+04  0.15028283821E+04  0.00000000000E+00 0. -1.
         -3    1    3    3    0  502  0.27663382411E+02 -0.65960199243E+02 -0.31508494472E+03  0.32310142835E+03  0.00000000000E+00 0.  1.
         11    1    5    5    0    0  0.62453576283E+01 -0.77519924692E+00  0.14534406980E+02  0.15838384136E+02  0.00000000000E+00 0.  1.
        -11    1    5    5    0    0  0.27239344812E+03  0.75702536369E+02 -0.76240161825E+02  0.29281671207E+03  0.00000000000E+00 0. -1.
          2    1    6    6  503    0 -0.31658975359E+03  0.14169816094E+03  0.61440363365E+03  0.70554891109E+03  0.00000000000E+00 0. -1.
         -2    1    6    6    0  503 -0.27789961124E+02  0.13553194618E+02  0.15346260193E+02  0.34517803023E+02  0.00000000000E+00 0.  1.
<mgrwt>
<rscale>  0 0.25932736E+04</rscale>
<asrwt>0</asrwt>
<pdfrwt beam="1">  1        2 0.31654124E+00 0.25932736E+04</pdfrwt>
<pdfrwt beam="2">  1       -1 0.12571285E+00 0.25932736E+04</pdfrwt>
<totfact> 0.34474943E+00</totfact>
</mgrwt>
</event>
<event>
12    6  0.1494052E-007  0.1182673E+04  0.7818608E-02  0.9128159E-01
         -1   -1    0    0    0  501 -0.00000000000E+00  0.00000000000E+00  0.26030881843E+03  0.26030881843E+03  0.00000000000E+00 0.  1.
          2   -1    0    0  501    0  0.00000000000E+00 -0.00000000000E+00 -0.13433235574E+04  0.13433235574E+04  0.00000000000E+00 0. -1.
         24    2    1    2    0    0  0.86634463080E+02  0.60668153639E+02  0.63314888050E+02  0.14744343452E+03  0.80898926286E+02 0.  0.
        254    2    1    2    0    0 -0.86634463080E+02 -0.60668153639E+02 -0.11463296270E+04  0.14561889413E+04  0.89175583202E+03 0.  0.
         23    2    4    4    0    0  0.10799870258E+03  0.38018065339E+03 -0.55404914385E+03  0.68709371842E+03  0.94478966536E+02 0.  0.
         23    2    4    4    0    0 -0.19463316566E+03 -0.44084880703E+03 -0.59228048313E+03  0.76909522286E+03  0.92095338036E+02 0.  0.
          2    1    3    3  502    0  0.56365499884E+02  0.50979041219E+02 -0.66730039364E+00  0.76002483582E+02  0.00000000000E+00 0. -1.
         -1    1    3    3    0  502  0.30268963196E+02  0.96891124201E+01  0.63982188444E+02  0.71440950935E+02  0.00000000000E+00 0.  1.
         11    1    5    5    0    0  0.52509317580E+02  0.53825895991E+02 -0.10925665405E+03  0.13263284648E+03  0.00000000000E+00 0. -1.
        -11    1    5    5    0    0  0.55489384998E+02  0.32635475740E+03 -0.44479248980E+03  0.55446087194E+03  0.00000000000E+00 0.  1.
          1    1    6    6  503    0 -0.25646682376E+02 -0.13163729569E+02 -0.20694062628E+02  0.35486339923E+02  0.00000000000E+00 0. -1.
         -1    1    6    6    0  503 -0.16898648328E+03 -0.42768507746E+03 -0.57158642050E+03  0.73360888294E+03  0.00000000000E+00 0.  1.
<mgrwt>
<rscale>  0 0.11826732E+04</rscale>
<asrwt>0</asrwt>
<pdfrwt beam="1">  1        2 0.20666516E+00 0.11826732E+04</pdfrwt>
<pdfrwt beam="2">  1       -1 0.40047510E-01 0.11826732E+04</pdfrwt>
<totfact> 0.10667510E+02</totfact>
</mgrwt>
</event>
<event>
12    6  0.1494052E-007  0.1643423E+04  0.7818608E-02  0.8794307E-01
          2   -1    0    0  501    0  0.00000000000E+00  0.00000000000E+00  0.18925331155E+04  0.18925331155E+04  0.00000000000E+00 0. -1.
         -1   -1    0    0    0  501 -0.00000000000E+00 -0.00000000000E+00 -0.35677562621E+03  0.35677562621E+03  0.00000000000E+00 0.  1.
         24    2    1    2    0    0 -0.52432394341E+03 -0.10593801538E+03  0.26827798955E+03  0.60368247580E+03  0.79504661355E+02 0.  0.
        254    2    1    2    0    0  0.52432394341E+03  0.10593801538E+03  0.12674794997E+04  0.16456262659E+04  0.90301886140E+03 0.  0.
         23    2    4    4    0    0  0.63412770208E+03  0.19016707489E+02  0.38549561126E+03  0.74798494097E+03  0.91624384898E+02 0.  0.
         23    2    4    4    0    0 -0.10980375867E+03  0.86921307887E+02  0.88198388846E+03  0.89764132492E+03  0.90841562733E+02 0.  0.
          4    1    3    3  502    0 -0.38470051576E+03 -0.49547553073E+02  0.21792815000E+03  0.44490687273E+03  0.00000000000E+00 0. -1.
         -3    1    3    3    0  502 -0.13962342765E+03 -0.56390462303E+02  0.50349839556E+02  0.15877560307E+03  0.00000000000E+00 0.  1.
         11    1    5    5    0    0  0.51395715458E+03  0.50174071499E+02  0.32170514399E+03  0.60841071150E+03  0.00000000000E+00 0.  1.
        -11    1    5    5    0    0  0.12017054750E+03 -0.31157364010E+02  0.63790467275E+02  0.13957422947E+03  0.00000000000E+00 0. -1.
          1    1    6    6  503    0  0.11005690712E+02  0.32664063508E+02  0.17607387102E+03  0.17941592552E+03  0.00000000000E+00 0. -1.
         -1    1    6    6    0  503 -0.12080944938E+03  0.54257244380E+02  0.70591001743E+03  0.71822539940E+03  0.00000000000E+00 0.  1.
<mgrwt>
<rscale>  0 0.16434229E+04</rscale>
<asrwt>0</asrwt>
<pdfrwt beam="1">  1        2 0.29115894E+00 0.16434229E+04</pdfrwt>
<pdfrwt beam="2">  1       -1 0.54888559E-01 0.16434229E+04</pdfrwt>
<totfact> 0.27995435E+01</totfact>
</mgrwt>
</event>
<event>
12    6  0.1494052E-007  0.3095737E+04  0.7818608E-02  0.8216909E-01
          2   -1    0    0  501    0  0.00000000000E+00  0.00000000000E+00  0.41661042045E+04  0.41661042045E+04  0.00000000000E+00 0. -1.
         -1   -1    0    0    0  501 -0.00000000000E+00 -0.00000000000E+00 -0.57509275793E+03  0.57509275793E+03  0.00000000000E+00 0.  1.
         24    2    1    2    0    0  0.47550931795E+03 -0.89124494964E+03  0.31722120948E+04  0.33301946168E+04  0.82703925963E+02 0.  0.
        254    2    1    2    0    0 -0.47550931795E+03  0.89124494964E+03  0.41879935178E+03  0.14110023457E+04  0.89168831479E+03 0.  0.
         23    2    4    4    0    0 -0.36701812743E+03  0.35785620974E+03  0.63127136867E+03  0.81938964410E+03  0.10066019695E+03 0.  0.
         23    2    4    4    0    0 -0.10849119052E+03  0.53338873991E+03 -0.21247201689E+03  0.59161270157E+03  0.92667925535E+02 0.  0.
          4    1    3    3  502    0  0.47027820152E+03 -0.84771941430E+03  0.30183677534E+04  0.31702261255E+04  0.00000000000E+00 0. -1.
         -3    1    3    3    0  502  0.52311164254E+01 -0.43525535338E+02  0.15384434141E+03  0.15996849124E+03  0.00000000000E+00 0.  1.
         11    1    5    5    0    0 -0.19670688517E+03  0.18264913380E+03  0.25173275785E+03  0.36799957354E+03  0.00000000000E+00 0.  1.
        -11    1    5    5    0    0 -0.17031124226E+03  0.17520707594E+03  0.37953861082E+03  0.45139007056E+03  0.00000000000E+00 0. -1.
          2    1    6    6  503    0 -0.94476648736E+02  0.29536456845E+03 -0.86499712444E+02  0.32194450718E+03  0.00000000000E+00 0. -1.
         -2    1    6    6    0  503 -0.14014541784E+02  0.23802417145E+03 -0.12597230445E+03  0.26966819439E+03  0.00000000000E+00 0.  1.
<mgrwt>
<rscale>  0 0.30957367E+04</rscale>
<asrwt>0</asrwt>
<pdfrwt beam="1">  1        2 0.64093909E+00 0.30957367E+04</pdfrwt>
<pdfrwt beam="2">  1       -1 0.88475812E-01 0.30957367E+04</pdfrwt>
<totfact> 0.30058892E-01</totfact>
</mgrwt>
</event>
<event>
12    6  0.1494052E-007  0.2239781E+04  0.7818608E-02  0.8502051E-01
         -1   -1    0    0    0  501 -0.00000000000E+00  0.00000000000E+00  0.55851617749E+03  0.55851617749E+03  0.00000000000E+00 0.  1.
          2   -1    0    0  501    0  0.00000000000E+00 -0.00000000000E+00 -0.22455112922E+04  0.22455112922E+04  0.00000000000E+00 0. -1.
         24    2    1    2    0    0 -0.54039095536E+03  0.56984644327E+03 -0.63174099486E+02  0.79188523010E+03  0.79648586126E+02 0.  0.
        254    2    1    2    0    0  0.54039095536E+03 -0.56984644327E+03 -0.16238210152E+04  0.20121422395E+04  0.89172548986E+03 0.  0.
         23    2    4    4    0    0  0.53019487247E+02  0.21378019763E+03 -0.19140273430E+03  0.30582093809E+03  0.91533603402E+02 0.  0.
         23    2    4    4    0    0  0.48737146811E+03 -0.78362664090E+03 -0.14324182809E+04  0.17063213015E+04  0.90047721229E+02 0.  0.
          2    1    3    3  502    0 -0.10936841870E+03  0.15662936603E+03  0.35563500456E+01  0.19106767633E+03  0.00000000000E+00 0. -1.
         -1    1    3    3    0  502 -0.43102253666E+03  0.41321707723E+03 -0.66730449532E+02  0.60081755377E+03  0.00000000000E+00 0.  1.
         11    1    5    5    0    0  0.51216450691E+02  0.83756879306E+02 -0.12753927121E+03  0.16094907689E+03  0.00000000000E+00 0. -1.
        -11    1    5    5    0    0  0.18030365560E+01  0.13002331833E+03 -0.63863463088E+02  0.14487186120E+03  0.00000000000E+00 0.  1.
          1    1    6    6  503    0  0.24256620369E+03 -0.44107564906E+03 -0.71368040733E+03  0.87334175165E+03  0.00000000000E+00 0. -1.
         -1    1    6    6    0  503  0.24480526442E+03 -0.34255099184E+03 -0.71873787356E+03  0.83297954980E+03  0.00000000000E+00 0.  1.
<mgrwt>
<rscale>  0 0.22397807E+04</rscale>
<asrwt>0</asrwt>
<pdfrwt beam="1">  1        2 0.34546329E+00 0.22397807E+04</pdfrwt>
<pdfrwt beam="2">  1       -1 0.85925563E-01 0.22397807E+04</pdfrwt>
<totfact> 0.67475884E+00</totfact>
</mgrwt>
</event>
<event>
12    6  0.1494052E-007  0.1260385E+04  0.7818608E-02  0.9061583E-01
         -1   -1    0    0    0  501 -0.00000000000E+00  0.00000000000E+00  0.62847681056E+03  0.62847681056E+03  0.00000000000E+00 0.  1.
          2   -1    0    0  501    0  0.00000000000E+00 -0.00000000000E+00 -0.63191334554E+03  0.63191334554E+03  0.00000000000E+00 0. -1.
         24    2    1    2    0    0 -0.15303521737E+03  0.23181141637E+03  0.12007364323E+03  0.31290147962E+03  0.79582319880E+02 0.  0.
        254    2    1    2    0    0  0.15303521737E+03 -0.23181141637E+03 -0.12351017821E+03  0.94748867648E+03  0.89739830478E+03 0.  0.
         23    2    4    4    0    0  0.19085666117E+03  0.11532870998E+03 -0.41748468025E+03  0.48225214241E+03  0.92448332387E+02 0.  0.
         23    2    4    4    0    0 -0.37821443806E+02 -0.34714012635E+03  0.29397450203E+03  0.46523653407E+03  0.89929393706E+02 0.  0.
          2    1    3    3  502    0 -0.13191443721E+03  0.14541353987E+03  0.10514590005E+03  0.22271546111E+03  0.00000000000E+00 0. -1.
         -1    1    3    3    0  502 -0.21120780159E+02  0.86397876497E+02  0.14927743178E+02  0.90186018506E+02  0.00000000000E+00 0.  1.
         11    1    5    5    0    0  0.16799353032E+03  0.54921750036E+02 -0.30066205575E+03  0.34876338200E+03  0.00000000000E+00 0. -1.
        -11    1    5    5    0    0  0.22863130852E+02  0.60406959945E+02 -0.11682262450E+03  0.13348876042E+03  0.00000000000E+00 0.  1.
          2    1    6    6  503    0  0.18088422852E+02 -0.21405377343E+02  0.10860600789E+02  0.30055513138E+02  0.00000000000E+00 0.  1.
         -2    1    6    6    0  503 -0.55909866658E+02 -0.32573474900E+03  0.28311390124E+03  0.43518102093E+03  0.00000000000E+00 0. -1.
<mgrwt>
<rscale>  0 0.12603855E+04</rscale>
<asrwt>0</asrwt>
<pdfrwt beam="1">  1        2 0.97217438E-01 0.12603855E+04</pdfrwt>
<pdfrwt beam="2">  1       -1 0.96688740E-01 0.12603855E+04</pdfrwt>
<totfact> 0.53828747E+01</totfact>
</mgrwt>
</event>
<event>
12    6  0.1494052E-007  0.2399301E+04  0.7818608E-02  0.8439765E-01
          2   -1    0    0  501    0  0.00000000000E+00  0.00000000000E+00  0.12470384187E+04  0.12470384187E+04  0.00000000000E+00 0. -1.
         -1   -1    0    0    0  501 -0.00000000000E+00 -0.00000000000E+00 -0.11540630228E+04  0.11540630228E+04  0.00000000000E+00 0.  1.
         24    2    1    2    0    0 -0.19796175973E+03 -0.24915808688E+03 -0.94407472589E+03  0.99949339238E+03  0.80257976460E+02 0.  0.
        254    2    1    2    0    0  0.19796175973E+03  0.24915808688E+03  0.10370501218E+04  0.14016080491E+04  0.88756045291E+03 0.  0.
         23    2    4    4    0    0 -0.95685593445E+02  0.28801130345E+03 -0.26812127197E+01  0.31692946460E+03  0.91273506159E+02 0.  0.
         23    2    4    4    0    0  0.29364735318E+03 -0.38853216569E+02  0.10397313346E+04  0.10846785845E+04  0.88022969574E+02 0.  0.
          4    1    3    3  502    0 -0.10707118010E+02 -0.61866941633E+02 -0.15889128426E+03  0.17084671802E+03  0.00000000000E+00 0. -1.
         -3    1    3    3    0  502 -0.18725464172E+03 -0.18729114524E+03 -0.78518344162E+03  0.82864667436E+03  0.00000000000E+00 0.  1.
         11    1    5    5    0    0 -0.14266906713E+02  0.10355299845E+03 -0.39914333525E+02  0.11189245791E+03  0.00000000000E+00 0. -1.
        -11    1    5    5    0    0 -0.81418686732E+02  0.18445830499E+03  0.37233120805E+02  0.20503700670E+03  0.00000000000E+00 0.  1.
          3    1    6    6  503    0  0.15750061095E+03 -0.22292166972E+02  0.70923349856E+03  0.72685317544E+03  0.00000000000E+00 0. -1.
         -3    1    6    6    0  503  0.13614674223E+03 -0.16561049597E+02  0.33049783600E+03  0.35782540908E+03  0.00000000000E+00 0.  1.
<mgrwt>
<rscale>  0 0.23993007E+04</rscale>
<asrwt>0</asrwt>
<pdfrwt beam="1">  1        2 0.19185206E+00 0.23993007E+04</pdfrwt>
<pdfrwt beam="2">  1       -1 0.17754816E+00 0.23993007E+04</pdfrwt>
<totfact> 0.39454199E+00</totfact>
</mgrwt>
</event>
<event>
12    6  0.1494052E-007  0.1786360E+04  0.7818608E-02  0.8713587E-01
         -1   -1    0    0    0  501 -0.00000000000E+00  0.00000000000E+00  0.68212364794E+03  0.68212364794E+03  0.00000000000E+00 0.  1.
          2   -1    0    0  501    0  0.00000000000E+00 -0.00000000000E+00 -0.11695399906E+04  0.11695399906E+04  0.00000000000E+00 0. -1.
         24    2    1    2    0    0  0.18018806277E+03  0.35876543962E+03  0.36627375405E+03  0.54923289312E+03  0.79497983262E+02 0.  0.
        254    2    1    2    0    0 -0.18018806277E+03 -0.35876543962E+03 -0.85369009674E+03  0.13024307455E+04  0.89797476958E+03 0.  0.
         23    2    4    4    0    0  0.34868054431E+03 -0.18778015328E+03 -0.25292931630E+03  0.47876301136E+03  0.91658464191E+02 0.  0.
         23    2    4    4    0    0 -0.52886860709E+03 -0.17098528634E+03 -0.60076078044E+03  0.82366773410E+03  0.92612359674E+02 0.  0.
          2    1    3    3  502    0  0.87754537688E+02  0.10572243792E+03  0.95892124038E+02  0.16755116298E+03  0.00000000000E+00 0. -1.
         -3    1    3    3    0  502  0.92433525087E+02  0.25304300170E+03  0.27038163001E+03  0.38168173013E+03  0.00000000000E+00 0.  1.
         11    1    5    5    0    0  0.27297885065E+03 -0.13821635992E+03 -0.14702003283E+03  0.33946443865E+03  0.00000000000E+00 0. -1.
        -11    1    5    5    0    0  0.75701693660E+02 -0.49563793362E+02 -0.10590928347E+03  0.13929857272E+03  0.00000000000E+00 0.  1.
          2    1    6    6  503    0 -0.49434705758E+03 -0.13297379078E+03 -0.53920891275E+03  0.74351011693E+03  0.00000000000E+00 0. -1.
         -2    1    6    6    0  503 -0.34521549504E+02 -0.38011495553E+02 -0.61551867690E+02  0.80157617171E+02  0.00000000000E+00 0.  1.
<mgrwt>
<rscale>  0 0.17863604E+04</rscale>
<asrwt>0</asrwt>
<pdfrwt beam="1">  1        2 0.17992923E+00 0.17863604E+04</pdfrwt>
<pdfrwt beam="2">  1       -1 0.10494210E+00 0.17863604E+04</pdfrwt>
<totfact> 0.18153014E+01</totfact>
</mgrwt>
</event>
<event>
12    6  0.1494052E-007  0.1799488E+04  0.7818608E-02  0.8706572E-01
          2   -1    0    0  501    0  0.00000000000E+00  0.00000000000E+00  0.14566894665E+04  0.14566894665E+04  0.00000000000E+00 0. -1.
         -1   -1    0    0    0  501 -0.00000000000E+00 -0.00000000000E+00 -0.55573904494E+03  0.55573904494E+03  0.00000000000E+00 0.  1.
         24    2    1    2    0    0 -0.62766448311E+03  0.22018561135E+03  0.45793022688E+03  0.81157814339E+03  0.80712968846E+02 0.  0.
        254    2    1    2    0    0  0.62766448311E+03 -0.22018561135E+03  0.44302019463E+03  0.12008503680E+04  0.89628695554E+03 0.  0.
         23    2    4    4    0    0 -0.19789166841E+03 -0.18022593765E+03  0.15256235985E+03  0.32003214323E+03  0.86618693312E+02 0.  0.
         23    2    4    4    0    0  0.82555615152E+03 -0.39959673700E+02  0.29045783478E+03  0.88081822477E+03  0.91297625730E+02 0.  0.
          4    1    3    3  502    0 -0.38148454485E+03  0.16240509828E+03  0.24964285750E+03  0.48397048485E+03  0.00000000000E+00 0. -1.
         -3    1    3    3    0  502 -0.24617993826E+03  0.57780513072E+02  0.20828736938E+03  0.32760765854E+03  0.00000000000E+00 0.  1.
         11    1    5    5    0    0 -0.41848561409E+02 -0.94313905933E+02  0.57614817523E+02  0.11817733346E+03  0.00000000000E+00 0.  1.
        -11    1    5    5    0    0 -0.15604310700E+03 -0.85912031717E+02  0.94947542331E+02  0.20185480978E+03  0.00000000000E+00 0. -1.
          3    1    6    6  503    0  0.63736845869E+03  0.24480475164E+01  0.24329820916E+03  0.68223057954E+03  0.00000000000E+00 0. -1.
         -3    1    6    6    0  503  0.18818769283E+03 -0.42407721216E+02  0.47159625619E+02  0.19858764523E+03  0.00000000000E+00 0.  1.
<mgrwt>
<rscale>  0 0.17994879E+04</rscale>
<asrwt>0</asrwt>
<pdfrwt beam="1">  1        2 0.22410607E+00 0.17994879E+04</pdfrwt>
<pdfrwt beam="2">  1       -1 0.85498315E-01 0.17994879E+04</pdfrwt>
<totfact> 0.19535295E+01</totfact>
</mgrwt>
</event>
<event>
12    6  0.1494052E-007  0.2712550E+04  0.7818608E-02  0.8330944E-01
          2   -1    0    0  501    0  0.00000000000E+00  0.00000000000E+00  0.36373157357E+04  0.36373157357E+04  0.00000000000E+00 0. -1.
         -1   -1    0    0    0  501 -0.00000000000E+00 -0.00000000000E+00 -0.50572505627E+03  0.50572505627E+03  0.00000000000E+00 0.  1.
         24    2    1    2    0    0 -0.48980269852E+03  0.13048047199E+03 -0.27627397122E+03  0.58220507479E+03  0.75522214589E+02 0.  0.
        254    2    1    2    0    0  0.48980269852E+03 -0.13048047199E+03  0.34078646507E+04  0.35608357172E+04  0.89948745989E+03 0.  0.
         23    2    4    4    0    0  0.53340053612E+03  0.27232055867E+03  0.17354803261E+04  0.18377657442E+04  0.82561188070E+02 0.  0.
         23    2    4    4    0    0 -0.43597837598E+02 -0.40280103065E+03  0.16723843246E+04  0.17230699730E+04  0.89170403858E+02 0.  0.
          4    1    3    3  502    0 -0.83675479778E+01  0.12982562834E+02 -0.16793833943E+02  0.22816565373E+02  0.00000000000E+00 0. -1.
         -3    1    3    3    0  502 -0.48143515054E+03  0.11749790915E+03 -0.25948013728E+03  0.55938850942E+03  0.00000000000E+00 0.  1.
         11    1    5    5    0    0  0.22677474705E+03  0.12376714872E+03  0.62817334829E+03  0.67922518247E+03  0.00000000000E+00 0. -1.
        -11    1    5    5    0    0  0.30662578907E+03  0.14855340994E+03  0.11073069778E+04  0.11585405618E+04  0.00000000000E+00 0.  1.
          4    1    6    6  503    0 -0.18793229149E+02 -0.33131122285E+03  0.12165423513E+04  0.12609899303E+04  0.00000000000E+00 0. -1.
         -4    1    6    6    0  503 -0.24804608449E+02 -0.71489807805E+02  0.45584197329E+03  0.46208004267E+03  0.00000000000E+00 0.  1.
<mgrwt>
<rscale>  0 0.27125499E+04</rscale>
<asrwt>0</asrwt>
<pdfrwt beam="1">  1        2 0.55958702E+00 0.27125499E+04</pdfrwt>
<pdfrwt beam="2">  1       -1 0.77803857E-01 0.27125499E+04</pdfrwt>
<totfact> 0.10701491E+00</totfact>
</mgrwt>
</event>
<event>
12    6  0.2821179E-007  0.1611648E+04  0.7818608E-02  0.8813424E-01
          2   -1    0    0  501    0  0.00000000000E+00  0.00000000000E+00  0.12269445022E+04  0.12269445022E+04  0.00000000000E+00 0. -1.
         -1   -1    0    0    0  501 -0.00000000000E+00 -0.00000000000E+00 -0.52924337425E+03  0.52924337425E+03  0.00000000000E+00 0.  1.
         24    2    1    2    0    0 -0.24221264184E+02 -0.19443889441E+03  0.79977117247E+03  0.82737865478E+03  0.80798247370E+02 0.  0.
        254    2    1    2    0    0  0.24221264184E+02  0.19443889441E+03 -0.10207004449E+03  0.92880922169E+03  0.90215027740E+03 0.  0.
         23    2    4    4    0    0  0.32613744912E+03  0.37925597324E+03 -0.20708530124E+03  0.54888308525E+03  0.90485304452E+02 0.  0.
         23    2    4    4    0    0 -0.30191618494E+03 -0.18481707883E+03  0.10501525675E+03  0.37992613645E+03  0.89470272442E+02 0.  0.
          4    1    3    3  502    0 -0.14837101877E+02 -0.19908674333E+03  0.72919452138E+03  0.75602931224E+03  0.00000000000E+00 0. -1.
         -3    1    3    3    0  502 -0.93841623067E+01  0.46478489163E+01  0.70576651090E+02  0.71349342539E+02  0.00000000000E+00 0.  1.
         11    1    5    5    0    0  0.22763915941E+03  0.23712732416E+03 -0.92621426404E+02  0.34150795509E+03  0.00000000000E+00 0. -1.
        -11    1    5    5    0    0  0.98498289718E+02  0.14212864908E+03 -0.11446387484E+03  0.20737513016E+03  0.00000000000E+00 0.  1.
          3    1    6    6  503    0 -0.12208481875E+03 -0.57022590820E+02 -0.19248254338E+01  0.13475898406E+03  0.00000000000E+00 0. -1.
         -3    1    6    6    0  503 -0.17983136619E+03 -0.12779448801E+03  0.10694008218E+03  0.24516715239E+03  0.00000000000E+00 0.  1.
<mgrwt>
<rscale>  0 0.16116479E+04</rscale>
<asrwt>0</asrwt>
<pdfrwt beam="1">  1        2 0.18876069E+00 0.16116479E+04</pdfrwt>
<pdfrwt beam="2">  1       -1 0.81422058E-01 0.16116479E+04</pdfrwt>
<totfact> 0.29956285E+01</totfact>
</mgrwt>
</event>
<event>
12    6  0.1494052E-007  0.1600706E+04  0.7818608E-02  0.8820114E-01
         -1   -1    0    0    0  501 -0.00000000000E+00  0.00000000000E+00  0.88069019015E+03  0.88069019015E+03  0.00000000000E+00 0.  1.
          2   -1    0    0  501    0  0.00000000000E+00 -0.00000000000E+00 -0.72734415575E+03  0.72734415575E+03  0.00000000000E+00 0. -1.
         24    2    1    2    0    0 -0.45121455893E+03  0.19689134027E+03 -0.79498552706E+02  0.50502212143E+03  0.79790633478E+02 0.  0.
        254    2    1    2    0    0  0.45121455893E+03 -0.19689134027E+03  0.23284458711E+03  0.11030122245E+04  0.95919684503E+03 0.  0.
         23    2    4    4    0    0  0.98478607609E+02  0.15168313208E+03 -0.30474862366E+03  0.36589964168E+03  0.91131857489E+02 0.  0.
         23    2    4    4    0    0  0.35273595132E+03 -0.34857447235E+03  0.53759321077E+03  0.73711258279E+03  0.91660707608E+02 0.  0.
          4    1    3    3  502    0 -0.42506026684E+03  0.19184747132E+03 -0.92417289764E+02  0.47541838221E+03  0.00000000000E+00 0. -1.
         -3    1    3    3    0  502 -0.26154292087E+02  0.50438689515E+01  0.12918737058E+02  0.29603739219E+02  0.00000000000E+00 0.  1.
         11    1    5    5    0    0  0.60373612418E+02  0.14680034586E+03 -0.27415066479E+03  0.31678683941E+03  0.00000000000E+00 0.  1.
        -11    1    5    5    0    0  0.38104995191E+02  0.48827862116E+01 -0.30597958869E+02  0.49112802269E+02  0.00000000000E+00 0. -1.
          2    1    6    6  503    0  0.47897410391E+02 -0.77876566684E+02  0.60845810939E+02  0.10982319550E+03  0.00000000000E+00 0. -1.
         -2    1    6    6    0  503  0.30483854093E+03 -0.27069790566E+03  0.47674739983E+03  0.62728938729E+03  0.00000000000E+00 0.  1.
<mgrwt>
<rscale>  0 0.16007059E+04</rscale>
<asrwt>0</asrwt>
<pdfrwt beam="1">  1        2 0.11189910E+00 0.16007059E+04</pdfrwt>
<pdfrwt beam="2">  1       -1 0.13549080E+00 0.16007059E+04</pdfrwt>
<totfact> 0.19500796E+01</totfact>
</mgrwt>
</event>
<event>
12    6  0.1494052E-007  0.2103368E+04  0.7818608E-02  0.8559761E-01
         -1   -1    0    0    0  501 -0.00000000000E+00  0.00000000000E+00  0.68612067721E+03  0.68612067721E+03  0.00000000000E+00 0.  1.
          2   -1    0    0  501    0  0.00000000000E+00 -0.00000000000E+00 -0.16120177805E+04  0.16120177805E+04  0.00000000000E+00 0. -1.
         24    2    1    2    0    0 -0.44948927031E+03  0.66717544561E+03 -0.28575318434E+02  0.80897089609E+03  0.80334815260E+02 0.  0.
        254    2    1    2    0    0  0.44948927031E+03 -0.66717544561E+03 -0.89732178486E+03  0.14891675616E+04  0.87479709744E+03 0.  0.
         23    2    4    4    0    0  0.70388761808E+03 -0.52880000702E+03 -0.68728430889E+03  0.11204680782E+04  0.89452594478E+02 0.  0.
         23    2    4    4    0    0 -0.25439834777E+03 -0.13837543859E+03 -0.21003747597E+03  0.36869948346E+03  0.89203623442E+02 0.  0.
          4    1    3    3  502    0 -0.16623942839E+03  0.18070121149E+03 -0.93161169587E+01  0.24571378761E+03  0.00000000000E+00 0. -1.
         -3    1    3    3    0  502 -0.28324984192E+03  0.48647423412E+03 -0.19259201475E+02  0.56325710848E+03  0.00000000000E+00 0.  1.
         11    1    5    5    0    0  0.61995163532E+03 -0.44100667351E+03 -0.62115491753E+03  0.98217124158E+03  0.00000000000E+00 0.  1.
        -11    1    5    5    0    0  0.83935982760E+02 -0.87793333514E+02 -0.66129391352E+02  0.13829683659E+03  0.00000000000E+00 0. -1.
          1    1    6    6  503    0 -0.17938262435E+03 -0.73436442846E+02 -0.18128948442E+03  0.26539953696E+03  0.00000000000E+00 0. -1.
         -1    1    6    6    0  503 -0.75015723417E+02 -0.64938995743E+02 -0.28747991555E+02  0.10329994650E+03  0.00000000000E+00 0.  1.
<mgrwt>
<rscale>  0 0.21033675E+04</rscale>
<asrwt>0</asrwt>
<pdfrwt beam="1">  1        2 0.24800273E+00 0.21033675E+04</pdfrwt>
<pdfrwt beam="2">  1       -1 0.10555703E+00 0.21033675E+04</pdfrwt>
<totfact> 0.96896260E+00</totfact>
</mgrwt>
</event>
<event>
12    6  0.2310988E-007  0.1939046E+04  0.7818608E-02  0.8635661E-01
         -1   -1    0    0    0  501 -0.00000000000E+00  0.00000000000E+00  0.56619390570E+03  0.56619390570E+03  0.00000000000E+00 0.  1.
          2   -1    0    0  501    0  0.00000000000E+00 -0.00000000000E+00 -0.16601638994E+04  0.16601638994E+04  0.00000000000E+00 0. -1.
         24    2    1    2    0    0  0.50249543520E+03  0.20315103852E+03  0.20462610703E+03  0.58452127882E+03  0.77596874059E+02 0.  0.
        254    2    1    2    0    0 -0.50249543520E+03 -0.20315103852E+03 -0.12985961007E+04  0.16418365263E+04  0.84587430469E+03 0.  0.
         23    2    4    4    0    0  0.12389993958E+03 -0.15168923020E+03 -0.23024221664E+02  0.21714277251E+03  0.90884824270E+02 0.  0.
         23    2    4    4    0    0 -0.62639537478E+03 -0.51461808325E+02 -0.12755718791E+04  0.14246937538E+04  0.87459648457E+02 0.  0.
          4    1    3    3  502    0 -0.50169961879E+00  0.68162069624E+01  0.62953306755E+01  0.92921239862E+01  0.00000000000E+00 0. -1.
         -3    1    3    3    0  502  0.50299713482E+03  0.19633483156E+03  0.19833077636E+03  0.57522915484E+03  0.00000000000E+00 0.  1.
         11    1    5    5    0    0  0.12588911925E+03 -0.16208663738E+03 -0.20449815659E+02  0.20624825654E+03  0.00000000000E+00 0. -1.
        -11    1    5    5    0    0 -0.19891796697E+01  0.10397407186E+02 -0.25744060048E+01  0.10894515970E+02  0.00000000000E+00 0.  1.
          2    1    6    6  503    0 -0.36665222013E+02  0.54207218795E+01 -0.40687878083E+02  0.55038406171E+02  0.00000000000E+00 0.  1.
         -2    1    6    6    0  503 -0.58973015277E+03 -0.56882530204E+02 -0.12348840010E+04  0.13696553476E+04  0.00000000000E+00 0. -1.
<mgrwt>
<rscale>  0 0.19390458E+04</rscale>
<asrwt>0</asrwt>
<pdfrwt beam="1">  1        2 0.25540983E+00 0.19390458E+04</pdfrwt>
<pdfrwt beam="2">  1       -1 0.87106756E-01 0.19390458E+04</pdfrwt>
<totfact> 0.14246195E+01</totfact>
</mgrwt>
</event>
<event>
12    6  0.1494052E-007  0.1471843E+04  0.7818608E-02  0.8903396E-01
          2   -1    0    0  501    0  0.00000000000E+00  0.00000000000E+00  0.51982092139E+03  0.51982092139E+03  0.00000000000E+00 0. -1.
         -1   -1    0    0    0  501 -0.00000000000E+00 -0.00000000000E+00 -0.10418599151E+04  0.10418599151E+04  0.00000000000E+00 0.  1.
         24    2    1    2    0    0 -0.34485265924E+03 -0.65379176826E+02  0.14472324377E+03  0.38939541247E+03  0.86522694266E+02 0.  0.
        254    2    1    2    0    0  0.34485265924E+03  0.65379176826E+02 -0.66676223746E+03  0.11722854240E+04  0.89804423092E+03 0.  0.
         23    2    4    4    0    0  0.43292929816E+02  0.43522649927E+03 -0.17691095510E+03  0.48251327950E+03  0.10111970836E+03 0.  0.
         23    2    4    4    0    0  0.30155972942E+03 -0.36984732245E+03 -0.48985128236E+03  0.68977214450E+03  0.90033439223E+02 0.  0.
          2    1    3    3  502    0 -0.30323146435E+03 -0.27211052275E+02  0.11389713477E+03  0.32505740977E+03  0.00000000000E+00 0. -1.
         -1    1    3    3    0  502 -0.41621194883E+02 -0.38168124551E+02  0.30826109006E+02  0.64338002702E+02  0.00000000000E+00 0.  1.
         11    1    5    5    0    0  0.76844126374E+01  0.23565178439E+03 -0.43307630647E+02  0.23972143116E+03  0.00000000000E+00 0. -1.
        -11    1    5    5    0    0  0.35608517179E+02  0.19957471488E+03 -0.13360332446E+03  0.24279184834E+03  0.00000000000E+00 0.  1.
          4    1    6    6  503    0  0.28043088018E+03 -0.29777871860E+03 -0.39328073063E+03  0.56743579099E+03  0.00000000000E+00 0. -1.
         -4    1    6    6    0  503  0.21128849238E+02 -0.72068603847E+02 -0.96570551726E+02  0.12233635351E+03  0.00000000000E+00 0.  1.
<mgrwt>
<rscale>  0 0.14718432E+04</rscale>
<asrwt>0</asrwt>
<pdfrwt beam="1">  1        2 0.79972450E-01 0.14718432E+04</pdfrwt>
<pdfrwt beam="2">  1       -1 0.16028614E+00 0.14718432E+04</pdfrwt>
<totfact> 0.18938870E+01</totfact>
</mgrwt>
</event>
<event>
12    6  0.1494052E-007  0.1795443E+04  0.7818608E-02  0.8708727E-01
          2   -1    0    0  501    0  0.00000000000E+00  0.00000000000E+00  0.21919945842E+04  0.21919945842E+04  0.00000000000E+00 0. -1.
         -1   -1    0    0    0  501 -0.00000000000E+00 -0.00000000000E+00 -0.36765778033E+03  0.36765778033E+03  0.00000000000E+00 0.  1.
         24    2    1    2    0    0 -0.47616326667E+03 -0.38103776401E+01 -0.21108265056E+02  0.48349682790E+03  0.81102701791E+02 0.  0.
        254    2    1    2    0    0  0.47616326667E+03  0.38103776401E+01  0.18454450690E+04  0.20761555367E+04  0.82341261489E+03 0.  0.
         23    2    4    4    0    0  0.16940860977E+03 -0.33463201370E+03  0.39385856589E+03  0.55164649144E+03  0.92257357062E+02 0.  0.
         23    2    4    4    0    0  0.30675465690E+03  0.33844239134E+03  0.14515865031E+04  0.15245090452E+04  0.91557529902E+02 0.  0.
          4    1    3    3  502    0 -0.32676949439E+02  0.15641143923E+02  0.12476055510E+02  0.38315536913E+02  0.00000000000E+00 0. -1.
         -3    1    3    3    0  502 -0.44348631723E+03 -0.19451521563E+02 -0.33584320566E+02  0.44518129099E+03  0.00000000000E+00 0.  1.
         11    1    5    5    0    0  0.41512649525E+02 -0.25364584990E+02  0.75006689360E+02  0.89401709665E+02  0.00000000000E+00 0.  1.
        -11    1    5    5    0    0  0.12789596024E+03 -0.30926742871E+03  0.31885187653E+03  0.46224478178E+03  0.00000000000E+00 0. -1.
          2    1    6    6  503    0  0.21226957718E+03  0.16709342030E+03  0.83189910721E+03  0.87466262586E+03  0.00000000000E+00 0. -1.
         -2    1    6    6    0  503  0.94485079722E+02  0.17134897105E+03  0.61968739586E+03  0.64984641936E+03  0.00000000000E+00 0.  1.
<mgrwt>
<rscale>  0 0.17954430E+04</rscale>
<asrwt>0</asrwt>
<pdfrwt beam="1">  1        2 0.33722993E+00 0.17954430E+04</pdfrwt>
<pdfrwt beam="2">  1       -1 0.56562737E-01 0.17954430E+04</pdfrwt>
<totfact> 0.17756369E+01</totfact>
</mgrwt>
</event>
<event>
12    6  0.1494052E-007  0.1312794E+04  0.7818608E-02  0.9019480E-01
         -1   -1    0    0    0  501 -0.00000000000E+00  0.00000000000E+00  0.38896063908E+03  0.38896063908E+03  0.00000000000E+00 0.  1.
          2   -1    0    0  501    0  0.00000000000E+00 -0.00000000000E+00 -0.11077142779E+04  0.11077142779E+04  0.00000000000E+00 0. -1.
         24    2    1    2    0    0 -0.15263234463E+03 -0.37253959840E+02 -0.55604292019E+03  0.58167835998E+03  0.66943970822E+02 0.  0.
        254    2    1    2    0    0  0.15263234463E+03  0.37253959840E+02 -0.16271071868E+03  0.91499655705E+03  0.88659992741E+03 0.  0.
         23    2    4    4    0    0 -0.67109134564E+02 -0.20820357758E+03  0.27270848932E+03  0.36150574217E+03  0.92000629425E+02 0.  0.
         23    2    4    4    0    0  0.21974147920E+03  0.24545753742E+03 -0.43541920800E+03  0.55349081488E+03  0.90699917910E+02 0.  0.
          2    1    3    3  502    0 -0.11852943548E+03  0.17131525775E+01 -0.36686136364E+03  0.38553783485E+03  0.00000000000E+00 0. -1.
         -1    1    3    3    0  502 -0.34102909158E+02 -0.38967112417E+02 -0.18918155654E+03  0.19614052513E+03  0.00000000000E+00 0.  1.
         11    1    5    5    0    0  0.20735189750E+02 -0.48945897557E+02  0.84083708579E+02  0.99477228700E+02  0.00000000000E+00 0. -1.
        -11    1    5    5    0    0 -0.87844324314E+02 -0.15925768002E+03  0.18862478074E+03  0.26202851346E+03  0.00000000000E+00 0.  1.
          3    1    6    6  503    0  0.26505775799E+02  0.75012300071E+02 -0.67594619742E+02  0.10439556471E+03  0.00000000000E+00 0. -1.
         -3    1    6    6    0  503  0.19323570340E+03  0.17044523735E+03 -0.36782458825E+03  0.44909525017E+03  0.00000000000E+00 0.  1.
<mgrwt>
<rscale>  0 0.13127944E+04</rscale>
<asrwt>0</asrwt>
<pdfrwt beam="1">  1        2 0.17041758E+00 0.13127944E+04</pdfrwt>
<pdfrwt beam="2">  1       -1 0.59840098E-01 0.13127944E+04</pdfrwt>
<totfact> 0.68141703E+01</totfact>
</mgrwt>
</event>
<event>
12    6  0.1494052E-007  0.1554025E+04  0.7818608E-02  0.8849301E-01
         -1   -1    0    0    0  501 -0.00000000000E+00  0.00000000000E+00  0.58781960497E+03  0.58781960497E+03  0.00000000000E+00 0.  1.
          2   -1    0    0  501    0  0.00000000000E+00 -0.00000000000E+00 -0.10270987155E+04  0.10270987155E+04  0.00000000000E+00 0. -1.
         24    2    1    2    0    0  0.93875701705E+02  0.48466073384E+03 -0.27260700219E+02  0.50112767354E+03  0.81713677661E+02 0.  0.
        254    2    1    2    0    0 -0.93875701705E+02 -0.48466073384E+03 -0.41201841035E+03  0.11137906470E+04  0.90942935983E+03 0.  0.
         23    2    4    4    0    0 -0.41309597946E+02  0.12467184605E+03 -0.46639884570E+03  0.49312137834E+03  0.91603812302E+02 0.  0.
         23    2    4    4    0    0 -0.52566103760E+02 -0.60933257989E+03  0.54380435346E+02  0.62066926864E+03  0.90684734676E+02 0.  0.
          2    1    3    3  502    0  0.63520732553E+02  0.25047910165E+03 -0.52351600845E+02  0.26365764533E+03  0.00000000000E+00 0. -1.
         -1    1    3    3    0  502  0.30354969152E+02  0.23418163219E+03  0.25090900626E+02  0.23747002821E+03  0.00000000000E+00 0.  1.
         11    1    5    5    0    0 -0.60507224870E+02  0.46424705145E+02 -0.17732285766E+03  0.19302790824E+03  0.00000000000E+00 0. -1.
        -11    1    5    5    0    0  0.19197626925E+02  0.78247140905E+02 -0.28907598803E+03  0.30009347010E+03  0.00000000000E+00 0.  1.
          2    1    6    6  503    0 -0.31234351240E+02 -0.56531687034E+03  0.67069353984E+02  0.57013774373E+03  0.00000000000E+00 0. -1.
         -2    1    6    6    0  503 -0.21331752519E+02 -0.44015709551E+02 -0.12688918638E+02  0.50531524903E+02  0.00000000000E+00 0.  1.
<mgrwt>
<rscale>  0 0.15540254E+04</rscale>
<asrwt>0</asrwt>
<pdfrwt beam="1">  1        2 0.15801519E+00 0.15540254E+04</pdfrwt>
<pdfrwt beam="2">  1       -1 0.90433785E-01 0.15540254E+04</pdfrwt>
<totfact> 0.31762335E+01</totfact>
</mgrwt>
</event>
<event>
12    6  0.1494052E-007  0.1246506E+04  0.7818608E-02  0.9073096E-01
         -1   -1    0    0    0  501 -0.00000000000E+00  0.00000000000E+00  0.98902805633E+03  0.98902805633E+03  0.00000000000E+00 0.  1.
          2   -1    0    0  501    0  0.00000000000E+00 -0.00000000000E+00 -0.39275358579E+03  0.39275358579E+03  0.00000000000E+00 0. -1.
         24    2    1    2    0    0  0.19796357980E+02 -0.17302380006E+03 -0.10944077374E+03  0.22191784983E+03  0.83313371918E+02 0.  0.
        254    2    1    2    0    0 -0.19796357980E+02  0.17302380006E+03  0.70571524427E+03  0.11598637923E+04  0.90383675488E+03 0.  0.
         23    2    4    4    0    0 -0.39744354470E+03 -0.12125102983E+03  0.40538219440E+03  0.58800307814E+03  0.93539900062E+02 0.  0.
         23    2    4    4    0    0  0.37764718672E+03  0.29427482989E+03  0.30033304987E+03  0.57186071414E+03  0.87233378870E+02 0.  0.
          4    1    3    3  502    0 -0.25826925700E+02 -0.30663433051E+02 -0.41529118898E+02  0.57722993114E+02  0.00000000000E+00 0. -1.
         -3    1    3    3    0  502  0.45623283681E+02 -0.14236036701E+03 -0.67911654838E+02  0.16419485672E+03  0.00000000000E+00 0.  1.
         11    1    5    5    0    0 -0.56895407658E+02 -0.24135846175E+02  0.20787680978E+02  0.65205476485E+02  0.00000000000E+00 0.  1.
        -11    1    5    5    0    0 -0.34054813704E+03 -0.97115183656E+02  0.38459451342E+03  0.52279760166E+03  0.00000000000E+00 0. -1.
          1    1    6    6  503    0  0.27710455763E+03  0.17533717884E+03  0.17337679934E+03  0.37093068988E+03  0.00000000000E+00 0. -1.
         -1    1    6    6    0  503  0.10054262909E+03  0.11893765106E+03  0.12695625053E+03  0.20093002427E+03  0.00000000000E+00 0.  1.
<mgrwt>
<rscale>  0 0.12465060E+04</rscale>
<asrwt>0</asrwt>
<pdfrwt beam="1">  1        2 0.60423629E-01 0.12465060E+04</pdfrwt>
<pdfrwt beam="2">  1       -1 0.15215816E+00 0.12465060E+04</pdfrwt>
<totfact> 0.30681296E+01</totfact>
</mgrwt>
</event>
<event>
12    6  0.1494052E-007  0.1280536E+04  0.7818608E-02  0.9045144E-01
         -1   -1    0    0    0  501 -0.00000000000E+00  0.00000000000E+00  0.59088644141E+03  0.59088644141E+03  0.00000000000E+00 0.  1.
          2   -1    0    0  501    0  0.00000000000E+00 -0.00000000000E+00 -0.69377672759E+03  0.69377672759E+03  0.00000000000E+00 0. -1.
         24    2    1    2    0    0 -0.10912326403E+03  0.12962273299E+03  0.24297644357E+03  0.30665778317E+03  0.79319002659E+02 0.  0.
        254    2    1    2    0    0  0.10912326403E+03 -0.12962273299E+03 -0.34586672975E+03  0.97800538584E+03  0.89897764172E+03 0.  0.
         23    2    4    4    0    0  0.55781318180E+02 -0.44340979439E+03 -0.44024664880E+03  0.63397432073E+03  0.91556137678E+02 0.  0.
         23    2    4    4    0    0  0.53341945853E+02  0.31378706140E+03  0.94379919051E+02  0.34403106510E+03  0.90233705134E+02 0.  0.
          2    1    3    3  502    0 -0.78386916713E+01  0.52768548865E+02  0.38172439112E+02  0.65598017837E+02  0.00000000000E+00 0. -1.
         -1    1    3    3    0  502 -0.10128457236E+03  0.76854184125E+02  0.20480400446E+03  0.24105976533E+03  0.00000000000E+00 0.  1.
         11    1    5    5    0    0  0.17187067450E+02 -0.30412558712E+03 -0.24421390469E+03  0.39042054156E+03  0.00000000000E+00 0.  1.
        -11    1    5    5    0    0  0.38594250731E+02 -0.13928420727E+03 -0.19603274411E+03  0.24355377917E+03  0.00000000000E+00 0. -1.
          2    1    6    6  503    0  0.57733342365E+02  0.13711075638E+03  0.73912076712E+02  0.16611891349E+03  0.00000000000E+00 0. -1.
         -2    1    6    6    0  503 -0.43913965117E+01  0.17667630502E+03  0.20467842339E+02  0.17791215161E+03  0.00000000000E+00 0.  1.
<mgrwt>
<rscale>  0 0.12805362E+04</rscale>
<asrwt>0</asrwt>
<pdfrwt beam="1">  1        2 0.10673488E+00 0.12805362E+04</pdfrwt>
<pdfrwt beam="2">  1       -1 0.90905607E-01 0.12805362E+04</pdfrwt>
<totfact> 0.54915637E+01</totfact>
</mgrwt>
</event>
<event>
12    6  0.1494052E-007  0.1276942E+04  0.7818608E-02  0.9048053E-01
         -1   -1    0    0    0  501 -0.00000000000E+00  0.00000000000E+00  0.37623530640E+03  0.37623530640E+03  0.00000000000E+00 0.  1.
          2   -1    0    0  501    0  0.00000000000E+00 -0.00000000000E+00 -0.10834852022E+04  0.10834852022E+04  0.00000000000E+00 0. -1.
         24    2    1    2    0    0  0.29428454584E+02 -0.21263662383E+03 -0.45182122440E+03  0.50607257825E+03  0.76724623867E+02 0.  0.
        254    2    1    2    0    0 -0.29428454584E+02  0.21263662383E+03 -0.25542867138E+03  0.95364793033E+03  0.89337573346E+03 0.  0.
         23    2    4    4    0    0  0.96098221020E+02  0.32866137440E+03  0.23643592717E+03  0.42528560590E+03  0.87822160221E+02 0.  0.
         23    2    4    4    0    0 -0.12552667560E+03 -0.11602475056E+03 -0.49186459855E+03  0.52836232443E+03  0.89539229013E+02 0.  0.
          2    1    3    3  502    0  0.11822886070E+02 -0.20005715241E+03 -0.43401579731E+03  0.47805058015E+03  0.00000000000E+00 0. -1.
         -1    1    3    3    0  502  0.17605568513E+02 -0.12579471419E+02 -0.17805427090E+02  0.28021998104E+02  0.00000000000E+00 0.  1.
         11    1    5    5    0    0  0.67675817940E+02  0.27741135023E+03  0.15484499653E+03  0.32482925749E+03  0.00000000000E+00 0. -1.
        -11    1    5    5    0    0  0.28422403081E+02  0.51250024172E+02  0.81590930640E+02  0.10045634842E+03  0.00000000000E+00 0.  1.
          1    1    6    6  503    0 -0.86571241641E+02 -0.11734678189E+03 -0.31303617515E+03  0.34533533566E+03  0.00000000000E+00 0. -1.
         -1    1    6    6    0  503 -0.38955433963E+02  0.13220313268E+01 -0.17882842340E+03  0.18302698877E+03  0.00000000000E+00 0.  1.
<mgrwt>
<rscale>  0 0.12769423E+04</rscale>
<asrwt>0</asrwt>
<pdfrwt beam="1">  1        2 0.16669003E+00 0.12769423E+04</pdfrwt>
<pdfrwt beam="2">  1       -1 0.57882355E-01 0.12769423E+04</pdfrwt>
<totfact> 0.75507869E+01</totfact>
</mgrwt>
</event>
<event>
12    6  0.1494052E-007  0.1618970E+04  0.7818608E-02  0.8808978E-01
          2   -1    0    0  501    0  0.00000000000E+00  0.00000000000E+00  0.38141117592E+03  0.38141117592E+03  0.00000000000E+00 0. -1.
         -1   -1    0    0    0  501 -0.00000000000E+00 -0.00000000000E+00 -0.17180041296E+04  0.17180041296E+04  0.00000000000E+00 0.  1.
         24    2    1    2    0    0 -0.10298976480E+03  0.21813041523E+03  0.19059869176E+03  0.31839900095E+03  0.82838957012E+02 0.  0.
        254    2    1    2    0    0  0.10298976480E+03 -0.21813041523E+03 -0.15271916455E+04  0.17810163046E+04  0.88403449343E+03 0.  0.
         23    2    4    4    0    0  0.11170052423E+03 -0.48793638915E+03 -0.49388604372E+03  0.70914153218E+03  0.91648030645E+02 0.  0.
         23    2    4    4    0    0 -0.87107594218E+01  0.26980597391E+03 -0.10333056018E+04  0.10718747724E+04  0.91235520790E+02 0.  0.
          4    1    3    3  502    0 -0.87004935345E+02  0.21654797536E+03  0.15732185369E+03  0.28144813031E+03  0.00000000000E+00 0. -1.
         -3    1    3    3    0  502 -0.15984829460E+02  0.15824398741E+01  0.33276838072E+02  0.36950870638E+02  0.00000000000E+00 0.  1.
         11    1    5    5    0    0  0.27262072442E+02 -0.53278126392E+02 -0.26919264567E+02  0.65623365888E+02  0.00000000000E+00 0. -1.
        -11    1    5    5    0    0  0.84438451785E+02 -0.43465826275E+03 -0.46696677915E+03  0.64351816629E+03  0.00000000000E+00 0.  1.
          2    1    6    6  503    0 -0.95965776879E+00 -0.21781782356E+01  0.84658006248E+00  0.25262821025E+01  0.00000000000E+00 0. -1.
         -2    1    6    6    0  503 -0.77511016530E+01  0.27198415215E+03 -0.10341521818E+04  0.10693484903E+04  0.00000000000E+00 0.  1.
<mgrwt>
<rscale>  0 0.16189700E+04</rscale>
<asrwt>0</asrwt>
<pdfrwt beam="1">  1        2 0.58678642E-01 0.16189700E+04</pdfrwt>
<pdfrwt beam="2">  1       -1 0.26430833E+00 0.16189700E+04</pdfrwt>
<totfact> 0.51740556E+00</totfact>
</mgrwt>
</event>
<event>
12    6  0.1494052E-007  0.1717013E+04  0.7818608E-02  0.8751720E-01
          2   -1    0    0  501    0  0.00000000000E+00  0.00000000000E+00  0.13676089772E+04  0.13676089772E+04  0.00000000000E+00 0. -1.
         -1   -1    0    0    0  501 -0.00000000000E+00 -0.00000000000E+00 -0.53892121077E+03  0.53892121077E+03  0.00000000000E+00 0.  1.
         24    2    1    2    0    0  0.27368552458E+03 -0.51615425589E+03  0.76196162289E+02  0.59443019301E+03  0.78882298274E+02 0.  0.
        254    2    1    2    0    0 -0.27368552458E+03  0.51615425589E+03  0.75249160415E+03  0.13120999950E+04  0.90224375877E+03 0.  0.
         23    2    4    4    0    0  0.21573286021E+03  0.40492950796E+03  0.90026334043E+02  0.47639658654E+03  0.91325754574E+02 0.  0.
         23    2    4    4    0    0 -0.48941838479E+03  0.11122474792E+03  0.66246527010E+03  0.83570340843E+03  0.87399386984E+02 0.  0.
          2    1    3    3  502    0  0.26324039748E+03 -0.47749165409E+03  0.88831942597E+02  0.55243542665E+03  0.00000000000E+00 0. -1.
         -1    1    3    3    0  502  0.10445127100E+02 -0.38662601797E+02 -0.12635780308E+02  0.41994766362E+02  0.00000000000E+00 0.  1.
         11    1    5    5    0    0  0.10197387911E+02 -0.27416621676E+01  0.60967782828E+01  0.12193200444E+02  0.00000000000E+00 0. -1.
        -11    1    5    5    0    0  0.20553547230E+03  0.40767117013E+03  0.83929555760E+02  0.46420338609E+03  0.00000000000E+00 0.  1.
          4    1    6    6  503    0 -0.29547846686E+03  0.97734017878E+02  0.35690233005E+03  0.47353852623E+03  0.00000000000E+00 0. -1.
         -4    1    6    6    0  503 -0.19393991792E+03  0.13490730046E+02  0.30556294005E+03  0.36216488220E+03  0.00000000000E+00 0.  1.
<mgrwt>
<rscale>  0 0.17170131E+04</rscale>
<asrwt>0</asrwt>
<pdfrwt beam="1">  1        2 0.21040138E+00 0.17170131E+04</pdfrwt>
<pdfrwt beam="2">  1       -1 0.82910956E-01 0.17170131E+04</pdfrwt>
<totfact> 0.23638437E+01</totfact>
</mgrwt>
</event>
<event>
12    6  0.1494052E-007  0.2254599E+04  0.7818608E-02  0.8496040E-01
         -1   -1    0    0    0  501 -0.00000000000E+00  0.00000000000E+00  0.13346061638E+04  0.13346061638E+04  0.00000000000E+00 0.  1.
          2   -1    0    0  501    0  0.00000000000E+00 -0.00000000000E+00 -0.95219393586E+03  0.95219393586E+03  0.00000000000E+00 0. -1.
         24    2    1    2    0    0 -0.30795057370E+02 -0.82017444329E+03  0.64323881433E+03  0.10458857727E+04  0.80538340545E+02 0.  0.
        254    2    1    2    0    0  0.30795057370E+02  0.82017444329E+03 -0.26082658642E+03  0.12409143269E+04  0.89342229967E+03 0.  0.
         23    2    4    4    0    0 -0.37616405613E+03  0.22393141148E+03  0.49909128974E+02  0.44989174655E+03  0.90922979980E+02 0.  0.
         23    2    4    4    0    0  0.40695911350E+03  0.59624303181E+03 -0.31073571540E+03  0.79102258036E+03  0.89658043523E+02 0.  0.
          4    1    3    3  502    0 -0.38161563258E+02 -0.28650286869E+03  0.19219503117E+03  0.34710103527E+03  0.00000000000E+00 0. -1.
         -3    1    3    3    0  502  0.73665058878E+01 -0.53367157460E+03  0.45104378315E+03  0.69878473743E+03  0.00000000000E+00 0.  1.
         11    1    5    5    0    0 -0.94722575405E+02  0.10297198628E+03  0.26806517636E+01  0.13993849415E+03  0.00000000000E+00 0.  1.
        -11    1    5    5    0    0 -0.28144148072E+03  0.12095942520E+03  0.47228477210E+02  0.30995325241E+03  0.00000000000E+00 0. -1.
          4    1    6    6  503    0  0.24094129952E+03  0.42541003916E+03 -0.21984363125E+03  0.53605749079E+03  0.00000000000E+00 0. -1.
         -4    1    6    6    0  503  0.16601781398E+03  0.17083299265E+03 -0.90892084149E+02  0.25496508957E+03  0.00000000000E+00 0.  1.
<mgrwt>
<rscale>  0 0.22545988E+04</rscale>
<asrwt>0</asrwt>
<pdfrwt beam="1">  1        2 0.14649137E+00 0.22545988E+04</pdfrwt>
<pdfrwt beam="2">  1       -1 0.20532403E+00 0.22545988E+04</pdfrwt>
<totfact> 0.38849949E+00</totfact>
</mgrwt>
</event>
<event>
12    6  0.1494052E-007  0.1952928E+04  0.7818608E-02  0.8628950E-01
         -1   -1    0    0    0  501 -0.00000000000E+00  0.00000000000E+00  0.21787500248E+03  0.21787500248E+03  0.00000000000E+00 0.  1.
          2   -1    0    0  501    0  0.00000000000E+00 -0.00000000000E+00 -0.43762811982E+04  0.43762811982E+04  0.00000000000E+00 0. -1.
         24    2    1    2    0    0 -0.33720761485E+03  0.65132126301E+03 -0.21973176569E+04  0.23181614783E+04  0.87973808924E+02 0.  0.
        254    2    1    2    0    0  0.33720761485E+03 -0.65132126301E+03 -0.19610885388E+04  0.22759947223E+04  0.89238744723E+03 0.  0.
         23    2    4    4    0    0  0.47088734171E+03 -0.18361731495E+03 -0.43730046316E+03  0.67392887135E+03  0.86592272298E+02 0.  0.
         23    2    4    4    0    0 -0.13367972686E+03 -0.46770394806E+03 -0.15237880756E+04  0.16020658510E+04  0.89820037105E+02 0.  0.
          2    1    3    3  502    0 -0.25659108958E+03  0.54927362923E+03 -0.18758866103E+04  0.19714185455E+04  0.00000000000E+00 0. -1.
         -1    1    3    3    0  502 -0.80616525276E+02  0.10204763378E+03 -0.32143104661E+03  0.34674293278E+03  0.00000000000E+00 0.  1.
         11    1    5    5    0    0  0.23078777573E+03 -0.12134850570E+03 -0.18205094696E+03  0.31801101325E+03  0.00000000000E+00 0.  1.
        -11    1    5    5    0    0  0.24009956599E+03 -0.62268809252E+02 -0.25524951619E+03  0.35591785810E+03  0.00000000000E+00 0. -1.
          1    1    6    6  503    0 -0.25310100375E+02 -0.15386365165E+03 -0.37154519475E+03  0.40293976749E+03  0.00000000000E+00 0. -1.
         -1    1    6    6    0  503 -0.10836962649E+03 -0.31384029641E+03 -0.11522428809E+04  0.11991260835E+04  0.00000000000E+00 0.  1.
<mgrwt>
<rscale>  0 0.19529283E+04</rscale>
<asrwt>0</asrwt>
<pdfrwt beam="1">  1        2 0.67327402E+00 0.19529283E+04</pdfrwt>
<pdfrwt beam="2">  1       -1 0.33519232E-01 0.19529283E+04</pdfrwt>
<totfact> 0.14608327E+00</totfact>
</mgrwt>
</event>
<event>
12    6  0.1494052E-007  0.1346067E+04  0.7818608E-02  0.8993810E-01
         -1   -1    0    0    0  501 -0.00000000000E+00  0.00000000000E+00  0.32729503046E+03  0.32729503046E+03  0.00000000000E+00 0.  1.
          2   -1    0    0  501    0  0.00000000000E+00 -0.00000000000E+00 -0.13839939530E+04  0.13839939530E+04  0.00000000000E+00 0. -1.
         24    2    1    2    0    0 -0.12148874174E+03  0.20009082141E+03  0.63023244514E+02  0.25884202986E+03  0.90727150785E+02 0.  0.
        254    2    1    2    0    0  0.12148874174E+03 -0.20009082141E+03 -0.11197221670E+04  0.14524469536E+04  0.89500199465E+03 0.  0.
         23    2    4    4    0    0  0.20895417193E+03  0.20112389740E+03 -0.95158217692E+03  0.99905369587E+03  0.92124805134E+02 0.  0.
         23    2    4    4    0    0 -0.87465430186E+02 -0.40121471881E+03 -0.16813999010E+03  0.45339325769E+03  0.93117870374E+02 0.  0.
          4    1    3    3  502    0 -0.36393928099E+01  0.23200289221E+02 -0.19805603880E+02  0.30720685947E+02  0.00000000000E+00 0. -1.
         -3    1    3    3    0  502 -0.11784934893E+03  0.17689053219E+03  0.82828848394E+02  0.22812134391E+03  0.00000000000E+00 0.  1.
         11    1    5    5    0    0  0.62874080708E+02  0.11443558811E+03 -0.49383983596E+03  0.51080959019E+03  0.00000000000E+00 0.  1.
        -11    1    5    5    0    0  0.14608009122E+03  0.86688309294E+02 -0.45774234096E+03  0.48824410567E+03  0.00000000000E+00 0. -1.
          1    1    6    6  503    0  0.11672714732E+02 -0.38962967008E+02 -0.38693838969E+02  0.56138919133E+02  0.00000000000E+00 0.  1.
         -1    1    6    6    0  503 -0.99138144919E+02 -0.36225175181E+03 -0.12944615113E+03  0.39725433856E+03  0.00000000000E+00 0. -1.
<mgrwt>
<rscale>  0 0.13460674E+04</rscale>
<asrwt>0</asrwt>
<pdfrwt beam="1">  1        2 0.21292215E+00 0.13460674E+04</pdfrwt>
<pdfrwt beam="2">  1       -1 0.50353082E-01 0.13460674E+04</pdfrwt>
<totfact> 0.65166451E+01</totfact>
</mgrwt>
</event>
<event>
12    6  0.1494052E-007  0.2323467E+04  0.7818608E-02  0.8468726E-01
         -1   -1    0    0    0  501 -0.00000000000E+00  0.00000000000E+00  0.68670575650E+03  0.68670575650E+03  0.00000000000E+00 0.  1.
          2   -1    0    0  501    0  0.00000000000E+00 -0.00000000000E+00 -0.19653603815E+04  0.19653603815E+04  0.00000000000E+00 0. -1.
         24    2    1    2    0    0  0.27609916254E+03  0.74167267238E+03  0.12959438070E+03  0.80606883971E+03  0.81505645987E+02 0.  0.
        254    2    1    2    0    0 -0.27609916254E+03 -0.74167267238E+03 -0.14082490057E+04  0.18459972983E+04  0.89343811356E+03 0.  0.
         23    2    4    4    0    0 -0.19374176280E+03 -0.52265701489E+03 -0.17996404051E+03  0.59226809823E+03  0.87682486480E+02 0.  0.
         23    2    4    4    0    0 -0.82357399738E+02 -0.21901565749E+03 -0.12282849652E+04  0.12537292001E+04  0.91664343422E+02 0.  0.
          4    1    3    3  502    0  0.10897321043E+03  0.22133375671E+03  0.11732626751E+02  0.24698471001E+03  0.00000000000E+00 0. -1.
         -3    1    3    3    0  502  0.16712595211E+03  0.52033891567E+03  0.11786175395E+03  0.55908412969E+03  0.00000000000E+00 0.  1.
         11    1    5    5    0    0 -0.41358968961E+02 -0.19834136348E+03 -0.96153412407E+02  0.22426622460E+03  0.00000000000E+00 0. -1.
        -11    1    5    5    0    0 -0.15238279384E+03 -0.32431565141E+03 -0.83810628103E+02  0.36800187362E+03  0.00000000000E+00 0.  1.
          2    1    6    6  503    0 -0.58350484296E+02 -0.19932690545E+03 -0.88504272492E+03  0.90908559508E+03  0.00000000000E+00 0.  1.
         -2    1    6    6    0  503 -0.24006915442E+02 -0.19688752042E+02 -0.34324224032E+03  0.34464360502E+03  0.00000000000E+00 0. -1.
<mgrwt>
<rscale>  0 0.23234666E+04</rscale>
<asrwt>0</asrwt>
<pdfrwt beam="1">  1        2 0.30236313E+00 0.23234666E+04</pdfrwt>
<pdfrwt beam="2">  1       -1 0.10564704E+00 0.23234666E+04</pdfrwt>
<totfact> 0.60362259E+00</totfact>
</mgrwt>
</event>
<event>
12    6  0.1494052E-007  0.2131768E+04  0.7818608E-02  0.8547377E-01
         -1   -1    0    0    0  501 -0.00000000000E+00  0.00000000000E+00  0.10744177005E+04  0.10744177005E+04  0.00000000000E+00 0.  1.
          2   -1    0    0  501    0  0.00000000000E+00 -0.00000000000E+00 -0.10574181685E+04  0.10574181685E+04  0.00000000000E+00 0. -1.
         24    2    1    2    0    0  0.12789618682E+03  0.15665212642E+03  0.83170926509E+03  0.85977522744E+03  0.81091409947E+02 0.  0.
        254    2    1    2    0    0 -0.12789618682E+03 -0.15665212642E+03 -0.81470973309E+03  0.12720606415E+04  0.95576618651E+03 0.  0.
         23    2    4    4    0    0 -0.29149546990E+03 -0.22816842918E+03 -0.95423399061E+03  0.10275559512E+04  0.90985069625E+02 0.  0.
         23    2    4    4    0    0  0.16359928309E+03  0.71516302763E+02  0.13952425751E+03  0.24450469039E+03  0.91848887849E+02 0.  0.
          2    1    3    3  502    0  0.31965850271E+02  0.45178331296E+02  0.10890198826E+03  0.12215784973E+03  0.00000000000E+00 0. -1.
         -1    1    3    3    0  502  0.95930336546E+02  0.11147379512E+03  0.72280727683E+03  0.73761737771E+03  0.00000000000E+00 0.  1.
         11    1    5    5    0    0 -0.40563943747E+02 -0.65324208453E+02 -0.13426393825E+03  0.15472391818E+03  0.00000000000E+00 0.  1.
        -11    1    5    5    0    0 -0.25093152616E+03 -0.16284422073E+03 -0.81997005235E+03  0.87283203298E+03  0.00000000000E+00 0. -1.
          4    1    6    6  503    0  0.15049120886E+03  0.31816505330E+02  0.84820774020E+02  0.17565436989E+03  0.00000000000E+00 0. -1.
         -4    1    6    6    0  503  0.13108074224E+02  0.39699797433E+02  0.54703483494E+02  0.68850320496E+02  0.00000000000E+00 0.  1.
<mgrwt>
<rscale>  0 0.21317681E+04</rscale>
<asrwt>0</asrwt>
<pdfrwt beam="1">  1        2 0.16267972E+00 0.21317681E+04</pdfrwt>
<pdfrwt beam="2">  1       -1 0.16529503E+00 0.21317681E+04</pdfrwt>
<totfact> 0.64726602E+00</totfact>
</mgrwt>
</event>
<event>
12    6  0.1494052E-007  0.1523723E+04  0.7818608E-02  0.8868829E-01
         -1   -1    0    0    0  501 -0.00000000000E+00  0.00000000000E+00  0.33625023441E+03  0.33625023441E+03  0.00000000000E+00 0.  1.
          2   -1    0    0  501    0  0.00000000000E+00 -0.00000000000E+00 -0.17261928048E+04  0.17261928048E+04  0.00000000000E+00 0. -1.
         24    2    1    2    0    0 -0.41834622955E+03  0.24592383335E+03 -0.40564281323E+03  0.63773764965E+03  0.81676913898E+02 0.  0.
        254    2    1    2    0    0  0.41834622955E+03 -0.24592383335E+03 -0.98429975712E+03  0.14247053895E+04  0.90854132292E+03 0.  0.
         23    2    4    4    0    0 -0.22066231554E+03 -0.29606784456E+03 -0.32681149650E+03  0.50190971257E+03  0.93592623880E+02 0.  0.
         23    2    4    4    0    0  0.63900854509E+03  0.50144011212E+02 -0.65748826062E+03  0.92279567695E+03  0.91731706503E+02 0.  0.
          2    1    3    3  502    0 -0.67151323109E+02  0.19527144948E+02 -0.30858362954E+02  0.76438525295E+02  0.00000000000E+00 0. -1.
         -1    1    3    3    0  502 -0.35119490644E+03  0.22639668840E+03 -0.37478445028E+03  0.56129912436E+03  0.00000000000E+00 0.  1.
         11    1    5    5    0    0 -0.17457634949E+03 -0.21140369045E+03 -0.28901645225E+03  0.39837034504E+03  0.00000000000E+00 0. -1.
        -11    1    5    5    0    0 -0.46085966046E+02 -0.84664154111E+02 -0.37795044246E+02  0.10353936752E+03  0.00000000000E+00 0.  1.
          1    1    6    6  503    0  0.42915728013E+03  0.66014901913E+02 -0.40128080754E+03  0.59123618365E+03  0.00000000000E+00 0. -1.
         -1    1    6    6    0  503  0.20985126496E+03 -0.15870890702E+02 -0.25620745309E+03  0.33155949329E+03  0.00000000000E+00 0.  1.
<mgrwt>
<rscale>  0 0.15237227E+04</rscale>
<asrwt>0</asrwt>
<pdfrwt beam="1">  1        2 0.26556812E+00 0.15237227E+04</pdfrwt>
<pdfrwt beam="2">  1       -1 0.51730806E-01 0.15237227E+04</pdfrwt>
<totfact> 0.39185791E+01</totfact>
</mgrwt>
</event>
<event>
12    6  0.1494052E-007  0.3118432E+04  0.7818608E-02  0.8210698E-01
          2   -1    0    0  501    0  0.00000000000E+00  0.00000000000E+00  0.17243372631E+04  0.17243372631E+04  0.00000000000E+00 0. -1.
         -1   -1    0    0    0  501 -0.00000000000E+00 -0.00000000000E+00 -0.14099066239E+04  0.14099066239E+04  0.00000000000E+00 0.  1.
         24    2    1    2    0    0 -0.72729662705E+03  0.61351341204E+03 -0.92064856414E+03  0.13263974069E+04  0.79857447299E+02 0.  0.
        254    2    1    2    0    0  0.72729662705E+03 -0.61351341204E+03  0.12350792033E+04  0.18078464801E+04  0.91516619616E+03 0.  0.
         23    2    4    4    0    0 -0.14199397894E+03  0.56999086550E+02  0.35682796257E+03  0.39909695428E+03  0.92417520649E+02 0.  0.
         23    2    4    4    0    0  0.86929060599E+03 -0.67051249859E+03  0.87825124076E+03  0.14087495258E+04  0.89424918971E+02 0.  0.
          4    1    3    3  502    0 -0.63374666783E+03  0.55820562944E+03 -0.78967147162E+03  0.11562047383E+04  0.00000000000E+00 0. -1.
         -3    1    3    3    0  502 -0.93549959218E+02  0.55307782609E+02 -0.13097709252E+03  0.17019266862E+03  0.00000000000E+00 0.  1.
         11    1    5    5    0    0 -0.12580838561E+03  0.75648542435E+02  0.33644623797E+03  0.36707836072E+03  0.00000000000E+00 0. -1.
        -11    1    5    5    0    0 -0.16185593327E+02 -0.18649455885E+02  0.20381724598E+02  0.32018593563E+02  0.00000000000E+00 0.  1.
          1    1    6    6  503    0  0.52456589949E+03 -0.44283845141E+03  0.50830741123E+03  0.85419652379E+03  0.00000000000E+00 0. -1.
         -1    1    6    6    0  503  0.34472470651E+03 -0.22767404719E+03  0.36994382953E+03  0.55455300201E+03  0.00000000000E+00 0.  1.
<mgrwt>
<rscale>  0 0.31184320E+04</rscale>
<asrwt>0</asrwt>
<pdfrwt beam="1">  1        2 0.26528265E+00 0.31184320E+04</pdfrwt>
<pdfrwt beam="2">  1       -1 0.21690871E+00 0.31184320E+04</pdfrwt>
<totfact> 0.10587747E+00</totfact>
</mgrwt>
</event>
<event>
12    6  0.1494052E-007  0.1854758E+04  0.7818608E-02  0.8677710E-01
         -1   -1    0    0    0  501 -0.00000000000E+00  0.00000000000E+00  0.29121395019E+03  0.29121395019E+03  0.00000000000E+00 0.  1.
          2   -1    0    0  501    0  0.00000000000E+00 -0.00000000000E+00 -0.29532642591E+04  0.29532642591E+04  0.00000000000E+00 0. -1.
         24    2    1    2    0    0 -0.54080470449E+02 -0.57030196282E+03 -0.28097251263E+03  0.64302628295E+03  0.79801138012E+02 0.  0.
        254    2    1    2    0    0  0.54080470449E+02  0.57030196282E+03 -0.23810777963E+04  0.26014519263E+04  0.87741189137E+03 0.  0.
         23    2    4    4    0    0  0.21954914498E+03  0.23193512646E+03 -0.20288969214E+03  0.38919979285E+03  0.91194964938E+02 0.  0.
         23    2    4    4    0    0 -0.16546867453E+03  0.33836683635E+03 -0.21781881041E+04  0.22122521335E+04  0.87658923997E+02 0.  0.
          4    1    3    3  502    0 -0.40143231603E+02 -0.22956789407E+03 -0.15299807835E+03  0.27878541750E+03  0.00000000000E+00 0. -1.
         -3    1    3    3    0  502 -0.13937238845E+02 -0.34073406875E+03 -0.12797443428E+03  0.36424086545E+03  0.00000000000E+00 0.  1.
         11    1    5    5    0    0  0.72392587378E+02  0.74719580591E+02 -0.11907653170E+03  0.15812312555E+03  0.00000000000E+00 0.  1.
        -11    1    5    5    0    0  0.14715655760E+03  0.15721554587E+03 -0.83813160435E+02  0.23107666730E+03  0.00000000000E+00 0. -1.
          3    1    6    6  503    0 -0.33165836848E+00  0.76069729782E+02 -0.48471738932E+03  0.49065024334E+03  0.00000000000E+00 0. -1.
         -3    1    6    6    0  503 -0.16513701617E+03  0.26229710657E+03 -0.16934707148E+04  0.17216018901E+04  0.00000000000E+00 0.  1.
<mgrwt>
<rscale>  0 0.18547579E+04</rscale>
<asrwt>0</asrwt>
<pdfrwt beam="1">  1        2 0.45434835E+00 0.18547579E+04</pdfrwt>
<pdfrwt beam="2">  1       -1 0.44802146E-01 0.18547579E+04</pdfrwt>
<totfact> 0.98702659E+00</totfact>
</mgrwt>
</event>
<event>
12    6  0.1494052E-007  0.1776837E+04  0.7818608E-02  0.8718715E-01
         -1   -1    0    0    0  501 -0.00000000000E+00  0.00000000000E+00  0.93501785492E+03  0.93501785492E+03  0.00000000000E+00 0.  1.
          2   -1    0    0  501    0  0.00000000000E+00 -0.00000000000E+00 -0.84414189876E+03  0.84414189876E+03  0.00000000000E+00 0. -1.
         24    2    1    2    0    0  0.58015837157E+03  0.15071756780E+03  0.30784199038E+03  0.67865749292E+03  0.80683209593E+02 0.  0.
        254    2    1    2    0    0 -0.58015837157E+03 -0.15071756780E+03 -0.21696603422E+03  0.11005022608E+04  0.89706824969E+03 0.  0.
         23    2    4    4    0    0 -0.77852527746E+03 -0.15361901674E+02 -0.28862410888E+03  0.83554952382E+03  0.92203768128E+02 0.  0.
         23    2    4    4    0    0  0.19836690589E+03 -0.13535566613E+03  0.71658074668E+02  0.26495273695E+03  0.85991205633E+02 0.  0.
          4    1    3    3  502    0  0.20418880455E+03  0.19054779483E+02  0.83068294359E+02  0.22126114447E+03  0.00000000000E+00 0. -1.
         -3    1    3    3    0  502  0.37596956702E+03  0.13166278832E+03  0.22477369602E+03  0.45739634844E+03  0.00000000000E+00 0.  1.
         11    1    5    5    0    0 -0.59623846573E+03 -0.50490287749E+02 -0.22603696516E+03  0.63964231160E+03  0.00000000000E+00 0. -1.
        -11    1    5    5    0    0 -0.18228681173E+03  0.35128386074E+02 -0.62587143726E+02  0.19590721221E+03  0.00000000000E+00 0.  1.
          3    1    6    6  503    0  0.18130179750E+03 -0.14758975422E+03  0.69231046942E+02  0.24381553516E+03  0.00000000000E+00 0. -1.
         -3    1    6    6    0  503  0.17065108392E+02  0.12234088089E+02  0.24270277256E+01  0.21137201786E+02  0.00000000000E+00 0.  1.
<mgrwt>
<rscale>  0 0.17768374E+04</rscale>
<asrwt>0</asrwt>
<pdfrwt beam="1">  1        2 0.12986799E+00 0.17768374E+04</pdfrwt>
<pdfrwt beam="2">  1       -1 0.14384890E+00 0.17768374E+04</pdfrwt>
<totfact> 0.13499191E+01</totfact>
</mgrwt>
</event>
<event>
12    6  0.1494052E-007  0.1658323E+04  0.7818608E-02  0.8785498E-01
         -1   -1    0    0    0  501 -0.00000000000E+00  0.00000000000E+00  0.68358886080E+03  0.68358886080E+03  0.00000000000E+00 0.  1.
          2   -1    0    0  501    0  0.00000000000E+00 -0.00000000000E+00 -0.10057347693E+04  0.10057347693E+04  0.00000000000E+00 0. -1.
         24    2    1    2    0    0  0.40804058334E+02  0.54930504082E+03  0.69468573819E+02  0.56099551537E+03  0.80554866225E+02 0.  0.
        254    2    1    2    0    0 -0.40804058334E+02 -0.54930504082E+03 -0.39161448227E+03  0.11283281147E+04  0.90352721742E+03 0.  0.
         23    2    4    4    0    0  0.39376290508E+03 -0.16476696232E+03 -0.31020308885E+03  0.53521237528E+03  0.89604425261E+02 0.  0.
         23    2    4    4    0    0 -0.43456696341E+03 -0.38453807850E+03 -0.81411393419E+02  0.59311573941E+03  0.91872116836E+02 0.  0.
          4    1    3    3  502    0  0.67407056678E+01  0.10057675241E+02  0.12945250553E+02  0.17724938816E+02  0.00000000000E+00 0. -1.
         -3    1    3    3    0  502  0.34063352667E+02  0.53924736558E+03  0.56523323265E+02  0.54327057655E+03  0.00000000000E+00 0.  1.
         11    1    5    5    0    0  0.13361759267E+03 -0.28495228346E+02 -0.59243420087E+02  0.14891414282E+03  0.00000000000E+00 0.  1.
        -11    1    5    5    0    0  0.26014531241E+03 -0.13627173397E+03 -0.25095966877E+03  0.38629823245E+03  0.00000000000E+00 0. -1.
          4    1    6    6  503    0 -0.40338749375E+03 -0.35351759252E+03 -0.99562465488E+02  0.54553537270E+03  0.00000000000E+00 0. -1.
         -4    1    6    6    0  503 -0.31179469662E+02 -0.31020485981E+02  0.18151072069E+02  0.47580366708E+02  0.00000000000E+00 0.  1.
<mgrwt>
<rscale>  0 0.16583234E+04</rscale>
<asrwt>0</asrwt>
<pdfrwt beam="1">  1        2 0.15472843E+00 0.16583234E+04</pdfrwt>
<pdfrwt beam="2">  1       -1 0.10516752E+00 0.16583234E+04</pdfrwt>
<totfact> 0.23077449E+01</totfact>
</mgrwt>
</event>
<event>
12    6  0.1494052E-007  0.9784899E+03  0.7818608E-02  0.9332457E-01
          2   -1    0    0  501    0  0.00000000000E+00  0.00000000000E+00  0.82861575884E+03  0.82861575884E+03  0.00000000000E+00 0. -1.
         -1   -1    0    0    0  501 -0.00000000000E+00 -0.00000000000E+00 -0.28886802600E+03  0.28886802600E+03  0.00000000000E+00 0.  1.
         24    2    1    2    0    0  0.17133112732E+02  0.16262408650E+02 -0.10059982387E+01  0.84636434106E+02  0.81266871840E+02 0.  0.
        254    2    1    2    0    0 -0.17133112732E+02 -0.16262408650E+02  0.54075373107E+03  0.10328473507E+04  0.87965961756E+03 0.  0.
         23    2    4    4    0    0  0.11991627194E+01 -0.32306226707E+03  0.61905852090E+03  0.70271493989E+03  0.78766541426E+02 0.  0.
         23    2    4    4    0    0 -0.18332275452E+02  0.30679985842E+03 -0.78304789834E+02  0.33013241084E+03  0.91616281987E+02 0.  0.
          2    1    3    3  502    0 -0.12037453568E+01 -0.19548055170E+02  0.28615401088E+02  0.34675879849E+02  0.00000000000E+00 0. -1.
         -1    1    3    3    0  502  0.18336858089E+02  0.35810463820E+02 -0.29621399327E+02  0.49960554257E+02  0.00000000000E+00 0.  1.
         11    1    5    5    0    0  0.12983804894E+02 -0.17305156237E+03  0.40927161691E+03  0.44454322494E+03  0.00000000000E+00 0.  1.
        -11    1    5    5    0    0 -0.11784642175E+02 -0.15001070470E+03  0.20978690399E+03  0.25817171495E+03  0.00000000000E+00 0. -1.
          1    1    6    6  503    0 -0.89467362644E+00  0.14100742633E+03  0.10217954282E+02  0.14137998907E+03  0.00000000000E+00 0. -1.
         -1    1    6    6    0  503 -0.17437601825E+02  0.16579243209E+03 -0.88522744116E+02  0.18875242177E+03  0.00000000000E+00 0.  1.
<mgrwt>
<rscale>  0 0.97848985E+03</rscale>
<asrwt>0</asrwt>
<pdfrwt beam="1">  1        2 0.12747935E+00 0.97848985E+03</pdfrwt>
<pdfrwt beam="2">  1       -1 0.44441235E-01 0.97848985E+03</pdfrwt>
<totfact> 0.18771159E+02</totfact>
</mgrwt>
</event>
<event>
12    6  0.1494052E-007  0.2156176E+04  0.7818608E-02  0.8536893E-01
          2   -1    0    0  501    0  0.00000000000E+00  0.00000000000E+00  0.26769972057E+04  0.26769972057E+04  0.00000000000E+00 0. -1.
         -1   -1    0    0    0  501 -0.00000000000E+00 -0.00000000000E+00 -0.43417080167E+03  0.43417080167E+03  0.00000000000E+00 0.  1.
         24    2    1    2    0    0 -0.78630376264E+03  0.19207047060E+02  0.33387290034E+03  0.85823168245E+03  0.80299373480E+02 0.  0.
        254    2    1    2    0    0  0.78630376264E+03 -0.19207047060E+02  0.19089535037E+04  0.22529363249E+04  0.90165186578E+03 0.  0.
         23    2    4    4    0    0  0.33581872971E+03 -0.85053172802E+02  0.17109457963E+04  0.17480682562E+04  0.91645235564E+02 0.  0.
         23    2    4    4    0    0  0.45048503293E+03  0.65846125742E+02  0.19800770744E+03  0.50486806871E+03  0.91718250214E+02 0.  0.
          4    1    3    3  502    0 -0.25186526800E+03 -0.19754097149E+02  0.13669417626E+03  0.28724838625E+03  0.00000000000E+00 0. -1.
         -3    1    3    3    0  502 -0.53443849464E+03  0.38961144209E+02  0.19717872407E+03  0.57098329620E+03  0.00000000000E+00 0.  1.
         11    1    5    5    0    0  0.73667887783E+02  0.18941751600E+02  0.39085706579E+03  0.39818964517E+03  0.00000000000E+00 0. -1.
        -11    1    5    5    0    0  0.26215084192E+03 -0.10399492440E+03  0.13200887305E+04  0.13498786111E+04  0.00000000000E+00 0.  1.
          2    1    6    6  503    0  0.74529399283E+02 -0.12930111066E+02  0.72496106914E+01  0.75989314938E+02  0.00000000000E+00 0. -1.
         -2    1    6    6    0  503  0.37595563365E+03  0.78776236808E+02  0.19075809675E+03  0.42887875377E+03  0.00000000000E+00 0.  1.
<mgrwt>
<rscale>  0 0.21561763E+04</rscale>
<asrwt>0</asrwt>
<pdfrwt beam="1">  1        2 0.41184571E+00 0.21561763E+04</pdfrwt>
<pdfrwt beam="2">  1       -1 0.66795510E-01 0.21561763E+04</pdfrwt>
<totfact> 0.64998566E+00</totfact>
</mgrwt>
</event>
<event>
12    6  0.1494052E-007  0.1978599E+04  0.7818608E-02  0.8616692E-01
          2   -1    0    0  501    0  0.00000000000E+00  0.00000000000E+00  0.15025840062E+04  0.15025840062E+04  0.00000000000E+00 0. -1.
         -1   -1    0    0    0  501 -0.00000000000E+00 -0.00000000000E+00 -0.65135364858E+03  0.65135364858E+03  0.00000000000E+00 0.  1.
         24    2    1    2    0    0 -0.49066477659E+03  0.36914068690E+03 -0.19088988250E+03  0.64806273740E+03  0.80805907342E+02 0.  0.
        254    2    1    2    0    0  0.49066477659E+03 -0.36914068690E+03  0.10421202401E+04  0.15058749173E+04  0.89701053627E+03 0.  0.
         23    2    4    4    0    0  0.71942065855E+03 -0.41128941029E+03  0.84610085496E+03  0.11878760939E+04  0.91858014332E+02 0.  0.
         23    2    4    4    0    0 -0.22875588196E+03  0.42148723389E+02  0.19601938512E+03  0.31799882341E+03  0.92703203469E+02 0.  0.
          2    1    3    3  502    0 -0.78547836237E+02  0.75975080125E+02 -0.63974396343E+02  0.12662819104E+03  0.00000000000E+00 0. -1.
         -1    1    3    3    0  502 -0.41211694035E+03  0.29316560678E+03 -0.12691548616E+03  0.52143454637E+03  0.00000000000E+00 0.  1.
         11    1    5    5    0    0  0.62476514948E+03 -0.32786934705E+03  0.74607178563E+03  0.10268655755E+04  0.00000000000E+00 0.  1.
        -11    1    5    5    0    0  0.94655509069E+02 -0.83420063239E+02  0.10002906933E+03  0.16101051847E+03  0.00000000000E+00 0. -1.
          4    1    6    6  503    0 -0.74292382004E+02 -0.25389512373E+02  0.39196867267E+02  0.87751807764E+02  0.00000000000E+00 0. -1.
         -4    1    6    6    0  503 -0.15446349996E+03  0.67538235762E+02  0.15682251785E+03  0.23024701564E+03  0.00000000000E+00 0.  1.
<mgrwt>
<rscale>  0 0.19785991E+04</rscale>
<asrwt>0</asrwt>
<pdfrwt beam="1">  1        2 0.23116677E+00 0.19785991E+04</pdfrwt>
<pdfrwt beam="2">  1       -1 0.10020825E+00 0.19785991E+04</pdfrwt>
<totfact> 0.12725630E+01</totfact>
</mgrwt>
</event>
<event>
12    6  0.1494052E-007  0.2353567E+04  0.7818608E-02  0.8457095E-01
         -3   -1    0    0    0  501 -0.00000000000E+00  0.00000000000E+00  0.16608970150E+04  0.16608970150E+04  0.00000000000E+00 0.  1.
          4   -1    0    0  501    0  0.00000000000E+00 -0.00000000000E+00 -0.83377813916E+03  0.83377813916E+03  0.00000000000E+00 0. -1.
         24    2    1    2    0    0  0.38638204330E+03  0.40089536667E+03 -0.53139172796E+03  0.77306151249E+03  0.72379245232E+02 0.  0.
        254    2    1    2    0    0 -0.38638204330E+03 -0.40089536667E+03  0.13585106038E+04  0.17216136417E+04  0.89910749757E+03 0.  0.
         23    2    4    4    0    0 -0.90406225273E+02 -0.57852425899E+01 -0.11146690776E+03  0.16856462882E+03  0.88217957148E+02 0.  0.
         23    2    4    4    0    0 -0.29597581803E+03 -0.39511012408E+03  0.14699775116E+04  0.15530490129E+04  0.86102594906E+02 0.  0.
          2    1    3    3  502    0  0.20092020982E+02  0.28793238987E+02 -0.13422698239E+02  0.37588678435E+02  0.00000000000E+00 0. -1.
         -3    1    3    3    0  502  0.36629002232E+03  0.37210212769E+03 -0.51796902972E+03  0.73547283405E+03  0.00000000000E+00 0.  1.
         11    1    5    5    0    0 -0.10170395105E+03  0.96329440530E+01 -0.72842019360E+02  0.12546890872E+03  0.00000000000E+00 0.  1.
        -11    1    5    5    0    0  0.11297725778E+02 -0.15418186643E+02 -0.38624888398E+02  0.43095720099E+02  0.00000000000E+00 0. -1.
          1    1    6    6  503    0 -0.61302051335E+02 -0.38136307549E+02  0.26156730441E+03  0.27134806833E+03  0.00000000000E+00 0. -1.
         -1    1    6    6    0  503 -0.23467376669E+03 -0.35697381653E+03  0.12084102072E+04  0.12817009446E+04  0.00000000000E+00 0.  1.
<mgrwt>
<rscale>  0 0.23535672E+04</rscale>
<asrwt>0</asrwt>
<pdfrwt beam="1">  1        4 0.12827356E+00 0.23535672E+04</pdfrwt>
<pdfrwt beam="2">  1       -3 0.25552262E+00 0.23535672E+04</pdfrwt>
<totfact> 0.62685749E-02</totfact>
</mgrwt>
</event>
<event>
12    6  0.1494052E-007  0.1378358E+04  0.7818608E-02  0.8969635E-01
          2   -1    0    0  501    0  0.00000000000E+00  0.00000000000E+00  0.35821549664E+03  0.35821549664E+03  0.00000000000E+00 0. -1.
         -1   -1    0    0    0  501 -0.00000000000E+00 -0.00000000000E+00 -0.13259280720E+04  0.13259280720E+04  0.00000000000E+00 0.  1.
         24    2    1    2    0    0  0.30417102067E+03 -0.27138971291E+03 -0.52084832992E+03  0.66680488891E+03  0.84695873599E+02 0.  0.
        254    2    1    2    0    0 -0.30417102067E+03  0.27138971291E+03 -0.44686424547E+03  0.10173386798E+04  0.81799630155E+03 0.  0.
         23    2    4    4    0    0 -0.45232783190E+03  0.36533163043E+03 -0.71160909026E+02  0.59309325554E+03  0.92887389318E+02 0.  0.
         23    2    4    4    0    0  0.14815681122E+03 -0.93941917526E+02 -0.37570333644E+03  0.42424542421E+03  0.89753319538E+02 0.  0.
          2    1    3    3  502    0  0.59434997370E+02 -0.96592913524E+02 -0.11339265753E+03  0.16037644664E+03  0.00000000000E+00 0. -1.
         -1    1    3    3    0  502  0.24473602330E+03 -0.17479679938E+03 -0.40745567239E+03  0.50642844227E+03  0.00000000000E+00 0.  1.
         11    1    5    5    0    0 -0.36362086433E+03  0.25596260448E+03 -0.26936392138E+02  0.44549136590E+03  0.00000000000E+00 0. -1.
        -11    1    5    5    0    0 -0.88706967564E+02  0.10936902595E+03 -0.44224516888E+02  0.14760188964E+03  0.00000000000E+00 0.  1.
          2    1    6    6  503    0  0.14673206148E+03 -0.96933713422E+02 -0.38005840183E+03  0.41877300709E+03  0.00000000000E+00 0. -1.
         -2    1    6    6    0  503  0.14247497440E+01  0.29917958961E+01  0.43550653931E+01  0.54724171163E+01  0.00000000000E+00 0.  1.
<mgrwt>
<rscale>  0 0.13783584E+04</rscale>
<asrwt>0</asrwt>
<pdfrwt beam="1">  1        2 0.55110077E-01 0.13783584E+04</pdfrwt>
<pdfrwt beam="2">  1       -1 0.20398893E+00 0.13783584E+04</pdfrwt>
<totfact> 0.14194901E+01</totfact>
</mgrwt>
</event>
<event>
12    6  0.1494052E-007  0.2306390E+04  0.7818608E-02  0.8475406E-01
          2   -1    0    0  501    0  0.00000000000E+00  0.00000000000E+00  0.29701736777E+04  0.29701736777E+04  0.00000000000E+00 0. -1.
         -1   -1    0    0    0  501 -0.00000000000E+00 -0.00000000000E+00 -0.44773763180E+03  0.44773763180E+03  0.00000000000E+00 0.  1.
         24    2    1    2    0    0 -0.64361223149E+03  0.41983398991E+03  0.19699333978E+04  0.21158096645E+04  0.74267496466E+02 0.  0.
        254    2    1    2    0    0  0.64361223149E+03 -0.41983398991E+03  0.55250264803E+03  0.13021016449E+04  0.89426631046E+03 0.  0.
         23    2    4    4    0    0 -0.89275102607E+02  0.15553302814E+03 -0.26374686261E+02  0.20140913255E+03  0.87803461259E+02 0.  0.
         23    2    4    4    0    0  0.73288733410E+03 -0.57536701806E+03  0.57887733429E+03  0.11006925124E+04  0.90851465038E+02 0.  0.
          4    1    3    3  502    0 -0.46888252040E+03  0.29485705463E+03  0.15035672685E+04  0.16023439180E+04  0.00000000000E+00 0. -1.
         -3    1    3    3    0  502 -0.17472971110E+03  0.12497693528E+03  0.46636612936E+03  0.51346574657E+03  0.00000000000E+00 0.  1.
         11    1    5    5    0    0 -0.79913232003E+02  0.11667967801E+03 -0.55535900460E+02  0.15193586854E+03  0.00000000000E+00 0. -1.
        -11    1    5    5    0    0 -0.93618706040E+01  0.38853350139E+02  0.29161214198E+02  0.49473264010E+02  0.00000000000E+00 0.  1.
          3    1    6    6  503    0  0.49064568916E+03 -0.37799199184E+03  0.43389674962E+03  0.75622584426E+03  0.00000000000E+00 0. -1.
         -3    1    6    6    0  503  0.24224164493E+03 -0.19737502622E+03  0.14498058467E+03  0.34446666812E+03  0.00000000000E+00 0.  1.
<mgrwt>
<rscale>  0 0.23063898E+04</rscale>
<asrwt>0</asrwt>
<pdfrwt beam="1">  1        2 0.45694978E+00 0.23063898E+04</pdfrwt>
<pdfrwt beam="2">  1       -1 0.68882715E-01 0.23063898E+04</pdfrwt>
<totfact> 0.39986040E+00</totfact>
</mgrwt>
</event>
<event>
12    6  0.1494052E-007  0.1795551E+04  0.7818608E-02  0.8708669E-01
         -1   -1    0    0    0  501 -0.00000000000E+00  0.00000000000E+00  0.45031667785E+03  0.45031667785E+03  0.00000000000E+00 0.  1.
          2   -1    0    0  501    0  0.00000000000E+00 -0.00000000000E+00 -0.17898533572E+04  0.17898533572E+04  0.00000000000E+00 0. -1.
         24    2    1    2    0    0  0.58504923841E+03  0.11082707254E+02 -0.90996848366E+03  0.10847639397E+04  0.79150021547E+02 0.  0.
        254    2    1    2    0    0 -0.58504923841E+03 -0.11082707254E+02 -0.42956819565E+03  0.11554060953E+04  0.89890431779E+03 0.  0.
         23    2    4    4    0    0 -0.12288403443E+03 -0.41804217494E+03 -0.12513390828E+03  0.46242332540E+03  0.91198086210E+02 0.  0.
         23    2    4    4    0    0 -0.46216520398E+03  0.40695946769E+03 -0.30443428736E+03  0.69298276988E+03  0.91280884763E+02 0.  0.
          4    1    3    3  502    0  0.75701275254E+02 -0.20283567034E+02 -0.94332538525E+02  0.12264067022E+03  0.00000000000E+00 0. -1.
         -3    1    3    3    0  502  0.50934796315E+03  0.31366274288E+02 -0.81563594514E+03  0.96212326951E+03  0.00000000000E+00 0.  1.
         11    1    5    5    0    0  0.52479138373E+01 -0.45092564785E+01 -0.13754683096E+02  0.15396925040E+02  0.00000000000E+00 0.  1.
        -11    1    5    5    0    0 -0.12813194827E+03 -0.41353291846E+03 -0.11137922519E+03  0.44702640036E+03  0.00000000000E+00 0. -1.
          2    1    6    6  503    0 -0.44538222195E+03  0.40028817473E+03 -0.27617584943E+03  0.65944601467E+03  0.00000000000E+00 0. -1.
         -2    1    6    6    0  503 -0.16782982029E+02  0.66712929553E+01 -0.28258437938E+02  0.33536755212E+02  0.00000000000E+00 0.  1.
<mgrwt>
<rscale>  0 0.17955510E+04</rscale>
<asrwt>0</asrwt>
<pdfrwt beam="1">  1        2 0.27536206E+00 0.17955510E+04</pdfrwt>
<pdfrwt beam="2">  1       -1 0.69279489E-01 0.17955510E+04</pdfrwt>
<totfact> 0.19816249E+01</totfact>
</mgrwt>
</event>
<event>
12    6  0.1494052E-007  0.1737624E+04  0.7818608E-02  0.8740192E-01
          2   -1    0    0  501    0  0.00000000000E+00  0.00000000000E+00  0.20582141801E+04  0.20582141801E+04  0.00000000000E+00 0. -1.
         -1   -1    0    0    0  501 -0.00000000000E+00 -0.00000000000E+00 -0.36674218461E+03  0.36674218461E+03  0.00000000000E+00 0.  1.
         24    2    1    2    0    0 -0.40510819453E+02  0.37413342424E+03  0.13273956204E+04  0.13819657726E+04  0.78951363987E+02 0.  0.
        254    2    1    2    0    0  0.40510819453E+02 -0.37413342424E+03  0.36407637505E+03  0.10429905921E+04  0.90203149763E+03 0.  0.
         23    2    4    4    0    0  0.51287047979E+02 -0.18336452800E+03  0.65202801725E+03  0.68540583827E+03  0.91584476977E+02 0.  0.
         23    2    4    4    0    0 -0.10776228526E+02 -0.19076889623E+03 -0.28795164220E+03  0.35758475384E+03  0.91879317912E+02 0.  0.
          2    1    3    3  502    0 -0.26585003828E+02  0.28358970682E+03  0.11119791488E+04  0.11478795719E+04  0.00000000000E+00 0. -1.
         -1    1    3    3    0  502 -0.13925815625E+02  0.90543717413E+02  0.21541647166E+03  0.23408620072E+03  0.00000000000E+00 0.  1.
         11    1    5    5    0    0  0.54865619795E+02 -0.40062992342E+02  0.21074644831E+03  0.22142571004E+03  0.00000000000E+00 0. -1.
        -11    1    5    5    0    0 -0.35785718153E+01 -0.14330153566E+03  0.44128156895E+03  0.46398012823E+03  0.00000000000E+00 0.  1.
          2    1    6    6  503    0 -0.26141434562E+02 -0.25880977544E+02 -0.18164099183E+02  0.41026017339E+02  0.00000000000E+00 0. -1.
         -2    1    6    6    0  503  0.15365206035E+02 -0.16488791869E+03 -0.26978754302E+03  0.31655873650E+03  0.00000000000E+00 0.  1.
<mgrwt>
<rscale>  0 0.17376236E+04</rscale>
<asrwt>0</asrwt>
<pdfrwt beam="1">  1        2 0.31664833E+00 0.17376236E+04</pdfrwt>
<pdfrwt beam="2">  1       -1 0.56421876E-01 0.17376236E+04</pdfrwt>
<totfact> 0.21300528E+01</totfact>
</mgrwt>
</event>
<event>
12    6  0.1494052E-007  0.2173108E+04  0.7818608E-02  0.8529705E-01
          2   -1    0    0  501    0  0.00000000000E+00  0.00000000000E+00  0.21002292025E+04  0.21002292025E+04  0.00000000000E+00 0. -1.
         -1   -1    0    0    0  501 -0.00000000000E+00 -0.00000000000E+00 -0.56212868712E+03  0.56212868712E+03  0.00000000000E+00 0.  1.
         24    2    1    2    0    0 -0.69310033112E+03 -0.23974040288E+03  0.13049704901E+04  0.14989246898E+04  0.77225099024E+02 0.  0.
        254    2    1    2    0    0  0.69310033112E+03  0.23974040288E+03  0.23313002527E+03  0.11634331998E+04  0.87256155767E+03 0.  0.
         23    2    4    4    0    0  0.50938213972E+03 -0.26058884999E+03  0.11409043644E+02  0.57911527318E+03  0.88699607380E+02 0.  0.
         23    2    4    4    0    0  0.18371819140E+03  0.50032925287E+03  0.22172098162E+03  0.58431792661E+03  0.90473811333E+02 0.  0.
          2    1    3    3  502    0 -0.37866166531E+03 -0.16942564905E+03  0.75903330698E+03  0.86499784302E+03  0.00000000000E+00 0. -1.
         -1    1    3    3    0  502 -0.31443866581E+03 -0.70314753824E+02  0.54593718313E+03  0.63392684679E+03  0.00000000000E+00 0.  1.
         11    1    5    5    0    0  0.47488941966E+03 -0.22029055915E+03 -0.52317021896E+01  0.52352197859E+03  0.00000000000E+00 0. -1.
        -11    1    5    5    0    0  0.34492720061E+02 -0.40298290845E+02  0.16640745833E+02  0.55593294597E+02  0.00000000000E+00 0.  1.
          1    1    6    6  503    0  0.18342734528E+03  0.50052318752E+03  0.22673568606E+03  0.57929105256E+03  0.00000000000E+00 0. -1.
         -1    1    6    6    0  503  0.29084611812E+00 -0.19393465229E+00 -0.50147044366E+01  0.50268740486E+01  0.00000000000E+00 0.  1.
<mgrwt>
<rscale>  0 0.21731075E+04</rscale>
<asrwt>0</asrwt>
<pdfrwt beam="1">  1        2 0.32311218E+00 0.21731075E+04</pdfrwt>
<pdfrwt beam="2">  1       -1 0.86481338E-01 0.21731075E+04</pdfrwt>
<totfact> 0.80749938E+00</totfact>
</mgrwt>
</event>
<event>
12    6  0.1494052E-007  0.1695525E+04  0.7818608E-02  0.8763921E-01
         -1   -1    0    0    0  501 -0.00000000000E+00  0.00000000000E+00  0.37761984677E+03  0.37761984677E+03  0.00000000000E+00 0.  1.
          2   -1    0    0  501    0  0.00000000000E+00 -0.00000000000E+00 -0.19032404512E+04  0.19032404512E+04  0.00000000000E+00 0. -1.
         24    2    1    2    0    0  0.17909907440E+03 -0.47338682427E+03 -0.99591105255E+03  0.11199759049E+04  0.79596727550E+02 0.  0.
        254    2    1    2    0    0 -0.17909907440E+03  0.47338682427E+03 -0.52970955193E+03  0.11608843932E+04  0.90049364298E+03 0.  0.
         23    2    4    4    0    0 -0.26080475989E+03 -0.46365651294E+02 -0.55876069512E+03  0.62577871991E+03  0.96003101430E+02 0.  0.
         23    2    4    4    0    0  0.81705685491E+02  0.51975247556E+03  0.29051143190E+02  0.53510567325E+03  0.93143210874E+02 0.  0.
          4    1    3    3  502    0 -0.17435968651E+01  0.75021767866E+00 -0.19313987569E+02  0.19407036673E+02  0.00000000000E+00 0. -1.
         -3    1    3    3    0  502  0.18084267126E+03 -0.47413704195E+03 -0.97659706498E+03  0.11005688682E+04  0.00000000000E+00 0.  1.
         11    1    5    5    0    0 -0.18013188285E+03 -0.43130334818E+02 -0.28125899635E+03  0.33677046193E+03  0.00000000000E+00 0.  1.
        -11    1    5    5    0    0 -0.80672877039E+02 -0.32353164762E+01 -0.27750169876E+03  0.28900825798E+03  0.00000000000E+00 0. -1.
          2    1    6    6  503    0  0.20269435748E+02  0.52663781439E+02  0.30178278020E+02  0.63992596176E+02  0.00000000000E+00 0. -1.
         -2    1    6    6    0  503  0.61436249743E+02  0.46708869412E+03 -0.11271348306E+01  0.47111307708E+03  0.00000000000E+00 0.  1.
<mgrwt>
<rscale>  0 0.16955251E+04</rscale>
<asrwt>0</asrwt>
<pdfrwt beam="1">  1        2 0.29280622E+00 0.16955251E+04</pdfrwt>
<pdfrwt beam="2">  1       -1 0.58095362E-01 0.16955251E+04</pdfrwt>
<totfact> 0.24612029E+01</totfact>
</mgrwt>
</event>
<event>
12    6  0.1494052E-007  0.1049213E+04  0.7818608E-02  0.9256157E-01
          2   -1    0    0  501    0  0.00000000000E+00  0.00000000000E+00  0.13562578161E+04  0.13562578161E+04  0.00000000000E+00 0. -1.
         -1   -1    0    0    0  501 -0.00000000000E+00 -0.00000000000E+00 -0.20292005995E+03  0.20292005995E+03  0.00000000000E+00 0.  1.
         24    2    1    2    0    0  0.21735190065E+02  0.10314736873E+03  0.76818667309E+02  0.15250348461E+03  0.79021560391E+02 0.  0.
        254    2    1    2    0    0 -0.21735190065E+02 -0.10314736873E+03  0.10765190889E+04  0.14066743915E+04  0.89929288707E+03 0.  0.
         23    2    4    4    0    0  0.36442106874E+03 -0.19840943472E+03  0.82654590782E+03  0.92920946373E+03  0.89905898717E+02 0.  0.
         23    2    4    4    0    0 -0.38615625880E+03  0.95262065987E+02  0.24997318104E+03  0.47746492772E+03  0.85408714662E+02 0.  0.
          2    1    3    3  502    0  0.23918708410E+02  0.90523628813E+02  0.92930331390E+02  0.13191921194E+03  0.00000000000E+00 0. -1.
         -1    1    3    3    0  502 -0.21835183450E+01  0.12623739920E+02 -0.16111664082E+02  0.20584272671E+02  0.00000000000E+00 0.  1.
         11    1    5    5    0    0  0.28848294735E+03 -0.19565429213E+03  0.67831359660E+03  0.76263513444E+03  0.00000000000E+00 0. -1.
        -11    1    5    5    0    0  0.75938121388E+02 -0.27551425906E+01  0.14823231122E+03  0.16657432929E+03  0.00000000000E+00 0.  1.
          1    1    6    6  503    0 -0.37603061185E+03  0.79352992405E+02  0.25024492510E+03  0.45860488549E+03  0.00000000000E+00 0. -1.
         -1    1    6    6    0  503 -0.10125646948E+02  0.15909073582E+02 -0.27174405992E+00  0.18860042237E+02  0.00000000000E+00 0.  1.
<mgrwt>
<rscale>  0 0.10492129E+04</rscale>
<asrwt>0</asrwt>
<pdfrwt beam="1">  1        2 0.20865504E+00 0.10492129E+04</pdfrwt>
<pdfrwt beam="2">  1       -1 0.31218472E-01 0.10492129E+04</pdfrwt>
<totfact> 0.16532135E+02</totfact>
</mgrwt>
</event>
<event>
12    6  0.1494052E-007  0.2842433E+04  0.7818608E-02  0.8290214E-01
         -1   -1    0    0    0  501 -0.00000000000E+00  0.00000000000E+00  0.76357559868E+03  0.76357559868E+03  0.00000000000E+00 0.  1.
          2   -1    0    0  501    0  0.00000000000E+00 -0.00000000000E+00 -0.26452607273E+04  0.26452607273E+04  0.00000000000E+00 0. -1.
         24    2    1    2    0    0  0.15416129302E+03  0.12243444088E+04 -0.12624427745E+04  0.17671259893E+04  0.78661092650E+02 0.  0.
        254    2    1    2    0    0 -0.15416129302E+03 -0.12243444088E+04 -0.61924235416E+03  0.16417103367E+04  0.88823803159E+03 0.  0.
         23    2    4    4    0    0 -0.31011297694E+02 -0.14594643910E+03 -0.51920180755E+03  0.54787532248E+03  0.91295062020E+02 0.  0.
         23    2    4    4    0    0 -0.12314999532E+03 -0.10783979697E+04 -0.10004054661E+03  0.10938350142E+04  0.91426609437E+02 0.  0.
          2    1    3    3  502    0  0.11784760136E+03  0.63253198019E+03 -0.67181563393E+03  0.93022632144E+03  0.00000000000E+00 0. -1.
         -1    1    3    3    0  502  0.36313691655E+02  0.59181242864E+03 -0.59062714056E+03  0.83689966785E+03  0.00000000000E+00 0.  1.
         11    1    5    5    0    0  0.29729590363E+02 -0.64490764673E+02 -0.25835217485E+03  0.26793423358E+03  0.00000000000E+00 0.  1.
        -11    1    5    5    0    0 -0.60740888057E+02 -0.81455674425E+02 -0.26084963269E+03  0.27994108890E+03  0.00000000000E+00 0. -1.
          2    1    6    6  503    0 -0.10084963493E+03 -0.10267099422E+04 -0.82837090209E+02  0.10349714671E+04  0.00000000000E+00 0. -1.
         -2    1    6    6    0  503 -0.22300360391E+02 -0.51688027548E+02 -0.17203456406E+02  0.58863547104E+02  0.00000000000E+00 0.  1.
<mgrwt>
<rscale>  0 0.28424331E+04</rscale>
<asrwt>0</asrwt>
<pdfrwt beam="1">  1        2 0.40696319E+00 0.28424331E+04</pdfrwt>
<pdfrwt beam="2">  1       -1 0.11747317E+00 0.28424331E+04</pdfrwt>
<totfact> 0.18387846E+00</totfact>
</mgrwt>
</event>
<event>
12    6  0.1494052E-007  0.3094730E+04  0.7818608E-02  0.8217186E-01
         -1   -1    0    0    0  501 -0.00000000000E+00  0.00000000000E+00  0.13419799492E+04  0.13419799492E+04  0.00000000000E+00 0.  1.
          2   -1    0    0  501    0  0.00000000000E+00 -0.00000000000E+00 -0.17841835465E+04  0.17841835465E+04  0.00000000000E+00 0. -1.
         24    2    1    2    0    0 -0.12138430047E+04 -0.58663293947E+03  0.23483776951E+03  0.13709995764E+04  0.83294746072E+02 0.  0.
        254    2    1    2    0    0  0.12138430047E+04  0.58663293947E+03 -0.67704136685E+03  0.17551639193E+04  0.89702972385E+03 0.  0.
         23    2    4    4    0    0  0.97327130621E+03  0.97051845567E+01 -0.31444803113E+03  0.10269164501E+04  0.91261191206E+02 0.  0.
         23    2    4    4    0    0  0.24057169849E+03  0.57692775491E+03 -0.36259333572E+03  0.72824746925E+03  0.90277753924E+02 0.  0.
          2    1    3    3  502    0 -0.10785434104E+04 -0.54510872234E+03  0.22402178397E+03  0.12290586507E+04  0.00000000000E+00 0. -1.
         -1    1    3    3    0  502 -0.13529959433E+03 -0.41524217132E+02  0.10815985544E+02  0.14194092566E+03  0.00000000000E+00 0.  1.
         11    1    5    5    0    0  0.92864052344E+03  0.17382810804E+02 -0.28023195480E+03  0.97015737506E+03  0.00000000000E+00 0. -1.
        -11    1    5    5    0    0  0.44630782765E+02 -0.76776262475E+01 -0.34216076332E+02  0.56759074997E+02  0.00000000000E+00 0.  1.
          2    1    6    6  503    0  0.15391026093E+03  0.38473050934E+03 -0.28791778769E+03  0.50458159469E+03  0.00000000000E+00 0. -1.
         -2    1    6    6    0  503  0.86661437565E+02  0.19219724558E+03 -0.74675548033E+02  0.22366587456E+03  0.00000000000E+00 0.  1.
<mgrwt>
<rscale>  0 0.30947301E+04</rscale>
<asrwt>0</asrwt>
<pdfrwt beam="1">  1        2 0.27448977E+00 0.30947301E+04</pdfrwt>
<pdfrwt beam="2">  1       -1 0.20645845E+00 0.30947301E+04</pdfrwt>
<totfact> 0.11566375E+00</totfact>
</mgrwt>
</event>
<event>
12    6  0.1494052E-007  0.1899675E+04  0.7818608E-02  0.8655018E-01
         -1   -1    0    0    0  501 -0.00000000000E+00  0.00000000000E+00  0.78143251051E+03  0.78143251051E+03  0.00000000000E+00 0.  1.
          2   -1    0    0  501    0  0.00000000000E+00 -0.00000000000E+00 -0.11545350740E+04  0.11545350740E+04  0.00000000000E+00 0. -1.
         24    2    1    2    0    0 -0.15056229146E+03  0.21147371002E+03  0.54835514944E+03  0.61078151265E+03  0.70502146321E+02 0.  0.
        254    2    1    2    0    0  0.15056229146E+03 -0.21147371002E+03 -0.92145771290E+03  0.13251860718E+04  0.91632072697E+03 0.  0.
         23    2    4    4    0    0  0.25824110748E+03  0.29638384561E+03 -0.53997385263E+03  0.67441308969E+03  0.93431260764E+02 0.  0.
         23    2    4    4    0    0 -0.10767881602E+03 -0.50785755563E+03 -0.38148386027E+03  0.65077298214E+03  0.91986490390E+02 0.  0.
          4    1    3    3  502    0 -0.73074884559E+02  0.12744682379E+03  0.23403849324E+03  0.27632706702E+03  0.00000000000E+00 0. -1.
         -3    1    3    3    0  502 -0.77487406900E+02  0.84026886227E+02  0.31431665620E+03  0.33445444563E+03  0.00000000000E+00 0.  1.
         11    1    5    5    0    0  0.39872219850E+02  0.54862371623E+02 -0.16144522743E+03  0.17511206468E+03  0.00000000000E+00 0. -1.
        -11    1    5    5    0    0  0.21836888763E+03  0.24152147398E+03 -0.37852862521E+03  0.49930102501E+03  0.00000000000E+00 0.  1.
          4    1    6    6  503    0 -0.47631867361E+02 -0.37833603625E+03 -0.24487241295E+03  0.45317706223E+03  0.00000000000E+00 0. -1.
         -4    1    6    6    0  503 -0.60046948657E+02 -0.12952151938E+03 -0.13661144732E+03  0.19759591991E+03  0.00000000000E+00 0.  1.
<mgrwt>
<rscale>  0 0.18996750E+04</rscale>
<asrwt>0</asrwt>
<pdfrwt beam="1">  1        2 0.17762078E+00 0.18996750E+04</pdfrwt>
<pdfrwt beam="2">  1       -1 0.12022039E+00 0.18996750E+04</pdfrwt>
<totfact> 0.13280560E+01</totfact>
</mgrwt>
</event>
<event>
12    6  0.1494052E-007  0.1311950E+04  0.7818608E-02  0.9020142E-01
          2   -1    0    0  501    0  0.00000000000E+00  0.00000000000E+00  0.20195201198E+04  0.20195201198E+04  0.00000000000E+00 0. -1.
         -1   -1    0    0    0  501 -0.00000000000E+00 -0.00000000000E+00 -0.21307212564E+03  0.21307212564E+03  0.00000000000E+00 0.  1.
         24    2    1    2    0    0 -0.23692044169E+03 -0.10608209603E+03  0.99868596444E+02  0.28960870620E+03  0.80714059281E+02 0.  0.
        254    2    1    2    0    0  0.23692044169E+03  0.10608209603E+03  0.17065793977E+04  0.19429835392E+04  0.89184476578E+03 0.  0.
         23    2    4    4    0    0  0.20046155868E+03 -0.33153789038E+03  0.12110596884E+04  0.12746304624E+04  0.88966497186E+02 0.  0.
         23    2    4    4    0    0  0.36458883007E+02  0.43761998641E+03  0.49551970934E+03  0.66835307683E+03  0.91189639259E+02 0.  0.
          4    1    3    3  502    0 -0.11383045243E+02 -0.23225701678E+02 -0.67633968880E+01  0.26734817652E+02  0.00000000000E+00 0. -1.
         -3    1    3    3    0  502 -0.22553739644E+03 -0.82856394354E+02  0.10663199333E+03  0.26287388855E+03  0.00000000000E+00 0.  1.
         11    1    5    5    0    0  0.14431588309E+03 -0.17794294257E+03  0.80228599561E+03  0.83435818668E+03  0.00000000000E+00 0.  1.
        -11    1    5    5    0    0  0.56145675593E+02 -0.15359494780E+03  0.40877369276E+03  0.44027227573E+03  0.00000000000E+00 0. -1.
          1    1    6    6  503    0  0.38620216463E+02  0.98400650796E+02  0.15571389012E+03  0.18820474163E+03  0.00000000000E+00 0. -1.
         -1    1    6    6    0  503 -0.21613334561E+01  0.33921933562E+03  0.33980581922E+03  0.48014833519E+03  0.00000000000E+00 0.  1.
<mgrwt>
<rscale>  0 0.13119504E+04</rscale>
<asrwt>0</asrwt>
<pdfrwt beam="1">  1        2 0.31069539E+00 0.13119504E+04</pdfrwt>
<pdfrwt beam="2">  1       -1 0.32780328E-01 0.13119504E+04</pdfrwt>
<totfact> 0.63476860E+01</totfact>
</mgrwt>
</event>
<event>
12    6  0.1494052E-007  0.2438349E+04  0.7818608E-02  0.8425284E-01
          2   -1    0    0  501    0  0.00000000000E+00  0.00000000000E+00  0.30937501925E+04  0.30937501925E+04  0.00000000000E+00 0. -1.
         -1   -1    0    0    0  501 -0.00000000000E+00 -0.00000000000E+00 -0.48044822198E+03  0.48044822198E+03  0.00000000000E+00 0.  1.
         24    2    1    2    0    0  0.72665426656E+03  0.74386682723E+03  0.99075079438E+03  0.14385493588E+04  0.80453969883E+02 0.  0.
        254    2    1    2    0    0 -0.72665426656E+03 -0.74386682723E+03  0.16225511761E+04  0.21356490557E+04  0.92030445519E+03 0.  0.
         23    2    4    4    0    0  0.15739409053E+03  0.55591231491E+02  0.17037719336E+03  0.25455641344E+03  0.88922971463E+02 0.  0.
         23    2    4    4    0    0 -0.88404835709E+03 -0.79945805872E+03  0.14521739827E+04  0.18810926422E+04  0.95002985450E+02 0.  0.
          2    1    3    3  502    0  0.30544516251E+03  0.31972100289E+03  0.47613709960E+03  0.64978827675E+03  0.00000000000E+00 0. -1.
         -1    1    3    3    0  502  0.42120910405E+03  0.42414582433E+03  0.51461369478E+03  0.78876108201E+03  0.00000000000E+00 0.  1.
         11    1    5    5    0    0  0.54314491245E+02  0.70752015658E+01  0.11607761409E+03  0.12835160665E+03  0.00000000000E+00 0.  1.
        -11    1    5    5    0    0  0.10307959929E+03  0.48516029925E+02  0.54299579273E+02  0.12620480680E+03  0.00000000000E+00 0. -1.
          2    1    6    6  503    0 -0.65456542194E+03 -0.59845569498E+03  0.11431477504E+04  0.14468558635E+04  0.00000000000E+00 0. -1.
         -2    1    6    6    0  503 -0.22948293515E+03 -0.20100236373E+03  0.30902623230E+03  0.43423677873E+03  0.00000000000E+00 0.  1.
<mgrwt>
<rscale>  0 0.24383493E+04</rscale>
<asrwt>0</asrwt>
<pdfrwt beam="1">  1        2 0.47596156E+00 0.24383493E+04</pdfrwt>
<pdfrwt beam="2">  1       -1 0.73915113E-01 0.24383493E+04</pdfrwt>
<totfact> 0.28556151E+00</totfact>
</mgrwt>
</event>
<event>
12    6  0.1494052E-007  0.1529472E+04  0.7818608E-02  0.8865088E-01
         -1   -1    0    0    0  501 -0.00000000000E+00  0.00000000000E+00  0.15177096022E+03  0.15177096022E+03  0.00000000000E+00 0.  1.
          2   -1    0    0  501    0  0.00000000000E+00 -0.00000000000E+00 -0.38533124941E+04  0.38533124941E+04  0.00000000000E+00 0. -1.
         24    2    1    2    0    0  0.38197934498E+03 -0.31352203359E+03 -0.12715071008E+04  0.13666168204E+04  0.81895915472E+02 0.  0.
        254    2    1    2    0    0 -0.38197934498E+03  0.31352203359E+03 -0.24300344331E+04  0.26384666339E+04  0.90124055977E+03 0.  0.
         23    2    4    4    0    0 -0.27972004869E+03  0.61883215098E+03 -0.14825924603E+04  0.16334464907E+04  0.94183320343E+02 0.  0.
         23    2    4    4    0    0 -0.10225929629E+03 -0.30531011739E+03 -0.94744197281E+03  0.10050201432E+04  0.93530556459E+02 0.  0.
          4    1    3    3  502    0  0.33032638982E+03 -0.25347160344E+03 -0.11326585260E+04  0.12067637358E+04  0.00000000000E+00 0. -1.
         -3    1    3    3    0  502  0.51652955160E+02 -0.60050430151E+02 -0.13884857481E+03  0.15985308463E+03  0.00000000000E+00 0.  1.
         11    1    5    5    0    0 -0.97178631297E+02  0.32746523839E+03 -0.75900228138E+03  0.83232303337E+03  0.00000000000E+00 0.  1.
        -11    1    5    5    0    0 -0.18254141739E+03  0.29136691259E+03 -0.72359017889E+03  0.80112345728E+03  0.00000000000E+00 0. -1.
          3    1    6    6  503    0  0.83464405369E+01 -0.11138506918E+03 -0.33768312074E+03  0.35567708211E+03  0.00000000000E+00 0. -1.
         -3    1    6    6    0  503 -0.11060573683E+03 -0.19392504821E+03 -0.60975885207E+03  0.64934306112E+03  0.00000000000E+00 0.  1.
<mgrwt>
<rscale>  0 0.15294717E+04</rscale>
<asrwt>0</asrwt>
<pdfrwt beam="1">  1        2 0.59281736E+00 0.15294717E+04</pdfrwt>
<pdfrwt beam="2">  1       -1 0.23349376E-01 0.15294717E+04</pdfrwt>
<totfact> 0.78784040E+00</totfact>
</mgrwt>
</event>
<event>
12    6  0.1494052E-007  0.1460196E+04  0.7818608E-02  0.8911362E-01
         -1   -1    0    0    0  501 -0.00000000000E+00  0.00000000000E+00  0.49567605406E+03  0.49567605406E+03  0.00000000000E+00 0.  1.
          2   -1    0    0  501    0  0.00000000000E+00 -0.00000000000E+00 -0.10753865816E+04  0.10753865816E+04  0.00000000000E+00 0. -1.
         24    2    1    2    0    0  0.37751937997E+03  0.72770382542E+01 -0.43632171931E+03  0.58278002638E+03  0.81743983618E+02 0.  0.
        254    2    1    2    0    0 -0.37751937997E+03 -0.72770382542E+01 -0.14338880823E+03  0.98828260928E+03  0.90198022592E+03 0.  0.
         23    2    4    4    0    0 -0.63538285174E+03 -0.14698338273E+03 -0.20154323497E+02  0.65976266951E+03  0.97801330495E+02 0.  0.
         23    2    4    4    0    0  0.25786347177E+03  0.13970634448E+03 -0.12323448474E+03  0.32851993977E+03  0.82019386966E+02 0.  0.
          2    1    3    3  502    0  0.33474564220E+03  0.18609399137E+01 -0.41903424595E+03  0.53632807809E+03  0.00000000000E+00 0. -1.
         -1    1    3    3    0  502  0.42773737775E+02  0.54160983405E+01 -0.17287473365E+02  0.46451948288E+02  0.00000000000E+00 0.  1.
         11    1    5    5    0    0 -0.60870387327E+03 -0.13571252066E+03 -0.39556353555E+02  0.62490239134E+03  0.00000000000E+00 0.  1.
        -11    1    5    5    0    0 -0.26678978467E+02 -0.11270862067E+02  0.19402030057E+02  0.34860278171E+02  0.00000000000E+00 0. -1.
          1    1    6    6  503    0  0.17805806659E+03  0.11303374903E+03 -0.12344161032E+03  0.24437498779E+03  0.00000000000E+00 0. -1.
         -1    1    6    6    0  503  0.79805405172E+02  0.26672595448E+02  0.20712558052E+00  0.84144951980E+02  0.00000000000E+00 0.  1.
<mgrwt>
<rscale>  0 0.14601964E+04</rscale>
<asrwt>0</asrwt>
<pdfrwt beam="1">  1        2 0.16544409E+00 0.14601964E+04</pdfrwt>
<pdfrwt beam="2">  1       -1 0.76257855E-01 0.14601964E+04</pdfrwt>
<totfact> 0.43073293E+01</totfact>
</mgrwt>
</event>
<event>
12    6  0.1494052E-007  0.1287410E+04  0.7818608E-02  0.9039609E-01
          2   -1    0    0  501    0  0.00000000000E+00  0.00000000000E+00  0.18039627302E+04  0.18039627302E+04  0.00000000000E+00 0. -1.
         -1   -1    0    0    0  501 -0.00000000000E+00 -0.00000000000E+00 -0.22969207707E+03  0.22969207707E+03  0.00000000000E+00 0.  1.
         24    2    1    2    0    0 -0.22351078292E+02  0.16129623165E+03 -0.29065700577E+02  0.18336931984E+03  0.79141945029E+02 0.  0.
        254    2    1    2    0    0  0.22351078292E+02 -0.16129623165E+03  0.16033363537E+04  0.18502854874E+04  0.90903953535E+03 0.  0.
         23    2    4    4    0    0  0.19387464459E+03 -0.48259929842E+03  0.74899281029E+03  0.91624463296E+03  0.89579779546E+02 0.  0.
         23    2    4    4    0    0 -0.17152356630E+03  0.32130306677E+03  0.85434354341E+03  0.93404085447E+03  0.99365150514E+02 0.  0.
          4    1    3    3  502    0  0.22502523638E+02  0.20373696936E+02 -0.17477917067E+02  0.35027541762E+02  0.00000000000E+00 0. -1.
         -3    1    3    3    0  502 -0.44853601930E+02  0.14092253471E+03 -0.11587783511E+02  0.14834177808E+03  0.00000000000E+00 0.  1.
         11    1    5    5    0    0  0.15273560024E+03 -0.28522983696E+03  0.50465204052E+03  0.59946468243E+03  0.00000000000E+00 0. -1.
        -11    1    5    5    0    0  0.41139044355E+02 -0.19736946146E+03  0.24434076977E+03  0.31677995053E+03  0.00000000000E+00 0.  1.
          4    1    6    6  503    0 -0.40804092415E+02  0.66968606399E+02  0.98456235746E+02  0.12587056271E+03  0.00000000000E+00 0. -1.
         -4    1    6    6    0  503 -0.13071947389E+03  0.25433446037E+03  0.75588730766E+03  0.80817029175E+03  0.00000000000E+00 0.  1.
<mgrwt>
<rscale>  0 0.12874097E+04</rscale>
<asrwt>0</asrwt>
<pdfrwt beam="1">  1        2 0.27753272E+00 0.12874097E+04</pdfrwt>
<pdfrwt beam="2">  1       -1 0.35337244E-01 0.12874097E+04</pdfrwt>
<totfact> 0.73192404E+01</totfact>
</mgrwt>
</event>
<event>
12    6  0.1494052E-007  0.1137239E+04  0.7818608E-02  0.9169638E-01
          2   -1    0    0  501    0  0.00000000000E+00  0.00000000000E+00  0.13250724872E+04  0.13250724872E+04  0.00000000000E+00 0. -1.
         -1   -1    0    0    0  501 -0.00000000000E+00 -0.00000000000E+00 -0.24400782318E+03  0.24400782318E+03  0.00000000000E+00 0.  1.
         24    2    1    2    0    0 -0.16555212470E+03  0.73211504794E+02  0.36262426903E+03  0.41296636564E+03  0.79230222980E+02 0.  0.
        254    2    1    2    0    0  0.16555212470E+03 -0.73211504794E+02  0.71844039501E+03  0.11561139448E+04  0.88751080087E+03 0.  0.
         23    2    4    4    0    0  0.26438497296E+03 -0.38291528219E+02  0.89062162317E+03  0.93435357423E+03  0.91891626154E+02 0.  0.
         23    2    4    4    0    0 -0.98832848264E+02 -0.34919976575E+02 -0.17218122817E+03  0.22176037052E+03  0.92433489290E+02 0.  0.
          2    1    3    3  502    0 -0.27287837713E+02 -0.36211666275E+01  0.15714963380E+02  0.31696987378E+02  0.00000000000E+00 0. -1.
         -1    1    3    3    0  502 -0.13826428699E+03  0.76832671422E+02  0.34690930565E+03  0.38126937826E+03  0.00000000000E+00 0.  1.
         11    1    5    5    0    0  0.25122256525E+03 -0.36014206435E+02  0.88347292141E+03  0.91920302612E+03  0.00000000000E+00 0. -1.
        -11    1    5    5    0    0  0.13162407711E+02 -0.22773217843E+01  0.71487017571E+01  0.15150548111E+02  0.00000000000E+00 0.  1.
          3    1    6    6  503    0 -0.89030638869E+02 -0.52518185446E+02 -0.17307940723E+03  0.20159636819E+03  0.00000000000E+00 0. -1.
         -3    1    6    6    0  503 -0.98022093948E+01  0.17598208871E+02  0.89817906580E+00  0.20164002334E+02  0.00000000000E+00 0.  1.
<mgrwt>
<rscale>  0 0.11372389E+04</rscale>
<asrwt>0</asrwt>
<pdfrwt beam="1">  1        2 0.20385730E+00 0.11372389E+04</pdfrwt>
<pdfrwt beam="2">  1       -1 0.37539666E-01 0.11372389E+04</pdfrwt>
<totfact> 0.12331552E+02</totfact>
</mgrwt>
</event>
<event>
12    6  0.1494052E-007  0.1720944E+04  0.7818608E-02  0.8749509E-01
          2   -1    0    0  501    0  0.00000000000E+00  0.00000000000E+00  0.25757963509E+04  0.25757963509E+04  0.00000000000E+00 0. -1.
         -1   -1    0    0    0  501 -0.00000000000E+00 -0.00000000000E+00 -0.28744979801E+03  0.28744979801E+03  0.00000000000E+00 0.  1.
         24    2    1    2    0    0  0.25344009725E+03 -0.34583084880E+03  0.15706056026E+04  0.16303872987E+04  0.86775146358E+02 0.  0.
        254    2    1    2    0    0 -0.25344009725E+03  0.34583084880E+03  0.71774095027E+03  0.12328588502E+04  0.90606733408E+03 0.  0.
         23    2    4    4    0    0 -0.18155160870E+03 -0.18546463535E+03  0.62311303224E+03  0.68103166858E+03  0.90422149225E+02 0.  0.
         23    2    4    4    0    0 -0.71888488541E+02  0.53129548415E+03  0.94627918029E+02  0.55182718159E+03  0.90088563175E+02 0.  0.
          2    1    3    3  502    0  0.33105046523E+02 -0.12973203312E+02  0.18700420048E+03  0.19035445649E+03  0.00000000000E+00 0. -1.
         -1    1    3    3    0  502  0.22033505072E+03 -0.33285764548E+03  0.13836014021E+04  0.14400328422E+04  0.00000000000E+00 0.  1.
         11    1    5    5    0    0 -0.13716823816E+03 -0.17167231819E+03  0.56747999490E+03  0.60853927975E+03  0.00000000000E+00 0. -1.
        -11    1    5    5    0    0 -0.44383370548E+02 -0.13792317163E+02  0.55633037340E+02  0.72492388825E+02  0.00000000000E+00 0.  1.
          2    1    6    6  503    0 -0.93554482430E+02  0.43627119637E+03  0.78027621788E+02  0.45296060284E+03  0.00000000000E+00 0. -1.
         -2    1    6    6    0  503  0.21665993889E+02  0.95024287778E+02  0.16600296241E+02  0.98866578752E+02  0.00000000000E+00 0.  1.
<mgrwt>
<rscale>  0 0.17209441E+04</rscale>
<asrwt>0</asrwt>
<pdfrwt beam="1">  1        2 0.39627635E+00 0.17209441E+04</pdfrwt>
<pdfrwt beam="2">  1       -1 0.44223048E-01 0.17209441E+04</pdfrwt>
<totfact> 0.17241210E+01</totfact>
</mgrwt>
</event>
<event>
12    6  0.1829473E-007  0.2403425E+04  0.7818608E-02  0.8438222E-01
          2   -1    0    0  501    0  0.00000000000E+00  0.00000000000E+00  0.19765466632E+04  0.19765466632E+04  0.00000000000E+00 0. -1.
         -1   -1    0    0    0  501 -0.00000000000E+00 -0.00000000000E+00 -0.73062411933E+03  0.73062411933E+03  0.00000000000E+00 0.  1.
         24    2    1    2    0    0  0.91116424309E+03 -0.41663164133E+03  0.40782361328E+03  0.10847173830E+04  0.80557426472E+02 0.  0.
        254    2    1    2    0    0 -0.91116424309E+03  0.41663164133E+03  0.83809893058E+03  0.16224533995E+04  0.96236324420E+03 0.  0.
         23    2    4    4    0    0 -0.10770026150E+03  0.28542975600E+03  0.72964901847E+03  0.79602652685E+03  0.90559645297E+02 0.  0.
         23    2    4    4    0    0 -0.80346398159E+03  0.13120188533E+03  0.10844991211E+03  0.82642687269E+03  0.91933062820E+02 0.  0.
          4    1    3    3  502    0  0.43156596286E+02 -0.37386835210E+02  0.33480156506E+02  0.66190544110E+02  0.00000000000E+00 0. -1.
         -3    1    3    3    0  502  0.86800764680E+03 -0.37924480612E+03  0.37434345677E+03  0.10185268389E+04  0.00000000000E+00 0.  1.
         11    1    5    5    0    0  0.14873298323E+02  0.55062206764E+02  0.11919121886E+03  0.13213481097E+03  0.00000000000E+00 0.  1.
        -11    1    5    5    0    0 -0.12257355982E+03  0.23036754923E+03  0.61045779961E+03  0.66389171588E+03  0.00000000000E+00 0. -1.
          1    1    6    6  503    0 -0.79258168669E+03  0.12526506109E+03  0.94819301612E+02  0.80800233017E+03  0.00000000000E+00 0. -1.
         -1    1    6    6    0  503 -0.10882294898E+02  0.59368242451E+01  0.13630610497E+02  0.18424542515E+02  0.00000000000E+00 0.  1.
<mgrwt>
<rscale>  0 0.24034248E+04</rscale>
<asrwt>0</asrwt>
<pdfrwt beam="1">  1        2 0.30408410E+00 0.24034248E+04</pdfrwt>
<pdfrwt beam="2">  1       -1 0.11240371E+00 0.24034248E+04</pdfrwt>
<totfact> 0.51062208E+00</totfact>
</mgrwt>
</event>
<event>
12    6  0.1494052E-007  0.1074972E+04  0.7818608E-02  0.9229935E-01
         -1   -1    0    0    0  501 -0.00000000000E+00  0.00000000000E+00  0.13684270722E+03  0.13684270722E+03  0.00000000000E+00 0.  1.
          2   -1    0    0  501    0  0.00000000000E+00 -0.00000000000E+00 -0.21111172502E+04  0.21111172502E+04  0.00000000000E+00 0. -1.
         24    2    1    2    0    0 -0.69667458206E+02 -0.73232905876E+02 -0.43595926813E+03  0.45501022311E+03  0.82202228884E+02 0.  0.
        254    2    1    2    0    0  0.69667458206E+02  0.73232905876E+02 -0.15383152748E+04  0.17929497343E+04  0.91544429196E+03 0.  0.
         23    2    4    4    0    0 -0.20266858848E+03  0.12235825152E+03 -0.14723667253E+04  0.14941185041E+04  0.92088176281E+02 0.  0.
         23    2    4    4    0    0  0.27233604668E+03 -0.49125345642E+02 -0.65948549534E+02  0.29883123014E+03  0.91491371266E+02 0.  0.
          2    1    3    3  502    0 -0.32561082291E+02 -0.50748036886E+02 -0.37708861949E+03  0.38187879527E+03  0.00000000000E+00 0. -1.
         -1    1    3    3    0  502 -0.37106375915E+02 -0.22484868990E+02 -0.58870648634E+02  0.73131427838E+02  0.00000000000E+00 0.  1.
         11    1    5    5    0    0 -0.23025789664E+01  0.13525828541E+01  0.54365002985E+00  0.27252349676E+01  0.00000000000E+00 0. -1.
        -11    1    5    5    0    0 -0.20036600951E+03  0.12100566866E+03 -0.14729103753E+04  0.14913932692E+04  0.00000000000E+00 0.  1.
          4    1    6    6  503    0  0.21860245157E+02  0.12668547796E+02  0.13815294626E+02  0.28796263424E+02  0.00000000000E+00 0. -1.
         -4    1    6    6    0  503  0.25047580153E+03 -0.61793893437E+02 -0.79763844160E+02  0.27003496672E+03  0.00000000000E+00 0.  1.
<mgrwt>
<rscale>  0 0.10749716E+04</rscale>
<asrwt>0</asrwt>
<pdfrwt beam="1">  1        2 0.32478723E+00 0.10749716E+04</pdfrwt>
<pdfrwt beam="2">  1       -1 0.21052727E-01 0.10749716E+04</pdfrwt>
<totfact> 0.12356957E+02</totfact>
</mgrwt>
</event>
<event>
12    6  0.1494052E-007  0.1887996E+04  0.7818608E-02  0.8660855E-01
          2   -1    0    0  501    0  0.00000000000E+00  0.00000000000E+00  0.25164021937E+04  0.25164021937E+04  0.00000000000E+00 0. -1.
         -1   -1    0    0    0  501 -0.00000000000E+00 -0.00000000000E+00 -0.35412962095E+03  0.35412962095E+03  0.00000000000E+00 0.  1.
         24    2    1    2    0    0 -0.23792158005E+03 -0.56042443074E+03  0.14405434895E+04  0.15659226532E+04  0.79158006951E+02 0.  0.
        254    2    1    2    0    0  0.23792158005E+03  0.56042443074E+03  0.72172908331E+03  0.13046091614E+04  0.90023884251E+03 0.  0.
         23    2    4    4    0    0 -0.15451048762E+03  0.28165375997E+03  0.74178832585E+03  0.81361538761E+03  0.92291642638E+02 0.  0.
         23    2    4    4    0    0  0.39243206767E+03  0.27877067078E+03 -0.20059242538E+02  0.49099377382E+03  0.94638776939E+02 0.  0.
          4    1    3    3  502    0 -0.15183928070E+03 -0.31883711690E+03  0.92475880038E+03  0.98989449597E+03  0.00000000000E+00 0. -1.
         -3    1    3    3    0  502 -0.86082299346E+02 -0.24158731384E+03  0.51578468910E+03  0.57602815728E+03  0.00000000000E+00 0.  1.
         11    1    5    5    0    0 -0.94206097152E+02  0.20173410718E+03  0.40384208261E+03  0.46115058975E+03  0.00000000000E+00 0. -1.
        -11    1    5    5    0    0 -0.60304390469E+02  0.79919652790E+02  0.33794624323E+03  0.35246479785E+03  0.00000000000E+00 0.  1.
          1    1    6    6  503    0  0.38413114821E+03  0.28040420217E+03 -0.72495925980E+01  0.47564252566E+03  0.00000000000E+00 0. -1.
         -1    1    6    6    0  503  0.83009194591E+01 -0.16335313932E+01 -0.12809649940E+02  0.15351248166E+02  0.00000000000E+00 0.  1.
<mgrwt>
<rscale>  0 0.18879964E+04</rscale>
<asrwt>0</asrwt>
<pdfrwt beam="1">  1        2 0.38713879E+00 0.18879964E+04</pdfrwt>
<pdfrwt beam="2">  1       -1 0.54481482E-01 0.18879964E+04</pdfrwt>
<totfact> 0.12380777E+01</totfact>
</mgrwt>
</event>
<event>
12    6  0.1494052E-007  0.4040570E+04  0.7818608E-02  0.7996412E-01
          2   -1    0    0  501    0  0.00000000000E+00  0.00000000000E+00  0.33491442572E+04  0.33491442572E+04  0.00000000000E+00 0. -1.
         -1   -1    0    0    0  501 -0.00000000000E+00 -0.00000000000E+00 -0.12186847299E+04  0.12186847299E+04  0.00000000000E+00 0.  1.
         24    2    1    2    0    0  0.27918935152E+03  0.14617572070E+04 -0.36078065813E+03  0.15334153779E+04  0.80741637129E+02 0.  0.
        254    2    1    2    0    0 -0.27918935152E+03 -0.14617572070E+04  0.24912401854E+04  0.30344136091E+04  0.88696531164E+03 0.  0.
         23    2    4    4    0    0  0.30520436557E+03 -0.53012091417E+03  0.10568506566E+04  0.12246313423E+04  0.92793995750E+02 0.  0.
         23    2    4    4    0    0 -0.58439371709E+03 -0.93163629279E+03  0.14343895287E+04  0.18097822669E+04  0.91522318182E+02 0.  0.
          2    1    3    3  502    0  0.28703119138E+02  0.13062461973E+03 -0.56366979264E+02  0.14513406450E+03  0.00000000000E+00 0. -1.
         -1    1    3    3    0  502  0.25048623238E+03  0.13311325872E+04 -0.30441367887E+03  0.13882813134E+04  0.00000000000E+00 0.  1.
         11    1    5    5    0    0  0.53488215064E+02 -0.82865578695E+02  0.11081436622E+03  0.14834930753E+03  0.00000000000E+00 0. -1.
        -11    1    5    5    0    0  0.25171615050E+03 -0.44725533547E+03  0.94603629040E+03  0.10762820347E+04  0.00000000000E+00 0.  1.
          4    1    6    6  503    0 -0.32633297113E+03 -0.45743121288E+03  0.78281075523E+03  0.96360220064E+03  0.00000000000E+00 0. -1.
         -4    1    6    6    0  503 -0.25806074596E+03 -0.47420507991E+03  0.65157877351E+03  0.84618006624E+03  0.00000000000E+00 0.  1.
<mgrwt>
<rscale>  0 0.40405697E+04</rscale>
<asrwt>0</asrwt>
<pdfrwt beam="1">  1        2 0.51525296E+00 0.40405697E+04</pdfrwt>
<pdfrwt beam="2">  1       -1 0.18748996E+00 0.40405697E+04</pdfrwt>
<totfact> 0.16934447E-01</totfact>
</mgrwt>
</event>
<event>
12    6  0.1494052E-007  0.2883024E+04  0.7818608E-02  0.8277946E-01
          2   -1    0    0  501    0  0.00000000000E+00  0.00000000000E+00  0.20622031281E+04  0.20622031281E+04  0.00000000000E+00 0. -1.
         -1   -1    0    0    0  501 -0.00000000000E+00 -0.00000000000E+00 -0.10076392872E+04  0.10076392872E+04  0.00000000000E+00 0.  1.
         24    2    1    2    0    0 -0.24622098481E+03  0.30542948013E+03 -0.83711058870E+03  0.92825389852E+03  0.83601565258E+02 0.  0.
        254    2    1    2    0    0  0.24622098481E+03 -0.30542948013E+03  0.18916744296E+04  0.21415885168E+04  0.92415219909E+03 0.  0.
         23    2    4    4    0    0  0.51465315869E+03 -0.29022200329E+01  0.66000804915E+03  0.84214913123E+03  0.93425037641E+02 0.  0.
         23    2    4    4    0    0 -0.26843217388E+03 -0.30252726010E+03  0.12316663805E+04  0.12994393856E+04  0.89230426512E+02 0.  0.
          4    1    3    3  502    0 -0.63770657832E+02  0.52057187786E+02 -0.11399951491E+03  0.14061485341E+03  0.00000000000E+00 0. -1.
         -3    1    3    3    0  502 -0.18245032698E+03  0.25337229234E+03 -0.72311107379E+03  0.78763904511E+03  0.00000000000E+00 0.  1.
         11    1    5    5    0    0  0.19894653413E+03  0.16391644641E+02  0.32506460730E+03  0.38146481932E+03  0.00000000000E+00 0.  1.
        -11    1    5    5    0    0  0.31570662456E+03 -0.19293864674E+02  0.33494344184E+03  0.46068431191E+03  0.00000000000E+00 0. -1.
          3    1    6    6  503    0 -0.51642679203E+02 -0.60710648754E+02  0.37271070875E+03  0.38113779871E+03  0.00000000000E+00 0. -1.
         -3    1    6    6    0  503 -0.21678949468E+03 -0.24181661134E+03  0.85895567172E+03  0.91830158690E+03  0.00000000000E+00 0.  1.
<mgrwt>
<rscale>  0 0.28830240E+04</rscale>
<asrwt>0</asrwt>
<pdfrwt beam="1">  1        2 0.31726202E+00 0.28830240E+04</pdfrwt>
<pdfrwt beam="2">  1       -1 0.15502143E+00 0.28830240E+04</pdfrwt>
<totfact> 0.19344399E+00</totfact>
</mgrwt>
</event>
<event>
12    6  0.1494052E-007  0.2830982E+04  0.7818608E-02  0.8293714E-01
          2   -1    0    0  501    0  0.00000000000E+00  0.00000000000E+00  0.20246632360E+04  0.20246632360E+04  0.00000000000E+00 0. -1.
         -1   -1    0    0    0  501 -0.00000000000E+00 -0.00000000000E+00 -0.98960431300E+03  0.98960431300E+03  0.00000000000E+00 0.  1.
         24    2    1    2    0    0  0.11736598189E+04  0.17161661500E+03 -0.21329574654E+02  0.11891405827E+04  0.81674607839E+02 0.  0.
        254    2    1    2    0    0 -0.11736598189E+04 -0.17161661500E+03  0.10563884977E+04  0.18251269663E+04  0.89900064068E+03 0.  0.
         23    2    4    4    0    0 -0.84704866663E+03  0.56127253289E+02  0.20086034880E+03  0.87711924829E+03  0.91387000127E+02 0.  0.
         23    2    4    4    0    0 -0.32661115232E+03 -0.22774386829E+03  0.85552814889E+03  0.94800771802E+03  0.90819081320E+02 0.  0.
          2    1    3    3  502    0  0.59576397746E+03  0.10318804241E+03 -0.48479007192E+02  0.60657456514E+03  0.00000000000E+00 0. -1.
         -1    1    3    3    0  502  0.57789584149E+03  0.68428572588E+02  0.27149432538E+02  0.58256601758E+03  0.00000000000E+00 0.  1.
         11    1    5    5    0    0 -0.33420162524E+03  0.55436454884E+02  0.11077533482E+03  0.35641983902E+03  0.00000000000E+00 0. -1.
        -11    1    5    5    0    0 -0.51284704139E+03  0.69079840591E+00  0.90085013977E+02  0.52069940926E+03  0.00000000000E+00 0.  1.
          2    1    6    6  503    0  0.18715179852E+01 -0.19082897460E+02  0.44075910630E+02  0.48066053020E+02  0.00000000000E+00 0. -1.
         -2    1    6    6    0  503 -0.32848267030E+03 -0.20866097083E+03  0.81145223826E+03  0.89994166500E+03  0.00000000000E+00 0.  1.
<mgrwt>
<rscale>  0 0.28309825E+04</rscale>
<asrwt>0</asrwt>
<pdfrwt beam="1">  1        2 0.31148665E+00 0.28309825E+04</pdfrwt>
<pdfrwt beam="2">  1       -1 0.15224682E+00 0.28309825E+04</pdfrwt>
<totfact> 0.21418748E+00</totfact>
</mgrwt>
</event>
<event>
12    6  0.1494052E-007  0.2166772E+04  0.7818608E-02  0.8532387E-01
         -1   -1    0    0    0  501 -0.00000000000E+00  0.00000000000E+00  0.20787944674E+04  0.20787944674E+04  0.00000000000E+00 0.  1.
          2   -1    0    0  501    0  0.00000000000E+00 -0.00000000000E+00 -0.56461817471E+03  0.56461817471E+03  0.00000000000E+00 0. -1.
         24    2    1    2    0    0  0.87377392076E+03 -0.10223473912E+03  0.53771939529E+03  0.10341001387E+04  0.79297807258E+02 0.  0.
        254    2    1    2    0    0 -0.87377392076E+03  0.10223473912E+03  0.97645689742E+03  0.16093125035E+04  0.92870116550E+03 0.  0.
         23    2    4    4    0    0 -0.66502173823E+03  0.70103196445E+02  0.11416314762E+04  0.13258802022E+04  0.86414770277E+02 0.  0.
         23    2    4    4    0    0 -0.20875218253E+03  0.32131542678E+02 -0.16517457882E+03  0.28343230128E+03  0.91876646529E+02 0.  0.
          2    1    3    3  502    0  0.31966676738E+03 -0.11678342300E+02  0.16235277101E+03  0.35872224366E+03  0.00000000000E+00 0. -1.
         -1    1    3    3    0  502  0.55410715338E+03 -0.90556396823E+02  0.37536662428E+03  0.67537789500E+03  0.00000000000E+00 0.  1.
         11    1    5    5    0    0 -0.15774509762E+03  0.48047529679E+02  0.24182258013E+03  0.29269479188E+03  0.00000000000E+00 0. -1.
        -11    1    5    5    0    0 -0.50727664061E+03  0.22055666766E+02  0.89980889611E+03  0.10331854103E+04  0.00000000000E+00 0.  1.
          1    1    6    6  503    0 -0.10721717110E+02 -0.20393456534E+02 -0.30620807285E+02  0.38320779298E+02  0.00000000000E+00 0. -1.
         -1    1    6    6    0  503 -0.19803046542E+03  0.52524999212E+02 -0.13455377153E+03  0.24511152198E+03  0.00000000000E+00 0.  1.
<mgrwt>
<rscale>  0 0.21667719E+04</rscale>
<asrwt>0</asrwt>
<pdfrwt beam="1">  1        2 0.86864336E-01 0.21667719E+04</pdfrwt>
<pdfrwt beam="2">  1       -1 0.31981453E+00 0.21667719E+04</pdfrwt>
<totfact> 0.13713839E+00</totfact>
</mgrwt>
</event>
<event>
12    6  0.1494052E-007  0.1199960E+04  0.7818608E-02  0.9112892E-01
         -1   -1    0    0    0  501 -0.00000000000E+00  0.00000000000E+00  0.21596475316E+03  0.21596475316E+03  0.00000000000E+00 0.  1.
          2   -1    0    0  501    0  0.00000000000E+00 -0.00000000000E+00 -0.16668269644E+04  0.16668269644E+04  0.00000000000E+00 0. -1.
         24    2    1    2    0    0 -0.29674652487E+02  0.11367777897E+03 -0.67378455707E+03  0.68851945504E+03  0.79184519909E+02 0.  0.
        254    2    1    2    0    0  0.29674652487E+02 -0.11367777897E+03 -0.77707765415E+03  0.11942722625E+04  0.89924042055E+03 0.  0.
         23    2    4    4    0    0  0.40996608820E+03 -0.69851021430E+02 -0.14584957996E+03  0.44999774309E+03  0.90964334461E+02 0.  0.
         23    2    4    4    0    0 -0.38029143571E+03 -0.43826757537E+02 -0.63122807419E+03  0.74427451941E+03  0.94621973373E+02 0.  0.
          4    1    3    3  502    0 -0.50795636384E+02  0.89083434439E+02 -0.58673684374E+03  0.59563090817E+03  0.00000000000E+00 0. -1.
         -3    1    3    3    0  502  0.21120983897E+02  0.24594344527E+02 -0.87047713323E+02  0.92888546863E+02  0.00000000000E+00 0.  1.
         11    1    5    5    0    0  0.40592259314E+02 -0.47324835358E+01  0.12697492974E+02  0.42794324909E+02  0.00000000000E+00 0. -1.
        -11    1    5    5    0    0  0.36937382888E+03 -0.65118537894E+02 -0.15854707293E+03  0.40720341818E+03  0.00000000000E+00 0.  1.
          1    1    6    6  503    0 -0.67729122031E+02 -0.44156776832E+02 -0.11008810875E+03  0.13658860348E+03  0.00000000000E+00 0. -1.
         -1    1    6    6    0  503 -0.31256231368E+03  0.33001929466E+00 -0.52113996544E+03  0.60768591593E+03  0.00000000000E+00 0.  1.
<mgrwt>
<rscale>  0 0.11999598E+04</rscale>
<asrwt>0</asrwt>
<pdfrwt beam="1">  1        2 0.25643490E+00 0.11999598E+04</pdfrwt>
<pdfrwt beam="2">  1       -1 0.33225349E-01 0.11999598E+04</pdfrwt>
<totfact> 0.97957535E+01</totfact>
</mgrwt>
</event>
<event>
12    6  0.1494052E-007  0.1420445E+04  0.7818608E-02  0.8939151E-01
          2   -1    0    0  501    0  0.00000000000E+00  0.00000000000E+00  0.27476016523E+04  0.27476016523E+04  0.00000000000E+00 0. -1.
         -1   -1    0    0    0  501 -0.00000000000E+00 -0.00000000000E+00 -0.18358414597E+03  0.18358414597E+03  0.00000000000E+00 0.  1.
         24    2    1    2    0    0 -0.42092158201E+03 -0.12733009445E+02  0.83513832110E+03  0.93869614248E+03  0.79732833836E+02 0.  0.
        254    2    1    2    0    0  0.42092158201E+03  0.12733009445E+02  0.17288791852E+04  0.19924896558E+04  0.89646789326E+03 0.  0.
         23    2    4    4    0    0 -0.11772702797E+02  0.10565846428E+03 -0.56517146982E+02  0.15091397879E+03  0.90986446721E+02 0.  0.
         23    2    4    4    0    0  0.43269428481E+03 -0.92925454837E+02  0.17853963322E+04  0.18415756770E+04  0.88889970286E+02 0.  0.
          2    1    3    3  502    0 -0.17982382019E+03 -0.40274308233E+01  0.44516366589E+03  0.48012864519E+03  0.00000000000E+00 0. -1.
         -1    1    3    3    0  502 -0.24109776183E+03 -0.87055786220E+01  0.38997465521E+03  0.45856749729E+03  0.00000000000E+00 0.  1.
         11    1    5    5    0    0  0.14829602524E+02  0.22963250179E+02 -0.57906302229E+02  0.64034114405E+02  0.00000000000E+00 0.  1.
        -11    1    5    5    0    0 -0.26602305320E+02  0.82695214103E+02  0.13891552472E+01  0.86879864388E+02  0.00000000000E+00 0. -1.
          4    1    6    6  503    0  0.87416845031E+02 -0.52626962132E+02  0.47670281567E+03  0.48750064246E+03  0.00000000000E+00 0. -1.
         -4    1    6    6    0  503  0.34527743978E+03 -0.40298492705E+02  0.13086935166E+04  0.13540750346E+04  0.00000000000E+00 0.  1.
<mgrwt>
<rscale>  0 0.14204451E+04</rscale>
<asrwt>0</asrwt>
<pdfrwt beam="1">  1        2 0.42270792E+00 0.14204451E+04</pdfrwt>
<pdfrwt beam="2">  1       -1 0.28243717E-01 0.14204451E+04</pdfrwt>
<totfact> 0.31397900E+01</totfact>
</mgrwt>
</event>
<event>
12    6  0.1494052E-007  0.1593989E+04  0.7818608E-02  0.8824249E-01
         -1   -1    0    0    0  501 -0.00000000000E+00  0.00000000000E+00  0.28419650644E+03  0.28419650644E+03  0.00000000000E+00 0.  1.
          2   -1    0    0  501    0  0.00000000000E+00 -0.00000000000E+00 -0.22350753098E+04  0.22350753098E+04  0.00000000000E+00 0. -1.
         24    2    1    2    0    0  0.12670704115E+03  0.14305691683E+03 -0.14602375202E+04  0.14746341741E+04  0.75712458056E+02 0.  0.
        254    2    1    2    0    0 -0.12670704115E+03 -0.14305691683E+03 -0.49064128320E+03  0.10446376422E+04  0.90223000334E+03 0.  0.
         23    2    4    4    0    0  0.34094237912E+03  0.11115111251E+03 -0.27905064739E+03  0.46390795922E+03  0.93514999452E+02 0.  0.
         23    2    4    4    0    0 -0.46764942027E+03 -0.25420802935E+03 -0.21159063581E+03  0.58072968295E+03  0.95700914469E+02 0.  0.
          4    1    3    3  502    0  0.87309557142E+02  0.14132311537E+03 -0.11794381346E+04  0.11910791305E+04  0.00000000000E+00 0. -1.
         -3    1    3    3    0  502  0.39397484006E+02  0.17338014620E+01 -0.28079938556E+03  0.28355504359E+03  0.00000000000E+00 0.  1.
         11    1    5    5    0    0  0.37475221566E+02  0.41059339584E+02 -0.67284388710E+02  0.87278007325E+02  0.00000000000E+00 0. -1.
        -11    1    5    5    0    0  0.30346715756E+03  0.70091772928E+02 -0.21176625868E+03  0.37662995189E+03  0.00000000000E+00 0.  1.
          3    1    6    6  503    0 -0.94574151955E+01 -0.21786101839E+02 -0.24050208303E+02  0.33800731574E+02  0.00000000000E+00 0. -1.
         -3    1    6    6    0  503 -0.45819200508E+03 -0.23242192751E+03 -0.18754042751E+03  0.54692895137E+03  0.00000000000E+00 0.  1.
<mgrwt>
<rscale>  0 0.15939895E+04</rscale>
<asrwt>0</asrwt>
<pdfrwt beam="1">  1        2 0.34385774E+00 0.15939895E+04</pdfrwt>
<pdfrwt beam="2">  1       -1 0.43722540E-01 0.15939895E+04</pdfrwt>
<totfact> 0.27884982E+01</totfact>
</mgrwt>
</event>
<event>
12    6  0.1494052E-007  0.2262757E+04  0.7818608E-02  0.8492752E-01
         -1   -1    0    0    0  501 -0.00000000000E+00  0.00000000000E+00  0.61526131714E+03  0.61526131714E+03  0.00000000000E+00 0.  1.
          2   -1    0    0  501    0  0.00000000000E+00 -0.00000000000E+00 -0.20804452493E+04  0.20804452493E+04  0.00000000000E+00 0. -1.
         24    2    1    2    0    0 -0.84881592202E+03 -0.29497991405E+01 -0.11306957739E+04  0.14161562756E+04  0.80799091036E+02 0.  0.
        254    2    1    2    0    0  0.84881592202E+03  0.29497991405E+01 -0.33448815829E+03  0.12795502908E+04  0.89714516546E+03 0.  0.
         23    2    4    4    0    0  0.88388674862E+03 -0.25503205003E+02 -0.54807970759E+03  0.10442765701E+04  0.90642104499E+02 0.  0.
         23    2    4    4    0    0 -0.35070826598E+02  0.28453004143E+02  0.21359154930E+03  0.23527372074E+03  0.87708821769E+02 0.  0.
          2    1    3    3  502    0 -0.10274425452E+03 -0.57702149557E+01 -0.18384930947E+03  0.21068992811E+03  0.00000000000E+00 0. -1.
         -1    1    3    3    0  502 -0.74607166750E+03  0.28204158152E+01 -0.94684646441E+03  0.12054663475E+04  0.00000000000E+00 0.  1.
         11    1    5    5    0    0  0.25565816586E+03 -0.42189556927E+02 -0.18623916410E+03  0.31910199424E+03  0.00000000000E+00 0. -1.
        -11    1    5    5    0    0  0.62822858276E+03  0.16686351924E+02 -0.36184054348E+03  0.72517457584E+03  0.00000000000E+00 0.  1.
          1    1    6    6  503    0 -0.12480871731E+02 -0.13683556502E+01 -0.49920490940E+01  0.13511665719E+02  0.00000000000E+00 0. -1.
         -1    1    6    6    0  503 -0.22589954867E+02  0.29821359794E+02  0.21858359839E+03  0.22176205502E+03  0.00000000000E+00 0.  1.
<mgrwt>
<rscale>  0 0.22627572E+04</rscale>
<asrwt>0</asrwt>
<pdfrwt beam="1">  1        2 0.32006850E+00 0.22627572E+04</pdfrwt>
<pdfrwt beam="2">  1       -1 0.94655588E-01 0.22627572E+04</pdfrwt>
<totfact> 0.67314489E+00</totfact>
</mgrwt>
</event>
<event>
12    6  0.1494052E-007  0.1649282E+04  0.7818608E-02  0.8790831E-01
         -1   -1    0    0    0  501 -0.00000000000E+00  0.00000000000E+00  0.27208931757E+03  0.27208931757E+03  0.00000000000E+00 0.  1.
          2   -1    0    0  501    0  0.00000000000E+00 -0.00000000000E+00 -0.24993004938E+04  0.24993004938E+04  0.00000000000E+00 0. -1.
         24    2    1    2    0    0 -0.40708494033E+03  0.38817382881E+03 -0.10579933780E+04  0.12013747105E+04  0.86914540185E+02 0.  0.
        254    2    1    2    0    0  0.40708494033E+03 -0.38817382881E+03 -0.11692177983E+04  0.15700151008E+04  0.88401362380E+03 0.  0.
         23    2    4    4    0    0  0.37889439397E+03  0.20720661990E+03 -0.43254116749E+03  0.61793085633E+03  0.90835766752E+02 0.  0.
         23    2    4    4    0    0  0.28190546356E+02 -0.59538044870E+03 -0.73667663077E+03  0.95208424450E+03  0.92191999123E+02 0.  0.
          4    1    3    3  502    0 -0.40078203669E+03  0.36842967770E+03 -0.98423890817E+03  0.11247634848E+04  0.00000000000E+00 0. -1.
         -3    1    3    3    0  502 -0.63029036309E+01  0.19744151108E+02 -0.73754469792E+02  0.76611225753E+02  0.00000000000E+00 0.  1.
         11    1    5    5    0    0  0.22642263443E+03  0.17316735558E+03 -0.28253511144E+03  0.40134801808E+03  0.00000000000E+00 0.  1.
        -11    1    5    5    0    0  0.15247175954E+03  0.34039264315E+02 -0.15000605605E+03  0.21658283825E+03  0.00000000000E+00 0. -1.
          1    1    6    6  503    0 -0.27500250740E+02 -0.91879975337E+02 -0.13408402321E+03  0.16485362883E+03  0.00000000000E+00 0. -1.
         -1    1    6    6    0  503  0.55690797096E+02 -0.50350047337E+03 -0.60259260756E+03  0.78723061567E+03  0.00000000000E+00 0.  1.
<mgrwt>
<rscale>  0 0.16492822E+04</rscale>
<asrwt>0</asrwt>
<pdfrwt beam="1">  1        2 0.38450776E+00 0.16492822E+04</pdfrwt>
<pdfrwt beam="2">  1       -1 0.41859896E-01 0.16492822E+04</pdfrwt>
<totfact> 0.21275251E+01</totfact>
</mgrwt>
</event>
<event>
12    6  0.1494052E-007  0.1428944E+04  0.7818608E-02  0.8933130E-01
         -1   -1    0    0    0  501 -0.00000000000E+00  0.00000000000E+00  0.69723623510E+03  0.69723623510E+03  0.00000000000E+00 0.  1.
          2   -1    0    0  501    0  0.00000000000E+00 -0.00000000000E+00 -0.73213389246E+03  0.73213389246E+03  0.00000000000E+00 0. -1.
         24    2    1    2    0    0  0.97144088658E+02  0.29036632901E+03  0.28358042638E+03  0.42485354911E+03  0.79580782736E+02 0.  0.
        254    2    1    2    0    0 -0.97144088658E+02 -0.29036632901E+03 -0.31847808375E+03  0.10045165785E+04  0.90215059030E+03 0.  0.
         23    2    4    4    0    0  0.30150709109E+03  0.75657652006E+02 -0.31799651275E+03  0.45605926214E+03  0.10118133317E+03 0.  0.
         23    2    4    4    0    0 -0.39865117975E+03 -0.36602398101E+03 -0.48157100140E+00  0.54845731631E+03  0.88931873448E+02 0.  0.
          2    1    3    3  502    0  0.65021700232E+02  0.91192898834E+02  0.12801729398E+03  0.17009524937E+03  0.00000000000E+00 0. -1.
         -1    1    3    3    0  502  0.32122388426E+02  0.19917343017E+03  0.15556313240E+03  0.25475829974E+03  0.00000000000E+00 0.  1.
         11    1    5    5    0    0  0.65774611661E+02  0.48714893945E+02 -0.41675928263E+02  0.91849460683E+02  0.00000000000E+00 0. -1.
        -11    1    5    5    0    0  0.23573247943E+03  0.26942758060E+02 -0.27632058449E+03  0.36420980146E+03  0.00000000000E+00 0.  1.
          4    1    6    6  503    0 -0.14489707750E+03 -0.19295266998E+03  0.20860354499E+00  0.24130051686E+03  0.00000000000E+00 0. -1.
         -4    1    6    6    0  503 -0.25375410224E+03 -0.17307131103E+03 -0.69017454640E+00  0.30715679945E+03  0.00000000000E+00 0.  1.
<mgrwt>
<rscale>  0 0.14289441E+04</rscale>
<asrwt>0</asrwt>
<pdfrwt beam="1">  1        2 0.11263598E+00 0.14289441E+04</pdfrwt>
<pdfrwt beam="2">  1       -1 0.10726711E+00 0.14289441E+04</pdfrwt>
<totfact> 0.34767600E+01</totfact>
</mgrwt>
</event>
<event>
12    6  0.1494052E-007  0.1143578E+04  0.7818608E-02  0.9163729E-01
         -1   -1    0    0    0  501 -0.00000000000E+00  0.00000000000E+00  0.75412288050E+03  0.75412288050E+03  0.00000000000E+00 0.  1.
          2   -1    0    0  501    0  0.00000000000E+00 -0.00000000000E+00 -0.43353995749E+03  0.43353995749E+03  0.00000000000E+00 0. -1.
         24    2    1    2    0    0  0.30098290594E+02  0.14227334011E+03  0.20058996925E+03  0.26007375582E+03  0.79084842425E+02 0.  0.
        254    2    1    2    0    0 -0.30098290594E+02 -0.14227334011E+03  0.11999295376E+03  0.92758908217E+03  0.90822661599E+03 0.  0.
         23    2    4    4    0    0 -0.15126425884E+03 -0.16853825061E+02  0.48317432628E+03  0.51447402360E+03  0.89783984953E+02 0.  0.
         23    2    4    4    0    0  0.12116596825E+03 -0.12541951504E+03 -0.36318137252E+03  0.41311505857E+03  0.91389800601E+02 0.  0.
          2    1    3    3  502    0 -0.19689909235E+02  0.56524711953E+02  0.11253836945E+03  0.12746615310E+03  0.00000000000E+00 0. -1.
         -3    1    3    3    0  502  0.49788199830E+02  0.85748628152E+02  0.88051599795E+02  0.13260760272E+03  0.00000000000E+00 0.  1.
         11    1    5    5    0    0 -0.11266191696E+03 -0.51724110327E+02  0.36075155898E+03  0.38145743987E+03  0.00000000000E+00 0.  1.
        -11    1    5    5    0    0 -0.38602341881E+02  0.34870285265E+02  0.12242276730E+03  0.13301658373E+03  0.00000000000E+00 0. -1.
          1    1    6    6  503    0  0.55684514286E+02 -0.33429482332E+02 -0.55718603182E+02  0.85573700170E+02  0.00000000000E+00 0. -1.
         -1    1    6    6    0  503  0.65481453961E+02 -0.91990032712E+02 -0.30746276934E+03  0.32754135840E+03  0.00000000000E+00 0.  1.
<mgrwt>
<rscale>  0 0.11435775E+04</rscale>
<asrwt>0</asrwt>
<pdfrwt beam="1">  1        2 0.66698455E-01 0.11435775E+04</pdfrwt>
<pdfrwt beam="2">  1       -1 0.11601890E+00 0.11435775E+04</pdfrwt>
<totfact> 0.55284395E+01</totfact>
</mgrwt>
</event>
<event>
12    6  0.1494052E-007  0.1681785E+04  0.7818608E-02  0.8771822E-01
          2   -1    0    0  501    0  0.00000000000E+00  0.00000000000E+00  0.87524427810E+03  0.87524427810E+03  0.00000000000E+00 0. -1.
         -1   -1    0    0    0  501 -0.00000000000E+00 -0.00000000000E+00 -0.80788911120E+03  0.80788911120E+03  0.00000000000E+00 0.  1.
         24    2    1    2    0    0  0.11813812716E+03  0.17383784928E+03  0.58717468144E+03  0.62885241910E+03  0.80653850211E+02 0.  0.
        254    2    1    2    0    0 -0.11813812716E+03 -0.17383784928E+03 -0.51981951454E+03  0.10542809702E+04  0.89281567050E+03 0.  0.
         23    2    4    4    0    0  0.25787954630E+03  0.71063550712E+01  0.10726344534E+03  0.29554916627E+03  0.96392438992E+02 0.  0.
         23    2    4    4    0    0 -0.37601767346E+03 -0.18094420435E+03 -0.62708295988E+03  0.75873180393E+03  0.91163676347E+02 0.  0.
          4    1    3    3  502    0  0.69326576761E+02  0.15794750968E+03  0.47911564867E+03  0.50922037946E+03  0.00000000000E+00 0. -1.
         -3    1    3    3    0  502  0.48811550401E+02  0.15890339604E+02  0.10805903277E+03  0.11963203964E+03  0.00000000000E+00 0.  1.
         11    1    5    5    0    0  0.20299176319E+03 -0.31148476914E+02  0.99483200073E+02  0.22819463323E+03  0.00000000000E+00 0.  1.
        -11    1    5    5    0    0  0.54887783105E+02  0.38254831985E+02  0.77802452640E+01  0.67354533038E+02  0.00000000000E+00 0. -1.
          3    1    6    6  503    0 -0.32360784648E+03 -0.12211112863E+03 -0.47675079524E+03  0.58900295993E+03  0.00000000000E+00 0.  1.
         -3    1    6    6    0  503 -0.52409826977E+02 -0.58833075721E+02 -0.15033216463E+03  0.16972884400E+03  0.00000000000E+00 0. -1.
<mgrwt>
<rscale>  0 0.16817851E+04</rscale>
<asrwt>0</asrwt>
<pdfrwt beam="1">  1        2 0.13465297E+00 0.16817851E+04</pdfrwt>
<pdfrwt beam="2">  1       -1 0.12429063E+00 0.16817851E+04</pdfrwt>
<totfact> 0.18822906E+01</totfact>
</mgrwt>
</event>
<event>
12    6  0.1494052E-007  0.1436645E+04  0.7818608E-02  0.8927712E-01
         -1   -1    0    0    0  501 -0.00000000000E+00  0.00000000000E+00  0.18128695689E+04  0.18128695689E+04  0.00000000000E+00 0.  1.
          2   -1    0    0  501    0  0.00000000000E+00 -0.00000000000E+00 -0.28462474747E+03  0.28462474747E+03  0.00000000000E+00 0. -1.
         24    2    1    2    0    0 -0.33685915579E+03  0.14406468933E+03  0.13643792601E+03  0.39925802895E+03  0.81011977378E+02 0.  0.
        254    2    1    2    0    0  0.33685915579E+03 -0.14406468933E+03  0.13918068954E+04  0.16982362874E+04  0.90147175675E+03 0.  0.
         23    2    4    4    0    0 -0.24818912261E+02 -0.37678477501E+03  0.11112779294E+04  0.11769977747E+04  0.88331082413E+02 0.  0.
         23    2    4    4    0    0  0.36167806805E+03  0.23272008568E+03  0.28052896601E+03  0.52123851274E+03  0.89573563105E+02 0.  0.
          4    1    3    3  502    0 -0.17254465687E+03  0.11596934603E+03  0.64225773495E+02  0.21759020615E+03  0.00000000000E+00 0. -1.
         -3    1    3    3    0  502 -0.16431449891E+03  0.28095343302E+02  0.72212152515E+02  0.18166782280E+03  0.00000000000E+00 0.  1.
         11    1    5    5    0    0 -0.11739081794E+00 -0.46669373477E+02  0.24945834526E+03  0.25378634758E+03  0.00000000000E+00 0. -1.
        -11    1    5    5    0    0 -0.24701521443E+02 -0.33011540153E+03  0.86181958418E+03  0.92321142712E+03  0.00000000000E+00 0.  1.
          2    1    6    6  503    0  0.53232906926E+02  0.13305420012E+02  0.67137176336E+02  0.86707421988E+02  0.00000000000E+00 0. -1.
         -2    1    6    6    0  503  0.30844516112E+03  0.21941466567E+03  0.21339178967E+03  0.43453109075E+03  0.00000000000E+00 0.  1.
<mgrwt>
<rscale>  0 0.14366455E+04</rscale>
<asrwt>0</asrwt>
<pdfrwt beam="1">  1        2 0.43788424E-01 0.14366455E+04</pdfrwt>
<pdfrwt beam="2">  1       -1 0.27890300E+00 0.14366455E+04</pdfrwt>
<totfact> 0.58687934E+00</totfact>
</mgrwt>
</event>
<event>
12    6  0.1494052E-007  0.1258964E+04  0.7818608E-02  0.9062756E-01
         -1   -1    0    0    0  501 -0.00000000000E+00  0.00000000000E+00  0.13918868048E+03  0.13918868048E+03  0.00000000000E+00 0.  1.
          2   -1    0    0  501    0  0.00000000000E+00 -0.00000000000E+00 -0.28468356091E+04  0.28468356091E+04  0.00000000000E+00 0. -1.
         24    2    1    2    0    0 -0.30815327345E+03 -0.28567978485E+02 -0.68090023469E+03  0.75215505496E+03  0.79608590998E+02 0.  0.
        254    2    1    2    0    0  0.30815327345E+03  0.28567978485E+02 -0.20267466939E+04  0.22338692346E+04  0.88695830045E+03 0.  0.
         23    2    4    4    0    0  0.23192858780E+02 -0.32087886781E+03 -0.14889654705E+04  0.15261591673E+04  0.92964912170E+02 0.  0.
         23    2    4    4    0    0  0.28496041467E+03  0.34944684629E+03 -0.53778122336E+03  0.70771006733E+03  0.91265321391E+02 0.  0.
          2    1    3    3  502    0 -0.98077644066E+02 -0.20910275366E+02 -0.31010178107E+03  0.32591345247E+03  0.00000000000E+00 0. -1.
         -3    1    3    3    0  502 -0.21007562938E+03 -0.76577031196E+01 -0.37079845363E+03  0.42624160249E+03  0.00000000000E+00 0.  1.
         11    1    5    5    0    0  0.58570271547E+02 -0.22094848733E+03 -0.10463397059E+04  0.10710161020E+04  0.00000000000E+00 0.  1.
        -11    1    5    5    0    0 -0.35377412767E+02 -0.99930380476E+02 -0.44262576465E+03  0.45514306521E+03  0.00000000000E+00 0. -1.
          2    1    6    6  503    0 -0.64143218234E+01  0.80266093562E+01 -0.62990913736E+01  0.12051909987E+02  0.00000000000E+00 0. -1.
         -2    1    6    6    0  503  0.29137473649E+03  0.34142023694E+03 -0.53148213199E+03  0.69565815735E+03  0.00000000000E+00 0.  1.
<mgrwt>
<rscale>  0 0.12589635E+04</rscale>
<asrwt>0</asrwt>
<pdfrwt beam="1">  1        2 0.43797473E+00 0.12589635E+04</pdfrwt>
<pdfrwt beam="2">  1       -1 0.21413642E-01 0.12589635E+04</pdfrwt>
<totfact> 0.44653271E+01</totfact>
</mgrwt>
</event>
<event>
12    6  0.1494052E-007  0.1565103E+04  0.7818608E-02  0.8842278E-01
         -1   -1    0    0    0  501 -0.00000000000E+00  0.00000000000E+00  0.48587756392E+03  0.48587756392E+03  0.00000000000E+00 0.  1.
          2   -1    0    0  501    0  0.00000000000E+00 -0.00000000000E+00 -0.12603735350E+04  0.12603735350E+04  0.00000000000E+00 0. -1.
         24    2    1    2    0    0  0.29699859766E+03 -0.40714908007E+02 -0.74104709648E+03  0.80341295496E+03  0.80347409767E+02 0.  0.
        254    2    1    2    0    0 -0.29699859766E+03  0.40714908007E+02 -0.33448874605E+02  0.94283814396E+03  0.89328554659E+03 0.  0.
         23    2    4    4    0    0 -0.45715779227E+03  0.49147660897E+02  0.30356961183E+03  0.55928676644E+03  0.96116795023E+02 0.  0.
         23    2    4    4    0    0  0.16015919461E+03 -0.84327528902E+01 -0.33701848643E+03  0.38355137752E+03  0.88363567502E+02 0.  0.
          2    1    3    3  502    0  0.11075419211E+03 -0.18051776881E+02 -0.38416636867E+03  0.40022013510E+03  0.00000000000E+00 0. -1.
         -1    1    3    3    0  502  0.18624440555E+03 -0.22663131127E+02 -0.35688072781E+03  0.40319281986E+03  0.00000000000E+00 0.  1.
         11    1    5    5    0    0 -0.18657655052E+03 -0.26795435904E+02  0.11382374401E+03  0.22019230071E+03  0.00000000000E+00 0. -1.
        -11    1    5    5    0    0 -0.27058124174E+03  0.75943096801E+02  0.18974586781E+03  0.33909446573E+03  0.00000000000E+00 0.  1.
          2    1    6    6  503    0  0.11016038592E+03  0.36262562845E+02 -0.20827063073E+03  0.23838401732E+03  0.00000000000E+00 0. -1.
         -2    1    6    6    0  503  0.49998808692E+02 -0.44695315736E+02 -0.12874785570E+03  0.14516736020E+03  0.00000000000E+00 0.  1.
<mgrwt>
<rscale>  0 0.15651035E+04</rscale>
<asrwt>0</asrwt>
<pdfrwt beam="1">  1        2 0.19390362E+00 0.15651035E+04</pdfrwt>
<pdfrwt beam="2">  1       -1 0.74750395E-01 0.15651035E+04</pdfrwt>
<totfact> 0.34422033E+01</totfact>
</mgrwt>
</event>
<event>
12    6  0.1494052E-007  0.1558960E+04  0.7818608E-02  0.8846165E-01
          2   -1    0    0  501    0  0.00000000000E+00  0.00000000000E+00  0.38123917344E+04  0.38123917344E+04  0.00000000000E+00 0. -1.
         -1   -1    0    0    0  501 -0.00000000000E+00 -0.00000000000E+00 -0.15937214120E+03  0.15937214120E+03  0.00000000000E+00 0.  1.
         24    2    1    2    0    0 -0.27548756602E+03  0.47492683436E+02  0.22822933648E+04  0.23009888389E+04  0.86819812002E+02 0.  0.
        254    2    1    2    0    0  0.27548756602E+03 -0.47492683436E+02  0.13707262283E+04  0.16707750366E+04  0.91348228006E+03 0.  0.
         23    2    4    4    0    0  0.55389806486E+03  0.14395628402E+03  0.65845837658E+03  0.87715528410E+03  0.91145382647E+02 0.  0.
         23    2    4    4    0    0 -0.27841049884E+03 -0.19144896746E+03  0.71226785177E+03  0.79361975254E+03  0.91332940177E+02 0.  0.
          4    1    3    3  502    0 -0.62979017076E+02 -0.64818825220E+01  0.80853885449E+03  0.81101384120E+03  0.00000000000E+00 0. -1.
         -3    1    3    3    0  502 -0.21250854894E+03  0.53974565958E+02  0.14737545103E+04  0.14899749977E+04  0.00000000000E+00 0.  1.
         11    1    5    5    0    0  0.14925731403E+03  0.74950117418E+02  0.15827054368E+03  0.23009743781E+03  0.00000000000E+00 0. -1.
        -11    1    5    5    0    0  0.40464075083E+03  0.69006166602E+02  0.50018783290E+03  0.64705784629E+03  0.00000000000E+00 0.  1.
          3    1    6    6  503    0 -0.10365074208E+03 -0.12504612060E+03  0.30728407316E+03  0.34756799367E+03  0.00000000000E+00 0. -1.
         -3    1    6    6    0  503 -0.17475975676E+03 -0.66402846860E+02  0.40498377861E+03  0.44605175887E+03  0.00000000000E+00 0.  1.
<mgrwt>
<rscale>  0 0.15589600E+04</rscale>
<asrwt>0</asrwt>
<pdfrwt beam="1">  1        2 0.58652174E+00 0.15589600E+04</pdfrwt>
<pdfrwt beam="2">  1       -1 0.24518794E-01 0.15589600E+04</pdfrwt>
<totfact> 0.77609151E+00</totfact>
</mgrwt>
</event>
<event>
12    6  0.1494052E-007  0.1352309E+04  0.7818608E-02  0.8989082E-01
         -1   -1    0    0    0  501 -0.00000000000E+00  0.00000000000E+00  0.14260866488E+03  0.14260866488E+03  0.00000000000E+00 0.  1.
          2   -1    0    0  501    0  0.00000000000E+00 -0.00000000000E+00 -0.32058703689E+04  0.32058703689E+04  0.00000000000E+00 0. -1.
         24    2    1    2    0    0  0.18480528731E+02  0.38282649992E+03 -0.12297223473E+04  0.12905388698E+04  0.79849007348E+02 0.  0.
        254    2    1    2    0    0 -0.18480528731E+02 -0.38282649992E+03 -0.18335393567E+04  0.20579401639E+04  0.85226374260E+03 0.  0.
         23    2    4    4    0    0 -0.35955500989E+03 -0.25589170087E+03 -0.14628796812E+04  0.15307326048E+04  0.91460253842E+02 0.  0.
         23    2    4    4    0    0  0.34107448116E+03 -0.12693479905E+03 -0.37065967547E+03  0.52720755915E+03  0.90083130986E+02 0.  0.
          4    1    3    3  502    0  0.10055071022E+02  0.35646740695E+03 -0.11888261639E+04  0.12411598466E+04  0.00000000000E+00 0. -1.
         -3    1    3    3    0  502  0.84254577087E+01  0.26359092968E+02 -0.40896183384E+02  0.49379023229E+02  0.00000000000E+00 0.  1.
         11    1    5    5    0    0 -0.61878781431E+02 -0.22811213251E+02 -0.13772932311E+03  0.15270462169E+03  0.00000000000E+00 0. -1.
        -11    1    5    5    0    0 -0.29767622846E+03 -0.23308048762E+03 -0.13251503581E+04  0.13780279831E+04  0.00000000000E+00 0.  1.
          4    1    6    6  503    0  0.84161107924E+02 -0.74258076419E+02 -0.99872553073E+02  0.15023941180E+03  0.00000000000E+00 0. -1.
         -4    1    6    6    0  503  0.25691337324E+03 -0.52676722630E+02 -0.27078712240E+03  0.37696814735E+03  0.00000000000E+00 0.  1.
<mgrwt>
<rscale>  0 0.13523090E+04</rscale>
<asrwt>0</asrwt>
<pdfrwt beam="1">  1        2 0.49321085E+00 0.13523090E+04</pdfrwt>
<pdfrwt beam="2">  1       -1 0.21939794E-01 0.13523090E+04</pdfrwt>
<totfact> 0.25357456E+01</totfact>
</mgrwt>
</event>
<event>
12    6  0.1494052E-007  0.2318633E+04  0.7818608E-02  0.8470610E-01
          2   -1    0    0  501    0  0.00000000000E+00  0.00000000000E+00  0.23722919882E+04  0.23722919882E+04  0.00000000000E+00 0. -1.
         -1   -1    0    0    0  501 -0.00000000000E+00 -0.00000000000E+00 -0.56654701385E+03  0.56654701385E+03  0.00000000000E+00 0.  1.
         24    2    1    2    0    0  0.18934904936E+03  0.32375857677E+03  0.19182034668E+04  0.19561527618E+04  0.79727088987E+02 0.  0.
        254    2    1    2    0    0 -0.18934904936E+03 -0.32375857677E+03 -0.11245849246E+03  0.98268624031E+03  0.90130608333E+03 0.  0.
         23    2    4    4    0    0 -0.44712830541E+03 -0.39207192468E+03  0.12452430541E+03  0.61453416145E+03  0.92205299851E+02 0.  0.
         23    2    4    4    0    0  0.25777925605E+03  0.68313347914E+02 -0.23698279787E+03  0.36815207886E+03  0.90874904851E+02 0.  0.
          2    1    3    3  502    0  0.14287010618E+03  0.29669204014E+03  0.16181727929E+04  0.16513392207E+04  0.00000000000E+00 0. -1.
         -1    1    3    3    0  502  0.46478943186E+02  0.27066536628E+02  0.30003067389E+03  0.30481354110E+03  0.00000000000E+00 0.  1.
         11    1    5    5    0    0 -0.53175573583E+02 -0.12332157208E+02  0.97479281510E+01  0.55450390716E+02  0.00000000000E+00 0. -1.
        -11    1    5    5    0    0 -0.39395273183E+03 -0.37973976747E+03  0.11477637726E+03  0.55908377073E+03  0.00000000000E+00 0.  1.
          1    1    6    6  503    0  0.27333795999E+02 -0.21054857690E+02 -0.26466129658E+02  0.43484473725E+02  0.00000000000E+00 0. -1.
         -1    1    6    6    0  503  0.23044546005E+03  0.89368205604E+02 -0.21051666821E+03  0.32466760514E+03  0.00000000000E+00 0.  1.
<mgrwt>
<rscale>  0 0.23186332E+04</rscale>
<asrwt>0</asrwt>
<pdfrwt beam="1">  1        2 0.36496799E+00 0.23186332E+04</pdfrwt>
<pdfrwt beam="2">  1       -1 0.87161080E-01 0.23186332E+04</pdfrwt>
<totfact> 0.55041880E+00</totfact>
</mgrwt>
</event>
<event>
12    6  0.1494052E-007  0.1480100E+04  0.7818608E-02  0.8897795E-01
          2   -1    0    0  501    0  0.00000000000E+00  0.00000000000E+00  0.50719736494E+03  0.50719736494E+03  0.00000000000E+00 0. -1.
         -1   -1    0    0    0  501 -0.00000000000E+00 -0.00000000000E+00 -0.10798049635E+04  0.10798049635E+04  0.00000000000E+00 0.  1.
         24    2    1    2    0    0  0.42718418867E+03  0.79886490535E+02 -0.36531614732E+03  0.57334154291E+03  0.79977840137E+02 0.  0.
        254    2    1    2    0    0 -0.42718418867E+03 -0.79886490535E+02 -0.20729145124E+03  0.10136607855E+04  0.89200350893E+03 0.  0.
         23    2    4    4    0    0 -0.50899156314E+03 -0.33712534743E+03 -0.33224330625E+03  0.70127494989E+03  0.93139838813E+02 0.  0.
         23    2    4    4    0    0  0.81807374465E+02  0.25723885689E+03  0.12495185501E+03  0.31238583564E+03  0.95434104098E+02 0.  0.
          2    1    3    3  502    0  0.65733514248E+02 -0.11405430707E+01 -0.91656110148E+02  0.11279644614E+03  0.00000000000E+00 0. -1.
         -1    1    3    3    0  502  0.36145067442E+03  0.81027033605E+02 -0.27366003717E+03  0.46054509677E+03  0.00000000000E+00 0.  1.
         11    1    5    5    0    0 -0.29843984767E+03 -0.24125789069E+03 -0.23729711576E+03  0.45120021459E+03  0.00000000000E+00 0. -1.
        -11    1    5    5    0    0 -0.21055171547E+03 -0.95867456736E+02 -0.94946190487E+02  0.25007473530E+03  0.00000000000E+00 0.  1.
          3    1    6    6  503    0  0.89493012159E+02  0.26226336839E+03  0.12146561565E+03  0.30256399226E+03  0.00000000000E+00 0. -1.
         -3    1    6    6    0  503 -0.76856376933E+01 -0.50245114984E+01  0.34862393567E+01  0.98218433811E+01  0.00000000000E+00 0.  1.
<mgrwt>
<rscale>  0 0.14801003E+04</rscale>
<asrwt>0</asrwt>
<pdfrwt beam="1">  1        2 0.78030364E-01 0.14801003E+04</pdfrwt>
<pdfrwt beam="2">  1       -1 0.16612384E+00 0.14801003E+04</pdfrwt>
<totfact> 0.17610017E+01</totfact>
</mgrwt>
</event>
<event>
12    6  0.1494052E-007  0.2174988E+04  0.7818608E-02  0.8528911E-01
          2   -1    0    0  501    0  0.00000000000E+00  0.00000000000E+00  0.11204532211E+04  0.11204532211E+04  0.00000000000E+00 0. -1.
         -1   -1    0    0    0  501 -0.00000000000E+00 -0.00000000000E+00 -0.10555040926E+04  0.10555040926E+04  0.00000000000E+00 0.  1.
         24    2    1    2    0    0  0.50886981870E+03 -0.30582032055E+03  0.70068765446E+03  0.92188877160E+03  0.80256820485E+02 0.  0.
        254    2    1    2    0    0 -0.50886981870E+03  0.30582032055E+03 -0.63573852591E+03  0.12540685421E+04  0.90335478862E+03 0.  0.
         23    2    4    4    0    0 -0.40719502694E+03  0.20620292653E+03 -0.85767883211E+03  0.97545948968E+03  0.87067790125E+02 0.  0.
         23    2    4    4    0    0 -0.10167479176E+03  0.99617394024E+02  0.22194030621E+03  0.27860905243E+03  0.90022864337E+02 0.  0.
          4    1    3    3  502    0  0.19869739241E+03 -0.10132899808E+03  0.31903318076E+03  0.38926904582E+03  0.00000000000E+00 0. -1.
         -3    1    3    3    0  502  0.31017242629E+03 -0.20449132247E+03  0.38165447370E+03  0.53261972578E+03  0.00000000000E+00 0.  1.
         11    1    5    5    0    0 -0.12152573992E+03  0.37596921025E+02 -0.17382910376E+03  0.21540332228E+03  0.00000000000E+00 0. -1.
        -11    1    5    5    0    0 -0.28566928702E+03  0.16860600550E+03 -0.68384972835E+03  0.76005616740E+03  0.00000000000E+00 0.  1.
          1    1    6    6  503    0 -0.26344401055E+02 -0.84493889373E+01  0.10706433155E+02  0.29665592043E+02  0.00000000000E+00 0. -1.
         -1    1    6    6    0  503 -0.75330390703E+02  0.10806678296E+03  0.21123387305E+03  0.24894346038E+03  0.00000000000E+00 0.  1.
<mgrwt>
<rscale>  0 0.21749878E+04</rscale>
<asrwt>0</asrwt>
<pdfrwt beam="1">  1        2 0.17237742E+00 0.21749878E+04</pdfrwt>
<pdfrwt beam="2">  1       -1 0.16238524E+00 0.21749878E+04</pdfrwt>
<totfact> 0.61967336E+00</totfact>
</mgrwt>
</event>
<event>
12    6  0.1494052E-007  0.1281761E+04  0.7818608E-02  0.9044155E-01
         -1   -1    0    0    0  501 -0.00000000000E+00  0.00000000000E+00  0.41938668424E+03  0.41938668424E+03  0.00000000000E+00 0.  1.
          2   -1    0    0  501    0  0.00000000000E+00 -0.00000000000E+00 -0.97935369530E+03  0.97935369530E+03  0.00000000000E+00 0. -1.
         24    2    1    2    0    0 -0.68572859391E+02 -0.26137554257E+03  0.31606803991E+02  0.28353051502E+03  0.79819493821E+02 0.  0.
        254    2    1    2    0    0  0.68572859391E+02  0.26137554257E+03 -0.59157381505E+03  0.11152098645E+04  0.90593269727E+03 0.  0.
         23    2    4    4    0    0 -0.41141037982E+01 -0.32850692050E+03 -0.25133849059E+03  0.42389485742E+03  0.92639573797E+02 0.  0.
         23    2    4    4    0    0  0.72686963189E+02  0.58988246306E+03 -0.34023532445E+03  0.69131500710E+03  0.94401526366E+02 0.  0.
          4    1    3    3  502    0 -0.88316991307E+01 -0.56617251402E+02  0.40305959660E+02  0.70057707999E+02  0.00000000000E+00 0. -1.
         -3    1    3    3    0  502 -0.59741160260E+02 -0.20475829117E+03 -0.86991556687E+01  0.21347280703E+03  0.00000000000E+00 0.  1.
         11    1    5    5    0    0 -0.83721860172E+00 -0.31915002880E+03 -0.25927562513E+03  0.41119495572E+03  0.00000000000E+00 0. -1.
        -11    1    5    5    0    0 -0.32768851965E+01 -0.93568916932E+01  0.79371345366E+01  0.12699901708E+02  0.00000000000E+00 0.  1.
          2    1    6    6  503    0  0.90137499122E+02  0.53225001465E+03 -0.32120985055E+03  0.62816448080E+03  0.00000000000E+00 0. -1.
         -2    1    6    6    0  503 -0.17450535933E+02  0.57632448413E+02 -0.19025473900E+02  0.63150526297E+02  0.00000000000E+00 0.  1.
<mgrwt>
<rscale>  0 0.12817611E+04</rscale>
<asrwt>0</asrwt>
<pdfrwt beam="1">  1        2 0.15066980E+00 0.12817611E+04</pdfrwt>
<pdfrwt beam="2">  1       -1 0.64521029E-01 0.12817611E+04</pdfrwt>
<totfact> 0.70847138E+01</totfact>
</mgrwt>
</event>
<event>
12    6  0.1494052E-007  0.1865759E+04  0.7818608E-02  0.8672090E-01
         -1   -1    0    0    0  501 -0.00000000000E+00  0.00000000000E+00  0.69042909534E+03  0.69042909534E+03  0.00000000000E+00 0.  1.
          2   -1    0    0  501    0  0.00000000000E+00 -0.00000000000E+00 -0.12604689352E+04  0.12604689352E+04  0.00000000000E+00 0. -1.
         24    2    1    2    0    0 -0.30067597456E+03 -0.29470319537E+03  0.38216938660E+03  0.57451266956E+03  0.82190950810E+02 0.  0.
        254    2    1    2    0    0  0.30067597456E+03  0.29470319537E+03 -0.95220922643E+03  0.13763853610E+04  0.90026564742E+03 0.  0.
         23    2    4    4    0    0 -0.92058977209E+02  0.33352248917E+03 -0.15402567836E+02  0.35574553398E+03  0.81274471914E+02 0.  0.
         23    2    4    4    0    0  0.39273495177E+03 -0.38819293807E+02 -0.93680665859E+03  0.10206398270E+04  0.91385233500E+02 0.  0.
          4    1    3    3  502    0 -0.16473923650E+03 -0.11463361626E+03  0.21186795115E+03  0.29183541722E+03  0.00000000000E+00 0. -1.
         -3    1    3    3    0  502 -0.13593673806E+03 -0.18006957911E+03  0.17030143544E+03  0.28267725234E+03  0.00000000000E+00 0.  1.
         11    1    5    5    0    0 -0.10183409358E+03  0.32500002005E+03 -0.77118292834E+01  0.34066797319E+03  0.00000000000E+00 0. -1.
        -11    1    5    5    0    0  0.97751163686E+01  0.85224691221E+01 -0.76907385529E+01  0.15077560792E+02  0.00000000000E+00 0.  1.
          3    1    6    6  503    0  0.37150922861E+03 -0.54596916273E+02 -0.83667173075E+03  0.91707116149E+03  0.00000000000E+00 0. -1.
         -3    1    6    6    0  503  0.21225723159E+02  0.15777622465E+02 -0.10013492785E+03  0.10356866548E+03  0.00000000000E+00 0.  1.
<mgrwt>
<rscale>  0 0.18657593E+04</rscale>
<asrwt>0</asrwt>
<pdfrwt beam="1">  1        2 0.19391830E+00 0.18657593E+04</pdfrwt>
<pdfrwt beam="2">  1       -1 0.10621986E+00 0.18657593E+04</pdfrwt>
<totfact> 0.15472942E+01</totfact>
</mgrwt>
</event>
<event>
12    6  0.1494052E-007  0.1738475E+04  0.7818608E-02  0.8739720E-01
          2   -1    0    0  501    0  0.00000000000E+00  0.00000000000E+00  0.18668351236E+04  0.18668351236E+04  0.00000000000E+00 0. -1.
         -1   -1    0    0    0  501 -0.00000000000E+00 -0.00000000000E+00 -0.40473505570E+03  0.40473505570E+03  0.00000000000E+00 0.  1.
         24    2    1    2    0    0  0.56965712627E+02  0.62988152433E+03  0.54218415556E+03  0.83654935340E+03  0.76520160875E+02 0.  0.
        254    2    1    2    0    0 -0.56965712627E+02 -0.62988152433E+03  0.91991591238E+03  0.14350208259E+04  0.90168933559E+03 0.  0.
         23    2    4    4    0    0  0.11046595201E+03 -0.73216953710E+02  0.82310800132E+03  0.83869627380E+03  0.91330219525E+02 0.  0.
         23    2    4    4    0    0 -0.16743166463E+03 -0.55666457062E+03  0.96807911067E+02  0.59632455214E+03  0.91227152350E+02 0.  0.
          4    1    3    3  502    0  0.37656841857E+01  0.71217912638E+02  0.96049155291E+02  0.11963114849E+03  0.00000000000E+00 0. -1.
         -3    1    3    3    0  502  0.53200028441E+02  0.55866361170E+03  0.44613500026E+03  0.71691820490E+03  0.00000000000E+00 0.  1.
         11    1    5    5    0    0  0.67175261996E+02  0.78653220973E+01  0.29545135312E+03  0.30309384880E+03  0.00000000000E+00 0. -1.
        -11    1    5    5    0    0  0.43290690012E+02 -0.81082275807E+02  0.52765664819E+03  0.53560242501E+03  0.00000000000E+00 0.  1.
          2    1    6    6  503    0 -0.52937642064E+02 -0.21871844845E+03  0.80974871045E+02  0.23915911729E+03  0.00000000000E+00 0. -1.
         -2    1    6    6    0  503 -0.11449402257E+03 -0.33794612217E+03  0.15833040022E+02  0.35716543485E+03  0.00000000000E+00 0.  1.
<mgrwt>
<rscale>  0 0.17384748E+04</rscale>
<asrwt>0</asrwt>
<pdfrwt beam="1">  1        2 0.28720540E+00 0.17384748E+04</pdfrwt>
<pdfrwt beam="2">  1       -1 0.62266932E-01 0.17384748E+04</pdfrwt>
<totfact> 0.22393730E+01</totfact>
</mgrwt>
</event>
<event>
12    6  0.1494052E-007  0.1444508E+04  0.7818608E-02  0.8922217E-01
         -1   -1    0    0    0  501 -0.00000000000E+00  0.00000000000E+00  0.10018316871E+04  0.10018316871E+04  0.00000000000E+00 0.  1.
          2   -1    0    0  501    0  0.00000000000E+00 -0.00000000000E+00 -0.52069711038E+03  0.52069711038E+03  0.00000000000E+00 0. -1.
         24    2    1    2    0    0  0.41696767342E+03  0.38568120240E+02  0.46131557989E+02  0.43147245962E+03  0.93224579335E+02 0.  0.
        254    2    1    2    0    0 -0.41696767342E+03 -0.38568120240E+02  0.43500301869E+03  0.10910563378E+04  0.90875011167E+03 0.  0.
         23    2    4    4    0    0 -0.53298217890E+03 -0.58884267681E+02 -0.84634921943E+02  0.55044097373E+03  0.91021071933E+02 0.  0.
         23    2    4    4    0    0  0.11601450548E+03  0.20316147441E+02  0.51963794064E+03  0.54061536410E+03  0.91483721091E+02 0.  0.
          2    1    3    3  502    0  0.31487974998E+03  0.52266708014E+00  0.47049575586E+01  0.31491533268E+03  0.00000000000E+00 0. -1.
         -1    1    3    3    0  502  0.10208792344E+03  0.38045453160E+02  0.41426600430E+02  0.11655712694E+03  0.00000000000E+00 0.  1.
         11    1    5    5    0    0 -0.96790034819E+01 -0.10786718399E+02 -0.14099282251E+02  0.20219450097E+02  0.00000000000E+00 0.  1.
        -11    1    5    5    0    0 -0.52330317542E+03 -0.48097549282E+02 -0.70535639692E+02  0.53022152363E+03  0.00000000000E+00 0. -1.
          1    1    6    6  503    0  0.91423160255E+02 -0.24999395674E+02  0.38358214547E+03  0.39511824349E+03  0.00000000000E+00 0. -1.
         -1    1    6    6    0  503  0.24591345228E+02  0.45315543115E+02  0.13605579516E+03  0.14549712061E+03  0.00000000000E+00 0.  1.
<mgrwt>
<rscale>  0 0.14445080E+04</rscale>
<asrwt>0</asrwt>
<pdfrwt beam="1">  1        2 0.80107248E-01 0.14445080E+04</pdfrwt>
<pdfrwt beam="2">  1       -1 0.15412795E+00 0.14445080E+04</pdfrwt>
<totfact> 0.21110736E+01</totfact>
</mgrwt>
</event>
<event>
12    6  0.1494052E-007  0.1723034E+04  0.7818608E-02  0.8748335E-01
          2   -1    0    0  501    0  0.00000000000E+00  0.00000000000E+00  0.17808431228E+04  0.17808431228E+04  0.00000000000E+00 0. -1.
         -1   -1    0    0    0  501 -0.00000000000E+00 -0.00000000000E+00 -0.41677552106E+03  0.41677552106E+03  0.00000000000E+00 0.  1.
         24    2    1    2    0    0 -0.43467273715E+03  0.13052482639E+02  0.87831581680E+03  0.98328888625E+03  0.79420425907E+02 0.  0.
        254    2    1    2    0    0  0.43467273715E+03 -0.13052482639E+02  0.48575178489E+03  0.12143297576E+04  0.10244663039E+04 0.  0.
         23    2    4    4    0    0  0.11236704846E+03 -0.34972721407E+03 -0.16161804537E+03  0.41173201912E+03  0.92018395648E+02 0.  0.
         23    2    4    4    0    0  0.32230568868E+03  0.33667473143E+03  0.64736983026E+03  0.80259773845E+03  0.88569751554E+02 0.  0.
          2    1    3    3  502    0 -0.31960368805E+03 -0.25582872148E+02  0.63023562150E+03  0.70710532410E+03  0.00000000000E+00 0. -1.
         -1    1    3    3    0  502 -0.11506904910E+03  0.38635354786E+02  0.24808019531E+03  0.27618356215E+03  0.00000000000E+00 0.  1.
         11    1    5    5    0    0  0.11368434083E+03 -0.34895472397E+03 -0.16910450172E+03  0.40409140208E+03  0.00000000000E+00 0.  1.
        -11    1    5    5    0    0 -0.13172923671E+01 -0.77249010286E+00  0.74864563500E+01  0.76406170445E+01  0.00000000000E+00 0. -1.
          1    1    6    6  503    0  0.19635466726E+02  0.34331568176E+02  0.23086811234E+02  0.45795294299E+02  0.00000000000E+00 0. -1.
         -1    1    6    6    0  503  0.30267022196E+03  0.30234316326E+03  0.62428301903E+03  0.75680244415E+03  0.00000000000E+00 0.  1.
<mgrwt>
<rscale>  0 0.17230343E+04</rscale>
<asrwt>0</asrwt>
<pdfrwt beam="1">  1        2 0.27397586E+00 0.17230343E+04</pdfrwt>
<pdfrwt beam="2">  1       -1 0.64119312E-01 0.17230343E+04</pdfrwt>
<totfact> 0.23597748E+01</totfact>
</mgrwt>
</event>
<event>
12    6  0.1494052E-007  0.1196075E+04  0.7818608E-02  0.9116299E-01
         -1   -1    0    0    0  501 -0.00000000000E+00  0.00000000000E+00  0.86201509976E+03  0.86201509976E+03  0.00000000000E+00 0.  1.
          2   -1    0    0  501    0  0.00000000000E+00 -0.00000000000E+00 -0.41489850250E+03  0.41489850250E+03  0.00000000000E+00 0. -1.
         24    2    1    2    0    0 -0.15909555118E+03 -0.12123224105E+02 -0.10531583698E+03  0.20694083074E+03  0.79213098297E+02 0.  0.
        254    2    1    2    0    0  0.15909555118E+03  0.12123224105E+02  0.55243243424E+03  0.10699727715E+04  0.90233129748E+03 0.  0.
         23    2    4    4    0    0 -0.98757182654E+02  0.39664978089E+03  0.38529418231E+03  0.56939116588E+03  0.93116395208E+02 0.  0.
         23    2    4    4    0    0  0.25785273383E+03 -0.38452655679E+03  0.16713825194E+03  0.50058160564E+03  0.91093597034E+02 0.  0.
          2    1    3    3  502    0 -0.24047389386E+02 -0.33577389191E+02 -0.27325270420E+02  0.49521595336E+02  0.00000000000E+00 0. -1.
         -1    1    3    3    0  502 -0.13504816179E+03  0.21454165086E+02 -0.77990566564E+02  0.15741923541E+03  0.00000000000E+00 0.  1.
         11    1    5    5    0    0 -0.11187529080E+03  0.37082610548E+03  0.33873404301E+03  0.51455692891E+03  0.00000000000E+00 0. -1.
        -11    1    5    5    0    0  0.13118108142E+02  0.25823675416E+02  0.46560139292E+02  0.54834236970E+02  0.00000000000E+00 0.  1.
          3    1    6    6  503    0  0.26229874288E+03 -0.38355342715E+03  0.15874435426E+03  0.49103322902E+03  0.00000000000E+00 0. -1.
         -3    1    6    6    0  503 -0.44460090447E+01 -0.97312963625E+00  0.83938976798E+01  0.95483766146E+01  0.00000000000E+00 0.  1.
<mgrwt>
<rscale>  0 0.11960749E+04</rscale>
<asrwt>0</asrwt>
<pdfrwt beam="1">  1        2 0.63830539E-01 0.11960749E+04</pdfrwt>
<pdfrwt beam="2">  1       -1 0.13261771E+00 0.11960749E+04</pdfrwt>
<totfact> 0.41555872E+01</totfact>
</mgrwt>
</event>
<event>
12    6  0.1494052E-007  0.2265344E+04  0.7818608E-02  0.8491712E-01
          2   -1    0    0  501    0  0.00000000000E+00  0.00000000000E+00  0.59879141657E+03  0.59879141657E+03  0.00000000000E+00 0. -1.
         -1   -1    0    0    0  501 -0.00000000000E+00 -0.00000000000E+00 -0.21425588803E+04  0.21425588803E+04  0.00000000000E+00 0.  1.
         24    2    1    2    0    0  0.30300378378E+03 -0.17555908132E+03 -0.17221030534E+04  0.17591282563E+04  0.79126555477E+02 0.  0.
        254    2    1    2    0    0 -0.30300378378E+03  0.17555908132E+03  0.17833558967E+03  0.98222204051E+03  0.90018013214E+03 0.  0.
         23    2    4    4    0    0 -0.47957438348E+03  0.39295496847E+03 -0.20863443468E+02  0.62704702103E+03  0.91364581632E+02 0.  0.
         23    2    4    4    0    0  0.17657059970E+03 -0.21739588714E+03  0.19919903314E+03  0.35517501948E+03  0.89615239961E+02 0.  0.
          4    1    3    3  502    0  0.13244538566E+01 -0.16042981956E+01  0.87448491444E-01  0.20822098735E+01  0.00000000000E+00 0. -1.
         -3    1    3    3    0  502  0.30167932992E+03 -0.17395478313E+03 -0.17221905019E+04  0.17570460465E+04  0.00000000000E+00 0.  1.
         11    1    5    5    0    0 -0.45971394018E+03  0.39571881154E+03 -0.21907125304E+02  0.60696804425E+03  0.00000000000E+00 0.  1.
        -11    1    5    5    0    0 -0.19860443304E+02 -0.27638430761E+01  0.10436818369E+01  0.20078976781E+02  0.00000000000E+00 0. -1.
          1    1    6    6  503    0  0.16759027990E+03 -0.17765338066E+03  0.19801123964E+03  0.31441322587E+03  0.00000000000E+00 0.  1.
         -1    1    6    6    0  503  0.89803198013E+01 -0.39742506481E+02  0.11877935020E+01  0.40761793612E+02  0.00000000000E+00 0. -1.
<mgrwt>
<rscale>  0 0.22653440E+04</rscale>
<asrwt>0</asrwt>
<pdfrwt beam="1">  1        2 0.92121757E-01 0.22653440E+04</pdfrwt>
<pdfrwt beam="2">  1       -1 0.32962444E+00 0.22653440E+04</pdfrwt>
<totfact> 0.10929823E+00</totfact>
</mgrwt>
</event>
<event>
12    6  0.1494052E-007  0.1365666E+04  0.7818608E-02  0.8979053E-01
         -1   -1    0    0    0  501 -0.00000000000E+00  0.00000000000E+00  0.17807273306E+03  0.17807273306E+03  0.00000000000E+00 0.  1.
          2   -1    0    0  501    0  0.00000000000E+00 -0.00000000000E+00 -0.26183729531E+04  0.26183729531E+04  0.00000000000E+00 0. -1.
         24    2    1    2    0    0  0.19284377623E+03 -0.34993203378E+03 -0.78946207484E+03  0.88845365060E+03  0.80363992876E+02 0.  0.
        254    2    1    2    0    0 -0.19284377623E+03  0.34993203378E+03 -0.16508381452E+04  0.19079920356E+04  0.86920991470E+03 0.  0.
         23    2    4    4    0    0 -0.39125925814E+02  0.61390140777E+03 -0.12471132554E+04  0.13936065414E+04  0.91880051006E+02 0.  0.
         23    2    4    4    0    0 -0.15371785042E+03 -0.26396937399E+03 -0.40372488978E+03  0.51438549419E+03  0.91047471465E+02 0.  0.
          4    1    3    3  502    0  0.12027923205E+03 -0.23691377074E+03 -0.60018052028E+03  0.65636261728E+03  0.00000000000E+00 0. -1.
         -3    1    3    3    0  502  0.72564544182E+02 -0.11301826304E+03 -0.18928155456E+03  0.23209103332E+03  0.00000000000E+00 0.  1.
         11    1    5    5    0    0 -0.36740228926E+02  0.81704588793E+02 -0.19183588038E+03  0.21172267062E+03  0.00000000000E+00 0.  1.
        -11    1    5    5    0    0 -0.23856968875E+01  0.53219681898E+03 -0.10552773750E+04  0.11818838708E+04  0.00000000000E+00 0. -1.
          2    1    6    6  503    0 -0.14674321252E+03 -0.20820930617E+03 -0.28019127908E+03  0.37867114819E+03  0.00000000000E+00 0. -1.
         -2    1    6    6    0  503 -0.69746378959E+01 -0.55760067817E+02 -0.12353361071E+03  0.13571434600E+03  0.00000000000E+00 0.  1.
<mgrwt>
<rscale>  0 0.13656659E+04</rscale>
<asrwt>0</asrwt>
<pdfrwt beam="1">  1        2 0.40282657E+00 0.13656659E+04</pdfrwt>
<pdfrwt beam="2">  1       -1 0.27395808E-01 0.13656659E+04</pdfrwt>
<totfact> 0.39652365E+01</totfact>
</mgrwt>
</event>
<event>
12    6  0.1494052E-007  0.1758890E+04  0.7818608E-02  0.8728472E-01
         -1   -1    0    0    0  501 -0.00000000000E+00  0.00000000000E+00  0.41362514681E+03  0.41362514681E+03  0.00000000000E+00 0.  1.
          2   -1    0    0  501    0  0.00000000000E+00 -0.00000000000E+00 -0.18698660418E+04  0.18698660418E+04  0.00000000000E+00 0. -1.
         24    2    1    2    0    0  0.38361661399E+03  0.43488507591E+03 -0.16968709486E+03  0.60956520458E+03  0.80556146246E+02 0.  0.
        254    2    1    2    0    0 -0.38361661399E+03 -0.43488507591E+03 -0.12865538002E+04  0.16739259841E+04  0.90028927776E+03 0.  0.
         23    2    4    4    0    0 -0.24442910577E+02 -0.39814590062E+02  0.12466117049E+03  0.16235867516E+03  0.92936938371E+02 0.  0.
         23    2    4    4    0    0 -0.35917370341E+03 -0.39507048585E+03 -0.14112149707E+04  0.15115673089E+04  0.90673027745E+02 0.  0.
          2    1    3    3  502    0  0.12965504574E+03  0.20604307450E+03 -0.63283233666E+02  0.25153319284E+03  0.00000000000E+00 0. -1.
         -1    1    3    3    0  502  0.25396156825E+03  0.22884200140E+03 -0.10640386119E+03  0.35803201174E+03  0.00000000000E+00 0.  1.
         11    1    5    5    0    0 -0.26147814887E+02 -0.43964036513E+02  0.15987419534E+02  0.53592371782E+02  0.00000000000E+00 0. -1.
        -11    1    5    5    0    0  0.17049043105E+01  0.41494464508E+01  0.10867375095E+03  0.10876630338E+03  0.00000000000E+00 0.  1.
          3    1    6    6  503    0 -0.25127837986E+03 -0.27772481678E+03 -0.10980244253E+04  0.11601420329E+04  0.00000000000E+00 0. -1.
         -3    1    6    6    0  503 -0.10789532356E+03 -0.11734566907E+03 -0.31319054540E+03  0.35142527601E+03  0.00000000000E+00 0.  1.
<mgrwt>
<rscale>  0 0.17588901E+04</rscale>
<asrwt>0</asrwt>
<pdfrwt beam="1">  1        2 0.28767169E+00 0.17588901E+04</pdfrwt>
<pdfrwt beam="2">  1       -1 0.63634640E-01 0.17588901E+04</pdfrwt>
<totfact> 0.21321446E+01</totfact>
</mgrwt>
</event>
<event>
12    6  0.1494052E-007  0.1515739E+04  0.7818608E-02  0.8874054E-01
         -1   -1    0    0    0  501 -0.00000000000E+00  0.00000000000E+00  0.29095668769E+03  0.29095668769E+03  0.00000000000E+00 0.  1.
          2   -1    0    0  501    0  0.00000000000E+00 -0.00000000000E+00 -0.19740596445E+04  0.19740596445E+04  0.00000000000E+00 0. -1.
         24    2    1    2    0    0  0.12926865618E+03 -0.47252323782E+03 -0.40978314034E+03  0.64373845209E+03  0.80550461445E+02 0.  0.
        254    2    1    2    0    0 -0.12926865618E+03  0.47252323782E+03 -0.12733198165E+04  0.16212778801E+04  0.87590525385E+03 0.  0.
         23    2    4    4    0    0 -0.31884697297E+03  0.41696038436E+03 -0.12976259944E+04  0.14026441049E+04  0.89765857753E+02 0.  0.
         23    2    4    4    0    0  0.18957831679E+03  0.55562853463E+02  0.24306177933E+02  0.21863377525E+03  0.90458656368E+02 0.  0.
          4    1    3    3  502    0  0.12082338160E+03 -0.46666332847E+03 -0.38506032884E+03  0.61696386323E+03  0.00000000000E+00 0. -1.
         -3    1    3    3    0  502  0.84452745820E+01 -0.58599093509E+01 -0.24722811497E+02  0.26774588862E+02  0.00000000000E+00 0.  1.
         11    1    5    5    0    0 -0.21602167621E+02  0.52166199720E+02 -0.21266685928E+03  0.22003444975E+03  0.00000000000E+00 0. -1.
        -11    1    5    5    0    0 -0.29724480535E+03  0.36479418464E+03 -0.10849591352E+04  0.11826096551E+04  0.00000000000E+00 0.  1.
          1    1    6    6  503    0  0.77316546874E+02  0.36870765910E+02 -0.32275610806E+02  0.91536969865E+02  0.00000000000E+00 0. -1.
         -1    1    6    6    0  503  0.11226176991E+03  0.18692087553E+02  0.56581788738E+02  0.12709680538E+03  0.00000000000E+00 0.  1.
<mgrwt>
<rscale>  0 0.15157386E+04</rscale>
<asrwt>0</asrwt>
<pdfrwt beam="1">  1        2 0.30370148E+00 0.15157386E+04</pdfrwt>
<pdfrwt beam="2">  1       -1 0.44762568E-01 0.15157386E+04</pdfrwt>
<totfact> 0.37565146E+01</totfact>
</mgrwt>
</event>
<event>
12    6  0.2326659E-007  0.1384152E+04  0.7818608E-02  0.8965371E-01
          2   -1    0    0  501    0  0.00000000000E+00  0.00000000000E+00  0.11878892574E+04  0.11878892574E+04  0.00000000000E+00 0. -1.
         -1   -1    0    0    0  501 -0.00000000000E+00 -0.00000000000E+00 -0.40321022901E+03  0.40321022901E+03  0.00000000000E+00 0.  1.
         24    2    1    2    0    0  0.23637824281E+03  0.18381569888E+03  0.54380438484E+03  0.62605766145E+03  0.81006800049E+02 0.  0.
        254    2    1    2    0    0 -0.23637824281E+03 -0.18381569888E+03  0.24087464360E+03  0.96504182501E+03  0.88522440390E+03 0.  0.
         23    2    4    4    0    0  0.85602619135E+02  0.23839428101E+03  0.32231972489E+03  0.42036243380E+03  0.93031871283E+02 0.  0.
         23    2    4    4    0    0 -0.32198086195E+03 -0.42220997989E+03 -0.81445081297E+02  0.54467939121E+03  0.90052181330E+02 0.  0.
          2    1    3    3  502    0  0.23565282738E+03  0.17606345718E+03  0.48866962081E+03  0.57037583601E+03  0.00000000000E+00 0. -1.
         -1    1    3    3    0  502  0.72541543462E+00  0.77522417054E+01  0.55134764033E+02  0.55681825437E+02  0.00000000000E+00 0.  1.
         11    1    5    5    0    0  0.79031569690E+02  0.23060826348E+03  0.25689264452E+03  0.35414684948E+03  0.00000000000E+00 0. -1.
        -11    1    5    5    0    0  0.65710494449E+01  0.77860175312E+01  0.65427080378E+02  0.66215584318E+02  0.00000000000E+00 0.  1.
          1    1    6    6  503    0 -0.31122912818E+03 -0.37367328536E+03 -0.89031946237E+02  0.49439051556E+03  0.00000000000E+00 0. -1.
         -1    1    6    6    0  503 -0.10751733762E+02 -0.48536694528E+02  0.75868649402E+01  0.50288875650E+02  0.00000000000E+00 0.  1.
<mgrwt>
<rscale>  0 0.13841519E+04</rscale>
<asrwt>0</asrwt>
<pdfrwt beam="1">  1        2 0.18275219E+00 0.13841519E+04</pdfrwt>
<pdfrwt beam="2">  1       -1 0.62032343E-01 0.13841519E+04</pdfrwt>
<totfact> 0.56405435E+01</totfact>
</mgrwt>
</event>
<event>
12    6  0.1494052E-007  0.2097042E+04  0.7818608E-02  0.8562548E-01
          2   -1    0    0  501    0  0.00000000000E+00  0.00000000000E+00  0.67051409577E+03  0.67051409577E+03  0.00000000000E+00 0. -1.
         -1   -1    0    0    0  501 -0.00000000000E+00 -0.00000000000E+00 -0.16396315202E+04  0.16396315202E+04  0.00000000000E+00 0.  1.
         24    2    1    2    0    0 -0.15613492304E+03  0.73984933617E+03 -0.83028310403E+03  0.11258566102E+04  0.80174306279E+02 0.  0.
        254    2    1    2    0    0  0.15613492304E+03 -0.73984933617E+03 -0.13883432042E+03  0.11842890058E+04  0.90083867941E+03 0.  0.
         23    2    4    4    0    0 -0.25689193847E+03 -0.66205939188E+03 -0.21294355304E+03  0.74783592342E+03  0.97966857427E+02 0.  0.
         23    2    4    4    0    0  0.41302686151E+03 -0.77789944295E+02  0.74109232621E+02  0.43645308239E+03  0.91414719845E+02 0.  0.
          4    1    3    3  502    0 -0.76751671113E+00  0.42479406293E+02 -0.74911789812E+02  0.86121224409E+02  0.00000000000E+00 0. -1.
         -3    1    3    3    0  502 -0.15536740633E+03  0.69736992988E+03 -0.75537131421E+03  0.10397353858E+04  0.00000000000E+00 0.  1.
         11    1    5    5    0    0 -0.16673590324E+03 -0.43092032232E+03 -0.89182634938E+02  0.47058126609E+03  0.00000000000E+00 0.  1.
        -11    1    5    5    0    0 -0.90156035225E+02 -0.23113906956E+03 -0.12376091810E+03  0.27725465733E+03  0.00000000000E+00 0. -1.
          3    1    6    6  503    0 -0.37385229953E+01 -0.28070372225E+01 -0.36307397144E+01  0.59193144053E+01  0.00000000000E+00 0. -1.
         -3    1    6    6    0  503  0.41676538451E+03 -0.74982907073E+02  0.77739972335E+02  0.43053376798E+03  0.00000000000E+00 0.  1.
<mgrwt>
<rscale>  0 0.20970418E+04</rscale>
<asrwt>0</asrwt>
<pdfrwt beam="1">  1        2 0.10315602E+00 0.20970418E+04</pdfrwt>
<pdfrwt beam="2">  1       -1 0.25225100E+00 0.20970418E+04</pdfrwt>
<totfact> 0.30675689E+00</totfact>
</mgrwt>
</event>
<event>
12    6  0.1494052E-007  0.2028588E+04  0.7818608E-02  0.8593370E-01
          2   -1    0    0  501    0  0.00000000000E+00  0.00000000000E+00  0.20526053178E+04  0.20526053178E+04  0.00000000000E+00 0. -1.
         -1   -1    0    0    0  501 -0.00000000000E+00 -0.00000000000E+00 -0.50121289064E+03  0.50121289064E+03  0.00000000000E+00 0.  1.
         24    2    1    2    0    0 -0.32888979153E+03 -0.74216356330E+03  0.60444081536E+03  0.10151805382E+04  0.79168024665E+02 0.  0.
        254    2    1    2    0    0  0.32888979153E+03  0.74216356330E+03  0.94695161178E+03  0.15386376703E+04  0.90095131702E+03 0.  0.
         23    2    4    4    0    0  0.19723596286E+03  0.89509562851E+03  0.52034837904E+03  0.10580761228E+04  0.93082957342E+02 0.  0.
         23    2    4    4    0    0  0.13165382867E+03 -0.15293206521E+03  0.42660323275E+03  0.48056154742E+03  0.90709070636E+02 0.  0.
          2    1    3    3  502    0 -0.30710153739E+03 -0.72081894569E+03  0.59294102243E+03  0.98258351442E+03  0.00000000000E+00 0. -1.
         -1    1    3    3    0  502 -0.21788254141E+02 -0.21344617605E+02  0.11499792934E+02  0.32597023741E+02  0.00000000000E+00 0.  1.
         11    1    5    5    0    0  0.24389156439E+02  0.21951348327E+03  0.16303303946E+03  0.27451916553E+03  0.00000000000E+00 0.  1.
        -11    1    5    5    0    0  0.17284680642E+03  0.67558214524E+03  0.35731533957E+03  0.78355695731E+03  0.00000000000E+00 0. -1.
          3    1    6    6  503    0  0.87661238220E+02 -0.88251247110E+02  0.15967584443E+03  0.20240837581E+03  0.00000000000E+00 0.  1.
         -3    1    6    6    0  503  0.43992590454E+02 -0.64680818101E+02  0.26692738832E+03  0.27815317161E+03  0.00000000000E+00 0. -1.
<mgrwt>
<rscale>  0 0.20285879E+04</rscale>
<asrwt>0</asrwt>
<pdfrwt beam="1">  1        2 0.31578543E+00 0.20285879E+04</pdfrwt>
<pdfrwt beam="2">  1       -1 0.77109677E-01 0.20285879E+04</pdfrwt>
<totfact> 0.11114606E+01</totfact>
</mgrwt>
</event>
<event>
12    6  0.1494052E-007  0.1100596E+04  0.7818608E-02  0.9204611E-01
          2   -1    0    0  501    0  0.00000000000E+00  0.00000000000E+00  0.11611693568E+04  0.11611693568E+04  0.00000000000E+00 0. -1.
         -1   -1    0    0    0  501 -0.00000000000E+00 -0.00000000000E+00 -0.26079559305E+03  0.26079559305E+03  0.00000000000E+00 0.  1.
         24    2    1    2    0    0 -0.13181012874E+03 -0.93489457987E+02  0.12557561358E+03  0.22084493119E+03  0.83000362137E+02 0.  0.
        254    2    1    2    0    0  0.13181012874E+03  0.93489457987E+02  0.77479815019E+03  0.12011200187E+04  0.90347270957E+03 0.  0.
         23    2    4    4    0    0 -0.36253931483E+03  0.84954781474E+02  0.18577496706E+03  0.42700765439E+03  0.95766010837E+02 0.  0.
         23    2    4    4    0    0  0.49434944357E+03  0.85346765130E+01  0.58902318313E+03  0.77411236429E+03  0.88585716768E+02 0.  0.
          4    1    3    3  502    0  0.48942289979E+01 -0.24862118239E+00  0.28664183986E+02  0.29080074511E+02  0.00000000000E+00 0. -1.
         -3    1    3    3    0  502 -0.13670435774E+03 -0.93240836805E+02  0.96911429590E+02  0.19176485668E+03  0.00000000000E+00 0.  1.
         11    1    5    5    0    0 -0.23161755056E+03  0.28990887526E+02  0.70580261338E+02  0.24386212207E+03  0.00000000000E+00 0.  1.
        -11    1    5    5    0    0 -0.13092176426E+03  0.55963893948E+02  0.11519470572E+03  0.18314553232E+03  0.00000000000E+00 0. -1.
          4    1    6    6  503    0  0.20153605120E+03 -0.32699438033E+01  0.17538107587E+03  0.26718157541E+03  0.00000000000E+00 0. -1.
         -4    1    6    6    0  503  0.29281339238E+03  0.11804620316E+02  0.41364210726E+03  0.50693078888E+03  0.00000000000E+00 0.  1.
<mgrwt>
<rscale>  0 0.11005959E+04</rscale>
<asrwt>0</asrwt>
<pdfrwt beam="1">  1        2 0.17864144E+00 0.11005959E+04</pdfrwt>
<pdfrwt beam="2">  1       -1 0.40122400E-01 0.11005959E+04</pdfrwt>
<totfact> 0.13691110E+02</totfact>
</mgrwt>
</event>
<event>
12    6  0.1494052E-007  0.2326090E+04  0.7818608E-02  0.8467705E-01
          2   -1    0    0  501    0  0.00000000000E+00  0.00000000000E+00  0.18251865079E+04  0.18251865079E+04  0.00000000000E+00 0. -1.
         -1   -1    0    0    0  501 -0.00000000000E+00 -0.00000000000E+00 -0.74111550046E+03  0.74111550046E+03  0.00000000000E+00 0.  1.
         24    2    1    2    0    0 -0.78202091381E+03 -0.59732579492E+03  0.43534603248E+03  0.10789488406E+04  0.79054523486E+02 0.  0.
        254    2    1    2    0    0  0.78202091381E+03  0.59732579492E+03  0.64872497497E+03  0.14873531678E+04  0.90720479367E+03 0.  0.
         23    2    4    4    0    0  0.25671186444E+03  0.13507612454E+03  0.71676386139E+03  0.77856435912E+03  0.90914726707E+02 0.  0.
         23    2    4    4    0    0  0.52530904937E+03  0.46224967038E+03 -0.68038886417E+02  0.70878880867E+03  0.90155033742E+02 0.  0.
          4    1    3    3  502    0 -0.73416852268E+03 -0.54786228530E+03  0.42310612764E+03  0.10090467277E+04  0.00000000000E+00 0. -1.
         -3    1    3    3    0  502 -0.47852391128E+02 -0.49463509622E+02  0.12239904839E+02  0.69902112924E+02  0.00000000000E+00 0.  1.
         11    1    5    5    0    0  0.19743540314E+03  0.12694259030E+03  0.47943866504E+03  0.53381325684E+03  0.00000000000E+00 0. -1.
        -11    1    5    5    0    0  0.59276461302E+02  0.81335342346E+01  0.23732519634E+03  0.24475110227E+03  0.00000000000E+00 0.  1.
          4    1    6    6  503    0  0.47157424283E+03  0.42237239174E+03 -0.87525178779E+02  0.63909417203E+03  0.00000000000E+00 0. -1.
         -4    1    6    6    0  503  0.53734806537E+02  0.39877278646E+02  0.19486292362E+02  0.69694636636E+02  0.00000000000E+00 0.  1.
<mgrwt>
<rscale>  0 0.23260903E+04</rscale>
<asrwt>0</asrwt>
<pdfrwt beam="1">  1        2 0.28079792E+00 0.23260903E+04</pdfrwt>
<pdfrwt beam="2">  1       -1 0.11401777E+00 0.23260903E+04</pdfrwt>
<totfact> 0.60291952E+00</totfact>
</mgrwt>
</event>
<event>
12    6  0.1494052E-007  0.2395932E+04  0.7818608E-02  0.8441028E-01
          2   -1    0    0  501    0  0.00000000000E+00  0.00000000000E+00  0.13152994354E+04  0.13152994354E+04  0.00000000000E+00 0. -1.
         -1   -1    0    0    0  501 -0.00000000000E+00 -0.00000000000E+00 -0.10910993566E+04  0.10910993566E+04  0.00000000000E+00 0.  1.
         24    2    1    2    0    0 -0.54244625331E+03  0.26925980988E+03  0.93183279446E+03  0.11143184726E+04  0.81513917051E+02 0.  0.
        254    2    1    2    0    0  0.54244625331E+03 -0.26925980988E+03 -0.70763271566E+03  0.12920803194E+04  0.89553263966E+03 0.  0.
         23    2    4    4    0    0 -0.12388581905E+03 -0.26280041271E+03  0.18791088934E+02  0.30213247041E+03  0.80741386956E+02 0.  0.
         23    2    4    4    0    0  0.66633207235E+03 -0.64593971663E+01 -0.72642380459E+03  0.98994784904E+03  0.90912295547E+02 0.  0.
          4    1    3    3  502    0 -0.23609326726E+03  0.10296087774E+03  0.32736000896E+03  0.41653997246E+03  0.00000000000E+00 0. -1.
         -3    1    3    3    0  502 -0.30635298604E+03  0.16629893214E+03  0.60447278550E+03  0.69777850017E+03  0.00000000000E+00 0.  1.
         11    1    5    5    0    0 -0.12544838813E+03 -0.25106887452E+03  0.88244880649E+00  0.28066645071E+03  0.00000000000E+00 0.  1.
        -11    1    5    5    0    0  0.15625690837E+01 -0.11731538196E+02  0.17908640127E+02  0.21466019701E+02  0.00000000000E+00 0. -1.
          1    1    6    6  503    0  0.41683316307E+03 -0.45975914367E+02 -0.47286945606E+03  0.63203575295E+03  0.00000000000E+00 0. -1.
         -1    1    6    6    0  503  0.24949890928E+03  0.39516517201E+02 -0.25355434853E+03  0.35791209609E+03  0.00000000000E+00 0.  1.
<mgrwt>
<rscale>  0 0.23959319E+04</rscale>
<asrwt>0</asrwt>
<pdfrwt beam="1">  1        2 0.20235376E+00 0.23959319E+04</pdfrwt>
<pdfrwt beam="2">  1       -1 0.16786144E+00 0.23959319E+04</pdfrwt>
<totfact> 0.42362826E+00</totfact>
</mgrwt>
</event>
<event>
12    6  0.1494052E-007  0.2729102E+04  0.7818608E-02  0.8325624E-01
          2   -1    0    0  501    0  0.00000000000E+00  0.00000000000E+00  0.14587583439E+04  0.14587583439E+04  0.00000000000E+00 0. -1.
         -1   -1    0    0    0  501 -0.00000000000E+00 -0.00000000000E+00 -0.12764276843E+04  0.12764276843E+04  0.00000000000E+00 0.  1.
         24    2    1    2    0    0  0.29132864644E+03 -0.32980364974E+03 -0.10531197486E+04  0.11441995649E+04  0.80551920155E+02 0.  0.
        254    2    1    2    0    0 -0.29132864644E+03  0.32980364974E+03  0.12354504082E+04  0.15909864632E+04  0.90069827765E+03 0.  0.
         23    2    4    4    0    0 -0.29098762001E+02  0.53349641889E+03  0.35981628050E+03  0.65030028603E+03  0.89205041173E+02 0.  0.
         23    2    4    4    0    0 -0.26222988444E+03 -0.20369276915E+03  0.87563412774E+03  0.94068617721E+03  0.88882517012E+02 0.  0.
          2    1    3    3  502    0  0.13189573762E+03 -0.96145758464E+02 -0.42767532693E+03  0.45776268714E+03  0.00000000000E+00 0. -1.
         -3    1    3    3    0  502  0.15943290882E+03 -0.23365789128E+03 -0.62544442166E+03  0.68643687777E+03  0.00000000000E+00 0.  1.
         11    1    5    5    0    0 -0.92378725736E+00  0.28676814095E+02 -0.17050318928E+01  0.28742306507E+02  0.00000000000E+00 0.  1.
        -11    1    5    5    0    0 -0.28174974743E+02  0.50481960480E+03  0.36152131239E+03  0.62155797952E+03  0.00000000000E+00 0. -1.
          3    1    6    6  503    0 -0.26286989166E+03 -0.20316063228E+03  0.87769229393E+03  0.93846608104E+03  0.00000000000E+00 0. -1.
         -3    1    6    6    0  503  0.64000721405E+00 -0.53213687144E+00 -0.20581661935E+01  0.22200961610E+01  0.00000000000E+00 0.  1.
<mgrwt>
<rscale>  0 0.27291021E+04</rscale>
<asrwt>0</asrwt>
<pdfrwt beam="1">  1        2 0.22442436E+00 0.27291021E+04</pdfrwt>
<pdfrwt beam="2">  1       -1 0.19637349E+00 0.27291021E+04</pdfrwt>
<totfact> 0.21293998E+00</totfact>
</mgrwt>
</event>
<event>
12    6  0.1494052E-007  0.1770270E+04  0.7818608E-02  0.8722271E-01
          2   -1    0    0  501    0  0.00000000000E+00  0.00000000000E+00  0.10692042746E+04  0.10692042746E+04  0.00000000000E+00 0. -1.
         -1   -1    0    0    0  501 -0.00000000000E+00 -0.00000000000E+00 -0.73275463347E+03  0.73275463347E+03  0.00000000000E+00 0.  1.
         24    2    1    2    0    0 -0.40671179951E+03 -0.66160558617E+01  0.64198816169E+03  0.76477587903E+03  0.85294110837E+02 0.  0.
        254    2    1    2    0    0  0.40671179951E+03  0.66160558617E+01 -0.30553852052E+03  0.10371830291E+04  0.90384544487E+03 0.  0.
         23    2    4    4    0    0  0.18355357439E+03  0.42321392548E+03 -0.29542297007E+03  0.55544073137E+03  0.91857135981E+02 0.  0.
         23    2    4    4    0    0  0.22315822512E+03 -0.41659786962E+03 -0.10115550452E+02  0.48174229770E+03  0.92843624565E+02 0.  0.
          4    1    3    3  502    0 -0.36124699646E+03 -0.13973910440E+02  0.60865229344E+03  0.70792109513E+03  0.00000000000E+00 0. -1.
         -3    1    3    3    0  502 -0.45464803049E+02  0.73578545779E+01  0.33335868252E+02  0.56854783901E+02  0.00000000000E+00 0.  1.
         11    1    5    5    0    0  0.71056690213E+02  0.27346125665E+03 -0.19035660954E+03  0.34068423930E+03  0.00000000000E+00 0.  1.
        -11    1    5    5    0    0  0.11249688418E+03  0.14975266883E+03 -0.10506636054E+03  0.21475649207E+03  0.00000000000E+00 0. -1.
          2    1    6    6  503    0  0.62487265833E+02 -0.15520188760E+03  0.36910761548E+02  0.17133210039E+03  0.00000000000E+00 0. -1.
         -2    1    6    6    0  503  0.16067095928E+03 -0.26139598202E+03 -0.47026312000E+02  0.31041019731E+03  0.00000000000E+00 0.  1.
<mgrwt>
<rscale>  0 0.17702705E+04</rscale>
<asrwt>0</asrwt>
<pdfrwt beam="1">  1        2 0.16449297E+00 0.17702705E+04</pdfrwt>
<pdfrwt beam="2">  1       -1 0.11273148E+00 0.17702705E+04</pdfrwt>
<totfact> 0.17695811E+01</totfact>
</mgrwt>
</event>
<event>
12    6  0.1494052E-007  0.1550983E+04  0.7818608E-02  0.8851240E-01
          2   -1    0    0  501    0  0.00000000000E+00  0.00000000000E+00  0.83386961830E+03  0.83386961830E+03  0.00000000000E+00 0. -1.
         -1   -1    0    0    0  501 -0.00000000000E+00 -0.00000000000E+00 -0.72120068138E+03  0.72120068138E+03  0.00000000000E+00 0.  1.
         24    2    1    2    0    0 -0.69430187539E+02 -0.84544356748E+02 -0.48446949293E+03  0.50343309607E+03  0.82255051124E+02 0.  0.
        254    2    1    2    0    0  0.69430187539E+02  0.84544356748E+02  0.59713842985E+03  0.10516372036E+04  0.85871893214E+03 0.  0.
         23    2    4    4    0    0  0.25776516043E+03  0.20772188747E+03 -0.59900994631E+02  0.35109716735E+03  0.10044815231E+03 0.  0.
         23    2    4    4    0    0 -0.18833497289E+03 -0.12317753072E+03  0.65703942448E+03  0.70054003626E+03  0.91721158901E+02 0.  0.
          2    1    3    3  502    0 -0.47666739619E+02  0.18966775380E+01 -0.16391621517E+03  0.17071684465E+03  0.00000000000E+00 0. -1.
         -1    1    3    3    0  502 -0.21763447920E+02 -0.86441034286E+02 -0.32055327776E+03  0.33271625142E+03  0.00000000000E+00 0.  1.
         11    1    5    5    0    0  0.24817273310E+03  0.15793419831E+03 -0.60815921845E+02  0.30038557355E+03  0.00000000000E+00 0. -1.
        -11    1    5    5    0    0  0.95924273292E+01  0.49787689162E+02  0.91492721344E+00  0.50711593802E+02  0.00000000000E+00 0.  1.
          3    1    6    6  503    0 -0.16964965520E+03 -0.69341152004E+02  0.54222561758E+03  0.57236161754E+03  0.00000000000E+00 0. -1.
         -3    1    6    6    0  503 -0.18685317688E+02 -0.53836378715E+02  0.11481380690E+03  0.12817841872E+03  0.00000000000E+00 0.  1.
<mgrwt>
<rscale>  0 0.15509833E+04</rscale>
<asrwt>0</asrwt>
<pdfrwt beam="1">  1        2 0.12828763E+00 0.15509833E+04</pdfrwt>
<pdfrwt beam="2">  1       -1 0.11095395E+00 0.15509833E+04</pdfrwt>
<totfact> 0.26772342E+01</totfact>
</mgrwt>
</event>
<event>
12    6  0.1494052E-007  0.2288652E+04  0.7818608E-02  0.8482409E-01
         -1   -1    0    0    0  501 -0.00000000000E+00  0.00000000000E+00  0.81119746910E+03  0.81119746910E+03  0.00000000000E+00 0.  1.
          2   -1    0    0  501    0  0.00000000000E+00 -0.00000000000E+00 -0.16142575760E+04  0.16142575760E+04  0.00000000000E+00 0. -1.
         24    2    1    2    0    0 -0.67196916971E+03  0.10813391347E+03  0.38650421615E+03  0.78669325579E+03  0.79153403650E+02 0.  0.
        254    2    1    2    0    0  0.67196916971E+03 -0.10813391347E+03 -0.11895643230E+04  0.16387617893E+04  0.89846614579E+03 0.  0.
         23    2    4    4    0    0 -0.80121037565E+02 -0.31303860545E+03 -0.43948350335E+03  0.55313202135E+03  0.91633695521E+02 0.  0.
         23    2    4    4    0    0  0.75209020728E+03  0.20490469198E+03 -0.75008081967E+03  0.10856297679E+04  0.91351761481E+02 0.  0.
          4    1    3    3  502    0 -0.10838669307E+03 -0.45588773014E+01  0.84025672148E+02  0.13721797323E+03  0.00000000000E+00 0. -1.
         -3    1    3    3    0  502 -0.56358247665E+03  0.11269279077E+03  0.30247854400E+03  0.64947528256E+03  0.00000000000E+00 0.  1.
         11    1    5    5    0    0 -0.46113220746E+02 -0.12256497201E+03 -0.25051509621E+03  0.28267722745E+03  0.00000000000E+00 0. -1.
        -11    1    5    5    0    0 -0.34007816819E+02 -0.19047363344E+03 -0.18896840714E+03  0.27045479389E+03  0.00000000000E+00 0.  1.
          3    1    6    6  503    0  0.53722364579E+02  0.36348895970E+02 -0.82249820754E+02  0.10474907020E+03  0.00000000000E+00 0. -1.
         -3    1    6    6    0  503  0.69836784270E+03  0.16855579601E+03 -0.66783099892E+03  0.98088069774E+03  0.00000000000E+00 0.  1.
<mgrwt>
<rscale>  0 0.22886517E+04</rscale>
<asrwt>0</asrwt>
<pdfrwt beam="1">  1        2 0.24834732E+00 0.22886517E+04</pdfrwt>
<pdfrwt beam="2">  1       -1 0.12479961E+00 0.22886517E+04</pdfrwt>
<totfact> 0.63579068E+00</totfact>
</mgrwt>
</event>
<event>
12    6  0.1494052E-007  0.2322034E+04  0.7818608E-02  0.8469284E-01
          2   -1    0    0  501    0  0.00000000000E+00  0.00000000000E+00  0.86078310373E+03  0.86078310373E+03  0.00000000000E+00 0. -1.
         -1   -1    0    0    0  501 -0.00000000000E+00 -0.00000000000E+00 -0.15659705013E+04  0.15659705013E+04  0.00000000000E+00 0.  1.
         24    2    1    2    0    0 -0.88674689457E+02 -0.59370777618E+03  0.48295262907E+03  0.77427480686E+03  0.76851223587E+02 0.  0.
        254    2    1    2    0    0  0.88674689457E+02  0.59370777618E+03 -0.11881400266E+04  0.16524787982E+04  0.97911047971E+03 0.  0.
         23    2    4    4    0    0  0.16369234688E+03 -0.21634709057E+03 -0.12860024362E+03  0.31358970824E+03  0.90549624137E+02 0.  0.
         23    2    4    4    0    0 -0.75017657425E+02  0.81005486675E+03 -0.10595397830E+04  0.13388890899E+04  0.90459423415E+02 0.  0.
          4    1    3    3  502    0 -0.87621265501E+02 -0.32952281507E+03  0.26813987324E+03  0.43377616744E+03  0.00000000000E+00 0. -1.
         -3    1    3    3    0  502 -0.10534239563E+01 -0.26418496111E+03  0.21481275582E+03  0.34049863942E+03  0.00000000000E+00 0.  1.
         11    1    5    5    0    0  0.13962873693E+03 -0.20359703092E+03 -0.14029136332E+03  0.28395352049E+03  0.00000000000E+00 0. -1.
        -11    1    5    5    0    0  0.24063609953E+02 -0.12750059647E+02  0.11691119694E+02  0.29636187755E+02  0.00000000000E+00 0.  1.
          1    1    6    6  503    0 -0.47549656064E+02  0.72046331598E+03 -0.89960626047E+03  0.11535249383E+04  0.00000000000E+00 0. -1.
         -1    1    6    6    0  503 -0.27468001361E+02  0.89591550767E+02 -0.15993352253E+03  0.18536415159E+03  0.00000000000E+00 0.  1.
<mgrwt>
<rscale>  0 0.23220344E+04</rscale>
<asrwt>0</asrwt>
<pdfrwt beam="1">  1        2 0.13242817E+00 0.23220344E+04</pdfrwt>
<pdfrwt beam="2">  1       -1 0.24091854E+00 0.23220344E+04</pdfrwt>
<totfact> 0.25744695E+00</totfact>
</mgrwt>
</event>
<event>
12    6  0.1494052E-007  0.1815080E+04  0.7818608E-02  0.8698321E-01
          2   -1    0    0  501    0  0.00000000000E+00  0.00000000000E+00  0.90929778214E+03  0.90929778214E+03  0.00000000000E+00 0. -1.
         -1   -1    0    0    0  501 -0.00000000000E+00 -0.00000000000E+00 -0.90578537890E+03  0.90578537890E+03  0.00000000000E+00 0.  1.
         24    2    1    2    0    0 -0.46480152060E+03  0.37450982004E+03  0.32047039492E+03  0.68214712685E+03  0.79532193394E+02 0.  0.
        254    2    1    2    0    0  0.46480152060E+03 -0.37450982004E+03 -0.31695799168E+03  0.11329360342E+04  0.90927643223E+03 0.  0.
         23    2    4    4    0    0 -0.22333695521E+03 -0.21363239985E+03  0.58080945395E+02  0.32762857716E+03  0.91917846616E+02 0.  0.
         23    2    4    4    0    0  0.68813847581E+03 -0.16087742019E+03 -0.37503893708E+03  0.80530745702E+03  0.91922738218E+02 0.  0.
          2    1    3    3  502    0 -0.39988269794E+03  0.28874998684E+03  0.24486888926E+03  0.55067549422E+03  0.00000000000E+00 0. -1.
         -1    1    3    3    0  502 -0.64918822658E+02  0.85759833204E+02  0.75601505660E+02  0.13147163262E+03  0.00000000000E+00 0.  1.
         11    1    5    5    0    0 -0.39756017844E+02  0.51772625396E-01 -0.10743492299E+01  0.39770565264E+02  0.00000000000E+00 0. -1.
        -11    1    5    5    0    0 -0.18358093737E+03 -0.21368417248E+03  0.59155294624E+02  0.28785801190E+03  0.00000000000E+00 0.  1.
          1    1    6    6  503    0  0.20771355127E+03 -0.24890563143E+02 -0.15125056748E+03  0.25814955680E+03  0.00000000000E+00 0. -1.
         -1    1    6    6    0  503  0.48042492454E+03 -0.13598685705E+03 -0.22378836959E+03  0.54715790022E+03  0.00000000000E+00 0.  1.
<mgrwt>
<rscale>  0 0.18150798E+04</rscale>
<asrwt>0</asrwt>
<pdfrwt beam="1">  1        2 0.13989197E+00 0.18150798E+04</pdfrwt>
<pdfrwt beam="2">  1       -1 0.13935160E+00 0.18150798E+04</pdfrwt>
<totfact> 0.13195232E+01</totfact>
</mgrwt>
</event>
<event>
12    6  0.1494052E-007  0.1716707E+04  0.7818608E-02  0.8751893E-01
          2   -1    0    0  501    0  0.00000000000E+00  0.00000000000E+00  0.15823349550E+04  0.15823349550E+04  0.00000000000E+00 0. -1.
         -1   -1    0    0    0  501 -0.00000000000E+00 -0.00000000000E+00 -0.46562258576E+03  0.46562258576E+03  0.00000000000E+00 0.  1.
         24    2    1    2    0    0 -0.31940504639E+02  0.42124745762E+03  0.93419990726E+03  0.10282868203E+04  0.78579270071E+02 0.  0.
        254    2    1    2    0    0  0.31940504639E+02 -0.42124745762E+03  0.18251246197E+03  0.10196707205E+04  0.90991645936E+03 0.  0.
         23    2    4    4    0    0 -0.60851609577E+02 -0.63466366579E+03 -0.88253704156E+02  0.65069218163E+03  0.95450049048E+02 0.  0.
         23    2    4    4    0    0  0.92792114216E+02  0.21341620818E+03  0.27076616613E+03  0.36897853884E+03  0.93134263459E+02 0.  0.
          4    1    3    3  502    0 -0.55918134450E+01  0.32000508311E+03  0.76643773590E+03  0.83057890932E+03  0.00000000000E+00 0. -1.
         -3    1    3    3    0  502 -0.26348691194E+02  0.10124237451E+03  0.16776217135E+03  0.19770791097E+03  0.00000000000E+00 0.  1.
         11    1    5    5    0    0 -0.11360794541E+02 -0.16428400888E+03  0.18818265397E+02  0.16574809302E+03  0.00000000000E+00 0. -1.
        -11    1    5    5    0    0 -0.49490815035E+02 -0.47037965691E+03 -0.10707196955E+03  0.48494408860E+03  0.00000000000E+00 0.  1.
          2    1    6    6  503    0  0.36645454525E+02  0.15347510226E+03  0.12356028462E+03  0.20041117805E+03  0.00000000000E+00 0. -1.
         -2    1    6    6    0  503  0.56146659691E+02  0.59941105916E+02  0.14720588151E+03  0.16856736079E+03  0.00000000000E+00 0.  1.
<mgrwt>
<rscale>  0 0.17167072E+04</rscale>
<asrwt>0</asrwt>
<pdfrwt beam="1">  1        2 0.24343614E+00 0.17167072E+04</pdfrwt>
<pdfrwt beam="2">  1       -1 0.71634245E-01 0.17167072E+04</pdfrwt>
<totfact> 0.24300610E+01</totfact>
</mgrwt>
</event>
<event>
12    6  0.1494052E-007  0.2136598E+04  0.7818608E-02  0.8545291E-01
         -1   -1    0    0    0  501 -0.00000000000E+00  0.00000000000E+00  0.89407367654E+03  0.89407367654E+03  0.00000000000E+00 0.  1.
          2   -1    0    0  501    0  0.00000000000E+00 -0.00000000000E+00 -0.12764746991E+04  0.12764746991E+04  0.00000000000E+00 0. -1.
         24    2    1    2    0    0 -0.58381916914E+03  0.60184818599E+03  0.90191728694E+02  0.84706542034E+03  0.79493503999E+02 0.  0.
        254    2    1    2    0    0  0.58381916914E+03 -0.60184818599E+03 -0.47259275122E+03  0.13234829553E+04  0.90840363447E+03 0.  0.
         23    2    4    4    0    0  0.15920433575E+03 -0.55103242323E+03 -0.63126861998E+03  0.85779896848E+03  0.91303054532E+02 0.  0.
         23    2    4    4    0    0  0.42461483339E+03 -0.50815762759E+02  0.15867586876E+03  0.46568398678E+03  0.93827212154E+02 0.  0.
          4    1    3    3  502    0 -0.14185941834E+03  0.19214482812E+03  0.93756070060E+01  0.23902224070E+03  0.00000000000E+00 0. -1.
         -3    1    3    3    0  502 -0.44195975080E+03  0.40970335788E+03  0.80816121688E+02  0.60804317964E+03  0.00000000000E+00 0.  1.
         11    1    5    5    0    0  0.28963256054E+02 -0.47328257520E+02 -0.31443953522E+02  0.63777397049E+02  0.00000000000E+00 0.  1.
        -11    1    5    5    0    0  0.13024107970E+03 -0.50370416571E+03 -0.59982466646E+03  0.79402157143E+03  0.00000000000E+00 0. -1.
          1    1    6    6  503    0  0.31679298789E+03 -0.68988542589E+02  0.89678067057E+02  0.33639169415E+03  0.00000000000E+00 0. -1.
         -1    1    6    6    0  503  0.10782184550E+03  0.18172779829E+02  0.68997801702E+02  0.12929229263E+03  0.00000000000E+00 0.  1.
<mgrwt>
<rscale>  0 0.21365977E+04</rscale>
<asrwt>0</asrwt>
<pdfrwt beam="1">  1        2 0.19638072E+00 0.21365977E+04</pdfrwt>
<pdfrwt beam="2">  1       -1 0.13754980E+00 0.21365977E+04</pdfrwt>
<totfact> 0.78445699E+00</totfact>
</mgrwt>
</event>
<event>
12    6  0.1494052E-007  0.2088075E+04  0.7818608E-02  0.8566515E-01
          2   -1    0    0  501    0  0.00000000000E+00  0.00000000000E+00  0.16805982503E+04  0.16805982503E+04  0.00000000000E+00 0. -1.
         -1   -1    0    0    0  501 -0.00000000000E+00 -0.00000000000E+00 -0.64858705063E+03  0.64858705063E+03  0.00000000000E+00 0.  1.
         24    2    1    2    0    0  0.32053559189E+03 -0.41618821959E+03 -0.32176679990E+03  0.62111384101E+03  0.79327360817E+02 0.  0.
        254    2    1    2    0    0 -0.32053559189E+03  0.41618821959E+03  0.13537779995E+04  0.17080714599E+04  0.89935395717E+03 0.  0.
         23    2    4    4    0    0 -0.21331704753E+03  0.46668223032E+03  0.22258166876E+03  0.56702157982E+03  0.93136490438E+02 0.  0.
         23    2    4    4    0    0 -0.10721854436E+03 -0.50494010724E+02  0.11311963308E+04  0.11410498801E+04  0.91346749723E+02 0.  0.
          2    1    3    3  502    0  0.21279687534E+02 -0.95615044635E+01 -0.18263968210E+01  0.23400495604E+02  0.00000000000E+00 0. -1.
         -1    1    3    3    0  502  0.29925590436E+03 -0.40662671513E+03 -0.31994040308E+03  0.59771334540E+03  0.00000000000E+00 0.  1.
         11    1    5    5    0    0 -0.13687364627E+03  0.20218895445E+03  0.12960392470E+03  0.27642710729E+03  0.00000000000E+00 0. -1.
        -11    1    5    5    0    0 -0.76443401254E+02  0.26449327587E+03  0.92977744056E+02  0.29059447253E+03  0.00000000000E+00 0.  1.
          1    1    6    6  503    0 -0.10094659933E+03 -0.50535357729E+02  0.11286483452E+04  0.11342800031E+04  0.00000000000E+00 0. -1.
         -1    1    6    6    0  503 -0.62719450310E+01  0.41347004870E-01  0.25479856003E+01  0.67698770052E+01  0.00000000000E+00 0.  1.
<mgrwt>
<rscale>  0 0.20880750E+04</rscale>
<asrwt>0</asrwt>
<pdfrwt beam="1">  1        2 0.25855358E+00 0.20880750E+04</pdfrwt>
<pdfrwt beam="2">  1       -1 0.99782624E-01 0.20880750E+04</pdfrwt>
<totfact> 0.10117492E+01</totfact>
</mgrwt>
</event>
<event>
12    6  0.1494052E-007  0.1658589E+04  0.7818608E-02  0.8785341E-01
         -1   -1    0    0    0  501 -0.00000000000E+00  0.00000000000E+00  0.40853551349E+03  0.40853551349E+03  0.00000000000E+00 0.  1.
          2   -1    0    0  501    0  0.00000000000E+00 -0.00000000000E+00 -0.16834019308E+04  0.16834019308E+04  0.00000000000E+00 0. -1.
         24    2    1    2    0    0 -0.53020009058E+03 -0.13599417371E+03 -0.76111749200E+03  0.94068613547E+03  0.77356431587E+02 0.  0.
        254    2    1    2    0    0  0.53020009058E+03  0.13599417371E+03 -0.51374892532E+03  0.11512513088E+04  0.87283163695E+03 0.  0.
         23    2    4    4    0    0 -0.20075774940E+02 -0.11778667427E+03  0.17397195032E+03  0.22983815716E+03  0.91008799655E+02 0.  0.
         23    2    4    4    0    0  0.55027586552E+03  0.25378084797E+03 -0.68772087563E+03  0.92141315166E+03  0.93989075415E+02 0.  0.
          4    1    3    3  502    0 -0.39008188002E+03 -0.72711678529E+02 -0.58532383747E+03  0.70714556919E+03  0.00000000000E+00 0. -1.
         -3    1    3    3    0  502 -0.14011821056E+03 -0.63282495178E+02 -0.17579365453E+03  0.23354056628E+03  0.00000000000E+00 0.  1.
         11    1    5    5    0    0  0.31909831331E+02 -0.50386892332E+02  0.42567563265E+02  0.73273963294E+02  0.00000000000E+00 0.  1.
        -11    1    5    5    0    0 -0.51985606270E+02 -0.67399781936E+02  0.13140438705E+03  0.15656419386E+03  0.00000000000E+00 0. -1.
          1    1    6    6  503    0  0.45042633102E+03  0.17545373382E+03 -0.57937376942E+03  0.75454745184E+03  0.00000000000E+00 0. -1.
         -1    1    6    6    0  503  0.99849534500E+02  0.78327114153E+02 -0.10834710622E+03  0.16686569982E+03  0.00000000000E+00 0.  1.
<mgrwt>
<rscale>  0 0.16585891E+04</rscale>
<asrwt>0</asrwt>
<pdfrwt beam="1">  1        2 0.25898491E+00 0.16585891E+04</pdfrwt>
<pdfrwt beam="2">  1       -1 0.62851618E-01 0.16585891E+04</pdfrwt>
<totfact> 0.27971459E+01</totfact>
</mgrwt>
</event>
<event>
12    6  0.1494052E-007  0.3145757E+04  0.7818608E-02  0.8203291E-01
         -1   -1    0    0    0  501 -0.00000000000E+00  0.00000000000E+00  0.15323335932E+04  0.15323335932E+04  0.00000000000E+00 0.  1.
          2   -1    0    0  501    0  0.00000000000E+00 -0.00000000000E+00 -0.16144960714E+04  0.16144960714E+04  0.00000000000E+00 0. -1.
         24    2    1    2    0    0 -0.41788700265E+03  0.37560879794E+02  0.13208502756E+04  0.13880426838E+04  0.77308957530E+02 0.  0.
        254    2    1    2    0    0  0.41788700265E+03 -0.37560879794E+02 -0.14030127538E+04  0.17587869807E+04  0.97408751634E+03 0.  0.
         23    2    4    4    0    0  0.16763319491E+02 -0.15397230430E+03  0.94673991080E+02  0.20124222936E+03  0.86872267839E+02 0.  0.
         23    2    4    4    0    0  0.40112368316E+03  0.11641142451E+03 -0.14976867449E+04  0.15575447513E+04  0.91805433919E+02 0.  0.
          2    1    3    3  502    0 -0.54639241260E+01 -0.39034558826E+01  0.47845399283E+01  0.82451959957E+01  0.00000000000E+00 0. -1.
         -1    1    3    3    0  502 -0.41242307852E+03  0.41464335676E+02  0.13160657357E+04  0.13797974878E+04  0.00000000000E+00 0.  1.
         11    1    5    5    0    0 -0.27846800597E+02 -0.35922643931E+02  0.49502473093E+02  0.67203984203E+02  0.00000000000E+00 0.  1.
        -11    1    5    5    0    0  0.44610120089E+02 -0.11804966037E+03  0.45171517987E+02  0.13403824516E+03  0.00000000000E+00 0. -1.
          4    1    6    6  503    0  0.75476882505E+02  0.58752472654E+02 -0.38884803621E+03  0.40043901920E+03  0.00000000000E+00 0. -1.
         -4    1    6    6    0  503  0.32564680065E+03  0.57658951857E+02 -0.11088387087E+04  0.11571057321E+04  0.00000000000E+00 0.  1.
<mgrwt>
<rscale>  0 0.31457569E+04</rscale>
<asrwt>0</asrwt>
<pdfrwt beam="1">  1        2 0.24838401E+00 0.31457569E+04</pdfrwt>
<pdfrwt beam="2">  1       -1 0.23574363E+00 0.31457569E+04</pdfrwt>
<totfact> 0.91140693E-01</totfact>
</mgrwt>
</event>
<event>
12    6  0.1494052E-007  0.2392333E+04  0.7818608E-02  0.8442379E-01
          2   -1    0    0  501    0  0.00000000000E+00  0.00000000000E+00  0.17861453620E+04  0.17861453620E+04  0.00000000000E+00 0. -1.
         -1   -1    0    0    0  501 -0.00000000000E+00 -0.00000000000E+00 -0.80106279243E+03  0.80106279243E+03  0.00000000000E+00 0.  1.
         24    2    1    2    0    0  0.53697482407E+03  0.70534677334E+03 -0.13140967455E+03  0.89978203946E+03  0.80518219150E+02 0.  0.
        254    2    1    2    0    0 -0.53697482407E+03 -0.70534677334E+03  0.11164922441E+04  0.16874261149E+04  0.90277125005E+03 0.  0.
         23    2    4    4    0    0 -0.17725985781E+03 -0.97569355917E+02 -0.12576871290E+03  0.25548543021E+03  0.92272420037E+02 0.  0.
         23    2    4    4    0    0 -0.35971496626E+03 -0.60777741742E+03  0.12422609570E+04  0.14319406847E+04  0.91943424221E+02 0.  0.
          2    1    3    3  502    0  0.11836960867E+03  0.18133611382E+03 -0.10869509639E+01  0.21655330036E+03  0.00000000000E+00 0. -1.
         -1    1    3    3    0  502  0.41860521540E+03  0.52401065952E+03 -0.13032272359E+03  0.68322873910E+03  0.00000000000E+00 0.  1.
         11    1    5    5    0    0 -0.15868959541E+03 -0.45192051884E+02 -0.79400369740E+02  0.18310960641E+03  0.00000000000E+00 0.  1.
        -11    1    5    5    0    0 -0.18570262402E+02 -0.52377304033E+02 -0.46368343155E+02  0.72375823798E+02  0.00000000000E+00 0. -1.
          1    1    6    6  503    0 -0.67039715634E+02 -0.14125606905E+03  0.35105502492E+03  0.38430096413E+03  0.00000000000E+00 0. -1.
         -1    1    6    6    0  503 -0.29267525063E+03 -0.46652134837E+03  0.89120593208E+03  0.10476397206E+04  0.00000000000E+00 0.  1.
<mgrwt>
<rscale>  0 0.23923332E+04</rscale>
<asrwt>0</asrwt>
<pdfrwt beam="1">  1        2 0.27479159E+00 0.23923332E+04</pdfrwt>
<pdfrwt beam="2">  1       -1 0.12324043E+00 0.23923332E+04</pdfrwt>
<totfact> 0.52153658E+00</totfact>
</mgrwt>
</event>
<event>
12    6  0.1494052E-007  0.1932752E+04  0.7818608E-02  0.8638723E-01
          2   -1    0    0  501    0  0.00000000000E+00  0.00000000000E+00  0.14560179459E+04  0.14560179459E+04  0.00000000000E+00 0. -1.
         -1   -1    0    0    0  501 -0.00000000000E+00 -0.00000000000E+00 -0.64139505020E+03  0.64139505020E+03  0.00000000000E+00 0.  1.
         24    2    1    2    0    0  0.37735537998E+03 -0.32954984489E+03  0.93721748119E+03  0.10656838869E+04  0.79406276188E+02 0.  0.
        254    2    1    2    0    0 -0.37735537998E+03  0.32954984489E+03 -0.12259458551E+03  0.10317291092E+04  0.89355209095E+03 0.  0.
         23    2    4    4    0    0 -0.48493952008E+02  0.52761617803E+03  0.14181090409E+03  0.55590456058E+03  0.90493387866E+02 0.  0.
         23    2    4    4    0    0 -0.32886142797E+03 -0.19806633314E+03 -0.26440548961E+03  0.47582454860E+03  0.95491502136E+02 0.  0.
          4    1    3    3  502    0  0.25102600841E+03 -0.16937673709E+03  0.58140116504E+03  0.65553783314E+03  0.00000000000E+00 0. -1.
         -1    1    3    3    0  502  0.12632937157E+03 -0.16017310780E+03  0.35581631615E+03  0.41014605377E+03  0.00000000000E+00 0.  1.
         11    1    5    5    0    0 -0.62990864899E+02  0.51189849377E+03  0.13202616138E+03  0.53238972968E+03  0.00000000000E+00 0.  1.
        -11    1    5    5    0    0  0.14496912892E+02  0.15717684264E+02  0.97847427126E+01  0.23514830894E+02  0.00000000000E+00 0. -1.
          4    1    6    6  503    0 -0.84605201151E+02 -0.69617578299E+02 -0.12637826386E+03  0.16726061355E+03  0.00000000000E+00 0. -1.
         -4    1    6    6    0  503 -0.24425622682E+03 -0.12844875484E+03 -0.13802722575E+03  0.30856393504E+03  0.00000000000E+00 0.  1.
<mgrwt>
<rscale>  0 0.19327521E+04</rscale>
<asrwt>0</asrwt>
<pdfrwt beam="1">  1        2 0.22400276E+00 0.19327521E+04</pdfrwt>
<pdfrwt beam="2">  1       -1 0.98676162E-01 0.19327521E+04</pdfrwt>
<totfact> 0.14061043E+01</totfact>
</mgrwt>
</event>
<event>
12    6  0.1494052E-007  0.1522329E+04  0.7818608E-02  0.8869739E-01
          2   -1    0    0  501    0  0.00000000000E+00  0.00000000000E+00  0.11513910645E+04  0.11513910645E+04  0.00000000000E+00 0. -1.
         -1   -1    0    0    0  501 -0.00000000000E+00 -0.00000000000E+00 -0.50319240982E+03  0.50319240982E+03  0.00000000000E+00 0.  1.
         24    2    1    2    0    0  0.22556191586E+02 -0.22088489773E+03 -0.26467627423E+03  0.35418069714E+03  0.78048166320E+02 0.  0.
        254    2    1    2    0    0 -0.22556191586E+02  0.22088489773E+03  0.91287492888E+03  0.13004027771E+04  0.89911502445E+03 0.  0.
         23    2    4    4    0    0 -0.24067064404E+03 -0.23863858600E+03  0.15609138247E+03  0.38397235386E+03  0.90551174577E+02 0.  0.
         23    2    4    4    0    0  0.21811445245E+03  0.45952348372E+03  0.75678354641E+03  0.91643042328E+03  0.91584049610E+02 0.  0.
          2    1    3    3  502    0  0.62152442379E+01 -0.13993057850E+03 -0.21855709501E+03  0.25958890546E+03  0.00000000000E+00 0. -1.
         -1    1    3    3    0  502  0.16340947348E+02 -0.80954319222E+02 -0.46119179222E+02  0.94591791679E+02  0.00000000000E+00 0.  1.
         11    1    5    5    0    0 -0.20127239677E+03 -0.15081991206E+03  0.89624419415E+02  0.26700142346E+03  0.00000000000E+00 0.  1.
        -11    1    5    5    0    0 -0.39398247270E+02 -0.87818673942E+02  0.66466963055E+02  0.11697093040E+03  0.00000000000E+00 0. -1.
          2    1    6    6  503    0  0.10166536676E+03  0.29190939831E+03  0.50787078891E+03  0.59454157285E+03  0.00000000000E+00 0. -1.
         -2    1    6    6    0  503  0.11644908569E+03  0.16761408542E+03  0.24891275749E+03  0.32188885043E+03  0.00000000000E+00 0.  1.
<mgrwt>
<rscale>  0 0.15223288E+04</rscale>
<asrwt>0</asrwt>
<pdfrwt beam="1">  1        2 0.17713708E+00 0.15223288E+04</pdfrwt>
<pdfrwt beam="2">  1       -1 0.77414218E-01 0.15223288E+04</pdfrwt>
<totfact> 0.37286195E+01</totfact>
</mgrwt>
</event>
<event>
12    6  0.1494052E-007  0.2410509E+04  0.7818608E-02  0.8435580E-01
         -1   -1    0    0    0  501 -0.00000000000E+00  0.00000000000E+00  0.10634572191E+04  0.10634572191E+04  0.00000000000E+00 0.  1.
          2   -1    0    0  501    0  0.00000000000E+00 -0.00000000000E+00 -0.13659587518E+04  0.13659587518E+04  0.00000000000E+00 0. -1.
         24    2    1    2    0    0  0.19365120311E+03  0.95789091150E+03 -0.47800109311E+03  0.10906916588E+04  0.77893919534E+02 0.  0.
        254    2    1    2    0    0 -0.19365120311E+03 -0.95789091150E+03  0.17549956041E+03  0.13387243121E+04  0.89795707094E+03 0.  0.
         23    2    4    4    0    0 -0.54470479168E+03 -0.54180221594E+03  0.76263089560E+02  0.77747639137E+03  0.91654399935E+02 0.  0.
         23    2    4    4    0    0  0.35105358857E+03 -0.41608869556E+03  0.99236470855E+02  0.56124792071E+03  0.93717270185E+02 0.  0.
          4    1    3    3  502    0  0.87746336159E+02  0.61967983897E+03 -0.29757586728E+03  0.69300354914E+03  0.00000000000E+00 0. -1.
         -3    1    3    3    0  502  0.10590486695E+03  0.33821107253E+03 -0.18042522583E+03  0.39768810963E+03  0.00000000000E+00 0.  1.
         11    1    5    5    0    0 -0.50185378330E+03 -0.50473542075E+03  0.94364077385E+02  0.71799696648E+03  0.00000000000E+00 0. -1.
        -11    1    5    5    0    0 -0.42851008384E+02 -0.37066795194E+02 -0.18100987825E+02  0.59479424894E+02  0.00000000000E+00 0.  1.
          3    1    6    6  503    0  0.13249590725E+03 -0.21212234313E+03  0.14495832905E+02  0.25052182153E+03  0.00000000000E+00 0.  1.
         -3    1    6    6    0  503  0.21855768133E+03 -0.20396635243E+03  0.84740637950E+02  0.31072609918E+03  0.00000000000E+00 0. -1.
<mgrwt>
<rscale>  0 0.24105092E+04</rscale>
<asrwt>0</asrwt>
<pdfrwt beam="1">  1        2 0.21014750E+00 0.24105092E+04</pdfrwt>
<pdfrwt beam="2">  1       -1 0.16360880E+00 0.24105092E+04</pdfrwt>
<totfact> 0.42536846E+00</totfact>
</mgrwt>
</event>
<event>
12    6  0.1494052E-007  0.1430088E+04  0.7818608E-02  0.8932323E-01
          2   -1    0    0  501    0  0.00000000000E+00  0.00000000000E+00  0.74225479207E+03  0.74225479207E+03  0.00000000000E+00 0. -1.
         -1   -1    0    0    0  501 -0.00000000000E+00 -0.00000000000E+00 -0.68883094971E+03  0.68883094971E+03  0.00000000000E+00 0.  1.
         24    2    1    2    0    0  0.33416711808E+03 -0.17539036943E+03  0.22263771079E+03  0.44536231265E+03  0.79690619058E+02 0.  0.
        254    2    1    2    0    0 -0.33416711808E+03  0.17539036943E+03 -0.16921386842E+03  0.98572342913E+03  0.89475577728E+03 0.  0.
         23    2    4    4    0    0  0.15034348487E+03 -0.21636830513E+03  0.10639528924E+03  0.29836976457E+03  0.91028302879E+02 0.  0.
         23    2    4    4    0    0 -0.48451060295E+03  0.39175867457E+03 -0.27560915766E+03  0.68735366457E+03  0.90935520761E+02 0.  0.
          4    1    3    3  502    0  0.32255755021E+03 -0.14986136412E+03  0.21734602294E+03  0.41682261856E+03  0.00000000000E+00 0. -1.
         -3    1    3    3    0  502  0.11609567870E+02 -0.25529005315E+02  0.52916878484E+01  0.28539694091E+02  0.00000000000E+00 0.  1.
         11    1    5    5    0    0  0.75953310520E+02 -0.73032282528E+02  0.85178521234E+02  0.13549169772E+03  0.00000000000E+00 0.  1.
        -11    1    5    5    0    0  0.74390174352E+02 -0.14333602260E+03  0.21216768006E+02  0.16287806685E+03  0.00000000000E+00 0. -1.
          2    1    6    6  503    0 -0.29165573862E+03  0.25361554989E+03 -0.12437674846E+03  0.40602154201E+03  0.00000000000E+00 0. -1.
         -2    1    6    6    0  503 -0.19285486434E+03  0.13814312467E+03 -0.15123240920E+03  0.28133212256E+03  0.00000000000E+00 0.  1.
<mgrwt>
<rscale>  0 0.14300882E+04</rscale>
<asrwt>0</asrwt>
<pdfrwt beam="1">  1        2 0.11419305E+00 0.14300882E+04</pdfrwt>
<pdfrwt beam="2">  1       -1 0.10597399E+00 0.14300882E+04</pdfrwt>
<totfact> 0.35137255E+01</totfact>
</mgrwt>
</event>
<event>
12    6  0.1494052E-007  0.1974495E+04  0.7818608E-02  0.8618639E-01
         -1   -1    0    0    0  501 -0.00000000000E+00  0.00000000000E+00  0.47464388374E+03  0.47464388374E+03  0.00000000000E+00 0.  1.
          2   -1    0    0  501    0  0.00000000000E+00 -0.00000000000E+00 -0.20534507116E+04  0.20534507116E+04  0.00000000000E+00 0. -1.
         24    2    1    2    0    0 -0.47084123922E+02  0.43666089507E+03  0.17742744143E+03  0.48038227808E+03  0.79981148463E+02 0.  0.
        254    2    1    2    0    0  0.47084123922E+02 -0.43666089507E+03 -0.17562342692E+04  0.20477123172E+04  0.95701477187E+03 0.  0.
         23    2    4    4    0    0  0.90086825294E+02 -0.62548233387E+03 -0.17163795347E+04  0.18312591350E+04  0.90595398739E+02 0.  0.
         23    2    4    4    0    0 -0.43002701372E+02  0.18882143880E+03 -0.39854734496E+02  0.21645318218E+03  0.88095471712E+02 0.  0.
          4    1    3    3  502    0 -0.47169523382E+02  0.15395867120E+03  0.90012985335E+02  0.18447377565E+03  0.00000000000E+00 0. -1.
         -3    1    3    3    0  502  0.85399460388E-01  0.28270222387E+03  0.87414456096E+02  0.29590850243E+03  0.00000000000E+00 0.  1.
         11    1    5    5    0    0  0.80934519021E+02 -0.30066499022E+03 -0.91389418189E+03  0.96548040291E+03  0.00000000000E+00 0. -1.
        -11    1    5    5    0    0  0.91523062732E+01 -0.32481734366E+03 -0.80248535286E+03  0.86577873213E+03  0.00000000000E+00 0.  1.
          1    1    6    6  503    0 -0.29631518067E+02  0.21969641817E+02 -0.32080394936E+02  0.48886028309E+02  0.00000000000E+00 0. -1.
         -1    1    6    6    0  503 -0.13371183305E+02  0.16685179698E+03 -0.77743395595E+01  0.16756715387E+03  0.00000000000E+00 0.  1.
<mgrwt>
<rscale>  0 0.19744952E+04</rscale>
<asrwt>0</asrwt>
<pdfrwt beam="1">  1        2 0.31591550E+00 0.19744952E+04</pdfrwt>
<pdfrwt beam="2">  1       -1 0.73022135E-01 0.19744952E+04</pdfrwt>
<totfact> 0.12500500E+01</totfact>
</mgrwt>
</event>
<event>
12    6  0.1494052E-007  0.2180871E+04  0.7818608E-02  0.8526432E-01
          2   -1    0    0  501    0  0.00000000000E+00  0.00000000000E+00  0.12062342903E+04  0.12062342903E+04  0.00000000000E+00 0. -1.
         -1   -1    0    0    0  501 -0.00000000000E+00 -0.00000000000E+00 -0.98575342363E+03  0.98575342363E+03  0.00000000000E+00 0.  1.
         24    2    1    2    0    0  0.34596470187E+03 -0.40705479130E+03 -0.61517677709E+03  0.81858855786E+03  0.79117519709E+02 0.  0.
        254    2    1    2    0    0 -0.34596470187E+03  0.40705479130E+03  0.83565764374E+03  0.13733991561E+04  0.95000861377E+03 0.  0.
         23    2    4    4    0    0 -0.51691393530E+03  0.55715432686E+03  0.82856840062E+03  0.11281712278E+04  0.92864225519E+02 0.  0.
         23    2    4    4    0    0  0.17094923343E+03 -0.15009953556E+03  0.70892431232E+01  0.24522792821E+03  0.91285094182E+02 0.  0.
          4    1    3    3  502    0  0.14528276148E+03 -0.11822295698E+03 -0.23818585272E+03  0.30301196144E+03  0.00000000000E+00 0. -1.
         -3    1    3    3    0  502  0.20068194039E+03 -0.28883183432E+03 -0.37699092437E+03  0.51557659642E+03  0.00000000000E+00 0.  1.
         11    1    5    5    0    0 -0.20859518605E+03  0.16374527135E+03  0.30950879277E+03  0.40757840759E+03  0.00000000000E+00 0. -1.
        -11    1    5    5    0    0 -0.30831874925E+03  0.39340905551E+03  0.51905960785E+03  0.72059282025E+03  0.00000000000E+00 0.  1.
          3    1    6    6  503    0  0.67924823143E+02 -0.41562922349E+02 -0.38965785057E+02  0.88654331639E+02  0.00000000000E+00 0. -1.
         -3    1    6    6    0  503  0.10302441029E+03 -0.10853661321E+03  0.46055028180E+02  0.15657359657E+03  0.00000000000E+00 0.  1.
<mgrwt>
<rscale>  0 0.21808710E+04</rscale>
<asrwt>0</asrwt>
<pdfrwt beam="1">  1        2 0.18557451E+00 0.21808710E+04</pdfrwt>
<pdfrwt beam="2">  1       -1 0.15165437E+00 0.21808710E+04</pdfrwt>
<totfact> 0.66382407E+00</totfact>
</mgrwt>
</event>
<event>
12    6  0.1494052E-007  0.1180282E+04  0.7818608E-02  0.9130292E-01
          2   -1    0    0  501    0  0.00000000000E+00  0.00000000000E+00  0.13601620124E+04  0.13601620124E+04  0.00000000000E+00 0. -1.
         -1   -1    0    0    0  501 -0.00000000000E+00 -0.00000000000E+00 -0.25604792686E+03  0.25604792686E+03  0.00000000000E+00 0.  1.
         24    2    1    2    0    0 -0.73831896242E+01  0.23375755531E+03  0.11402632847E+03  0.27115121363E+03  0.76314290361E+02 0.  0.
        254    2    1    2    0    0  0.73831896242E+01 -0.23375755531E+03  0.99008775710E+03  0.13450587257E+04  0.87989323360E+03 0.  0.
         23    2    4    4    0    0 -0.34438453845E+02 -0.52354442281E+03  0.35584771709E+03  0.64056300491E+03  0.91698395544E+02 0.  0.
         23    2    4    4    0    0  0.41821643469E+02  0.28978686749E+03  0.63424004001E+03  0.70449572074E+03  0.91259595382E+02 0.  0.
          4    1    3    3  502    0 -0.25100875736E+02  0.34794072931E+02  0.38353071646E+02  0.57546846817E+02  0.00000000000E+00 0. -1.
         -3    1    3    3    0  502  0.17717686112E+02  0.19896348238E+03  0.75673256820E+02  0.21360436681E+03  0.00000000000E+00 0.  1.
         11    1    5    5    0    0 -0.12922105924E+02 -0.15972420335E+03  0.16156666437E+03  0.22755788053E+03  0.00000000000E+00 0.  1.
        -11    1    5    5    0    0 -0.21516347921E+02 -0.36382021946E+03  0.19428105271E+03  0.41300512438E+03  0.00000000000E+00 0. -1.
          1    1    6    6  503    0  0.45560500631E+02  0.20220331353E+03  0.52497013691E+03  0.56440728545E+03  0.00000000000E+00 0. -1.
         -1    1    6    6    0  503 -0.37388571623E+01  0.87583553964E+02  0.10926990310E+03  0.14008843529E+03  0.00000000000E+00 0.  1.
<mgrwt>
<rscale>  0 0.11802824E+04</rscale>
<asrwt>0</asrwt>
<pdfrwt beam="1">  1        2 0.20925569E+00 0.11802824E+04</pdfrwt>
<pdfrwt beam="2">  1       -1 0.39391989E-01 0.11802824E+04</pdfrwt>
<totfact> 0.10752442E+02</totfact>
</mgrwt>
</event>
<event>
12    6  0.1494052E-007  0.1427368E+04  0.7818608E-02  0.8934243E-01
          2   -1    0    0  501    0  0.00000000000E+00  0.00000000000E+00  0.74690259554E+03  0.74690259554E+03  0.00000000000E+00 0. -1.
         -1   -1    0    0    0  501 -0.00000000000E+00 -0.00000000000E+00 -0.68194325076E+03  0.68194325076E+03  0.00000000000E+00 0.  1.
         24    2    1    2    0    0  0.13410204454E+03  0.33035913623E+03  0.25579792780E+03  0.44600676284E+03  0.79805610020E+02 0.  0.
        254    2    1    2    0    0 -0.13410204454E+03 -0.33035913623E+03 -0.19083858303E+03  0.98283908345E+03  0.89578612512E+03 0.  0.
         23    2    4    4    0    0  0.65272511048E+02 -0.47717950205E+03  0.18447066757E+03  0.52384432708E+03  0.91775127040E+02 0.  0.
         23    2    4    4    0    0 -0.19937455559E+03  0.14682036582E+03 -0.37530925059E+03  0.45899475638E+03  0.92264400319E+02 0.  0.
          2    1    3    3  502    0  0.96972365193E+02  0.23932714334E+03  0.13873047175E+03  0.29313352749E+03  0.00000000000E+00 0. -1.
         -1    1    3    3    0  502  0.37129679349E+02  0.91031992898E+02  0.11706745606E+03  0.15287323535E+03  0.00000000000E+00 0.  1.
         11    1    5    5    0    0 -0.14896145784E+02 -0.17449199656E+03  0.89276639780E+02  0.19656975972E+03  0.00000000000E+00 0. -1.
        -11    1    5    5    0    0  0.80168656832E+02 -0.30268750549E+03  0.95194027786E+02  0.32727456736E+03  0.00000000000E+00 0.  1.
          1    1    6    6  503    0 -0.20041806521E+03  0.11646063657E+03 -0.34808614230E+03  0.41820382972E+03  0.00000000000E+00 0. -1.
         -1    1    6    6    0  503  0.10435096170E+01  0.30359729251E+02 -0.27223108294E+02  0.40790926659E+02  0.00000000000E+00 0.  1.
<mgrwt>
<rscale>  0 0.14273685E+04</rscale>
<asrwt>0</asrwt>
<pdfrwt beam="1">  1        2 0.11490809E+00 0.14273685E+04</pdfrwt>
<pdfrwt beam="2">  1       -1 0.10491435E+00 0.14273685E+04</pdfrwt>
<totfact> 0.35688490E+01</totfact>
</mgrwt>
</event>
<event>
12    6  0.1494052E-007  0.1810060E+04  0.7818608E-02  0.8700968E-01
          2   -1    0    0  501    0  0.00000000000E+00  0.00000000000E+00  0.18393582973E+04  0.18393582973E+04  0.00000000000E+00 0. -1.
         -1   -1    0    0    0  501 -0.00000000000E+00 -0.00000000000E+00 -0.44530720242E+03  0.44530720242E+03  0.00000000000E+00 0.  1.
         24    2    1    2    0    0  0.22313456719E+03  0.65582643863E+03  0.48700266470E+03  0.85058470204E+03  0.80158513209E+02 0.  0.
        254    2    1    2    0    0 -0.22313456719E+03 -0.65582643863E+03  0.90704843019E+03  0.14340807977E+04  0.86830497344E+03 0.  0.
         23    2    4    4    0    0 -0.53951900528E+03 -0.51814980856E+03  0.64296019421E+03  0.99057950052E+03  0.91049186362E+02 0.  0.
         23    2    4    4    0    0  0.31638443809E+03 -0.13767663007E+03  0.26408823598E+03  0.44350129716E+03  0.88864149534E+02 0.  0.
          2    1    3    3  502    0 -0.48713734628E+01  0.32114430023E+01  0.22037123939E+01  0.62369859616E+01  0.00000000000E+00 0. -1.
         -1    1    3    3    0  502  0.22800594065E+03  0.65261499563E+03  0.48479895231E+03  0.84434771608E+03  0.00000000000E+00 0.  1.
         11    1    5    5    0    0 -0.98589905778E+02 -0.10505247163E+03  0.80201105907E+02  0.16488847354E+03  0.00000000000E+00 0. -1.
        -11    1    5    5    0    0 -0.44092909950E+03 -0.41309733693E+03  0.56275908830E+03  0.82569102698E+03  0.00000000000E+00 0.  1.
          4    1    6    6  503    0  0.27003067755E+03 -0.13874722339E+03  0.19684493555E+03  0.36182217658E+03  0.00000000000E+00 0.  1.
         -4    1    6    6    0  503  0.46353760545E+02  0.10705933239E+01  0.67243300429E+02  0.81679120584E+02  0.00000000000E+00 0. -1.
<mgrwt>
<rscale>  0 0.18100602E+04</rscale>
<asrwt>0</asrwt>
<pdfrwt beam="1">  1        2 0.28297820E+00 0.18100602E+04</pdfrwt>
<pdfrwt beam="2">  1       -1 0.68508801E-01 0.18100602E+04</pdfrwt>
<totfact> 0.19009365E+01</totfact>
</mgrwt>
</event>
<event>
12    6  0.1494052E-007  0.2392672E+04  0.7818608E-02  0.8442252E-01
         -1   -1    0    0    0  501 -0.00000000000E+00  0.00000000000E+00  0.96132130493E+03  0.96132130493E+03  0.00000000000E+00 0.  1.
          2   -1    0    0  501    0  0.00000000000E+00 -0.00000000000E+00 -0.14888052983E+04  0.14888052983E+04  0.00000000000E+00 0. -1.
         24    2    1    2    0    0  0.10381941459E+03  0.90760616147E+02  0.81499596508E+03  0.83040314387E+03  0.79592700429E+02 0.  0.
        254    2    1    2    0    0 -0.10381941459E+03 -0.90760616147E+02 -0.13424799585E+04  0.16197234594E+04  0.89567610536E+03 0.  0.
         23    2    4    4    0    0 -0.46932891891E+03  0.88389187705E+02 -0.65759851988E+03  0.81798112103E+03  0.92601395123E+02 0.  0.
         23    2    4    4    0    0  0.36550950432E+03 -0.17914980385E+03 -0.68488143859E+03  0.80174233837E+03  0.89645648163E+02 0.  0.
          4    1    3    3  502    0  0.92867269755E+02  0.87795620363E+02  0.53032670734E+03  0.54550785262E+03  0.00000000000E+00 0. -1.
         -3    1    3    3    0  502  0.10952144836E+02  0.29649957838E+01  0.28466925774E+03  0.28489529125E+03  0.00000000000E+00 0.  1.
         11    1    5    5    0    0 -0.25954648579E+03  0.76928531766E+02 -0.43107504850E+03  0.50902659530E+03  0.00000000000E+00 0. -1.
        -11    1    5    5    0    0 -0.20978243311E+03  0.11460655939E+02 -0.22652347138E+03  0.30895452572E+03  0.00000000000E+00 0.  1.
          3    1    6    6  503    0  0.81088833723E+02 -0.18683146336E+02 -0.86362578859E+02  0.11992895371E+03  0.00000000000E+00 0. -1.
         -3    1    6    6    0  503  0.28442067059E+03 -0.16046665752E+03 -0.59851885973E+03  0.68181338465E+03  0.00000000000E+00 0.  1.
<mgrwt>
<rscale>  0 0.23926724E+04</rscale>
<asrwt>0</asrwt>
<pdfrwt beam="1">  1        2 0.22904697E+00 0.23926724E+04</pdfrwt>
<pdfrwt beam="2">  1       -1 0.14789558E+00 0.23926724E+04</pdfrwt>
<totfact> 0.47847034E+00</totfact>
</mgrwt>
</event>
<event>
12    6  0.1494052E-007  0.3736937E+04  0.7818608E-02  0.8059825E-01
         -1   -1    0    0    0  501 -0.00000000000E+00  0.00000000000E+00  0.17816983381E+04  0.17816983381E+04  0.00000000000E+00 0.  1.
          2   -1    0    0  501    0  0.00000000000E+00 -0.00000000000E+00 -0.19594648340E+04  0.19594648340E+04  0.00000000000E+00 0. -1.
         24    2    1    2    0    0  0.94711380093E+03 -0.18009079175E+03 -0.15590534979E+04  0.18349529147E+04  0.83349531543E+02 0.  0.
        254    2    1    2    0    0 -0.94711380093E+03  0.18009079175E+03  0.13812870021E+04  0.19062102574E+04  0.89231525721E+03 0.  0.
         23    2    4    4    0    0 -0.15324959191E+03 -0.16018507133E+03 -0.38042353873E+02  0.24232840703E+03  0.90172843284E+02 0.  0.
         23    2    4    4    0    0 -0.79386420902E+03  0.34027586308E+03  0.14193293559E+04  0.16638818504E+04  0.89436827485E+02 0.  0.
          4    1    3    3  502    0  0.80745697104E+03 -0.13681983132E+03 -0.13675079932E+04  0.15939838574E+04  0.00000000000E+00 0. -1.
         -3    1    3    3    0  502  0.13965682989E+03 -0.43270960433E+02 -0.19154550474E+03  0.24096905722E+03  0.00000000000E+00 0.  1.
         11    1    5    5    0    0 -0.86519260167E+02 -0.71949535963E+02  0.24616989154E+02  0.11518816892E+03  0.00000000000E+00 0. -1.
        -11    1    5    5    0    0 -0.66730331745E+02 -0.88235535364E+02 -0.62659343027E+02  0.12714023810E+03  0.00000000000E+00 0.  1.
          4    1    6    6  503    0 -0.33062466434E+03  0.18402531973E+03  0.66034100073E+03  0.76107044629E+03  0.00000000000E+00 0. -1.
         -4    1    6    6    0  503 -0.46323954467E+03  0.15625054335E+03  0.75898835520E+03  0.90281140410E+03  0.00000000000E+00 0.  1.
<mgrwt>
<rscale>  0 0.37369374E+04</rscale>
<asrwt>0</asrwt>
<pdfrwt beam="1">  1        2 0.30145613E+00 0.37369374E+04</pdfrwt>
<pdfrwt beam="2">  1       -1 0.27410744E+00 0.37369374E+04</pdfrwt>
<totfact> 0.31356223E-01</totfact>
</mgrwt>
</event>
<event>
12    6  0.1494052E-007  0.2252949E+04  0.7818608E-02  0.8496707E-01
          2   -1    0    0  501    0  0.00000000000E+00  0.00000000000E+00  0.30633671447E+04  0.30633671447E+04  0.00000000000E+00 0. -1.
         -1   -1    0    0    0  501 -0.00000000000E+00 -0.00000000000E+00 -0.41423215548E+03  0.41423215548E+03  0.00000000000E+00 0.  1.
         24    2    1    2    0    0 -0.18038120319E+03 -0.38388680125E+01  0.25472164674E+04  0.25548451217E+04  0.79810707016E+02 0.  0.
        254    2    1    2    0    0  0.18038120319E+03  0.38388680125E+01  0.10191852182E+03  0.92275417843E+03  0.89918617279E+03 0.  0.
         23    2    4    4    0    0 -0.98766744583E+02  0.24707439943E+03  0.36384806291E+03  0.46028367808E+03  0.93139802066E+02 0.  0.
         23    2    4    4    0    0  0.27914794777E+03 -0.24323553142E+03 -0.26192954109E+03  0.46247050035E+03  0.90469766816E+02 0.  0.
          2    1    3    3  502    0 -0.12729641901E+03  0.94542942523E+01  0.21615231246E+04  0.21652888907E+04  0.00000000000E+00 0. -1.
         -1    1    3    3    0  502 -0.53084784177E+02 -0.13293162265E+02  0.38569334275E+03  0.38955623101E+03  0.00000000000E+00 0.  1.
         11    1    5    5    0    0 -0.57905102045E+02  0.79416770536E+02  0.74286391762E+02  0.12320102388E+03  0.00000000000E+00 0. -1.
        -11    1    5    5    0    0 -0.40861642538E+02  0.16765762889E+03  0.28956167115E+03  0.33708265419E+03  0.00000000000E+00 0.  1.
          2    1    6    6  503    0  0.11888870031E+03 -0.54117905955E+02 -0.11675775092E+03  0.17520172147E+03  0.00000000000E+00 0. -1.
         -2    1    6    6    0  503  0.16025924746E+03 -0.18911762546E+03 -0.14517179018E+03  0.28726877888E+03  0.00000000000E+00 0.  1.
<mgrwt>
<rscale>  0 0.22529493E+04</rscale>
<asrwt>0</asrwt>
<pdfrwt beam="1">  1        2 0.47128724E+00 0.22529493E+04</pdfrwt>
<pdfrwt beam="2">  1       -1 0.63728026E-01 0.22529493E+04</pdfrwt>
<totfact> 0.41109920E+00</totfact>
</mgrwt>
</event>
<event>
12    6  0.1494052E-007  0.1485407E+04  0.7818608E-02  0.8894215E-01
         -1   -1    0    0    0  501 -0.00000000000E+00  0.00000000000E+00  0.65899063514E+03  0.65899063514E+03  0.00000000000E+00 0.  1.
          2   -1    0    0  501    0  0.00000000000E+00 -0.00000000000E+00 -0.83705064699E+03  0.83705064699E+03  0.00000000000E+00 0. -1.
         24    2    1    2    0    0  0.61191727085E+02 -0.10802149829E+03  0.40280504417E+03  0.42834370520E+03  0.76245357998E+02 0.  0.
        254    2    1    2    0    0 -0.61191727085E+02  0.10802149829E+03 -0.58086505602E+03  0.10676975769E+04  0.88722084677E+03 0.  0.
         23    2    4    4    0    0 -0.28248121938E+03  0.25056590079E+03 -0.67066359810E+03  0.77507806955E+03  0.91528368034E+02 0.  0.
         23    2    4    4    0    0  0.22128949229E+03 -0.14254440250E+03  0.89798542075E+02  0.29261950738E+03  0.90964014087E+02 0.  0.
          2    1    3    3  502    0  0.21599583431E+02 -0.82452220170E+01  0.19355497079E+02  0.30152296059E+02  0.00000000000E+00 0. -1.
         -1    1    3    3    0  502  0.39592143654E+02 -0.99776276271E+02  0.38344954709E+03  0.39819140914E+03  0.00000000000E+00 0.  1.
         11    1    5    5    0    0 -0.13755411056E+02 -0.63757577192E+01 -0.42600024206E+02  0.45217515215E+02  0.00000000000E+00 0.  1.
        -11    1    5    5    0    0 -0.26872580832E+03  0.25694165851E+03 -0.62806357389E+03  0.72986055434E+03  0.00000000000E+00 0. -1.
          4    1    6    6  503    0  0.19765521366E+03 -0.14791118628E+03  0.99958635256E+02  0.26634006697E+03  0.00000000000E+00 0. -1.
         -4    1    6    6    0  503  0.23634278636E+02  0.53667837813E+01 -0.10160093181E+02  0.26279440410E+02  0.00000000000E+00 0.  1.
<mgrwt>
<rscale>  0 0.14854071E+04</rscale>
<asrwt>0</asrwt>
<pdfrwt beam="1">  1        2 0.12877702E+00 0.14854071E+04</pdfrwt>
<pdfrwt beam="2">  1       -1 0.10138317E+00 0.14854071E+04</pdfrwt>
<totfact> 0.33058941E+01</totfact>
</mgrwt>
</event>
<event>
12    6  0.1494052E-007  0.2396193E+04  0.7818608E-02  0.8440930E-01
          2   -1    0    0  501    0  0.00000000000E+00  0.00000000000E+00  0.13596942064E+04  0.13596942064E+04  0.00000000000E+00 0. -1.
         -1   -1    0    0    0  501 -0.00000000000E+00 -0.00000000000E+00 -0.10557048555E+04  0.10557048555E+04  0.00000000000E+00 0.  1.
         24    2    1    2    0    0  0.51370211318E+03 -0.79451943729E+03 -0.18041294464E+03  0.96625804997E+03  0.77167293758E+02 0.  0.
        254    2    1    2    0    0 -0.51370211318E+03  0.79451943729E+03  0.48440229554E+03  0.14491410119E+04  0.98499395492E+03 0.  0.
         23    2    4    4    0    0  0.12075237445E+03  0.14300949133E+03  0.49275843089E+03  0.53483842039E+03  0.90600298915E+02 0.  0.
         23    2    4    4    0    0 -0.63445448763E+03  0.65150994596E+03 -0.83561353474E+01  0.91430259155E+03  0.94242757562E+02 0.  0.
          2    1    3    3  502    0  0.23438917503E+02 -0.14358792567E+02 -0.80322956833E+00  0.27499144631E+02  0.00000000000E+00 0. -1.
         -1    1    3    3    0  502  0.49026319568E+03 -0.78016064472E+03 -0.17960971507E+03  0.93875890534E+03  0.00000000000E+00 0.  1.
         11    1    5    5    0    0  0.89382907830E+02  0.15046951232E+03  0.39920436328E+03  0.43588358769E+03  0.00000000000E+00 0. -1.
        -11    1    5    5    0    0  0.31369466623E+02 -0.74600209886E+01  0.93554067604E+02  0.98954832700E+02  0.00000000000E+00 0.  1.
          1    1    6    6  503    0 -0.13073704139E+01 -0.26672969030E+01 -0.25063177447E+01  0.38865561626E+01  0.00000000000E+00 0. -1.
         -1    1    6    6    0  503 -0.63314711722E+03  0.65417724286E+03 -0.58498176027E+01  0.91041603538E+03  0.00000000000E+00 0.  1.
<mgrwt>
<rscale>  0 0.23961935E+04</rscale>
<asrwt>0</asrwt>
<pdfrwt beam="1">  1        2 0.20918372E+00 0.23961935E+04</pdfrwt>
<pdfrwt beam="2">  1       -1 0.16241613E+00 0.23961935E+04</pdfrwt>
<totfact> 0.43838889E+00</totfact>
</mgrwt>
</event>
<event>
12    6  0.1494052E-007  0.2241255E+04  0.7818608E-02  0.8501450E-01
         -1   -1    0    0    0  501 -0.00000000000E+00  0.00000000000E+00  0.13627596167E+04  0.13627596167E+04  0.00000000000E+00 0.  1.
          2   -1    0    0  501    0  0.00000000000E+00 -0.00000000000E+00 -0.92151687171E+03  0.92151687171E+03  0.00000000000E+00 0. -1.
         24    2    1    2    0    0  0.48068134743E+01 -0.91249368714E+03  0.40321203213E+03  0.10008165125E+04  0.79911916071E+02 0.  0.
        254    2    1    2    0    0 -0.48068134743E+01  0.91249368714E+03  0.38030712817E+02  0.12834599759E+04  0.90175126281E+03 0.  0.
         23    2    4    4    0    0  0.61572597463E+02 -0.15532970678E+03  0.89637691105E+02  0.20843088948E+03  0.86544886937E+02 0.  0.
         23    2    4    4    0    0 -0.66379410938E+02  0.10678233939E+04 -0.51606978288E+02  0.10750290864E+04  0.91494423568E+02 0.  0.
          2    1    3    3  502    0 -0.10929407646E+02 -0.70508199187E+03  0.27771154605E+03  0.75788110546E+03  0.00000000000E+00 0. -1.
         -1    1    3    3    0  502  0.15736221120E+02 -0.20741169527E+03  0.12550048608E+03  0.24293540705E+03  0.00000000000E+00 0.  1.
         11    1    5    5    0    0  0.56701418477E+02 -0.16645020930E+03  0.86067458576E+02  0.19577622547E+03  0.00000000000E+00 0. -1.
        -11    1    5    5    0    0  0.48711789858E+01  0.11120502516E+02  0.35702325295E+01  0.12654664011E+02  0.00000000000E+00 0.  1.
          3    1    6    6  503    0 -0.78395568242E+02  0.94810171817E+03 -0.67159447441E+02  0.95370494624E+03  0.00000000000E+00 0. -1.
         -3    1    6    6    0  503  0.12016157305E+02  0.11972167576E+03  0.15552469153E+02  0.12132414013E+03  0.00000000000E+00 0.  1.
<mgrwt>
<rscale>  0 0.22412550E+04</rscale>
<asrwt>0</asrwt>
<pdfrwt beam="1">  1        2 0.14177183E+00 0.22412550E+04</pdfrwt>
<pdfrwt beam="2">  1       -1 0.20965533E+00 0.22412550E+04</pdfrwt>
<totfact> 0.38084119E+00</totfact>
</mgrwt>
</event>
<event>
12    6  0.1494052E-007  0.2435003E+04  0.7818608E-02  0.8426514E-01
         -1   -1    0    0    0  501 -0.00000000000E+00  0.00000000000E+00  0.60689707479E+03  0.60689707479E+03  0.00000000000E+00 0.  1.
          2   -1    0    0  501    0  0.00000000000E+00 -0.00000000000E+00 -0.24424404349E+04  0.24424404349E+04  0.00000000000E+00 0. -1.
         24    2    1    2    0    0 -0.50769264305E+03  0.84327739309E+03 -0.12452835504E+04  0.15889245113E+04  0.71283939048E+02 0.  0.
        254    2    1    2    0    0  0.50769264305E+03 -0.84327739309E+03 -0.59025980969E+03  0.14604129984E+04  0.90306749559E+03 0.  0.
         23    2    4    4    0    0 -0.23770183897E+02 -0.78131447043E+03 -0.28072377610E+03  0.83562792509E+03  0.91928599311E+02 0.  0.
         23    2    4    4    0    0  0.53146282694E+03 -0.61962922662E+02 -0.30953603359E+03  0.62478507335E+03  0.90838822043E+02 0.  0.
          4    1    3    3  502    0 -0.26263485041E+02  0.33376286822E+02 -0.78231820869E+02  0.89016655548E+02  0.00000000000E+00 0. -1.
         -3    1    3    3    0  502 -0.48142915801E+03  0.80990110627E+03 -0.11670517296E+04  0.14999078557E+04  0.00000000000E+00 0.  1.
         11    1    5    5    0    0 -0.41575838140E+02 -0.73724360429E+03 -0.27405178289E+03  0.78763002869E+03  0.00000000000E+00 0.  1.
        -11    1    5    5    0    0  0.17805654243E+02 -0.44070866137E+02 -0.66719932042E+01  0.47997896396E+02  0.00000000000E+00 0. -1.
          4    1    6    6  503    0  0.31944622765E+03 -0.36151096362E+02 -0.23633342379E+03  0.39900661815E+03  0.00000000000E+00 0.  1.
         -4    1    6    6    0  503  0.21201659929E+03 -0.25811826300E+02 -0.73202609797E+02  0.22577845520E+03  0.00000000000E+00 0. -1.
<mgrwt>
<rscale>  0 0.24350030E+04</rscale>
<asrwt>0</asrwt>
<pdfrwt beam="1">  1        2 0.37576008E+00 0.24350030E+04</pdfrwt>
<pdfrwt beam="2">  1       -1 0.93368779E-01 0.24350030E+04</pdfrwt>
<totfact> 0.42665793E+00</totfact>
</mgrwt>
</event>
<event>
12    6  0.1494052E-007  0.4400826E+04  0.7818608E-02  0.7928233E-01
          2   -1    0    0  501    0  0.00000000000E+00  0.00000000000E+00  0.24876875740E+04  0.24876875740E+04  0.00000000000E+00 0. -1.
         -1   -1    0    0    0  501 -0.00000000000E+00 -0.00000000000E+00 -0.19463128310E+04  0.19463128310E+04  0.00000000000E+00 0.  1.
         24    2    1    2    0    0 -0.20660377448E+04  0.42011479183E+03  0.17289200370E+03  0.21168972248E+04  0.79710816008E+02 0.  0.
        254    2    1    2    0    0  0.20660377448E+04 -0.42011479183E+03  0.36848273931E+03  0.23171031802E+04  0.88779458062E+03 0.  0.
         23    2    4    4    0    0  0.13227365488E+04 -0.48027910433E+03 -0.12860655892E+03  0.14161144908E+04  0.92415412335E+02 0.  0.
         23    2    4    4    0    0  0.74330119596E+03  0.60164312497E+02  0.49708929822E+03  0.90098868940E+03  0.92555040930E+02 0.  0.
          4    1    3    3  502    0 -0.12477678753E+04  0.27916356868E+03  0.74784754876E+02  0.12808004248E+04  0.00000000000E+00 0. -1.
         -3    1    3    3    0  502 -0.81826986949E+03  0.14095122315E+03  0.98107248824E+02  0.83609679996E+03  0.00000000000E+00 0.  1.
         11    1    5    5    0    0  0.12223178118E+04 -0.43589937189E+03 -0.14221396876E+03  0.13054860812E+04  0.00000000000E+00 0. -1.
        -11    1    5    5    0    0  0.10041873708E+03 -0.44379732441E+02  0.13607409845E+02  0.11062840960E+03  0.00000000000E+00 0.  1.
          2    1    6    6  503    0  0.37282811307E+03  0.62073867025E+02  0.21069338333E+03  0.43271892568E+03  0.00000000000E+00 0.  1.
         -2    1    6    6    0  503  0.37047308289E+03 -0.19095545286E+01  0.28639591490E+03  0.46826976372E+03  0.00000000000E+00 0. -1.
<mgrwt>
<rscale>  0 0.44008264E+04</rscale>
<asrwt>0</asrwt>
<pdfrwt beam="1">  1        2 0.38272116E+00 0.44008264E+04</pdfrwt>
<pdfrwt beam="2">  1       -1 0.29943274E+00 0.44008264E+04</pdfrwt>
<totfact> 0.10235826E-01</totfact>
</mgrwt>
</event>
<event>
12    6  0.1494052E-007  0.1669465E+04  0.7818608E-02  0.8778974E-01
         -1   -1    0    0    0  501 -0.00000000000E+00  0.00000000000E+00  0.54466664533E+03  0.54466664533E+03  0.00000000000E+00 0.  1.
          2   -1    0    0  501    0  0.00000000000E+00 -0.00000000000E+00 -0.12792749050E+04  0.12792749050E+04  0.00000000000E+00 0. -1.
         24    2    1    2    0    0 -0.30381534463E+03 -0.24644461037E+03 -0.73118643712E+03  0.83370106620E+03  0.85936909134E+02 0.  0.
        254    2    1    2    0    0  0.30381534463E+03  0.24644461037E+03 -0.34218225729E+01  0.99024048416E+03  0.90968444968E+03 0.  0.
         23    2    4    4    0    0  0.16801564456E+03 -0.15188907512E+03 -0.35812822774E+03  0.43238928737E+03  0.86053009113E+02 0.  0.
         23    2    4    4    0    0  0.13579970006E+03  0.39833368548E+03  0.35470640516E+03  0.55785119678E+03  0.90939762260E+02 0.  0.
          2    1    3    3  502    0 -0.13025436335E+03 -0.13728823317E+03 -0.42470408285E+03  0.46496001562E+03  0.00000000000E+00 0. -1.
         -1    1    3    3    0  502 -0.17356098128E+03 -0.10915637720E+03 -0.30648235428E+03  0.36874105059E+03  0.00000000000E+00 0.  1.
         11    1    5    5    0    0  0.20366067766E+02 -0.50029678609E+02 -0.40141479801E+02  0.67298468471E+02  0.00000000000E+00 0. -1.
        -11    1    5    5    0    0  0.14764957680E+03 -0.10185939651E+03 -0.31798674794E+03  0.36509081890E+03  0.00000000000E+00 0.  1.
          2    1    6    6  503    0 -0.16631743108E+01 -0.43933917525E+01  0.64047844641E+01  0.79428775586E+01  0.00000000000E+00 0. -1.
         -2    1    6    6    0  503  0.13746287438E+03  0.40272707723E+03  0.34830162070E+03  0.54990831922E+03  0.00000000000E+00 0.  1.
<mgrwt>
<rscale>  0 0.16694650E+04</rscale>
<asrwt>0</asrwt>
<pdfrwt beam="1">  1        2 0.19681152E+00 0.16694650E+04</pdfrwt>
<pdfrwt beam="2">  1       -1 0.83794869E-01 0.16694650E+04</pdfrwt>
<totfact> 0.26105641E+01</totfact>
</mgrwt>
</event>
<event>
12    6  0.1494052E-007  0.1445060E+04  0.7818608E-02  0.8921832E-01
          2   -1    0    0  501    0  0.00000000000E+00  0.00000000000E+00  0.25557536223E+04  0.25557536223E+04  0.00000000000E+00 0. -1.
         -1   -1    0    0    0  501 -0.00000000000E+00 -0.00000000000E+00 -0.20426445111E+03  0.20426445111E+03  0.00000000000E+00 0.  1.
         24    2    1    2    0    0 -0.16982344197E+03  0.23766292630E+03  0.10205263213E+03  0.31917411975E+03  0.78318012091E+02 0.  0.
        254    2    1    2    0    0  0.16982344197E+03 -0.23766292630E+03  0.22494365390E+04  0.24408439536E+04  0.90134942994E+03 0.  0.
         23    2    4    4    0    0 -0.59180002268E+02  0.22900620751E+03  0.19371547757E+03  0.31869244479E+03  0.89961504935E+02 0.  0.
         23    2    4    4    0    0  0.22900344424E+03 -0.46666913381E+03  0.20557210615E+04  0.21221515088E+04  0.85529445212E+02 0.  0.
          2    1    3    3  502    0 -0.42830731714E+02  0.78255259586E+02  0.68828357463E+02  0.11267519702E+03  0.00000000000E+00 0. -1.
         -1    1    3    3    0  502 -0.12699271025E+03  0.15940766671E+03  0.33224274670E+02  0.20649892274E+03  0.00000000000E+00 0.  1.
         11    1    5    5    0    0 -0.12131271963E+02  0.17847888629E+03  0.16680382845E+03  0.24459230936E+03  0.00000000000E+00 0.  1.
        -11    1    5    5    0    0 -0.47048730305E+02  0.50527321217E+02  0.26911649119E+02  0.74100135431E+02  0.00000000000E+00 0. -1.
          4    1    6    6  503    0  0.97300219790E+02 -0.11211198740E+03  0.55735092943E+03  0.57678114483E+03  0.00000000000E+00 0. -1.
         -4    1    6    6    0  503  0.13170322445E+03 -0.35455714640E+03  0.14983701320E+04  0.15453703640E+04  0.00000000000E+00 0.  1.
<mgrwt>
<rscale>  0 0.14450600E+04</rscale>
<asrwt>0</asrwt>
<pdfrwt beam="1">  1        2 0.39319284E+00 0.14450600E+04</pdfrwt>
<pdfrwt beam="2">  1       -1 0.31425302E-01 0.14450600E+04</pdfrwt>
<totfact> 0.33681732E+01</totfact>
</mgrwt>
</event>
<event>
12    6  0.1494052E-007  0.1238818E+04  0.7818608E-02  0.9079541E-01
          2   -1    0    0  501    0  0.00000000000E+00  0.00000000000E+00  0.16883754937E+04  0.16883754937E+04  0.00000000000E+00 0. -1.
         -1   -1    0    0    0  501 -0.00000000000E+00 -0.00000000000E+00 -0.22724076869E+03  0.22724076869E+03  0.00000000000E+00 0.  1.
         24    2    1    2    0    0 -0.80350722346E+02 -0.55097073237E+02 -0.67127149357E+02  0.14258550297E+03  0.79577920394E+02 0.  0.
        254    2    1    2    0    0  0.80350722346E+02  0.55097073237E+02  0.15282618744E+04  0.17730307594E+04  0.89362284617E+03 0.  0.
         23    2    4    4    0    0 -0.84767357878E+02 -0.24646782924E+03  0.89559100714E+02  0.29107577337E+03  0.93660971130E+02 0.  0.
         23    2    4    4    0    0  0.16511808022E+03  0.30156490247E+03  0.14387027737E+04  0.14819549861E+04  0.90108484469E+02 0.  0.
          2    1    3    3  502    0 -0.69751706799E+02 -0.46283863428E+02 -0.10573208249E+02  0.84375881316E+02  0.00000000000E+00 0. -1.
         -1    1    3    3    0  502 -0.10599015548E+02 -0.88132098086E+01 -0.56553941108E+02  0.58209621650E+02  0.00000000000E+00 0.  1.
         11    1    5    5    0    0 -0.94616854825E+02 -0.19574467858E+03  0.43213857193E+02  0.22166588791E+03  0.00000000000E+00 0. -1.
        -11    1    5    5    0    0  0.98494969469E+01 -0.50723150651E+02  0.46345243522E+02  0.69409885457E+02  0.00000000000E+00 0.  1.
          2    1    6    6  503    0  0.16379469783E+03  0.25851972538E+03  0.13356907418E+04  0.13703032180E+04  0.00000000000E+00 0. -1.
         -2    1    6    6    0  503  0.13233823952E+01  0.43045177088E+02  0.10301203188E+03  0.11165176811E+03  0.00000000000E+00 0.  1.
<mgrwt>
<rscale>  0 0.12388184E+04</rscale>
<asrwt>0</asrwt>
<pdfrwt beam="1">  1        2 0.25975007E+00 0.12388184E+04</pdfrwt>
<pdfrwt beam="2">  1       -1 0.34960119E-01 0.12388184E+04</pdfrwt>
<totfact> 0.86778250E+01</totfact>
</mgrwt>
</event>
<event>
12    6  0.1494052E-007  0.1570161E+04  0.7818608E-02  0.8839092E-01
          2   -1    0    0  501    0  0.00000000000E+00  0.00000000000E+00  0.75776710285E+03  0.75776710285E+03  0.00000000000E+00 0. -1.
         -1   -1    0    0    0  501 -0.00000000000E+00 -0.00000000000E+00 -0.81337881185E+03  0.81337881185E+03  0.00000000000E+00 0.  1.
         24    2    1    2    0    0 -0.20580009167E+03  0.20102707117E+03 -0.46429477247E+03  0.55206064781E+03  0.80223201379E+02 0.  0.
        254    2    1    2    0    0  0.20580009167E+03 -0.20102707117E+03  0.40868306347E+03  0.10190852669E+04  0.88811450486E+03 0.  0.
         23    2    4    4    0    0  0.12183788353E+03  0.34142540802E+03  0.20531788457E+03  0.42662929589E+03  0.91876783180E+02 0.  0.
         23    2    4    4    0    0  0.83962208140E+02 -0.54245247918E+03  0.20336517891E+03  0.59245597100E+03  0.91336394795E+02 0.  0.
          2    1    3    3  502    0 -0.65972282748E+02  0.18358201396E+02 -0.99417308407E+02  0.12071937235E+03  0.00000000000E+00 0. -1.
         -1    1    3    3    0  502 -0.13982780892E+03  0.18266886977E+03 -0.36487746407E+03  0.43134127546E+03  0.00000000000E+00 0.  1.
         11    1    5    5    0    0  0.15129561830E+02  0.12411673439E+03  0.10969761167E+03  0.16633530414E+03  0.00000000000E+00 0.  1.
        -11    1    5    5    0    0  0.10670832170E+03  0.21730867363E+03  0.95620272892E+02  0.26029399175E+03  0.00000000000E+00 0. -1.
          1    1    6    6  503    0  0.13484353563E+02 -0.28300058271E+03  0.14097844475E+03  0.31645865368E+03  0.00000000000E+00 0. -1.
         -1    1    6    6    0  503  0.70477854578E+02 -0.25945189647E+03  0.62386734162E+02  0.27599731732E+03  0.00000000000E+00 0.  1.
<mgrwt>
<rscale>  0 0.15701614E+04</rscale>
<asrwt>0</asrwt>
<pdfrwt beam="1">  1        2 0.11657955E+00 0.15701614E+04</pdfrwt>
<pdfrwt beam="2">  1       -1 0.12513520E+00 0.15701614E+04</pdfrwt>
<totfact> 0.22668593E+01</totfact>
</mgrwt>
</event>
<event>
12    6  0.1494052E-007  0.1439087E+04  0.7818608E-02  0.8926002E-01
         -1   -1    0    0    0  501 -0.00000000000E+00  0.00000000000E+00  0.26794650087E+03  0.26794650087E+03  0.00000000000E+00 0.  1.
          2   -1    0    0  501    0  0.00000000000E+00 -0.00000000000E+00 -0.19322609511E+04  0.19322609511E+04  0.00000000000E+00 0. -1.
         24    2    1    2    0    0  0.40122522180E+03 -0.17370602267E+03 -0.51251380780E+03  0.67784967212E+03  0.75195171968E+02 0.  0.
        254    2    1    2    0    0 -0.40122522180E+03  0.17370602267E+03 -0.11518006425E+04  0.15223577799E+04  0.89430030140E+03 0.  0.
         23    2    4    4    0    0 -0.68400105375E+02 -0.28319458103E+03 -0.95714385080E+02  0.32132889487E+03  0.95985780320E+02 0.  0.
         23    2    4    4    0    0 -0.33282511642E+03  0.45690060370E+03 -0.10560862574E+04  0.12010288850E+04  0.87301087259E+02 0.  0.
          2    1    3    3  502    0  0.13006160901E+03 -0.45635778987E+02 -0.21522917950E+03  0.25558217107E+03  0.00000000000E+00 0. -1.
         -1    1    3    3    0  502  0.27116361278E+03 -0.12807024368E+03 -0.29728462830E+03  0.42226750104E+03  0.00000000000E+00 0.  1.
         11    1    5    5    0    0 -0.92543493934E+01 -0.27859318943E+02  0.19274090342E+02  0.35118018070E+02  0.00000000000E+00 0.  1.
        -11    1    5    5    0    0 -0.59145755981E+02 -0.25533526209E+03 -0.11498847542E+03  0.28621087680E+03  0.00000000000E+00 0. -1.
          2    1    6    6  503    0 -0.24388799016E+03  0.37296528081E+03 -0.76556213421E+03  0.88581591415E+03  0.00000000000E+00 0. -1.
         -2    1    6    6    0  503 -0.88937126263E+02  0.83935322891E+02 -0.29052412317E+03  0.31521297086E+03  0.00000000000E+00 0.  1.
<mgrwt>
<rscale>  0 0.14390866E+04</rscale>
<asrwt>0</asrwt>
<pdfrwt beam="1">  1        2 0.29727093E+00 0.14390866E+04</pdfrwt>
<pdfrwt beam="2">  1       -1 0.41222537E-01 0.14390866E+04</pdfrwt>
<totfact> 0.46441778E+01</totfact>
</mgrwt>
</event>
<event>
12    6  0.1494052E-007  0.2669895E+04  0.7818608E-02  0.8344840E-01
         -1   -1    0    0    0  501 -0.00000000000E+00  0.00000000000E+00  0.32777517241E+04  0.32777517241E+04  0.00000000000E+00 0.  1.
          2   -1    0    0  501    0  0.00000000000E+00 -0.00000000000E+00 -0.54369125045E+03  0.54369125045E+03  0.00000000000E+00 0. -1.
         24    2    1    2    0    0  0.84676009462E+03 -0.10444762843E+01  0.23835105108E+04  0.25307548576E+04  0.81203727037E+02 0.  0.
        254    2    1    2    0    0 -0.84676009462E+03  0.10444762843E+01  0.35054996285E+03  0.12906881170E+04  0.90883815395E+03 0.  0.
         23    2    4    4    0    0 -0.85989812492E+03 -0.12842114094E+03  0.55193398318E+03  0.10337033809E+04  0.89413551553E+02 0.  0.
         23    2    4    4    0    0  0.13138030298E+02  0.12946561723E+03 -0.20138402033E+03  0.25698473608E+03  0.92475278050E+02 0.  0.
          2    1    3    3  502    0  0.11168803643E+03 -0.25349269522E+02  0.28884351149E+03  0.31072073809E+03  0.00000000000E+00 0. -1.
         -1    1    3    3    0  502  0.73507205819E+03  0.24304793237E+02  0.20946669993E+04  0.22200341195E+04  0.00000000000E+00 0.  1.
         11    1    5    5    0    0 -0.39221478876E+03 -0.78982373383E+02  0.20690621022E+03  0.45042295196E+03  0.00000000000E+00 0.  1.
        -11    1    5    5    0    0 -0.46768333616E+03 -0.49438767558E+02  0.34502777297E+03  0.58328042894E+03  0.00000000000E+00 0. -1.
          3    1    6    6  503    0  0.49699979776E+01 -0.12327524057E+02 -0.39253586346E+02  0.41442885641E+02  0.00000000000E+00 0. -1.
         -3    1    6    6    0  503  0.81680323202E+01  0.14179314128E+03 -0.16213043399E+03  0.21554185044E+03  0.00000000000E+00 0.  1.
<mgrwt>
<rscale>  0 0.26698951E+04</rscale>
<asrwt>0</asrwt>
<pdfrwt beam="1">  1        2 0.83644809E-01 0.26698951E+04</pdfrwt>
<pdfrwt beam="2">  1       -1 0.50426949E+00 0.26698951E+04</pdfrwt>
<totfact> 0.78019143E-02</totfact>
</mgrwt>
</event>
<event>
12    6  0.1494052E-007  0.3744177E+04  0.7818608E-02  0.8058242E-01
          2   -1    0    0  501    0  0.00000000000E+00  0.00000000000E+00  0.18799361394E+04  0.18799361394E+04  0.00000000000E+00 0. -1.
         -1   -1    0    0    0  501 -0.00000000000E+00 -0.00000000000E+00 -0.18642739678E+04  0.18642739678E+04  0.00000000000E+00 0.  1.
         24    2    1    2    0    0  0.32334284417E+03 -0.13638705499E+04  0.10767156991E+04  0.17693198679E+04  0.80514761114E+02 0.  0.
        254    2    1    2    0    0 -0.32334284417E+03  0.13638705499E+04 -0.10610535274E+04  0.19748902392E+04  0.89981297903E+03 0.  0.
         23    2    4    4    0    0 -0.68937627787E+02  0.57234174548E+03 -0.97035293269E+03  0.11323552880E+04  0.91193279365E+02 0.  0.
         23    2    4    4    0    0 -0.25440521639E+03  0.79152880438E+03 -0.90700594763E+02  0.84253495121E+03  0.10197393695E+03 0.  0.
          4    1    3    3  502    0  0.29508145313E+03 -0.11554976576E+04  0.94001406645E+03  0.15185105682E+04  0.00000000000E+00 0. -1.
         -1    1    3    3    0  502  0.28261391044E+02 -0.20837289230E+03  0.13670163265E+03  0.25080929974E+03  0.00000000000E+00 0.  1.
         11    1    5    5    0    0 -0.69143524075E+02  0.34370609079E+03 -0.51778320863E+03  0.62531124642E+03  0.00000000000E+00 0. -1.
        -11    1    5    5    0    0  0.20589628835E+00  0.22863565469E+03 -0.45256972406E+03  0.50704404160E+03  0.00000000000E+00 0.  1.
          2    1    6    6  503    0 -0.20352336169E+03  0.67294959291E+03 -0.11148485506E+03  0.71183690987E+03  0.00000000000E+00 0. -1.
         -2    1    6    6    0  503 -0.50881854700E+02  0.11857921148E+03  0.20784260301E+02  0.13069804134E+03  0.00000000000E+00 0.  1.
<mgrwt>
<rscale>  0 0.37441773E+04</rscale>
<asrwt>0</asrwt>
<pdfrwt beam="1">  1        2 0.28922094E+00 0.37441773E+04</pdfrwt>
<pdfrwt beam="2">  1       -1 0.28681138E+00 0.37441773E+04</pdfrwt>
<totfact> 0.28708956E-01</totfact>
</mgrwt>
</event>
<event>
12    6  0.1494052E-007  0.2189594E+04  0.7818608E-02  0.8522772E-01
         -1   -1    0    0    0  501 -0.00000000000E+00  0.00000000000E+00  0.79573604525E+03  0.79573604525E+03  0.00000000000E+00 0.  1.
          2   -1    0    0  501    0  0.00000000000E+00 -0.00000000000E+00 -0.15062538716E+04  0.15062538716E+04  0.00000000000E+00 0. -1.
         24    2    1    2    0    0  0.32036392345E+03  0.83939908079E+03 -0.37233405645E+03  0.97581840104E+03  0.79781212957E+02 0.  0.
        254    2    1    2    0    0 -0.32036392345E+03 -0.83939908079E+03 -0.33818376995E+03  0.13261715159E+04  0.91495287689E+03 0.  0.
         23    2    4    4    0    0  0.39931310114E+01 -0.46513718296E+03  0.26201615416E+03  0.54242292976E+03  0.95925104240E+02 0.  0.
         23    2    4    4    0    0 -0.32435705446E+03 -0.37426189783E+03 -0.60019992411E+03  0.78374858609E+03  0.93500964444E+02 0.  0.
          2    1    3    3  502    0  0.31440601178E+03  0.76773107776E+03 -0.33401334804E+03  0.89433051199E+03  0.00000000000E+00 0. -1.
         -1    1    3    3    0  502  0.59579116716E+01  0.71668003027E+02 -0.38320708406E+02  0.81487889052E+02  0.00000000000E+00 0.  1.
         11    1    5    5    0    0 -0.41306692858E+02 -0.16552544118E+03  0.11401676114E+03  0.20519438680E+03  0.00000000000E+00 0. -1.
        -11    1    5    5    0    0  0.45299823870E+02 -0.29961174178E+03  0.14799939303E+03  0.33722854297E+03  0.00000000000E+00 0.  1.
          4    1    6    6  503    0 -0.32503864387E+03 -0.35215614565E+03 -0.58777135688E+03  0.75837935025E+03  0.00000000000E+00 0.  1.
         -4    1    6    6    0  503  0.68158940454E+00 -0.22105752181E+02 -0.12428567236E+02  0.25369235841E+02  0.00000000000E+00 0. -1.
<mgrwt>
<rscale>  0 0.21895940E+04</rscale>
<asrwt>0</asrwt>
<pdfrwt beam="1">  1        2 0.23173136E+00 0.21895940E+04</pdfrwt>
<pdfrwt beam="2">  1       -1 0.12242093E+00 0.21895940E+04</pdfrwt>
<totfact> 0.77338107E+00</totfact>
</mgrwt>
</event>
<event>
12    6  0.1494052E-007  0.1773380E+04  0.7818608E-02  0.8720585E-01
         -3   -1    0    0    0  501 -0.00000000000E+00  0.00000000000E+00  0.10896221675E+04  0.10896221675E+04  0.00000000000E+00 0.  1.
          2   -1    0    0  501    0  0.00000000000E+00 -0.00000000000E+00 -0.72155248589E+03  0.72155248589E+03  0.00000000000E+00 0. -1.
         24    2    1    2    0    0  0.46533281426E+03 -0.13632896074E+03  0.58912789146E+03  0.76731464942E+03  0.81116491308E+02 0.  0.
        254    2    1    2    0    0 -0.46533281426E+03  0.13632896074E+03 -0.22105820986E+03  0.10438600040E+04  0.89758384688E+03 0.  0.
         23    2    4    4    0    0 -0.47632011988E+03  0.43767281407E+03 -0.29996770100E+03  0.71884689519E+03  0.91224384324E+02 0.  0.
         23    2    4    4    0    0  0.10987305621E+02 -0.30134385333E+03  0.78909491147E+02  0.32501310878E+03  0.92075915761E+02 0.  0.
          4    1    3    3  502    0  0.24597777966E+03 -0.66070824874E+02  0.24638309532E+03  0.35436570326E+03  0.00000000000E+00 0. -1.
         -3    1    3    3    0  502  0.21935503460E+03 -0.70258135864E+02  0.34274479614E+03  0.41294894617E+03  0.00000000000E+00 0.  1.
         11    1    5    5    0    0 -0.14586979004E+03  0.92946421085E+02 -0.10963184366E+03  0.20478323658E+03  0.00000000000E+00 0.  1.
        -11    1    5    5    0    0 -0.33045032984E+03  0.34472639298E+03 -0.19033585734E+03  0.51406365861E+03  0.00000000000E+00 0. -1.
          2    1    6    6  503    0 -0.29948421966E+02 -0.12949656182E+03  0.35686304436E+01  0.13296241057E+03  0.00000000000E+00 0. -1.
         -2    1    6    6    0  503  0.40935727587E+02 -0.17184729151E+03  0.75340860703E+02  0.19205069821E+03  0.00000000000E+00 0.  1.
<mgrwt>
<rscale>  0 0.17733805E+04</rscale>
<asrwt>0</asrwt>
<pdfrwt beam="1">  1        2 0.11100807E+00 0.17733805E+04</pdfrwt>
<pdfrwt beam="2">  1       -3 0.16763418E+00 0.17733805E+04</pdfrwt>
<totfact> 0.56340412E+00</totfact>
</mgrwt>
</event>
<event>
12    6  0.1494052E-007  0.1471694E+04  0.7818608E-02  0.8903498E-01
         -1   -1    0    0    0  501 -0.00000000000E+00  0.00000000000E+00  0.14917262278E+03  0.14917262278E+03  0.00000000000E+00 0.  1.
          2   -1    0    0  501    0  0.00000000000E+00 -0.00000000000E+00 -0.36298245164E+04  0.36298245164E+04  0.00000000000E+00 0. -1.
         24    2    1    2    0    0 -0.21152563846E+03 -0.24676555068E+03 -0.26187166956E+03  0.42496367983E+03  0.79881318985E+02 0.  0.
        254    2    1    2    0    0  0.21152563846E+03  0.24676555068E+03 -0.32187802240E+04  0.33540334593E+04  0.88507512844E+03 0.  0.
         23    2    4    4    0    0  0.32518211216E+03 -0.12224017984E+03 -0.55734732812E+03  0.66319747272E+03  0.92243026960E+02 0.  0.
         23    2    4    4    0    0 -0.11365647370E+03  0.36900573052E+03 -0.26614328959E+04  0.26908359866E+04  0.91050668569E+02 0.  0.
          4    1    3    3  502    0 -0.20682701035E+02 -0.47136877795E+01 -0.11426573031E+01  0.21243790629E+02  0.00000000000E+00 0. -1.
         -3    1    3    3    0  502 -0.19084293742E+03 -0.24205186290E+03 -0.26072901226E+03  0.40371988920E+03  0.00000000000E+00 0.  1.
         11    1    5    5    0    0  0.15588478068E+03 -0.39978171444E+02 -0.33663650347E+03  0.37312525311E+03  0.00000000000E+00 0.  1.
        -11    1    5    5    0    0  0.16929733148E+03 -0.82262008397E+02 -0.22071082466E+03  0.29007221962E+03  0.00000000000E+00 0. -1.
          2    1    6    6  503    0 -0.47412823456E+02  0.28855917061E+03 -0.19407286918E+04  0.19626365497E+04  0.00000000000E+00 0. -1.
         -2    1    6    6    0  503 -0.66243650244E+02  0.80446559917E+02 -0.72070420406E+03  0.72819943693E+03  0.00000000000E+00 0.  1.
<mgrwt>
<rscale>  0 0.14716935E+04</rscale>
<asrwt>0</asrwt>
<pdfrwt beam="1">  1        2 0.55843456E+00 0.14716935E+04</pdfrwt>
<pdfrwt beam="2">  1       -1 0.22949634E-01 0.14716935E+04</pdfrwt>
<totfact> 0.11950250E+01</totfact>
</mgrwt>
</event>
<event>
12    6  0.1494052E-007  0.2061909E+04  0.7818608E-02  0.8578211E-01
          2   -1    0    0  501    0  0.00000000000E+00  0.00000000000E+00  0.38791395874E+04  0.38791395874E+04  0.00000000000E+00 0. -1.
         -1   -1    0    0    0  501 -0.00000000000E+00 -0.00000000000E+00 -0.27399555778E+03  0.27399555778E+03  0.00000000000E+00 0.  1.
         24    2    1    2    0    0  0.26282553990E+03 -0.46630900572E+03  0.17938412021E+03  0.57009098852E+03  0.79395965703E+02 0.  0.
        254    2    1    2    0    0 -0.26282553990E+03  0.46630900572E+03  0.34257599094E+04  0.35830441566E+04  0.90324587925E+03 0.  0.
         23    2    4    4    0    0  0.16922309875E+03 -0.10300626518E+03  0.27453366877E+03  0.35063417077E+03  0.91262470983E+02 0.  0.
         23    2    4    4    0    0 -0.43204863865E+03  0.56931527091E+03  0.31512262406E+04  0.32324099858E+04  0.86380514528E+02 0.  0.
          2    1    3    3  502    0  0.19882243135E+03 -0.29988722424E+03  0.14793460578E+03  0.38903387264E+03  0.00000000000E+00 0. -1.
         -1    1    3    3    0  502  0.64003108547E+02 -0.16642178148E+03  0.31449514430E+02  0.18105711588E+03  0.00000000000E+00 0.  1.
         11    1    5    5    0    0  0.15436646989E+03 -0.90600889551E+02  0.17891864034E+03  0.25307984526E+03  0.00000000000E+00 0. -1.
        -11    1    5    5    0    0  0.14856628854E+02 -0.12405375634E+02  0.95615028429E+02  0.97554325517E+02  0.00000000000E+00 0.  1.
          3    1    6    6  503    0 -0.23449725178E+03  0.28945685335E+03  0.18271152294E+04  0.18647048808E+04  0.00000000000E+00 0. -1.
         -3    1    6    6    0  503 -0.19755138687E+03  0.27985841756E+03  0.13241110112E+04  0.13677051050E+04  0.00000000000E+00 0.  1.
<mgrwt>
<rscale>  0 0.20619088E+04</rscale>
<asrwt>0</asrwt>
<pdfrwt beam="1">  1        2 0.59679067E+00 0.20619088E+04</pdfrwt>
<pdfrwt beam="2">  1       -1 0.42153166E-01 0.20619088E+04</pdfrwt>
<totfact> 0.25037988E+00</totfact>
</mgrwt>
</event>
<event>
12    6  0.1494052E-007  0.1342443E+04  0.7818608E-02  0.8996569E-01
         -1   -1    0    0    0  501 -0.00000000000E+00  0.00000000000E+00  0.40020040647E+03  0.40020040647E+03  0.00000000000E+00 0.  1.
          2   -1    0    0  501    0  0.00000000000E+00 -0.00000000000E+00 -0.11257809470E+04  0.11257809470E+04  0.00000000000E+00 0. -1.
         24    2    1    2    0    0 -0.82464367910E+02  0.41886667438E+03 -0.20303458555E+03  0.47938393639E+03  0.79600582037E+02 0.  0.
        254    2    1    2    0    0  0.82464367910E+02 -0.41886667438E+03 -0.52254595493E+03  0.10465974170E+04  0.80003888371E+03 0.  0.
         23    2    4    4    0    0  0.22708888279E+03  0.15310567520E+03 -0.68199028497E+02  0.29637508030E+03  0.90423294936E+02 0.  0.
         23    2    4    4    0    0 -0.14462451488E+03 -0.57197234959E+03 -0.45434692644E+03  0.75022233673E+03  0.91289681651E+02 0.  0.
          2    1    3    3  502    0 -0.84634891180E+02  0.28813397543E+03 -0.16763034963E+03  0.34392468176E+03  0.00000000000E+00 0. -1.
         -1    1    3    3    0  502  0.21705232699E+01  0.13073269895E+03 -0.35404235917E+02  0.13545925464E+03  0.00000000000E+00 0.  1.
         11    1    5    5    0    0  0.23105634773E+02  0.20529870444E+02 -0.41338444309E+02  0.51616014149E+02  0.00000000000E+00 0.  1.
        -11    1    5    5    0    0  0.20398324802E+03  0.13257580476E+03 -0.26860584188E+02  0.24475906615E+03  0.00000000000E+00 0. -1.
          1    1    6    6  503    0 -0.14156813403E+03 -0.38839562364E+03 -0.31511656058E+03  0.51979913793E+03  0.00000000000E+00 0. -1.
         -1    1    6    6    0  503 -0.30563808543E+01 -0.18357672595E+03 -0.13923036585E+03  0.23042319881E+03  0.00000000000E+00 0.  1.
<mgrwt>
<rscale>  0 0.13424425E+04</rscale>
<asrwt>0</asrwt>
<pdfrwt beam="1">  1        2 0.17319707E+00 0.13424425E+04</pdfrwt>
<pdfrwt beam="2">  1       -1 0.61569294E-01 0.13424425E+04</pdfrwt>
<totfact> 0.62636028E+01</totfact>
</mgrwt>
</event>
<event>
12    6  0.1494052E-007  0.1043042E+04  0.7818608E-02  0.9262558E-01
         -1   -1    0    0    0  501 -0.00000000000E+00  0.00000000000E+00  0.40333363064E+03  0.40333363064E+03  0.00000000000E+00 0.  1.
          2   -1    0    0  501    0  0.00000000000E+00 -0.00000000000E+00 -0.67433995061E+03  0.67433995061E+03  0.00000000000E+00 0. -1.
         24    2    1    2    0    0 -0.10277080209E+03  0.13820499131E+02 -0.94280870517E+01  0.12523313341E+03  0.69581642123E+02 0.  0.
        254    2    1    2    0    0  0.10277080209E+03 -0.13820499131E+02 -0.26157823291E+03  0.95244044783E+03  0.90992680517E+03 0.  0.
         23    2    4    4    0    0  0.22378500562E+03 -0.44257525934E+01 -0.56456746618E+03  0.61350390166E+03  0.86898201664E+02 0.  0.
         23    2    4    4    0    0 -0.12101420352E+03 -0.93947465381E+01  0.30298923327E+03  0.33893654617E+03  0.91338973813E+02 0.  0.
          4    1    3    3  502    0 -0.96619128802E+02  0.34003228146E+02 -0.78188922482E+00  0.10243088853E+03  0.00000000000E+00 0. -1.
         -3    1    3    3    0  502 -0.61516732888E+01 -0.20182729015E+02 -0.86461978269E+01  0.22802244881E+02  0.00000000000E+00 0.  1.
         11    1    5    5    0    0  0.48919629969E+02  0.24765727387E+01 -0.50011916827E+02  0.70003253022E+02  0.00000000000E+00 0.  1.
        -11    1    5    5    0    0  0.17486537565E+03 -0.69023253321E+01 -0.51455554936E+03  0.54350064864E+03  0.00000000000E+00 0. -1.
          1    1    6    6  503    0 -0.12864407624E+02  0.28737145493E+01  0.15326358880E+03  0.15382938234E+03  0.00000000000E+00 0. -1.
         -1    1    6    6    0  503 -0.10814979590E+03 -0.12268461087E+02  0.14972564447E+03  0.18510716383E+03  0.00000000000E+00 0.  1.
<mgrwt>
<rscale>  0 0.10430417E+04</rscale>
<asrwt>0</asrwt>
<pdfrwt beam="1">  1        2 0.10374461E+00 0.10430417E+04</pdfrwt>
<pdfrwt beam="2">  1       -1 0.62051328E-01 0.10430417E+04</pdfrwt>
<totfact> 0.12874336E+02</totfact>
</mgrwt>
</event>
<event>
12    6  0.1494052E-007  0.1509802E+04  0.7818608E-02  0.8877961E-01
          2   -1    0    0  501    0  0.00000000000E+00  0.00000000000E+00  0.21473109655E+04  0.21473109655E+04  0.00000000000E+00 0. -1.
         -1   -1    0    0    0  501 -0.00000000000E+00 -0.00000000000E+00 -0.26539018928E+03  0.26539018928E+03  0.00000000000E+00 0.  1.
         24    2    1    2    0    0 -0.32248145496E+03  0.59443392516E+02  0.44234392382E+02  0.34063949617E+03  0.80936883914E+02 0.  0.
        254    2    1    2    0    0  0.32248145496E+03 -0.59443392516E+02  0.18376863838E+04  0.20720616586E+04  0.89934446462E+03 0.  0.
         23    2    4    4    0    0  0.29751391436E+03 -0.17993428767E+03  0.18789786621E+04  0.19130407474E+04  0.90957196612E+02 0.  0.
         23    2    4    4    0    0  0.24967540599E+02  0.12049089515E+03 -0.41292278289E+02  0.15902091115E+03  0.91875807690E+02 0.  0.
          4    1    3    3  502    0 -0.13686147328E+03  0.46257062140E+02  0.54163678016E+02  0.15428701398E+03  0.00000000000E+00 0. -1.
         -3    1    3    3    0  502 -0.18561998167E+03  0.13186330376E+02 -0.99292856340E+01  0.18635248219E+03  0.00000000000E+00 0.  1.
         11    1    5    5    0    0  0.36138590024E+02 -0.53960294213E+02  0.24284705928E+03  0.25138099618E+03  0.00000000000E+00 0. -1.
        -11    1    5    5    0    0  0.26137532433E+03 -0.12597399345E+03  0.16361316028E+04  0.16616597513E+04  0.00000000000E+00 0.  1.
          2    1    6    6  503    0  0.23271458333E+02  0.26339391616E+02  0.25626976262E+02  0.43497887719E+02  0.00000000000E+00 0. -1.
         -2    1    6    6    0  503  0.16960822656E+01  0.94151503534E+02 -0.66919254551E+02  0.11552302343E+03  0.00000000000E+00 0.  1.
<mgrwt>
<rscale>  0 0.15098017E+04</rscale>
<asrwt>0</asrwt>
<pdfrwt beam="1">  1        2 0.33035552E+00 0.15098017E+04</pdfrwt>
<pdfrwt beam="2">  1       -1 0.40829261E-01 0.15098017E+04</pdfrwt>
<totfact> 0.35688039E+01</totfact>
</mgrwt>
</event>
<event>
12    6  0.1494052E-007  0.1602666E+04  0.7818608E-02  0.8818912E-01
         -1   -1    0    0    0  501 -0.00000000000E+00  0.00000000000E+00  0.49211678296E+03  0.49211678296E+03  0.00000000000E+00 0.  1.
          2   -1    0    0  501    0  0.00000000000E+00 -0.00000000000E+00 -0.13048425050E+04  0.13048425050E+04  0.00000000000E+00 0. -1.
         24    2    1    2    0    0  0.34997012472E+03  0.28960619231E+03  0.47927314464E+02  0.46415054893E+03  0.82388529430E+02 0.  0.
        254    2    1    2    0    0 -0.34997012472E+03 -0.28960619231E+03 -0.86065303650E+03  0.13328087390E+04  0.91066165548E+03 0.  0.
         23    2    4    4    0    0 -0.13147067035E+02  0.11442183054E+03  0.13696599780E+03  0.20126701665E+03  0.92106062572E+02 0.  0.
         23    2    4    4    0    0 -0.33682305769E+03 -0.40402802285E+03 -0.99761903430E+03  0.11315417224E+04  0.91948444356E+02 0.  0.
          2    1    3    3  502    0  0.10174631056E+03  0.53192748628E+02  0.38956892377E+02  0.12124116332E+03  0.00000000000E+00 0. -1.
         -1    1    3    3    0  502  0.24822381416E+03  0.23641344368E+03  0.89704220866E+01  0.34290938561E+03  0.00000000000E+00 0.  1.
         11    1    5    5    0    0  0.25458359514E+02  0.97059648992E+02  0.11796201530E+03  0.15486684793E+03  0.00000000000E+00 0. -1.
        -11    1    5    5    0    0 -0.38605426549E+02  0.17362181548E+02  0.19003982499E+02  0.46400168728E+02  0.00000000000E+00 0.  1.
          3    1    6    6  503    0 -0.22824596078E+03 -0.30154929479E+03 -0.78950626032E+03  0.87541323436E+03  0.00000000000E+00 0. -1.
         -3    1    6    6    0  503 -0.10857709690E+03 -0.10247872806E+03 -0.20811277398E+03  0.25612848801E+03  0.00000000000E+00 0.  1.
<mgrwt>
<rscale>  0 0.16026664E+04</rscale>
<asrwt>0</asrwt>
<pdfrwt beam="1">  1        2 0.20074500E+00 0.16026664E+04</pdfrwt>
<pdfrwt beam="2">  1       -1 0.75710273E-01 0.16026664E+04</pdfrwt>
<totfact> 0.31467263E+01</totfact>
</mgrwt>
</event>
<event>
12    6  0.1494052E-007  0.1814424E+04  0.7818608E-02  0.8698666E-01
         -1   -1    0    0    0  501 -0.00000000000E+00  0.00000000000E+00  0.15665864055E+04  0.15665864055E+04  0.00000000000E+00 0.  1.
          2   -1    0    0  501    0  0.00000000000E+00 -0.00000000000E+00 -0.52536742482E+03  0.52536742482E+03  0.00000000000E+00 0. -1.
         24    2    1    2    0    0  0.60585429602E+02 -0.39776800378E+03 -0.23617834989E+03  0.47340124758E+03  0.80240570398E+02 0.  0.
        254    2    1    2    0    0 -0.60585429602E+02  0.39776800378E+03  0.12773973305E+04  0.16185525827E+04  0.90888863116E+03 0.  0.
         23    2    4    4    0    0 -0.13109410781E+03 -0.26763721351E+03  0.49273580069E+03  0.58302323594E+03  0.91171164370E+02 0.  0.
         23    2    4    4    0    0  0.70508678207E+02  0.66540521729E+03  0.78466152984E+03  0.10355293468E+04  0.94295995146E+02 0.  0.
          2    1    3    3  502    0  0.39997315395E+02 -0.30690131799E+03 -0.21776123609E+03  0.37842854037E+03  0.00000000000E+00 0. -1.
         -1    1    3    3    0  502  0.20588114208E+02 -0.90866685796E+02 -0.18417113799E+02  0.94972707210E+02  0.00000000000E+00 0.  1.
         11    1    5    5    0    0 -0.36112029368E+02 -0.46443025125E+02  0.42847096444E+02  0.72779852443E+02  0.00000000000E+00 0. -1.
        -11    1    5    5    0    0 -0.94982078441E+02 -0.22119418839E+03  0.44988870424E+03  0.51024338350E+03  0.00000000000E+00 0.  1.
          3    1    6    6  503    0  0.74650429152E+02  0.29984687415E+03  0.32931103721E+03  0.45158232221E+03  0.00000000000E+00 0. -1.
         -3    1    6    6    0  503 -0.41417509443E+01  0.36555834315E+03  0.45535049264E+03  0.58394702456E+03  0.00000000000E+00 0.  1.
<mgrwt>
<rscale>  0 0.18144238E+04</rscale>
<asrwt>0</asrwt>
<pdfrwt beam="1">  1        2 0.80825758E-01 0.18144238E+04</pdfrwt>
<pdfrwt beam="2">  1       -1 0.24101329E+00 0.18144238E+04</pdfrwt>
<totfact> 0.49992083E+00</totfact>
</mgrwt>
</event>
<event>
12    6  0.1494052E-007  0.1608230E+04  0.7818608E-02  0.8815508E-01
         -1   -1    0    0    0  501 -0.00000000000E+00  0.00000000000E+00  0.11269887864E+04  0.11269887864E+04  0.00000000000E+00 0.  1.
          2   -1    0    0  501    0  0.00000000000E+00 -0.00000000000E+00 -0.57374205014E+03  0.57374205014E+03  0.00000000000E+00 0. -1.
         24    2    1    2    0    0  0.52810386429E+02 -0.31525977341E+03 -0.28539017407E+03  0.43573494211E+03  0.78991940545E+02 0.  0.
        254    2    1    2    0    0 -0.52810386429E+02  0.31525977341E+03  0.83863691034E+03  0.12649958944E+04  0.89147354639E+03 0.  0.
         23    2    4    4    0    0 -0.31397635090E+03  0.35668931233E+03  0.12964283111E+03  0.50274056836E+03  0.10065982797E+03 0.  0.
         23    2    4    4    0    0  0.26116596447E+03 -0.41429538921E+02  0.70899407923E+03  0.76225532607E+03  0.91850476579E+02 0.  0.
          4    1    3    3  502    0  0.47255027227E+02 -0.17662501988E+03 -0.11498344592E+03  0.21598756465E+03  0.00000000000E+00 0. -1.
         -3    1    3    3    0  502  0.55553592026E+01 -0.13863475353E+03 -0.17040672815E+03  0.21974737746E+03  0.00000000000E+00 0.  1.
         11    1    5    5    0    0 -0.82830965189E+02  0.13203890878E+03  0.84396782816E+02  0.17725140105E+03  0.00000000000E+00 0.  1.
        -11    1    5    5    0    0 -0.23114538571E+03  0.22465040355E+03  0.45246048292E+02  0.32548916731E+03  0.00000000000E+00 0. -1.
          4    1    6    6  503    0  0.19821805670E+03 -0.70588585415E+02  0.52244735137E+03  0.56322675837E+03  0.00000000000E+00 0. -1.
         -4    1    6    6    0  503  0.62947907769E+02  0.29159046493E+02  0.18654672786E+03  0.19902856770E+03  0.00000000000E+00 0.  1.
<mgrwt>
<rscale>  0 0.16082299E+04</rscale>
<asrwt>0</asrwt>
<pdfrwt beam="1">  1        2 0.88268008E-01 0.16082299E+04</pdfrwt>
<pdfrwt beam="2">  1       -1 0.17338289E+00 0.16082299E+04</pdfrwt>
<totfact> 0.13321034E+01</totfact>
</mgrwt>
</event>
<event>
12    6  0.1628595E-007  0.1763464E+04  0.7818608E-02  0.8725974E-01
         -1   -1    0    0    0  501 -0.00000000000E+00  0.00000000000E+00  0.66006368277E+03  0.66006368277E+03  0.00000000000E+00 0.  1.
          2   -1    0    0  501    0  0.00000000000E+00 -0.00000000000E+00 -0.11778425500E+04  0.11778425500E+04  0.00000000000E+00 0. -1.
         24    2    1    2    0    0 -0.37197440100E+02 -0.37875366468E+03  0.36463679847E+03  0.53309283290E+03  0.79937385678E+02 0.  0.
        254    2    1    2    0    0  0.37197440100E+02  0.37875366468E+03 -0.88241566567E+03  0.13048133998E+04  0.88263390674E+03 0.  0.
         23    2    4    4    0    0  0.26853089307E+03  0.40120821807E+03 -0.12457596455E+03  0.50705039222E+03  0.92217430718E+02 0.  0.
         23    2    4    4    0    0 -0.23133345297E+03 -0.22454553385E+02 -0.75783970112E+03  0.79776300762E+03  0.89919020867E+02 0.  0.
          2    1    3    3  502    0  0.65098911803E+01 -0.25712535711E+02  0.56669318896E+02  0.62569360553E+02  0.00000000000E+00 0. -1.
         -1    1    3    3    0  502 -0.43707331281E+02 -0.35304112897E+03  0.30796747958E+03  0.47052347235E+03  0.00000000000E+00 0.  1.
         11    1    5    5    0    0  0.21215394366E+03  0.31873982416E+03 -0.58636763799E+02  0.38735338050E+03  0.00000000000E+00 0.  1.
        -11    1    5    5    0    0  0.56376949410E+02  0.82468393906E+02 -0.65939200755E+02  0.11969701172E+03  0.00000000000E+00 0. -1.
          3    1    6    6  503    0 -0.54453201636E+02  0.14728756387E+02 -0.92807671799E+02  0.10860640579E+03  0.00000000000E+00 0. -1.
         -3    1    6    6    0  503 -0.17688025133E+03 -0.37183309772E+02 -0.66503202932E+03  0.68915660184E+03  0.00000000000E+00 0.  1.
<mgrwt>
<rscale>  0 0.17634637E+04</rscale>
<asrwt>0</asrwt>
<pdfrwt beam="1">  1        2 0.18120655E+00 0.17634637E+04</pdfrwt>
<pdfrwt beam="2">  1       -1 0.10154826E+00 0.17634637E+04</pdfrwt>
<totfact> 0.19401982E+01</totfact>
</mgrwt>
</event>
<event>
12    6  0.1494052E-007  0.2495524E+04  0.7818608E-02  0.8404582E-01
          2   -1    0    0  501    0  0.00000000000E+00  0.00000000000E+00  0.43455719378E+04  0.43455719378E+04  0.00000000000E+00 0. -1.
         -1   -1    0    0    0  501 -0.00000000000E+00 -0.00000000000E+00 -0.35827494374E+03  0.35827494374E+03  0.00000000000E+00 0.  1.
         24    2    1    2    0    0  0.15176479109E+03  0.64348747497E+03  0.11719610445E+03  0.67606862855E+03  0.78899818490E+02 0.  0.
        254    2    1    2    0    0 -0.15176479109E+03 -0.64348747497E+03  0.38701008897E+04  0.40277782530E+04  0.89900393618E+03 0.  0.
         23    2    4    4    0    0  0.35839493029E+03 -0.37269812587E+03  0.20400749987E+04  0.21066156324E+04  0.92588354559E+02 0.  0.
         23    2    4    4    0    0 -0.51015972138E+03 -0.27078934910E+03  0.18300258910E+04  0.19211626206E+04  0.91001320520E+02 0.  0.
          2    1    3    3  502    0  0.10768506984E+03  0.49081715944E+03  0.12200043252E+03  0.51708960906E+03  0.00000000000E+00 0. -1.
         -1    1    3    3    0  502  0.44079721251E+02  0.15267031553E+03 -0.48043280691E+01  0.15897901949E+03  0.00000000000E+00 0.  1.
         11    1    5    5    0    0  0.27404457821E+02 -0.52382276264E+02  0.15007923862E+03  0.16130308441E+03  0.00000000000E+00 0.  1.
        -11    1    5    5    0    0  0.33099047247E+03 -0.32031584960E+03  0.18899957601E+04  0.19453125480E+04  0.00000000000E+00 0. -1.
          3    1    6    6  503    0 -0.11654363363E+03 -0.80108433284E+02  0.57400594560E+03  0.59117053818E+03  0.00000000000E+00 0.  1.
         -3    1    6    6    0  503 -0.39361608775E+03 -0.19068091582E+03  0.12560199454E+04  0.13299920824E+04  0.00000000000E+00 0. -1.
<mgrwt>
<rscale>  0 0.24955236E+04</rscale>
<asrwt>0</asrwt>
<pdfrwt beam="1">  1        2 0.66854949E+00 0.24955236E+04</pdfrwt>
<pdfrwt beam="2">  1       -1 0.55119225E-01 0.24955236E+04</pdfrwt>
<totfact> 0.58509770E-01</totfact>
</mgrwt>
</event>
<event>
12    6  0.1494052E-007  0.1338833E+04  0.7818608E-02  0.8999324E-01
          2   -1    0    0  501    0  0.00000000000E+00  0.00000000000E+00  0.24420712070E+04  0.24420712070E+04  0.00000000000E+00 0. -1.
         -1   -1    0    0    0  501 -0.00000000000E+00 -0.00000000000E+00 -0.18349946348E+03  0.18349946348E+03  0.00000000000E+00 0.  1.
         24    2    1    2    0    0  0.22436894459E+03  0.92901911209E+02  0.11617983565E+04  0.11895729948E+04  0.79600882220E+02 0.  0.
        254    2    1    2    0    0 -0.22436894459E+03 -0.92901911209E+02  0.10967733870E+04  0.14359976756E+04  0.89454193508E+03 0.  0.
         23    2    4    4    0    0 -0.45047557920E+03  0.23501287298E+03  0.63710692040E+03  0.81995604743E+03  0.90903211094E+02 0.  0.
         23    2    4    4    0    0  0.22610663461E+03 -0.32791478419E+03  0.45966646661E+03  0.61604162821E+03  0.97784003104E+02 0.  0.
          2    1    3    3  502    0  0.22345763429E+03  0.82888325585E+02  0.11481183672E+04  0.11725952303E+04  0.00000000000E+00 0. -1.
         -1    1    3    3    0  502  0.91131029407E+00  0.10013585624E+02  0.13679989282E+02  0.16977764584E+02  0.00000000000E+00 0.  1.
         11    1    5    5    0    0 -0.25538711945E+03  0.18214006269E+03  0.40212136788E+03  0.50999919385E+03  0.00000000000E+00 0. -1.
        -11    1    5    5    0    0 -0.19508845975E+03  0.52872810290E+02  0.23498555251E+03  0.30995685359E+03  0.00000000000E+00 0.  1.
          3    1    6    6  503    0  0.76350135373E+02 -0.16870780268E+03  0.15744599945E+03  0.24306564669E+03  0.00000000000E+00 0. -1.
         -3    1    6    6    0  503  0.14975649923E+03 -0.15920698150E+03  0.30222046716E+03  0.37297598152E+03  0.00000000000E+00 0.  1.
<mgrwt>
<rscale>  0 0.13388335E+04</rscale>
<asrwt>0</asrwt>
<pdfrwt beam="1">  1        2 0.37570324E+00 0.13388335E+04</pdfrwt>
<pdfrwt beam="2">  1       -1 0.28230688E-01 0.13388335E+04</pdfrwt>
<totfact> 0.47696079E+01</totfact>
</mgrwt>
</event>
<event>
12    6  0.1494052E-007  0.1686641E+04  0.7818608E-02  0.8769020E-01
          2   -1    0    0  501    0  0.00000000000E+00  0.00000000000E+00  0.13703236903E+04  0.13703236903E+04  0.00000000000E+00 0. -1.
         -1   -1    0    0    0  501 -0.00000000000E+00 -0.00000000000E+00 -0.51899393742E+03  0.51899393742E+03  0.00000000000E+00 0.  1.
         24    2    1    2    0    0 -0.37945647784E+03 -0.66261771509E+01  0.82297586364E+03  0.90993041753E+03  0.81565726878E+02 0.  0.
        254    2    1    2    0    0  0.37945647784E+03  0.66261771509E+01  0.28353889214E+02  0.97938721017E+03  0.90242132045E+03 0.  0.
         23    2    4    4    0    0  0.56966406324E+02 -0.32234512292E+03 -0.25974843035E+03  0.42800514117E+03  0.92561353031E+02 0.  0.
         23    2    4    4    0    0  0.32249007152E+03  0.32897130007E+03  0.28810231957E+03  0.55138206900E+03  0.93793800292E+02 0.  0.
          4    1    3    3  502    0 -0.23340975059E+03  0.24923220881E+02  0.43721756193E+03  0.49624638545E+03  0.00000000000E+00 0. -1.
         -1    1    3    3    0  502 -0.14604672726E+03 -0.31549398032E+02  0.38575830171E+03  0.41368403208E+03  0.00000000000E+00 0.  1.
         11    1    5    5    0    0  0.34092596059E+02 -0.20079997626E+03 -0.21583441484E+03  0.29676157130E+03  0.00000000000E+00 0. -1.
        -11    1    5    5    0    0  0.22873810266E+02 -0.12154514666E+03 -0.43914015514E+02  0.13124356987E+03  0.00000000000E+00 0.  1.
          4    1    6    6  503    0  0.14364631741E+03  0.82656954263E+02  0.10243873378E+03  0.19483359765E+03  0.00000000000E+00 0.  1.
         -4    1    6    6    0  503  0.17884375411E+03  0.24631434581E+03  0.18566358578E+03  0.35654847135E+03  0.00000000000E+00 0. -1.
<mgrwt>
<rscale>  0 0.16866413E+04</rscale>
<asrwt>0</asrwt>
<pdfrwt beam="1">  1        2 0.21081903E+00 0.16866413E+04</pdfrwt>
<pdfrwt beam="2">  1       -1 0.79845221E-01 0.16866413E+04</pdfrwt>
<totfact> 0.25595117E+01</totfact>
</mgrwt>
</event>
<event>
12    6  0.1494052E-007  0.1356948E+04  0.7818608E-02  0.8985585E-01
          2   -1    0    0  501    0  0.00000000000E+00  0.00000000000E+00  0.64106787067E+03  0.64106787067E+03  0.00000000000E+00 0. -1.
         -1   -1    0    0    0  501 -0.00000000000E+00 -0.00000000000E+00 -0.71806259358E+03  0.71806259358E+03  0.00000000000E+00 0.  1.
         24    2    1    2    0    0 -0.14604997022E+03 -0.31617772097E+03  0.11924708027E+03  0.37718327303E+03  0.82148708236E+02 0.  0.
        254    2    1    2    0    0  0.14604997022E+03  0.31617772097E+03 -0.19624180318E+03  0.98194719122E+03  0.89688934434E+03 0.  0.
         23    2    4    4    0    0  0.38126657509E+03 -0.23621443976E+02  0.16443355568E+03  0.42605763882E+03  0.92544818718E+02 0.  0.
         23    2    4    4    0    0 -0.23521660487E+03  0.33979916495E+03 -0.36067535886E+03  0.55588955239E+03  0.90200644495E+02 0.  0.
          4    1    3    3  502    0 -0.56532521954E+02 -0.93212761307E+02  0.76416537917E+02  0.13313163477E+03  0.00000000000E+00 0. -1.
         -3    1    3    3    0  502 -0.89517448267E+02 -0.22296495966E+03  0.42830542349E+02  0.24405163826E+03  0.00000000000E+00 0.  1.
         11    1    5    5    0    0  0.24608455123E+03 -0.52074313042E+02  0.13238521854E+03  0.28424494106E+03  0.00000000000E+00 0.  1.
        -11    1    5    5    0    0  0.13518202386E+03  0.28452869066E+02  0.32048337144E+02  0.14181269777E+03  0.00000000000E+00 0. -1.
          1    1    6    6  503    0 -0.12280977909E+02  0.71570617925E+02 -0.44744296054E+02  0.85294945911E+02  0.00000000000E+00 0. -1.
         -1    1    6    6    0  503 -0.22293562696E+03  0.26822854702E+03 -0.31593106281E+03  0.47059460648E+03  0.00000000000E+00 0.  1.
<mgrwt>
<rscale>  0 0.13569478E+04</rscale>
<asrwt>0</asrwt>
<pdfrwt beam="1">  1        2 0.98625827E-01 0.13569478E+04</pdfrwt>
<pdfrwt beam="2">  1       -1 0.11047117E+00 0.13569478E+04</pdfrwt>
<totfact> 0.38562317E+01</totfact>
</mgrwt>
</event>
<event>
12    6  0.1494052E-007  0.1475949E+04  0.7818608E-02  0.8900606E-01
          2   -1    0    0  501    0  0.00000000000E+00  0.00000000000E+00  0.57161204383E+03  0.57161204383E+03  0.00000000000E+00 0. -1.
         -1   -1    0    0    0  501 -0.00000000000E+00 -0.00000000000E+00 -0.95275550197E+03  0.95275550197E+03  0.00000000000E+00 0.  1.
         24    2    1    2    0    0  0.83485243634E+02 -0.82254738140E+00  0.36216950714E+03  0.38000523630E+03  0.79162903049E+02 0.  0.
        254    2    1    2    0    0 -0.83485243634E+02  0.82254738140E+00 -0.74331296529E+03  0.11443623095E+04  0.86607186108E+03 0.  0.
         23    2    4    4    0    0 -0.18574120100E+02  0.20230258443E+03 -0.85891753646E+03  0.88679827180E+03  0.86026198491E+02 0.  0.
         23    2    4    4    0    0 -0.64911123534E+02 -0.20148003705E+03  0.11560457117E+03  0.25756403771E+03  0.90372326278E+02 0.  0.
          2    1    3    3  502    0  0.92438090770E+02 -0.11274227545E+02  0.24621687777E+03  0.26323878842E+03  0.00000000000E+00 0. -1.
         -1    1    3    3    0  502 -0.89528471361E+01  0.10451680164E+02  0.11595262938E+03  0.11676644788E+03  0.00000000000E+00 0.  1.
         11    1    5    5    0    0 -0.27007347247E+02  0.99330990631E+02 -0.27139423821E+03  0.29026001282E+03  0.00000000000E+00 0. -1.
        -11    1    5    5    0    0  0.84332271472E+01  0.10297159380E+03 -0.58752329824E+03  0.59653825898E+03  0.00000000000E+00 0.  1.
          3    1    6    6  503    0 -0.39563276666E+02 -0.88074949815E+02  0.42910531795E+01  0.96648139056E+02  0.00000000000E+00 0. -1.
         -3    1    6    6    0  503 -0.25347846868E+02 -0.11340508723E+03  0.11131351799E+03  0.16091589865E+03  0.00000000000E+00 0.  1.
<mgrwt>
<rscale>  0 0.14759492E+04</rscale>
<asrwt>0</asrwt>
<pdfrwt beam="1">  1        2 0.87940316E-01 0.14759492E+04</pdfrwt>
<pdfrwt beam="2">  1       -1 0.14657777E+00 0.14759492E+04</pdfrwt>
<totfact> 0.21593216E+01</totfact>
</mgrwt>
</event>
<event>
12    6  0.1494052E-007  0.1382394E+04  0.7818608E-02  0.8966662E-01
          2   -1    0    0  501    0  0.00000000000E+00  0.00000000000E+00  0.16952294559E+04  0.16952294559E+04  0.00000000000E+00 0. -1.
         -1   -1    0    0    0  501 -0.00000000000E+00 -0.00000000000E+00 -0.28182218995E+03  0.28182218995E+03  0.00000000000E+00 0.  1.
         24    2    1    2    0    0  0.13118518226E+03 -0.30462387303E+03  0.11368320792E+03  0.36030471367E+03  0.83008185537E+02 0.  0.
        254    2    1    2    0    0 -0.13118518226E+03  0.30462387303E+03  0.12997240581E+04  0.16167469322E+04  0.90254238662E+03 0.  0.
         23    2    4    4    0    0 -0.42235426230E+03  0.42867519450E+03  0.10073817034E+04  0.11769076471E+04  0.90267205157E+02 0.  0.
         23    2    4    4    0    0  0.29116908004E+03 -0.12405132147E+03  0.29234235470E+03  0.43983928509E+03  0.88466834625E+02 0.  0.
          4    1    3    3  502    0  0.74116111634E+02 -0.10133928226E+03  0.73150705227E+02  0.14530613824E+03  0.00000000000E+00 0. -1.
         -3    1    3    3    0  502  0.57069070624E+02 -0.20328459076E+03  0.40532502691E+02  0.21499857543E+03  0.00000000000E+00 0.  1.
         11    1    5    5    0    0 -0.40676042435E+03  0.41226948531E+03  0.92395142060E+03  0.10904615532E+04  0.00000000000E+00 0.  1.
        -11    1    5    5    0    0 -0.15593837940E+02  0.16405709188E+02  0.83430282759E+02  0.86446093936E+02  0.00000000000E+00 0. -1.
          3    1    6    6  503    0  0.15646630938E+02 -0.84683980133E+01 -0.48274125085E+01  0.18434607025E+02  0.00000000000E+00 0. -1.
         -3    1    6    6    0  503  0.27552244910E+03 -0.11558292346E+03  0.29716976721E+03  0.42140467806E+03  0.00000000000E+00 0.  1.
<mgrwt>
<rscale>  0 0.13823940E+04</rscale>
<asrwt>0</asrwt>
<pdfrwt beam="1">  1        2 0.26080453E+00 0.13823940E+04</pdfrwt>
<pdfrwt beam="2">  1       -1 0.43357261E-01 0.13823940E+04</pdfrwt>
<totfact> 0.57499740E+01</totfact>
</mgrwt>
</event>
<event>
12    6  0.1494052E-007  0.1473054E+04  0.7818608E-02  0.8902572E-01
         -1   -1    0    0    0  501 -0.00000000000E+00  0.00000000000E+00  0.17140390208E+03  0.17140390208E+03  0.00000000000E+00 0.  1.
          2   -1    0    0  501    0  0.00000000000E+00 -0.00000000000E+00 -0.31648748341E+04  0.31648748341E+04  0.00000000000E+00 0. -1.
         24    2    1    2    0    0 -0.18456158685E+03 -0.17891130410E+03 -0.95959864130E+02  0.29143821976E+03  0.98263453727E+02 0.  0.
        254    2    1    2    0    0  0.18456158685E+03  0.17891130410E+03 -0.28975110679E+04  0.30448405164E+04  0.89967280039E+03 0.  0.
         23    2    4    4    0    0  0.39112504553E+03 -0.22007264045E+03 -0.11338481215E+04  0.12226879689E+04  0.89126529197E+02 0.  0.
         23    2    4    4    0    0 -0.20656345868E+03  0.39898394454E+03 -0.17636629464E+04  0.18221525476E+04  0.88748339008E+02 0.  0.
          4    1    3    3  502    0 -0.85261538439E+02 -0.46711744835E+02 -0.78926471910E+02  0.12522342038E+03  0.00000000000E+00 0. -1.
         -3    1    3    3    0  502 -0.99300048416E+02 -0.13219955926E+03 -0.17033392220E+02  0.16621479939E+03  0.00000000000E+00 0.  1.
         11    1    5    5    0    0  0.61965947626E+02 -0.37303530323E+02 -0.10846216559E+03  0.13036630471E+03  0.00000000000E+00 0. -1.
        -11    1    5    5    0    0  0.32915909791E+03 -0.18276911012E+03 -0.10253859560E+04  0.10923216642E+04  0.00000000000E+00 0.  1.
          2    1    6    6  503    0 -0.62165889678E+02  0.10387114545E+03 -0.64414529766E+03  0.65542122119E+03  0.00000000000E+00 0. -1.
         -2    1    6    6    0  503 -0.14439756900E+03  0.29511279909E+03 -0.11195176487E+04  0.11667313264E+04  0.00000000000E+00 0.  1.
<mgrwt>
<rscale>  0 0.14730538E+04</rscale>
<asrwt>0</asrwt>
<pdfrwt beam="1">  1        2 0.48690374E+00 0.14730538E+04</pdfrwt>
<pdfrwt beam="2">  1       -1 0.26369835E-01 0.14730538E+04</pdfrwt>
<totfact> 0.19444653E+01</totfact>
</mgrwt>
</event>
<event>
12    6  0.1494052E-007  0.2304588E+04  0.7818608E-02  0.8476114E-01
          2   -1    0    0  501    0  0.00000000000E+00  0.00000000000E+00  0.58230799923E+03  0.58230799923E+03  0.00000000000E+00 0. -1.
         -1   -1    0    0    0  501 -0.00000000000E+00 -0.00000000000E+00 -0.22802051387E+04  0.22802051387E+04  0.00000000000E+00 0.  1.
         24    2    1    2    0    0 -0.36957791109E+03 -0.88921830766E+03 -0.59976974578E+03  0.11371477217E+04  0.78001038249E+02 0.  0.
        254    2    1    2    0    0  0.36957791109E+03  0.88921830766E+03 -0.10981273937E+04  0.17253654162E+04  0.91853416688E+03 0.  0.
         23    2    4    4    0    0 -0.22470816969E+03  0.19736826085E+03 -0.61048999672E+03  0.68684790433E+03  0.98051087024E+02 0.  0.
         23    2    4    4    0    0  0.59428608077E+03  0.69185004681E+03 -0.48763739697E+03  0.10385175119E+04  0.94318389203E+02 0.  0.
          2    1    3    3  502    0  0.18827383926E+01 -0.82391598747E+00  0.88847325442E+00  0.22389564831E+01  0.00000000000E+00 0. -1.
         -1    1    3    3    0  502 -0.37146064948E+03 -0.88839439167E+03 -0.60065821903E+03  0.11349087652E+04  0.00000000000E+00 0.  1.
         11    1    5    5    0    0 -0.10386570958E+03  0.32972710690E+02 -0.17922566944E+03  0.20975491856E+03  0.00000000000E+00 0.  1.
        -11    1    5    5    0    0 -0.12084246011E+03  0.16439555016E+03 -0.43126432728E+03  0.47709298577E+03  0.00000000000E+00 0. -1.
          3    1    6    6  503    0  0.10460793808E+03  0.11972070019E+03 -0.46023162529E+02  0.16551132363E+03  0.00000000000E+00 0. -1.
         -3    1    6    6    0  503  0.48967814270E+03  0.57212934662E+03 -0.44161423444E+03  0.87300618827E+03  0.00000000000E+00 0.  1.
<mgrwt>
<rscale>  0 0.23045882E+04</rscale>
<asrwt>0</asrwt>
<pdfrwt beam="1">  1        2 0.89585848E-01 0.23045882E+04</pdfrwt>
<pdfrwt beam="2">  1       -1 0.35080078E+00 0.23045882E+04</pdfrwt>
<totfact> 0.81699448E-01</totfact>
</mgrwt>
</event>
<event>
12    6  0.1494052E-007  0.1128476E+04  0.7818608E-02  0.9177873E-01
         -1   -1    0    0    0  501 -0.00000000000E+00  0.00000000000E+00  0.99185196618E+02  0.99185196618E+02  0.00000000000E+00 0.  1.
          2   -1    0    0  501    0  0.00000000000E+00 -0.00000000000E+00 -0.32098008182E+04  0.32098008182E+04  0.00000000000E+00 0. -1.
         24    2    1    2    0    0 -0.81105966344E+02 -0.42128452670E+02 -0.71631254920E+02  0.13749405423E+03  0.73624683134E+02 0.  0.
        254    2    1    2    0    0  0.81105966344E+02  0.42128452670E+02 -0.30389843666E+04  0.31714919606E+04  0.90254212697E+03 0.  0.
         23    2    4    4    0    0 -0.23972711458E+03  0.35833181148E+03 -0.12722741973E+04  0.13460799101E+04  0.85899444893E+02 0.  0.
         23    2    4    4    0    0  0.32083308092E+03 -0.31620335881E+03 -0.17667101694E+04  0.18254120505E+04  0.89139787131E+02 0.  0.
          2    1    3    3  502    0 -0.85366299453E+02 -0.52911299984E+02 -0.75082913590E+02  0.12539718761E+03  0.00000000000E+00 0. -1.
         -1    1    3    3    0  502  0.42603331087E+01  0.10782847314E+02  0.34516586694E+01  0.12096866618E+02  0.00000000000E+00 0.  1.
         11    1    5    5    0    0 -0.16308709576E+03  0.17662467474E+03 -0.76201678102E+03  0.79903895467E+03  0.00000000000E+00 0. -1.
        -11    1    5    5    0    0 -0.76640018815E+02  0.18170713674E+03 -0.51025741627E+03  0.54704095540E+03  0.00000000000E+00 0.  1.
          4    1    6    6  503    0  0.26112456103E+03 -0.22055520745E+03 -0.12073547963E+04  0.12548052598E+04  0.00000000000E+00 0. -1.
         -4    1    6    6    0  503  0.59708519897E+02 -0.95648151360E+02 -0.55935537305E+03  0.57060679068E+03  0.00000000000E+00 0.  1.
<mgrwt>
<rscale>  0 0.11284764E+04</rscale>
<asrwt>0</asrwt>
<pdfrwt beam="1">  1        2 0.49381555E+00 0.11284764E+04</pdfrwt>
<pdfrwt beam="2">  1       -1 0.15259260E-01 0.11284764E+04</pdfrwt>
<totfact> 0.47198161E+01</totfact>
</mgrwt>
</event>
<event>
12    6  0.1494052E-007  0.2147376E+04  0.7818608E-02  0.8540656E-01
          2   -1    0    0  501    0  0.00000000000E+00  0.00000000000E+00  0.17314716602E+04  0.17314716602E+04  0.00000000000E+00 0. -1.
         -1   -1    0    0    0  501 -0.00000000000E+00 -0.00000000000E+00 -0.66579523767E+03  0.66579523767E+03  0.00000000000E+00 0.  1.
         24    2    1    2    0    0 -0.50903261994E+03 -0.17562941267E+03 -0.36873600822E+03  0.65740136957E+03  0.79059586358E+02 0.  0.
        254    2    1    2    0    0  0.50903261994E+03  0.17562941267E+03  0.14344124307E+04  0.17398655283E+04  0.82439865133E+03 0.  0.
         23    2    4    4    0    0  0.44211122869E+03  0.31536637871E+03  0.14579862787E+04  0.15585265216E+04  0.91447461735E+02 0.  0.
         23    2    4    4    0    0  0.66921391247E+02 -0.13973696603E+03 -0.23573847945E+02  0.18133900672E+03  0.91231665385E+02 0.  0.
          2    1    3    3  502    0 -0.16851493482E+03 -0.77268374301E+02 -0.87793622211E+02  0.20512290224E+03  0.00000000000E+00 0. -1.
         -1    1    3    3    0  502 -0.34051768512E+03 -0.98361038372E+02 -0.28094238601E+03  0.45227846733E+03  0.00000000000E+00 0.  1.
         11    1    5    5    0    0  0.44348958653E+03  0.31929118954E+03  0.14490655449E+04  0.15486835799E+04  0.00000000000E+00 0. -1.
        -11    1    5    5    0    0 -0.13783578409E+01 -0.39248108369E+01  0.89207337243E+01  0.98429416651E+01  0.00000000000E+00 0.  1.
          2    1    6    6  503    0  0.10081114269E+02  0.13161545104E+02 -0.39328656726E+01  0.17038854622E+02  0.00000000000E+00 0.  1.
         -2    1    6    6    0  503  0.56840276978E+02 -0.15289851114E+03 -0.19640982273E+02  0.16430015210E+03  0.00000000000E+00 0. -1.
<mgrwt>
<rscale>  0 0.21473757E+04</rscale>
<asrwt>0</asrwt>
<pdfrwt beam="1">  1        2 0.26638026E+00 0.21473757E+04</pdfrwt>
<pdfrwt beam="2">  1       -1 0.10243004E+00 0.21473757E+04</pdfrwt>
<totfact> 0.88796268E+00</totfact>
</mgrwt>
</event>
<event>
12    6  0.1494052E-007  0.1090951E+04  0.7818608E-02  0.9214057E-01
          2   -1    0    0  501    0  0.00000000000E+00  0.00000000000E+00  0.37179005610E+03  0.37179005610E+03  0.00000000000E+00 0. -1.
         -1   -1    0    0    0  501 -0.00000000000E+00 -0.00000000000E+00 -0.80029960656E+03  0.80029960656E+03  0.00000000000E+00 0.  1.
         24    2    1    2    0    0  0.29885562246E+02  0.11501037872E+03 -0.17398139386E+03  0.22468870140E+03  0.78070180504E+02 0.  0.
        254    2    1    2    0    0 -0.29885562246E+02 -0.11501037872E+03 -0.25452815660E+03  0.94740096126E+03  0.90480023477E+03 0.  0.
         23    2    4    4    0    0 -0.84185253749E+02  0.34788027526E+03 -0.29298437212E+03  0.47067410135E+03  0.87100083329E+02 0.  0.
         23    2    4    4    0    0  0.54299691503E+02 -0.46289065397E+03  0.38456215519E+02  0.47672685990E+03  0.92592680094E+02 0.  0.
          4    1    3    3  502    0  0.13989278904E+02  0.14359595850E+02  0.31946042169E+01  0.20300330375E+02  0.00000000000E+00 0. -1.
         -3    1    3    3    0  502  0.15896283342E+02  0.10065078287E+03 -0.17717599808E+03  0.20438837103E+03  0.00000000000E+00 0.  1.
         11    1    5    5    0    0 -0.68174523788E+02  0.14960098045E+03 -0.17157582695E+03  0.23762677341E+03  0.00000000000E+00 0. -1.
        -11    1    5    5    0    0 -0.16010729961E+02  0.19827929480E+03 -0.12140854517E+03  0.23304732794E+03  0.00000000000E+00 0.  1.
          2    1    6    6  503    0  0.18200943945E+02 -0.14156760557E+03  0.54991565738E+02  0.15295990850E+03  0.00000000000E+00 0. -1.
         -2    1    6    6    0  503  0.36098747559E+02 -0.32132304841E+03 -0.16535350219E+02  0.32376695140E+03  0.00000000000E+00 0.  1.
<mgrwt>
<rscale>  0 0.10909508E+04</rscale>
<asrwt>0</asrwt>
<pdfrwt beam="1">  1        2 0.57198470E-01 0.10909508E+04</pdfrwt>
<pdfrwt beam="2">  1       -1 0.12312302E+00 0.10909508E+04</pdfrwt>
<totfact> 0.57090249E+01</totfact>
</mgrwt>
</event>
<event>
12    6  0.1494052E-007  0.1359274E+04  0.7818608E-02  0.8983837E-01
          2   -1    0    0  501    0  0.00000000000E+00  0.00000000000E+00  0.19960347774E+04  0.19960347774E+04  0.00000000000E+00 0. -1.
         -1   -1    0    0    0  501 -0.00000000000E+00 -0.00000000000E+00 -0.23141216131E+03  0.23141216131E+03  0.00000000000E+00 0.  1.
         24    2    1    2    0    0  0.31680556201E+03 -0.30678157793E+02  0.77188260898E+03  0.83870325783E+03  0.79457404668E+02 0.  0.
        254    2    1    2    0    0 -0.31680556201E+03  0.30678157793E+02  0.99274000709E+03  0.13887436809E+04  0.91747990493E+03 0.  0.
         23    2    4    4    0    0 -0.22283969739E+03  0.43261766080E+03  0.30570095804E+03  0.58227993987E+03  0.93708491929E+02 0.  0.
         23    2    4    4    0    0 -0.93965864626E+02 -0.40193950301E+03  0.68703904905E+03  0.80646374098E+03  0.89309365728E+02 0.  0.
          2    1    3    3  502    0  0.23345850040E+03 -0.48630452767E+01  0.47546989071E+03  0.52971514759E+03  0.00000000000E+00 0. -1.
         -1    1    3    3    0  502  0.83347061614E+02 -0.25815112516E+02  0.29641271827E+03  0.30898811024E+03  0.00000000000E+00 0.  1.
         11    1    5    5    0    0 -0.62098006932E+02  0.10870331190E+03  0.33268604309E+02  0.12953521728E+03  0.00000000000E+00 0.  1.
        -11    1    5    5    0    0 -0.16074169045E+03  0.32391434890E+03  0.27243235373E+03  0.45274472259E+03  0.00000000000E+00 0. -1.
          3    1    6    6  503    0 -0.39002230330E+02 -0.23287787588E+03  0.31061394520E+03  0.39017214406E+03  0.00000000000E+00 0. -1.
         -3    1    6    6    0  503 -0.54963634297E+02 -0.16906162713E+03  0.37642510385E+03  0.41629159693E+03  0.00000000000E+00 0.  1.
<mgrwt>
<rscale>  0 0.13592744E+04</rscale>
<asrwt>0</asrwt>
<pdfrwt beam="1">  1        2 0.30708226E+00 0.13592744E+04</pdfrwt>
<pdfrwt beam="2">  1       -1 0.35601872E-01 0.13592744E+04</pdfrwt>
<totfact> 0.56232924E+01</totfact>
</mgrwt>
</event>
<event>
12    6  0.1494052E-007  0.1603932E+04  0.7818608E-02  0.8818136E-01
         -1   -1    0    0    0  501 -0.00000000000E+00  0.00000000000E+00  0.56146964854E+03  0.56146964854E+03  0.00000000000E+00 0.  1.
          2   -1    0    0  501    0  0.00000000000E+00 -0.00000000000E+00 -0.11454743884E+04  0.11454743884E+04  0.00000000000E+00 0. -1.
         24    2    1    2    0    0  0.16628859347E+03 -0.36626116768E+03  0.22783943212E+03  0.46923363743E+03  0.80437928911E+02 0.  0.
        254    2    1    2    0    0 -0.16628859347E+03  0.36626116768E+03 -0.81184417197E+03  0.12377103995E+04  0.84323006008E+03 0.  0.
         23    2    4    4    0    0  0.15568079725E+03 -0.19213661190E+03 -0.36008104383E+03  0.44557640739E+03  0.87903290209E+02 0.  0.
         23    2    4    4    0    0 -0.32196939072E+03  0.55839777958E+03 -0.45176312814E+03  0.79213399212E+03  0.88960489675E+02 0.  0.
          2    1    3    3  502    0  0.95163499816E+02 -0.11607182056E+03  0.84768888044E+02  0.17237901150E+03  0.00000000000E+00 0. -1.
         -1    1    3    3    0  502  0.71125093654E+02 -0.25018934712E+03  0.14307054407E+03  0.29685462594E+03  0.00000000000E+00 0.  1.
         11    1    5    5    0    0  0.10116837320E+03 -0.56601603467E+02 -0.14661226189E+03  0.18690622405E+03  0.00000000000E+00 0.  1.
        -11    1    5    5    0    0  0.54512424056E+02 -0.13553500844E+03 -0.21346878194E+03  0.25867018334E+03  0.00000000000E+00 0. -1.
          2    1    6    6  503    0 -0.82386433884E+02  0.22448072938E+03 -0.15008599905E+03  0.28232061466E+03  0.00000000000E+00 0. -1.
         -2    1    6    6    0  503 -0.23958295684E+03  0.33391705020E+03 -0.30167712909E+03  0.50981337746E+03  0.00000000000E+00 0.  1.
<mgrwt>
<rscale>  0 0.16039315E+04</rscale>
<asrwt>0</asrwt>
<pdfrwt beam="1">  1        2 0.17622683E+00 0.16039315E+04</pdfrwt>
<pdfrwt beam="2">  1       -1 0.86379946E-01 0.16039315E+04</pdfrwt>
<totfact> 0.29532516E+01</totfact>
</mgrwt>
</event>
<event>
12    6  0.1494052E-007  0.1722808E+04  0.7818608E-02  0.8748462E-01
         -1   -1    0    0    0  501 -0.00000000000E+00  0.00000000000E+00  0.80874651339E+03  0.80874651339E+03  0.00000000000E+00 0.  1.
          2   -1    0    0  501    0  0.00000000000E+00 -0.00000000000E+00 -0.91749046310E+03  0.91749046310E+03  0.00000000000E+00 0. -1.
         24    2    1    2    0    0  0.46746456462E+02 -0.54547979076E+03  0.25708024382E+03  0.60984885483E+03  0.78050885016E+02 0.  0.
        254    2    1    2    0    0 -0.46746456462E+02  0.54547979076E+03 -0.36582419353E+03  0.11163881217E+04  0.90153295243E+03 0.  0.
         23    2    4    4    0    0  0.28927687019E+03  0.58768308765E+03 -0.85526706508E+02  0.66729866605E+03  0.94446667764E+02 0.  0.
         23    2    4    4    0    0 -0.33602332665E+03 -0.42203296882E+02 -0.28029748702E+03  0.44908945562E+03  0.91770712114E+02 0.  0.
          2    1    3    3  502    0  0.61689259982E+02 -0.36669943256E+03  0.15034821091E+03  0.40109677531E+03  0.00000000000E+00 0. -1.
         -1    1    3    3    0  502 -0.14942803520E+02 -0.17878035820E+03  0.10673203291E+03  0.20875207952E+03  0.00000000000E+00 0.  1.
         11    1    5    5    0    0  0.26318369632E+03  0.47530894056E+03 -0.45591014723E+02  0.54521811012E+03  0.00000000000E+00 0. -1.
        -11    1    5    5    0    0  0.26093173866E+02  0.11237414709E+03 -0.39935691785E+02  0.12208055592E+03  0.00000000000E+00 0.  1.
          2    1    6    6  503    0 -0.32635159297E+03 -0.24745295424E+02 -0.27717918890E+03  0.42888925685E+03  0.00000000000E+00 0. -1.
         -2    1    6    6    0  503 -0.96717336739E+01 -0.17458001459E+02 -0.31182981166E+01  0.20200198770E+02  0.00000000000E+00 0.  1.
<mgrwt>
<rscale>  0 0.17228084E+04</rscale>
<asrwt>0</asrwt>
<pdfrwt beam="1">  1        2 0.14115238E+00 0.17228084E+04</pdfrwt>
<pdfrwt beam="2">  1       -1 0.12442254E+00 0.17228084E+04</pdfrwt>
<totfact> 0.17513726E+01</totfact>
</mgrwt>
</event>
<event>
12    6  0.1494052E-007  0.1242559E+04  0.7818608E-02  0.9076399E-01
          2   -1    0    0  501    0  0.00000000000E+00  0.00000000000E+00  0.17590896862E+04  0.17590896862E+04  0.00000000000E+00 0. -1.
         -1   -1    0    0    0  501 -0.00000000000E+00 -0.00000000000E+00 -0.21942503139E+03  0.21942503139E+03  0.00000000000E+00 0.  1.
         24    2    1    2    0    0 -0.14654428895E+03 -0.15045742539E+03  0.69942426995E+03  0.73424129195E+03  0.76179393169E+02 0.  0.
        254    2    1    2    0    0  0.14654428895E+03  0.15045742539E+03  0.84024038484E+03  0.12442734256E+04  0.89336430859E+03 0.  0.
         23    2    4    4    0    0 -0.14911292161E+03 -0.30492013652E+03  0.43887684075E+03  0.56283279271E+03  0.94640996147E+02 0.  0.
         23    2    4    4    0    0  0.29565721056E+03  0.45537756191E+03  0.40136354408E+03  0.68144063289E+03  0.92123458418E+02 0.  0.
          2    1    3    3  502    0 -0.13123562571E+03 -0.11705021178E+03  0.46858205964E+03  0.50049244565E+03  0.00000000000E+00 0. -1.
         -1    1    3    3    0  502 -0.15308663237E+02 -0.33407213611E+02  0.23084221030E+03  0.23374884630E+03  0.00000000000E+00 0.  1.
         11    1    5    5    0    0  0.46332251349E+01 -0.19856492566E+02  0.65278352080E+02  0.68388671010E+02  0.00000000000E+00 0.  1.
        -11    1    5    5    0    0 -0.15374614675E+03 -0.28506364395E+03  0.37359848867E+03  0.49444412170E+03  0.00000000000E+00 0. -1.
          3    1    6    6  503    0  0.17359370192E+03  0.19015017977E+03  0.21111788563E+03  0.33296039682E+03  0.00000000000E+00 0. -1.
         -3    1    6    6    0  503  0.12206350864E+03  0.26522738214E+03  0.19024565846E+03  0.34848023608E+03  0.00000000000E+00 0.  1.
<mgrwt>
<rscale>  0 0.12425591E+04</rscale>
<asrwt>0</asrwt>
<pdfrwt beam="1">  1        2 0.27062917E+00 0.12425591E+04</pdfrwt>
<pdfrwt beam="2">  1       -1 0.33757698E-01 0.12425591E+04</pdfrwt>
<totfact> 0.84382573E+01</totfact>
</mgrwt>
</event>
<event>
12    6  0.1494052E-007  0.2767299E+04  0.7818608E-02  0.8313493E-01
          2   -1    0    0  501    0  0.00000000000E+00  0.00000000000E+00  0.17961537546E+04  0.17961537546E+04  0.00000000000E+00 0. -1.
         -1   -1    0    0    0  501 -0.00000000000E+00 -0.00000000000E+00 -0.10658805379E+04  0.10658805379E+04  0.00000000000E+00 0.  1.
         24    2    1    2    0    0 -0.57038545124E+03  0.17605957253E+03  0.14188827430E+04  0.15413329101E+04  0.78373242653E+02 0.  0.
        254    2    1    2    0    0  0.57038545124E+03 -0.17605957253E+03 -0.68860952634E+03  0.13207013824E+04  0.95589357444E+03 0.  0.
         23    2    4    4    0    0  0.43165124419E+03 -0.75210171139E+01 -0.90125793998E+03  0.10033751067E+04  0.90090887597E+02 0.  0.
         23    2    4    4    0    0  0.13873420705E+03 -0.16853855542E+03  0.21264841363E+03  0.31732627573E+03  0.88454466120E+02 0.  0.
          4    1    3    3  502    0 -0.30313390281E+03  0.12049856656E+03  0.84700884371E+03  0.90765304435E+03  0.00000000000E+00 0. -1.
         -3    1    3    3    0  502 -0.26725154843E+03  0.55561005968E+02  0.57187389932E+03  0.63367986574E+03  0.00000000000E+00 0.  1.
         11    1    5    5    0    0  0.18831528349E+03 -0.42024519148E+02 -0.34614224786E+03  0.39628671686E+03  0.00000000000E+00 0. -1.
        -11    1    5    5    0    0  0.24333596070E+03  0.34503502034E+02 -0.55511569212E+03  0.60708838983E+03  0.00000000000E+00 0.  1.
          2    1    6    6  503    0 -0.33516228460E+01 -0.43087381031E+02  0.60076625942E+02  0.74006464342E+02  0.00000000000E+00 0. -1.
         -2    1    6    6    0  503  0.14208582989E+03 -0.12545117439E+03  0.15257178769E+03  0.24331981138E+03  0.00000000000E+00 0.  1.
<mgrwt>
<rscale>  0 0.27672986E+04</rscale>
<asrwt>0</asrwt>
<pdfrwt beam="1">  1        2 0.27633135E+00 0.27672986E+04</pdfrwt>
<pdfrwt beam="2">  1       -1 0.16398162E+00 0.27672986E+04</pdfrwt>
<totfact> 0.23483826E+00</totfact>
</mgrwt>
</event>
<event>
12    6  0.1494052E-007  0.1397669E+04  0.7818608E-02  0.8955507E-01
         -1   -1    0    0    0  501 -0.00000000000E+00  0.00000000000E+00  0.25675939248E+03  0.25675939248E+03  0.00000000000E+00 0.  1.
          2   -1    0    0  501    0  0.00000000000E+00 -0.00000000000E+00 -0.19020521149E+04  0.19020521149E+04  0.00000000000E+00 0. -1.
         24    2    1    2    0    0  0.76391409595E+02  0.36451953949E+03 -0.24744077522E+03  0.45449926983E+03  0.81440204453E+02 0.  0.
        254    2    1    2    0    0 -0.76391409595E+02 -0.36451953949E+03 -0.13978519472E+04  0.17043122375E+04  0.90109932562E+03 0.  0.
         23    2    4    4    0    0 -0.38198234974E+03 -0.48839403246E+03 -0.99158442902E+03  0.11731418511E+04  0.92643814613E+02 0.  0.
         23    2    4    4    0    0  0.30559094015E+03  0.12387449296E+03 -0.40626751817E+03  0.53117038648E+03  0.91421936335E+02 0.  0.
          4    1    3    3  502    0  0.33749912448E+01  0.36507739616E+01 -0.22496703821E+02  0.23039539909E+02  0.00000000000E+00 0. -1.
         -3    1    3    3    0  502  0.73016418350E+02  0.36086876553E+03 -0.22494407140E+03  0.43145972992E+03  0.00000000000E+00 0.  1.
         11    1    5    5    0    0 -0.38486022131E+03 -0.48936578588E+03 -0.97894104289E+03  0.11601387106E+04  0.00000000000E+00 0. -1.
        -11    1    5    5    0    0  0.28778715710E+01  0.97175342326E+00 -0.12643386131E+02  0.13003140480E+02  0.00000000000E+00 0.  1.
          2    1    6    6  503    0  0.18718242470E+03  0.11898478648E+03 -0.29057851994E+03  0.36555507900E+03  0.00000000000E+00 0. -1.
         -2    1    6    6    0  503  0.11840851545E+03  0.48897064842E+01 -0.11568899823E+03  0.16561530748E+03  0.00000000000E+00 0.  1.
<mgrwt>
<rscale>  0 0.13976691E+04</rscale>
<asrwt>0</asrwt>
<pdfrwt beam="1">  1        2 0.29262341E+00 0.13976691E+04</pdfrwt>
<pdfrwt beam="2">  1       -1 0.39501443E-01 0.13976691E+04</pdfrwt>
<totfact> 0.52360380E+01</totfact>
</mgrwt>
</event>
<event>
12    6  0.1494052E-007  0.1557542E+04  0.7818608E-02  0.8847065E-01
          2   -1    0    0  501    0  0.00000000000E+00  0.00000000000E+00  0.12121526856E+04  0.12121526856E+04  0.00000000000E+00 0. -1.
         -1   -1    0    0    0  501 -0.00000000000E+00 -0.00000000000E+00 -0.50033622872E+03  0.50033622872E+03  0.00000000000E+00 0.  1.
         24    2    1    2    0    0 -0.34486807410E+03  0.47158122266E+02 -0.17396674885E+03  0.39749709684E+03  0.81127278164E+02 0.  0.
        254    2    1    2    0    0  0.34486807410E+03 -0.47158122266E+02  0.88578320571E+03  0.13149918175E+04  0.90743248535E+03 0.  0.
         23    2    4    4    0    0 -0.94155654645E+01  0.17446028746E+03 -0.11371769372E+03  0.22788544945E+03  0.92059868742E+02 0.  0.
         23    2    4    4    0    0  0.35428363956E+03 -0.22161840973E+03  0.99950089943E+03  0.10871063680E+04  0.90369190736E+02 0.  0.
          4    1    3    3  502    0 -0.12340467036E+03 -0.21981863994E+02 -0.64337529926E+02  0.14089440290E+03  0.00000000000E+00 0. -1.
         -3    1    3    3    0  502 -0.22146340374E+03  0.69139986260E+02 -0.10962921893E+03  0.25660269394E+03  0.00000000000E+00 0.  1.
         11    1    5    5    0    0 -0.28972763496E+02  0.17510947267E+03 -0.97736419991E+02  0.20262072016E+03  0.00000000000E+00 0. -1.
        -11    1    5    5    0    0  0.19557198032E+02 -0.64918521302E+00 -0.15981273727E+02  0.25264729292E+02  0.00000000000E+00 0.  1.
          2    1    6    6  503    0  0.33573347377E+03 -0.19730990572E+03  0.96707656357E+03  0.10425378862E+04  0.00000000000E+00 0. -1.
         -2    1    6    6    0  503  0.18550165793E+02 -0.24308504003E+02  0.32424335860E+02  0.44568481842E+02  0.00000000000E+00 0.  1.
<mgrwt>
<rscale>  0 0.15575415E+04</rscale>
<asrwt>0</asrwt>
<pdfrwt beam="1">  1        2 0.18648503E+00 0.15575415E+04</pdfrwt>
<pdfrwt beam="2">  1       -1 0.76974804E-01 0.15575415E+04</pdfrwt>
<totfact> 0.34591737E+01</totfact>
</mgrwt>
</event>
<event>
12    6  0.1494052E-007  0.2237397E+04  0.7818608E-02  0.8503022E-01
          2   -1    0    0  501    0  0.00000000000E+00  0.00000000000E+00  0.13452269441E+04  0.13452269441E+04  0.00000000000E+00 0. -1.
         -1   -1    0    0    0  501 -0.00000000000E+00 -0.00000000000E+00 -0.93031591802E+03  0.93031591802E+03  0.00000000000E+00 0.  1.
         24    2    1    2    0    0 -0.24864017940E+03 -0.41291969337E+03  0.10033387952E+04  0.11159940364E+04  0.80183160327E+02 0.  0.
        254    2    1    2    0    0  0.24864017940E+03  0.41291969337E+03 -0.58842776912E+03  0.11595488258E+04  0.87520376366E+03 0.  0.
         23    2    4    4    0    0 -0.30683272600E+03  0.83801549652E+02 -0.10407079145E+03  0.34738716430E+03  0.93156270985E+02 0.  0.
         23    2    4    4    0    0  0.55547290540E+03  0.32911814372E+03 -0.48435697767E+03  0.81216166148E+03  0.90199675217E+02 0.  0.
          2    1    3    3  502    0 -0.19374185789E+03 -0.30417350086E+03  0.82089530389E+03  0.89661949905E+03  0.00000000000E+00 0. -1.
         -1    1    3    3    0  502 -0.54898321517E+02 -0.10874619251E+03  0.18244349134E+03  0.21937453732E+03  0.00000000000E+00 0.  1.
         11    1    5    5    0    0 -0.10712391243E+03  0.51301968235E+02 -0.80944445230E+02  0.14373387830E+03  0.00000000000E+00 0. -1.
        -11    1    5    5    0    0 -0.19970881357E+03  0.32499581417E+02 -0.23126346221E+02  0.20365328600E+03  0.00000000000E+00 0.  1.
          3    1    6    6  503    0  0.53692917601E+03  0.30714600907E+03 -0.48025369715E+03  0.78311890832E+03  0.00000000000E+00 0. -1.
         -3    1    6    6    0  503  0.18543729388E+02  0.21972134644E+02 -0.41032805247E+01  0.29042753166E+02  0.00000000000E+00 0.  1.
<mgrwt>
<rscale>  0 0.22373967E+04</rscale>
<asrwt>0</asrwt>
<pdfrwt beam="1">  1        2 0.20695799E+00 0.22373967E+04</pdfrwt>
<pdfrwt beam="2">  1       -1 0.14312553E+00 0.22373967E+04</pdfrwt>
<totfact> 0.63910797E+00</totfact>
</mgrwt>
</event>
<event>
12    6  0.1494052E-007  0.2320690E+04  0.7818608E-02  0.8469808E-01
         -1   -1    0    0    0  501 -0.00000000000E+00  0.00000000000E+00  0.33345169793E+03  0.33345169793E+03  0.00000000000E+00 0.  1.
          2   -1    0    0  501    0  0.00000000000E+00 -0.00000000000E+00 -0.40377692315E+04  0.40377692315E+04  0.00000000000E+00 0. -1.
         24    2    1    2    0    0  0.21596989599E+03 -0.84250561249E+03 -0.24782724594E+04  0.26276798033E+04  0.80050374753E+02 0.  0.
        254    2    1    2    0    0 -0.21596989599E+03  0.84250561249E+03 -0.12260450741E+04  0.17435411261E+04  0.88334049583E+03 0.  0.
         23    2    4    4    0    0 -0.16776416850E+03  0.88533966517E+03 -0.55260981197E+03  0.10610596350E+04  0.92188967513E+02 0.  0.
         23    2    4    4    0    0 -0.48205727491E+02 -0.42834052682E+02 -0.67343526215E+03  0.68248149112E+03  0.90041019485E+02 0.  0.
          4    1    3    3  502    0  0.15947027110E+03 -0.71753427612E+03 -0.20353442279E+04  0.21640037733E+04  0.00000000000E+00 0. -1.
         -3    1    3    3    0  502  0.56499624886E+02 -0.12497133637E+03 -0.44292823155E+03  0.46367603003E+03  0.00000000000E+00 0.  1.
         11    1    5    5    0    0 -0.85776700956E+02  0.63083249397E+03 -0.41902028803E+03  0.76215830354E+03  0.00000000000E+00 0. -1.
        -11    1    5    5    0    0 -0.81987467542E+02  0.25450717120E+03 -0.13358952394E+03  0.29890133143E+03  0.00000000000E+00 0.  1.
          1    1    6    6  503    0 -0.42026344119E+02 -0.31446042718E+02 -0.15058496252E+03  0.15947068113E+03  0.00000000000E+00 0. -1.
         -1    1    6    6    0  503 -0.61793833717E+01 -0.11388009964E+02 -0.52285029963E+03  0.52301081000E+03  0.00000000000E+00 0.  1.
<mgrwt>
<rscale>  0 0.23206904E+04</rscale>
<asrwt>0</asrwt>
<pdfrwt beam="1">  1        2 0.62119524E+00 0.23206904E+04</pdfrwt>
<pdfrwt beam="2">  1       -1 0.51300263E-01 0.23206904E+04</pdfrwt>
<totfact> 0.12614174E+00</totfact>
</mgrwt>
</event>
<event>
12    6  0.1494052E-007  0.1963073E+04  0.7818608E-02  0.8624082E-01
         -1   -1    0    0    0  501 -0.00000000000E+00  0.00000000000E+00  0.50878822473E+03  0.50878822473E+03  0.00000000000E+00 0.  1.
          2   -1    0    0  501    0  0.00000000000E+00 -0.00000000000E+00 -0.18935469123E+04  0.18935469123E+04  0.00000000000E+00 0. -1.
         24    2    1    2    0    0  0.75839167175E+03  0.81368948211E+02 -0.60084164404E+03  0.97452037369E+03  0.83068911249E+02 0.  0.
        254    2    1    2    0    0 -0.75839167175E+03 -0.81368948211E+02 -0.78391704351E+03  0.14278147633E+04  0.91779640104E+03 0.  0.
         23    2    4    4    0    0 -0.40206218192E+03 -0.45187458299E+03 -0.19773710332E+03  0.64295665009E+03  0.91916565341E+02 0.  0.
         23    2    4    4    0    0 -0.35632948983E+03  0.37050563478E+03 -0.58617994019E+03  0.78485811324E+03  0.90278485339E+02 0.  0.
          4    1    3    3  502    0  0.11435727049E+03 -0.11620515914E+01 -0.12569650894E+03  0.16993689428E+03  0.00000000000E+00 0. -1.
         -3    1    3    3    0  502  0.64403440126E+03  0.82530999802E+02 -0.47514513510E+03  0.80458347941E+03  0.00000000000E+00 0.  1.
         11    1    5    5    0    0 -0.21017573734E+03 -0.30316761557E+03 -0.11263267991E+03  0.38570787428E+03  0.00000000000E+00 0. -1.
        -11    1    5    5    0    0 -0.19188644458E+03 -0.14870696742E+03 -0.85104423419E+02  0.25724877581E+03  0.00000000000E+00 0.  1.
          3    1    6    6  503    0 -0.20433972434E+03  0.27419493556E+03 -0.38092699209E+03  0.51190131757E+03  0.00000000000E+00 0. -1.
         -3    1    6    6    0  503 -0.15198976549E+03  0.96310699211E+02 -0.20525294810E+03  0.27295679567E+03  0.00000000000E+00 0.  1.
<mgrwt>
<rscale>  0 0.19630735E+04</rscale>
<asrwt>0</asrwt>
<pdfrwt beam="1">  1        2 0.29131492E+00 0.19630735E+04</pdfrwt>
<pdfrwt beam="2">  1       -1 0.78275110E-01 0.19630735E+04</pdfrwt>
<totfact> 0.13273179E+01</totfact>
</mgrwt>
</event>
<event>
12    6  0.1494052E-007  0.1450653E+04  0.7818608E-02  0.8917948E-01
         -1   -1    0    0    0  501 -0.00000000000E+00  0.00000000000E+00  0.81928080243E+03  0.81928080243E+03  0.00000000000E+00 0.  1.
          2   -1    0    0  501    0  0.00000000000E+00 -0.00000000000E+00 -0.64214683834E+03  0.64214683834E+03  0.00000000000E+00 0. -1.
         24    2    1    2    0    0 -0.10602769876E+03  0.24959208331E+03 -0.29437292378E+03  0.40811056542E+03  0.79754212440E+02 0.  0.
        254    2    1    2    0    0  0.10602769876E+03 -0.24959208331E+03  0.47150688787E+03  0.10533170753E+04  0.90200888852E+03 0.  0.
         23    2    4    4    0    0  0.40982789438E+03  0.79152435455E+02  0.48909502805E+02  0.43104487844E+03  0.95830771262E+02 0.  0.
         23    2    4    4    0    0 -0.30380019562E+03 -0.32874451876E+03  0.42259738506E+03  0.62227219691E+03  0.90920953091E+02 0.  0.
          4    1    3    3  502    0 -0.49757849702E+02  0.14988426702E+03 -0.22278089892E+03  0.27307959651E+03  0.00000000000E+00 0. -1.
         -3    1    3    3    0  502 -0.56269849057E+02  0.99707816287E+02 -0.71592024857E+02  0.13503096891E+03  0.00000000000E+00 0.  1.
         11    1    5    5    0    0  0.38604245200E+03  0.69963528339E+02  0.20493912804E+02  0.39286597015E+03  0.00000000000E+00 0.  1.
        -11    1    5    5    0    0  0.23785442376E+02  0.91889071159E+01  0.28415590001E+02  0.38178908289E+02  0.00000000000E+00 0. -1.
          4    1    6    6  503    0 -0.16128812729E+03 -0.12527987494E+03  0.14950873203E+03  0.25310426315E+03  0.00000000000E+00 0. -1.
         -4    1    6    6    0  503 -0.14251206833E+03 -0.20346464382E+03  0.27308865303E+03  0.36916793376E+03  0.00000000000E+00 0.  1.
<mgrwt>
<rscale>  0 0.14506531E+04</rscale>
<asrwt>0</asrwt>
<pdfrwt beam="1">  1        2 0.98791822E-01 0.14506531E+04</pdfrwt>
<pdfrwt beam="2">  1       -1 0.12604320E+00 0.14506531E+04</pdfrwt>
<totfact> 0.27726992E+01</totfact>
</mgrwt>
</event>
<event>
12    6  0.1494052E-007  0.2051545E+04  0.7818608E-02  0.8582894E-01
         -1   -1    0    0    0  501 -0.00000000000E+00  0.00000000000E+00  0.11023106732E+04  0.11023106732E+04  0.00000000000E+00 0.  1.
          2   -1    0    0  501    0  0.00000000000E+00 -0.00000000000E+00 -0.95454865190E+03  0.95454865190E+03  0.00000000000E+00 0. -1.
         24    2    1    2    0    0 -0.19740465561E+03 -0.19649658684E+03 -0.72016387240E+03  0.77971575582E+03  0.10835658754E+03 0.  0.
        254    2    1    2    0    0  0.19740465561E+03  0.19649658684E+03  0.86792589371E+03  0.12771435693E+04  0.89455063184E+03 0.  0.
         23    2    4    4    0    0 -0.28207817166E+03  0.28632893523E+03  0.24141259530E+03  0.47769620484E+03  0.91439974140E+02 0.  0.
         23    2    4    4    0    0  0.47948282727E+03 -0.89832348385E+02  0.62651329841E+03  0.79944736445E+03  0.92863033475E+02 0.  0.
          4    1    3    3  502    0 -0.16132664721E+03 -0.19260676262E+03 -0.53536135721E+03  0.59138433772E+03  0.00000000000E+00 0. -1.
         -3    1    3    3    0  502 -0.36078008402E+02 -0.38898242278E+01 -0.18480251519E+03  0.18833141810E+03  0.00000000000E+00 0.  1.
         11    1    5    5    0    0 -0.95833863043E+02  0.15493673914E+03  0.83456215326E+02  0.20038578372E+03  0.00000000000E+00 0.  1.
        -11    1    5    5    0    0 -0.18624430862E+03  0.13139219609E+03  0.15795637997E+03  0.27731042112E+03  0.00000000000E+00 0. -1.
          1    1    6    6  503    0  0.30536541657E+02  0.10118782120E+02  0.18641634966E+02  0.37180380340E+02  0.00000000000E+00 0. -1.
         -1    1    6    6    0  503  0.44894628562E+03 -0.99951130505E+02  0.60787166344E+03  0.76226698412E+03  0.00000000000E+00 0.  1.
<mgrwt>
<rscale>  0 0.20515449E+04</rscale>
<asrwt>0</asrwt>
<pdfrwt beam="1">  1        2 0.14685364E+00 0.20515449E+04</pdfrwt>
<pdfrwt beam="2">  1       -1 0.16958626E+00 0.20515449E+04</pdfrwt>
<totfact> 0.70517256E+00</totfact>
</mgrwt>
</event>
<event>
12    6  0.1494052E-007  0.3078100E+04  0.7818608E-02  0.8221774E-01
         -1   -1    0    0    0  501 -0.00000000000E+00  0.00000000000E+00  0.15575661259E+04  0.15575661259E+04  0.00000000000E+00 0.  1.
          2   -1    0    0  501    0  0.00000000000E+00 -0.00000000000E+00 -0.15207539360E+04  0.15207539360E+04  0.00000000000E+00 0. -1.
         24    2    1    2    0    0 -0.64635862692E+03  0.11802710705E+04  0.44211036404E+03  0.14186903670E+04  0.80009429684E+02 0.  0.
        254    2    1    2    0    0  0.64635862692E+03 -0.11802710705E+04 -0.40529817409E+03  0.16596296949E+04  0.88277111395E+03 0.  0.
         23    2    4    4    0    0 -0.14771741484E+02 -0.84987947935E+03 -0.12641902008E+03  0.86418955915E+03  0.91260570632E+02 0.  0.
         23    2    4    4    0    0  0.66113036841E+03 -0.33039159119E+03 -0.27887915402E+03  0.79544013572E+03  0.93270892582E+02 0.  0.
          2    1    3    3  502    0 -0.74061712083E+02  0.12421485497E+03  0.73636560220E+02  0.16228619902E+03  0.00000000000E+00 0. -1.
         -1    1    3    3    0  502 -0.57229691484E+03  0.10560562156E+04  0.36847380382E+03  0.12564041680E+04  0.00000000000E+00 0.  1.
         11    1    5    5    0    0 -0.34911380613E+02 -0.26312936140E+03 -0.97529624379E+01  0.26561435504E+03  0.00000000000E+00 0. -1.
        -11    1    5    5    0    0  0.20139639130E+02 -0.58675011795E+03 -0.11666605764E+03  0.59857520412E+03  0.00000000000E+00 0.  1.
          2    1    6    6  503    0  0.64296375977E+03 -0.31463104510E+03 -0.25083136515E+03  0.75849289032E+03  0.00000000000E+00 0. -1.
         -2    1    6    6    0  503  0.18166608641E+02 -0.15760546087E+02 -0.28047788864E+02  0.36947245400E+02  0.00000000000E+00 0.  1.
<mgrwt>
<rscale>  0 0.30780999E+04</rscale>
<asrwt>0</asrwt>
<pdfrwt beam="1">  1        2 0.23396214E+00 0.30780999E+04</pdfrwt>
<pdfrwt beam="2">  1       -1 0.23962556E+00 0.30780999E+04</pdfrwt>
<totfact> 0.97560023E-01</totfact>
</mgrwt>
</event>
<event>
12    6  0.1494052E-007  0.1147045E+04  0.7818608E-02  0.9160514E-01
         -1   -1    0    0    0  501 -0.00000000000E+00  0.00000000000E+00  0.70178360089E+03  0.70178360089E+03  0.00000000000E+00 0.  1.
          2   -1    0    0  501    0  0.00000000000E+00 -0.00000000000E+00 -0.46870318507E+03  0.46870318507E+03  0.00000000000E+00 0. -1.
         24    2    1    2    0    0 -0.19656556091E+03  0.76529473399E+02  0.63478701495E+02  0.23529861474E+03  0.82711018133E+02 0.  0.
        254    2    1    2    0    0  0.19656556091E+03 -0.76529473399E+02  0.16960171433E+03  0.93518817122E+03  0.89516333372E+03 0.  0.
         23    2    4    4    0    0 -0.15541577231E+03 -0.32422810867E+03 -0.13862172611E+03  0.39724766015E+03  0.96497625946E+02 0.  0.
         23    2    4    4    0    0  0.35198133322E+03  0.24769863527E+03  0.30822344044E+03  0.53794051106E+03  0.95565848267E+02 0.  0.
          2    1    3    3  502    0 -0.10207956098E+03  0.53069661538E+02 -0.67630852164E+01  0.11524914345E+03  0.00000000000E+00 0. -1.
         -3    1    3    3    0  502 -0.94485999935E+02  0.23459811861E+02  0.70241786712E+02  0.12004947129E+03  0.00000000000E+00 0.  1.
         11    1    5    5    0    0 -0.51864762188E+01 -0.11246814332E+03 -0.44992960620E+02  0.12124499702E+03  0.00000000000E+00 0. -1.
        -11    1    5    5    0    0 -0.15022929609E+03 -0.21175996535E+03 -0.93628765488E+02  0.27600266313E+03  0.00000000000E+00 0.  1.
          4    1    6    6  503    0  0.10818252055E+03  0.13236670659E+03  0.12807396425E+03  0.21360557831E+03  0.00000000000E+00 0. -1.
         -4    1    6    6    0  503  0.24379881267E+03  0.11533192868E+03  0.18014947619E+03  0.32433493275E+03  0.00000000000E+00 0.  1.
<mgrwt>
<rscale>  0 0.11470453E+04</rscale>
<asrwt>0</asrwt>
<pdfrwt beam="1">  1        2 0.72108182E-01 0.11470453E+04</pdfrwt>
<pdfrwt beam="2">  1       -1 0.10796671E+00 0.11470453E+04</pdfrwt>
<totfact> 0.59978540E+01</totfact>
</mgrwt>
</event>
<event>
12    6  0.1494052E-007  0.1603845E+04  0.7818608E-02  0.8818189E-01
         -1   -1    0    0    0  501 -0.00000000000E+00  0.00000000000E+00  0.28556566970E+03  0.28556566970E+03  0.00000000000E+00 0.  1.
          2   -1    0    0  501    0  0.00000000000E+00 -0.00000000000E+00 -0.22519500240E+04  0.22519500240E+04  0.00000000000E+00 0. -1.
         24    2    1    2    0    0  0.53560404469E+03 -0.11142356638E+02 -0.54104582537E+03  0.76554103464E+03  0.79540214822E+02 0.  0.
        254    2    1    2    0    0 -0.53560404469E+03  0.11142356638E+02 -0.14253385289E+04  0.17719746591E+04  0.90626068296E+03 0.  0.
         23    2    4    4    0    0 -0.61511965591E+03 -0.31630984421E+03 -0.85666250495E+03  0.11048022776E+04  0.91067648116E+02 0.  0.
         23    2    4    4    0    0  0.79515611228E+02  0.32745220085E+03 -0.56867602397E+03  0.66717238146E+03  0.90437216238E+02 0.  0.
          2    1    3    3  502    0  0.13428570222E+03 -0.32714869025E+01 -0.89668713150E+02  0.16150489332E+03  0.00000000000E+00 0. -1.
         -1    1    3    3    0  502  0.40131834246E+03 -0.78708697350E+01 -0.45137711222E+03  0.60403614132E+03  0.00000000000E+00 0.  1.
         11    1    5    5    0    0 -0.31829821491E+03 -0.17562131514E+03 -0.51970551741E+03  0.63423215369E+03  0.00000000000E+00 0. -1.
        -11    1    5    5    0    0 -0.29682144100E+03 -0.14068852907E+03 -0.33695698754E+03  0.47057012390E+03  0.00000000000E+00 0.  1.
          3    1    6    6  503    0  0.92123586495E+02  0.32213720011E+03 -0.54219228300E+03  0.63736300695E+03  0.00000000000E+00 0. -1.
         -3    1    6    6    0  503 -0.12607975267E+02  0.53150007392E+01 -0.26483740972E+02  0.29809374516E+02  0.00000000000E+00 0.  1.
<mgrwt>
<rscale>  0 0.16038449E+04</rscale>
<asrwt>0</asrwt>
<pdfrwt beam="1">  1        2 0.34645386E+00 0.16038449E+04</pdfrwt>
<pdfrwt beam="2">  1       -1 0.43933179E-01 0.16038449E+04</pdfrwt>
<totfact> 0.27016808E+01</totfact>
</mgrwt>
</event>
<event>
12    6  0.1494052E-007  0.1231294E+04  0.7818608E-02  0.9085897E-01
          2   -1    0    0  501    0  0.00000000000E+00  0.00000000000E+00  0.53022467033E+03  0.53022467033E+03  0.00000000000E+00 0. -1.
         -1   -1    0    0    0  501 -0.00000000000E+00 -0.00000000000E+00 -0.71483176323E+03  0.71483176323E+03  0.00000000000E+00 0.  1.
         24    2    1    2    0    0 -0.17375406800E+03  0.60431907910E+01  0.17705430620E+03  0.26343694438E+03  0.88452247103E+02 0.  0.
        254    2    1    2    0    0  0.17375406800E+03 -0.60431907910E+01 -0.36166139910E+03  0.98161948917E+03  0.89585202886E+03 0.  0.
         23    2    4    4    0    0 -0.18661477780E+02  0.38918405789E+03 -0.35234715812E+03  0.53312890519E+03  0.90914399540E+02 0.  0.
         23    2    4    4    0    0  0.19241554578E+03 -0.39522724868E+03 -0.93142409819E+01  0.44849058398E+03  0.88480102147E+02 0.  0.
          2    1    3    3  502    0 -0.14886351458E+03 -0.59747822699E+01  0.94616471544E+02  0.17648886845E+03  0.00000000000E+00 0. -1.
         -3    1    3    3    0  502 -0.24890553420E+02  0.12017973061E+02  0.82437834657E+02  0.86948075936E+02  0.00000000000E+00 0.  1.
         11    1    5    5    0    0  0.25347585852E+02  0.47313986155E+02 -0.31591491475E+02  0.62282708098E+02  0.00000000000E+00 0. -1.
        -11    1    5    5    0    0 -0.44009063632E+02  0.34187007174E+03 -0.32075566664E+03  0.47084619709E+03  0.00000000000E+00 0.  1.
          4    1    6    6  503    0 -0.80962566394E+01 -0.36691977806E+02 -0.20739695292E+01  0.37631794489E+02  0.00000000000E+00 0. -1.
         -4    1    6    6    0  503  0.20051180242E+03 -0.35853527088E+03 -0.72402714527E+01  0.41085878949E+03  0.00000000000E+00 0.  1.
<mgrwt>
<rscale>  0 0.12312943E+04</rscale>
<asrwt>0</asrwt>
<pdfrwt beam="1">  1        2 0.81573026E-01 0.12312943E+04</pdfrwt>
<pdfrwt beam="2">  1       -1 0.10997412E+00 0.12312943E+04</pdfrwt>
<totfact> 0.49448631E+01</totfact>
</mgrwt>
</event>
<event>
12    6  0.1494052E-007  0.1558290E+04  0.7818608E-02  0.8846590E-01
          2   -1    0    0  501    0  0.00000000000E+00  0.00000000000E+00  0.28766024050E+04  0.28766024050E+04  0.00000000000E+00 0. -1.
         -1   -1    0    0    0  501 -0.00000000000E+00 -0.00000000000E+00 -0.21103601126E+03  0.21103601126E+03  0.00000000000E+00 0.  1.
         24    2    1    2    0    0  0.15879877901E+03 -0.39337883400E+03  0.14354784318E+04  0.14996667174E+04  0.91858455440E+02 0.  0.
        254    2    1    2    0    0 -0.15879877901E+03  0.39337883400E+03  0.12300879619E+04  0.15879716988E+04  0.91026027214E+03 0.  0.
         23    2    4    4    0    0 -0.12841480758E+03  0.81901720029E+02  0.12484815058E+04  0.12610935310E+04  0.91937855358E+02 0.  0.
         23    2    4    4    0    0 -0.30383971430E+02  0.31147711397E+03 -0.18393543891E+02  0.32687816777E+03  0.92573407968E+02 0.  0.
          2    1    3    3  502    0  0.15757321405E+03 -0.28626117268E+03  0.10630072866E+04  0.11120967890E+04  0.00000000000E+00 0. -1.
         -1    1    3    3    0  502  0.12255649593E+01 -0.10711766131E+03  0.37247114525E+03  0.38756992842E+03  0.00000000000E+00 0.  1.
         11    1    5    5    0    0 -0.13252623687E+03  0.78664774242E+02  0.93864166350E+03  0.95120950512E+03  0.00000000000E+00 0.  1.
        -11    1    5    5    0    0  0.41114292891E+01  0.32369457861E+01  0.30983984226E+03  0.30988402592E+03  0.00000000000E+00 0. -1.
          4    1    6    6  503    0 -0.61345856812E+02  0.25056676131E+03 -0.11880712854E+02  0.25824052230E+03  0.00000000000E+00 0. -1.
         -4    1    6    6    0  503  0.30961885382E+02  0.60910352661E+02 -0.65128310367E+01  0.68637645471E+02  0.00000000000E+00 0.  1.
<mgrwt>
<rscale>  0 0.15582897E+04</rscale>
<asrwt>0</asrwt>
<pdfrwt beam="1">  1        2 0.44255419E+00 0.15582897E+04</pdfrwt>
<pdfrwt beam="2">  1       -1 0.32467081E-01 0.15582897E+04</pdfrwt>
<totfact> 0.20294194E+01</totfact>
</mgrwt>
</event>
<event>
12    6  0.1494052E-007  0.1401355E+04  0.7818608E-02  0.8952838E-01
         -1   -1    0    0    0  501 -0.00000000000E+00  0.00000000000E+00  0.24915794492E+03  0.24915794492E+03  0.00000000000E+00 0.  1.
          2   -1    0    0  501    0  0.00000000000E+00 -0.00000000000E+00 -0.19704332518E+04  0.19704332518E+04  0.00000000000E+00 0. -1.
         24    2    1    2    0    0 -0.23717827932E+03  0.17752424138E+03 -0.81524642371E+03  0.87105462269E+03  0.79630596429E+02 0.  0.
        254    2    1    2    0    0  0.23717827932E+03 -0.17752424138E+03 -0.90602888320E+03  0.13485365741E+04  0.95388372558E+03 0.  0.
         23    2    4    4    0    0 -0.66794038545E+01 -0.18994366383E+03 -0.10362401341E+04  0.10572859219E+04  0.89088131298E+02 0.  0.
         23    2    4    4    0    0  0.24385768317E+03  0.12419422445E+02  0.13021125093E+03  0.29125065219E+03  0.90835900608E+02 0.  0.
          4    1    3    3  502    0 -0.16798254499E+03  0.84727746409E+02 -0.56072862200E+03  0.59145034784E+03  0.00000000000E+00 0. -1.
         -1    1    3    3    0  502 -0.69195734331E+02  0.92796494975E+02 -0.25451780171E+03  0.27960427485E+03  0.00000000000E+00 0.  1.
         11    1    5    5    0    0  0.28988541195E+02 -0.20441436177E+02 -0.22302621841E+03  0.22582932036E+03  0.00000000000E+00 0. -1.
        -11    1    5    5    0    0 -0.35667945049E+02 -0.16950222765E+03 -0.81321391571E+03  0.83145660151E+03  0.00000000000E+00 0.  1.
          3    1    6    6  503    0  0.30928224391E+01 -0.67505888066E+01 -0.96308890425E+01  0.12161004219E+02  0.00000000000E+00 0. -1.
         -3    1    6    6    0  503  0.24076486073E+03  0.19170011251E+02  0.13984213997E+03  0.27908964797E+03  0.00000000000E+00 0.  1.
<mgrwt>
<rscale>  0 0.14013552E+04</rscale>
<asrwt>0</asrwt>
<pdfrwt beam="1">  1        2 0.30314359E+00 0.14013552E+04</pdfrwt>
<pdfrwt beam="2">  1       -1 0.38331990E-01 0.14013552E+04</pdfrwt>
<totfact> 0.50672866E+01</totfact>
</mgrwt>
</event>
<event>
12    6  0.1494052E-007  0.2188423E+04  0.7818608E-02  0.8523262E-01
          2   -1    0    0  501    0  0.00000000000E+00  0.00000000000E+00  0.68323606763E+03  0.68323606763E+03  0.00000000000E+00 0. -1.
         -1   -1    0    0    0  501 -0.00000000000E+00 -0.00000000000E+00 -0.17523943237E+04  0.17523943237E+04  0.00000000000E+00 0.  1.
         24    2    1    2    0    0  0.30006594818E+03  0.48929177429E+03 -0.12292041588E+04  0.13587234132E+04  0.75765663965E+02 0.  0.
        254    2    1    2    0    0 -0.30006594818E+03 -0.48929177429E+03  0.16004590267E+03  0.10769069782E+04  0.89703285064E+03 0.  0.
         23    2    4    4    0    0 -0.11156282036E+03 -0.72084192266E+03  0.20189315811E+03  0.76226369972E+03  0.90695977115E+02 0.  0.
         23    2    4    4    0    0 -0.18850312782E+03  0.23155014837E+03 -0.41847255439E+02  0.31464327850E+03  0.90001663919E+02 0.  0.
          2    1    3    3  502    0  0.11925025700E+03  0.21638907093E+03 -0.44619590204E+03  0.51003493685E+03  0.00000000000E+00 0. -1.
         -1    1    3    3    0  502  0.18081569117E+03  0.27290270336E+03 -0.78300825675E+03  0.84868847631E+03  0.00000000000E+00 0.  1.
         11    1    5    5    0    0 -0.12073226838E+03 -0.55517889197E+03  0.17249351219E+03  0.59376248994E+03  0.00000000000E+00 0.  1.
        -11    1    5    5    0    0  0.91694480282E+01 -0.16566303069E+03  0.29399645924E+02  0.16850120977E+03  0.00000000000E+00 0. -1.
          2    1    6    6  503    0 -0.10939791643E+03  0.86964078071E+02 -0.52977467726E+02  0.14945657256E+03  0.00000000000E+00 0.  1.
         -2    1    6    6    0  503 -0.79105211387E+02  0.14458607030E+03  0.11130212288E+02  0.16518670594E+03  0.00000000000E+00 0. -1.
<mgrwt>
<rscale>  0 0.21884232E+04</rscale>
<asrwt>0</asrwt>
<pdfrwt beam="1">  1        2 0.10511324E+00 0.21884232E+04</pdfrwt>
<pdfrwt beam="2">  1       -1 0.26959913E+00 0.21884232E+04</pdfrwt>
<totfact> 0.22932486E+00</totfact>
</mgrwt>
</event>
<event>
12    6  0.1494052E-007  0.1346837E+04  0.7818608E-02  0.8993226E-01
          2   -1    0    0  501    0  0.00000000000E+00  0.00000000000E+00  0.76005590580E+03  0.76005590580E+03  0.00000000000E+00 0. -1.
         -1   -1    0    0    0  501 -0.00000000000E+00 -0.00000000000E+00 -0.59665711336E+03  0.59665711336E+03  0.00000000000E+00 0.  1.
         24    2    1    2    0    0 -0.24684818161E+03 -0.26249457988E+03 -0.22816881135E+02  0.36966006837E+03  0.79312841656E+02 0.  0.
        254    2    1    2    0    0  0.24684818161E+03  0.26249457988E+03  0.18621567357E+03  0.98705295079E+03  0.89986655753E+03 0.  0.
         23    2    4    4    0    0  0.43138467669E+03  0.17534374309E+03  0.44173740071E+03  0.64768396799E+03  0.86743435933E+02 0.  0.
         23    2    4    4    0    0 -0.18453649508E+03  0.87150836792E+02 -0.25552172714E+03  0.33936898280E+03  0.90724677330E+02 0.  0.
          2    1    3    3  502    0 -0.11476972980E+03 -0.81850491604E+02  0.18253452833E+02  0.14214352744E+03  0.00000000000E+00 0. -1.
         -1    1    3    3    0  502 -0.13207845181E+03 -0.18064408828E+03 -0.41070333968E+02  0.22751654093E+03  0.00000000000E+00 0.  1.
         11    1    5    5    0    0  0.18200886410E+02  0.84118529973E+01  0.51769242762E+02  0.55516538375E+02  0.00000000000E+00 0. -1.
        -11    1    5    5    0    0  0.41318379028E+03  0.16693189010E+03  0.38996815795E+03  0.59216742962E+03  0.00000000000E+00 0.  1.
          4    1    6    6  503    0 -0.80222489560E+02  0.13937537536E+01 -0.14134516920E+03  0.16253014255E+03  0.00000000000E+00 0. -1.
         -4    1    6    6    0  503 -0.10431400552E+03  0.85757083039E+02 -0.11417655794E+03  0.17683884026E+03  0.00000000000E+00 0.  1.
<mgrwt>
<rscale>  0 0.13468374E+04</rscale>
<asrwt>0</asrwt>
<pdfrwt beam="1">  1        2 0.11693168E+00 0.13468374E+04</pdfrwt>
<pdfrwt beam="2">  1       -1 0.91793401E-01 0.13468374E+04</pdfrwt>
<totfact> 0.47562228E+01</totfact>
</mgrwt>
</event>
<event>
12    6  0.1494052E-007  0.1924511E+04  0.7818608E-02  0.8642751E-01
         -1   -1    0    0    0  501 -0.00000000000E+00  0.00000000000E+00  0.10489372323E+04  0.10489372323E+04  0.00000000000E+00 0.  1.
          2   -1    0    0  501    0  0.00000000000E+00 -0.00000000000E+00 -0.88273702125E+03  0.88273702125E+03  0.00000000000E+00 0. -1.
         24    2    1    2    0    0 -0.47742996495E+03 -0.48765758698E+03  0.36979544917E+03  0.78043294132E+03  0.81102454265E+02 0.  0.
        254    2    1    2    0    0  0.47742996495E+03  0.48765758698E+03 -0.20359523817E+03  0.11512413122E+04  0.90451989713E+03 0.  0.
         23    2    4    4    0    0  0.13145882534E+03  0.41748013390E+03 -0.50683867529E+03  0.67706154776E+03  0.99778814015E+02 0.  0.
         23    2    4    4    0    0  0.34597113961E+03  0.70177453079E+02  0.30324343712E+03  0.47417976442E+03  0.90933835677E+02 0.  0.
          4    1    3    3  502    0 -0.63739963363E+02 -0.76233563334E+02  0.86958050049E+02  0.13204560415E+03  0.00000000000E+00 0. -1.
         -3    1    3    3    0  502 -0.41369000159E+03 -0.41142402365E+03  0.28283739913E+03  0.64838733716E+03  0.00000000000E+00 0.  1.
         11    1    5    5    0    0  0.89270783072E+02  0.22438602737E+03 -0.34755981716E+03  0.42322120516E+03  0.00000000000E+00 0.  1.
        -11    1    5    5    0    0  0.42188042267E+02  0.19309410653E+03 -0.15927885813E+03  0.25384034260E+03  0.00000000000E+00 0. -1.
          1    1    6    6  503    0  0.11320773212E+03  0.10415521728E+02  0.47397509740E+02  0.12317060377E+03  0.00000000000E+00 0. -1.
         -1    1    6    6    0  503  0.23276340749E+03  0.59761931351E+02  0.25584592738E+03  0.35100916065E+03  0.00000000000E+00 0.  1.
<mgrwt>
<rscale>  0 0.19245111E+04</rscale>
<asrwt>0</asrwt>
<pdfrwt beam="1">  1        2 0.13580570E+00 0.19245111E+04</pdfrwt>
<pdfrwt beam="2">  1       -1 0.16137496E+00 0.19245111E+04</pdfrwt>
<totfact> 0.91685109E+00</totfact>
</mgrwt>
</event>
<event>
12    6  0.1494052E-007  0.1288822E+04  0.7818608E-02  0.9038477E-01
          2   -1    0    0  501    0  0.00000000000E+00  0.00000000000E+00  0.57468867305E+03  0.57468867305E+03  0.00000000000E+00 0. -1.
         -1   -1    0    0    0  501 -0.00000000000E+00 -0.00000000000E+00 -0.72259213091E+03  0.72259213091E+03  0.00000000000E+00 0.  1.
         24    2    1    2    0    0 -0.20188640500E+03  0.23994102251E+03  0.28895040169E+02  0.32475293548E+03  0.79370844456E+02 0.  0.
        254    2    1    2    0    0  0.20188640500E+03 -0.23994102251E+03 -0.17679849804E+03  0.97252786848E+03  0.90345056935E+03 0.  0.
         23    2    4    4    0    0  0.43908642946E+03 -0.20358570270E+03  0.18654994388E+03  0.52674193877E+03  0.91717815122E+02 0.  0.
         23    2    4    4    0    0 -0.23720002447E+03 -0.36355319807E+02 -0.36334844192E+03  0.44578592971E+03  0.95485307749E+02 0.  0.
          4    1    3    3  502    0 -0.11939815901E+03  0.18416632493E+03  0.44537548216E+02  0.22395702448E+03  0.00000000000E+00 0. -1.
         -3    1    3    3    0  502 -0.82488245986E+02  0.55774697585E+02 -0.15642508047E+02  0.10079591100E+03  0.00000000000E+00 0.  1.
         11    1    5    5    0    0  0.24718003878E+02 -0.21555287923E+02 -0.85502438683E+01  0.33892725227E+02  0.00000000000E+00 0.  1.
        -11    1    5    5    0    0  0.41436842559E+03 -0.18203041478E+03  0.19510018775E+03  0.49284921354E+03  0.00000000000E+00 0. -1.
          3    1    6    6  503    0 -0.23605081210E+03 -0.14875782375E+02 -0.32745583114E+03  0.40394132760E+03  0.00000000000E+00 0. -1.
         -3    1    6    6    0  503 -0.11492123689E+01 -0.21479537432E+02 -0.35892610774E+02  0.41844602108E+02  0.00000000000E+00 0.  1.
<mgrwt>
<rscale>  0 0.12888220E+04</rscale>
<asrwt>0</asrwt>
<pdfrwt beam="1">  1        2 0.88413642E-01 0.12888220E+04</pdfrwt>
<pdfrwt beam="2">  1       -1 0.11116802E+00 0.12888220E+04</pdfrwt>
<totfact> 0.43616203E+01</totfact>
</mgrwt>
</event>
<event>
12    6  0.1494052E-007  0.2219879E+04  0.7818608E-02  0.8510199E-01
         -1   -1    0    0    0  501 -0.00000000000E+00  0.00000000000E+00  0.67781977328E+03  0.67781977328E+03  0.00000000000E+00 0.  1.
          2   -1    0    0  501    0  0.00000000000E+00 -0.00000000000E+00 -0.18175412452E+04  0.18175412452E+04  0.00000000000E+00 0. -1.
         24    2    1    2    0    0 -0.15320593163E+03 -0.68991941804E+03  0.19492577891E+03  0.73803880091E+03  0.85113756227E+02 0.  0.
        254    2    1    2    0    0  0.15320593163E+03  0.68991941804E+03 -0.13346472509E+04  0.17573222176E+04  0.89857511169E+03 0.  0.
         23    2    4    4    0    0 -0.11837400989E+00 -0.17699898595E+03 -0.50569200221E+03  0.54463253829E+03  0.97834276301E+02 0.  0.
         23    2    4    4    0    0  0.15332430564E+03  0.86691840399E+03 -0.82895524866E+03  0.12126896793E+04  0.91616549587E+02 0.  0.
          4    1    3    3  502    0 -0.18692033911E+02 -0.23743465939E+02  0.20098271484E+02  0.36291663274E+02  0.00000000000E+00 0. -1.
         -3    1    3    3    0  502 -0.13451389772E+03 -0.66617595210E+03  0.17482750743E+03  0.70174713764E+03  0.00000000000E+00 0.  1.
         11    1    5    5    0    0 -0.16704479557E+02 -0.11581568874E+03 -0.19398330459E+03  0.22654323176E+03  0.00000000000E+00 0. -1.
        -11    1    5    5    0    0  0.16586105547E+02 -0.61183297214E+02 -0.31170869762E+03  0.31808930653E+03  0.00000000000E+00 0.  1.
          2    1    6    6  503    0  0.14418195163E+03  0.82647698640E+03 -0.81302363041E+03  0.11682722576E+04  0.00000000000E+00 0. -1.
         -2    1    6    6    0  503  0.91423540084E+01  0.40441417596E+02 -0.15931618253E+02  0.44417421741E+02  0.00000000000E+00 0.  1.
<mgrwt>
<rscale>  0 0.22198787E+04</rscale>
<asrwt>0</asrwt>
<pdfrwt beam="1">  1        2 0.27962173E+00 0.22198787E+04</pdfrwt>
<pdfrwt beam="2">  1       -1 0.10427996E+00 0.22198787E+04</pdfrwt>
<totfact> 0.75833538E+00</totfact>
</mgrwt>
</event>
<event>
12    6  0.1494052E-007  0.1904896E+04  0.7818608E-02  0.8652423E-01
          2   -1    0    0  501    0  0.00000000000E+00  0.00000000000E+00  0.10201430773E+04  0.10201430773E+04  0.00000000000E+00 0. -1.
         -1   -1    0    0    0  501 -0.00000000000E+00 -0.00000000000E+00 -0.88924514116E+03  0.88924514116E+03  0.00000000000E+00 0.  1.
         24    2    1    2    0    0 -0.48127402856E+02  0.20837948617E+03 -0.65668046634E+03  0.69507332570E+03  0.78482074845E+02 0.  0.
        254    2    1    2    0    0  0.48127402856E+02 -0.20837948617E+03  0.78757840248E+03  0.12143148928E+04  0.89919000304E+03 0.  0.
         23    2    4    4    0    0  0.21131208759E+03  0.17850138534E+03  0.72188167550E+03  0.77841709897E+03  0.91128939549E+02 0.  0.
         23    2    4    4    0    0 -0.16318468474E+03 -0.38688087150E+03  0.65696726984E+02  0.43589779379E+03  0.96875056769E+02 0.  0.
          4    1    3    3  502    0  0.13632183285E+02  0.20250392808E+02 -0.13273622156E+03  0.13496228860E+03  0.00000000000E+00 0. -1.
         -3    1    3    3    0  502 -0.61759586141E+02  0.18812909336E+03 -0.52394424478E+03  0.56011103710E+03  0.00000000000E+00 0.  1.
         11    1    5    5    0    0  0.19149008030E+03  0.18560949532E+03  0.62937433951E+03  0.68354326479E+03  0.00000000000E+00 0.  1.
        -11    1    5    5    0    0  0.19822007290E+02 -0.71081099865E+01  0.92507335990E+02  0.94873834183E+02  0.00000000000E+00 0. -1.
          1    1    6    6  503    0  0.81437139684E+01 -0.22872003864E+01  0.66255734876E+01  0.10744746942E+02  0.00000000000E+00 0. -1.
         -1    1    6    6    0  503 -0.17132839871E+03 -0.38459367112E+03  0.59071153496E+02  0.42515304685E+03  0.00000000000E+00 0.  1.
<mgrwt>
<rscale>  0 0.19048961E+04</rscale>
<asrwt>0</asrwt>
<pdfrwt beam="1">  1        2 0.15694509E+00 0.19048961E+04</pdfrwt>
<pdfrwt beam="2">  1       -1 0.13680694E+00 0.19048961E+04</pdfrwt>
<totfact> 0.11624612E+01</totfact>
</mgrwt>
</event>
<event>
12    6  0.1494052E-007  0.1447121E+04  0.7818608E-02  0.8920399E-01
          2   -1    0    0  501    0  0.00000000000E+00  0.00000000000E+00  0.20629730887E+04  0.20629730887E+04  0.00000000000E+00 0. -1.
         -1   -1    0    0    0  501 -0.00000000000E+00 -0.00000000000E+00 -0.25377923431E+03  0.25377923431E+03  0.00000000000E+00 0.  1.
         24    2    1    2    0    0 -0.26830220085E+03 -0.23653825939E+03  0.16993127622E+03  0.40394081896E+03  0.79719053240E+02 0.  0.
        254    2    1    2    0    0  0.26830220085E+03  0.23653825939E+03  0.16392625782E+04  0.19128115040E+04  0.91854756583E+03 0.  0.
         23    2    4    4    0    0  0.54597212637E+03 -0.64756339200E+02  0.81046738544E+03  0.98374891750E+03  0.92874127654E+02 0.  0.
         23    2    4    4    0    0 -0.27766992553E+03  0.30129459859E+03  0.82879519273E+03  0.92906258654E+03  0.91524835627E+02 0.  0.
          2    1    3    3  502    0 -0.18975172187E+02 -0.50976384080E+02  0.13747471037E+02  0.56103848828E+02  0.00000000000E+00 0. -1.
         -1    1    3    3    0  502 -0.24932702866E+03 -0.18556187531E+03  0.15618380518E+03  0.34783697013E+03  0.00000000000E+00 0.  1.
         11    1    5    5    0    0  0.11312506689E+03  0.23179411645E+02  0.15278689266E+03  0.19151605795E+03  0.00000000000E+00 0.  1.
        -11    1    5    5    0    0  0.43284705949E+03 -0.87935750845E+02  0.65768049277E+03  0.79223285956E+03  0.00000000000E+00 0. -1.
          3    1    6    6  503    0 -0.96582901527E+02  0.13853188854E+03  0.42790627860E+03  0.46002513439E+03  0.00000000000E+00 0. -1.
         -3    1    6    6    0  503 -0.18108702400E+03  0.16276271005E+03  0.40088891414E+03  0.46903745215E+03  0.00000000000E+00 0.  1.
<mgrwt>
<rscale>  0 0.14471209E+04</rscale>
<asrwt>0</asrwt>
<pdfrwt beam="1">  1        2 0.31738046E+00 0.14471209E+04</pdfrwt>
<pdfrwt beam="2">  1       -1 0.39042961E-01 0.14471209E+04</pdfrwt>
<totfact> 0.43381762E+01</totfact>
</mgrwt>
</event>
<event>
12    6  0.1494052E-007  0.1407888E+04  0.7818608E-02  0.8948128E-01
         -1   -1    0    0    0  501 -0.00000000000E+00  0.00000000000E+00  0.28992528676E+03  0.28992528676E+03  0.00000000000E+00 0.  1.
          2   -1    0    0  501    0  0.00000000000E+00 -0.00000000000E+00 -0.17091897067E+04  0.17091897067E+04  0.00000000000E+00 0. -1.
         24    2    1    2    0    0 -0.30493497627E+03 -0.20664756586E+03 -0.58883010993E+03  0.69935864627E+03  0.81811133179E+02 0.  0.
        254    2    1    2    0    0  0.30493497627E+03  0.20664756586E+03 -0.83043430999E+03  0.12997563472E+04  0.92954658979E+03 0.  0.
         23    2    4    4    0    0 -0.28427099333E+03  0.25499019201E+03 -0.23737931987E+03  0.45731305680E+03  0.83404404835E+02 0.  0.
         23    2    4    4    0    0  0.58920596960E+03 -0.48342626147E+02 -0.59305499012E+03  0.84244329038E+03  0.92172621162E+02 0.  0.
          2    1    3    3  502    0 -0.23440719886E+03 -0.12096081440E+03 -0.37550458142E+03  0.45889208336E+03  0.00000000000E+00 0. -1.
         -1    1    3    3    0  502 -0.70527777410E+02 -0.85686751464E+02 -0.21332552851E+03  0.24046656291E+03  0.00000000000E+00 0.  1.
         11    1    5    5    0    0 -0.90075089109E+02  0.41640696274E+02 -0.87024569226E+02  0.13198766955E+03  0.00000000000E+00 0. -1.
        -11    1    5    5    0    0 -0.19419590422E+03  0.21334949574E+03 -0.15035475064E+03  0.32532538725E+03  0.00000000000E+00 0.  1.
          3    1    6    6  503    0  0.19813741323E+03  0.26670703304E+02 -0.20871889043E+03  0.28902134204E+03  0.00000000000E+00 0. -1.
         -3    1    6    6    0  503  0.39106855637E+03 -0.75013329451E+02 -0.38433609969E+03  0.55342194834E+03  0.00000000000E+00 0.  1.
<mgrwt>
<rscale>  0 0.14078882E+04</rscale>
<asrwt>0</asrwt>
<pdfrwt beam="1">  1        2 0.26295226E+00 0.14078882E+04</pdfrwt>
<pdfrwt beam="2">  1       -1 0.44603890E-01 0.14078882E+04</pdfrwt>
<totfact> 0.53477456E+01</totfact>
</mgrwt>
</event>
<event>
12    6  0.1494052E-007  0.3553153E+04  0.7818608E-02  0.8101308E-01
          2   -1    0    0  501    0  0.00000000000E+00  0.00000000000E+00  0.29746398963E+04  0.29746398963E+04  0.00000000000E+00 0. -1.
         -1   -1    0    0    0  501 -0.00000000000E+00 -0.00000000000E+00 -0.10610441080E+04  0.10610441080E+04  0.00000000000E+00 0.  1.
         24    2    1    2    0    0  0.11112815521E+04 -0.20561676398E+03  0.22153155026E+04  0.24882965221E+04  0.82291337361E+02 0.  0.
        254    2    1    2    0    0 -0.11112815521E+04  0.20561676398E+03 -0.30171971422E+03  0.15473874822E+04  0.10129897791E+04 0.  0.
         23    2    4    4    0    0 -0.10552562254E+03  0.83381290314E+02  0.31707278976E+03  0.35672965404E+03  0.92912838065E+02 0.  0.
         23    2    4    4    0    0 -0.10057559296E+04  0.12223547367E+03 -0.61879250398E+03  0.11906578282E+04  0.90969225706E+02 0.  0.
          2    1    3    3  502    0  0.88930218069E+03 -0.16817525854E+03  0.16987334967E+04  0.19247952564E+04  0.00000000000E+00 0. -1.
         -1    1    3    3    0  502  0.22197937140E+03 -0.37441505443E+02  0.51658200582E+03  0.56350126566E+03  0.00000000000E+00 0.  1.
         11    1    5    5    0    0 -0.75429321323E+01  0.67134140022E+01  0.13975324900E+03  0.14011758047E+03  0.00000000000E+00 0.  1.
        -11    1    5    5    0    0 -0.97982690406E+02  0.76667876311E+02  0.17731954077E+03  0.21661207357E+03  0.00000000000E+00 0. -1.
          1    1    6    6  503    0 -0.19664455536E+02  0.32257979202E+01  0.90293665318E+00  0.19947728652E+02  0.00000000000E+00 0. -1.
         -1    1    6    6    0  503 -0.98609147402E+03  0.11900967575E+03 -0.61969544064E+03  0.11707100996E+04  0.00000000000E+00 0.  1.
<mgrwt>
<rscale>  0 0.35531530E+04</rscale>
<asrwt>0</asrwt>
<pdfrwt beam="1">  1        2 0.45763691E+00 0.35531530E+04</pdfrwt>
<pdfrwt beam="2">  1       -1 0.16323756E+00 0.35531530E+04</pdfrwt>
<totfact> 0.46324068E-01</totfact>
</mgrwt>
</event>
<event>
12    6  0.1494052E-007  0.1351033E+04  0.7818608E-02  0.8990047E-01
         -1   -1    0    0    0  501 -0.00000000000E+00  0.00000000000E+00  0.42569949435E+03  0.42569949435E+03  0.00000000000E+00 0.  1.
          4   -1    0    0  501    0  0.00000000000E+00 -0.00000000000E+00 -0.10719354330E+04  0.10719354330E+04  0.00000000000E+00 0. -1.
         24    2    1    2    0    0  0.31895218949E+03  0.20335889895E+03 -0.20554253326E+03  0.43802139531E+03  0.80806366117E+02 0.  0.
        254    2    1    2    0    0 -0.31895218949E+03 -0.20335889895E+03 -0.44069340534E+03  0.10596135320E+04  0.88627581413E+03 0.  0.
         23    2    4    4    0    0  0.23094953563E+03  0.14201999279E+03 -0.24252667246E+03  0.37492099876E+03  0.90770050643E+02 0.  0.
         23    2    4    4    0    0 -0.54990172512E+03 -0.34537889174E+03 -0.19816673288E+03  0.68469253324E+03  0.88630270773E+02 0.  0.
          2    1    3    3  502    0  0.12901632846E+03  0.93108863278E+02 -0.13101507057E+03  0.20610536661E+03  0.00000000000E+00 0. -1.
         -1    1    3    3    0  502  0.18993586103E+03  0.11025003567E+03 -0.74527462697E+02  0.23191602870E+03  0.00000000000E+00 0.  1.
         11    1    5    5    0    0  0.21131079797E+03  0.13568292466E+03 -0.17970716496E+03  0.30879892247E+03  0.00000000000E+00 0. -1.
        -11    1    5    5    0    0  0.19638737664E+02  0.63370681276E+01 -0.62819507501E+02  0.66122076284E+02  0.00000000000E+00 0.  1.
          2    1    6    6  503    0 -0.14253280267E+03 -0.11596297971E+03 -0.21925723058E+02  0.18505066828E+03  0.00000000000E+00 0. -1.
         -2    1    6    6    0  503 -0.40736892245E+03 -0.22941591204E+03 -0.17624100982E+03  0.49964186495E+03  0.00000000000E+00 0.  1.
<mgrwt>
<rscale>  0 0.13510327E+04</rscale>
<asrwt>0</asrwt>
<pdfrwt beam="1">  1        4 0.16491314E+00 0.13510327E+04</pdfrwt>
<pdfrwt beam="2">  1       -1 0.65492230E-01 0.13510327E+04</pdfrwt>
<totfact> 0.21760298E+00</totfact>
</mgrwt>
</event>
<event>
12    6  0.1494052E-007  0.2097659E+04  0.7818608E-02  0.8562275E-01
          2   -1    0    0  501    0  0.00000000000E+00  0.00000000000E+00  0.92352089310E+03  0.92352089310E+03  0.00000000000E+00 0. -1.
         -1   -1    0    0    0  501 -0.00000000000E+00 -0.00000000000E+00 -0.11911412164E+04  0.11911412164E+04  0.00000000000E+00 0.  1.
         24    2    1    2    0    0  0.63170403409E+03 -0.55872973143E+03  0.47540863185E+02  0.84859950968E+03  0.81437673593E+02 0.  0.
        254    2    1    2    0    0 -0.63170403409E+03  0.55872973143E+03 -0.31516118650E+03  0.12660625998E+04  0.89014551267E+03 0.  0.
         23    2    4    4    0    0 -0.98259198588E+02  0.65655843869E+03 -0.23271784258E+03  0.70935933571E+03  0.91154919709E+02 0.  0.
         23    2    4    4    0    0 -0.53344483550E+03 -0.97828707261E+02 -0.82443343924E+02  0.55670326411E+03  0.94803854486E+02 0.  0.
          4    1    3    3  502    0  0.18656389681E+03 -0.20988993533E+03 -0.26617458679E+01  0.28083261462E+03  0.00000000000E+00 0. -1.
         -3    1    3    3    0  502  0.44514013728E+03 -0.34883979611E+03  0.50202609053E+02  0.56776689506E+03  0.00000000000E+00 0.  1.
         11    1    5    5    0    0 -0.67294625577E+02  0.19058001775E+03 -0.52806002915E+02  0.20889658623E+03  0.00000000000E+00 0. -1.
        -11    1    5    5    0    0 -0.30964573010E+02  0.46597842095E+03 -0.17991183966E+03  0.50046274948E+03  0.00000000000E+00 0.  1.
          1    1    6    6  503    0 -0.25849683897E+03 -0.58205553473E+02 -0.86973536975E+02  0.27887792732E+03  0.00000000000E+00 0. -1.
         -1    1    6    6    0  503 -0.27494799654E+03 -0.39623153788E+02  0.45301930510E+01  0.27782533680E+03  0.00000000000E+00 0.  1.
<mgrwt>
<rscale>  0 0.20976595E+04</rscale>
<asrwt>0</asrwt>
<pdfrwt beam="1">  1        2 0.14208014E+00 0.20976595E+04</pdfrwt>
<pdfrwt beam="2">  1       -1 0.18325249E+00 0.20976595E+04</pdfrwt>
<totfact> 0.58633350E+00</totfact>
</mgrwt>
</event>
<event>
12    6  0.1494052E-007  0.2373886E+04  0.7818608E-02  0.8449345E-01
          2   -1    0    0  501    0  0.00000000000E+00  0.00000000000E+00  0.12894500698E+04  0.12894500698E+04  0.00000000000E+00 0. -1.
         -1   -1    0    0    0  501 -0.00000000000E+00 -0.00000000000E+00 -0.10925847557E+04  0.10925847557E+04  0.00000000000E+00 0.  1.
         24    2    1    2    0    0 -0.88347760777E+03  0.42791936217E+03  0.34258452192E+03  0.10427722030E+04  0.79762452368E+02 0.  0.
        254    2    1    2    0    0  0.88347760777E+03 -0.42791936217E+03 -0.14571920788E+03  0.13392626225E+04  0.89930118453E+03 0.  0.
         23    2    4    4    0    0  0.14479354192E+03  0.26041439750E+03 -0.87115970877E+02  0.32357416720E+03  0.91270044862E+02 0.  0.
         23    2    4    4    0    0  0.73868406585E+03 -0.68833375967E+03 -0.58603236998E+02  0.10156884553E+04  0.93440810073E+02 0.  0.
          2    1    3    3  502    0 -0.65298287638E+03  0.29030254652E+03  0.27708783694E+03  0.76644626344E+03  0.00000000000E+00 0. -1.
         -1    1    3    3    0  502 -0.23049473139E+03  0.13761681565E+03  0.65496684976E+02  0.27632593959E+03  0.00000000000E+00 0.  1.
         11    1    5    5    0    0  0.18782013548E+02  0.13887929595E+02  0.15799240693E+02  0.28200259358E+02  0.00000000000E+00 0. -1.
        -11    1    5    5    0    0  0.12601152837E+03  0.24652646790E+03 -0.10291521157E+03  0.29537390784E+03  0.00000000000E+00 0.  1.
          1    1    6    6  503    0  0.10213749148E+03 -0.10286754204E+03 -0.41052767947E+02  0.15066229829E+03  0.00000000000E+00 0. -1.
         -1    1    6    6    0  503  0.63654657437E+03 -0.58546621764E+03 -0.17550469051E+02  0.86502615701E+03  0.00000000000E+00 0.  1.
<mgrwt>
<rscale>  0 0.23738858E+04</rscale>
<asrwt>0</asrwt>
<pdfrwt beam="1">  1        2 0.19837693E+00 0.23738858E+04</pdfrwt>
<pdfrwt beam="2">  1       -1 0.16808996E+00 0.23738858E+04</pdfrwt>
<totfact> 0.43771837E+00</totfact>
</mgrwt>
</event>
<event>
12    6  0.1494052E-007  0.1352046E+04  0.7818608E-02  0.8989281E-01
          2   -1    0    0  501    0  0.00000000000E+00  0.00000000000E+00  0.10901948450E+04  0.10901948450E+04  0.00000000000E+00 0. -1.
         -1   -1    0    0    0  501 -0.00000000000E+00 -0.00000000000E+00 -0.41919738107E+03  0.41919738107E+03  0.00000000000E+00 0.  1.
         24    2    1    2    0    0 -0.14333124335E+03  0.36157491975E+02  0.52971815962E+03  0.55684937901E+03  0.87342387926E+02 0.  0.
        254    2    1    2    0    0  0.14333124335E+03 -0.36157491975E+02  0.14127930426E+03  0.95254284701E+03  0.93033694113E+03 0.  0.
         23    2    4    4    0    0 -0.19337638193E+03  0.32042411349E+03 -0.99308270555E+02  0.39841154398E+03  0.93827438304E+02 0.  0.
         23    2    4    4    0    0  0.33670762528E+03 -0.35658160547E+03  0.24058757482E+03  0.55413130303E+03  0.93041139096E+02 0.  0.
          4    1    3    3  502    0 -0.60632923354E+02  0.60053671034E+02  0.27950323054E+03  0.29224108315E+03  0.00000000000E+00 0. -1.
         -3    1    3    3    0  502 -0.82698319995E+02 -0.23896179059E+02  0.25021492908E+03  0.26460829586E+03  0.00000000000E+00 0.  1.
         11    1    5    5    0    0 -0.19903111012E+03  0.31998416819E+03 -0.89872021834E+02  0.38740189854E+03  0.00000000000E+00 0. -1.
        -11    1    5    5    0    0  0.56547281872E+01  0.43994530720E+00 -0.94362487217E+01  0.11009645439E+02  0.00000000000E+00 0.  1.
          3    1    6    6  503    0  0.33972364949E+03 -0.33525332846E+03  0.23425796611E+03  0.53168011713E+03  0.00000000000E+00 0. -1.
         -3    1    6    6    0  503 -0.30160242056E+01 -0.21328277009E+02  0.63296087106E+01  0.22451185907E+02  0.00000000000E+00 0.  1.
<mgrwt>
<rscale>  0 0.13520456E+04</rscale>
<asrwt>0</asrwt>
<pdfrwt beam="1">  1        2 0.16772228E+00 0.13520456E+04</pdfrwt>
<pdfrwt beam="2">  1       -1 0.64491905E-01 0.13520456E+04</pdfrwt>
<totfact> 0.59999786E+01</totfact>
</mgrwt>
</event>
<event>
12    6  0.1494052E-007  0.1543888E+04  0.7818608E-02  0.8855781E-01
         -1   -1    0    0    0  501 -0.00000000000E+00  0.00000000000E+00  0.39023698946E+03  0.39023698946E+03  0.00000000000E+00 0.  1.
          2   -1    0    0  501    0  0.00000000000E+00 -0.00000000000E+00 -0.15270152888E+04  0.15270152888E+04  0.00000000000E+00 0. -1.
         24    2    1    2    0    0 -0.43374367381E+03  0.25531423139E+03 -0.30094944928E+03  0.59185886303E+03  0.80046307810E+02 0.  0.
        254    2    1    2    0    0  0.43374367381E+03 -0.25531423139E+03 -0.83582885007E+03  0.13253934152E+04  0.89707240912E+03 0.  0.
         23    2    4    4    0    0 -0.23467583253E+03  0.89218169693E+02 -0.27455268053E+03  0.38270356663E+03  0.89723003447E+02 0.  0.
         23    2    4    4    0    0  0.66841950634E+03 -0.34453240109E+03 -0.56127616954E+03  0.94268984860E+03  0.90255195469E+02 0.  0.
          4    1    3    3  502    0 -0.21852417217E+03  0.15999834531E+03 -0.19499394549E+03  0.33372881671E+03  0.00000000000E+00 0. -1.
         -3    1    3    3    0  502 -0.21521950164E+03  0.95315886084E+02 -0.10595550379E+03  0.25813004631E+03  0.00000000000E+00 0.  1.
         11    1    5    5    0    0 -0.24085968302E+03  0.82615021352E+02 -0.27335262674E+03  0.37357768563E+03  0.00000000000E+00 0. -1.
        -11    1    5    5    0    0  0.61838504872E+01  0.66031483404E+01 -0.12000537873E+01  0.91258809957E+01  0.00000000000E+00 0.  1.
          4    1    6    6  503    0  0.56061793218E+02 -0.60012435072E+02 -0.58152107085E+02  0.10062844817E+03  0.00000000000E+00 0.  1.
         -4    1    6    6    0  503  0.61235771313E+03 -0.28451996601E+03 -0.50312406245E+03  0.84206140044E+03  0.00000000000E+00 0. -1.
<mgrwt>
<rscale>  0 0.15438884E+04</rscale>
<asrwt>0</asrwt>
<pdfrwt beam="1">  1        2 0.23492543E+00 0.15438884E+04</pdfrwt>
<pdfrwt beam="2">  1       -1 0.60036458E-01 0.15438884E+04</pdfrwt>
<totfact> 0.37830790E+01</totfact>
</mgrwt>
</event>
<event>
12    6  0.1494052E-007  0.1417381E+04  0.7818608E-02  0.8941333E-01
          2   -1    0    0  501    0  0.00000000000E+00  0.00000000000E+00  0.13405158649E+04  0.13405158649E+04  0.00000000000E+00 0. -1.
         -1   -1    0    0    0  501 -0.00000000000E+00 -0.00000000000E+00 -0.37466320383E+03  0.37466320383E+03  0.00000000000E+00 0.  1.
         24    2    1    2    0    0 -0.34690454389E+03 -0.18101704789E+03  0.10481334757E+03  0.41259460465E+03  0.78348808273E+02 0.  0.
        254    2    1    2    0    0  0.34690454389E+03  0.18101704789E+03  0.86103931355E+03  0.13025844641E+04  0.89567162093E+03 0.  0.
         23    2    4    4    0    0 -0.29194326122E+03  0.99937647612E+02  0.22500285025E+03  0.39218842045E+03  0.89258463631E+02 0.  0.
         23    2    4    4    0    0  0.63884780511E+03  0.81079400277E+02  0.63603646330E+03  0.91039604369E+03  0.97868209714E+02 0.  0.
          4    1    3    3  502    0 -0.17449027933E+02 -0.33981690290E+02  0.12519055590E+02  0.40198888090E+02  0.00000000000E+00 0. -1.
         -3    1    3    3    0  502 -0.32945551596E+03 -0.14703535760E+03  0.92294291977E+02  0.37239571656E+03  0.00000000000E+00 0.  1.
         11    1    5    5    0    0 -0.10089569848E+03 -0.73269488957E+01  0.57203756078E+02  0.11621486936E+03  0.00000000000E+00 0. -1.
        -11    1    5    5    0    0 -0.19104756275E+03  0.10726459651E+03  0.16779909417E+03  0.27597355109E+03  0.00000000000E+00 0.  1.
          1    1    6    6  503    0  0.64234204333E+03  0.79922568624E+02  0.62963759734E+03  0.90301407608E+03  0.00000000000E+00 0. -1.
         -1    1    6    6    0  503 -0.34942382230E+01  0.11568316523E+01  0.63988659642E+01  0.73819676142E+01  0.00000000000E+00 0.  1.
<mgrwt>
<rscale>  0 0.14173806E+04</rscale>
<asrwt>0</asrwt>
<pdfrwt beam="1">  1        2 0.20623321E+00 0.14173806E+04</pdfrwt>
<pdfrwt beam="2">  1       -1 0.57640494E-01 0.14173806E+04</pdfrwt>
<totfact> 0.52889193E+01</totfact>
</mgrwt>
</event>
<event>
12    6  0.1494052E-007  0.1340552E+04  0.7818608E-02  0.8998011E-01
          4   -1    0    0  501    0  0.00000000000E+00  0.00000000000E+00  0.28182821947E+03  0.28182821947E+03  0.00000000000E+00 0. -1.
         -1   -1    0    0    0  501 -0.00000000000E+00 -0.00000000000E+00 -0.15941259661E+04  0.15941259661E+04  0.00000000000E+00 0.  1.
         24    2    1    2    0    0  0.27089138935E+03  0.23436593372E+03 -0.31049832597E+03  0.48064830852E+03  0.79398049974E+02 0.  0.
        254    2    1    2    0    0 -0.27089138935E+03 -0.23436593372E+03 -0.10017994206E+04  0.13953058770E+04  0.90275515814E+03 0.  0.
         23    2    4    4    0    0  0.65776461303E+02 -0.24121075580E+03  0.65821007585E+02  0.27205464722E+03  0.84688573368E+02 0.  0.
         23    2    4    4    0    0 -0.33666785065E+03  0.68448220760E+01 -0.10676204282E+04  0.11232512298E+04  0.92129546033E+02 0.  0.
          2    1    3    3  502    0  0.20605039345E+03  0.18788874396E+03 -0.19497703899E+03  0.34025724163E+03  0.00000000000E+00 0. -1.
         -1    1    3    3    0  502  0.64840995896E+02  0.46477189764E+02 -0.11552128698E+03  0.14039106689E+03  0.00000000000E+00 0.  1.
         11    1    5    5    0    0  0.52117500538E+02 -0.14561187503E+03 -0.92955647959E+00  0.15466064816E+03  0.00000000000E+00 0.  1.
        -11    1    5    5    0    0  0.13658960765E+02 -0.95598880768E+02  0.66750564065E+02  0.11739399906E+03  0.00000000000E+00 0. -1.
          1    1    6    6  503    0 -0.36276872895E+02 -0.16747846361E+02 -0.22162463458E+03  0.22519764768E+03  0.00000000000E+00 0. -1.
         -1    1    6    6    0  503 -0.30039097776E+03  0.23592668437E+02 -0.84599579362E+03  0.89805358211E+03  0.00000000000E+00 0.  1.
<mgrwt>
<rscale>  0 0.13405517E+04</rscale>
<asrwt>0</asrwt>
<pdfrwt beam="1">  1        4 0.43358187E-01 0.13405517E+04</pdfrwt>
<pdfrwt beam="2">  1       -1 0.24525015E+00 0.13405517E+04</pdfrwt>
<totfact> 0.16033476E+00</totfact>
</mgrwt>
</event>
<event>
12    6  0.1494052E-007  0.1457670E+04  0.7818608E-02  0.8913100E-01
         -1   -1    0    0    0  501 -0.00000000000E+00  0.00000000000E+00  0.34634909575E+03  0.34634909575E+03  0.00000000000E+00 0.  1.
          2   -1    0    0  501    0  0.00000000000E+00 -0.00000000000E+00 -0.15337149070E+04  0.15337149070E+04  0.00000000000E+00 0. -1.
         24    2    1    2    0    0  0.38411557842E+03 -0.13514258367E+03 -0.49498257450E+03  0.64552023479E+03  0.76683303033E+02 0.  0.
        254    2    1    2    0    0 -0.38411557842E+03  0.13514258367E+03 -0.69238323679E+03  0.12345437680E+04  0.93749425225E+03 0.  0.
         23    2    4    4    0    0 -0.29560565468E+03  0.18950480037E+03  0.14118225523E+03  0.38930229638E+03  0.91263773399E+02 0.  0.
         23    2    4    4    0    0 -0.88509923747E+02 -0.54362216706E+02 -0.83356549202E+03  0.84524147161E+03  0.93874696478E+02 0.  0.
          2    1    3    3  502    0  0.37498236066E+03 -0.14052053422E+03 -0.46469852246E+03  0.61343500725E+03  0.00000000000E+00 0. -1.
         -1    1    3    3    0  502  0.91332177667E+01  0.53779505517E+01 -0.30284052032E+02  0.32085227542E+02  0.00000000000E+00 0.  1.
         11    1    5    5    0    0 -0.15342743691E+03  0.15152042514E+03  0.83643334793E+02  0.23128905094E+03  0.00000000000E+00 0.  1.
        -11    1    5    5    0    0 -0.14217821777E+03  0.37984375238E+02  0.57538920440E+02  0.15801324544E+03  0.00000000000E+00 0. -1.
          2    1    6    6  503    0 -0.90548786994E+02 -0.74389357907E+02 -0.64076141753E+03  0.65138932567E+03  0.00000000000E+00 0.  1.
         -2    1    6    6    0  503  0.20388632470E+01  0.20027141200E+02 -0.19280407449E+03  0.19385214595E+03  0.00000000000E+00 0. -1.
<mgrwt>
<rscale>  0 0.14576704E+04</rscale>
<asrwt>0</asrwt>
<pdfrwt beam="1">  1        2 0.23595614E+00 0.14576704E+04</pdfrwt>
<pdfrwt beam="2">  1       -1 0.53284477E-01 0.14576704E+04</pdfrwt>
<totfact> 0.47665017E+01</totfact>
</mgrwt>
</event>
<event>
12    6  0.1494052E-007  0.2702556E+04  0.7818608E-02  0.8334176E-01
          2   -1    0    0  501    0  0.00000000000E+00  0.00000000000E+00  0.12487367081E+04  0.12487367081E+04  0.00000000000E+00 0. -1.
         -1   -1    0    0    0  501 -0.00000000000E+00 -0.00000000000E+00 -0.14622393639E+04  0.14622393639E+04  0.00000000000E+00 0.  1.
         24    2    1    2    0    0  0.16420584383E+03  0.18059743038E+03 -0.12686310890E+04  0.12943195044E+04  0.79114781475E+02 0.  0.
        254    2    1    2    0    0 -0.16420584383E+03 -0.18059743038E+03  0.10551284332E+04  0.14166565675E+04  0.91325835816E+03 0.  0.
         23    2    4    4    0    0  0.24810521486E+03 -0.20965252083E+03  0.71317540468E+02  0.34569066970E+03  0.94368799975E+02 0.  0.
         23    2    4    4    0    0 -0.41231105868E+03  0.29055090451E+02  0.98381089276E+03  0.10709658978E+04  0.90771549709E+02 0.  0.
          2    1    3    3  502    0  0.40752231194E+02  0.52929700496E+02 -0.19562703425E+03  0.20671776429E+03  0.00000000000E+00 0. -1.
         -1    1    3    3    0  502  0.12345361263E+03  0.12766772988E+03 -0.10730040547E+04  0.10876017402E+04  0.00000000000E+00 0.  1.
         11    1    5    5    0    0  0.84491670257E+02 -0.21713317712E+02  0.34474433781E+02  0.93801903463E+02  0.00000000000E+00 0. -1.
        -11    1    5    5    0    0  0.16361354460E+03 -0.18793920312E+03  0.36843106687E+02  0.25188876624E+03  0.00000000000E+00 0.  1.
          4    1    6    6  503    0 -0.26694518044E+03 -0.16865996508E+02  0.68841933090E+03  0.73855627163E+03  0.00000000000E+00 0. -1.
         -4    1    6    6    0  503 -0.14536587825E+03  0.45921086959E+02  0.29539156185E+03  0.33240962621E+03  0.00000000000E+00 0.  1.
<mgrwt>
<rscale>  0 0.27025558E+04</rscale>
<asrwt>0</asrwt>
<pdfrwt beam="1">  1        2 0.19211334E+00 0.27025558E+04</pdfrwt>
<pdfrwt beam="2">  1       -1 0.22495990E+00 0.27025558E+04</pdfrwt>
<totfact> 0.18054439E+00</totfact>
</mgrwt>
</event>
<event>
12    6  0.1494052E-007  0.2170405E+04  0.7818608E-02  0.8530848E-01
         -3   -1    0    0    0  501 -0.00000000000E+00  0.00000000000E+00  0.35394288729E+03  0.35394288729E+03  0.00000000000E+00 0.  1.
          2   -1    0    0  501    0  0.00000000000E+00 -0.00000000000E+00 -0.33272733538E+04  0.33272733538E+04  0.00000000000E+00 0. -1.
         24    2    1    2    0    0  0.51320599934E+03 -0.72371263838E+03 -0.10154948718E+04  0.13508981568E+04  0.80966750152E+02 0.  0.
        254    2    1    2    0    0 -0.51320599934E+03  0.72371263838E+03 -0.19578355947E+04  0.23303180843E+04  0.90006765158E+03 0.  0.
         23    2    4    4    0    0 -0.18491095671E+03  0.79071805170E+03 -0.89225455150E+03  0.12095609826E+04  0.86559152193E+02 0.  0.
         23    2    4    4    0    0 -0.32829504263E+03 -0.67005413318E+02 -0.10655810432E+04  0.11207571016E+04  0.91466720164E+02 0.  0.
          2    1    3    3  502    0  0.41081657168E+03 -0.62196792698E+03 -0.87524236005E+03  0.11496362671E+04  0.00000000000E+00 0. -1.
         -1    1    3    3    0  502  0.10238942766E+03 -0.10174471140E+03 -0.14025251178E+03  0.20126188973E+03  0.00000000000E+00 0.  1.
         11    1    5    5    0    0 -0.14363008045E+03  0.60401873228E+03 -0.73392940959E+03  0.96131191983E+03  0.00000000000E+00 0.  1.
        -11    1    5    5    0    0 -0.41280876262E+02  0.18669931943E+03 -0.15832514191E+03  0.24824906280E+03  0.00000000000E+00 0. -1.
          2    1    6    6  503    0 -0.79473806242E+02  0.22863392909E+02 -0.24409731407E+03  0.25772527884E+03  0.00000000000E+00 0. -1.
         -2    1    6    6    0  503 -0.24882123638E+03 -0.89868806227E+02 -0.82148372910E+03  0.86303182281E+03  0.00000000000E+00 0.  1.
<mgrwt>
<rscale>  0 0.21704053E+04</rscale>
<asrwt>0</asrwt>
<pdfrwt beam="1">  1        2 0.51188822E+00 0.21704053E+04</pdfrwt>
<pdfrwt beam="2">  1       -3 0.54452750E-01 0.21704053E+04</pdfrwt>
<totfact> 0.21071869E+00</totfact>
</mgrwt>
</event>
<event>
12    6  0.1494052E-007  0.1264092E+04  0.7818608E-02  0.9058536E-01
         -1   -1    0    0    0  501 -0.00000000000E+00  0.00000000000E+00  0.47151477455E+03  0.47151477455E+03  0.00000000000E+00 0.  1.
          2   -1    0    0  501    0  0.00000000000E+00 -0.00000000000E+00 -0.84723117633E+03  0.84723117633E+03  0.00000000000E+00 0. -1.
         24    2    1    2    0    0 -0.29432441057E+03 -0.38990438280E+02 -0.16178347360E+03  0.34538495771E+03  0.70496551319E+02 0.  0.
        254    2    1    2    0    0  0.29432441057E+03  0.38990438280E+02 -0.21393292818E+03  0.97336099317E+03  0.90195189025E+03 0.  0.
         23    2    4    4    0    0  0.53734626326E+03 -0.18949654585E+03 -0.20523730339E+02  0.57733609275E+03  0.90806348680E+02 0.  0.
         23    2    4    4    0    0 -0.24302185269E+03  0.22848698413E+03 -0.19340919784E+03  0.39602490041E+03  0.90347557434E+02 0.  0.
          4    1    3    3  502    0 -0.28368269713E+03 -0.21528409552E+02 -0.15399829793E+03  0.32350397344E+03  0.00000000000E+00 0. -1.
         -3    1    3    3    0  502 -0.10641713440E+02 -0.17462028728E+02 -0.77851756678E+01  0.21880984266E+02  0.00000000000E+00 0.  1.
         11    1    5    5    0    0  0.53939515909E+03 -0.18900025285E+03 -0.25306883025E+02  0.57210896826E+03  0.00000000000E+00 0. -1.
        -11    1    5    5    0    0 -0.20488958340E+01 -0.49629299737E+00  0.47831526863E+01  0.52271244961E+01  0.00000000000E+00 0.  1.
          3    1    6    6  503    0 -0.21765081100E+03  0.21263754512E+03 -0.20160408833E+03  0.36500795821E+03  0.00000000000E+00 0. -1.
         -3    1    6    6    0  503 -0.25371041690E+02  0.15849439009E+02  0.81948904915E+01  0.31016942201E+02  0.00000000000E+00 0.  1.
<mgrwt>
<rscale>  0 0.12640918E+04</rscale>
<asrwt>0</asrwt>
<pdfrwt beam="1">  1        2 0.13034326E+00 0.12640918E+04</pdfrwt>
<pdfrwt beam="2">  1       -1 0.72540734E-01 0.12640918E+04</pdfrwt>
<totfact> 0.68552482E+01</totfact>
</mgrwt>
</event>
<event>
12    6  0.1494052E-007  0.1400861E+04  0.7818608E-02  0.8953195E-01
          2   -1    0    0  501    0  0.00000000000E+00  0.00000000000E+00  0.84424409779E+03  0.84424409779E+03  0.00000000000E+00 0. -1.
         -1   -1    0    0    0  501 -0.00000000000E+00 -0.00000000000E+00 -0.58111527982E+03  0.58111527982E+03  0.00000000000E+00 0.  1.
         24    2    1    2    0    0  0.33037751563E+03  0.18883481178E+03  0.20547951548E+03  0.43917425219E+03  0.76448044633E+02 0.  0.
        254    2    1    2    0    0 -0.33037751563E+03 -0.18883481178E+03  0.57649302494E+02  0.98618512543E+03  0.90798115100E+03 0.  0.
         23    2    4    4    0    0 -0.51323685168E+03 -0.24609489954E+03  0.31187046503E+03  0.65508449586E+03  0.88869253692E+02 0.  0.
         23    2    4    4    0    0  0.18285933605E+03  0.57260087769E+02 -0.25422116253E+03  0.33110062957E+03  0.91010839979E+02 0.  0.
          2    1    3    3  502    0  0.24519063191E+03  0.99729074767E+02  0.14617495450E+03  0.30237634110E+03  0.00000000000E+00 0. -1.
         -1    1    3    3    0  502  0.85186883720E+02  0.89105737008E+02  0.59304560977E+02  0.13679791109E+03  0.00000000000E+00 0.  1.
         11    1    5    5    0    0 -0.31270305082E+03 -0.19714831898E+03  0.20017591869E+03  0.42038203588E+03  0.00000000000E+00 0.  1.
        -11    1    5    5    0    0 -0.20053380086E+03 -0.48946580560E+02  0.11169454633E+03  0.23470245997E+03  0.00000000000E+00 0. -1.
          1    1    6    6  503    0  0.76367272370E+02  0.37004601680E+02 -0.46426193413E+02  0.96729996741E+02  0.00000000000E+00 0. -1.
         -1    1    6    6    0  503  0.10649206368E+03  0.20255486089E+02 -0.20779496912E+03  0.23437063283E+03  0.00000000000E+00 0.  1.
<mgrwt>
<rscale>  0 0.14008614E+04</rscale>
<asrwt>0</asrwt>
<pdfrwt beam="1">  1        2 0.12988371E+00 0.14008614E+04</pdfrwt>
<pdfrwt beam="2">  1       -1 0.89402351E-01 0.14008614E+04</pdfrwt>
<totfact> 0.43644586E+01</totfact>
</mgrwt>
</event>
<event>
12    6  0.1494052E-007  0.2468760E+04  0.7818608E-02  0.8414200E-01
         -1   -1    0    0    0  501 -0.00000000000E+00  0.00000000000E+00  0.51351383585E+03  0.51351383585E+03  0.00000000000E+00 0.  1.
          2   -1    0    0  501    0  0.00000000000E+00 -0.00000000000E+00 -0.29671909029E+04  0.29671909029E+04  0.00000000000E+00 0. -1.
         24    2    1    2    0    0  0.39582519580E+02 -0.97417320696E+03 -0.16832731094E+04  0.19469448848E+04  0.81276138320E+02 0.  0.
        254    2    1    2    0    0 -0.39582519580E+02  0.97417320696E+03 -0.77040395766E+03  0.15337598539E+04  0.89906441293E+03 0.  0.
         23    2    4    4    0    0  0.67924780436E+01  0.77191172610E+03 -0.50460659651E+02  0.77881468729E+03  0.90067687438E+02 0.  0.
         23    2    4    4    0    0 -0.46374997624E+02  0.20226148086E+03 -0.71994329801E+03  0.75494516666E+03  0.92539209370E+02 0.  0.
          2    1    3    3  502    0 -0.92330070322E+01 -0.21700263490E+03 -0.31996570353E+03  0.38672140283E+03  0.00000000000E+00 0. -1.
         -1    1    3    3    0  502  0.48815526612E+02 -0.75717057206E+03 -0.13633074059E+04  0.15602234820E+04  0.00000000000E+00 0.  1.
         11    1    5    5    0    0  0.48067703695E+02  0.47132388958E+03 -0.30101845106E+02  0.47472395569E+03  0.00000000000E+00 0.  1.
        -11    1    5    5    0    0 -0.41275225651E+02  0.30058783652E+03 -0.20358814545E+02  0.30409073160E+03  0.00000000000E+00 0. -1.
          1    1    6    6  503    0 -0.30450064757E+02  0.20780293481E+03 -0.65493087759E+03  0.68778173905E+03  0.00000000000E+00 0. -1.
         -1    1    6    6    0  503 -0.15924932867E+02 -0.55414539487E+01 -0.65012420421E+02  0.67163427605E+02  0.00000000000E+00 0.  1.
<mgrwt>
<rscale>  0 0.24687597E+04</rscale>
<asrwt>0</asrwt>
<pdfrwt beam="1">  1        2 0.45649091E+00 0.24687597E+04</pdfrwt>
<pdfrwt beam="2">  1       -1 0.79002128E-01 0.24687597E+04</pdfrwt>
<totfact> 0.29747280E+00</totfact>
</mgrwt>
</event>
<event>
12    6  0.1494052E-007  0.1866131E+04  0.7818608E-02  0.8671901E-01
         -1   -1    0    0    0  501 -0.00000000000E+00  0.00000000000E+00  0.56478414909E+03  0.56478414909E+03  0.00000000000E+00 0.  1.
          2   -1    0    0  501    0  0.00000000000E+00 -0.00000000000E+00 -0.15414936509E+04  0.15414936509E+04  0.00000000000E+00 0. -1.
         24    2    1    2    0    0 -0.31170816844E+03 -0.53411770609E+03 -0.77876992507E+03  0.99773204135E+03  0.80888342207E+02 0.  0.
        254    2    1    2    0    0  0.31170816844E+03  0.53411770609E+03 -0.19793957674E+03  0.11085457586E+04  0.89847087696E+03 0.  0.
         23    2    4    4    0    0  0.14888950139E+03  0.73827449810E+03 -0.29691586188E+03  0.81473101624E+03  0.91707587583E+02 0.  0.
         23    2    4    4    0    0  0.16281866705E+03 -0.20415679201E+03  0.98976285137E+02  0.29381474241E+03  0.91328439009E+02 0.  0.
          2    1    3    3  502    0 -0.25529083371E+03 -0.41961593317E+03 -0.56402178754E+03  0.74791143725E+03  0.00000000000E+00 0. -1.
         -1    1    3    3    0  502 -0.56417334736E+02 -0.11450177292E+03 -0.21474813753E+03  0.24982060410E+03  0.00000000000E+00 0.  1.
         11    1    5    5    0    0  0.10247332531E+03  0.58849053861E+03 -0.19789620226E+03  0.62927323422E+03  0.00000000000E+00 0.  1.
        -11    1    5    5    0    0  0.46416176082E+02  0.14978395949E+03 -0.99019659614E+02  0.18545778203E+03  0.00000000000E+00 0. -1.
          3    1    6    6  503    0  0.70885679980E+02 -0.28253130209E+02  0.12543084075E+02  0.77332709450E+02  0.00000000000E+00 0. -1.
         -3    1    6    6    0  503  0.91932987067E+02 -0.17590366180E+03  0.86433201062E+02  0.21648203296E+03  0.00000000000E+00 0.  1.
<mgrwt>
<rscale>  0 0.18661309E+04</rscale>
<asrwt>0</asrwt>
<pdfrwt beam="1">  1        2 0.23715287E+00 0.18661309E+04</pdfrwt>
<pdfrwt beam="2">  1       -1 0.86889869E-01 0.18661309E+04</pdfrwt>
<totfact> 0.16794857E+01</totfact>
</mgrwt>
</event>
<event>
12    6  0.1494052E-007  0.4722135E+04  0.7818608E-02  0.7872861E-01
         -1   -1    0    0    0  501 -0.00000000000E+00  0.00000000000E+00  0.20056661233E+04  0.20056661233E+04  0.00000000000E+00 0.  1.
          2   -1    0    0  501    0  0.00000000000E+00 -0.00000000000E+00 -0.27794452362E+04  0.27794452362E+04  0.00000000000E+00 0. -1.
         24    2    1    2    0    0  0.18424976317E+02  0.21302790520E+04 -0.11825571102E+04  0.24379312388E+04  0.81480592154E+02 0.  0.
        254    2    1    2    0    0 -0.18424976317E+02 -0.21302790520E+04  0.40877799729E+03  0.23471801208E+04  0.89650808646E+03 0.  0.
         23    2    4    4    0    0  0.35677020004E+02 -0.18058747369E+04 -0.83899741410E+01  0.18085825585E+04  0.91891589398E+02 0.  0.
         23    2    4    4    0    0 -0.54101996322E+02 -0.32440431514E+03  0.41716797143E+03  0.53859756227E+03  0.88842737544E+02 0.  0.
          4    1    3    3  502    0 -0.26072868758E+02  0.36223330472E+03 -0.19099608789E+03  0.41033189874E+03  0.00000000000E+00 0. -1.
         -3    1    3    3    0  502  0.44497845075E+02  0.17680457473E+04 -0.99156102226E+03  0.20275993400E+04  0.00000000000E+00 0.  1.
         11    1    5    5    0    0 -0.74720569562E+01 -0.13034598098E+04 -0.30435106038E+02  0.13038364940E+04  0.00000000000E+00 0. -1.
        -11    1    5    5    0    0  0.43149076961E+02 -0.50241492711E+03  0.22045131897E+02  0.50474606454E+03  0.00000000000E+00 0.  1.
          3    1    6    6  503    0  0.10937387046E+02 -0.19916875964E+03  0.23830155910E+03  0.31076591563E+03  0.00000000000E+00 0. -1.
         -3    1    6    6    0  503 -0.65039383367E+02 -0.12523555550E+03  0.17886641233E+03  0.22783164664E+03  0.00000000000E+00 0.  1.
<mgrwt>
<rscale>  0 0.47221348E+04</rscale>
<asrwt>0</asrwt>
<pdfrwt beam="1">  1        2 0.42760696E+00 0.47221348E+04</pdfrwt>
<pdfrwt beam="2">  1       -1 0.30856402E+00 0.47221348E+04</pdfrwt>
<totfact> 0.58482410E-02</totfact>
</mgrwt>
</event>
<event>
12    6  0.1494052E-007  0.1962129E+04  0.7818608E-02  0.8624534E-01
          2   -1    0    0  501    0  0.00000000000E+00  0.00000000000E+00  0.18836654608E+04  0.18836654608E+04  0.00000000000E+00 0. -1.
         -1   -1    0    0    0  501 -0.00000000000E+00 -0.00000000000E+00 -0.51096504340E+03  0.51096504340E+03  0.00000000000E+00 0.  1.
         24    2    1    2    0    0  0.12467820008E+03 -0.68056140416E+03  0.92928193256E+03  0.11620443707E+04  0.89853941346E+02 0.  0.
        254    2    1    2    0    0 -0.12467820008E+03  0.68056140416E+03  0.44341848484E+03  0.12325861336E+04  0.91866214982E+03 0.  0.
         23    2    4    4    0    0  0.28697425570E+03 -0.42131431997E+02  0.18914357924E+03  0.35744706464E+03  0.88678235529E+02 0.  0.
         23    2    4    4    0    0 -0.41165245578E+03  0.72269283616E+03  0.25427490560E+03  0.87513906891E+03  0.97313835211E+02 0.  0.
          2    1    3    3  502    0  0.12225410980E+03 -0.66578672518E+03  0.92544367656E+03  0.11465879946E+04  0.00000000000E+00 0. -1.
         -1    1    3    3    0  502  0.24240902853E+01 -0.14774678978E+02  0.38382559940E+01  0.15456376085E+02  0.00000000000E+00 0.  1.
         11    1    5    5    0    0  0.18595066704E+03 -0.54532843063E+02  0.84298736584E+02  0.21132382387E+03  0.00000000000E+00 0.  1.
        -11    1    5    5    0    0  0.10102358866E+03  0.12401411065E+02  0.10484484266E+03  0.14612324077E+03  0.00000000000E+00 0. -1.
          1    1    6    6  503    0 -0.10265807030E+03  0.26445315809E+03  0.65904853324E+02  0.29123461661E+03  0.00000000000E+00 0. -1.
         -1    1    6    6    0  503 -0.30899438548E+03  0.45823967807E+03  0.18837005228E+03  0.58390445229E+03  0.00000000000E+00 0.  1.
<mgrwt>
<rscale>  0 0.19621286E+04</rscale>
<asrwt>0</asrwt>
<pdfrwt beam="1">  1        2 0.28979468E+00 0.19621286E+04</pdfrwt>
<pdfrwt beam="2">  1       -1 0.78610007E-01 0.19621286E+04</pdfrwt>
<totfact> 0.13321875E+01</totfact>
</mgrwt>
</event>
<event>
12    6  0.1494052E-007  0.1620074E+04  0.7818608E-02  0.8808310E-01
          2   -1    0    0  501    0  0.00000000000E+00  0.00000000000E+00  0.12550290796E+04  0.12550290796E+04  0.00000000000E+00 0. -1.
         -1   -1    0    0    0  501 -0.00000000000E+00 -0.00000000000E+00 -0.52282473701E+03  0.52282473701E+03  0.00000000000E+00 0.  1.
         24    2    1    2    0    0 -0.14822818243E+03 -0.20153370740E+03 -0.29182503708E+03  0.39281999536E+03  0.80983129128E+02 0.  0.
        254    2    1    2    0    0  0.14822818243E+03  0.20153370740E+03  0.10240293797E+04  0.13850338213E+04  0.89838470952E+03 0.  0.
         23    2    4    4    0    0  0.35071725151E+03  0.40771197652E+03  0.35547395680E+03  0.65102787418E+03  0.90795994920E+02 0.  0.
         23    2    4    4    0    0 -0.20248906908E+03 -0.20617826912E+03  0.66855542288E+03  0.73400594708E+03  0.91033373746E+02 0.  0.
          4    1    3    3  502    0 -0.64865730334E+02 -0.30244313590E+02 -0.65759662626E+02  0.97193696838E+02  0.00000000000E+00 0. -1.
         -3    1    3    3    0  502 -0.83362452097E+02 -0.17128939381E+03 -0.22606537445E+03  0.29562629852E+03  0.00000000000E+00 0.  1.
         11    1    5    5    0    0  0.35466442197E+03  0.39843958530E+03  0.34001760867E+03  0.63257642190E+03  0.00000000000E+00 0. -1.
        -11    1    5    5    0    0 -0.39471704580E+01  0.92723912217E+01  0.15456348135E+02  0.18451452281E+02  0.00000000000E+00 0.  1.
          2    1    6    6  503    0 -0.52106916812E+02 -0.88137184115E+01  0.88006776681E+02  0.10265478632E+03  0.00000000000E+00 0. -1.
         -2    1    6    6    0  503 -0.15038215227E+03 -0.19736455070E+03  0.58054864620E+03  0.63135116076E+03  0.00000000000E+00 0.  1.
<mgrwt>
<rscale>  0 0.16200744E+04</rscale>
<asrwt>0</asrwt>
<pdfrwt beam="1">  1        2 0.19308140E+00 0.16200744E+04</pdfrwt>
<pdfrwt beam="2">  1       -1 0.80434575E-01 0.16200744E+04</pdfrwt>
<totfact> 0.29572181E+01</totfact>
</mgrwt>
</event>
<event>
12    6  0.1494052E-007  0.2002441E+04  0.7818608E-02  0.8605480E-01
          2   -1    0    0  501    0  0.00000000000E+00  0.00000000000E+00  0.27088176155E+04  0.27088176155E+04  0.00000000000E+00 0. -1.
         -1   -1    0    0    0  501 -0.00000000000E+00 -0.00000000000E+00 -0.37006633825E+03  0.37006633825E+03  0.00000000000E+00 0.  1.
         24    2    1    2    0    0  0.96797610266E+02 -0.10727505758E+03  0.21352770638E+04  0.21416702777E+04  0.80409725132E+02 0.  0.
        254    2    1    2    0    0 -0.96797610266E+02  0.10727505758E+03  0.20347421341E+03  0.93721367600E+03  0.90337699972E+03 0.  0.
         23    2    4    4    0    0 -0.10830192803E+03 -0.20033763155E+03  0.46334237535E+03  0.52433419725E+03  0.91518956419E+02 0.  0.
         23    2    4    4    0    0  0.11504317766E+02  0.30761268913E+03 -0.25986816194E+03  0.41287947874E+03  0.90443830839E+02 0.  0.
          2    1    3    3  502    0  0.48575774637E+02 -0.10634454897E+03  0.14609505376E+04  0.14656211114E+04  0.00000000000E+00 0. -1.
         -1    1    3    3    0  502  0.48221835628E+02 -0.93050860182E+00  0.67432652623E+03  0.67604916630E+03  0.00000000000E+00 0.  1.
         11    1    5    5    0    0 -0.56904342032E+01  0.26958131178E+01  0.67388704846E+02  0.67682242802E+02  0.00000000000E+00 0. -1.
        -11    1    5    5    0    0 -0.10261149383E+03 -0.20303344467E+03  0.39595367050E+03  0.45665195445E+03  0.00000000000E+00 0.  1.
          4    1    6    6  503    0 -0.21728103925E+02  0.20064955331E+02 -0.38089397339E+02  0.48223595078E+02  0.00000000000E+00 0. -1.
         -4    1    6    6    0  503  0.33232421691E+02  0.28754773379E+03 -0.22177876460E+03  0.36465588366E+03  0.00000000000E+00 0.  1.
<mgrwt>
<rscale>  0 0.20024407E+04</rscale>
<asrwt>0</asrwt>
<pdfrwt beam="1">  1        2 0.41674116E+00 0.20024407E+04</pdfrwt>
<pdfrwt beam="2">  1       -1 0.56933285E-01 0.20024407E+04</pdfrwt>
<totfact> 0.86738543E+00</totfact>
</mgrwt>
</event>
<event>
12    6  0.1494052E-007  0.2294716E+04  0.7818608E-02  0.8480007E-01
         -1   -1    0    0    0  501 -0.00000000000E+00  0.00000000000E+00  0.10853387665E+04  0.10853387665E+04  0.00000000000E+00 0.  1.
          2   -1    0    0  501    0  0.00000000000E+00 -0.00000000000E+00 -0.12129215588E+04  0.12129215588E+04  0.00000000000E+00 0. -1.
         24    2    1    2    0    0 -0.31719948111E+03  0.73948522553E+03  0.48664158700E+03  0.94470087893E+03  0.90475448903E+02 0.  0.
        254    2    1    2    0    0  0.31719948111E+03 -0.73948522553E+03 -0.61422437931E+03  0.13535594464E+04  0.89855310199E+03 0.  0.
         23    2    4    4    0    0  0.29067047615E+03 -0.54231516661E+03 -0.83501164161E+03  0.10413188395E+04  0.92224824785E+02 0.  0.
         23    2    4    4    0    0  0.26529004959E+02 -0.19717005892E+03  0.22078726230E+03  0.31224060683E+03  0.95746337379E+02 0.  0.
          4    1    3    3  502    0 -0.45297060807E+02  0.18369499936E+03  0.87971924408E+02  0.20864979269E+03  0.00000000000E+00 0. -1.
         -3    1    3    3    0  502 -0.27190242030E+03  0.55579022617E+03  0.39866966260E+03  0.73605108624E+03  0.00000000000E+00 0.  1.
         11    1    5    5    0    0  0.25934522680E+03 -0.49453361836E+03 -0.79519806846E+03  0.97168071631E+03  0.00000000000E+00 0.  1.
        -11    1    5    5    0    0  0.31325249354E+02 -0.47781548250E+02 -0.39813573141E+02  0.69638123226E+02  0.00000000000E+00 0. -1.
          1    1    6    6  503    0 -0.20481615168E+02 -0.69007002023E+01  0.40665738046E+02  0.46052344934E+02  0.00000000000E+00 0. -1.
         -1    1    6    6    0  503  0.47010620127E+02 -0.19026935872E+03  0.18012152425E+03  0.26618826189E+03  0.00000000000E+00 0.  1.
<mgrwt>
<rscale>  0 0.22947164E+04</rscale>
<asrwt>0</asrwt>
<pdfrwt beam="1">  1        2 0.18660332E+00 0.22947164E+04</pdfrwt>
<pdfrwt beam="2">  1       -1 0.16697519E+00 0.22947164E+04</pdfrwt>
<totfact> 0.49838467E+00</totfact>
</mgrwt>
</event>
<event>
12    6  0.1494052E-007  0.2532842E+04  0.7818608E-02  0.8391378E-01
          2   -1    0    0  501    0  0.00000000000E+00  0.00000000000E+00  0.23115238875E+04  0.23115238875E+04  0.00000000000E+00 0. -1.
         -1   -1    0    0    0  501 -0.00000000000E+00 -0.00000000000E+00 -0.69383758157E+03  0.69383758157E+03  0.00000000000E+00 0.  1.
         24    2    1    2    0    0 -0.24183009314E+03 -0.64624736958E+03  0.17335796049E+04  0.18679706863E+04  0.88875090390E+02 0.  0.
        254    2    1    2    0    0  0.24183009314E+03  0.64624736958E+03 -0.11589329897E+03  0.11373907828E+04  0.89672129415E+03 0.  0.
         23    2    4    4    0    0  0.38751662312E+03  0.23019282947E+03  0.27948757993E+03  0.53772294212E+03  0.88739975317E+02 0.  0.
         23    2    4    4    0    0 -0.14568652997E+03  0.41605454010E+03 -0.39538087890E+03  0.59966784066E+03  0.94601978668E+02 0.  0.
          4    1    3    3  502    0 -0.22658643419E+03 -0.57099417258E+03  0.16002824664E+04  0.17141411055E+04  0.00000000000E+00 0. -1.
         -3    1    3    3    0  502 -0.15243658949E+02 -0.75253196991E+02  0.13329713849E+03  0.15382958079E+03  0.00000000000E+00 0.  1.
         11    1    5    5    0    0  0.11525508727E+03  0.10176320443E+03  0.59443534287E+02  0.16484240561E+03  0.00000000000E+00 0.  1.
        -11    1    5    5    0    0  0.27226153584E+03  0.12842962504E+03  0.22004404564E+03  0.37288053651E+03  0.00000000000E+00 0. -1.
          1    1    6    6  503    0 -0.13886788166E+03  0.41052144721E+03 -0.36054368763E+03  0.56374098473E+03  0.00000000000E+00 0. -1.
         -1    1    6    6    0  503 -0.68186483144E+01  0.55330928976E+01 -0.34837191263E+02  0.35926855929E+02  0.00000000000E+00 0.  1.
<mgrwt>
<rscale>  0 0.25328420E+04</rscale>
<asrwt>0</asrwt>
<pdfrwt beam="1">  1        2 0.35561906E+00 0.25328420E+04</pdfrwt>
<pdfrwt beam="2">  1       -1 0.10674424E+00 0.25328420E+04</pdfrwt>
<totfact> 0.37004960E+00</totfact>
</mgrwt>
</event>
<event>
12    6  0.1494052E-007  0.2512823E+04  0.7818608E-02  0.8398432E-01
          2   -1    0    0  501    0  0.00000000000E+00  0.00000000000E+00  0.13699675214E+04  0.13699675214E+04  0.00000000000E+00 0. -1.
         -1   -1    0    0    0  501 -0.00000000000E+00 -0.00000000000E+00 -0.11522677627E+04  0.11522677627E+04  0.00000000000E+00 0.  1.
         24    2    1    2    0    0  0.35662539035E+03  0.51426465340E+03  0.99682957213E+03  0.11800673430E+04  0.85087810080E+02 0.  0.
        254    2    1    2    0    0 -0.35662539035E+03 -0.51426465340E+03 -0.77912981338E+03  0.13421679411E+04  0.89594738307E+03 0.  0.
         23    2    4    4    0    0  0.29110461242E+03 -0.18080724902E+03 -0.20270917788E+03  0.40883625034E+03  0.92859636667E+02 0.  0.
         23    2    4    4    0    0 -0.64773000277E+03 -0.33345740438E+03 -0.57642063550E+03  0.93333169075E+03  0.89996104981E+02 0.  0.
          4    1    3    3  502    0  0.29091165472E+03  0.39174150662E+03  0.83099792611E+03  0.96366412824E+03  0.00000000000E+00 0. -1.
         -3    1    3    3    0  502  0.65713735632E+02  0.12252314678E+03  0.16583164602E+03  0.21640321479E+03  0.00000000000E+00 0.  1.
         11    1    5    5    0    0  0.58462664651E+02 -0.52362744189E+01 -0.61353144425E+02  0.84908833808E+02  0.00000000000E+00 0. -1.
        -11    1    5    5    0    0  0.23264194777E+03 -0.17557097460E+03 -0.14135603345E+03  0.32392741653E+03  0.00000000000E+00 0.  1.
          2    1    6    6  503    0 -0.63203960149E+03 -0.33313804220E+03 -0.54637208046E+03  0.89943174467E+03  0.00000000000E+00 0.  1.
         -2    1    6    6    0  503 -0.15690401283E+02 -0.31936217679E+00 -0.30048555041E+02  0.33899946086E+02  0.00000000000E+00 0. -1.
<mgrwt>
<rscale>  0 0.25128226E+04</rscale>
<asrwt>0</asrwt>
<pdfrwt beam="1">  1        2 0.21076423E+00 0.25128226E+04</pdfrwt>
<pdfrwt beam="2">  1       -1 0.17727196E+00 0.25128226E+04</pdfrwt>
<totfact> 0.33282643E+00</totfact>
</mgrwt>
</event>
<event>
12    6  0.1494052E-007  0.1903106E+04  0.7818608E-02  0.8653312E-01
         -1   -1    0    0    0  501 -0.00000000000E+00  0.00000000000E+00  0.23209575397E+03  0.23209575397E+03  0.00000000000E+00 0.  1.
          2   -1    0    0  501    0  0.00000000000E+00 -0.00000000000E+00 -0.39012037822E+04  0.39012037822E+04  0.00000000000E+00 0. -1.
         24    2    1    2    0    0 -0.54109040364E+03 -0.41458938378E+03 -0.20445869772E+04  0.21567840456E+04  0.81965418357E+02 0.  0.
        254    2    1    2    0    0  0.54109040364E+03  0.41458938378E+03 -0.16245210510E+04  0.19765154905E+04  0.89603663835E+03 0.  0.
         23    2    4    4    0    0  0.67821293247E+03  0.51162078648E+03 -0.15518295482E+04  0.17716264165E+04  0.93576717445E+02 0.  0.
         23    2    4    4    0    0 -0.13712252883E+03 -0.97031402702E+02 -0.72691502739E+02  0.20488907402E+03  0.92074953473E+02 0.  0.
          4    1    3    3  502    0 -0.37477402391E+03 -0.27590060511E+03 -0.12736296591E+04  0.13559901258E+04  0.00000000000E+00 0. -1.
         -3    1    3    3    0  502 -0.16631637973E+03 -0.13868877867E+03 -0.77095731818E+03  0.80079391978E+03  0.00000000000E+00 0.  1.
         11    1    5    5    0    0  0.52113803834E+03  0.35386477392E+03 -0.11998300549E+04  0.13551373709E+04  0.00000000000E+00 0. -1.
        -11    1    5    5    0    0  0.15707489413E+03  0.15775601256E+03 -0.35199949329E+03  0.41648904565E+03  0.00000000000E+00 0.  1.
          3    1    6    6  503    0 -0.14584297366E+03 -0.95519676893E+02 -0.81458971745E+02  0.19243114539E+03  0.00000000000E+00 0. -1.
         -3    1    6    6    0  503  0.87204448239E+01 -0.15117258090E+01  0.87674690068E+01  0.12457928625E+02  0.00000000000E+00 0.  1.
<mgrwt>
<rscale>  0 0.19031057E+04</rscale>
<asrwt>0</asrwt>
<pdfrwt beam="1">  1        2 0.60018512E+00 0.19031057E+04</pdfrwt>
<pdfrwt beam="2">  1       -1 0.35707044E-01 0.19031057E+04</pdfrwt>
<totfact> 0.33092783E+00</totfact>
</mgrwt>
</event>
<event>
12    6  0.1494052E-007  0.1726857E+04  0.7818608E-02  0.8746193E-01
          2   -1    0    0  501    0  0.00000000000E+00  0.00000000000E+00  0.91169102691E+03  0.91169102691E+03  0.00000000000E+00 0. -1.
         -1   -1    0    0    0  501 -0.00000000000E+00 -0.00000000000E+00 -0.81772133361E+03  0.81772133361E+03  0.00000000000E+00 0.  1.
         24    2    1    2    0    0  0.70525497924E+00 -0.64393146905E+03  0.57684729915E+02  0.65151407542E+03  0.80590496865E+02 0.  0.
        254    2    1    2    0    0 -0.70525497924E+00  0.64393146905E+03  0.36284963390E+02  0.10778982851E+04  0.86365495440E+03 0.  0.
         23    2    4    4    0    0  0.33025795278E+03  0.58263645381E+03 -0.13351519947E+03  0.68897302954E+03  0.91224855470E+02 0.  0.
         23    2    4    4    0    0 -0.33096320776E+03  0.61295015238E+02  0.16980016286E+03  0.38892525557E+03  0.95587840892E+02 0.  0.
          2    1    3    3  502    0 -0.12156011822E+02 -0.11841518544E+03  0.39875792171E+02  0.12553885282E+03  0.00000000000E+00 0. -1.
         -1    1    3    3    0  502  0.12861266801E+02 -0.52551628361E+03  0.17808937744E+02  0.52597522260E+03  0.00000000000E+00 0.  1.
         11    1    5    5    0    0  0.31024556230E+02  0.46738987554E+02  0.13778909327E+02  0.57766031446E+02  0.00000000000E+00 0. -1.
        -11    1    5    5    0    0  0.29923339655E+03  0.53589746626E+03 -0.14729410880E+03  0.63120699809E+03  0.00000000000E+00 0.  1.
          1    1    6    6  503    0 -0.14415690025E+02  0.99271013701E+01  0.38700418735E+02  0.42474484939E+02  0.00000000000E+00 0. -1.
         -1    1    6    6    0  503 -0.31654751774E+03  0.51367913868E+02  0.13109974413E+03  0.34645077063E+03  0.00000000000E+00 0.  1.
<mgrwt>
<rscale>  0 0.17268575E+04</rscale>
<asrwt>0</asrwt>
<pdfrwt beam="1">  1        2 0.14026016E+00 0.17268575E+04</pdfrwt>
<pdfrwt beam="2">  1       -1 0.12580328E+00 0.17268575E+04</pdfrwt>
<totfact> 0.17186736E+01</totfact>
</mgrwt>
</event>
<event>
12    6  0.1494052E-007  0.1093904E+04  0.7818608E-02  0.9211154E-01
          2   -1    0    0  501    0  0.00000000000E+00  0.00000000000E+00  0.72409359517E+03  0.72409359517E+03  0.00000000000E+00 0. -1.
         -1   -1    0    0    0  501 -0.00000000000E+00 -0.00000000000E+00 -0.41314598468E+03  0.41314598468E+03  0.00000000000E+00 0.  1.
         24    2    1    2    0    0 -0.31195108780E+02  0.11491415886E+03  0.15811280145E+03  0.21389792700E+03  0.81081850471E+02 0.  0.
        254    2    1    2    0    0  0.31195108780E+02 -0.11491415886E+03  0.15283480904E+03  0.92334165285E+03  0.90278620410E+03 0.  0.
         23    2    4    4    0    0 -0.68149402369E+02  0.37971830675E+03  0.38108057334E+02  0.39834364690E+03  0.91624797196E+02 0.  0.
         23    2    4    4    0    0  0.99344511148E+02 -0.49463246561E+03  0.11472675171E+03  0.52499800595E+03  0.89050944777E+02 0.  0.
          2    1    3    3  502    0 -0.12070145830E+02  0.12133964376E+03  0.14654225991E+03  0.19064005746E+03  0.00000000000E+00 0. -1.
         -1    1    3    3    0  502 -0.19124962949E+02 -0.64254849064E+01  0.11570541542E+02  0.23257869543E+02  0.00000000000E+00 0.  1.
         11    1    5    5    0    0 -0.49284013731E+02  0.28547041056E+03  0.68224116014E+02  0.29761854667E+03  0.00000000000E+00 0.  1.
        -11    1    5    5    0    0 -0.18865388638E+02  0.94247896190E+02 -0.30116058681E+02  0.10072510022E+03  0.00000000000E+00 0. -1.
          3    1    6    6  503    0 -0.76673390123E+01 -0.11669142833E+03  0.48746845141E+02  0.12669622111E+03  0.00000000000E+00 0. -1.
         -3    1    6    6    0  503  0.10701185016E+03 -0.37794103728E+03  0.65979906566E+02  0.39830178484E+03  0.00000000000E+00 0.  1.
<mgrwt>
<rscale>  0 0.10939038E+04</rscale>
<asrwt>0</asrwt>
<pdfrwt beam="1">  1        2 0.11139901E+00 0.10939038E+04</pdfrwt>
<pdfrwt beam="2">  1       -1 0.63560921E-01 0.10939038E+04</pdfrwt>
<totfact> 0.11175542E+02</totfact>
</mgrwt>
</event>
<event>
12    6  0.1494052E-007  0.1317369E+04  0.7818608E-02  0.9015903E-01
          2   -1    0    0  501    0  0.00000000000E+00  0.00000000000E+00  0.27153998899E+04  0.27153998899E+04  0.00000000000E+00 0. -1.
         -1   -1    0    0    0  501 -0.00000000000E+00 -0.00000000000E+00 -0.15977958537E+03  0.15977958537E+03  0.00000000000E+00 0.  1.
         24    2    1    2    0    0 -0.75309426869E+02  0.23851432177E+03  0.12027950586E+04  0.12311095507E+04  0.79713118193E+02 0.  0.
        254    2    1    2    0    0  0.75309426869E+02 -0.23851432177E+03  0.13528252459E+04  0.16440699246E+04  0.90014953178E+03 0.  0.
         23    2    4    4    0    0  0.40736405415E+03 -0.37596616186E+03  0.76481167216E+03  0.94892790174E+03  0.90726188941E+02 0.  0.
         23    2    4    4    0    0 -0.33205462728E+03  0.13745184010E+03  0.58801357377E+03  0.69514202288E+03  0.91154732153E+02 0.  0.
          2    1    3    3  502    0 -0.81022318719E+02  0.22531747544E+03  0.10190445867E+04  0.10467972347E+04  0.00000000000E+00 0. -1.
         -1    1    3    3    0  502  0.57128918501E+01  0.13196846325E+02  0.18375047193E+03  0.18431231597E+03  0.00000000000E+00 0.  1.
         11    1    5    5    0    0  0.40227588745E+03 -0.34563890416E+03  0.73217068827E+03  0.90408299312E+03  0.00000000000E+00 0.  1.
        -11    1    5    5    0    0  0.50881666995E+01 -0.30327257699E+02  0.32640983891E+02  0.44844908622E+02  0.00000000000E+00 0. -1.
          1    1    6    6  503    0 -0.24326060016E+02 -0.13680980066E+02  0.42810786321E+02  0.51104694862E+02  0.00000000000E+00 0. -1.
         -1    1    6    6    0  503 -0.30772856726E+03  0.15113282016E+03  0.54520278745E+03  0.64403732802E+03  0.00000000000E+00 0.  1.
<mgrwt>
<rscale>  0 0.13173693E+04</rscale>
<asrwt>0</asrwt>
<pdfrwt beam="1">  1        2 0.41775379E+00 0.13173693E+04</pdfrwt>
<pdfrwt beam="2">  1       -1 0.24581477E-01 0.13173693E+04</pdfrwt>
<totfact> 0.42093041E+01</totfact>
</mgrwt>
</event>
<event>
12    6  0.1494052E-007  0.1797724E+04  0.7818608E-02  0.8707511E-01
          2   -1    0    0  501    0  0.00000000000E+00  0.00000000000E+00  0.21825047334E+04  0.21825047334E+04  0.00000000000E+00 0. -1.
         -1   -1    0    0    0  501 -0.00000000000E+00 -0.00000000000E+00 -0.37019520675E+03  0.37019520675E+03  0.00000000000E+00 0.  1.
         24    2    1    2    0    0 -0.78592923711E+02  0.27054279932E+03  0.15451075521E+04  0.15726614879E+04  0.80848958276E+02 0.  0.
        254    2    1    2    0    0  0.78592923711E+02 -0.27054279932E+03  0.26720197454E+03  0.98003845224E+03  0.89983788470E+03 0.  0.
         23    2    4    4    0    0 -0.63096562644E+02 -0.41371063195E+03  0.50012338145E+03  0.65851286416E+03  0.91532138574E+02 0.  0.
         23    2    4    4    0    0  0.14168948636E+03  0.14316783262E+03 -0.23292140691E+03  0.32152558807E+03  0.92484502209E+02 0.  0.
          2    1    3    3  502    0 -0.69410213238E+02  0.13212132806E+03  0.94615607312E+03  0.95785444496E+03  0.00000000000E+00 0. -1.
         -1    1    3    3    0  502 -0.91827104731E+01  0.13842147126E+03  0.59895147895E+03  0.61480704291E+03  0.00000000000E+00 0.  1.
         11    1    5    5    0    0 -0.61629278894E+02 -0.37924716020E+03  0.40942364503E+03  0.56147510866E+03  0.00000000000E+00 0.  1.
        -11    1    5    5    0    0 -0.14672837506E+01 -0.34463471751E+02  0.90699736419E+02  0.97037755504E+02  0.00000000000E+00 0. -1.
          3    1    6    6  503    0  0.43575529883E+02 -0.36931966211E+01 -0.33165373730E+02  0.54885412639E+02  0.00000000000E+00 0. -1.
         -3    1    6    6    0  503  0.98113956472E+02  0.14686102924E+03 -0.19975603318E+03  0.26664017544E+03  0.00000000000E+00 0.  1.
<mgrwt>
<rscale>  0 0.17977239E+04</rscale>
<asrwt>0</asrwt>
<pdfrwt beam="1">  1        2 0.33576995E+00 0.17977239E+04</pdfrwt>
<pdfrwt beam="2">  1       -1 0.56953110E-01 0.17977239E+04</pdfrwt>
<totfact> 0.17732070E+01</totfact>
</mgrwt>
</event>
<event>
12    6  0.1494052E-007  0.1683700E+04  0.7818608E-02  0.8770716E-01
          2   -1    0    0  501    0  0.00000000000E+00  0.00000000000E+00  0.14662194741E+04  0.14662194741E+04  0.00000000000E+00 0. -1.
         -1   -1    0    0    0  501 -0.00000000000E+00 -0.00000000000E+00 -0.48335995986E+03  0.48335995986E+03  0.00000000000E+00 0.  1.
         24    2    1    2    0    0 -0.57656377187E+03  0.86069199257E+02  0.31829527160E+03  0.66928433424E+03  0.82437552350E+02 0.  0.
        254    2    1    2    0    0  0.57656377187E+03 -0.86069199257E+02  0.66456424266E+03  0.12802950997E+04  0.92610810367E+03 0.  0.
         23    2    4    4    0    0  0.40057731328E+03  0.95396504619E+01 -0.14992375151E+03  0.43657617079E+03  0.86996740136E+02 0.  0.
         23    2    4    4    0    0  0.17598645860E+03 -0.95608849719E+02  0.81448799417E+03  0.84371892895E+03  0.91425667423E+02 0.  0.
          4    1    3    3  502    0 -0.14496169025E+03  0.43773214663E+02  0.50647169692E+02  0.15967191913E+03  0.00000000000E+00 0. -1.
         -3    1    3    3    0  502 -0.43160208162E+03  0.42295984594E+02  0.26764810191E+03  0.50961241511E+03  0.00000000000E+00 0.  1.
         11    1    5    5    0    0  0.80092867555E+02  0.15220213909E+02 -0.66905587195E+02  0.10546506503E+03  0.00000000000E+00 0. -1.
        -11    1    5    5    0    0  0.32048444572E+03 -0.56805634474E+01 -0.83018164311E+02  0.33111110576E+03  0.00000000000E+00 0.  1.
          2    1    6    6  503    0  0.12988333342E+03 -0.94846602832E+02  0.48378948135E+03  0.50982136149E+03  0.00000000000E+00 0. -1.
         -2    1    6    6    0  503  0.46103125178E+02 -0.76224688703E+00  0.33069851282E+03  0.33389756745E+03  0.00000000000E+00 0.  1.
<mgrwt>
<rscale>  0 0.16837004E+04</rscale>
<asrwt>0</asrwt>
<pdfrwt beam="1">  1        2 0.22557222E+00 0.16837004E+04</pdfrwt>
<pdfrwt beam="2">  1       -1 0.74363071E-01 0.16837004E+04</pdfrwt>
<totfact> 0.26214941E+01</totfact>
</mgrwt>
</event>
<event>
12    6  0.1494052E-007  0.1468685E+04  0.7818608E-02  0.8905548E-01
         -1   -1    0    0    0  501 -0.00000000000E+00  0.00000000000E+00  0.36404303455E+03  0.36404303455E+03  0.00000000000E+00 0.  1.
          2   -1    0    0  501    0  0.00000000000E+00 -0.00000000000E+00 -0.14813055777E+04  0.14813055777E+04  0.00000000000E+00 0. -1.
         24    2    1    2    0    0  0.16267437943E+03  0.94999110054E+02  0.17339232402E+03  0.26863528444E+03  0.81315640451E+02 0.  0.
        254    2    1    2    0    0 -0.16267437943E+03 -0.94999110054E+02 -0.12906548671E+04  0.15767133278E+04  0.88585955279E+03 0.  0.
         23    2    4    4    0    0 -0.19988521857E+03 -0.42002899891E+03 -0.38942477148E+03  0.61366276369E+03  0.92476344920E+02 0.  0.
         23    2    4    4    0    0  0.37210839137E+02  0.32502988885E+03 -0.90123009565E+03  0.96305056408E+03  0.90673196005E+02 0.  0.
          4    1    3    3  502    0  0.90779150834E+00 -0.16068574595E+01 -0.73291323019E+01  0.75579267406E+01  0.00000000000E+00 0. -1.
         -3    1    3    3    0  502  0.16176658792E+03  0.96605967514E+02  0.18072145632E+03  0.26107735770E+03  0.00000000000E+00 0.  1.
         11    1    5    5    0    0 -0.12775961172E+03 -0.29609522988E+03 -0.21372496380E+03  0.38687628991E+03  0.00000000000E+00 0. -1.
        -11    1    5    5    0    0 -0.72125606845E+02 -0.12393376903E+03 -0.17569980769E+03  0.22678647378E+03  0.00000000000E+00 0.  1.
          3    1    6    6  503    0 -0.15302653608E+02  0.38095178810E+02 -0.18887117420E+03  0.19328148981E+03  0.00000000000E+00 0. -1.
         -3    1    6    6    0  503  0.52513492745E+02  0.28693471004E+03 -0.71235892145E+03  0.76976907428E+03  0.00000000000E+00 0.  1.
<mgrwt>
<rscale>  0 0.14686851E+04</rscale>
<asrwt>0</asrwt>
<pdfrwt beam="1">  1        2 0.22789317E+00 0.14686851E+04</pdfrwt>
<pdfrwt beam="2">  1       -1 0.56006620E-01 0.14686851E+04</pdfrwt>
<totfact> 0.46290259E+01</totfact>
</mgrwt>
</event>
<event>
12    6  0.1494052E-007  0.1610885E+04  0.7818608E-02  0.8813889E-01
         -1   -1    0    0    0  501 -0.00000000000E+00  0.00000000000E+00  0.31513602115E+03  0.31513602115E+03  0.00000000000E+00 0.  1.
          2   -1    0    0  501    0  0.00000000000E+00 -0.00000000000E+00 -0.20585958283E+04  0.20585958283E+04  0.00000000000E+00 0. -1.
         24    2    1    2    0    0 -0.50227770143E+03  0.25964563062E+02 -0.43240250194E+03  0.66813735220E+03  0.80489439242E+02 0.  0.
        254    2    1    2    0    0  0.50227770143E+03 -0.25964563062E+02 -0.13110573052E+04  0.17055944972E+04  0.96810344674E+03 0.  0.
         23    2    4    4    0    0  0.12598624961E+02 -0.40613601427E+03 -0.28955465460E+03  0.50717920309E+03  0.91014606517E+02 0.  0.
         23    2    4    4    0    0  0.48967907647E+03  0.38017145121E+03 -0.10215026506E+04  0.11984152941E+04  0.91736698349E+02 0.  0.
          4    1    3    3  502    0  0.69619959393E+00  0.40228771878E+00 -0.12227251995E+02  0.12253661519E+02  0.00000000000E+00 0. -1.
         -3    1    3    3    0  502 -0.50297390102E+03  0.25562275343E+02 -0.42017524995E+03  0.65588369068E+03  0.00000000000E+00 0.  1.
         11    1    5    5    0    0  0.98182691634E+00 -0.39621121759E+03 -0.29134020313E+03  0.49179610296E+03  0.00000000000E+00 0. -1.
        -11    1    5    5    0    0  0.11616798045E+02 -0.99247966880E+01  0.17855485215E+01  0.15383100131E+02  0.00000000000E+00 0.  1.
          2    1    6    6  503    0  0.40189330598E+03  0.28036577593E+03 -0.74634081106E+03  0.89283134127E+03  0.00000000000E+00 0. -1.
         -2    1    6    6    0  503  0.87785770489E+02  0.99805675283E+02 -0.27516183951E+03  0.30558395286E+03  0.00000000000E+00 0.  1.
<mgrwt>
<rscale>  0 0.16108851E+04</rscale>
<asrwt>0</asrwt>
<pdfrwt beam="1">  1        2 0.31670705E+00 0.16108851E+04</pdfrwt>
<pdfrwt beam="2">  1       -1 0.48482464E-01 0.16108851E+04</pdfrwt>
<totfact> 0.28794384E+01</totfact>
</mgrwt>
</event>
<event>
12    6  0.1494052E-007  0.1692420E+04  0.7818608E-02  0.8765700E-01
         -1   -1    0    0    0  501 -0.00000000000E+00  0.00000000000E+00  0.39531550319E+03  0.39531550319E+03  0.00000000000E+00 0.  1.
          2   -1    0    0  501    0  0.00000000000E+00 -0.00000000000E+00 -0.18113910999E+04  0.18113910999E+04  0.00000000000E+00 0. -1.
         24    2    1    2    0    0 -0.14464150381E+03 -0.53802257770E+03 -0.18968214532E+03  0.59394270386E+03  0.79994752800E+02 0.  0.
        254    2    1    2    0    0  0.14464150381E+03  0.53802257770E+03 -0.12263934514E+04  0.16127638992E+04  0.88689178501E+03 0.  0.
         23    2    4    4    0    0  0.33350904119E+03  0.69731279053E+03 -0.86527021451E+03  0.11637920010E+04  0.90806767272E+02 0.  0.
         23    2    4    4    0    0 -0.18886753738E+03 -0.15929021283E+03 -0.36112323685E+03  0.44897189825E+03  0.10060544043E+03 0.  0.
          4    1    3    3  502    0 -0.10532010622E+03 -0.42998703047E+03 -0.18221638681E+03  0.47873163961E+03  0.00000000000E+00 0. -1.
         -3    1    3    3    0  502 -0.39321397588E+02 -0.10803554723E+03 -0.74657585031E+01  0.11521106424E+03  0.00000000000E+00 0.  1.
         11    1    5    5    0    0  0.70379267725E+02  0.77865621776E+02 -0.10586587211E+03  0.14907675626E+03  0.00000000000E+00 0.  1.
        -11    1    5    5    0    0  0.26312977347E+03  0.61944716876E+03 -0.75940434240E+03  0.10147152447E+04  0.00000000000E+00 0. -1.
          1    1    6    6  503    0 -0.12789445091E+03 -0.16047295753E+03 -0.29041918681E+03  0.35560070970E+03  0.00000000000E+00 0. -1.
         -1    1    6    6    0  503 -0.60973086475E+02  0.11827446966E+01 -0.70704050048E+02  0.93371188557E+02  0.00000000000E+00 0.  1.
<mgrwt>
<rscale>  0 0.16924196E+04</rscale>
<asrwt>0</asrwt>
<pdfrwt beam="1">  1        2 0.27867555E+00 0.16924196E+04</pdfrwt>
<pdfrwt beam="2">  1       -1 0.60817770E-01 0.16924196E+04</pdfrwt>
<totfact> 0.25286766E+01</totfact>
</mgrwt>
</event>
<event>
12    6  0.1494052E-007  0.2683397E+04  0.7818608E-02  0.8340412E-01
         -1   -1    0    0    0  501 -0.00000000000E+00  0.00000000000E+00  0.10262505697E+04  0.10262505697E+04  0.00000000000E+00 0.  1.
          2   -1    0    0  501    0  0.00000000000E+00 -0.00000000000E+00 -0.17541090141E+04  0.17541090141E+04  0.00000000000E+00 0. -1.
         24    2    1    2    0    0  0.81135270156E+03  0.86136396707E+03 -0.68581878212E+02  0.11879721761E+04  0.79582203818E+02 0.  0.
        254    2    1    2    0    0 -0.81135270156E+03 -0.86136396707E+03 -0.65927656621E+03  0.15923874077E+04  0.83714453673E+03 0.  0.
         23    2    4    4    0    0 -0.37034583907E+03 -0.22168369460E+03 -0.67802685321E+03  0.80967437168E+03  0.97736756258E+02 0.  0.
         23    2    4    4    0    0 -0.44100686249E+03 -0.63968027247E+03  0.18750286998E+02  0.78271303602E+03  0.92791269753E+02 0.  0.
          4    1    3    3  502    0  0.12814145972E+03  0.11411575682E+03 -0.33726997467E+02  0.17487181023E+03  0.00000000000E+00 0. -1.
         -3    1    3    3    0  502  0.68321124183E+03  0.74724821025E+03 -0.34854880745E+02  0.10131003659E+04  0.00000000000E+00 0.  1.
         11    1    5    5    0    0 -0.48883504803E+02 -0.13578178475E+02 -0.14292304168E+03  0.15166067327E+03  0.00000000000E+00 0. -1.
        -11    1    5    5    0    0 -0.32146233426E+03 -0.20810551612E+03 -0.53510381152E+03  0.65801369841E+03  0.00000000000E+00 0.  1.
          3    1    6    6  503    0 -0.18944968995E+03 -0.20413824940E+03 -0.12418285193E+02  0.27877916654E+03  0.00000000000E+00 0. -1.
         -3    1    6    6    0  503 -0.25155717255E+03 -0.43554202307E+03  0.31168572191E+02  0.50393386948E+03  0.00000000000E+00 0.  1.
<mgrwt>
<rscale>  0 0.26833974E+04</rscale>
<asrwt>0</asrwt>
<pdfrwt beam="1">  1        2 0.26986292E+00 0.26833974E+04</pdfrwt>
<pdfrwt beam="2">  1       -1 0.15788470E+00 0.26833974E+04</pdfrwt>
<totfact> 0.27749998E+00</totfact>
</mgrwt>
</event>
<event>
12    6  0.1494052E-007  0.2098420E+04  0.7818608E-02  0.8561939E-01
         -1   -1    0    0    0  501 -0.00000000000E+00  0.00000000000E+00  0.71719135174E+03  0.71719135174E+03  0.00000000000E+00 0.  1.
          2   -1    0    0  501    0  0.00000000000E+00 -0.00000000000E+00 -0.15349350328E+04  0.15349350328E+04  0.00000000000E+00 0. -1.
         24    2    1    2    0    0 -0.18968672046E+03 -0.48194752389E+03 -0.10620403981E+04  0.11841276423E+04  0.77291645280E+02 0.  0.
        254    2    1    2    0    0  0.18968672046E+03  0.48194752389E+03  0.24429671704E+03  0.10679987422E+04  0.90149096485E+03 0.  0.
         23    2    4    4    0    0  0.19545393271E+03 -0.20971025176E+03 -0.59055245996E+02  0.30650379634E+03  0.90974862395E+02 0.  0.
         23    2    4    4    0    0 -0.57672122427E+01  0.69165777564E+03  0.30335196303E+03  0.76149494587E+03  0.97099947308E+02 0.  0.
          2    1    3    3  502    0 -0.15202087149E+03 -0.43727854027E+03 -0.97453866548E+03  0.10789107830E+04  0.00000000000E+00 0. -1.
         -1    1    3    3    0  502 -0.37665848975E+02 -0.44668983617E+02 -0.87501732613E+02  0.10521685933E+03  0.00000000000E+00 0.  1.
         11    1    5    5    0    0  0.10370502157E+01  0.35432944896E+01  0.92469103827E+01  0.99566942614E+01  0.00000000000E+00 0.  1.
        -11    1    5    5    0    0  0.19441688249E+03 -0.21325354625E+03 -0.68302156378E+02  0.29654710208E+03  0.00000000000E+00 0. -1.
          4    1    6    6  503    0 -0.25294510680E+02  0.46554824320E+03  0.15935330078E+03  0.49271538791E+03  0.00000000000E+00 0. -1.
         -4    1    6    6    0  503  0.19527298437E+02  0.22610953245E+03  0.14399866225E+03  0.26877955796E+03  0.00000000000E+00 0.  1.
<mgrwt>
<rscale>  0 0.20984205E+04</rscale>
<asrwt>0</asrwt>
<pdfrwt beam="1">  1        2 0.23614385E+00 0.20984205E+04</pdfrwt>
<pdfrwt beam="2">  1       -1 0.11033713E+00 0.20984205E+04</pdfrwt>
<totfact> 0.96504959E+00</totfact>
</mgrwt>
</event>
<event>
12    6  0.1494052E-007  0.2208504E+04  0.7818608E-02  0.8514897E-01
         -1   -1    0    0    0  501 -0.00000000000E+00  0.00000000000E+00  0.76223254344E+03  0.76223254344E+03  0.00000000000E+00 0.  1.
          2   -1    0    0  501    0  0.00000000000E+00 -0.00000000000E+00 -0.15997387383E+04  0.15997387383E+04  0.00000000000E+00 0. -1.
         24    2    1    2    0    0 -0.51295481289E+03  0.37894788111E+03  0.35736719339E+03  0.73420286379E+03  0.67958793482E+02 0.  0.
        254    2    1    2    0    0  0.51295481289E+03 -0.37894788111E+03 -0.11948733882E+04  0.16277684179E+04  0.90287511420E+03 0.  0.
         23    2    4    4    0    0 -0.15658841611E+03 -0.16130686319E+03 -0.52176232115E+01  0.24258894134E+03  0.91007333191E+02 0.  0.
         23    2    4    4    0    0  0.66954322901E+03 -0.21764101793E+03 -0.11896557650E+04  0.13851794766E+04  0.88236018389E+02 0.  0.
          2    1    3    3  502    0 -0.38126623451E+03  0.26368203697E+03  0.28925368756E+03  0.54640630849E+03  0.00000000000E+00 0. -1.
         -1    1    3    3    0  502 -0.13168857839E+03  0.11526584415E+03  0.68113505835E+02  0.18779655530E+03  0.00000000000E+00 0.  1.
         11    1    5    5    0    0 -0.14992275940E+03 -0.11602842394E+03  0.19494833379E+02  0.19057669710E+03  0.00000000000E+00 0. -1.
        -11    1    5    5    0    0 -0.66656567134E+01 -0.45278439245E+02 -0.24712456590E+02  0.52012244237E+02  0.00000000000E+00 0.  1.
          2    1    6    6  503    0  0.46131843124E+03 -0.12759915670E+03 -0.73573023575E+03  0.87772160710E+03  0.00000000000E+00 0. -1.
         -2    1    6    6    0  503  0.20822479777E+03 -0.90041861232E+02 -0.45392552928E+03  0.50745786949E+03  0.00000000000E+00 0.  1.
<mgrwt>
<rscale>  0 0.22085044E+04</rscale>
<asrwt>0</asrwt>
<pdfrwt beam="1">  1        2 0.24611365E+00 0.22085044E+04</pdfrwt>
<pdfrwt beam="2">  1       -1 0.11726655E+00 0.22085044E+04</pdfrwt>
<totfact> 0.76001325E+00</totfact>
</mgrwt>
</event>
<event>
12    6  0.1494052E-007  0.1895060E+04  0.7818608E-02  0.8657319E-01
         -1   -1    0    0    0  501 -0.00000000000E+00  0.00000000000E+00  0.35738894959E+03  0.35738894959E+03  0.00000000000E+00 0.  1.
          2   -1    0    0  501    0  0.00000000000E+00 -0.00000000000E+00 -0.25121468168E+04  0.25121468168E+04  0.00000000000E+00 0. -1.
         24    2    1    2    0    0  0.15568845910E+03 -0.45289052323E+03 -0.92341782936E+01  0.48524356760E+03  0.77635864882E+02 0.  0.
        254    2    1    2    0    0 -0.15568845910E+03  0.45289052323E+03 -0.21455236889E+04  0.23842921987E+04  0.92316231898E+03 0.  0.
         23    2    4    4    0    0 -0.51866327484E+03  0.39473162752E+03 -0.12554752774E+04  0.14175006985E+04  0.90914286987E+02 0.  0.
         23    2    4    4    0    0  0.36297481575E+03  0.58158895715E+02 -0.89004841144E+03  0.96679150025E+03  0.85828062022E+02 0.  0.
          4    1    3    3  502    0  0.81291199085E+02 -0.12631300827E+03 -0.31966903317E+01  0.15024464695E+03  0.00000000000E+00 0. -1.
         -3    1    3    3    0  502  0.74397260013E+02 -0.32657751497E+03 -0.60374879619E+01  0.33499892065E+03  0.00000000000E+00 0.  1.
         11    1    5    5    0    0 -0.56436517762E+02  0.31778360469E+02 -0.77035463890E+02  0.10064495729E+03  0.00000000000E+00 0.  1.
        -11    1    5    5    0    0 -0.46222675708E+03  0.36295326705E+03 -0.11784398135E+04  0.13168557412E+04  0.00000000000E+00 0. -1.
          4    1    6    6  503    0  0.33601943778E+03  0.74287974924E+02 -0.83924367033E+03  0.90705992303E+03  0.00000000000E+00 0. -1.
         -4    1    6    6    0  503  0.26955377970E+02 -0.16129079209E+02 -0.50804741113E+02  0.59731577220E+02  0.00000000000E+00 0.  1.
<mgrwt>
<rscale>  0 0.18950604E+04</rscale>
<asrwt>0</asrwt>
<pdfrwt beam="1">  1        2 0.38648414E+00 0.18950604E+04</pdfrwt>
<pdfrwt beam="2">  1       -1 0.54982914E-01 0.18950604E+04</pdfrwt>
<totfact> 0.12224523E+01</totfact>
</mgrwt>
</event>
<event>
12    6  0.1494052E-007  0.1542249E+04  0.7818608E-02  0.8856834E-01
         -1   -1    0    0    0  501 -0.00000000000E+00  0.00000000000E+00  0.64512014114E+03  0.64512014114E+03  0.00000000000E+00 0.  1.
          2   -1    0    0  501    0  0.00000000000E+00 -0.00000000000E+00 -0.92173951499E+03  0.92173951499E+03  0.00000000000E+00 0. -1.
         24    2    1    2    0    0  0.24933220163E+03 -0.18912310088E+03  0.30698805791E+03  0.44556440510E+03  0.79698665850E+02 0.  0.
        254    2    1    2    0    0 -0.24933220163E+03  0.18912310088E+03 -0.58360743176E+03  0.11212952510E+04  0.90485982977E+03 0.  0.
         23    2    4    4    0    0 -0.16665646924E+02  0.17241566619E+03  0.21109936931E+03  0.28754458097E+03  0.90077947280E+02 0.  0.
         23    2    4    4    0    0 -0.23266655471E+03  0.16707434695E+02 -0.79470680107E+03  0.83375067007E+03  0.95751846581E+02 0.  0.
          2    1    3    3  502    0  0.76071761650E+02 -0.19334819506E+02  0.55391386949E+02  0.96067444611E+02  0.00000000000E+00 0. -1.
         -1    1    3    3    0  502  0.17326043998E+03 -0.16978828138E+03  0.25159667096E+03  0.34949696049E+03  0.00000000000E+00 0.  1.
         11    1    5    5    0    0  0.21618281499E+02  0.14555255696E+03  0.17378082251E+03  0.22771181613E+03  0.00000000000E+00 0. -1.
        -11    1    5    5    0    0 -0.38283928422E+02  0.26863109222E+02  0.37318546801E+02  0.59832764836E+02  0.00000000000E+00 0.  1.
          4    1    6    6  503    0 -0.21937426643E+03 -0.12841719522E+02 -0.69139498209E+03  0.72547708427E+03  0.00000000000E+00 0. -1.
         -4    1    6    6    0  503 -0.13292288274E+02  0.29549154217E+02 -0.10331181898E+03  0.10827358580E+03  0.00000000000E+00 0.  1.
<mgrwt>
<rscale>  0 0.15422487E+04</rscale>
<asrwt>0</asrwt>
<pdfrwt beam="1">  1        2 0.14180608E+00 0.15422487E+04</pdfrwt>
<pdfrwt beam="2">  1       -1 0.99249253E-01 0.15422487E+04</pdfrwt>
<totfact> 0.30224080E+01</totfact>
</mgrwt>
</event>
<event>
12    6  0.1494052E-007  0.1579163E+04  0.7818608E-02  0.8833452E-01
         -1   -1    0    0    0  501 -0.00000000000E+00  0.00000000000E+00  0.51524926197E+03  0.51524926197E+03  0.00000000000E+00 0.  1.
          2   -1    0    0  501    0  0.00000000000E+00 -0.00000000000E+00 -0.12099761597E+04  0.12099761597E+04  0.00000000000E+00 0. -1.
         24    2    1    2    0    0 -0.51981453964E+03 -0.66622703914E+02 -0.79978190422E+02  0.53649377477E+03  0.82360907786E+02 0.  0.
        254    2    1    2    0    0  0.51981453964E+03  0.66622703914E+02 -0.61474870733E+03  0.11887316469E+04  0.87207867474E+03 0.  0.
         23    2    4    4    0    0  0.94306309348E+02 -0.11792562134E+03 -0.68804964954E+03  0.71028703171E+03  0.91078071066E+02 0.  0.
         23    2    4    4    0    0  0.42550823029E+03  0.18454832525E+03  0.73300942217E+02  0.47844461521E+03  0.91765370883E+02 0.  0.
          2    1    3    3  502    0 -0.77034458731E+02  0.19193873986E+02 -0.84612551844E+01  0.79839247678E+02  0.00000000000E+00 0. -1.
         -1    1    3    3    0  502 -0.44278008091E+03 -0.85816577900E+02 -0.71516935238E+02  0.45665452710E+03  0.00000000000E+00 0.  1.
         11    1    5    5    0    0  0.97018863891E+02 -0.12798857037E+03 -0.58285243635E+03  0.60457480650E+03  0.00000000000E+00 0. -1.
        -11    1    5    5    0    0 -0.27125545438E+01  0.10062949030E+02 -0.10519721320E+03  0.10571222522E+03  0.00000000000E+00 0.  1.
          4    1    6    6  503    0  0.37617722460E+03  0.18881354439E+03  0.50467512629E+02  0.42391842221E+03  0.00000000000E+00 0. -1.
         -4    1    6    6    0  503  0.49331005687E+02 -0.42652191385E+01  0.22833429589E+02  0.54526193001E+02  0.00000000000E+00 0.  1.
<mgrwt>
<rscale>  0 0.15791635E+04</rscale>
<asrwt>0</asrwt>
<pdfrwt beam="1">  1        2 0.18615018E+00 0.15791635E+04</pdfrwt>
<pdfrwt beam="2">  1       -1 0.79269118E-01 0.15791635E+04</pdfrwt>
<totfact> 0.32549401E+01</totfact>
</mgrwt>
</event>
<event>
12    6  0.1494052E-007  0.2016333E+04  0.7818608E-02  0.8599022E-01
          2   -1    0    0  501    0  0.00000000000E+00  0.00000000000E+00  0.28653063041E+04  0.28653063041E+04  0.00000000000E+00 0. -1.
         -1   -1    0    0    0  501 -0.00000000000E+00 -0.00000000000E+00 -0.35472652508E+03  0.35472652508E+03  0.00000000000E+00 0.  1.
         24    2    1    2    0    0  0.29142694271E+03 -0.55798961325E+03  0.20665269860E+03  0.66680766089E+03  0.75133530148E+02 0.  0.
        254    2    1    2    0    0 -0.29142694271E+03  0.55798961325E+03  0.23039270805E+04  0.25532251683E+04  0.90255010759E+03 0.  0.
         23    2    4    4    0    0  0.30212339293E+03  0.32308093945E+03  0.10574051404E+04  0.11498327864E+04  0.91378157237E+02 0.  0.
         23    2    4    4    0    0 -0.59355033564E+03  0.23490867380E+03  0.12465219401E+04  0.14033923820E+04  0.90604331046E+02 0.  0.
          2    1    3    3  502    0  0.89778368111E+01 -0.10614340219E+02 -0.60533998079E+01  0.15162764304E+02  0.00000000000E+00 0. -1.
         -1    1    3    3    0  502  0.28244910590E+03 -0.54737527303E+03  0.21270609841E+03  0.65164489659E+03  0.00000000000E+00 0.  1.
         11    1    5    5    0    0  0.12402782003E+03  0.17269314300E+03  0.59803839928E+03  0.63470918443E+03  0.00000000000E+00 0.  1.
        -11    1    5    5    0    0  0.17809557291E+03  0.15038779644E+03  0.45936674113E+03  0.51512360193E+03  0.00000000000E+00 0. -1.
          2    1    6    6  503    0 -0.14930691700E+03  0.62027213654E+02  0.40757504253E+03  0.43847160226E+03  0.00000000000E+00 0. -1.
         -2    1    6    6    0  503 -0.44424341865E+03  0.17288146015E+03  0.83894689752E+03  0.96492077972E+03  0.00000000000E+00 0.  1.
<mgrwt>
<rscale>  0 0.20163335E+04</rscale>
<asrwt>0</asrwt>
<pdfrwt beam="1">  1        2 0.44081634E+00 0.20163335E+04</pdfrwt>
<pdfrwt beam="2">  1       -1 0.54573313E-01 0.20163335E+04</pdfrwt>
<totfact> 0.75714973E+00</totfact>
</mgrwt>
</event>
<event>
12    6  0.1494052E-007  0.1796549E+04  0.7818608E-02  0.8708137E-01
          2   -1    0    0  501    0  0.00000000000E+00  0.00000000000E+00  0.16750011821E+04  0.16750011821E+04  0.00000000000E+00 0. -1.
         -1   -1    0    0    0  501 -0.00000000000E+00 -0.00000000000E+00 -0.48172952178E+03  0.48172952178E+03  0.00000000000E+00 0.  1.
         24    2    1    2    0    0  0.51470779008E+02  0.13059810058E+03 -0.34603287613E+03  0.38172773861E+03  0.79197285941E+02 0.  0.
        254    2    1    2    0    0 -0.51470779008E+02 -0.13059810058E+03  0.15393045364E+04  0.17750029652E+04  0.87262361061E+03 0.  0.
         23    2    4    4    0    0 -0.39290082624E+03 -0.23056742099E+03  0.55662609155E+03  0.72598637704E+03  0.98443988952E+02 0.  0.
         23    2    4    4    0    0  0.34143004724E+03  0.99969320416E+02  0.98267844487E+03  0.10490165882E+04  0.90611997722E+02 0.  0.
          4    1    3    3  502    0  0.18900905469E+02 -0.53588049652E+01 -0.63973791941E+02  0.66922395904E+02  0.00000000000E+00 0. -1.
         -3    1    3    3    0  502  0.32569873539E+02  0.13595690554E+03 -0.28205908419E+03  0.31480534271E+03  0.00000000000E+00 0.  1.
         11    1    5    5    0    0 -0.17888841384E+03 -0.57732443112E+02  0.18615967044E+03  0.26455532974E+03  0.00000000000E+00 0. -1.
        -11    1    5    5    0    0 -0.21401241241E+03 -0.17283497788E+03  0.37046642111E+03  0.46143104730E+03  0.00000000000E+00 0.  1.
          1    1    6    6  503    0  0.20594748085E+03  0.21278011109E+02  0.62867946207E+03  0.66189499518E+03  0.00000000000E+00 0. -1.
         -1    1    6    6    0  503  0.13548256639E+03  0.78691309307E+02  0.35399898280E+03  0.38712159302E+03  0.00000000000E+00 0.  1.
<mgrwt>
<rscale>  0 0.17965495E+04</rscale>
<asrwt>0</asrwt>
<pdfrwt beam="1">  1        2 0.25769249E+00 0.17965495E+04</pdfrwt>
<pdfrwt beam="2">  1       -1 0.74112235E-01 0.17965495E+04</pdfrwt>
<totfact> 0.19966396E+01</totfact>
</mgrwt>
</event>
<event>
12    6  0.1494052E-007  0.2390082E+04  0.7818608E-02  0.8443226E-01
          2   -1    0    0  501    0  0.00000000000E+00  0.00000000000E+00  0.26088861574E+04  0.26088861574E+04  0.00000000000E+00 0. -1.
         -1   -1    0    0    0  501 -0.00000000000E+00 -0.00000000000E+00 -0.54740702073E+03  0.54740702073E+03  0.00000000000E+00 0.  1.
         24    2    1    2    0    0  0.65485840809E+03  0.45909952623E+03  0.44422642727E+02  0.80491435458E+03  0.79384112959E+02 0.  0.
        254    2    1    2    0    0 -0.65485840809E+03 -0.45909952623E+03  0.20170564939E+04  0.23513788235E+04  0.90600969221E+03 0.  0.
         23    2    4    4    0    0 -0.11357597880E+03 -0.32058325630E+03  0.12081901304E+03  0.37252184483E+03  0.92207178573E+02 0.  0.
         23    2    4    4    0    0 -0.54128242929E+03 -0.13851626993E+03  0.18962374809E+04  0.19788569787E+04  0.89358451883E+02 0.  0.
          4    1    3    3  502    0  0.68218030818E+02  0.33656082642E+02  0.24686052546E+02  0.79973950870E+02  0.00000000000E+00 0. -1.
         -3    1    3    3    0  502  0.58664037728E+03  0.42544344359E+03  0.19736590181E+02  0.72494040371E+03  0.00000000000E+00 0.  1.
         11    1    5    5    0    0 -0.62179244022E+02 -0.70529169795E+02  0.11161419417E+02  0.94684737220E+02  0.00000000000E+00 0. -1.
        -11    1    5    5    0    0 -0.51396734782E+02 -0.25005408650E+03  0.10965759362E+03  0.27783710761E+03  0.00000000000E+00 0.  1.
          1    1    6    6  503    0 -0.29402527091E+03 -0.11821404898E+03  0.11166289614E+04  0.11607263496E+04  0.00000000000E+00 0. -1.
         -1    1    6    6    0  503 -0.24725715838E+03 -0.20302220950E+02  0.77960851951E+03  0.81813062908E+03  0.00000000000E+00 0.  1.
<mgrwt>
<rscale>  0 0.23900817E+04</rscale>
<asrwt>0</asrwt>
<pdfrwt beam="1">  1        2 0.40136710E+00 0.23900817E+04</pdfrwt>
<pdfrwt beam="2">  1       -1 0.84216466E-01 0.23900817E+04</pdfrwt>
<totfact> 0.42997471E+00</totfact>
</mgrwt>
</event>
<event>
12    6  0.1494052E-007  0.1890535E+04  0.7818608E-02  0.8659582E-01
          2   -1    0    0  501    0  0.00000000000E+00  0.00000000000E+00  0.15717414151E+04  0.15717414151E+04  0.00000000000E+00 0. -1.
         -1   -1    0    0    0  501 -0.00000000000E+00 -0.00000000000E+00 -0.56849700878E+03  0.56849700878E+03  0.00000000000E+00 0.  1.
         24    2    1    2    0    0 -0.15758023156E+03 -0.67629936776E+03  0.12479544419E+03  0.71011403973E+03  0.80471624324E+02 0.  0.
        254    2    1    2    0    0  0.15758023156E+03  0.67629936776E+03  0.87844896215E+03  0.14301243842E+04  0.88959024889E+03 0.  0.
         23    2    4    4    0    0  0.25822728511E+02  0.12525881607E+03 -0.17182491294E+03  0.23328692895E+03  0.92425138365E+02 0.  0.
         23    2    4    4    0    0  0.13175750305E+03  0.55104055169E+03  0.10502738751E+04  0.11968374552E+04  0.91317864228E+02 0.  0.
          4    1    3    3  502    0 -0.84438085723E+02 -0.20252012180E+03  0.48059983370E+02  0.22461957184E+03  0.00000000000E+00 0. -1.
         -3    1    3    3    0  502 -0.73142145835E+02 -0.47377924596E+03  0.76735460821E+02  0.48549446789E+03  0.00000000000E+00 0.  1.
         11    1    5    5    0    0  0.32148221503E+02  0.12260470248E+03 -0.18153056192E+03  0.22140182051E+03  0.00000000000E+00 0.  1.
        -11    1    5    5    0    0 -0.63254929915E+01  0.26541135874E+01  0.97056489771E+01  0.11885108438E+02  0.00000000000E+00 0. -1.
          1    1    6    6  503    0 -0.85930510255E+01  0.12533824098E+03  0.23304484789E+03  0.26475161247E+03  0.00000000000E+00 0. -1.
         -1    1    6    6    0  503  0.14035055407E+03  0.42570231071E+03  0.81722902720E+03  0.93208584276E+03  0.00000000000E+00 0.  1.
<mgrwt>
<rscale>  0 0.18905346E+04</rscale>
<asrwt>0</asrwt>
<pdfrwt beam="1">  1        2 0.24180637E+00 0.18905346E+04</pdfrwt>
<pdfrwt beam="2">  1       -1 0.87461079E-01 0.18905346E+04</pdfrwt>
<totfact> 0.15888118E+01</totfact>
</mgrwt>
</event>
<event>
12    6  0.1494052E-007  0.1692134E+04  0.7818608E-02  0.8765864E-01
         -1   -1    0    0    0  501 -0.00000000000E+00  0.00000000000E+00  0.16628384119E+04  0.16628384119E+04  0.00000000000E+00 0.  1.
          2   -1    0    0  501    0  0.00000000000E+00 -0.00000000000E+00 -0.43048630479E+03  0.43048630479E+03  0.00000000000E+00 0. -1.
         24    2    1    2    0    0 -0.18293632364E+03  0.48839442098E+03  0.67289154218E+02  0.53288098112E+03  0.86252540928E+02 0.  0.
        254    2    1    2    0    0  0.18293632364E+03 -0.48839442098E+03  0.11650629529E+04  0.15604437356E+04  0.89756234253E+03 0.  0.
         23    2    4    4    0    0  0.35216034638E+03 -0.62870849741E+03  0.10894772719E+04  0.13095581517E+04  0.93223078508E+02 0.  0.
         23    2    4    4    0    0 -0.16922402275E+03  0.14031407643E+03  0.75585681015E+02  0.25088558391E+03  0.94369333583E+02 0.  0.
          4    1    3    3  502    0 -0.93770747440E+02  0.29913126222E+03  0.12380635857E+01  0.31348683850E+03  0.00000000000E+00 0. -1.
         -3    1    3    3    0  502 -0.89165576198E+02  0.18926315876E+03  0.66051090632E+02  0.21939414262E+03  0.00000000000E+00 0.  1.
         11    1    5    5    0    0  0.30388205097E+03 -0.58521860673E+03  0.95951039092E+03  0.11642531120E+04  0.00000000000E+00 0.  1.
        -11    1    5    5    0    0  0.48278295419E+02 -0.43489890680E+02  0.12996688096E+03  0.14530503965E+03  0.00000000000E+00 0. -1.
          2    1    6    6  503    0 -0.82625827060E+02  0.18209434800E+02  0.33559604118E+01  0.84675104271E+02  0.00000000000E+00 0. -1.
         -2    1    6    6    0  503 -0.86598195687E+02  0.12210464163E+03  0.72229720603E+02  0.16621047964E+03  0.00000000000E+00 0.  1.
<mgrwt>
<rscale>  0 0.16921338E+04</rscale>
<asrwt>0</asrwt>
<pdfrwt beam="1">  1        2 0.66228663E-01 0.16921338E+04</pdfrwt>
<pdfrwt beam="2">  1       -1 0.25582129E+00 0.16921338E+04</pdfrwt>
<totfact> 0.50897696E+00</totfact>
</mgrwt>
</event>
<event>
12    6  0.1494052E-007  0.2580044E+04  0.7818608E-02  0.8375012E-01
         -1   -1    0    0    0  501 -0.00000000000E+00  0.00000000000E+00  0.15065930437E+04  0.15065930437E+04  0.00000000000E+00 0.  1.
          2   -1    0    0  501    0  0.00000000000E+00 -0.00000000000E+00 -0.11045824889E+04  0.11045824889E+04  0.00000000000E+00 0. -1.
         24    2    1    2    0    0 -0.90592459439E+03 -0.68020813578E+02 -0.50545656359E+03  0.10435337741E+04  0.90278448070E+02 0.  0.
        254    2    1    2    0    0  0.90592459439E+03  0.68020813578E+02  0.90746711842E+03  0.15676417586E+04  0.89926520582E+03 0.  0.
         23    2    4    4    0    0  0.52092827116E+02  0.70478773493E+02  0.66243208872E+03  0.67484120693E+03  0.94411134156E+02 0.  0.
         23    2    4    4    0    0  0.85383176728E+03 -0.24579599151E+01  0.24503502970E+03  0.89280055164E+03  0.89531730965E+02 0.  0.
          2    1    3    3  502    0 -0.46873609853E+03 -0.35729905320E+01 -0.29702618847E+03  0.55493319684E+03  0.00000000000E+00 0. -1.
         -1    1    3    3    0  502 -0.43718849587E+03 -0.64447823046E+02 -0.20843037513E+03  0.48860057725E+03  0.00000000000E+00 0.  1.
         11    1    5    5    0    0  0.37828594111E+01  0.24388752397E+02  0.47899266604E+03  0.47962808028E+03  0.00000000000E+00 0. -1.
        -11    1    5    5    0    0  0.48309967704E+02  0.46090021097E+02  0.18343942268E+03  0.19521312665E+03  0.00000000000E+00 0.  1.
          2    1    6    6  503    0  0.62196789528E+03 -0.34287722457E+01  0.21932128212E+03  0.65951318716E+03  0.00000000000E+00 0. -1.
         -2    1    6    6    0  503  0.23186387200E+03  0.97081233060E+00  0.25713747576E+02  0.23328736448E+03  0.00000000000E+00 0.  1.
<mgrwt>
<rscale>  0 0.25800436E+04</rscale>
<asrwt>0</asrwt>
<pdfrwt beam="1">  1        2 0.16993577E+00 0.25800436E+04</pdfrwt>
<pdfrwt beam="2">  1       -1 0.23178355E+00 0.25800436E+04</pdfrwt>
<totfact> 0.20077948E+00</totfact>
</mgrwt>
</event>
<event>
12    6  0.1494052E-007  0.1524773E+04  0.7818608E-02  0.8868144E-01
         -1   -1    0    0    0  501 -0.00000000000E+00  0.00000000000E+00  0.15469273333E+03  0.15469273333E+03  0.00000000000E+00 0.  1.
          2   -1    0    0  501    0  0.00000000000E+00 -0.00000000000E+00 -0.37573381802E+04  0.37573381802E+04  0.00000000000E+00 0. -1.
         24    2    1    2    0    0 -0.48500224897E+03 -0.52428069157E+02 -0.12070085811E+04  0.13041991242E+04  0.78036894759E+02 0.  0.
        254    2    1    2    0    0  0.48500224897E+03  0.52428069157E+02 -0.23956368658E+04  0.26078317893E+04  0.90759834977E+03 0.  0.
         23    2    4    4    0    0  0.68648647314E+03  0.24703627798E+03 -0.16816904141E+04  0.18354425705E+04  0.92066173168E+02 0.  0.
         23    2    4    4    0    0 -0.20148422417E+03 -0.19460820883E+03 -0.71394645174E+03  0.77238921884E+03  0.91636902463E+02 0.  0.
          2    1    3    3  502    0 -0.42460041435E+03 -0.37740888820E+02 -0.97713106904E+03  0.10660652009E+04  0.00000000000E+00 0. -1.
         -1    1    3    3    0  502 -0.60401834622E+02 -0.14687180337E+02 -0.22987751203E+03  0.23813392331E+03  0.00000000000E+00 0.  1.
         11    1    5    5    0    0  0.18251322497E+02  0.13043789631E+02 -0.23847285998E+02  0.32740560018E+02  0.00000000000E+00 0. -1.
        -11    1    5    5    0    0  0.66823515064E+03  0.23399248835E+03 -0.16578431281E+04  0.18027020104E+04  0.00000000000E+00 0.  1.
          1    1    6    6  503    0 -0.29792018439E+02 -0.69121118095E+02 -0.12143696178E+03  0.14287137228E+03  0.00000000000E+00 0. -1.
         -1    1    6    6    0  503 -0.17169220573E+03 -0.12548709073E+03 -0.59250948996E+03  0.62951784656E+03  0.00000000000E+00 0.  1.
<mgrwt>
<rscale>  0 0.15247727E+04</rscale>
<asrwt>0</asrwt>
<pdfrwt beam="1">  1        2 0.57805202E+00 0.15247727E+04</pdfrwt>
<pdfrwt beam="2">  1       -1 0.23798882E-01 0.15247727E+04</pdfrwt>
<totfact> 0.90135927E+00</totfact>
</mgrwt>
</event>
<event>
12    6  0.1494052E-007  0.1442652E+04  0.7818608E-02  0.8923511E-01
          2   -1    0    0  501    0  0.00000000000E+00  0.00000000000E+00  0.11174409224E+04  0.11174409224E+04  0.00000000000E+00 0. -1.
         -1   -1    0    0    0  501 -0.00000000000E+00 -0.00000000000E+00 -0.46562728805E+03  0.46562728805E+03  0.00000000000E+00 0.  1.
         24    2    1    2    0    0 -0.36869701167E+03 -0.71841449866E+02  0.45407421132E+03  0.59469684547E+03  0.79889099908E+02 0.  0.
        254    2    1    2    0    0  0.36869701167E+03  0.71841449866E+02  0.19773942298E+03  0.98837136494E+03  0.89256842611E+03 0.  0.
         23    2    4    4    0    0  0.57653376318E+03  0.26656798231E+03  0.24060986281E+03  0.68566730552E+03  0.93791676033E+02 0.  0.
         23    2    4    4    0    0 -0.20783675150E+03 -0.19472653244E+03 -0.42870439832E+02  0.30270405942E+03  0.93152215572E+02 0.  0.
          2    1    3    3  502    0 -0.30794587467E+03 -0.33470905665E+02  0.34064168015E+03  0.46042123920E+03  0.00000000000E+00 0. -1.
         -1    1    3    3    0  502 -0.60751137001E+02 -0.38370544201E+02  0.11343253117E+03  0.13427560626E+03  0.00000000000E+00 0.  1.
         11    1    5    5    0    0  0.57175668060E+03  0.27191917147E+03  0.24292675852E+03  0.67812915262E+03  0.00000000000E+00 0.  1.
        -11    1    5    5    0    0  0.47770825771E+01 -0.53511891611E+01 -0.23168957075E+01  0.75381528975E+01  0.00000000000E+00 0. -1.
          4    1    6    6  503    0 -0.89845257372E+02 -0.28402658845E+02  0.44562098330E+00  0.94228869673E+02  0.00000000000E+00 0. -1.
         -4    1    6    6    0  503 -0.11799149413E+03 -0.16632387360E+03 -0.43316060815E+02  0.20847518975E+03  0.00000000000E+00 0.  1.
<mgrwt>
<rscale>  0 0.14426517E+04</rscale>
<asrwt>0</asrwt>
<pdfrwt beam="1">  1        2 0.17191399E+00 0.14426517E+04</pdfrwt>
<pdfrwt beam="2">  1       -1 0.71634968E-01 0.14426517E+04</pdfrwt>
<totfact> 0.46274831E+01</totfact>
</mgrwt>
</event>
<event>
12    6  0.1494052E-007  0.2822900E+04  0.7818608E-02  0.8296194E-01
         -1   -1    0    0    0  501 -0.00000000000E+00  0.00000000000E+00  0.74536804875E+03  0.74536804875E+03  0.00000000000E+00 0.  1.
          2   -1    0    0  501    0  0.00000000000E+00 -0.00000000000E+00 -0.26727608261E+04  0.26727608261E+04  0.00000000000E+00 0. -1.
         24    2    1    2    0    0 -0.11894533582E+04  0.16926033223E+03 -0.38776158664E+03  0.12650572575E+04  0.81009045375E+02 0.  0.
        254    2    1    2    0    0  0.11894533582E+04 -0.16926033223E+03 -0.15396311907E+04  0.21530716173E+04  0.90653451928E+03 0.  0.
         23    2    4    4    0    0  0.54675930294E+03 -0.24149959810E+03 -0.13395974320E+04  0.14696368864E+04  0.89685598493E+02 0.  0.
         23    2    4    4    0    0  0.64269405522E+03  0.72239265874E+02 -0.20003375869E+03  0.68343473098E+03  0.93783616647E+02 0.  0.
          2    1    3    3  502    0 -0.21411556284E+02 -0.18148584364E+01 -0.17907230585E+02  0.27971724310E+02  0.00000000000E+00 0. -1.
         -1    1    3    3    0  502 -0.11680418019E+04  0.17107519067E+03 -0.36985435606E+03  0.12370855332E+04  0.00000000000E+00 0.  1.
         11    1    5    5    0    0  0.36941108349E+03 -0.19791441908E+03 -0.86686646137E+03  0.96285623419E+03  0.00000000000E+00 0.  1.
        -11    1    5    5    0    0  0.17734821945E+03 -0.43585179026E+02 -0.47273097068E+03  0.50678065217E+03  0.00000000000E+00 0. -1.
          3    1    6    6  503    0  0.11364685733E+02  0.15416742279E+02 -0.15991399804E+01  0.19219502413E+02  0.00000000000E+00 0. -1.
         -3    1    6    6    0  503  0.63132936949E+03  0.56822523595E+02 -0.19843461871E+03  0.66421522857E+03  0.00000000000E+00 0.  1.
<mgrwt>
<rscale>  0 0.28228996E+04</rscale>
<asrwt>0</asrwt>
<pdfrwt beam="1">  1        2 0.41119397E+00 0.28228996E+04</pdfrwt>
<pdfrwt beam="2">  1       -1 0.11467201E+00 0.28228996E+04</pdfrwt>
<totfact> 0.18801338E+00</totfact>
</mgrwt>
</event>
<event>
12    6  0.1494052E-007  0.1148949E+04  0.7818608E-02  0.9158754E-01
          2   -1    0    0  501    0  0.00000000000E+00  0.00000000000E+00  0.12463249161E+04  0.12463249161E+04  0.00000000000E+00 0. -1.
         -1   -1    0    0    0  501 -0.00000000000E+00 -0.00000000000E+00 -0.26479525232E+03  0.26479525232E+03  0.00000000000E+00 0.  1.
         24    2    1    2    0    0 -0.17177944222E+03 -0.91194688941E+02  0.29084586214E+03  0.35892241843E+03  0.80058346639E+02 0.  0.
        254    2    1    2    0    0  0.17177944222E+03  0.91194688941E+02  0.69068380164E+03  0.11521977500E+04  0.90149370112E+03 0.  0.
         23    2    4    4    0    0  0.25861244304E+03 -0.23707104258E+03 -0.16704632407E+02  0.36225839943E+03  0.88707543591E+02 0.  0.
         23    2    4    4    0    0 -0.86833000823E+02  0.32826573152E+03  0.70738843405E+03  0.78993935055E+03  0.91145051454E+02 0.  0.
          4    1    3    3  502    0 -0.13570460928E+03 -0.90937320411E+02  0.18350555805E+03  0.24568196324E+03  0.00000000000E+00 0. -1.
         -3    1    3    3    0  502 -0.36074832933E+02 -0.25736853060E+00  0.10734030409E+03  0.11324045519E+03  0.00000000000E+00 0.  1.
         11    1    5    5    0    0  0.12661798901E+03 -0.17353114338E+03 -0.19879579655E+02  0.21573217319E+03  0.00000000000E+00 0. -1.
        -11    1    5    5    0    0  0.13199445403E+03 -0.63539899200E+02  0.31749472486E+01  0.14652622624E+03  0.00000000000E+00 0.  1.
          1    1    6    6  503    0 -0.26088864053E+02  0.25147948024E+03  0.48469635498E+03  0.54667459639E+03  0.00000000000E+00 0. -1.
         -1    1    6    6    0  503 -0.60744136770E+02  0.76786251284E+02  0.22269207907E+03  0.24326475417E+03  0.00000000000E+00 0.  1.
<mgrwt>
<rscale>  0 0.11489489E+04</rscale>
<asrwt>0</asrwt>
<pdfrwt beam="1">  1        2 0.19174229E+00 0.11489489E+04</pdfrwt>
<pdfrwt beam="2">  1       -1 0.40737732E-01 0.11489489E+04</pdfrwt>
<totfact> 0.11805990E+02</totfact>
</mgrwt>
</event>
<event>
12    6  0.1494052E-007  0.1605359E+04  0.7818608E-02  0.8817262E-01
          2   -1    0    0  501    0  0.00000000000E+00  0.00000000000E+00  0.27896161316E+04  0.27896161316E+04  0.00000000000E+00 0. -1.
         -1   -1    0    0    0  501 -0.00000000000E+00 -0.00000000000E+00 -0.23096177009E+03  0.23096177009E+03  0.00000000000E+00 0.  1.
         24    2    1    2    0    0  0.15994003382E+03 -0.34052277477E+03  0.14568187370E+03  0.41158115960E+03  0.81481703823E+02 0.  0.
        254    2    1    2    0    0 -0.15994003382E+03  0.34052277477E+03  0.24129724878E+04  0.26089967420E+04  0.91809106233E+03 0.  0.
         23    2    4    4    0    0 -0.40448995763E+03  0.17053591089E+03  0.50341689474E+03  0.67419015158E+03  0.91701514941E+02 0.  0.
         23    2    4    4    0    0  0.24454992381E+03  0.16998686388E+03  0.19095555930E+04  0.19348065905E+04  0.91508363270E+02 0.  0.
          4    1    3    3  502    0  0.23294875597E+02 -0.26584952457E+02  0.39724674552E+02  0.53173872292E+02  0.00000000000E+00 0. -1.
         -3    1    3    3    0  502  0.13664515823E+03 -0.31393782232E+03  0.10595719914E+03  0.35840728731E+03  0.00000000000E+00 0.  1.
         11    1    5    5    0    0 -0.16880384518E+02  0.25778569586E+02  0.15614425222E+02  0.34544063258E+02  0.00000000000E+00 0.  1.
        -11    1    5    5    0    0 -0.38760957311E+03  0.14475734131E+03  0.48780246952E+03  0.63964608832E+03  0.00000000000E+00 0. -1.
          3    1    6    6  503    0  0.24624234713E+03  0.15911859946E+03  0.17102045552E+04  0.17351523400E+04  0.00000000000E+00 0. -1.
         -3    1    6    6    0  503 -0.16924233217E+01  0.10868264420E+02  0.19935103782E+03  0.19965425051E+03  0.00000000000E+00 0.  1.
<mgrwt>
<rscale>  0 0.16053594E+04</rscale>
<asrwt>0</asrwt>
<pdfrwt beam="1">  1        2 0.42917169E+00 0.16053594E+04</pdfrwt>
<pdfrwt beam="2">  1       -1 0.35532582E-01 0.16053594E+04</pdfrwt>
<totfact> 0.19418100E+01</totfact>
</mgrwt>
</event>
<event>
12    6  0.1494052E-007  0.3025730E+04  0.7818608E-02  0.8236421E-01
         -1   -1    0    0    0  501 -0.00000000000E+00  0.00000000000E+00  0.14180751727E+04  0.14180751727E+04  0.00000000000E+00 0.  1.
          2   -1    0    0  501    0  0.00000000000E+00 -0.00000000000E+00 -0.16139911666E+04  0.16139911666E+04  0.00000000000E+00 0. -1.
         24    2    1    2    0    0  0.96591164560E+03  0.85774511928E+03  0.39808496776E+03  0.13541039241E+04  0.80086196237E+02 0.  0.
        254    2    1    2    0    0 -0.96591164560E+03 -0.85774511928E+03 -0.59400096160E+03  0.16779624153E+04  0.89107167382E+03 0.  0.
         23    2    4    4    0    0 -0.66043592943E+03 -0.37278991319E+02 -0.12117110979E+03  0.67857607158E+03  0.90651569192E+02 0.  0.
         23    2    4    4    0    0 -0.30547571617E+03 -0.82046612796E+03 -0.47282985180E+03  0.99938634367E+03  0.93407252761E+02 0.  0.
          2    1    3    3  502    0  0.18900666815E+03  0.16219746797E+03  0.11000497223E+03  0.27227308559E+03  0.00000000000E+00 0. -1.
         -1    1    3    3    0  502  0.77690497745E+03  0.69554765131E+03  0.28807999553E+03  0.10818308385E+04  0.00000000000E+00 0.  1.
         11    1    5    5    0    0 -0.32807322134E+03 -0.58581634803E+02 -0.82271662909E+02  0.34326734918E+03  0.00000000000E+00 0. -1.
        -11    1    5    5    0    0 -0.33236270810E+03  0.21302643484E+02 -0.38899446884E+02  0.33530872241E+03  0.00000000000E+00 0.  1.
          3    1    6    6  503    0 -0.68736770232E+02 -0.22436356355E+03 -0.17204220403E+03  0.29096781987E+03  0.00000000000E+00 0. -1.
         -3    1    6    6    0  503 -0.23673894593E+03 -0.59610256441E+03 -0.30078764777E+03  0.70841852381E+03  0.00000000000E+00 0.  1.
<mgrwt>
<rscale>  0 0.30257302E+04</rscale>
<asrwt>0</asrwt>
<pdfrwt beam="1">  1        2 0.24830633E+00 0.30257302E+04</pdfrwt>
<pdfrwt beam="2">  1       -1 0.21816541E+00 0.30257302E+04</pdfrwt>
<totfact> 0.12058477E+00</totfact>
</mgrwt>
</event>
<event>
12    6  0.1494052E-007  0.2100866E+04  0.7818608E-02  0.8560862E-01
          2   -1    0    0  501    0  0.00000000000E+00  0.00000000000E+00  0.21918556281E+04  0.21918556281E+04  0.00000000000E+00 0. -1.
         -1   -1    0    0    0  501 -0.00000000000E+00 -0.00000000000E+00 -0.50341336710E+03  0.50341336710E+03  0.00000000000E+00 0.  1.
         24    2    1    2    0    0  0.28643944249E+03 -0.36669111631E+03  0.16051652311E+04  0.16732130669E+04  0.81096357122E+02 0.  0.
        254    2    1    2    0    0 -0.28643944249E+03  0.36669111631E+03  0.83277029902E+02  0.10220559283E+04  0.90617510883E+03 0.  0.
         23    2    4    4    0    0 -0.28349002497E+03  0.58077021269E+03 -0.17372719984E+03  0.67546865884E+03  0.91739494860E+02 0.  0.
         23    2    4    4    0    0 -0.29494175157E+01 -0.21407909637E+03  0.25700422974E+03  0.34658726945E+03  0.90735895180E+02 0.  0.
          4    1    3    3  502    0  0.10730873776E+03 -0.20251496731E+03  0.79999797260E+03  0.83218040913E+03  0.00000000000E+00 0. -1.
         -3    1    3    3    0  502  0.17913070473E+03 -0.16417614901E+03  0.80516725848E+03  0.84103265775E+03  0.00000000000E+00 0.  1.
         11    1    5    5    0    0 -0.89808745288E+02  0.25252206097E+03 -0.37009388852E+02  0.27055996908E+03  0.00000000000E+00 0. -1.
        -11    1    5    5    0    0 -0.19368127968E+03  0.32824815172E+03 -0.13671781099E+03  0.40490868976E+03  0.00000000000E+00 0.  1.
          1    1    6    6  503    0  0.19758566083E+02 -0.15986878016E+03  0.13128578147E+03  0.20780852778E+03  0.00000000000E+00 0. -1.
         -1    1    6    6    0  503 -0.22707983599E+02 -0.54210316212E+02  0.12571844827E+03  0.13877874167E+03  0.00000000000E+00 0.  1.
<mgrwt>
<rscale>  0 0.21008659E+04</rscale>
<asrwt>0</asrwt>
<pdfrwt beam="1">  1        2 0.33720855E+00 0.21008659E+04</pdfrwt>
<pdfrwt beam="2">  1       -1 0.77448211E-01 0.21008659E+04</pdfrwt>
<totfact> 0.91466200E+00</totfact>
</mgrwt>
</event>
<event>
12    6  0.1494052E-007  0.1688300E+04  0.7818608E-02  0.8768066E-01
          2   -1    0    0  501    0  0.00000000000E+00  0.00000000000E+00  0.87969267889E+03  0.87969267889E+03  0.00000000000E+00 0. -1.
         -1   -1    0    0    0  501 -0.00000000000E+00 -0.00000000000E+00 -0.81004324460E+03  0.81004324460E+03  0.00000000000E+00 0.  1.
         24    2    1    2    0    0  0.46030299797E+03  0.30196777227E+03  0.21715260261E+03  0.59689652324E+03  0.77889801700E+02 0.  0.
        254    2    1    2    0    0 -0.46030299797E+03 -0.30196777227E+03 -0.14750316832E+03  0.10928394003E+04  0.93245771199E+03 0.  0.
         23    2    4    4    0    0 -0.16168197309E+03 -0.61366754316E+03 -0.10778319993E+03  0.64942549291E+03  0.86065897432E+02 0.  0.
         23    2    4    4    0    0 -0.29862102488E+03  0.31169977089E+03 -0.39719968381E+02  0.44341390734E+03  0.93311058624E+02 0.  0.
          4    1    3    3  502    0  0.33040336229E+03  0.18401492709E+03  0.17348411009E+03  0.41608245776E+03  0.00000000000E+00 0. -1.
         -3    1    3    3    0  502  0.12989963568E+03  0.11795284518E+03  0.43668492518E+02  0.18081406548E+03  0.00000000000E+00 0.  1.
         11    1    5    5    0    0 -0.12832157686E+03 -0.33420404695E+03 -0.42508682335E+02  0.36050764230E+03  0.00000000000E+00 0. -1.
        -11    1    5    5    0    0 -0.33360396234E+02 -0.27946349621E+03 -0.65274517600E+02  0.28891785061E+03  0.00000000000E+00 0.  1.
          1    1    6    6  503    0 -0.14920324576E+03  0.21531150246E+03 -0.36420284821E+01  0.26198075504E+03  0.00000000000E+00 0. -1.
         -1    1    6    6    0  503 -0.14941777912E+03  0.96388268427E+02 -0.36077939899E+02  0.18143315230E+03  0.00000000000E+00 0.  1.
<mgrwt>
<rscale>  0 0.16882999E+04</rscale>
<asrwt>0</asrwt>
<pdfrwt beam="1">  1        2 0.13533734E+00 0.16882999E+04</pdfrwt>
<pdfrwt beam="2">  1       -1 0.12462204E+00 0.16882999E+04</pdfrwt>
<totfact> 0.18557700E+01</totfact>
</mgrwt>
</event>
<event>
12    6  0.1494052E-007  0.1653430E+04  0.7818608E-02  0.8788380E-01
          2   -1    0    0  501    0  0.00000000000E+00  0.00000000000E+00  0.23814423882E+04  0.23814423882E+04  0.00000000000E+00 0. -1.
         -1   -1    0    0    0  501 -0.00000000000E+00 -0.00000000000E+00 -0.28699300255E+03  0.28699300255E+03  0.00000000000E+00 0.  1.
         24    2    1    2    0    0  0.12296311117E+03  0.37464725940E+03  0.54732210878E+02  0.40565663764E+03  0.77982030401E+02 0.  0.
        254    2    1    2    0    0 -0.12296311117E+03 -0.37464725940E+03  0.20397171747E+04  0.22627787531E+04  0.89679486885E+03 0.  0.
         23    2    4    4    0    0 -0.30157305965E+03 -0.56186940939E+03  0.10167093275E+04  0.12036110511E+04  0.91313538257E+02 0.  0.
         23    2    4    4    0    0  0.17860994849E+03  0.18722214999E+03  0.10230078472E+04  0.10591677019E+04  0.91310011450E+02 0.  0.
          2    1    3    3  502    0  0.59846150475E+02  0.86478042459E+02 -0.23096615410E+01  0.10519195830E+03  0.00000000000E+00 0. -1.
         -1    1    3    3    0  502  0.63116960693E+02  0.28816921694E+03  0.57041872419E+02  0.30046467934E+03  0.00000000000E+00 0.  1.
         11    1    5    5    0    0  0.54448077163E+01 -0.23409797167E+01  0.81585706017E+01  0.10084066212E+02  0.00000000000E+00 0.  1.
        -11    1    5    5    0    0 -0.30701786737E+03 -0.55952842968E+03  0.10085507569E+04  0.11935269849E+04  0.00000000000E+00 0. -1.
          2    1    6    6  503    0 -0.64183028079E+01 -0.18075090119E+01  0.88433899752E+01  0.11075524638E+02  0.00000000000E+00 0.  1.
         -2    1    6    6    0  503  0.18502825129E+03  0.18902965900E+03  0.10141644573E+04  0.10480921773E+04  0.00000000000E+00 0. -1.
<mgrwt>
<rscale>  0 0.16534295E+04</rscale>
<asrwt>0</asrwt>
<pdfrwt beam="1">  1        2 0.36637574E+00 0.16534295E+04</pdfrwt>
<pdfrwt beam="2">  1       -1 0.44152771E-01 0.16534295E+04</pdfrwt>
<totfact> 0.22512262E+01</totfact>
</mgrwt>
</event>
<event>
12    6  0.1494052E-007  0.1675578E+04  0.7818608E-02  0.8775417E-01
         -1   -1    0    0    0  501 -0.00000000000E+00  0.00000000000E+00  0.28855696276E+03  0.28855696276E+03  0.00000000000E+00 0.  1.
          2   -1    0    0  501    0  0.00000000000E+00 -0.00000000000E+00 -0.24324140917E+04  0.24324140917E+04  0.00000000000E+00 0. -1.
         24    2    1    2    0    0  0.92226649897E+02 -0.39587675083E+03 -0.14820485631E+04  0.15389183281E+04  0.81101914031E+02 0.  0.
        254    2    1    2    0    0 -0.92226649897E+02  0.39587675083E+03 -0.66180856587E+03  0.11820527264E+04  0.89108580576E+03 0.  0.
         23    2    4    4    0    0 -0.46563163503E+03  0.26910876694E+03 -0.51705826384E+03  0.75192780415E+03  0.93881981594E+02 0.  0.
         23    2    4    4    0    0  0.37340498513E+03  0.12676798389E+03 -0.14475030203E+03  0.43012492221E+03  0.92484561448E+02 0.  0.
          2    1    3    3  502    0  0.74437075228E+02 -0.17204672764E+03 -0.75909237562E+03  0.78189653368E+03  0.00000000000E+00 0. -1.
         -1    1    3    3    0  502  0.17789574669E+02 -0.22383002319E+03 -0.72295618747E+03  0.75702179444E+03  0.00000000000E+00 0.  1.
         11    1    5    5    0    0 -0.27320514405E+03  0.20784841785E+03 -0.30682885920E+03  0.46041933537E+03  0.00000000000E+00 0. -1.
        -11    1    5    5    0    0 -0.19242649097E+03  0.61260349093E+02 -0.21022940463E+03  0.29150846878E+03  0.00000000000E+00 0.  1.
          1    1    6    6  503    0  0.37880742907E+02 -0.90744484221E+01  0.31840313811E+01  0.39082404650E+02  0.00000000000E+00 0. -1.
         -1    1    6    6    0  503  0.33552424222E+03  0.13584243231E+03 -0.14793433341E+03  0.39104251756E+03  0.00000000000E+00 0.  1.
<mgrwt>
<rscale>  0 0.16755775E+04</rscale>
<asrwt>0</asrwt>
<pdfrwt beam="1">  1        2 0.37421754E+00 0.16755775E+04</pdfrwt>
<pdfrwt beam="2">  1       -1 0.44393380E-01 0.16755775E+04</pdfrwt>
<totfact> 0.20799855E+01</totfact>
</mgrwt>
</event>
<event>
12    6  0.1494052E-007  0.1866442E+04  0.7818608E-02  0.8671743E-01
         -1   -1    0    0    0  501 -0.00000000000E+00  0.00000000000E+00  0.95879083730E+03  0.95879083730E+03  0.00000000000E+00 0.  1.
          2   -1    0    0  501    0  0.00000000000E+00 -0.00000000000E+00 -0.90833354165E+03  0.90833354165E+03  0.00000000000E+00 0. -1.
         24    2    1    2    0    0  0.69887841783E+02 -0.20921676541E+03  0.69938238506E+03  0.73758727989E+03  0.79014616173E+02 0.  0.
        254    2    1    2    0    0 -0.69887841783E+02  0.20921676541E+03 -0.64892508941E+03  0.11295370991E+04  0.89782755645E+03 0.  0.
         23    2    4    4    0    0  0.67880444592E+02 -0.29241608263E+03 -0.29128386345E+02  0.31523337545E+03  0.91698952909E+02 0.  0.
         23    2    4    4    0    0 -0.13776828638E+03  0.50163284804E+03 -0.61979670306E+03  0.81430372361E+03  0.91252321575E+02 0.  0.
          2    1    3    3  502    0  0.64323092377E+02 -0.71300304913E+02  0.30383573745E+03  0.31864925709E+03  0.00000000000E+00 0. -1.
         -1    1    3    3    0  502  0.55647494058E+01 -0.13791646050E+03  0.39554664761E+03  0.41893802280E+03  0.00000000000E+00 0.  1.
         11    1    5    5    0    0  0.42165099303E+02 -0.87658204685E+02 -0.47120454386E+02  0.10808419713E+03  0.00000000000E+00 0. -1.
        -11    1    5    5    0    0  0.25715345290E+02 -0.20475787795E+03  0.17992068041E+02  0.20714917832E+03  0.00000000000E+00 0.  1.
          3    1    6    6  503    0 -0.28379522805E+02  0.24200935552E+02 -0.58144653632E+02  0.69078819780E+02  0.00000000000E+00 0. -1.
         -3    1    6    6    0  503 -0.10938876357E+03  0.47743191249E+03 -0.56165204943E+03  0.74522490383E+03  0.00000000000E+00 0.  1.
<mgrwt>
<rscale>  0 0.18664425E+04</rscale>
<asrwt>0</asrwt>
<pdfrwt beam="1">  1        2 0.13974362E+00 0.18664425E+04</pdfrwt>
<pdfrwt beam="2">  1       -1 0.14750628E+00 0.18664425E+04</pdfrwt>
<totfact> 0.11321069E+01</totfact>
</mgrwt>
</event>
<event>
12    6  0.1494052E-007  0.2014575E+04  0.7818608E-02  0.8599836E-01
         -1   -1    0    0    0  501 -0.00000000000E+00  0.00000000000E+00  0.21666319013E+04  0.21666319013E+04  0.00000000000E+00 0.  1.
          2   -1    0    0  501    0  0.00000000000E+00 -0.00000000000E+00 -0.46829748217E+03  0.46829748217E+03  0.00000000000E+00 0. -1.
         24    2    1    2    0    0 -0.47221290703E+03  0.28651044539E+02 -0.17104234006E+03  0.50893438953E+03  0.77154512782E+02 0.  0.
        254    2    1    2    0    0  0.47221290703E+03 -0.28651044539E+02  0.18693767592E+04  0.21259949939E+04  0.89525378220E+03 0.  0.
         23    2    4    4    0    0  0.70750583613E+03  0.11061491913E+03  0.12670719020E+04  0.14582361826E+04  0.90451041355E+02 0.  0.
         23    2    4    4    0    0 -0.23529292911E+03 -0.13926596367E+03  0.60230485718E+03  0.66775881134E+03  0.91503650268E+02 0.  0.
          2    1    3    3  502    0 -0.34733641525E+03  0.54880599159E+02 -0.12971723579E+03  0.37480798655E+03  0.00000000000E+00 0. -1.
         -1    1    3    3    0  502 -0.12487649178E+03 -0.26229554620E+02 -0.41325104263E+02  0.13412640298E+03  0.00000000000E+00 0.  1.
         11    1    5    5    0    0  0.65663434624E+03  0.80822204928E+02  0.11851542477E+04  0.13573103862E+04  0.00000000000E+00 0. -1.
        -11    1    5    5    0    0  0.50871489891E+02  0.29792714206E+02  0.81917654272E+02  0.10092579643E+03  0.00000000000E+00 0.  1.
          2    1    6    6  503    0 -0.11811155488E+03 -0.28556146177E+02  0.19563122831E+03  0.23029843762E+03  0.00000000000E+00 0. -1.
         -2    1    6    6    0  503 -0.11718137423E+03 -0.11070981750E+03  0.40667362887E+03  0.43746037372E+03  0.00000000000E+00 0.  1.
<mgrwt>
<rscale>  0 0.20145752E+04</rscale>
<asrwt>0</asrwt>
<pdfrwt beam="1">  1        2 0.72045768E-01 0.20145752E+04</pdfrwt>
<pdfrwt beam="2">  1       -1 0.33332798E+00 0.20145752E+04</pdfrwt>
<totfact> 0.14117777E+00</totfact>
</mgrwt>
</event>
<event>
12    6  0.1494052E-007  0.1944250E+04  0.7818608E-02  0.8633139E-01
          2   -1    0    0  501    0  0.00000000000E+00  0.00000000000E+00  0.26269336668E+04  0.26269336668E+04  0.00000000000E+00 0. -1.
         -1   -1    0    0    0  501 -0.00000000000E+00 -0.00000000000E+00 -0.35974513618E+03  0.35974513618E+03  0.00000000000E+00 0.  1.
         24    2    1    2    0    0 -0.21051440475E+03 -0.29822323206E+03  0.18864430996E+04  0.19231048177E+04  0.80069726248E+02 0.  0.
        254    2    1    2    0    0  0.21051440475E+03  0.29822323206E+03  0.38074543101E+03  0.10635739853E+04  0.92356327784E+03 0.  0.
         23    2    4    4    0    0  0.56916838786E+03  0.20371798487E+03  0.21373261422E+03  0.64746782534E+03  0.89884833937E+02 0.  0.
         23    2    4    4    0    0 -0.35865398311E+03  0.94505247190E+02  0.16701281679E+03  0.41610615994E+03  0.87676302519E+02 0.  0.
          2    1    3    3  502    0 -0.18445842502E+03 -0.26501532025E+03  0.17708391575E+04  0.18000359308E+04  0.00000000000E+00 0. -1.
         -1    1    3    3    0  502 -0.26055979726E+02 -0.33207911816E+02  0.11560394216E+03  0.12306888692E+03  0.00000000000E+00 0.  1.
         11    1    5    5    0    0  0.45461043658E+02 -0.19419604296E+01  0.34048276282E+02  0.56831002266E+02  0.00000000000E+00 0.  1.
        -11    1    5    5    0    0  0.52370734420E+03  0.20565994530E+03  0.17968433794E+03  0.59063682307E+03  0.00000000000E+00 0. -1.
          1    1    6    6  503    0 -0.31768702104E+03  0.52040840451E+02  0.14587164405E+03  0.35342867590E+03  0.00000000000E+00 0. -1.
         -1    1    6    6    0  503 -0.40966962070E+02  0.42464406739E+02  0.21141172746E+02  0.62677484044E+02  0.00000000000E+00 0.  1.
<mgrwt>
<rscale>  0 0.19442496E+04</rscale>
<asrwt>0</asrwt>
<pdfrwt beam="1">  1        2 0.40414363E+00 0.19442496E+04</pdfrwt>
<pdfrwt beam="2">  1       -1 0.55345407E-01 0.19442496E+04</pdfrwt>
<totfact> 0.10299922E+01</totfact>
</mgrwt>
</event>
<event>
12    6  0.1494052E-007  0.2279243E+04  0.7818608E-02  0.8486150E-01
          2   -1    0    0  501    0  0.00000000000E+00  0.00000000000E+00  0.14245331488E+04  0.14245331488E+04  0.00000000000E+00 0. -1.
         -1   -1    0    0    0  501 -0.00000000000E+00 -0.00000000000E+00 -0.91169348953E+03  0.91169348953E+03  0.00000000000E+00 0.  1.
         24    2    1    2    0    0 -0.20843036830E+02 -0.85019715298E+03  0.67221948657E+03  0.10869841174E+04  0.79911214508E+02 0.  0.
        254    2    1    2    0    0  0.20843036830E+02  0.85019715298E+03 -0.15937982727E+03  0.12492425210E+04  0.90107453394E+03 0.  0.
         23    2    4    4    0    0  0.51843274664E+02 -0.16968731594E+03 -0.96881594719E+02  0.22284489491E+03  0.93767230275E+02 0.  0.
         23    2    4    4    0    0 -0.31000237833E+02  0.10198844689E+04 -0.62498232551E+02  0.10263976261E+04  0.91982134178E+02 0.  0.
          2    1    3    3  502    0  0.14316813123E+02 -0.45878939379E+03  0.32313929904E+03  0.56134809661E+03  0.00000000000E+00 0. -1.
         -1    1    3    3    0  502 -0.35159849953E+02 -0.39140775920E+03  0.34908018753E+03  0.52563602077E+03  0.00000000000E+00 0.  1.
         11    1    5    5    0    0  0.26618171849E+02  0.13707001383E+01 -0.52788921476E+01  0.27171172109E+02  0.00000000000E+00 0. -1.
        -11    1    5    5    0    0  0.25225102815E+02 -0.17105801608E+03 -0.91602702572E+02  0.19567372280E+03  0.00000000000E+00 0.  1.
          1    1    6    6  503    0  0.17941229885E+01  0.16960065524E+03 -0.44243968510E+02  0.17528585192E+03  0.00000000000E+00 0. -1.
         -1    1    6    6    0  503 -0.32794360822E+02  0.85028381368E+03 -0.18254264041E+02  0.85111177413E+03  0.00000000000E+00 0.  1.
<mgrwt>
<rscale>  0 0.22792434E+04</rscale>
<asrwt>0</asrwt>
<pdfrwt beam="1">  1        2 0.21915895E+00 0.22792434E+04</pdfrwt>
<pdfrwt beam="2">  1       -1 0.14026054E+00 0.22792434E+04</pdfrwt>
<totfact> 0.60472268E+00</totfact>
</mgrwt>
</event>
<event>
12    6  0.1494052E-007  0.1775214E+04  0.7818608E-02  0.8719593E-01
          2   -1    0    0  501    0  0.00000000000E+00  0.00000000000E+00  0.12702962030E+04  0.12702962030E+04  0.00000000000E+00 0. -1.
         -1   -1    0    0    0  501 -0.00000000000E+00 -0.00000000000E+00 -0.62020646950E+03  0.62020646950E+03  0.00000000000E+00 0.  1.
         24    2    1    2    0    0 -0.57767710257E+03 -0.24528042061E+03  0.31631340593E+02  0.63361641333E+03  0.81215133851E+02 0.  0.
        254    2    1    2    0    0  0.57767710257E+03  0.24528042061E+03  0.61845839287E+03  0.12568862591E+04  0.89632525631E+03 0.  0.
         23    2    4    4    0    0  0.46672411861E+02 -0.29827577179E+03  0.27217648947E+03  0.41690097888E+03  0.92626317533E+02 0.  0.
         23    2    4    4    0    0  0.53100469071E+03  0.54355619240E+03  0.34628190339E+03  0.83998528025E+03  0.90800873110E+02 0.  0.
          2    1    3    3  502    0 -0.63705956857E+02 -0.52041433150E+02  0.18740306531E+02  0.84367996256E+02  0.00000000000E+00 0. -1.
         -1    1    3    3    0  502 -0.51397114572E+03 -0.19323898746E+03  0.12891034062E+02  0.54924841708E+03  0.00000000000E+00 0.  1.
         11    1    5    5    0    0  0.40751246737E+02 -0.16611212360E+03  0.94584637644E+02  0.19544860039E+03  0.00000000000E+00 0.  1.
        -11    1    5    5    0    0  0.59211651244E+01 -0.13216364819E+03  0.17759185183E+03  0.22145237848E+03  0.00000000000E+00 0. -1.
          2    1    6    6  503    0  0.50290494352E+03  0.48289494129E+03  0.30206163730E+03  0.75983033585E+03  0.00000000000E+00 0. -1.
         -2    1    6    6    0  503  0.28099747188E+02  0.60661251114E+02  0.44220266093E+02  0.80154944402E+02  0.00000000000E+00 0.  1.
<mgrwt>
<rscale>  0 0.17752137E+04</rscale>
<asrwt>0</asrwt>
<pdfrwt beam="1">  1        2 0.19543018E+00 0.17752137E+04</pdfrwt>
<pdfrwt beam="2">  1       -1 0.95416380E-01 0.17752137E+04</pdfrwt>
<totfact> 0.19676716E+01</totfact>
</mgrwt>
</event>
<event>
12    6  0.1546011E-007  0.1702288E+04  0.7818608E-02  0.8760060E-01
          2   -1    0    0  501    0  0.00000000000E+00  0.00000000000E+00  0.80971172790E+03  0.80971172790E+03  0.00000000000E+00 0. -1.
         -1   -1    0    0    0  501 -0.00000000000E+00 -0.00000000000E+00 -0.89469645379E+03  0.89469645379E+03  0.00000000000E+00 0.  1.
         24    2    1    2    0    0  0.71855825168E+02  0.41521338910E+03  0.41201191716E+03  0.59466659543E+03  0.79429980148E+02 0.  0.
        254    2    1    2    0    0 -0.71855825168E+02 -0.41521338910E+03 -0.49699664304E+03  0.11097415863E+04  0.89830691134E+03 0.  0.
         23    2    4    4    0    0 -0.34879639007E+03 -0.12651972360E+03  0.90930384401E+02  0.39287906277E+03  0.91757620753E+02 0.  0.
         23    2    4    4    0    0  0.27694056490E+03 -0.28869366550E+03 -0.58792702744E+03  0.71686252349E+03  0.90518390338E+02 0.  0.
          4    1    3    3  502    0  0.88188452754E+02  0.34427465680E+03  0.32954180353E+03  0.48466487678E+03  0.00000000000E+00 0. -1.
         -3    1    3    3    0  502 -0.16332627586E+02  0.70938732301E+02  0.82470113629E+02  0.11000171865E+03  0.00000000000E+00 0.  1.
         11    1    5    5    0    0 -0.10440557692E+03 -0.28708277748E+02  0.69727644523E+02  0.12878910712E+03  0.00000000000E+00 0.  1.
        -11    1    5    5    0    0 -0.24439081315E+03 -0.97811445850E+02  0.21202739878E+02  0.26408995564E+03  0.00000000000E+00 0. -1.
          4    1    6    6  503    0  0.26018430886E+03 -0.29218147786E+03 -0.57470393838E+03  0.69523413853E+03  0.00000000000E+00 0.  1.
         -4    1    6    6    0  503  0.16756256040E+02  0.34878123606E+01 -0.13223089067E+02  0.21628384961E+02  0.00000000000E+00 0. -1.
<mgrwt>
<rscale>  0 0.17022881E+04</rscale>
<asrwt>0</asrwt>
<pdfrwt beam="1">  1        2 0.12457104E+00 0.17022881E+04</pdfrwt>
<pdfrwt beam="2">  1       -1 0.13764561E+00 0.17022881E+04</pdfrwt>
<totfact> 0.16130512E+01</totfact>
</mgrwt>
</event>
<event>
12    6  0.1494052E-007  0.1896904E+04  0.7818608E-02  0.8656399E-01
         -1   -1    0    0    0  501 -0.00000000000E+00  0.00000000000E+00  0.12799202243E+04  0.12799202243E+04  0.00000000000E+00 0.  1.
          2   -1    0    0  501    0  0.00000000000E+00 -0.00000000000E+00 -0.70282600225E+03  0.70282600225E+03  0.00000000000E+00 0. -1.
         24    2    1    2    0    0  0.27716520974E+03  0.33537616153E+03  0.83676555372E+03  0.94657684562E+03  0.80829509220E+02 0.  0.
        254    2    1    2    0    0 -0.27716520974E+03 -0.33537616153E+03 -0.25967133163E+03  0.10361693810E+04  0.90383630286E+03 0.  0.
         23    2    4    4    0    0  0.23114167005E+03  0.14281329814E+03 -0.14973140888E+03  0.32365449523E+03  0.92253063464E+02 0.  0.
         23    2    4    4    0    0 -0.50830687980E+03 -0.47818945966E+03 -0.10993992275E+03  0.71251488574E+03  0.92464222293E+02 0.  0.
          4    1    3    3  502    0  0.11724859233E+03  0.85596888630E+02  0.24919597988E+03  0.28839676860E+03  0.00000000000E+00 0. -1.
         -3    1    3    3    0  502  0.15991661741E+03  0.24977927290E+03  0.58756957383E+03  0.65818007702E+03  0.00000000000E+00 0.  1.
         11    1    5    5    0    0  0.15816077584E+03  0.77145362363E+02 -0.48274398926E+02  0.18247371191E+03  0.00000000000E+00 0. -1.
        -11    1    5    5    0    0  0.72980894213E+02  0.65667935772E+02 -0.10145700996E+03  0.14118078332E+03  0.00000000000E+00 0.  1.
          3    1    6    6  503    0 -0.27542422022E+03 -0.25667146331E+03 -0.10584757481E+03  0.39107857299E+03  0.00000000000E+00 0. -1.
         -3    1    6    6    0  503 -0.23288265958E+03 -0.22151799636E+03 -0.40923479398E+01  0.32143631275E+03  0.00000000000E+00 0.  1.
<mgrwt>
<rscale>  0 0.18969040E+04</rscale>
<asrwt>0</asrwt>
<pdfrwt beam="1">  1        2 0.10812708E+00 0.18969040E+04</pdfrwt>
<pdfrwt beam="2">  1       -1 0.19691080E+00 0.18969040E+04</pdfrwt>
<totfact> 0.68922035E+00</totfact>
</mgrwt>
</event>
<event>
12    6  0.1494052E-007  0.1415289E+04  0.7818608E-02  0.8942825E-01
          2   -1    0    0  501    0  0.00000000000E+00  0.00000000000E+00  0.19971783192E+04  0.19971783192E+04  0.00000000000E+00 0. -1.
         -1   -1    0    0    0  501 -0.00000000000E+00 -0.00000000000E+00 -0.25073424839E+03  0.25073424839E+03  0.00000000000E+00 0.  1.
         24    2    1    2    0    0 -0.13951969259E+03  0.37101311212E+03  0.71763347868E+03  0.82372170829E+03  0.80019803768E+02 0.  0.
        254    2    1    2    0    0  0.13951969259E+03 -0.37101311212E+03  0.10288105922E+04  0.14241908593E+04  0.90152753440E+03 0.  0.
         23    2    4    4    0    0 -0.22962791153E+03  0.12861819096E+03  0.81674425976E+02  0.28793346675E+03  0.83446705240E+02 0.  0.
         23    2    4    4    0    0  0.36914760413E+03 -0.49963130308E+03  0.94713616620E+03  0.11362573926E+04  0.90069707712E+02 0.  0.
          2    1    3    3  502    0 -0.61621885669E+02  0.10788224008E+03  0.16337592662E+03  0.20524991575E+03  0.00000000000E+00 0. -1.
         -1    1    3    3    0  502 -0.77897806926E+02  0.26313087204E+03  0.55425755206E+03  0.61847179253E+03  0.00000000000E+00 0.  1.
         11    1    5    5    0    0 -0.68077987571E+02 -0.19067762228E+01  0.14311005916E+02  0.69592047517E+02  0.00000000000E+00 0. -1.
        -11    1    5    5    0    0 -0.16154992396E+03  0.13052496719E+03  0.67363420060E+02  0.21834141923E+03  0.00000000000E+00 0.  1.
          4    1    6    6  503    0  0.17321779341E+03 -0.17031760421E+03  0.40738456771E+03  0.47431495471E+03  0.00000000000E+00 0. -1.
         -4    1    6    6    0  503  0.19592981072E+03 -0.32931369888E+03  0.53975159849E+03  0.66194243788E+03  0.00000000000E+00 0.  1.
<mgrwt>
<rscale>  0 0.14152894E+04</rscale>
<asrwt>0</asrwt>
<pdfrwt beam="1">  1        2 0.30725819E+00 0.14152894E+04</pdfrwt>
<pdfrwt beam="2">  1       -1 0.38574501E-01 0.14152894E+04</pdfrwt>
<totfact> 0.48360704E+01</totfact>
</mgrwt>
</event>
<event>
12    6  0.1494052E-007  0.1662786E+04  0.7818608E-02  0.8782878E-01
          2   -1    0    0  501    0  0.00000000000E+00  0.00000000000E+00  0.18685339502E+04  0.18685339502E+04  0.00000000000E+00 0. -1.
         -1   -1    0    0    0  501 -0.00000000000E+00 -0.00000000000E+00 -0.36992345648E+03  0.36992345648E+03  0.00000000000E+00 0.  1.
         24    2    1    2    0    0  0.40130098237E+03  0.42143529914E+03  0.55387294498E+03  0.80736347234E+03  0.80064645612E+02 0.  0.
        254    2    1    2    0    0 -0.40130098237E+03 -0.42143529914E+03  0.94473754877E+03  0.14310939344E+04  0.90379788841E+03 0.  0.
         23    2    4    4    0    0 -0.46537035757E+03  0.51109419464E+02  0.78662471684E+03  0.92024151446E+03  0.94256338421E+02 0.  0.
         23    2    4    4    0    0  0.64069375201E+02 -0.47254471861E+03  0.15811283192E+03  0.51085241990E+03  0.92558799536E+02 0.  0.
          2    1    3    3  502    0  0.14837475377E+03  0.10818016785E+03  0.19759924635E+03  0.26974706380E+03  0.00000000000E+00 0. -1.
         -1    1    3    3    0  502  0.25292622860E+03  0.31325513129E+03  0.35627369862E+03  0.53761640853E+03  0.00000000000E+00 0.  1.
         11    1    5    5    0    0 -0.19467066885E+03 -0.20644081657E+02  0.36291304160E+03  0.41234539306E+03  0.00000000000E+00 0.  1.
        -11    1    5    5    0    0 -0.27069968872E+03  0.71753501121E+02  0.42371167524E+03  0.50789612140E+03  0.00000000000E+00 0. -1.
          2    1    6    6  503    0 -0.22189150045E+02 -0.15753523605E+03  0.47679386212E+02  0.16608140428E+03  0.00000000000E+00 0. -1.
         -2    1    6    6    0  503  0.86258525246E+02 -0.31500948256E+03  0.11043344571E+03  0.34477101562E+03  0.00000000000E+00 0.  1.
<mgrwt>
<rscale>  0 0.16627863E+04</rscale>
<asrwt>0</asrwt>
<pdfrwt beam="1">  1        2 0.28746676E+00 0.16627863E+04</pdfrwt>
<pdfrwt beam="2">  1       -1 0.56911302E-01 0.16627863E+04</pdfrwt>
<totfact> 0.26859364E+01</totfact>
</mgrwt>
</event>
<event>
12    6  0.1494052E-007  0.1398835E+04  0.7818608E-02  0.8954662E-01
         -1   -1    0    0    0  501 -0.00000000000E+00  0.00000000000E+00  0.68262462925E+03  0.68262462925E+03  0.00000000000E+00 0.  1.
          2   -1    0    0  501    0  0.00000000000E+00 -0.00000000000E+00 -0.71662342434E+03  0.71662342434E+03  0.00000000000E+00 0. -1.
         24    2    1    2    0    0  0.74727043361E+02  0.70405216491E+01 -0.40716164101E+03  0.42298537356E+03  0.86615959161E+02 0.  0.
        254    2    1    2    0    0 -0.74727043361E+02 -0.70405216491E+01  0.37316284592E+03  0.97626268004E+03  0.89900200829E+03 0.  0.
         23    2    4    4    0    0 -0.11670431947E+03 -0.47095258362E+02 -0.27697951476E+03  0.31727453566E+03  0.90042311353E+02 0.  0.
         23    2    4    4    0    0  0.41977276109E+02  0.40054736713E+02  0.65014236068E+03  0.65898814438E+03  0.90630081296E+02 0.  0.
          4    1    3    3  502    0  0.62283206071E+02  0.33329749822E+02 -0.36494723995E+03  0.37172107545E+03  0.00000000000E+00 0. -1.
         -3    1    3    3    0  502  0.12443837290E+02 -0.26289228173E+02 -0.42214401054E+02  0.51264298111E+02  0.00000000000E+00 0.  1.
         11    1    5    5    0    0  0.32009367722E+01 -0.14899832300E+02 -0.99621748167E+02  0.10078067129E+03  0.00000000000E+00 0.  1.
        -11    1    5    5    0    0 -0.11990525624E+03 -0.32195426062E+02 -0.17735776660E+03  0.21649386436E+03  0.00000000000E+00 0. -1.
          3    1    6    6  503    0  0.55729488041E+02 -0.70967765284E+01  0.41379551623E+03  0.41759174960E+03  0.00000000000E+00 0. -1.
         -3    1    6    6    0  503 -0.13752211933E+02  0.47151513241E+02  0.23634684445E+03  0.24139639478E+03  0.00000000000E+00 0.  1.
<mgrwt>
<rscale>  0 0.13988349E+04</rscale>
<asrwt>0</asrwt>
<pdfrwt beam="1">  1        2 0.11024976E+00 0.13988349E+04</pdfrwt>
<pdfrwt beam="2">  1       -1 0.10501917E+00 0.13988349E+04</pdfrwt>
<totfact> 0.37638592E+01</totfact>
</mgrwt>
</event>
<event>
12    6  0.1494052E-007  0.3032188E+04  0.7818608E-02  0.8234599E-01
          2   -1    0    0  501    0  0.00000000000E+00  0.00000000000E+00  0.17427801825E+04  0.17427801825E+04  0.00000000000E+00 0. -1.
         -1   -1    0    0    0  501 -0.00000000000E+00 -0.00000000000E+00 -0.13188934558E+04  0.13188934558E+04  0.00000000000E+00 0.  1.
         24    2    1    2    0    0  0.69870611116E+03 -0.95571906673E+03  0.90830111391E+03  0.14942327862E+04  0.78304160899E+02 0.  0.
        254    2    1    2    0    0 -0.69870611116E+03  0.95571906673E+03 -0.48441438716E+03  0.15674408520E+04  0.90588319440E+03 0.  0.
         23    2    4    4    0    0 -0.75189274964E+03  0.33740453714E+03 -0.43966599004E+03  0.93852540829E+03  0.91319387667E+02 0.  0.
         23    2    4    4    0    0  0.53186638481E+02  0.61831452958E+03 -0.44748397123E+02  0.62891544375E+03  0.91599892687E+02 0.  0.
          2    1    3    3  502    0  0.61726945993E+02 -0.12709645464E+03  0.11111184821E+03  0.17974862296E+03  0.00000000000E+00 0. -1.
         -1    1    3    3    0  502  0.63697916517E+03 -0.82862261209E+03  0.79718926571E+03  0.13144841633E+04  0.00000000000E+00 0.  1.
         11    1    5    5    0    0 -0.63905935927E+03  0.29780531627E+03 -0.40895694785E+03  0.81506481722E+03  0.00000000000E+00 0.  1.
        -11    1    5    5    0    0 -0.11283339037E+03  0.39599220876E+02 -0.30709042188E+02  0.12346059108E+03  0.00000000000E+00 0. -1.
          2    1    6    6  503    0  0.15521083305E+02  0.52175661083E+03 -0.54442364084E+02  0.52481886016E+03  0.00000000000E+00 0.  1.
         -2    1    6    6    0  503  0.37665555176E+02  0.96557918757E+02  0.96939669610E+01  0.10409658360E+03  0.00000000000E+00 0. -1.
<mgrwt>
<rscale>  0 0.30321882E+04</rscale>
<asrwt>0</asrwt>
<pdfrwt beam="1">  1        2 0.26812003E+00 0.30321882E+04</pdfrwt>
<pdfrwt beam="2">  1       -1 0.20290668E+00 0.30321882E+04</pdfrwt>
<totfact> 0.12965694E+00</totfact>
</mgrwt>
</event>
<event>
12    6  0.1805510E-007  0.1574405E+04  0.7818608E-02  0.8836428E-01
         -1   -1    0    0    0  501 -0.00000000000E+00  0.00000000000E+00  0.32368831043E+03  0.32368831043E+03  0.00000000000E+00 0.  1.
          2   -1    0    0  501    0  0.00000000000E+00 -0.00000000000E+00 -0.19144577176E+04  0.19144577176E+04  0.00000000000E+00 0. -1.
         24    2    1    2    0    0  0.36631725531E+02 -0.25372036534E+03 -0.11887109427E+04  0.12186774289E+04  0.80156491922E+02 0.  0.
        254    2    1    2    0    0 -0.36631725531E+02  0.25372036534E+03 -0.40205846449E+03  0.10194685992E+04  0.90108229855E+03 0.  0.
         23    2    4    4    0    0 -0.38086654476E+03 -0.62966804466E+02 -0.18001502628E+01  0.39676563245E+03  0.91627414953E+02 0.  0.
         23    2    4    4    0    0  0.34423481923E+03  0.31668716981E+03 -0.40025831422E+03  0.62270296674E+03  0.93615663180E+02 0.  0.
          4    1    3    3  502    0  0.23700958601E+02 -0.25431093041E+03 -0.11195124876E+04  0.11482787095E+04  0.00000000000E+00 0. -1.
         -3    1    3    3    0  502  0.12930766930E+02  0.59056506768E+00 -0.69198455062E+02  0.70398719331E+02  0.00000000000E+00 0.  1.
         11    1    5    5    0    0 -0.37058498135E+03 -0.57332159297E+02  0.16132452506E+02  0.37534046000E+03  0.00000000000E+00 0.  1.
        -11    1    5    5    0    0 -0.10281563411E+02 -0.56346451696E+01 -0.17932602769E+02  0.21425172448E+02  0.00000000000E+00 0. -1.
          1    1    6    6  503    0  0.41907662424E+02  0.60251361087E+02 -0.27002655824E+02  0.78202443084E+02  0.00000000000E+00 0. -1.
         -1    1    6    6    0  503  0.30232715680E+03  0.25643580872E+03 -0.37325565840E+03  0.54450052366E+03  0.00000000000E+00 0.  1.
<mgrwt>
<rscale>  0 0.15744048E+04</rscale>
<asrwt>0</asrwt>
<pdfrwt beam="1">  1        2 0.29453195E+00 0.15744048E+04</pdfrwt>
<pdfrwt beam="2">  1       -1 0.49798203E-01 0.15744048E+04</pdfrwt>
<totfact> 0.33003819E+01</totfact>
</mgrwt>
</event>
<event>
12    6  0.1494052E-007  0.1485867E+04  0.7818608E-02  0.8893906E-01
          2   -1    0    0  501    0  0.00000000000E+00  0.00000000000E+00  0.12579574678E+04  0.12579574678E+04  0.00000000000E+00 0. -1.
         -1   -1    0    0    0  501 -0.00000000000E+00 -0.00000000000E+00 -0.43876696198E+03  0.43876696198E+03  0.00000000000E+00 0.  1.
         24    2    1    2    0    0 -0.19111163967E+03  0.36547103377E+03  0.11693581476E+01  0.42030043364E+03  0.80983651298E+02 0.  0.
        254    2    1    2    0    0  0.19111163967E+03 -0.36547103377E+03  0.81802114770E+03  0.12764239962E+04  0.88882331461E+03 0.  0.
         23    2    4    4    0    0  0.37975915051E+03 -0.56317445348E+03  0.50761030573E+03  0.85307276263E+03  0.93179602962E+02 0.  0.
         23    2    4    4    0    0 -0.18864751084E+03  0.19770341971E+03  0.31041084197E+03  0.42335123355E+03  0.90536460175E+02 0.  0.
          4    1    3    3  502    0  0.28732677963E+01 -0.59767710790E+00 -0.51889164232E+01  0.59613538229E+01  0.00000000000E+00 0. -1.
         -3    1    3    3    0  502 -0.19398490747E+03  0.36606871087E+03  0.63582745708E+01  0.41433907981E+03  0.00000000000E+00 0.  1.
         11    1    5    5    0    0  0.23025380798E+02 -0.87985887100E+02  0.78396144024E+02  0.12007347704E+03  0.00000000000E+00 0. -1.
        -11    1    5    5    0    0  0.35673376971E+03 -0.47518856638E+03  0.42921416171E+03  0.73299928560E+03  0.00000000000E+00 0.  1.
          4    1    6    6  503    0 -0.35378728577E+01  0.72868059377E+01  0.52630531173E+02  0.53250229076E+02  0.00000000000E+00 0. -1.
         -4    1    6    6    0  503 -0.18510963799E+03  0.19041661378E+03  0.25778031080E+03  0.37010100447E+03  0.00000000000E+00 0.  1.
<mgrwt>
<rscale>  0 0.14858670E+04</rscale>
<asrwt>0</asrwt>
<pdfrwt beam="1">  1        2 0.19353192E+00 0.14858670E+04</pdfrwt>
<pdfrwt beam="2">  1       -1 0.67502610E-01 0.14858670E+04</pdfrwt>
<totfact> 0.42885033E+01</totfact>
</mgrwt>
</event>
<event>
12    6  0.1494052E-007  0.2167916E+04  0.7818608E-02  0.8531902E-01
         -1   -1    0    0    0  501 -0.00000000000E+00  0.00000000000E+00  0.47969668451E+03  0.47969668451E+03  0.00000000000E+00 0.  1.
          2   -1    0    0  501    0  0.00000000000E+00 -0.00000000000E+00 -0.24493910639E+04  0.24493910639E+04  0.00000000000E+00 0. -1.
         24    2    1    2    0    0 -0.20928955563E+03 -0.18594449197E+03 -0.19603761773E+04  0.19819472385E+04  0.81624920108E+02 0.  0.
        254    2    1    2    0    0  0.20928955563E+03  0.18594449197E+03 -0.93182020866E+01  0.94714050987E+03  0.90477115580E+03 0.  0.
         23    2    4    4    0    0 -0.29007519237E+03  0.21562356354E+03  0.16757310052E+03  0.40897024671E+03  0.92405520884E+02 0.  0.
         23    2    4    4    0    0  0.49936474800E+03 -0.29679071573E+02 -0.17689130261E+03  0.53817026317E+03  0.89948320646E+02 0.  0.
          4    1    3    3  502    0 -0.18013493683E+03 -0.16953293147E+03 -0.18541217611E+04  0.18705500569E+04  0.00000000000E+00 0. -1.
         -1    1    3    3    0  502 -0.29154618804E+02 -0.16411560495E+02 -0.10625441615E+03  0.11139718159E+03  0.00000000000E+00 0.  1.
         11    1    5    5    0    0 -0.12385480266E+03  0.11465922037E+03  0.31711934468E+02  0.17173350211E+03  0.00000000000E+00 0. -1.
        -11    1    5    5    0    0 -0.16622038970E+03  0.10096434317E+03  0.13586116605E+03  0.23723674460E+03  0.00000000000E+00 0.  1.
          2    1    6    6  503    0  0.31819808772E+03 -0.26993247133E+02 -0.67098364272E+02  0.32631403419E+03  0.00000000000E+00 0. -1.
         -2    1    6    6    0  503  0.18116666028E+03 -0.26858244403E+01 -0.10979293834E+03  0.21185622898E+03  0.00000000000E+00 0.  1.
<mgrwt>
<rscale>  0 0.21679158E+04</rscale>
<asrwt>0</asrwt>
<pdfrwt beam="1">  1        2 0.37682941E+00 0.21679158E+04</pdfrwt>
<pdfrwt beam="2">  1       -1 0.73799487E-01 0.21679158E+04</pdfrwt>
<totfact> 0.71827989E+00</totfact>
</mgrwt>
</event>
<event>
12    6  0.1494052E-007  0.2022533E+04  0.7818608E-02  0.8596158E-01
         -1   -1    0    0    0  501 -0.00000000000E+00  0.00000000000E+00  0.85801158430E+03  0.85801158430E+03  0.00000000000E+00 0.  1.
          2   -1    0    0  501    0  0.00000000000E+00 -0.00000000000E+00 -0.11918951630E+04  0.11918951630E+04  0.00000000000E+00 0. -1.
         24    2    1    2    0    0  0.26375038210E+02 -0.11248829322E+03 -0.93616357415E+03  0.94661335250E+03  0.79532023899E+02 0.  0.
        254    2    1    2    0    0 -0.26375038210E+02  0.11248829322E+03  0.60227999546E+03  0.11032933948E+04  0.91715094902E+03 0.  0.
         23    2    4    4    0    0 -0.33264658909E+03  0.22539345166E+03  0.63730947020E+03  0.75931740531E+03  0.94570608036E+02 0.  0.
         23    2    4    4    0    0  0.30627155088E+03 -0.11290515845E+03 -0.35029474742E+02  0.34397598948E+03  0.10267706442E+03 0.  0.
          4    1    3    3  502    0 -0.25448822746E+02 -0.61317254831E+02 -0.50442805805E+03  0.50877805974E+03  0.00000000000E+00 0. -1.
         -3    1    3    3    0  502  0.51823860956E+02 -0.51171038386E+02 -0.43173551609E+03  0.43783529277E+03  0.00000000000E+00 0.  1.
         11    1    5    5    0    0 -0.19177691788E+03  0.17245100505E+03  0.34734614320E+03  0.43262810654E+03  0.00000000000E+00 0. -1.
        -11    1    5    5    0    0 -0.14086967121E+03  0.52942446614E+02  0.28996332701E+03  0.32668929877E+03  0.00000000000E+00 0.  1.
          4    1    6    6  503    0  0.83702488835E+01 -0.88248685840E+01  0.20239276861E+02  0.23612871485E+02  0.00000000000E+00 0. -1.
         -4    1    6    6    0  503  0.29790130200E+03 -0.10408028986E+03 -0.55268751603E+02  0.32036311800E+03  0.00000000000E+00 0.  1.
<mgrwt>
<rscale>  0 0.20225329E+04</rscale>
<asrwt>0</asrwt>
<pdfrwt beam="1">  1        2 0.18336849E+00 0.20225329E+04</pdfrwt>
<pdfrwt beam="2">  1       -1 0.13200178E+00 0.20225329E+04</pdfrwt>
<totfact> 0.98811101E+00</totfact>
</mgrwt>
</event>
<event>
12    6  0.1494052E-007  0.2115117E+04  0.7818608E-02  0.8554613E-01
         -1   -1    0    0    0  501 -0.00000000000E+00  0.00000000000E+00  0.15912338691E+04  0.15912338691E+04  0.00000000000E+00 0.  1.
          2   -1    0    0  501    0  0.00000000000E+00 -0.00000000000E+00 -0.70286978276E+03  0.70286978276E+03  0.00000000000E+00 0. -1.
         24    2    1    2    0    0 -0.91334563313E+02 -0.64408622906E+03 -0.25084194417E+03  0.70187274064E+03  0.80713011220E+02 0.  0.
        254    2    1    2    0    0  0.91334563313E+02  0.64408622906E+03  0.11392060305E+04  0.15922309112E+04  0.90234130005E+03 0.  0.
         23    2    4    4    0    0  0.21234554956E+03 -0.12705850490E+03  0.55001155295E+03  0.61009875449E+03  0.92050452283E+02 0.  0.
         23    2    4    4    0    0 -0.12101098625E+03  0.77114473396E+03  0.58919447759E+03  0.98213215675E+03  0.90142006794E+02 0.  0.
          4    1    3    3  502    0 -0.44836168955E+02 -0.22135826966E+03 -0.12613123352E+03  0.25868678680E+03  0.00000000000E+00 0. -1.
         -3    1    3    3    0  502 -0.46498394358E+02 -0.42272795940E+03 -0.12471071066E+03  0.44318595384E+03  0.00000000000E+00 0.  1.
         11    1    5    5    0    0  0.19637337449E+03 -0.13606053898E+03  0.53661044092E+03  0.58738891527E+03  0.00000000000E+00 0.  1.
        -11    1    5    5    0    0  0.15972175067E+02  0.90020340714E+01  0.13401112028E+02  0.22709839219E+02  0.00000000000E+00 0. -1.
          2    1    6    6  503    0 -0.90137314929E+02  0.29949517841E+03  0.24892544653E+03  0.39973237968E+03  0.00000000000E+00 0. -1.
         -2    1    6    6    0  503 -0.30873671319E+02  0.47164955556E+03  0.34026903106E+03  0.58239977708E+03  0.00000000000E+00 0.  1.
<mgrwt>
<rscale>  0 0.21151172E+04</rscale>
<asrwt>0</asrwt>
<pdfrwt beam="1">  1        2 0.10813381E+00 0.21151172E+04</pdfrwt>
<pdfrwt beam="2">  1       -1 0.24480521E+00 0.21151172E+04</pdfrwt>
<totfact> 0.32283632E+00</totfact>
</mgrwt>
</event>
<event>
12    6  0.1494052E-007  0.1273526E+04  0.7818608E-02  0.9050827E-01
          2   -1    0    0  501    0  0.00000000000E+00  0.00000000000E+00  0.10927352824E+04  0.10927352824E+04  0.00000000000E+00 0. -1.
         -1   -1    0    0    0  501 -0.00000000000E+00 -0.00000000000E+00 -0.37105714117E+03  0.37105714117E+03  0.00000000000E+00 0.  1.
         24    2    1    2    0    0  0.31957254989E+03 -0.22834947339E+03  0.10108513898E+03  0.41345758223E+03  0.80367097361E+02 0.  0.
        254    2    1    2    0    0 -0.31957254989E+03  0.22834947339E+03  0.62059300225E+03  0.10503348413E+04  0.75086450699E+03 0.  0.
         23    2    4    4    0    0 -0.39391263737E+03  0.26424509364E+03  0.73742018656E+03  0.88144483024E+03  0.90353870027E+02 0.  0.
         23    2    4    4    0    0  0.74340087472E+02 -0.35895620255E+02 -0.11682718431E+03  0.16889001110E+03  0.89779177406E+02 0.  0.
          2    1    3    3  502    0  0.42419439067E+02 -0.26448131376E+01  0.20061917199E+01  0.42549132218E+02  0.00000000000E+00 0. -1.
         -1    1    3    3    0  502  0.27715311083E+03 -0.22570466025E+03  0.99078947256E+02  0.37090845001E+03  0.00000000000E+00 0.  1.
         11    1    5    5    0    0 -0.18218407923E+03  0.14118208208E+03  0.28062436497E+03  0.36314384648E+03  0.00000000000E+00 0.  1.
        -11    1    5    5    0    0 -0.21172855813E+03  0.12306301157E+03  0.45679582159E+03  0.51830098376E+03  0.00000000000E+00 0. -1.
          1    1    6    6  503    0  0.39784360633E+01  0.23718854928E+02 -0.48432176298E+02  0.54074834568E+02  0.00000000000E+00 0. -1.
         -1    1    6    6    0  503  0.70361651409E+02 -0.59614475184E+02 -0.68395008011E+02  0.11481517653E+03  0.00000000000E+00 0.  1.
<mgrwt>
<rscale>  0 0.12735262E+04</rscale>
<asrwt>0</asrwt>
<pdfrwt beam="1">  1        2 0.16811312E+00 0.12735262E+04</pdfrwt>
<pdfrwt beam="2">  1       -1 0.57085714E-01 0.12735262E+04</pdfrwt>
<totfact> 0.76585376E+01</totfact>
</mgrwt>
</event>
<event>
12    6  0.1494052E-007  0.2304455E+04  0.7818608E-02  0.8476167E-01
          2   -1    0    0  501    0  0.00000000000E+00  0.00000000000E+00  0.14205389482E+04  0.14205389482E+04  0.00000000000E+00 0. -1.
         -1   -1    0    0    0  501 -0.00000000000E+00 -0.00000000000E+00 -0.93459465654E+03  0.93459465654E+03  0.00000000000E+00 0.  1.
         24    2    1    2    0    0  0.36498079920E+03  0.50129704193E+03  0.97233308610E+03  0.11557958968E+04  0.76959837875E+02 0.  0.
        254    2    1    2    0    0 -0.36498079920E+03 -0.50129704193E+03 -0.48638879439E+03  0.11993377080E+04  0.90406148604E+03 0.  0.
         23    2    4    4    0    0 -0.25828649017E+03 -0.75653472481E+03 -0.37342536839E+03  0.88727587973E+03  0.93569653989E+02 0.  0.
         23    2    4    4    0    0 -0.10669430903E+03  0.25523768288E+03 -0.11296342600E+03  0.31206182829E+03  0.89954981626E+02 0.  0.
          2    1    3    3  502    0  0.31095757717E+03  0.37449624466E+03  0.74400201959E+03  0.88909001638E+03  0.00000000000E+00 0. -1.
         -3    1    3    3    0  502  0.54023222030E+02  0.12680079726E+03  0.22833106650E+03  0.26670588039E+03  0.00000000000E+00 0.  1.
         11    1    5    5    0    0 -0.75580111063E+02 -0.23236519222E+03 -0.16252456797E+03  0.29346238419E+03  0.00000000000E+00 0.  1.
        -11    1    5    5    0    0 -0.18270637910E+03 -0.52416953259E+03 -0.21090080042E+03  0.59381349554E+03  0.00000000000E+00 0. -1.
          2    1    6    6  503    0  0.45860499772E+00  0.18437784980E+02 -0.36888222643E+02  0.41242007751E+02  0.00000000000E+00 0.  1.
         -2    1    6    6    0  503 -0.10715291403E+03  0.23679989790E+03 -0.76075203356E+02  0.27081982054E+03  0.00000000000E+00 0. -1.
<mgrwt>
<rscale>  0 0.23044549E+04</rscale>
<asrwt>0</asrwt>
<pdfrwt beam="1">  1        2 0.21854445E+00 0.23044549E+04</pdfrwt>
<pdfrwt beam="2">  1       -1 0.14378379E+00 0.23044549E+04</pdfrwt>
<totfact> 0.56825459E+00</totfact>
</mgrwt>
</event>
<event>
12    6  0.1494052E-007  0.2296000E+04  0.7818608E-02  0.8479500E-01
          2   -1    0    0  501    0  0.00000000000E+00  0.00000000000E+00  0.20887065226E+04  0.20887065226E+04  0.00000000000E+00 0. -1.
         -1   -1    0    0    0  501 -0.00000000000E+00 -0.00000000000E+00 -0.63096658247E+03  0.63096658247E+03  0.00000000000E+00 0.  1.
         24    2    1    2    0    0 -0.57415300019E+03 -0.53576962230E+03  0.12970204976E+04  0.15182152231E+04  0.77553445003E+02 0.  0.
        254    2    1    2    0    0  0.57415300019E+03  0.53576962230E+03  0.16071944258E+03  0.12014578820E+04  0.89496902018E+03 0.  0.
         23    2    4    4    0    0  0.28321536287E+03 -0.16792538657E+03 -0.15178614257E+03  0.37401369736E+03  0.91854970031E+02 0.  0.
         23    2    4    4    0    0  0.29093763732E+03  0.70369500887E+03  0.31250558515E+03  0.82744418459E+03  0.84692169317E+02 0.  0.
          4    1    3    3  502    0 -0.56157121384E+03 -0.50583274130E+03  0.12564081820E+04  0.14662163927E+04  0.00000000000E+00 0. -1.
         -3    1    3    3    0  502 -0.12581786344E+02 -0.29936881001E+02  0.40612315559E+02  0.51998830436E+02  0.00000000000E+00 0.  1.
         11    1    5    5    0    0  0.46284506388E+02 -0.47136303082E+02  0.33177369454E+01  0.66144493182E+02  0.00000000000E+00 0. -1.
        -11    1    5    5    0    0  0.23693085648E+03 -0.12078908349E+03 -0.15510387952E+03  0.30786920418E+03  0.00000000000E+00 0.  1.
          4    1    6    6  503    0  0.10413549359E+03  0.21107399325E+03  0.58321686607E+02  0.24248268141E+03  0.00000000000E+00 0. -1.
         -4    1    6    6    0  503  0.18680214374E+03  0.49262101562E+03  0.25418389854E+03  0.58496150319E+03  0.00000000000E+00 0.  1.
<mgrwt>
<rscale>  0 0.22960000E+04</rscale>
<asrwt>0</asrwt>
<pdfrwt beam="1">  1        2 0.32133946E+00 0.22960000E+04</pdfrwt>
<pdfrwt beam="2">  1       -1 0.97071783E-01 0.22960000E+04</pdfrwt>
<totfact> 0.62747661E+00</totfact>
</mgrwt>
</event>
<event>
12    6  0.1494052E-007  0.3031075E+04  0.7818608E-02  0.8234912E-01
         -1   -1    0    0    0  501 -0.00000000000E+00  0.00000000000E+00  0.23486607510E+04  0.23486607510E+04  0.00000000000E+00 0.  1.
          2   -1    0    0  501    0  0.00000000000E+00 -0.00000000000E+00 -0.97794213715E+03  0.97794213715E+03  0.00000000000E+00 0. -1.
         24    2    1    2    0    0  0.10875256935E+04  0.42342308253E+03 -0.18702259671E+03  0.11845118998E+04  0.78049652982E+02 0.  0.
        254    2    1    2    0    0 -0.10875256935E+04 -0.42342308253E+03  0.15577412105E+04  0.21420909883E+04  0.89442544810E+03 0.  0.
         23    2    4    4    0    0 -0.11665934956E+04 -0.33556427094E+03  0.15745324550E+04  0.19901233185E+04  0.88851601469E+02 0.  0.
         23    2    4    4    0    0  0.79067802122E+02 -0.87858811587E+02 -0.16791244500E+02  0.15196766973E+03  0.94028392766E+02 0.  0.
          4    1    3    3  502    0  0.23770200152E+02  0.22354535728E+02 -0.85943242755E+01  0.33743297002E+02  0.00000000000E+00 0. -1.
         -3    1    3    3    0  502  0.10637554934E+04  0.40106854680E+03 -0.17842827244E+03  0.11507686028E+04  0.00000000000E+00 0.  1.
         11    1    5    5    0    0 -0.10712365633E+04 -0.28323034675E+03  0.14465251842E+04  0.18221422317E+04  0.00000000000E+00 0. -1.
        -11    1    5    5    0    0 -0.95356932332E+02 -0.52333924194E+02  0.12800727081E+03  0.16798108687E+03  0.00000000000E+00 0.  1.
          1    1    6    6  503    0  0.98937201325E+02 -0.57177401923E+02 -0.16168944307E+02  0.11540909781E+03  0.00000000000E+00 0. -1.
         -1    1    6    6    0  503 -0.19869399203E+02 -0.30681409664E+02 -0.62230019249E+00  0.36558571925E+02  0.00000000000E+00 0.  1.
<mgrwt>
<rscale>  0 0.30310753E+04</rscale>
<asrwt>0</asrwt>
<pdfrwt beam="1">  1        2 0.15045264E+00 0.30310753E+04</pdfrwt>
<pdfrwt beam="2">  1       -1 0.36133242E+00 0.30310753E+04</pdfrwt>
<totfact> 0.33068950E-01</totfact>
</mgrwt>
</event>
<event>
12    6  0.1494052E-007  0.2046200E+04  0.7818608E-02  0.8585320E-01
          2   -1    0    0  501    0  0.00000000000E+00  0.00000000000E+00  0.18478007820E+04  0.18478007820E+04  0.00000000000E+00 0. -1.
         -1   -1    0    0    0  501 -0.00000000000E+00 -0.00000000000E+00 -0.56647528565E+03  0.56647528565E+03  0.00000000000E+00 0.  1.
         24    2    1    2    0    0 -0.25408367515E+03  0.73044119529E+03  0.84916089420E+03  0.11514676378E+04  0.81857454807E+02 0.  0.
        254    2    1    2    0    0  0.25408367515E+03 -0.73044119529E+03  0.43216460219E+03  0.12628084299E+04  0.89989779055E+03 0.  0.
         23    2    4    4    0    0  0.51745235647E+02 -0.60645572698E+03 -0.14546667055E+03  0.63169777945E+03  0.86112798822E+02 0.  0.
         23    2    4    4    0    0  0.20233843951E+03 -0.12398546832E+03  0.57763127274E+03  0.63111065043E+03  0.91266233527E+02 0.  0.
          4    1    3    3  502    0 -0.71665037678E+02  0.15430065940E+03  0.23200408988E+03  0.28769857288E+03  0.00000000000E+00 0. -1.
         -3    1    3    3    0  502 -0.18241863748E+03  0.57614053589E+03  0.61715680432E+03  0.86376906492E+03  0.00000000000E+00 0.  1.
         11    1    5    5    0    0  0.55238452432E+02 -0.18400811839E+03 -0.39277013442E+02  0.19609425807E+03  0.00000000000E+00 0.  1.
        -11    1    5    5    0    0 -0.34932167851E+01 -0.42244760858E+03 -0.10618965711E+03  0.43560352138E+03  0.00000000000E+00 0. -1.
          2    1    6    6  503    0  0.18149137934E+03 -0.81654828411E+02  0.51901167074E+03  0.55585946618E+03  0.00000000000E+00 0. -1.
         -2    1    6    6    0  503  0.20847060172E+02 -0.42330639906E+02  0.58619602006E+02  0.75251184256E+02  0.00000000000E+00 0.  1.
<mgrwt>
<rscale>  0 0.20461999E+04</rscale>
<asrwt>0</asrwt>
<pdfrwt beam="1">  1        2 0.28427704E+00 0.20461999E+04</pdfrwt>
<pdfrwt beam="2">  1       -1 0.87150045E-01 0.20461999E+04</pdfrwt>
<totfact> 0.11091453E+01</totfact>
</mgrwt>
</event>
<event>
12    6  0.1494052E-007  0.2013331E+04  0.7818608E-02  0.8600413E-01
         -3   -1    0    0    0  501 -0.00000000000E+00  0.00000000000E+00  0.47977368662E+03  0.47977368662E+03  0.00000000000E+00 0.  1.
          2   -1    0    0  501    0  0.00000000000E+00 -0.00000000000E+00 -0.21121955529E+04  0.21121955529E+04  0.00000000000E+00 0. -1.
         24    2    1    2    0    0 -0.75353298566E+03  0.27103309952E+03 -0.61814603106E+03  0.10146689257E+04  0.78597783021E+02 0.  0.
        254    2    1    2    0    0  0.75353298566E+03 -0.27103309952E+03 -0.10142758352E+04  0.15773003138E+04  0.90435054521E+03 0.  0.
         23    2    4    4    0    0  0.56953207944E+03  0.28788879121E+02 -0.10639864001E+04  0.12106512319E+04  0.91726531218E+02 0.  0.
         23    2    4    4    0    0  0.18400090622E+03 -0.29982197864E+03  0.49710564950E+02  0.36664908193E+03  0.90613777331E+02 0.  0.
          2    1    3    3  502    0 -0.22317521904E+03  0.11623138058E+03 -0.17658358831E+03  0.30740636930E+03  0.00000000000E+00 0. -1.
         -1    1    3    3    0  502 -0.53035776662E+03  0.15480171895E+03 -0.44156244275E+03  0.70726255638E+03  0.00000000000E+00 0.  1.
         11    1    5    5    0    0  0.19717779021E+03  0.32531036135E+02 -0.45317365906E+03  0.49528144981E+03  0.00000000000E+00 0. -1.
        -11    1    5    5    0    0  0.37235428923E+03 -0.37421570140E+01 -0.61081274109E+03  0.71536978209E+03  0.00000000000E+00 0.  1.
          3    1    6    6  503    0  0.70611204995E+02 -0.53203212076E+02  0.34113964352E+02  0.94764374159E+02  0.00000000000E+00 0. -1.
         -3    1    6    6    0  503  0.11338970122E+03 -0.24661876657E+03  0.15596600599E+02  0.27188470777E+03  0.00000000000E+00 0.  1.
<mgrwt>
<rscale>  0 0.20133314E+04</rscale>
<asrwt>0</asrwt>
<pdfrwt beam="1">  1        2 0.32495316E+00 0.20133314E+04</pdfrwt>
<pdfrwt beam="2">  1       -3 0.73811336E-01 0.20133314E+04</pdfrwt>
<totfact> 0.59724457E+00</totfact>
</mgrwt>
</event>
<event>
12    6  0.1494052E-007  0.1310748E+04  0.7818608E-02  0.9021085E-01
         -3   -1    0    0    0  501 -0.00000000000E+00  0.00000000000E+00  0.56234010573E+03  0.56234010573E+03  0.00000000000E+00 0.  1.
          4   -1    0    0  501    0  0.00000000000E+00 -0.00000000000E+00 -0.76379901555E+03  0.76379901555E+03  0.00000000000E+00 0. -1.
         24    2    1    2    0    0 -0.54325739686E+02  0.18744256055E+03 -0.33020899171E+03  0.39257033644E+03  0.83591215753E+02 0.  0.
        254    2    1    2    0    0  0.54325739686E+02 -0.18744256055E+03  0.12875008189E+03  0.93356878483E+03  0.90381861727E+03 0.  0.
         23    2    4    4    0    0  0.83259173611E+02  0.34516599142E+03 -0.35483932928E+02  0.36819955117E+03  0.90775262951E+02 0.  0.
         23    2    4    4    0    0 -0.28933433925E+02 -0.53260855197E+03  0.16423401481E+03  0.56536923366E+03  0.90335737771E+02 0.  0.
          4    1    3    3  502    0 -0.62443101226E+02  0.18951215560E+03 -0.32797067655E+03  0.38389941741E+03  0.00000000000E+00 0. -1.
         -3    1    3    3    0  502  0.81173615401E+01 -0.20695950536E+01 -0.22383151559E+01  0.86709190283E+01  0.00000000000E+00 0.  1.
         11    1    5    5    0    0  0.16539180720E+02  0.17307134132E+03 -0.55593369257E+02  0.18253179556E+03  0.00000000000E+00 0.  1.
        -11    1    5    5    0    0  0.66719992891E+02  0.17209465010E+03  0.20109436328E+02  0.18566775561E+03  0.00000000000E+00 0. -1.
          2    1    6    6  503    0 -0.49500221067E+02 -0.47076092860E+03  0.12613682904E+03  0.48987408936E+03  0.00000000000E+00 0. -1.
         -2    1    6    6    0  503  0.20566787142E+02 -0.61847623370E+02  0.38097185773E+02  0.75495144305E+02  0.00000000000E+00 0.  1.
<mgrwt>
<rscale>  0 0.13107476E+04</rscale>
<asrwt>0</asrwt>
<pdfrwt beam="1">  1        4 0.11750754E+00 0.13107476E+04</pdfrwt>
<pdfrwt beam="2">  1       -3 0.86513863E-01 0.13107476E+04</pdfrwt>
<totfact> 0.15231724E+00</totfact>
</mgrwt>
</event>
<event>
12    6  0.1494052E-007  0.2308623E+04  0.7818608E-02  0.8474529E-01
         -1   -1    0    0    0  501 -0.00000000000E+00  0.00000000000E+00  0.19142688663E+04  0.19142688663E+04  0.00000000000E+00 0.  1.
          2   -1    0    0  501    0  0.00000000000E+00 -0.00000000000E+00 -0.69605426998E+03  0.69605426998E+03  0.00000000000E+00 0. -1.
         24    2    1    2    0    0 -0.64677003757E+03  0.72204261920E+03  0.63257771088E+03  0.11604435882E+04  0.82569580643E+02 0.  0.
        254    2    1    2    0    0  0.64677003757E+03 -0.72204261920E+03  0.58563688547E+03  0.14498795481E+04  0.90527516091E+03 0.  0.
         23    2    4    4    0    0  0.74911503293E+03 -0.64561634170E+03  0.73410367132E+03  0.12349507900E+04  0.90561913652E+02 0.  0.
         23    2    4    4    0    0 -0.10234499535E+03 -0.76426277495E+02 -0.14846678585E+03  0.21492875812E+03  0.88524067926E+02 0.  0.
          2    1    3    3  502    0 -0.35568657020E+03  0.39478023138E+03  0.29756013804E+03  0.60902085601E+03  0.00000000000E+00 0. -1.
         -1    1    3    3    0  502 -0.29108346737E+03  0.32726238782E+03  0.33501757284E+03  0.55142273219E+03  0.00000000000E+00 0.  1.
         11    1    5    5    0    0  0.42250960786E+03 -0.35263057570E+03  0.35322968823E+03  0.65393723269E+03  0.00000000000E+00 0. -1.
        -11    1    5    5    0    0  0.32660542507E+03 -0.29298576600E+03  0.38087398308E+03  0.58101355729E+03  0.00000000000E+00 0.  1.
          4    1    6    6  503    0  0.12439778708E+02 -0.17552452691E+02 -0.51841915385E+01  0.22129449421E+02  0.00000000000E+00 0. -1.
         -4    1    6    6    0  503 -0.11478477406E+03 -0.58873824804E+02 -0.14328259431E+03  0.19279930870E+03  0.00000000000E+00 0.  1.
<mgrwt>
<rscale>  0 0.23086230E+04</rscale>
<asrwt>0</asrwt>
<pdfrwt beam="1">  1        2 0.10708527E+00 0.23086230E+04</pdfrwt>
<pdfrwt beam="2">  1       -1 0.29450290E+00 0.23086230E+04</pdfrwt>
<totfact> 0.15297296E+00</totfact>
</mgrwt>
</event>
<event>
12    6  0.1494052E-007  0.1712051E+04  0.7818608E-02  0.8754521E-01
          2   -1    0    0  501    0  0.00000000000E+00  0.00000000000E+00  0.23366652745E+04  0.23366652745E+04  0.00000000000E+00 0. -1.
         -1   -1    0    0    0  501 -0.00000000000E+00 -0.00000000000E+00 -0.31360068480E+03  0.31360068480E+03  0.00000000000E+00 0.  1.
         24    2    1    2    0    0  0.70347652879E+02  0.45819816068E+03  0.10568624358E+03  0.48207198580E+03  0.79557970691E+02 0.  0.
        254    2    1    2    0    0 -0.70347652879E+02 -0.45819816068E+03  0.19173783461E+04  0.21681939735E+04  0.89990612724E+03 0.  0.
         23    2    4    4    0    0  0.67623771499E+02 -0.40144012388E+03  0.19468209165E+04  0.19911004244E+04  0.92962744047E+02 0.  0.
         23    2    4    4    0    0 -0.13797142438E+03 -0.56758036798E+02 -0.29442570315E+02  0.17709354912E+03  0.90761619122E+02 0.  0.
          2    1    3    3  502    0 -0.10920947879E+02  0.44396380382E+02 -0.52429097669E+01  0.46019493657E+02  0.00000000000E+00 0. -1.
         -1    1    3    3    0  502  0.81268600758E+02  0.41380178029E+03  0.11092915335E+03  0.43605249215E+03  0.00000000000E+00 0.  1.
         11    1    5    5    0    0  0.11231749529E+02 -0.95019278930E+02  0.29424853153E+03  0.30941398461E+03  0.00000000000E+00 0. -1.
        -11    1    5    5    0    0  0.56392021970E+02 -0.30642084495E+03  0.16525723849E+04  0.16816864398E+04  0.00000000000E+00 0.  1.
          4    1    6    6  503    0 -0.10133918832E+03 -0.67372064917E+02 -0.52493360435E+02  0.13252991779E+03  0.00000000000E+00 0.  1.
         -4    1    6    6    0  503 -0.36632236058E+02  0.10614028118E+02  0.23050790120E+02  0.44563631323E+02  0.00000000000E+00 0. -1.
<mgrwt>
<rscale>  0 0.17120512E+04</rscale>
<asrwt>0</asrwt>
<pdfrwt beam="1">  1        2 0.35948695E+00 0.17120512E+04</pdfrwt>
<pdfrwt beam="2">  1       -1 0.48246261E-01 0.17120512E+04</pdfrwt>
<totfact> 0.20112833E+01</totfact>
</mgrwt>
</event>
<event>
12    6  0.1494052E-007  0.1515046E+04  0.7818608E-02  0.8874508E-01
         -1   -1    0    0    0  501 -0.00000000000E+00  0.00000000000E+00  0.17836539018E+03  0.17836539018E+03  0.00000000000E+00 0.  1.
          2   -1    0    0  501    0  0.00000000000E+00 -0.00000000000E+00 -0.32172236388E+04  0.32172236388E+04  0.00000000000E+00 0. -1.
         24    2    1    2    0    0  0.39202452756E+03  0.47915713439E+02 -0.16496184348E+04  0.16980953242E+04  0.79420424245E+02 0.  0.
        254    2    1    2    0    0 -0.39202452756E+03 -0.47915713439E+02 -0.13892398138E+04  0.16974937048E+04  0.89191842213E+03 0.  0.
         23    2    4    4    0    0 -0.64856352439E+03 -0.99584937119E+02 -0.74963712375E+03  0.10003248784E+04  0.90234362271E+02 0.  0.
         23    2    4    4    0    0  0.25653899683E+03  0.51669223680E+02 -0.63960269009E+03  0.69716882643E+03  0.92036980667E+02 0.  0.
          4    1    3    3  502    0  0.32433134837E+03  0.32767890109E+02 -0.14661274655E+04  0.15019301925E+04  0.00000000000E+00 0. -1.
         -3    1    3    3    0  502  0.67693179195E+02  0.15147823330E+02 -0.18349096931E+03  0.19616513166E+03  0.00000000000E+00 0.  1.
         11    1    5    5    0    0 -0.53662788244E+03 -0.58164051662E+02 -0.57354155656E+03  0.78759282514E+03  0.00000000000E+00 0.  1.
        -11    1    5    5    0    0 -0.11193564196E+03 -0.41420885457E+02 -0.17609556719E+03  0.21273205324E+03  0.00000000000E+00 0. -1.
          4    1    6    6  503    0  0.54628405921E+02  0.39168471854E+01 -0.58498424864E+02  0.80135323902E+02  0.00000000000E+00 0. -1.
         -4    1    6    6    0  503  0.20191059091E+03  0.47752376495E+02 -0.58110426523E+03  0.61703350253E+03  0.00000000000E+00 0.  1.
<mgrwt>
<rscale>  0 0.15150463E+04</rscale>
<asrwt>0</asrwt>
<pdfrwt beam="1">  1        2 0.49495739E+00 0.15150463E+04</pdfrwt>
<pdfrwt beam="2">  1       -1 0.27440835E-01 0.15150463E+04</pdfrwt>
<totfact> 0.16720844E+01</totfact>
</mgrwt>
</event>
<event>
12    6  0.1494052E-007  0.2936435E+04  0.7818608E-02  0.8262119E-01
         -1   -1    0    0    0  501 -0.00000000000E+00  0.00000000000E+00  0.82518114427E+03  0.82518114427E+03  0.00000000000E+00 0.  1.
          2   -1    0    0  501    0  0.00000000000E+00 -0.00000000000E+00 -0.26123508951E+04  0.26123508951E+04  0.00000000000E+00 0. -1.
         24    2    1    2    0    0 -0.10819699342E+04  0.10704871411E+03  0.71346664671E+02  0.10924429765E+04  0.78885642975E+02 0.  0.
        254    2    1    2    0    0  0.10819699342E+04 -0.10704871411E+03 -0.18585164155E+04  0.23450890629E+04  0.92910767974E+03 0.  0.
         23    2    4    4    0    0  0.72813911231E+03 -0.48985820671E+03 -0.97373584325E+03  0.13141215959E+04  0.92770936951E+02 0.  0.
         23    2    4    4    0    0  0.35383082185E+03  0.38280949260E+03 -0.88478057221E+03  0.10309674670E+04  0.91202515879E+02 0.  0.
          4    1    3    3  502    0 -0.29841426226E+03  0.56510527742E+01 -0.64114659087E+01  0.29853661955E+03  0.00000000000E+00 0. -1.
         -3    1    3    3    0  502 -0.78355567190E+03  0.10139766134E+03  0.77758130580E+02  0.79390635692E+03  0.00000000000E+00 0.  1.
         11    1    5    5    0    0  0.99513711221E+02 -0.51878802136E+02 -0.85334393337E+02  0.14098350087E+03  0.00000000000E+00 0.  1.
        -11    1    5    5    0    0  0.62862540109E+03 -0.43797940458E+03 -0.88840144991E+03  0.11731380950E+04  0.00000000000E+00 0. -1.
          2    1    6    6  503    0  0.17534764491E+03  0.12899112209E+03 -0.33054269825E+03  0.39578274535E+03  0.00000000000E+00 0. -1.
         -2    1    6    6    0  503  0.17848317693E+03  0.25381837051E+03 -0.55423787397E+03  0.63518472163E+03  0.00000000000E+00 0.  1.
<mgrwt>
<rscale>  0 0.29364351E+04</rscale>
<asrwt>0</asrwt>
<pdfrwt beam="1">  1        2 0.40190014E+00 0.29364351E+04</pdfrwt>
<pdfrwt beam="2">  1       -1 0.12695094E+00 0.29364351E+04</pdfrwt>
<totfact> 0.15753012E+00</totfact>
</mgrwt>
</event>
<event>
12    6  0.1690735E-007  0.2037193E+04  0.7818608E-02  0.8589426E-01
         -1   -1    0    0    0  501 -0.00000000000E+00  0.00000000000E+00  0.11527080863E+04  0.11527080863E+04  0.00000000000E+00 0.  1.
          2   -1    0    0  501    0  0.00000000000E+00 -0.00000000000E+00 -0.90008847757E+03  0.90008847757E+03  0.00000000000E+00 0. -1.
         24    2    1    2    0    0 -0.70949480706E+03 -0.16666937230E+01  0.50693295594E+03  0.87576235031E+03  0.81197372393E+02 0.  0.
        254    2    1    2    0    0  0.70949480706E+03  0.16666937230E+01 -0.25431334715E+03  0.11770342136E+04  0.90407333903E+03 0.  0.
         23    2    4    4    0    0  0.41775891334E+03 -0.55797493208E+02 -0.58257137717E+03  0.72492145444E+03  0.92118595771E+02 0.  0.
         23    2    4    4    0    0  0.29173589372E+03  0.57464186931E+02  0.32825803001E+03  0.45211275917E+03  0.90778016464E+02 0.  0.
          4    1    3    3  502    0 -0.12069074372E+03  0.40863343973E+01  0.12560221482E+03  0.17423796979E+03  0.00000000000E+00 0. -1.
         -3    1    3    3    0  502 -0.58880406334E+03 -0.57530281203E+01  0.38133074112E+03  0.70152438051E+03  0.00000000000E+00 0.  1.
         11    1    5    5    0    0  0.37396316295E+03 -0.60930964880E+02 -0.46795495795E+03  0.60211533148E+03  0.00000000000E+00 0. -1.
        -11    1    5    5    0    0  0.43795750390E+02  0.51334716723E+01 -0.11461641921E+03  0.12280612296E+03  0.00000000000E+00 0.  1.
          4    1    6    6  503    0  0.19161759623E+03  0.72842683697E+02  0.25459730771E+03  0.32686870277E+03  0.00000000000E+00 0. -1.
         -4    1    6    6    0  503  0.10011829749E+03 -0.15378496766E+02  0.73660722299E+02  0.12524405640E+03  0.00000000000E+00 0.  1.
<mgrwt>
<rscale>  0 0.20371934E+04</rscale>
<asrwt>0</asrwt>
<pdfrwt beam="1">  1        2 0.13847515E+00 0.20371934E+04</pdfrwt>
<pdfrwt beam="2">  1       -1 0.17733971E+00 0.20371934E+04</pdfrwt>
<totfact> 0.67390016E+00</totfact>
</mgrwt>
</event>
<event>
12    6  0.1494052E-007  0.1870326E+04  0.7818608E-02  0.8669770E-01
          2   -1    0    0  501    0  0.00000000000E+00  0.00000000000E+00  0.11547949603E+04  0.11547949603E+04  0.00000000000E+00 0. -1.
         -1   -1    0    0    0  501 -0.00000000000E+00 -0.00000000000E+00 -0.75730274525E+03  0.75730274525E+03  0.00000000000E+00 0.  1.
         24    2    1    2    0    0  0.55043882493E+03 -0.18955774034E+03 -0.27559390821E+03  0.64899948937E+03  0.79582020893E+02 0.  0.
        254    2    1    2    0    0 -0.55043882493E+03  0.18955774034E+03  0.67308612322E+03  0.12630982161E+04  0.89635770618E+03 0.  0.
         23    2    4    4    0    0 -0.78235253219E+03  0.64524394107E+02  0.48959765430E+03  0.92961528253E+03  0.90773500343E+02 0.  0.
         23    2    4    4    0    0  0.23191370726E+03  0.12503334624E+03  0.18348846892E+03  0.33348293360E+03  0.90141796591E+02 0.  0.
          4    1    3    3  502    0  0.11644369187E+03 -0.74417216794E+02 -0.74818208813E+02  0.15714585550E+03  0.00000000000E+00 0. -1.
         -3    1    3    3    0  502  0.43399513306E+03 -0.11514052355E+03 -0.20077569940E+03  0.49185363387E+03  0.00000000000E+00 0.  1.
         11    1    5    5    0    0 -0.72622521744E+03  0.36758658950E+02  0.44190701216E+03  0.85090309252E+03  0.00000000000E+00 0. -1.
        -11    1    5    5    0    0 -0.56127314747E+02  0.27765735158E+02  0.47690642138E+02  0.78712190016E+02  0.00000000000E+00 0.  1.
          4    1    6    6  503    0  0.18486961079E+03  0.65408629289E+02  0.16252244541E+03  0.25469316253E+03  0.00000000000E+00 0. -1.
         -4    1    6    6    0  503  0.47044096475E+02  0.59624716947E+02  0.20966023509E+02  0.78789771074E+02  0.00000000000E+00 0.  1.
<mgrwt>
<rscale>  0 0.18703255E+04</rscale>
<asrwt>0</asrwt>
<pdfrwt beam="1">  1        2 0.17766076E+00 0.18703255E+04</pdfrwt>
<pdfrwt beam="2">  1       -1 0.11650812E+00 0.18703255E+04</pdfrwt>
<totfact> 0.14362985E+01</totfact>
</mgrwt>
</event>
<event>
12    6  0.1494052E-007  0.1822101E+04  0.7818608E-02  0.8694634E-01
         -1   -1    0    0    0  501 -0.00000000000E+00  0.00000000000E+00  0.95785270583E+03  0.95785270583E+03  0.00000000000E+00 0.  1.
          2   -1    0    0  501    0  0.00000000000E+00 -0.00000000000E+00 -0.86653543746E+03  0.86653543746E+03  0.00000000000E+00 0. -1.
         24    2    1    2    0    0 -0.97404334991E+02  0.67532477600E+03  0.99976164192E+02  0.69410341396E+03  0.78950353418E+02 0.  0.
        254    2    1    2    0    0  0.97404334991E+02 -0.67532477600E+03 -0.86588958147E+01  0.11302847293E+04  0.90106461218E+03 0.  0.
         23    2    4    4    0    0  0.43763351537E+03 -0.10609799181E+03 -0.31098337576E+02  0.46059492644E+03  0.91655343668E+02 0.  0.
         23    2    4    4    0    0 -0.34022918038E+03 -0.56922678420E+03  0.22439441761E+02  0.66968980288E+03  0.90586293173E+02 0.  0.
          4    1    3    3  502    0  0.40531338706E+01  0.23335114025E+03  0.35748738236E+02  0.23610835401E+03  0.00000000000E+00 0. -1.
         -3    1    3    3    0  502 -0.10145746886E+03  0.44197363575E+03  0.64227425956E+02  0.45799505995E+03  0.00000000000E+00 0.  1.
         11    1    5    5    0    0  0.55877317563E+02  0.16097844300E+02 -0.11525931264E+02  0.59281213724E+02  0.00000000000E+00 0. -1.
        -11    1    5    5    0    0  0.38175619781E+03 -0.12219583611E+03 -0.19572406312E+02  0.40131371272E+03  0.00000000000E+00 0.  1.
          1    1    6    6  503    0 -0.30203011881E+02 -0.53064284785E+02 -0.24411621548E+02  0.65756881868E+02  0.00000000000E+00 0. -1.
         -1    1    6    6    0  503 -0.31002616850E+03 -0.51616249941E+03  0.46851063309E+02  0.60393292102E+03  0.00000000000E+00 0.  1.
<mgrwt>
<rscale>  0 0.18221013E+04</rscale>
<asrwt>0</asrwt>
<pdfrwt beam="1">  1        2 0.13331314E+00 0.18221013E+04</pdfrwt>
<pdfrwt beam="2">  1       -1 0.14736195E+00 0.18221013E+04</pdfrwt>
<totfact> 0.12166640E+01</totfact>
</mgrwt>
</event>
<event>
12    6  0.1494052E-007  0.1801641E+04  0.7818608E-02  0.8705427E-01
         -1   -1    0    0    0  501 -0.00000000000E+00  0.00000000000E+00  0.69386928024E+03  0.69386928024E+03  0.00000000000E+00 0.  1.
          2   -1    0    0  501    0  0.00000000000E+00 -0.00000000000E+00 -0.11694966896E+04  0.11694966896E+04  0.00000000000E+00 0. -1.
         24    2    1    2    0    0  0.34504754188E+02  0.43613435058E+03 -0.72100602246E+03  0.84707525883E+03  0.79265754851E+02 0.  0.
        254    2    1    2    0    0 -0.34504754188E+02 -0.43613435058E+03  0.24537861307E+03  0.10162907110E+04  0.88387351797E+03 0.  0.
         23    2    4    4    0    0  0.27112346489E+03 -0.56771213668E+03  0.21400358132E+03  0.67024805783E+03  0.87349429704E+02 0.  0.
         23    2    4    4    0    0 -0.30562821908E+03  0.13157778610E+03  0.31375031756E+02  0.34604265320E+03  0.89664949252E+02 0.  0.
          2    1    3    3  502    0  0.31302409883E+02  0.30547819381E+03 -0.43334776913E+03  0.53111868426E+03  0.00000000000E+00 0. -1.
         -1    1    3    3    0  502  0.32023443049E+01  0.13065615677E+03 -0.28765825333E+03  0.31595657458E+03  0.00000000000E+00 0.  1.
         11    1    5    5    0    0  0.26978770765E+03 -0.50905158365E+03  0.20071440023E+03  0.61008621725E+03  0.00000000000E+00 0. -1.
        -11    1    5    5    0    0  0.13357572394E+01 -0.58660553027E+02  0.13289181089E+02  0.60161840587E+02  0.00000000000E+00 0.  1.
          1    1    6    6  503    0 -0.16363182578E+02  0.36712143102E+02  0.36694806581E+01  0.40360875653E+02  0.00000000000E+00 0.  1.
         -1    1    6    6    0  503 -0.28926503650E+03  0.94865643001E+02  0.27705551098E+02  0.30568177755E+03  0.00000000000E+00 0. -1.
<mgrwt>
<rscale>  0 0.18016413E+04</rscale>
<asrwt>0</asrwt>
<pdfrwt beam="1">  1        2 0.17992257E+00 0.18016413E+04</pdfrwt>
<pdfrwt beam="2">  1       -1 0.10674912E+00 0.18016413E+04</pdfrwt>
<totfact> 0.17422157E+01</totfact>
</mgrwt>
</event>
<event>
12    6  0.1494052E-007  0.1090189E+04  0.7818608E-02  0.9214807E-01
         -1   -1    0    0    0  501 -0.00000000000E+00  0.00000000000E+00  0.16244945767E+04  0.16244945767E+04  0.00000000000E+00 0.  1.
          2   -1    0    0  501    0  0.00000000000E+00 -0.00000000000E+00 -0.18290498626E+03  0.18290498626E+03  0.00000000000E+00 0. -1.
         24    2    1    2    0    0 -0.87806157977E+02 -0.67392175782E+02  0.55619294576E+02  0.14750437313E+03  0.80077508870E+02 0.  0.
        254    2    1    2    0    0  0.87806157977E+02  0.67392175782E+02  0.13859702959E+04  0.16598951898E+04  0.90668999854E+03 0.  0.
         23    2    4    4    0    0 -0.32853727156E+03 -0.20587064425E+03  0.73028302181E+03  0.83200160246E+03  0.92703363427E+02 0.  0.
         23    2    4    4    0    0  0.41634342954E+03  0.27326282003E+03  0.65568727407E+03  0.82789358738E+03  0.86415105824E+02 0.  0.
          4    1    3    3  502    0 -0.54961548188E+02 -0.72867573369E+02  0.11149510641E+02  0.91949804869E+02  0.00000000000E+00 0. -1.
         -3    1    3    3    0  502 -0.32844609790E+02  0.54753975874E+01  0.44469783936E+02  0.55554568257E+02  0.00000000000E+00 0.  1.
         11    1    5    5    0    0 -0.20995197798E+03 -0.12622437139E+03  0.54917949865E+03  0.60134062455E+03  0.00000000000E+00 0.  1.
        -11    1    5    5    0    0 -0.11858529358E+03 -0.79646272855E+02  0.18110352315E+03  0.23066097791E+03  0.00000000000E+00 0. -1.
          1    1    6    6  503    0  0.28039951491E+03  0.16290927258E+03  0.48454660866E+03  0.58305122847E+03  0.00000000000E+00 0. -1.
         -1    1    6    6    0  503  0.13594391463E+03  0.11035354745E+03  0.17114066541E+03  0.24484235891E+03  0.00000000000E+00 0.  1.
<mgrwt>
<rscale>  0 0.10901893E+04</rscale>
<asrwt>0</asrwt>
<pdfrwt beam="1">  1        2 0.28139230E-01 0.10901893E+04</pdfrwt>
<pdfrwt beam="2">  1       -1 0.24992223E+00 0.10901893E+04</pdfrwt>
<totfact> 0.15311802E+01</totfact>
</mgrwt>
</event>
<event>
12    6  0.1597959E-007  0.1790975E+04  0.7818608E-02  0.8711113E-01
         -1   -1    0    0    0  501 -0.00000000000E+00  0.00000000000E+00  0.36023058779E+03  0.36023058779E+03  0.00000000000E+00 0.  1.
          2   -1    0    0  501    0  0.00000000000E+00 -0.00000000000E+00 -0.22260688065E+04  0.22260688065E+04  0.00000000000E+00 0. -1.
         24    2    1    2    0    0 -0.25993045611E+02  0.14281675568E+03 -0.16224319844E+04  0.16309174259E+04  0.80832183738E+02 0.  0.
        254    2    1    2    0    0  0.25993045611E+02 -0.14281675568E+03 -0.24340623436E+03  0.95538196847E+03  0.91237922303E+03 0.  0.
         23    2    4    4    0    0 -0.21156451117E+03 -0.46193224921E+03 -0.14238659383E+03  0.53537005268E+03  0.90588111564E+02 0.  0.
         23    2    4    4    0    0  0.23755755678E+03  0.31911549353E+03 -0.10101964054E+03  0.42001191579E+03  0.89088442778E+02 0.  0.
          4    1    3    3  502    0 -0.45560123862E+02  0.11787317813E+03 -0.14573572799E+04  0.14628260499E+04  0.00000000000E+00 0. -1.
         -3    1    3    3    0  502  0.19567078251E+02  0.24943577550E+02 -0.16507470447E+03  0.16809137594E+03  0.00000000000E+00 0.  1.
         11    1    5    5    0    0 -0.12244905955E+03 -0.33354590256E+03 -0.65892894489E+02  0.36137032922E+03  0.00000000000E+00 0. -1.
        -11    1    5    5    0    0 -0.89115451624E+02 -0.12838634665E+03 -0.76493699341E+02  0.17399972346E+03  0.00000000000E+00 0.  1.
          4    1    6    6  503    0  0.24435529123E+03  0.31720166354E+03 -0.10100100692E+03  0.41294988449E+03  0.00000000000E+00 0. -1.
         -4    1    6    6    0  503 -0.67977344459E+01  0.19138299884E+01 -0.18633616571E-01  0.70620312965E+01  0.00000000000E+00 0.  1.
<mgrwt>
<rscale>  0 0.17909752E+04</rscale>
<asrwt>0</asrwt>
<pdfrwt beam="1">  1        2 0.34247213E+00 0.17909752E+04</pdfrwt>
<pdfrwt beam="2">  1       -1 0.55420089E-01 0.17909752E+04</pdfrwt>
<totfact> 0.17686197E+01</totfact>
</mgrwt>
</event>
<event>
12    6  0.1494052E-007  0.2256911E+04  0.7818608E-02  0.8495107E-01
          2   -1    0    0  501    0  0.00000000000E+00  0.00000000000E+00  0.30127794603E+04  0.30127794603E+04  0.00000000000E+00 0. -1.
         -1   -1    0    0    0  501 -0.00000000000E+00 -0.00000000000E+00 -0.42266992633E+03  0.42266992633E+03  0.00000000000E+00 0.  1.
         24    2    1    2    0    0 -0.43809263882E+02 -0.43000379653E+03  0.23977856058E+04  0.24377318429E+04  0.79612872517E+02 0.  0.
        254    2    1    2    0    0  0.43809263882E+02  0.43000379653E+03  0.19232392818E+03  0.99771754382E+03  0.87842432074E+03 0.  0.
         23    2    4    4    0    0 -0.18259890529E+02  0.51608947656E+03  0.45922285314E+03  0.69644812091E+03  0.86444114090E+02 0.  0.
         23    2    4    4    0    0  0.62069154412E+02 -0.86085680023E+02 -0.26689892496E+03  0.30126942291E+03  0.90911521828E+02 0.  0.
          4    1    3    3  502    0 -0.57708182840E+02 -0.31421967688E+03  0.16135345055E+04  0.16448580000E+04  0.00000000000E+00 0. -1.
         -3    1    3    3    0  502  0.13898918958E+02 -0.11578411965E+03  0.78425110031E+03  0.79287384284E+03  0.00000000000E+00 0.  1.
         11    1    5    5    0    0 -0.28067287860E+02  0.40224280074E+03  0.39907477472E+03  0.56731624269E+03  0.00000000000E+00 0. -1.
        -11    1    5    5    0    0  0.98073973302E+01  0.11384667582E+03  0.60148078419E+02  0.12913187823E+03  0.00000000000E+00 0.  1.
          3    1    6    6  503    0  0.84084718200E+02 -0.53097285601E+02 -0.17729619885E+03  0.20328183318E+03  0.00000000000E+00 0. -1.
         -3    1    6    6    0  503 -0.22015563788E+02 -0.32988394421E+02 -0.89602726105E+02  0.97987589728E+02  0.00000000000E+00 0.  1.
<mgrwt>
<rscale>  0 0.22569105E+04</rscale>
<asrwt>0</asrwt>
<pdfrwt beam="1">  1        2 0.46350452E+00 0.22569105E+04</pdfrwt>
<pdfrwt beam="2">  1       -1 0.65026144E-01 0.22569105E+04</pdfrwt>
<totfact> 0.42466695E+00</totfact>
</mgrwt>
</event>
<event>
12    6  0.1494052E-007  0.1363558E+04  0.7818608E-02  0.8980628E-01
          2   -1    0    0  501    0  0.00000000000E+00  0.00000000000E+00  0.24196761855E+03  0.24196761855E+03  0.00000000000E+00 0. -1.
         -1   -1    0    0    0  501 -0.00000000000E+00 -0.00000000000E+00 -0.19210130176E+04  0.19210130176E+04  0.00000000000E+00 0.  1.
         24    2    1    2    0    0 -0.85224095107E+02  0.36836797912E+03 -0.44435145391E+03  0.58884932262E+03  0.79606505617E+02 0.  0.
        254    2    1    2    0    0  0.85224095107E+02 -0.36836797912E+03 -0.12346939451E+04  0.15741313135E+04  0.90025670761E+03 0.  0.
         23    2    4    4    0    0  0.34996442547E+03 -0.53543343806E+03 -0.88718988886E+03  0.10975764695E+04  0.91674106252E+02 0.  0.
         23    2    4    4    0    0 -0.26474033037E+03  0.16706545894E+03 -0.34750405627E+03  0.47655484404E+03  0.91362684703E+02 0.  0.
          2    1    3    3  502    0 -0.82406333145E+02  0.35824451029E+03 -0.39995201943E+03  0.54322329731E+03  0.00000000000E+00 0. -1.
         -1    1    3    3    0  502 -0.28177619626E+01  0.10123468826E+02 -0.44399434484E+02  0.45626025315E+02  0.00000000000E+00 0.  1.
         11    1    5    5    0    0  0.97185589955E+02 -0.84686167466E+02 -0.16025594315E+03  0.20566660684E+03  0.00000000000E+00 0.  1.
        -11    1    5    5    0    0  0.25277883552E+03 -0.45074727059E+03 -0.72693394571E+03  0.89190986263E+03  0.00000000000E+00 0. -1.
          1    1    6    6  503    0 -0.14305533909E+03  0.13150790405E+03 -0.16845913834E+03  0.25717239386E+03  0.00000000000E+00 0. -1.
         -1    1    6    6    0  503 -0.12168499128E+03  0.35557554891E+02 -0.17904491793E+03  0.21938245018E+03  0.00000000000E+00 0.  1.
<mgrwt>
<rscale>  0 0.13635585E+04</rscale>
<asrwt>0</asrwt>
<pdfrwt beam="1">  1        2 0.37225787E-01 0.13635585E+04</pdfrwt>
<pdfrwt beam="2">  1       -1 0.29554047E+00 0.13635585E+04</pdfrwt>
<totfact> 0.55320453E+00</totfact>
</mgrwt>
</event>
<event>
12    6  0.1494052E-007  0.2104760E+04  0.7818608E-02  0.8559149E-01
         -1   -1    0    0    0  501 -0.00000000000E+00  0.00000000000E+00  0.10279578094E+04  0.10279578094E+04  0.00000000000E+00 0.  1.
          2   -1    0    0  501    0  0.00000000000E+00 -0.00000000000E+00 -0.10773827000E+04  0.10773827000E+04  0.00000000000E+00 0. -1.
         24    2    1    2    0    0  0.27258498369E+03  0.80859830046E+03  0.95251456054E+02  0.86226958296E+03  0.79386453374E+02 0.  0.
        254    2    1    2    0    0 -0.27258498369E+03 -0.80859830046E+03 -0.14467634669E+03  0.12430709264E+04  0.89227815054E+03 0.  0.
         23    2    4    4    0    0  0.17224818748E+03 -0.36924287157E+03 -0.38381189414E+03  0.56757422431E+03  0.93910562391E+02 0.  0.
         23    2    4    4    0    0 -0.44483317116E+03 -0.43935542889E+03  0.23913554745E+03  0.67549670208E+03  0.90555184308E+02 0.  0.
          4    1    3    3  502    0  0.38441636720E+02  0.51880468526E+02  0.13313565376E+02  0.65928699905E+02  0.00000000000E+00 0. -1.
         -3    1    3    3    0  502  0.23414334697E+03  0.75671783193E+03  0.81937890678E+02  0.79634088305E+03  0.00000000000E+00 0.  1.
         11    1    5    5    0    0  0.12966155502E+02 -0.23324935386E+02  0.28164495842E+00  0.26688070803E+02  0.00000000000E+00 0.  1.
        -11    1    5    5    0    0  0.15928203197E+03 -0.34591793618E+03 -0.38409353910E+03  0.54088615351E+03  0.00000000000E+00 0. -1.
          1    1    6    6  503    0 -0.29844567860E+03 -0.23279409701E+03  0.13811571998E+03  0.40291297669E+03  0.00000000000E+00 0. -1.
         -1    1    6    6    0  503 -0.14638749256E+03 -0.20656133188E+03  0.10101982747E+03  0.27258372539E+03  0.00000000000E+00 0.  1.
<mgrwt>
<rscale>  0 0.21047603E+04</rscale>
<asrwt>0</asrwt>
<pdfrwt beam="1">  1        2 0.16575118E+00 0.21047603E+04</pdfrwt>
<pdfrwt beam="2">  1       -1 0.15814736E+00 0.21047603E+04</pdfrwt>
<totfact> 0.71362762E+00</totfact>
</mgrwt>
</event>
<event>
12    6  0.1494052E-007  0.2463884E+04  0.7818608E-02  0.8415966E-01
         -1   -1    0    0    0  501 -0.00000000000E+00  0.00000000000E+00  0.89350953284E+03  0.89350953284E+03  0.00000000000E+00 0.  1.
          2   -1    0    0  501    0  0.00000000000E+00 -0.00000000000E+00 -0.16985615517E+04  0.16985615517E+04  0.00000000000E+00 0. -1.
         24    2    1    2    0    0  0.78025091807E+03 -0.65425944729E+03 -0.16842062384E+02  0.10216216490E+04  0.81118549303E+02 0.  0.
        254    2    1    2    0    0 -0.78025091807E+03  0.65425944729E+03 -0.78820995643E+03  0.15704494355E+04  0.89899364550E+03 0.  0.
         23    2    4    4    0    0 -0.51032355832E+03  0.82937474560E+02  0.37766372696E+02  0.52648485604E+03  0.91930657947E+02 0.  0.
         23    2    4    4    0    0 -0.26992735975E+03  0.57132197273E+03 -0.82597632912E+03  0.10439645795E+04  0.91408811956E+02 0.  0.
          2    1    3    3  502    0  0.82823025229E+02 -0.50148278249E+02  0.17040912345E+02  0.98310202995E+02  0.00000000000E+00 0. -1.
         -1    1    3    3    0  502  0.69742789284E+03 -0.60411116904E+03 -0.33882974729E+02  0.92331144596E+03  0.00000000000E+00 0.  1.
         11    1    5    5    0    0 -0.12681316041E+03  0.11624615879E+02  0.48460746549E+02  0.13625400289E+03  0.00000000000E+00 0. -1.
        -11    1    5    5    0    0 -0.38351039791E+03  0.71312858680E+02 -0.10694373853E+02  0.39023085315E+03  0.00000000000E+00 0.  1.
          1    1    6    6  503    0 -0.25084899227E+03  0.45713737907E+03 -0.70007344336E+03  0.87292761806E+03  0.00000000000E+00 0. -1.
         -1    1    6    6    0  503 -0.19078367481E+02  0.11418459366E+03 -0.12590288576E+03  0.17103696144E+03  0.00000000000E+00 0.  1.
<mgrwt>
<rscale>  0 0.24638839E+04</rscale>
<asrwt>0</asrwt>
<pdfrwt beam="1">  1        2 0.26131716E+00 0.24638839E+04</pdfrwt>
<pdfrwt beam="2">  1       -1 0.13746300E+00 0.24638839E+04</pdfrwt>
<totfact> 0.43993407E+00</totfact>
</mgrwt>
</event>
<event>
12    6  0.1494052E-007  0.1504265E+04  0.7818608E-02  0.8881622E-01
         -1   -1    0    0    0  501 -0.00000000000E+00  0.00000000000E+00  0.71022206241E+03  0.71022206241E+03  0.00000000000E+00 0.  1.
          2   -1    0    0  501    0  0.00000000000E+00 -0.00000000000E+00 -0.79651565437E+03  0.79651565437E+03  0.00000000000E+00 0. -1.
         24    2    1    2    0    0  0.11827080722E+03  0.11011316098E+03  0.42855075554E+03  0.46502213285E+03  0.80479450225E+02 0.  0.
        254    2    1    2    0    0 -0.11827080722E+03 -0.11011316098E+03 -0.51484434749E+03  0.10417155839E+04  0.89106327699E+03 0.  0.
         23    2    4    4    0    0 -0.37020485503E+03  0.56894648480E+02 -0.60107407440E+03  0.71390993405E+03  0.89937285382E+02 0.  0.
         23    2    4    4    0    0  0.25193404781E+03 -0.16700780946E+03  0.86229726911E+02  0.32780564988E+03  0.93051627732E+02 0.  0.
          4    1    3    3  502    0  0.33470756634E+02 -0.42462496319E+01  0.47660251898E+02  0.58393679423E+02  0.00000000000E+00 0. -1.
         -1    1    3    3    0  502  0.84800050590E+02  0.11435941061E+03  0.38089050364E+03  0.40662845343E+03  0.00000000000E+00 0.  1.
         11    1    5    5    0    0 -0.36206562726E+02  0.22537113175E+02 -0.11916780643E+03  0.12656935942E+03  0.00000000000E+00 0. -1.
        -11    1    5    5    0    0 -0.33399829231E+03  0.34357535305E+02 -0.48190626797E+03  0.58734057463E+03  0.00000000000E+00 0.  1.
          1    1    6    6  503    0  0.13182258963E+02 -0.17911932761E+02  0.35347597415E+02  0.41761967502E+02  0.00000000000E+00 0. -1.
         -1    1    6    6    0  503  0.23875178885E+03 -0.14909587670E+03  0.50882129495E+02  0.28604368238E+03  0.00000000000E+00 0.  1.
<mgrwt>
<rscale>  0 0.15042646E+04</rscale>
<asrwt>0</asrwt>
<pdfrwt beam="1">  1        2 0.12254087E+00 0.15042646E+04</pdfrwt>
<pdfrwt beam="2">  1       -1 0.10926493E+00 0.15042646E+04</pdfrwt>
<totfact> 0.29635644E+01</totfact>
</mgrwt>
</event>
<event>
12    6  0.1494052E-007  0.1639702E+04  0.7818608E-02  0.8796522E-01
          2   -1    0    0  501    0  0.00000000000E+00  0.00000000000E+00  0.21635998198E+04  0.21635998198E+04  0.00000000000E+00 0. -1.
         -1   -1    0    0    0  501 -0.00000000000E+00 -0.00000000000E+00 -0.31066526285E+03  0.31066526285E+03  0.00000000000E+00 0.  1.
         24    2    1    2    0    0 -0.37738703029E+03 -0.42682449005E+03  0.50638849746E+03  0.76705854225E+03  0.85728530463E+02 0.  0.
        254    2    1    2    0    0  0.37738703029E+03  0.42682449005E+03  0.13465460595E+04  0.17072065404E+04  0.88134429442E+03 0.  0.
         23    2    4    4    0    0 -0.13465584822E+03  0.28972790071E+02  0.89905681656E+03  0.91454581375E+03  0.95494848130E+02 0.  0.
         23    2    4    4    0    0  0.51204287851E+03  0.39785169998E+03  0.44748924291E+03  0.79266072663E+03  0.87123592749E+02 0.  0.
          4    1    3    3  502    0 -0.58403038759E+02 -0.88946115189E+02  0.13694300248E+03  0.17342350553E+03  0.00000000000E+00 0. -1.
         -3    1    3    3    0  502 -0.31898399153E+03 -0.33787837486E+03  0.36944549499E+03  0.59363503672E+03  0.00000000000E+00 0.  1.
         11    1    5    5    0    0 -0.11383361659E+02  0.45232339808E+01  0.79100759451E+01  0.14581147752E+02  0.00000000000E+00 0. -1.
        -11    1    5    5    0    0 -0.12327248656E+03  0.24449556091E+02  0.89114674062E+03  0.89996466600E+03  0.00000000000E+00 0.  1.
          1    1    6    6  503    0  0.26944935291E+03  0.16257024990E+03  0.24370626292E+03  0.39802610784E+03  0.00000000000E+00 0. -1.
         -1    1    6    6    0  503  0.24259352560E+03  0.23528145008E+03  0.20378297999E+03  0.39463461879E+03  0.00000000000E+00 0.  1.
<mgrwt>
<rscale>  0 0.16397016E+04</rscale>
<asrwt>0</asrwt>
<pdfrwt beam="1">  1        2 0.33286150E+00 0.16397016E+04</pdfrwt>
<pdfrwt beam="2">  1       -1 0.47794657E-01 0.16397016E+04</pdfrwt>
<totfact> 0.25786525E+01</totfact>
</mgrwt>
</event>
<event>
12    6  0.1494052E-007  0.1865268E+04  0.7818608E-02  0.8672341E-01
          2   -1    0    0  501    0  0.00000000000E+00  0.00000000000E+00  0.16091596739E+04  0.16091596739E+04  0.00000000000E+00 0. -1.
         -1   -1    0    0    0  501 -0.00000000000E+00 -0.00000000000E+00 -0.54053415533E+03  0.54053415533E+03  0.00000000000E+00 0.  1.
         24    2    1    2    0    0 -0.94760515505E+02 -0.94132562761E+02  0.12467018285E+04  0.12565109602E+04  0.81938082756E+02 0.  0.
        254    2    1    2    0    0  0.94760515505E+02  0.94132562761E+02 -0.17807630995E+03  0.89318286895E+03  0.86499940494E+03 0.  0.
         23    2    4    4    0    0  0.42149663875E+03 -0.12269512251E+03  0.98926707007E+01  0.44800288869E+03  0.88855015490E+02 0.  0.
         23    2    4    4    0    0 -0.32673612324E+03  0.21682768527E+03 -0.18796898065E+03  0.44517998026E+03  0.95300250848E+02 0.  0.
          4    1    3    3  502    0 -0.77108131421E+02 -0.62150766533E+02  0.54954910713E+03  0.55840182920E+03  0.00000000000E+00 0. -1.
         -3    1    3    3    0  502 -0.17652384084E+02 -0.31981796228E+02  0.69715272135E+03  0.69810913104E+03  0.00000000000E+00 0.  1.
         11    1    5    5    0    0  0.34290455798E+03 -0.13297082997E+03  0.18671253180E+02  0.36825723781E+03  0.00000000000E+00 0.  1.
        -11    1    5    5    0    0  0.78592080765E+02  0.10275707464E+02 -0.87785824789E+01  0.79745650873E+02  0.00000000000E+00 0. -1.
          3    1    6    6  503    0 -0.11088468958E+03  0.30930597926E+02 -0.28017659966E+02  0.11847829143E+03  0.00000000000E+00 0. -1.
         -3    1    6    6    0  503 -0.21585143366E+03  0.18589708734E+03 -0.15995132068E+03  0.32670168883E+03  0.00000000000E+00 0.  1.
<mgrwt>
<rscale>  0 0.18652676E+04</rscale>
<asrwt>0</asrwt>
<pdfrwt beam="1">  1        2 0.24756302E+00 0.18652676E+04</pdfrwt>
<pdfrwt beam="2">  1       -1 0.83159102E-01 0.18652676E+04</pdfrwt>
<totfact> 0.16926708E+01</totfact>
</mgrwt>
</event>
<event>
12    6  0.1494052E-007  0.1820359E+04  0.7818608E-02  0.8695547E-01
         -1   -1    0    0    0  501 -0.00000000000E+00  0.00000000000E+00  0.24885318706E+03  0.24885318706E+03  0.00000000000E+00 0.  1.
          2   -1    0    0  501    0  0.00000000000E+00 -0.00000000000E+00 -0.33289777831E+04  0.33289777831E+04  0.00000000000E+00 0. -1.
         24    2    1    2    0    0 -0.10142888307E+03  0.60201123865E+03 -0.55899064425E+03  0.83167535349E+03  0.80672197576E+02 0.  0.
        254    2    1    2    0    0  0.10142888307E+03 -0.60201123865E+03 -0.25211339518E+04  0.27461556167E+04  0.90141495348E+03 0.  0.
         23    2    4    4    0    0  0.14377044626E+03 -0.70553927617E+03 -0.24959148425E+04  0.25992958407E+04  0.91062368560E+02 0.  0.
         23    2    4    4    0    0 -0.42341563183E+02  0.10352803752E+03 -0.25219109276E+02  0.14685977598E+03  0.91765613393E+02 0.  0.
          4    1    3    3  502    0 -0.25522428842E+02  0.35769087697E+02 -0.49465463039E+02  0.66163842409E+02  0.00000000000E+00 0. -1.
         -3    1    3    3    0  502 -0.75906454233E+02  0.56624215095E+03 -0.50952518121E+03  0.76551151108E+03  0.00000000000E+00 0.  1.
         11    1    5    5    0    0  0.61031609016E+02 -0.50665172692E+03 -0.17687242900E+04  0.18408711100E+04  0.00000000000E+00 0.  1.
        -11    1    5    5    0    0  0.82738837241E+02 -0.19888754925E+03 -0.72719055256E+03  0.75842473072E+03  0.00000000000E+00 0. -1.
          1    1    6    6  503    0 -0.17952551874E+02 -0.15164910066E+02 -0.45504740357E+01  0.23936905190E+02  0.00000000000E+00 0. -1.
         -1    1    6    6    0  503 -0.24389011309E+02  0.11869294759E+03 -0.20668635241E+02  0.12292287079E+03  0.00000000000E+00 0.  1.
<mgrwt>
<rscale>  0 0.18203590E+04</rscale>
<asrwt>0</asrwt>
<pdfrwt beam="1">  1        2 0.51215038E+00 0.18203590E+04</pdfrwt>
<pdfrwt beam="2">  1       -1 0.38285109E-01 0.18203590E+04</pdfrwt>
<totfact> 0.75888819E+00</totfact>
</mgrwt>
</event>
<event>
12    6  0.2442058E-007  0.1648156E+04  0.7818608E-02  0.8791498E-01
          2   -1    0    0  501    0  0.00000000000E+00  0.00000000000E+00  0.68597070444E+03  0.68597070444E+03  0.00000000000E+00 0. -1.
         -1   -1    0    0    0  501 -0.00000000000E+00 -0.00000000000E+00 -0.98999034978E+03  0.98999034978E+03  0.00000000000E+00 0.  1.
         24    2    1    2    0    0  0.42280379792E+03 -0.21182831434E+03 -0.44286596487E+03  0.65288831535E+03  0.80613914370E+02 0.  0.
        254    2    1    2    0    0 -0.42280379792E+03  0.21182831434E+03  0.13884631953E+03  0.10230727389E+04  0.89652955461E+03 0.  0.
         23    2    4    4    0    0 -0.34004114442E+03 -0.11299890563E+03 -0.29025979864E+03  0.47007373938E+03  0.91224104110E+02 0.  0.
         23    2    4    4    0    0 -0.82762653500E+02  0.32482721997E+03  0.42910611818E+03  0.55299899950E+03  0.96506233709E+02 0.  0.
          4    1    3    3  502    0  0.55496006903E+02 -0.49022939409E+01 -0.32201518330E+02  0.64348869849E+02  0.00000000000E+00 0. -1.
         -3    1    3    3    0  502  0.36730779102E+03 -0.20692602040E+03 -0.41066444655E+03  0.58853944551E+03  0.00000000000E+00 0.  1.
         11    1    5    5    0    0  0.50468395718E+00 -0.64273574811E+01 -0.24000515842E+02  0.24851365974E+02  0.00000000000E+00 0. -1.
        -11    1    5    5    0    0 -0.34054582838E+03 -0.10657154815E+03 -0.26625928280E+03  0.44522237340E+03  0.00000000000E+00 0.  1.
          4    1    6    6  503    0 -0.26005424408E+02  0.34846328237E+02  0.18803559737E+02  0.47372170617E+02  0.00000000000E+00 0. -1.
         -4    1    6    6    0  503 -0.56757229092E+02  0.28998089173E+03  0.41030255844E+03  0.50562682888E+03  0.00000000000E+00 0.  1.
<mgrwt>
<rscale>  0 0.16481558E+04</rscale>
<asrwt>0</asrwt>
<pdfrwt beam="1">  1        2 0.10553395E+00 0.16481558E+04</pdfrwt>
<pdfrwt beam="2">  1       -1 0.15230621E+00 0.16481558E+04</pdfrwt>
<totfact> 0.15355736E+01</totfact>
</mgrwt>
</event>
<event>
12    6  0.1494052E-007  0.1467606E+04  0.7818608E-02  0.8906285E-01
         -1   -1    0    0    0  501 -0.00000000000E+00  0.00000000000E+00  0.21520451326E+04  0.21520451326E+04  0.00000000000E+00 0.  1.
          2   -1    0    0  501    0  0.00000000000E+00 -0.00000000000E+00 -0.25021160479E+03  0.25021160479E+03  0.00000000000E+00 0. -1.
         24    2    1    2    0    0  0.78407971911E+02  0.10492647096E+03 -0.11562191270E+03  0.19221207724E+03  0.80122915402E+02 0.  0.
        254    2    1    2    0    0 -0.78407971911E+02 -0.10492647096E+03  0.20174554405E+04  0.22100446601E+04  0.89275616549E+03 0.  0.
         23    2    4    4    0    0 -0.28041856408E+03 -0.13877342129E+03  0.20746576727E+03  0.38620483698E+03  0.90661447049E+02 0.  0.
         23    2    4    4    0    0  0.20201059216E+03  0.33846950330E+02  0.18099896732E+04  0.18238398231E+04  0.91516052942E+02 0.  0.
          2    1    3    3  502    0  0.43549701084E+02  0.10959034291E+03 -0.82663509954E+02  0.14401345632E+03  0.00000000000E+00 0. -1.
         -1    1    3    3    0  502  0.34858270827E+02 -0.46638719503E+01 -0.32958402749E+02  0.48198620918E+02  0.00000000000E+00 0.  1.
         11    1    5    5    0    0 -0.13926895958E+02 -0.27924509399E+01  0.41956326325E+02  0.44295479815E+02  0.00000000000E+00 0. -1.
        -11    1    5    5    0    0 -0.26649166812E+03 -0.13598097035E+03  0.16550944094E+03  0.34190935716E+03  0.00000000000E+00 0.  1.
          4    1    6    6  503    0  0.79619760946E+02 -0.49859305212E+01  0.10547403013E+04  0.10577529339E+04  0.00000000000E+00 0. -1.
         -4    1    6    6    0  503  0.12239083122E+03  0.38832880851E+02  0.75524937186E+03  0.76608688926E+03  0.00000000000E+00 0.  1.
<mgrwt>
<rscale>  0 0.14676058E+04</rscale>
<asrwt>0</asrwt>
<pdfrwt beam="1">  1        2 0.38494094E-01 0.14676058E+04</pdfrwt>
<pdfrwt beam="2">  1       -1 0.33108386E+00 0.14676058E+04</pdfrwt>
<totfact> 0.31042347E+00</totfact>
</mgrwt>
</event>
<event>
12    6  0.1494052E-007  0.1465833E+04  0.7818608E-02  0.8907497E-01
          2   -1    0    0  501    0  0.00000000000E+00  0.00000000000E+00  0.18351196580E+04  0.18351196580E+04  0.00000000000E+00 0. -1.
         -1   -1    0    0    0  501 -0.00000000000E+00 -0.00000000000E+00 -0.29271477754E+03  0.29271477754E+03  0.00000000000E+00 0.  1.
         24    2    1    2    0    0  0.34942248633E+03  0.26824511572E+03  0.57514402932E+03  0.72875759392E+03  0.79028223888E+02 0.  0.
        254    2    1    2    0    0 -0.34942248633E+03 -0.26824511572E+03  0.96726085119E+03  0.13990768417E+04  0.90981917907E+03 0.  0.
         23    2    4    4    0    0  0.30183498987E+03 -0.59067334176E+02  0.29547526111E+03  0.43613110126E+03  0.91166860667E+02 0.  0.
         23    2    4    4    0    0 -0.65125747620E+03 -0.20917778154E+03  0.67178559008E+03  0.96294574041E+03  0.89871994171E+02 0.  0.
          2    1    3    3  502    0  0.33852973392E+03  0.27001952504E+03  0.57172344008E+03  0.71720333002E+03  0.00000000000E+00 0. -1.
         -1    1    3    3    0  502  0.10892752411E+02 -0.17744093275E+01  0.34205892445E+01  0.11554263903E+02  0.00000000000E+00 0.  1.
         11    1    5    5    0    0  0.26864936369E+03 -0.40879181857E+02  0.29079186971E+03  0.39799937136E+03  0.00000000000E+00 0.  1.
        -11    1    5    5    0    0  0.33185626182E+02 -0.18188152319E+02  0.46833914017E+01  0.38131729897E+02  0.00000000000E+00 0. -1.
          1    1    6    6  503    0 -0.68578741854E+01 -0.11272963452E+00 -0.23174615693E+01  0.72397357989E+01  0.00000000000E+00 0. -1.
         -1    1    6    6    0  503 -0.64439960201E+03 -0.20906505191E+03  0.67410305165E+03  0.95570600461E+03  0.00000000000E+00 0.  1.
<mgrwt>
<rscale>  0 0.14658331E+04</rscale>
<asrwt>0</asrwt>
<pdfrwt beam="1">  1        2 0.28232609E+00 0.14658331E+04</pdfrwt>
<pdfrwt beam="2">  1       -1 0.45033044E-01 0.14658331E+04</pdfrwt>
<totfact> 0.44527043E+01</totfact>
</mgrwt>
</event>
<event>
12    6  0.1494052E-007  0.1171705E+04  0.7818608E-02  0.9137990E-01
         -1   -1    0    0    0  501 -0.00000000000E+00  0.00000000000E+00  0.23519366980E+03  0.23519366980E+03  0.00000000000E+00 0.  1.
          2   -1    0    0  501    0  0.00000000000E+00 -0.00000000000E+00 -0.14593214239E+04  0.14593214239E+04  0.00000000000E+00 0. -1.
         24    2    1    2    0    0  0.18171672289E+03 -0.56684351526E+02 -0.75389554943E+02  0.21962958673E+03  0.79495202933E+02 0.  0.
        254    2    1    2    0    0 -0.18171672289E+03  0.56684351526E+02 -0.11487381992E+04  0.14748855070E+04  0.90523683389E+03 0.  0.
         23    2    4    4    0    0 -0.41460065004E+03 -0.27045449048E+03 -0.51892244495E+03  0.72250744319E+03  0.87733523552E+02 0.  0.
         23    2    4    4    0    0  0.23288392715E+03  0.32713884201E+03 -0.62981575424E+03  0.75237806382E+03  0.90278021432E+02 0.  0.
          2    1    3    3  502    0  0.21297028485E+02 -0.33070701176E+02  0.31512695523E+01  0.39460932558E+02  0.00000000000E+00 0. -1.
         -1    1    3    3    0  502  0.16041969440E+03 -0.23613650350E+02 -0.78540824495E+02  0.18016865417E+03  0.00000000000E+00 0.  1.
         11    1    5    5    0    0 -0.37283761546E+03 -0.22306985732E+03 -0.41457996234E+03  0.60053692136E+03  0.00000000000E+00 0.  1.
        -11    1    5    5    0    0 -0.41763034582E+02 -0.47384633167E+02 -0.10434248261E+03  0.12197052183E+03  0.00000000000E+00 0. -1.
          1    1    6    6  503    0  0.16464929238E+03  0.15505513239E+03 -0.33193032461E+03  0.40165809336E+03  0.00000000000E+00 0.  1.
         -1    1    6    6    0  503  0.68234634774E+02  0.17208370962E+03 -0.29788542963E+03  0.35071997046E+03  0.00000000000E+00 0. -1.
<mgrwt>
<rscale>  0 0.11717050E+04</rscale>
<asrwt>0</asrwt>
<pdfrwt beam="1">  1        2 0.22451099E+00 0.11717050E+04</pdfrwt>
<pdfrwt beam="2">  1       -1 0.36183641E-01 0.11717050E+04</pdfrwt>
<totfact> 0.11013593E+02</totfact>
</mgrwt>
</event>
<event>
12    6  0.1494052E-007  0.1425020E+04  0.7818608E-02  0.8935904E-01
          2   -1    0    0  501    0  0.00000000000E+00  0.00000000000E+00  0.15197325927E+04  0.15197325927E+04  0.00000000000E+00 0. -1.
         -1   -1    0    0    0  501 -0.00000000000E+00 -0.00000000000E+00 -0.33405272461E+03  0.33405272461E+03  0.00000000000E+00 0.  1.
         24    2    1    2    0    0  0.21488816030E+03  0.36773269224E+03  0.33605499731E+03  0.54862002226E+03  0.81527377211E+02 0.  0.
        254    2    1    2    0    0 -0.21488816030E+03 -0.36773269224E+03  0.84962487081E+03  0.13051652951E+04  0.89453327048E+03 0.  0.
         23    2    4    4    0    0 -0.80304964256E+01  0.28051372619E+03  0.18079600376E+03  0.34681132264E+03  0.94013079309E+02 0.  0.
         23    2    4    4    0    0 -0.20685766387E+03 -0.64824641843E+03  0.66882886705E+03  0.95835397244E+03  0.89982059188E+02 0.  0.
          2    1    3    3  502    0  0.15719884272E+03  0.27361884888E+03  0.29145267782E+03  0.42956188614E+03  0.00000000000E+00 0. -1.
         -1    1    3    3    0  502  0.57689317579E+02  0.94113843351E+02  0.44602319497E+02  0.11905813612E+03  0.00000000000E+00 0.  1.
         11    1    5    5    0    0  0.37884732388E+02  0.12324209297E+03  0.54649526571E+02  0.14003727069E+03  0.00000000000E+00 0. -1.
        -11    1    5    5    0    0 -0.45915228813E+02  0.15727163323E+03  0.12614647719E+03  0.20677405195E+03  0.00000000000E+00 0.  1.
          1    1    6    6  503    0 -0.70340706136E+02 -0.10630750499E+03  0.12793248032E+03  0.18059850519E+03  0.00000000000E+00 0. -1.
         -1    1    6    6    0  503 -0.13651695774E+03 -0.54193891344E+03  0.54089638673E+03  0.77775546724E+03  0.00000000000E+00 0.  1.
<mgrwt>
<rscale>  0 0.14250204E+04</rscale>
<asrwt>0</asrwt>
<pdfrwt beam="1">  1        2 0.23380501E+00 0.14250204E+04</pdfrwt>
<pdfrwt beam="2">  1       -1 0.51392728E-01 0.14250204E+04</pdfrwt>
<totfact> 0.52157804E+01</totfact>
</mgrwt>
</event>
<event>
12    6  0.1494052E-007  0.2627853E+04  0.7818608E-02  0.8358801E-01
         -1   -1    0    0    0  501 -0.00000000000E+00  0.00000000000E+00  0.13099681291E+04  0.13099681291E+04  0.00000000000E+00 0.  1.
          2   -1    0    0  501    0  0.00000000000E+00 -0.00000000000E+00 -0.13178963483E+04  0.13178963483E+04  0.00000000000E+00 0. -1.
         24    2    1    2    0    0 -0.94761372147E+03 -0.50037279864E+03 -0.44758685006E+03  0.11641725747E+04  0.81357805680E+02 0.  0.
        254    2    1    2    0    0  0.94761372147E+03  0.50037279864E+03  0.43965863085E+03  0.14636919027E+04  0.89484611612E+03 0.  0.
         23    2    4    4    0    0  0.27498699196E+03  0.39911692109E+02  0.56410176678E+03  0.63520622109E+03  0.89807299873E+02 0.  0.
         23    2    4    4    0    0  0.67262672951E+03  0.46046110653E+03 -0.12444313593E+03  0.82848568159E+03  0.80319876986E+02 0.  0.
          4    1    3    3  502    0 -0.71289433012E+03 -0.39196215721E+03 -0.37375830890E+03  0.89529209316E+03  0.00000000000E+00 0. -1.
         -3    1    3    3    0  502 -0.23471939136E+03 -0.10841064142E+03 -0.73828541163E+02  0.26888048152E+03  0.00000000000E+00 0.  1.
         11    1    5    5    0    0  0.21696583818E+03 -0.74358955551E+01  0.41482999596E+03  0.46820229926E+03  0.00000000000E+00 0. -1.
        -11    1    5    5    0    0  0.58021153774E+02  0.47347587664E+02  0.14927177082E+03  0.16700392183E+03  0.00000000000E+00 0.  1.
          1    1    6    6  503    0  0.21625193963E+03  0.19112318300E+03 -0.58482486359E+02  0.29447100653E+03  0.00000000000E+00 0. -1.
         -1    1    6    6    0  503  0.45637478988E+03  0.26933792352E+03 -0.65960649570E+02  0.53401467506E+03  0.00000000000E+00 0.  1.
<mgrwt>
<rscale>  0 0.26278525E+04</rscale>
<asrwt>0</asrwt>
<pdfrwt beam="1">  1        2 0.20275328E+00 0.26278525E+04</pdfrwt>
<pdfrwt beam="2">  1       -1 0.20153356E+00 0.26278525E+04</pdfrwt>
<totfact> 0.23836013E+00</totfact>
</mgrwt>
</event>
<event>
12    6  0.1494052E-007  0.2303848E+04  0.7818608E-02  0.8476406E-01
         -1   -1    0    0    0  501 -0.00000000000E+00  0.00000000000E+00  0.21624575843E+04  0.21624575843E+04  0.00000000000E+00 0.  1.
          2   -1    0    0  501    0  0.00000000000E+00 -0.00000000000E+00 -0.61362055615E+03  0.61362055615E+03  0.00000000000E+00 0. -1.
         24    2    1    2    0    0 -0.59187814805E+03  0.30856531482E+03  0.15122335510E+04  0.16548781216E+04  0.78987270490E+02 0.  0.
        254    2    1    2    0    0  0.59187814805E+03 -0.30856531482E+03  0.36603477192E+02  0.11212000189E+04  0.90012075424E+03 0.  0.
         23    2    4    4    0    0  0.29421660056E+02 -0.43126612086E+03 -0.20962968844E+03  0.48849986945E+03  0.88495282865E+02 0.  0.
         23    2    4    4    0    0  0.56245648799E+03  0.12270080604E+03  0.24623316563E+03  0.63270014947E+03  0.90917097341E+02 0.  0.
          4    1    3    3  502    0 -0.57043799365E+03  0.29500516922E+03  0.14070633418E+04  0.15466915666E+04  0.00000000000E+00 0. -1.
         -3    1    3    3    0  502 -0.21440154400E+02  0.13560145605E+02  0.10517020923E+03  0.10818655498E+03  0.00000000000E+00 0.  1.
         11    1    5    5    0    0 -0.14456025558E+02 -0.14762061135E+03 -0.11006195239E+03  0.18470098791E+03  0.00000000000E+00 0. -1.
        -11    1    5    5    0    0  0.43877685614E+02 -0.28364550951E+03 -0.99567736046E+02  0.30379888153E+03  0.00000000000E+00 0.  1.
          2    1    6    6  503    0  0.28131966868E+03  0.30623737738E+02  0.15744320796E+03  0.32383164304E+03  0.00000000000E+00 0. -1.
         -2    1    6    6    0  503  0.28113681931E+03  0.92077068303E+02  0.88789957673E+02  0.30886850643E+03  0.00000000000E+00 0.  1.
<mgrwt>
<rscale>  0 0.23038476E+04</rscale>
<asrwt>0</asrwt>
<pdfrwt beam="1">  1        2 0.94403163E-01 0.23038476E+04</pdfrwt>
<pdfrwt beam="2">  1       -1 0.33268578E+00 0.23038476E+04</pdfrwt>
<totfact> 0.10096869E+00</totfact>
</mgrwt>
</event>
<event>
12    6  0.1494052E-007  0.1665238E+04  0.7818608E-02  0.8781443E-01
         -1   -1    0    0    0  501 -0.00000000000E+00  0.00000000000E+00  0.26685703315E+03  0.26685703315E+03  0.00000000000E+00 0.  1.
          2   -1    0    0  501    0  0.00000000000E+00 -0.00000000000E+00 -0.25978486249E+04  0.25978486249E+04  0.00000000000E+00 0. -1.
         24    2    1    2    0    0  0.40641942222E+03  0.11970228317E+02 -0.92709601252E+02  0.42499941630E+03  0.81910930709E+02 0.  0.
        254    2    1    2    0    0 -0.40641942222E+03 -0.11970228317E+02 -0.22382819905E+04  0.24397062417E+04  0.88144213873E+03 0.  0.
         23    2    4    4    0    0  0.61737566772E+01 -0.22583575783E+02 -0.18888994706E+04  0.18911984008E+04  0.90233296788E+02 0.  0.
         23    2    4    4    0    0 -0.41259317889E+03  0.10613347467E+02 -0.34938251990E+03  0.54850784099E+03  0.91907192331E+02 0.  0.
          2    1    3    3  502    0  0.21111409342E+03 -0.17587525308E+02 -0.82059225281E+02  0.22718318147E+03  0.00000000000E+00 0. -1.
         -1    1    3    3    0  502  0.19530532879E+03  0.29557753624E+02 -0.10650375971E+02  0.19781623483E+03  0.00000000000E+00 0.  1.
         11    1    5    5    0    0  0.18181471785E+02  0.24814625484E+02 -0.12692685770E+04  0.12696413085E+04  0.00000000000E+00 0. -1.
        -11    1    5    5    0    0 -0.12007715108E+02 -0.47398201267E+02 -0.61963089358E+03  0.62155709230E+03  0.00000000000E+00 0.  1.
          2    1    6    6  503    0 -0.33823278910E+03  0.28177020289E+02 -0.24254922817E+03  0.41716362758E+03  0.00000000000E+00 0. -1.
         -2    1    6    6    0  503 -0.74360389798E+02 -0.17563672823E+02 -0.10683329173E+03  0.13134421341E+03  0.00000000000E+00 0.  1.
<mgrwt>
<rscale>  0 0.16652377E+04</rscale>
<asrwt>0</asrwt>
<pdfrwt beam="1">  1        2 0.39966903E+00 0.16652377E+04</pdfrwt>
<pdfrwt beam="2">  1       -1 0.41054927E-01 0.16652377E+04</pdfrwt>
<totfact> 0.19299404E+01</totfact>
</mgrwt>
</event>
<event>
12    6  0.1494052E-007  0.1664021E+04  0.7818608E-02  0.8782155E-01
          2   -1    0    0  501    0  0.00000000000E+00  0.00000000000E+00  0.81964171097E+03  0.81964171097E+03  0.00000000000E+00 0. -1.
         -1   -1    0    0    0  501 -0.00000000000E+00 -0.00000000000E+00 -0.84456548181E+03  0.84456548181E+03  0.00000000000E+00 0.  1.
         24    2    1    2    0    0  0.29999087246E+03  0.14109902044E+03  0.47306890761E+03  0.58306338501E+03  0.79153410920E+02 0.  0.
        254    2    1    2    0    0 -0.29999087246E+03 -0.14109902044E+03 -0.49799267845E+03  0.10811438078E+04  0.90053970938E+03 0.  0.
         23    2    4    4    0    0  0.18954838083E+03 -0.11109097310E+03  0.13570008143E+03  0.27438546904E+03  0.92752792626E+02 0.  0.
         23    2    4    4    0    0 -0.48953925328E+03 -0.30008047341E+02 -0.63369275989E+03  0.80675833874E+03  0.93505827549E+02 0.  0.
          2    1    3    3  502    0  0.20233614571E+03  0.12953282475E+03  0.36477973101E+03  0.43678704273E+03  0.00000000000E+00 0. -1.
         -3    1    3    3    0  502  0.97654726747E+02  0.11566195696E+02  0.10828917660E+03  0.14627634227E+03  0.00000000000E+00 0.  1.
         11    1    5    5    0    0  0.15410657751E+03 -0.10471947261E+03  0.14624880677E+03  0.23686223561E+03  0.00000000000E+00 0. -1.
        -11    1    5    5    0    0  0.35441803313E+02 -0.63715004939E+01 -0.10548725339E+02  0.37523233428E+02  0.00000000000E+00 0.  1.
          2    1    6    6  503    0 -0.44717625132E+03 -0.41726993143E+02 -0.53366798831E+03  0.69750216018E+03  0.00000000000E+00 0. -1.
         -2    1    6    6    0  503 -0.42363001961E+02  0.11718945802E+02 -0.10002477157E+03  0.10925617856E+03  0.00000000000E+00 0.  1.
<mgrwt>
<rscale>  0 0.16640205E+04</rscale>
<asrwt>0</asrwt>
<pdfrwt beam="1">  1        2 0.12609872E+00 0.16640205E+04</pdfrwt>
<pdfrwt beam="2">  1       -1 0.12993315E+00 0.16640205E+04</pdfrwt>
<totfact> 0.18447790E+01</totfact>
</mgrwt>
</event>
<event>
12    6  0.1494052E-007  0.1632401E+04  0.7818608E-02  0.8800887E-01
         -1   -1    0    0    0  501 -0.00000000000E+00  0.00000000000E+00  0.93282495325E+03  0.93282495325E+03  0.00000000000E+00 0.  1.
          2   -1    0    0  501    0  0.00000000000E+00 -0.00000000000E+00 -0.71415644718E+03  0.71415644718E+03  0.00000000000E+00 0. -1.
         24    2    1    2    0    0 -0.31472897035E+03 -0.70804068826E+02 -0.39415200769E+03  0.51548126641E+03  0.79357355767E+02 0.  0.
        254    2    1    2    0    0  0.31472897035E+03  0.70804068826E+02  0.61282051375E+03  0.11315001340E+04  0.89480502360E+03 0.  0.
         23    2    4    4    0    0  0.45900109890E+03 -0.29106183654E+03  0.37344769034E+03  0.66553286905E+03  0.89843312964E+02 0.  0.
         23    2    4    4    0    0 -0.14427212854E+03  0.36186590536E+03  0.23937282341E+03  0.46596726497E+03  0.89804024941E+02 0.  0.
          4    1    3    3  502    0 -0.30391770596E+03 -0.77550007465E+02 -0.39280259359E+03  0.50266674167E+03  0.00000000000E+00 0. -1.
         -3    1    3    3    0  502 -0.10811264396E+02  0.67459386395E+01 -0.13494141033E+01  0.12814524743E+02  0.00000000000E+00 0.  1.
         11    1    5    5    0    0  0.39461286056E+03 -0.27432555529E+03  0.35170587570E+03  0.59554247792E+03  0.00000000000E+00 0.  1.
        -11    1    5    5    0    0  0.64388238342E+02 -0.16736281242E+02  0.21741814643E+02  0.69990391130E+02  0.00000000000E+00 0. -1.
          1    1    6    6  503    0  0.94266858383E+01  0.62379232390E+02  0.41019320554E+02  0.75250353475E+02  0.00000000000E+00 0. -1.
         -1    1    6    6    0  503 -0.15369881438E+03  0.29948667297E+03  0.19835350286E+03  0.39071691149E+03  0.00000000000E+00 0.  1.
<mgrwt>
<rscale>  0 0.16324006E+04</rscale>
<asrwt>0</asrwt>
<pdfrwt beam="1">  1        2 0.10987022E+00 0.16324006E+04</pdfrwt>
<pdfrwt beam="2">  1       -1 0.14351153E+00 0.16324006E+04</pdfrwt>
<totfact> 0.17135547E+01</totfact>
</mgrwt>
</event>
<event>
12    6  0.1494052E-007  0.1584308E+04  0.7818608E-02  0.8830246E-01
          2   -1    0    0  501    0  0.00000000000E+00  0.00000000000E+00  0.18281789940E+04  0.18281789940E+04  0.00000000000E+00 0. -1.
         -1   -1    0    0    0  501 -0.00000000000E+00 -0.00000000000E+00 -0.34324224155E+03  0.34324224155E+03  0.00000000000E+00 0.  1.
         24    2    1    2    0    0 -0.31612444007E+03 -0.30331280682E+03  0.94071166950E+03  0.10407873647E+04  0.79790808181E+02 0.  0.
        254    2    1    2    0    0  0.31612444007E+03  0.30331280682E+03  0.54422508300E+03  0.11306338709E+04  0.88894245515E+03 0.  0.
         23    2    4    4    0    0  0.68960150376E+02 -0.26408088690E+03  0.39376839595E+03  0.48749005360E+03  0.89993252785E+02 0.  0.
         23    2    4    4    0    0  0.24716428970E+03  0.56739369373E+03  0.15045668705E+03  0.64314381725E+03  0.89280262136E+02 0.  0.
          4    1    3    3  502    0 -0.20321337972E+03 -0.15891655083E+03  0.61741817169E+03  0.66914523577E+03  0.00000000000E+00 0. -1.
         -3    1    3    3    0  502 -0.11291106035E+03 -0.14439625600E+03  0.32329349781E+03  0.37164212896E+03  0.00000000000E+00 0.  1.
         11    1    5    5    0    0 -0.19280697268E+02 -0.91022598629E+02  0.12182101949E+03  0.15328802804E+03  0.00000000000E+00 0.  1.
        -11    1    5    5    0    0  0.88240847644E+02 -0.17305828827E+03  0.27194737645E+03  0.33420202557E+03  0.00000000000E+00 0. -1.
          1    1    6    6  503    0  0.15436533688E+03  0.38421765877E+03  0.58601024095E+02  0.41819367113E+03  0.00000000000E+00 0. -1.
         -1    1    6    6    0  503  0.92798952815E+02  0.18317603495E+03  0.91855662957E+02  0.22495014613E+03  0.00000000000E+00 0.  1.
<mgrwt>
<rscale>  0 0.15843084E+04</rscale>
<asrwt>0</asrwt>
<pdfrwt beam="1">  1        2 0.28125830E+00 0.15843084E+04</pdfrwt>
<pdfrwt beam="2">  1       -1 0.52806500E-01 0.15843084E+04</pdfrwt>
<totfact> 0.32907192E+01</totfact>
</mgrwt>
</event>
<event>
12    6  0.1494052E-007  0.1132626E+04  0.7818608E-02  0.9173964E-01
         -1   -1    0    0    0  501 -0.00000000000E+00  0.00000000000E+00  0.50925670800E+03  0.50925670800E+03  0.00000000000E+00 0.  1.
          2   -1    0    0  501    0  0.00000000000E+00 -0.00000000000E+00 -0.62976127952E+03  0.62976127952E+03  0.00000000000E+00 0. -1.
         24    2    1    2    0    0  0.27674183465E+03  0.19453246153E+02 -0.12027178010E+03  0.31292057762E+03  0.80557525921E+02 0.  0.
        254    2    1    2    0    0 -0.27674183465E+03 -0.19453246153E+02 -0.23279141910E+00  0.82609740990E+03  0.77812107324E+03 0.  0.
         23    2    4    4    0    0 -0.41725229910E+02 -0.23164149168E+03  0.29194384734E+03  0.38593437945E+03  0.91188594458E+02 0.  0.
         23    2    4    4    0    0 -0.23501660474E+03  0.21218824553E+03 -0.29217663876E+03  0.44016303045E+03  0.90109095522E+02 0.  0.
          2    1    3    3  502    0  0.88747997847E+02  0.22467859794E+02 -0.77856763595E+02  0.12017773289E+03  0.00000000000E+00 0. -1.
         -1    1    3    3    0  502  0.18799383680E+03 -0.30146136411E+01 -0.42415016502E+02  0.19274284473E+03  0.00000000000E+00 0.  1.
         11    1    5    5    0    0 -0.43178165912E+02 -0.13636630255E+03  0.10962092041E+03  0.18021339760E+03  0.00000000000E+00 0. -1.
        -11    1    5    5    0    0  0.14529360026E+01 -0.95275189127E+02  0.18232292693E+03  0.20572098184E+03  0.00000000000E+00 0.  1.
          2    1    6    6  503    0 -0.20335705099E+03  0.20935150680E+03 -0.28424236902E+03  0.40740135976E+03  0.00000000000E+00 0. -1.
         -2    1    6    6    0  503 -0.31659553749E+02  0.28367387276E+01 -0.79342697369E+01  0.32761670690E+02  0.00000000000E+00 0.  1.
<mgrwt>
<rscale>  0 0.11326255E+04</rscale>
<asrwt>0</asrwt>
<pdfrwt beam="1">  1        2 0.96886351E-01 0.11326255E+04</pdfrwt>
<pdfrwt beam="2">  1       -1 0.78347186E-01 0.11326255E+04</pdfrwt>
<totfact> 0.86364962E+01</totfact>
</mgrwt>
</event>
<event>
12    6  0.1494052E-007  0.1551984E+04  0.7818608E-02  0.8850602E-01
          2   -1    0    0  501    0  0.00000000000E+00  0.00000000000E+00  0.17062224783E+04  0.17062224783E+04  0.00000000000E+00 0. -1.
         -1   -1    0    0    0  501 -0.00000000000E+00 -0.00000000000E+00 -0.35292196112E+03  0.35292196112E+03  0.00000000000E+00 0.  1.
         24    2    1    2    0    0  0.13069099818E+03 -0.27616644092E+03 -0.91856716542E+02  0.32884009400E+03  0.79687583428E+02 0.  0.
        254    2    1    2    0    0 -0.13069099818E+03  0.27616644092E+03  0.14451572338E+04  0.17303043455E+04  0.90118014712E+03 0.  0.
         23    2    4    4    0    0 -0.28694890145E+03  0.34315891420E+03  0.25223368947E+03  0.52165385276E+03  0.91668945427E+02 0.  0.
         23    2    4    4    0    0  0.15625790327E+03 -0.66992473285E+02  0.11929235443E+04  0.12086504927E+04  0.94153636047E+02 0.  0.
          2    1    3    3  502    0  0.18500775035E+01 -0.42829324507E+02  0.90858104073E+01  0.43821521827E+02  0.00000000000E+00 0. -1.
         -1    1    3    3    0  502  0.12884092067E+03 -0.23333711641E+03 -0.10094252695E+03  0.28501857217E+03  0.00000000000E+00 0.  1.
         11    1    5    5    0    0 -0.25375552719E+03  0.29957612215E+03  0.18242771136E+03  0.43291753304E+03  0.00000000000E+00 0.  1.
        -11    1    5    5    0    0 -0.33193374260E+02  0.43582792053E+02  0.69805978104E+02  0.88736319717E+02  0.00000000000E+00 0. -1.
          2    1    6    6  503    0 -0.93321232116E+00  0.11549141184E+02  0.19723682550E+03  0.19757686828E+03  0.00000000000E+00 0. -1.
         -2    1    6    6    0  503  0.15719111559E+03 -0.78541614469E+02  0.99568671880E+03  0.10110736244E+04  0.00000000000E+00 0.  1.
<mgrwt>
<rscale>  0 0.15519837E+04</rscale>
<asrwt>0</asrwt>
<pdfrwt beam="1">  1        2 0.26249576E+00 0.15519837E+04</pdfrwt>
<pdfrwt beam="2">  1       -1 0.54295688E-01 0.15519837E+04</pdfrwt>
<totfact> 0.36541084E+01</totfact>
</mgrwt>
</event>
<event>
12    6  0.1494052E-007  0.2182912E+04  0.7818608E-02  0.8525574E-01
         -1   -1    0    0    0  501 -0.00000000000E+00  0.00000000000E+00  0.27618197776E+03  0.27618197776E+03  0.00000000000E+00 0.  1.
          2   -1    0    0  501    0  0.00000000000E+00 -0.00000000000E+00 -0.43133740513E+04  0.43133740513E+04  0.00000000000E+00 0. -1.
         24    2    1    2    0    0  0.40725751187E+03  0.50388245679E+03 -0.35132659168E+03  0.74130749264E+03  0.79688226152E+02 0.  0.
        254    2    1    2    0    0 -0.40725751187E+03 -0.50388245679E+03 -0.36858654819E+04  0.38482485365E+04  0.89646875937E+03 0.  0.
         23    2    4    4    0    0  0.21518330535E+03 -0.40501033154E+03 -0.14506436253E+04  0.15242129974E+04  0.92309858957E+02 0.  0.
         23    2    4    4    0    0 -0.62244081722E+03 -0.98872125246E+02 -0.22352218566E+04  0.23240355391E+04  0.87841737470E+02 0.  0.
          4    1    3    3  502    0  0.10696418269E+03  0.15834801654E+03 -0.14119891236E+03  0.23759748225E+03  0.00000000000E+00 0. -1.
         -3    1    3    3    0  502  0.30029332918E+03  0.34553444025E+03 -0.21012767932E+03  0.50371001039E+03  0.00000000000E+00 0.  1.
         11    1    5    5    0    0  0.22013364076E+03 -0.40622309794E+03 -0.14416037941E+04  0.15138353690E+04  0.00000000000E+00 0.  1.
        -11    1    5    5    0    0 -0.49503354035E+01  0.12127663966E+01 -0.90398311909E+01  0.10377628385E+02  0.00000000000E+00 0. -1.
          1    1    6    6  503    0  0.24298608602E+01 -0.27157245500E+01 -0.75033781675E+01  0.83414667509E+01  0.00000000000E+00 0. -1.
         -1    1    6    6    0  503 -0.62487067808E+03 -0.96156400696E+02 -0.22277184784E+04  0.23156940724E+04  0.00000000000E+00 0.  1.
<mgrwt>
<rscale>  0 0.21829120E+04</rscale>
<asrwt>0</asrwt>
<pdfrwt beam="1">  1        2 0.66359599E+00 0.21829120E+04</pdfrwt>
<pdfrwt beam="2">  1       -1 0.42489536E-01 0.21829120E+04</pdfrwt>
<totfact> 0.10578145E+00</totfact>
</mgrwt>
</event>
<event>
12    6  0.1494052E-007  0.1936425E+04  0.7818608E-02  0.8636935E-01
         -1   -1    0    0    0  501 -0.00000000000E+00  0.00000000000E+00  0.81917960338E+03  0.81917960338E+03  0.00000000000E+00 0.  1.
          2   -1    0    0  501    0  0.00000000000E+00 -0.00000000000E+00 -0.11443587655E+04  0.11443587655E+04  0.00000000000E+00 0. -1.
         24    2    1    2    0    0  0.53658644643E+03 -0.48718346537E+03 -0.35952218635E+03  0.81299705945E+03  0.80220151918E+02 0.  0.
        254    2    1    2    0    0 -0.53658644643E+03  0.48718346537E+03  0.34343024273E+02  0.11505413094E+04  0.89291271570E+03 0.  0.
         23    2    4    4    0    0  0.69304058691E+01  0.23695163600E+02  0.35182848288E+03  0.36364866370E+03  0.88586556227E+02 0.  0.
         23    2    4    4    0    0 -0.54351685230E+03  0.46348830177E+03 -0.31748545860E+03  0.78689264568E+03  0.90393831585E+02 0.  0.
          4    1    3    3  502    0  0.36504836540E+03 -0.34989897485E+03 -0.28809048730E+03  0.58196712154E+03  0.00000000000E+00 0. -1.
         -3    1    3    3    0  502  0.17153808103E+03 -0.13728449052E+03 -0.71431699051E+02  0.23102993791E+03  0.00000000000E+00 0.  1.
         11    1    5    5    0    0 -0.30316263100E+02  0.53602444703E+01  0.27137324618E+03  0.27311398128E+03  0.00000000000E+00 0. -1.
        -11    1    5    5    0    0  0.37246668970E+02  0.18334919130E+02  0.80455236700E+02  0.90534682422E+02  0.00000000000E+00 0.  1.
          3    1    6    6  503    0 -0.14411546955E+03  0.15717265047E+03 -0.13014179917E+03  0.24981873131E+03  0.00000000000E+00 0. -1.
         -3    1    6    6    0  503 -0.39940138274E+03  0.30631565130E+03 -0.18734365944E+03  0.53707391437E+03  0.00000000000E+00 0.  1.
<mgrwt>
<rscale>  0 0.19364249E+04</rscale>
<asrwt>0</asrwt>
<pdfrwt beam="1">  1        2 0.17605520E+00 0.19364249E+04</pdfrwt>
<pdfrwt beam="2">  1       -1 0.12602763E+00 0.19364249E+04</pdfrwt>
<totfact> 0.11949605E+01</totfact>
</mgrwt>
</event>
<event>
12    6  0.1494052E-007  0.1752987E+04  0.7818608E-02  0.8731708E-01
          2   -1    0    0  501    0  0.00000000000E+00  0.00000000000E+00  0.24214413212E+04  0.24214413212E+04  0.00000000000E+00 0. -1.
         -1   -1    0    0    0  501 -0.00000000000E+00 -0.00000000000E+00 -0.31726596360E+03  0.31726596360E+03  0.00000000000E+00 0.  1.
         24    2    1    2    0    0  0.19440620326E+03 -0.73231081678E+01  0.17243879506E+04  0.17375674455E+04  0.88201041903E+02 0.  0.
        254    2    1    2    0    0 -0.19440620326E+03  0.73231081678E+01  0.37978740701E+03  0.10011398393E+04  0.90564623529E+03 0.  0.
         23    2    4    4    0    0  0.71538574086E+02  0.17483734672E+03 -0.22909327977E+03  0.31003042407E+03  0.89158665435E+02 0.  0.
         23    2    4    4    0    0 -0.26594477734E+03 -0.16751423855E+03  0.60888068678E+03  0.69110941522E+03  0.90049366188E+02 0.  0.
          2    1    3    3  502    0  0.17531267029E+03  0.12053084415E+02  0.16266551318E+04  0.16361194110E+04  0.00000000000E+00 0. -1.
         -1    1    3    3    0  502  0.19093532967E+02 -0.19376192583E+02  0.97732818802E+02  0.10144803454E+03  0.00000000000E+00 0.  1.
         11    1    5    5    0    0  0.47993844407E+02  0.71114236147E+02 -0.43673770193E+02  0.96270669919E+02  0.00000000000E+00 0.  1.
        -11    1    5    5    0    0  0.23544729678E+02  0.10372311057E+03 -0.18541950957E+03  0.21375975415E+03  0.00000000000E+00 0. -1.
          2    1    6    6  503    0 -0.16869965695E+03 -0.11293638557E+03  0.47698380936E+03  0.51838957921E+03  0.00000000000E+00 0. -1.
         -2    1    6    6    0  503 -0.97245120395E+02 -0.54577852983E+02  0.13189687742E+03  0.17271983600E+03  0.00000000000E+00 0.  1.
<mgrwt>
<rscale>  0 0.17529871E+04</rscale>
<asrwt>0</asrwt>
<pdfrwt beam="1">  1        2 0.37252942E+00 0.17529871E+04</pdfrwt>
<pdfrwt beam="2">  1       -1 0.48810150E-01 0.17529871E+04</pdfrwt>
<totfact> 0.17540282E+01</totfact>
</mgrwt>
</event>
<event>
12    6  0.1494052E-007  0.1433328E+04  0.7818608E-02  0.8930041E-01
          2   -1    0    0  501    0  0.00000000000E+00  0.00000000000E+00  0.15255182725E+04  0.15255182725E+04  0.00000000000E+00 0. -1.
         -1   -1    0    0    0  501 -0.00000000000E+00 -0.00000000000E+00 -0.33667712642E+03  0.33667712642E+03  0.00000000000E+00 0.  1.
         24    2    1    2    0    0  0.21724041550E+03  0.19506128800E+02  0.83637081681E+03  0.86736567404E+03  0.72340736052E+02 0.  0.
        254    2    1    2    0    0 -0.21724041550E+03 -0.19506128800E+02  0.35247032924E+03  0.99482972485E+03  0.90436550203E+03 0.  0.
         23    2    4    4    0    0 -0.30464852076E+03 -0.16687992136E+03 -0.19818715835E+03  0.41034875078E+03  0.91914733188E+02 0.  0.
         23    2    4    4    0    0  0.87408105257E+02  0.14737379256E+03  0.55065748759E+03  0.58448097407E+03  0.95053294599E+02 0.  0.
          4    1    3    3  502    0  0.20379116143E+03  0.25666524427E+02  0.81985560594E+03  0.84519395558E+03  0.00000000000E+00 0. -1.
         -3    1    3    3    0  502  0.13449254066E+02 -0.61603956272E+01  0.16515210875E+02  0.22171718460E+02  0.00000000000E+00 0.  1.
         11    1    5    5    0    0 -0.19881198992E+03 -0.15629428632E+03 -0.14291574303E+03  0.29048067212E+03  0.00000000000E+00 0.  1.
        -11    1    5    5    0    0 -0.10583653084E+03 -0.10585635046E+02 -0.55271415319E+02  0.11986807866E+03  0.00000000000E+00 0. -1.
          1    1    6    6  503    0  0.89820304083E+02  0.64569664428E+02  0.35979499151E+03  0.37641647746E+03  0.00000000000E+00 0. -1.
         -1    1    6    6    0  503 -0.24121988262E+01  0.82804128134E+02  0.19086249608E+03  0.20806449661E+03  0.00000000000E+00 0.  1.
<mgrwt>
<rscale>  0 0.14333277E+04</rscale>
<asrwt>0</asrwt>
<pdfrwt beam="1">  1        2 0.23469512E+00 0.14333277E+04</pdfrwt>
<pdfrwt beam="2">  1       -1 0.51796482E-01 0.14333277E+04</pdfrwt>
<totfact> 0.50965208E+01</totfact>
</mgrwt>
</event>
<event>
12    6  0.1494052E-007  0.2658836E+04  0.7818608E-02  0.8348486E-01
          2   -1    0    0  501    0  0.00000000000E+00  0.00000000000E+00  0.13349452785E+04  0.13349452785E+04  0.00000000000E+00 0. -1.
         -1   -1    0    0    0  501 -0.00000000000E+00 -0.00000000000E+00 -0.13239138606E+04  0.13239138606E+04  0.00000000000E+00 0.  1.
         24    2    1    2    0    0  0.24493911995E+03 -0.70068886655E+03  0.91580852132E+03  0.11816236575E+04  0.81050355447E+02 0.  0.
        254    2    1    2    0    0 -0.24493911995E+03  0.70068886655E+03 -0.90477710334E+03  0.14772354816E+04  0.90146713812E+03 0.  0.
         23    2    4    4    0    0 -0.53269704247E+03  0.67395199249E+03 -0.66541858315E+03  0.10905128194E+04  0.91972230589E+02 0.  0.
         23    2    4    4    0    0  0.28775792253E+03  0.26736874058E+02 -0.23935852019E+03  0.38672266219E+03  0.93500983168E+02 0.  0.
          2    1    3    3  502    0  0.20165273117E+03 -0.54212546680E+03  0.66032281444E+03  0.87783259510E+03  0.00000000000E+00 0. -1.
         -1    1    3    3    0  502  0.43286388780E+02 -0.15856339975E+03  0.25548570688E+03  0.30379106243E+03  0.00000000000E+00 0.  1.
         11    1    5    5    0    0 -0.24929914852E+03  0.25329508437E+03 -0.30435359487E+03  0.46790979465E+03  0.00000000000E+00 0.  1.
        -11    1    5    5    0    0 -0.28339789395E+03  0.42065690812E+03 -0.36106498828E+03  0.62260302473E+03  0.00000000000E+00 0. -1.
          3    1    6    6  503    0  0.17717641543E+03  0.61865935107E+02 -0.14441441707E+03  0.23680033777E+03  0.00000000000E+00 0. -1.
         -3    1    6    6    0  503  0.11058150709E+03 -0.35129061049E+02 -0.94944103124E+02  0.14992232442E+03  0.00000000000E+00 0.  1.
<mgrwt>
<rscale>  0 0.26588363E+04</rscale>
<asrwt>0</asrwt>
<pdfrwt beam="1">  1        2 0.20537620E+00 0.26588363E+04</pdfrwt>
<pdfrwt beam="2">  1       -1 0.20367905E+00 0.26588363E+04</pdfrwt>
<totfact> 0.22462180E+00</totfact>
</mgrwt>
</event>
<event>
12    6  0.1494052E-007  0.1361538E+04  0.7818608E-02  0.8982140E-01
          2   -1    0    0  501    0  0.00000000000E+00  0.00000000000E+00  0.17260499289E+04  0.17260499289E+04  0.00000000000E+00 0. -1.
         -1   -1    0    0    0  501 -0.00000000000E+00 -0.00000000000E+00 -0.26850097786E+03  0.26850097786E+03  0.00000000000E+00 0.  1.
         24    2    1    2    0    0  0.36663446979E+02 -0.23059426496E+03 -0.15907708823E+02  0.24778235363E+03  0.81394816734E+02 0.  0.
        254    2    1    2    0    0 -0.36663446979E+02  0.23059426496E+03  0.14734566598E+04  0.17467685531E+04  0.90862969702E+03 0.  0.
         23    2    4    4    0    0  0.16438718865E+03  0.52034210999E+03  0.70311054093E+03  0.89467339503E+03  0.91087824577E+02 0.  0.
         23    2    4    4    0    0 -0.20105063563E+03 -0.28974784502E+03  0.77034611892E+03  0.85209515808E+03  0.90872678565E+02 0.  0.
          4    1    3    3  502    0 -0.17595608266E+01 -0.69555095674E+02 -0.40346039494E+02  0.80428914524E+02  0.00000000000E+00 0. -1.
         -3    1    3    3    0  502  0.38423007806E+02 -0.16103916929E+03  0.24438330672E+02  0.16735343911E+03  0.00000000000E+00 0.  1.
         11    1    5    5    0    0  0.16063189822E+03  0.40624660356E+03  0.58839581939E+03  0.73283596385E+03  0.00000000000E+00 0. -1.
        -11    1    5    5    0    0  0.37552904227E+01  0.11409550643E+03  0.11471472154E+03  0.16183743118E+03  0.00000000000E+00 0.  1.
          3    1    6    6  503    0 -0.13468828616E+03 -0.18058312458E+03  0.38434485866E+03  0.44550215453E+03  0.00000000000E+00 0. -1.
         -3    1    6    6    0  503 -0.66362349467E+02 -0.10916472045E+03  0.38600126026E+03  0.40659300355E+03  0.00000000000E+00 0.  1.
<mgrwt>
<rscale>  0 0.13615375E+04</rscale>
<asrwt>0</asrwt>
<pdfrwt beam="1">  1        2 0.26554614E+00 0.13615375E+04</pdfrwt>
<pdfrwt beam="2">  1       -1 0.41307844E-01 0.13615375E+04</pdfrwt>
<totfact> 0.60545789E+01</totfact>
</mgrwt>
</event>
<event>
12    6  0.1494052E-007  0.2186621E+04  0.7818608E-02  0.8524018E-01
         -1   -1    0    0    0  501 -0.00000000000E+00  0.00000000000E+00  0.80799287302E+03  0.80799287302E+03  0.00000000000E+00 0.  1.
          2   -1    0    0  501    0  0.00000000000E+00 -0.00000000000E+00 -0.14793786733E+04  0.14793786733E+04  0.00000000000E+00 0. -1.
         24    2    1    2    0    0 -0.60407997647E+03 -0.29159821326E+03  0.30870794906E+03  0.74268857350E+03  0.79646616001E+02 0.  0.
        254    2    1    2    0    0  0.60407997647E+03  0.29159821326E+03 -0.98009374931E+03  0.15446829728E+04  0.98768395403E+03 0.  0.
         23    2    4    4    0    0  0.52733973929E+03  0.44413741605E+03 -0.17575181897E+03  0.71738436363E+03  0.91686304025E+02 0.  0.
         23    2    4    4    0    0  0.76740237184E+02 -0.15253920279E+03 -0.80434193034E+03  0.82729860916E+03  0.91103103260E+02 0.  0.
          2    1    3    3  502    0 -0.22318790718E+03 -0.14763634818E+03  0.10595392313E+03  0.28781168677E+03  0.00000000000E+00 0. -1.
         -1    1    3    3    0  502 -0.38089206930E+03 -0.14396186508E+03  0.20275402593E+03  0.45487688673E+03  0.00000000000E+00 0.  1.
         11    1    5    5    0    0  0.17348977705E+03  0.13304177618E+03 -0.99062621374E+02  0.24002545679E+03  0.00000000000E+00 0.  1.
        -11    1    5    5    0    0  0.35384996223E+03  0.31109563987E+03 -0.76689197594E+02  0.47735890685E+03  0.00000000000E+00 0. -1.
          3    1    6    6  503    0  0.53824488331E+02 -0.14180075408E+03 -0.76909218705E+03  0.78390517385E+03  0.00000000000E+00 0. -1.
         -3    1    6    6    0  503  0.22915748853E+02 -0.10738448710E+02 -0.35249743283E+02  0.43393435306E+02  0.00000000000E+00 0.  1.
<mgrwt>
<rscale>  0 0.21866206E+04</rscale>
<asrwt>0</asrwt>
<pdfrwt beam="1">  1        2 0.22759672E+00 0.21866206E+04</pdfrwt>
<pdfrwt beam="2">  1       -1 0.12430660E+00 0.21866206E+04</pdfrwt>
<totfact> 0.77138129E+00</totfact>
</mgrwt>
</event>
<event>
12    6  0.1494052E-007  0.1560352E+04  0.7818608E-02  0.8845282E-01
         -1   -1    0    0    0  501 -0.00000000000E+00  0.00000000000E+00  0.85327125284E+03  0.85327125284E+03  0.00000000000E+00 0.  1.
          2   -1    0    0  501    0  0.00000000000E+00 -0.00000000000E+00 -0.71334280862E+03  0.71334280862E+03  0.00000000000E+00 0. -1.
         24    2    1    2    0    0  0.29831642837E+03 -0.62255904470E+02  0.46492442990E+03  0.56164655752E+03  0.80147619938E+02 0.  0.
        254    2    1    2    0    0 -0.29831642837E+03  0.62255904470E+02 -0.32499598569E+03  0.10049675039E+04  0.90081563273E+03 0.  0.
         23    2    4    4    0    0  0.75363263031E+02  0.39800216206E+03 -0.28612504104E+02  0.41589392385E+03  0.89798318953E+02 0.  0.
         23    2    4    4    0    0 -0.37367969140E+03 -0.33574625759E+03 -0.29638348158E+03  0.58907358008E+03  0.82476986763E+02 0.  0.
          2    1    3    3  502    0  0.12402695730E+03 -0.53642307125E+02  0.25562992928E+03  0.28914848088E+03  0.00000000000E+00 0. -1.
         -1    1    3    3    0  502  0.17428947107E+03 -0.86135973453E+01  0.20929450063E+03  0.27249807665E+03  0.00000000000E+00 0.  1.
         11    1    5    5    0    0  0.93975321691E+02  0.33488993890E+03 -0.35988312584E+02  0.34968241435E+03  0.00000000000E+00 0.  1.
        -11    1    5    5    0    0 -0.18612058659E+02  0.63112223160E+02  0.73758084804E+01  0.66211509501E+02  0.00000000000E+00 0. -1.
          3    1    6    6  503    0 -0.55368181229E+02 -0.31169406745E+02 -0.67155868872E+02  0.92450409049E+02  0.00000000000E+00 0. -1.
         -3    1    6    6    0  503 -0.31831151017E+03 -0.30457685084E+03 -0.22922761271E+03  0.49662317103E+03  0.00000000000E+00 0.  1.
<mgrwt>
<rscale>  0 0.15603524E+04</rscale>
<asrwt>0</asrwt>
<pdfrwt beam="1">  1        2 0.10974505E+00 0.15603524E+04</pdfrwt>
<pdfrwt beam="2">  1       -1 0.13127250E+00 0.15603524E+04</pdfrwt>
<totfact> 0.21744368E+01</totfact>
</mgrwt>
</event>
<event>
12    6  0.1494052E-007  0.2719466E+04  0.7818608E-02  0.8328717E-01
          2   -1    0    0  501    0  0.00000000000E+00  0.00000000000E+00  0.20265762171E+04  0.20265762171E+04  0.00000000000E+00 0. -1.
         -1   -1    0    0    0  501 -0.00000000000E+00 -0.00000000000E+00 -0.91231386081E+03  0.91231386081E+03  0.00000000000E+00 0.  1.
         24    2    1    2    0    0  0.83832714728E+03  0.82283361066E+03  0.54551892231E+03  0.12977383313E+04  0.81769952419E+02 0.  0.
        254    2    1    2    0    0 -0.83832714728E+03 -0.82283361066E+03  0.56874343394E+03  0.16411517466E+04  0.99501879633E+03 0.  0.
         23    2    4    4    0    0 -0.28380445082E+03 -0.50428243057E+03  0.76738383071E+03  0.96534492857E+03  0.90372293185E+02 0.  0.
         23    2    4    4    0    0 -0.55452269646E+03 -0.31855118009E+03 -0.19864039677E+03  0.67580681805E+03  0.91030614994E+02 0.  0.
          2    1    3    3  502    0  0.72937642405E+03  0.74973976635E+03  0.49414884048E+03  0.11568417185E+04  0.00000000000E+00 0. -1.
         -1    1    3    3    0  502  0.10895072323E+03  0.73093844318E+02  0.51370081826E+02  0.14089661272E+03  0.00000000000E+00 0.  1.
         11    1    5    5    0    0 -0.11471756744E+03 -0.27863210990E+03  0.35290027832E+03  0.46404157075E+03  0.00000000000E+00 0.  1.
        -11    1    5    5    0    0 -0.16908688338E+03 -0.22565032068E+03  0.41448355239E+03  0.50130335782E+03  0.00000000000E+00 0. -1.
          4    1    6    6  503    0 -0.21194053014E+03 -0.16529178663E+03 -0.57595359149E+02  0.27487704240E+03  0.00000000000E+00 0. -1.
         -4    1    6    6    0  503 -0.34258216632E+03 -0.15325939346E+03 -0.14104503762E+03  0.40092977565E+03  0.00000000000E+00 0.  1.
<mgrwt>
<rscale>  0 0.27194658E+04</rscale>
<asrwt>0</asrwt>
<pdfrwt beam="1">  1        2 0.31178096E+00 0.27194658E+04</pdfrwt>
<pdfrwt beam="2">  1       -1 0.14035598E+00 0.27194658E+04</pdfrwt>
<totfact> 0.26790924E+00</totfact>
</mgrwt>
</event>
<event>
12    6  0.1494052E-007  0.1245606E+04  0.7818608E-02  0.9073849E-01
          2   -1    0    0  501    0  0.00000000000E+00  0.00000000000E+00  0.42550389917E+03  0.42550389917E+03  0.00000000000E+00 0. -1.
         -1   -1    0    0    0  501 -0.00000000000E+00 -0.00000000000E+00 -0.91158575817E+03  0.91158575817E+03  0.00000000000E+00 0.  1.
         24    2    1    2    0    0 -0.93071101156E+02  0.52926233185E+01 -0.40343564711E+03  0.42210462901E+03  0.81986308283E+02 0.  0.
        254    2    1    2    0    0  0.93071101156E+02 -0.52926233185E+01 -0.82646211886E+02  0.91498502833E+03  0.90646398935E+03 0.  0.
         23    2    4    4    0    0 -0.15882828770E+03  0.80755816876E+02  0.34715862444E+03  0.40180340977E+03  0.95806798556E+02 0.  0.
         23    2    4    4    0    0  0.25189938886E+03 -0.86048440194E+02 -0.42980483632E+03  0.51318161856E+03  0.88122302107E+02 0.  0.
          4    1    3    3  502    0 -0.59405927023E+02  0.43183300262E+02 -0.24206003157E+03  0.25295636080E+03  0.00000000000E+00 0. -1.
         -3    1    3    3    0  502 -0.33665174133E+02 -0.37890676944E+02 -0.16137561554E+03  0.16914826821E+03  0.00000000000E+00 0.  1.
         11    1    5    5    0    0 -0.16291772038E+03  0.52913798606E+02  0.27084839813E+03  0.32046982458E+03  0.00000000000E+00 0.  1.
        -11    1    5    5    0    0  0.40894326793E+01  0.27842018270E+02  0.76310226309E+02  0.81333585193E+02  0.00000000000E+00 0. -1.
          2    1    6    6  503    0  0.94761858185E+02  0.67358748970E+01 -0.11351012960E+03  0.14801936123E+03  0.00000000000E+00 0. -1.
         -2    1    6    6    0  503  0.15713753067E+03 -0.92784315091E+02 -0.31629470672E+03  0.36516225732E+03  0.00000000000E+00 0.  1.
<mgrwt>
<rscale>  0 0.12456055E+04</rscale>
<asrwt>0</asrwt>
<pdfrwt beam="1">  1        2 0.65462139E-01 0.12456055E+04</pdfrwt>
<pdfrwt beam="2">  1       -1 0.14024396E+00 0.12456055E+04</pdfrwt>
<totfact> 0.34827608E+01</totfact>
</mgrwt>
</event>
<event>
12    6  0.1494052E-007  0.2104029E+04  0.7818608E-02  0.8559471E-01
         -1   -1    0    0    0  501 -0.00000000000E+00  0.00000000000E+00  0.95483369620E+03  0.95483369620E+03  0.00000000000E+00 0.  1.
          2   -1    0    0  501    0  0.00000000000E+00 -0.00000000000E+00 -0.11590862382E+04  0.11590862382E+04  0.00000000000E+00 0. -1.
         24    2    1    2    0    0  0.54567187887E+03  0.34977378736E+03  0.48431335653E+03  0.81301204584E+03  0.79559145601E+02 0.  0.
        254    2    1    2    0    0 -0.54567187887E+03 -0.34977378736E+03 -0.68856589855E+03  0.13009078886E+04  0.89338616299E+03 0.  0.
         23    2    4    4    0    0 -0.22548962251E+03 -0.60470117314E+03 -0.26082698699E+03  0.70196739632E+03  0.90655555266E+02 0.  0.
         23    2    4    4    0    0 -0.32018225636E+03  0.25492738578E+03 -0.42773891155E+03  0.59894049226E+03  0.90909226684E+02 0.  0.
          2    1    3    3  502    0  0.21808057803E+03  0.15763716423E+03  0.24645001258E+03  0.36489207002E+03  0.00000000000E+00 0. -1.
         -1    1    3    3    0  502  0.32759130084E+03  0.19213662312E+03  0.23786334395E+03  0.44811997582E+03  0.00000000000E+00 0.  1.
         11    1    5    5    0    0 -0.22448648887E+03 -0.57187741058E+03 -0.22736199083E+03  0.65508124022E+03  0.00000000000E+00 0. -1.
        -11    1    5    5    0    0 -0.10031336407E+01 -0.32823762555E+02 -0.33464996164E+02  0.46886156098E+02  0.00000000000E+00 0.  1.
          1    1    6    6  503    0 -0.28730600585E+03  0.22992574236E+03 -0.41723410135E+03  0.55632264319E+03  0.00000000000E+00 0. -1.
         -1    1    6    6    0  503 -0.32876250516E+02  0.25001643424E+02 -0.10504810206E+02  0.42617849070E+02  0.00000000000E+00 0.  1.
<mgrwt>
<rscale>  0 0.21040291E+04</rscale>
<asrwt>0</asrwt>
<pdfrwt beam="1">  1        2 0.17832096E+00 0.21040291E+04</pdfrwt>
<pdfrwt beam="2">  1       -1 0.14689749E+00 0.21040291E+04</pdfrwt>
<totfact> 0.77715667E+00</totfact>
</mgrwt>
</event>
<event>
12    6  0.1494052E-007  0.1537484E+04  0.7818608E-02  0.8859902E-01
         -1   -1    0    0    0  501 -0.00000000000E+00  0.00000000000E+00  0.19431081640E+03  0.19431081640E+03  0.00000000000E+00 0.  1.
          2   -1    0    0  501    0  0.00000000000E+00 -0.00000000000E+00 -0.30413361859E+04  0.30413361859E+04  0.00000000000E+00 0. -1.
         24    2    1    2    0    0  0.26729349695E+03 -0.37251020032E+03 -0.12064250829E+04  0.12929195778E+04  0.77265070868E+02 0.  0.
        254    2    1    2    0    0 -0.26729349695E+03  0.37251020032E+03 -0.16406002866E+04  0.19427274245E+04  0.93402937996E+03 0.  0.
         23    2    4    4    0    0  0.23163532186E+03  0.41337290585E+02 -0.74479878964E+02  0.26349254422E+03  0.92289623280E+02 0.  0.
         23    2    4    4    0    0 -0.49892881881E+03  0.33117290974E+03 -0.15661204076E+04  0.16792348803E+04  0.92147650699E+02 0.  0.
          4    1    3    3  502    0  0.91331242474E+02 -0.87360402548E+02 -0.26381527641E+03  0.29252647035E+03  0.00000000000E+00 0. -1.
         -3    1    3    3    0  502  0.17596225447E+03 -0.28514979777E+03 -0.94260980649E+03  0.10003931075E+04  0.00000000000E+00 0.  1.
         11    1    5    5    0    0  0.85403909858E+02  0.24636225473E+02  0.16579431574E+02  0.90419295374E+02  0.00000000000E+00 0.  1.
        -11    1    5    5    0    0  0.14623141200E+03  0.16701065112E+02 -0.91059310538E+02  0.17307324885E+03  0.00000000000E+00 0. -1.
          1    1    6    6  503    0 -0.21580746507E+03  0.14949778516E+03 -0.56277095068E+03  0.62099403594E+03  0.00000000000E+00 0. -1.
         -1    1    6    6    0  503 -0.28312135374E+03  0.18167512457E+03 -0.10033494570E+04  0.10582408443E+04  0.00000000000E+00 0.  1.
<mgrwt>
<rscale>  0 0.15374843E+04</rscale>
<asrwt>0</asrwt>
<pdfrwt beam="1">  1        2 0.46789786E+00 0.15374843E+04</pdfrwt>
<pdfrwt beam="2">  1       -1 0.29893973E-01 0.15374843E+04</pdfrwt>
<totfact> 0.18606490E+01</totfact>
</mgrwt>
</event>
<event>
12    6  0.1494052E-007  0.1411255E+04  0.7818608E-02  0.8945712E-01
          2   -1    0    0  501    0  0.00000000000E+00  0.00000000000E+00  0.10128502006E+04  0.10128502006E+04  0.00000000000E+00 0. -1.
         -1   -1    0    0    0  501 -0.00000000000E+00 -0.00000000000E+00 -0.49159309699E+03  0.49159309699E+03  0.00000000000E+00 0.  1.
         24    2    1    2    0    0  0.91485033150E+02 -0.11377901728E+03  0.58138505048E+03  0.60460939045E+03  0.78922506545E+02 0.  0.
        254    2    1    2    0    0 -0.91485033150E+02  0.11377901728E+03 -0.60127946881E+02  0.89983390712E+03  0.88587274162E+03 0.  0.
         23    2    4    4    0    0  0.20569821445E+03 -0.72816760261E+02  0.30458724838E+03  0.38578882133E+03  0.91899873683E+02 0.  0.
         23    2    4    4    0    0 -0.29718324760E+03  0.18659577754E+03 -0.36471519526E+03  0.51404508579E+03  0.89940589993E+02 0.  0.
          4    1    3    3  502    0  0.64595070845E+02 -0.11874701429E+03  0.52219597607E+03  0.53940894876E+03  0.00000000000E+00 0. -1.
         -3    1    3    3    0  502  0.26889962305E+02  0.49679970160E+01  0.59189074403E+02  0.65200441684E+02  0.00000000000E+00 0.  1.
         11    1    5    5    0    0 -0.66853992124E+00 -0.22075513477E+02  0.15445766762E+02  0.26950824696E+02  0.00000000000E+00 0.  1.
        -11    1    5    5    0    0  0.20636675437E+03 -0.50741246784E+02  0.28914148162E+03  0.35883799663E+03  0.00000000000E+00 0. -1.
          3    1    6    6  503    0 -0.19819633062E+03  0.17153392707E+03 -0.26525030240E+03  0.37291204932E+03  0.00000000000E+00 0. -1.
         -3    1    6    6    0  503 -0.98986916979E+02  0.15061850472E+02 -0.99464892856E+02  0.14113303647E+03  0.00000000000E+00 0.  1.
<mgrwt>
<rscale>  0 0.14112550E+04</rscale>
<asrwt>0</asrwt>
<pdfrwt beam="1">  1        2 0.15582311E+00 0.14112550E+04</pdfrwt>
<pdfrwt beam="2">  1       -1 0.75629708E-01 0.14112550E+04</pdfrwt>
<totfact> 0.48183605E+01</totfact>
</mgrwt>
</event>
<event>
12    6  0.1494052E-007  0.1808862E+04  0.7818608E-02  0.8701601E-01
         -3   -1    0    0    0  501 -0.00000000000E+00  0.00000000000E+00  0.31682567306E+03  0.31682567306E+03  0.00000000000E+00 0.  1.
          2   -1    0    0  501    0  0.00000000000E+00 -0.00000000000E+00 -0.25818459554E+04  0.25818459554E+04  0.00000000000E+00 0. -1.
         24    2    1    2    0    0  0.15630737715E+03  0.66001949628E+02  0.19565084505E+03  0.27035198721E+03  0.77605994069E+02 0.  0.
        254    2    1    2    0    0 -0.15630737715E+03 -0.66001949628E+02 -0.24606711274E+04  0.26283196413E+04  0.90795015609E+03 0.  0.
         23    2    4    4    0    0 -0.16757791061E+03  0.33889422179E+03 -0.54925641294E+03  0.67242508568E+03  0.86840307467E+02 0.  0.
         23    2    4    4    0    0  0.11270533467E+02 -0.40489617141E+03 -0.19114147145E+04  0.19558945556E+04  0.89159225003E+02 0.  0.
          2    1    3    3  502    0  0.86466230939E+02  0.17595642473E+02  0.49185875242E+02  0.10102111685E+03  0.00000000000E+00 0. -1.
         -1    1    3    3    0  502  0.69841146208E+02  0.48406307154E+02  0.14646496980E+03  0.16933087036E+03  0.00000000000E+00 0.  1.
         11    1    5    5    0    0 -0.80960978199E+02  0.19143574479E+03 -0.37193640174E+03  0.42607395052E+03  0.00000000000E+00 0.  1.
        -11    1    5    5    0    0 -0.86616932415E+02  0.14745847699E+03 -0.17732001121E+03  0.24635113516E+03  0.00000000000E+00 0. -1.
          2    1    6    6  503    0 -0.35766379153E+02 -0.12146202345E+03 -0.64283985512E+03  0.65519106858E+03  0.00000000000E+00 0. -1.
         -2    1    6    6    0  503  0.47036912620E+02 -0.28343414796E+03 -0.12685748593E+04  0.13007034870E+04  0.00000000000E+00 0.  1.
<mgrwt>
<rscale>  0 0.18088616E+04</rscale>
<asrwt>0</asrwt>
<pdfrwt beam="1">  1        2 0.39720706E+00 0.18088616E+04</pdfrwt>
<pdfrwt beam="2">  1       -3 0.48742412E-01 0.18088616E+04</pdfrwt>
<totfact> 0.79376967E+00</totfact>
</mgrwt>
</event>
<event>
12    6  0.1494052E-007  0.1304694E+04  0.7818608E-02  0.9025851E-01
          2   -1    0    0  501    0  0.00000000000E+00  0.00000000000E+00  0.25866136925E+03  0.25866136925E+03  0.00000000000E+00 0. -1.
         -1   -1    0    0    0  501 -0.00000000000E+00 -0.00000000000E+00 -0.16452267766E+04  0.16452267766E+04  0.00000000000E+00 0.  1.
         24    2    1    2    0    0  0.34438983009E+02 -0.11865710450E+03  0.85943627594E+02  0.17023979095E+03  0.79559583318E+02 0.  0.
        254    2    1    2    0    0 -0.34438983009E+02  0.11865710450E+03 -0.14725090350E+04  0.17336483549E+04  0.90663565366E+03 0.  0.
         23    2    4    4    0    0 -0.33022583927E+03 -0.22690161161E+03 -0.44014965636E+03  0.60186147768E+03  0.89286460542E+02 0.  0.
         23    2    4    4    0    0  0.29578685626E+03  0.34555871612E+03 -0.10323593786E+04  0.11317868773E+04  0.90966797823E+02 0.  0.
          2    1    3    3  502    0  0.15838637687E+02 -0.38635420220E+02  0.77008143714E+02  0.87600298730E+02  0.00000000000E+00 0. -1.
         -1    1    3    3    0  502  0.18600345321E+02 -0.80021684282E+02  0.89354838803E+01  0.82639492215E+02  0.00000000000E+00 0.  1.
         11    1    5    5    0    0 -0.11799057844E+02 -0.37391121205E+02 -0.32145189865E+02  0.50701350499E+02  0.00000000000E+00 0. -1.
        -11    1    5    5    0    0 -0.31842678143E+03 -0.18951049041E+03 -0.40800446650E+03  0.55116012718E+03  0.00000000000E+00 0.  1.
          3    1    6    6  503    0  0.62168314004E+02  0.31810583709E+02 -0.11553088004E+03  0.13499702495E+03  0.00000000000E+00 0. -1.
         -3    1    6    6    0  503  0.23361854226E+03  0.31374813241E+03 -0.91682849858E+03  0.99678985232E+03  0.00000000000E+00 0.  1.
<mgrwt>
<rscale>  0 0.13046940E+04</rscale>
<asrwt>0</asrwt>
<pdfrwt beam="1">  1        2 0.39794058E-01 0.13046940E+04</pdfrwt>
<pdfrwt beam="2">  1       -1 0.25311181E+00 0.13046940E+04</pdfrwt>
<totfact> 0.96967195E+00</totfact>
</mgrwt>
</event>
<event>
12    6  0.1494052E-007  0.1574472E+04  0.7818608E-02  0.8836386E-01
         -1   -1    0    0    0  501 -0.00000000000E+00  0.00000000000E+00  0.27455863445E+03  0.27455863445E+03  0.00000000000E+00 0.  1.
          2   -1    0    0  501    0  0.00000000000E+00 -0.00000000000E+00 -0.22572244192E+04  0.22572244192E+04  0.00000000000E+00 0. -1.
         24    2    1    2    0    0 -0.27917234979E+03  0.39442932757E+03 -0.97778579911E+03  0.10935559312E+04  0.79295714985E+02 0.  0.
        254    2    1    2    0    0  0.27917234979E+03 -0.39442932757E+03 -0.10048799856E+04  0.14382271224E+04  0.90840617282E+03 0.  0.
         23    2    4    4    0    0 -0.54423226954E+02 -0.48317274210E+03 -0.95565689240E+03  0.10765529629E+04  0.96272527418E+02 0.  0.
         23    2    4    4    0    0  0.33359557674E+03  0.88743414525E+02 -0.49223093224E+02  0.36167415955E+03  0.96041045051E+02 0.  0.
          2    1    3    3  502    0 -0.18373927706E+03  0.26545654295E+03 -0.56572180502E+03  0.65135893239E+03  0.00000000000E+00 0. -1.
         -1    1    3    3    0  502 -0.95433072729E+02  0.12897278463E+03 -0.41206399408E+03  0.44219699882E+03  0.00000000000E+00 0.  1.
         11    1    5    5    0    0 -0.21501005033E+02 -0.37347793866E+03 -0.64747342961E+03  0.74777664174E+03  0.00000000000E+00 0. -1.
        -11    1    5    5    0    0 -0.32922221921E+02 -0.10969480344E+03 -0.30818346280E+03  0.32877632113E+03  0.00000000000E+00 0.  1.
          4    1    6    6  503    0  0.16191443191E+03  0.92567781263E+02 -0.29387203848E+02  0.18880859392E+03  0.00000000000E+00 0. -1.
         -4    1    6    6    0  503  0.17168114483E+03 -0.38243667382E+01 -0.19835889376E+02  0.17286556562E+03  0.00000000000E+00 0.  1.
<mgrwt>
<rscale>  0 0.15744719E+04</rscale>
<asrwt>0</asrwt>
<pdfrwt beam="1">  1        2 0.34726529E+00 0.15744719E+04</pdfrwt>
<pdfrwt beam="2">  1       -1 0.42239791E-01 0.15744719E+04</pdfrwt>
<totfact> 0.28931274E+01</totfact>
</mgrwt>
</event>
<event>
12    6  0.1494052E-007  0.4108751E+04  0.7818608E-02  0.7982960E-01
          2   -1    0    0  501    0  0.00000000000E+00  0.00000000000E+00  0.38547761419E+04  0.38547761419E+04  0.00000000000E+00 0. -1.
         -1   -1    0    0    0  501 -0.00000000000E+00 -0.00000000000E+00 -0.10948646206E+04  0.10948646206E+04  0.00000000000E+00 0.  1.
         24    2    1    2    0    0  0.82748257695E+03  0.17140612397E+04  0.18278246141E+04  0.26402417876E+04  0.84855927507E+02 0.  0.
        254    2    1    2    0    0 -0.82748257695E+03 -0.17140612397E+04  0.93208690717E+03  0.23093989749E+04  0.91749892319E+03 0.  0.
         23    2    4    4    0    0 -0.63556041701E+03 -0.16777971660E+04  0.56369666213E+03  0.18827758660E+04  0.90281009641E+02 0.  0.
         23    2    4    4    0    0 -0.19192215994E+03 -0.36264073718E+02  0.36839024504E+03  0.42662310891E+03  0.90259104264E+02 0.  0.
          2    1    3    3  502    0  0.35047422232E+03  0.74773720749E+03  0.85000565299E+03  0.11850960814E+04  0.00000000000E+00 0. -1.
         -1    1    3    3    0  502  0.47700835463E+03  0.96632403224E+03  0.97781896115E+03  0.14551457063E+04  0.00000000000E+00 0.  1.
         11    1    5    5    0    0 -0.11063165130E+03 -0.24701772312E+03  0.11485728076E+03  0.29402263986E+03  0.00000000000E+00 0. -1.
        -11    1    5    5    0    0 -0.52492876571E+03 -0.14307794429E+04  0.44883938137E+03  0.15887532261E+04  0.00000000000E+00 0.  1.
          3    1    6    6  503    0 -0.40891809370E+02 -0.29101637203E+02  0.16956672899E+03  0.17683868622E+03  0.00000000000E+00 0. -1.
         -3    1    6    6    0  503 -0.15103035057E+03 -0.71624365154E+01  0.19882351604E+03  0.24978442270E+03  0.00000000000E+00 0.  1.
<mgrwt>
<rscale>  0 0.41087507E+04</rscale>
<asrwt>0</asrwt>
<pdfrwt beam="1">  1        2 0.59304248E+00 0.41087507E+04</pdfrwt>
<pdfrwt beam="2">  1       -1 0.16844071E+00 0.41087507E+04</pdfrwt>
<totfact> 0.99617876E-02</totfact>
</mgrwt>
</event>
<event>
12    6  0.1494052E-007  0.1211031E+04  0.7818608E-02  0.9103256E-01
         -1   -1    0    0    0  501 -0.00000000000E+00  0.00000000000E+00  0.27869173459E+03  0.27869173459E+03  0.00000000000E+00 0.  1.
          2   -1    0    0  501    0  0.00000000000E+00 -0.00000000000E+00 -0.13156067403E+04  0.13156067403E+04  0.00000000000E+00 0. -1.
         24    2    1    2    0    0 -0.39886798780E+01  0.18342317084E+03 -0.48272182909E+03  0.52244728284E+03  0.79188571764E+02 0.  0.
        254    2    1    2    0    0  0.39886798780E+01 -0.18342317084E+03 -0.55419317661E+03  0.10718511920E+04  0.89892988141E+03 0.  0.
         23    2    4    4    0    0 -0.61516418247E+02 -0.23078978268E+03 -0.77726660151E+03  0.81838449808E+03  0.92529040690E+02 0.  0.
         23    2    4    4    0    0  0.65505098125E+02  0.47366611837E+02  0.22307342491E+03  0.25346669395E+03  0.89157715573E+02 0.  0.
          4    1    3    3  502    0  0.12855408244E+02  0.74890023526E+02 -0.29804180224E+03  0.30757550785E+03  0.00000000000E+00 0. -1.
         -3    1    3    3    0  502 -0.16844088122E+02  0.10853314732E+03 -0.18468002685E+03  0.21487177499E+03  0.00000000000E+00 0.  1.
         11    1    5    5    0    0 -0.44883479181E+02 -0.75428978101E+02 -0.40952257753E+03  0.41882311177E+03  0.00000000000E+00 0.  1.
        -11    1    5    5    0    0 -0.16632939066E+02 -0.15536080458E+03 -0.36774402398E+03  0.39956138632E+03  0.00000000000E+00 0. -1.
          1    1    6    6  503    0 -0.31550841024E+01  0.35312553465E+02  0.24720827056E+02  0.43220947215E+02  0.00000000000E+00 0. -1.
         -1    1    6    6    0  503  0.68660182227E+02  0.12054058372E+02  0.19835259785E+03  0.21024574674E+03  0.00000000000E+00 0.  1.
<mgrwt>
<rscale>  0 0.12110305E+04</rscale>
<asrwt>0</asrwt>
<pdfrwt beam="1">  1        2 0.20240104E+00 0.12110305E+04</pdfrwt>
<pdfrwt beam="2">  1       -1 0.42875651E-01 0.12110305E+04</pdfrwt>
<totfact> 0.97449258E+01</totfact>
</mgrwt>
</event>
<event>
12    6  0.1494052E-007  0.1778851E+04  0.7818608E-02  0.8717628E-01
          2   -1    0    0  501    0  0.00000000000E+00  0.00000000000E+00  0.60540391350E+03  0.60540391350E+03  0.00000000000E+00 0. -1.
         -1   -1    0    0    0  501 -0.00000000000E+00 -0.00000000000E+00 -0.13066936693E+04  0.13066936693E+04  0.00000000000E+00 0.  1.
         24    2    1    2    0    0  0.40336271784E+02 -0.63663758520E+03 -0.43895287776E+02  0.64432445273E+03  0.79327009174E+02 0.  0.
        254    2    1    2    0    0 -0.40336271784E+02  0.63663758520E+03 -0.65739446800E+03  0.12677731300E+04  0.87643983992E+03 0.  0.
         23    2    4    4    0    0 -0.75148512192E+02  0.25622959319E+03 -0.80127405137E+03  0.84964407020E+03  0.92488038789E+02 0.  0.
         23    2    4    4    0    0  0.34812240408E+02  0.38040799201E+03  0.14387958337E+03  0.41812905984E+03  0.90600461984E+02 0.  0.
          4    1    3    3  502    0  0.11997392288E+02 -0.47939835097E+03 -0.61956869365E+02  0.48353424904E+03  0.00000000000E+00 0. -1.
         -3    1    3    3    0  502  0.28338879496E+02 -0.15723923423E+03  0.18061581589E+02  0.16079020369E+03  0.00000000000E+00 0.  1.
         11    1    5    5    0    0 -0.95757847078E+02  0.23064201162E+03 -0.70763612149E+03  0.75040934378E+03  0.00000000000E+00 0.  1.
        -11    1    5    5    0    0  0.20609334886E+02  0.25587581577E+02 -0.93637929879E+02  0.99234726419E+02  0.00000000000E+00 0. -1.
          1    1    6    6  503    0  0.39262395069E+02  0.37057464689E+03  0.15410965762E+03  0.40325784698E+03  0.00000000000E+00 0.  1.
         -1    1    6    6    0  503 -0.44501546617E+01  0.98333451169E+01 -0.10230074252E+02  0.14871212859E+02  0.00000000000E+00 0. -1.
<mgrwt>
<rscale>  0 0.17788507E+04</rscale>
<asrwt>0</asrwt>
<pdfrwt beam="1">  1        2 0.93139065E-01 0.17788507E+04</pdfrwt>
<pdfrwt beam="2">  1       -1 0.20102979E+00 0.17788507E+04</pdfrwt>
<totfact> 0.78450614E+00</totfact>
</mgrwt>
</event>
<event>
12    6  0.1494052E-007  0.2465970E+04  0.7818608E-02  0.8415210E-01
          2   -1    0    0  501    0  0.00000000000E+00  0.00000000000E+00  0.31802698669E+04  0.31802698669E+04  0.00000000000E+00 0. -1.
         -1   -1    0    0    0  501 -0.00000000000E+00 -0.00000000000E+00 -0.47802617072E+03  0.47802617072E+03  0.00000000000E+00 0.  1.
         24    2    1    2    0    0 -0.36494223829E+03 -0.86048804594E+02  0.26590557107E+04  0.26865478745E+04  0.79843442971E+02 0.  0.
        254    2    1    2    0    0  0.36494223829E+03  0.86048804594E+02  0.43187985439E+02  0.97174816306E+03  0.89545633967E+03 0.  0.
         23    2    4    4    0    0  0.35301716805E+03 -0.81025107225E+02 -0.36454314518E+03  0.52181633143E+03  0.90633272628E+02 0.  0.
         23    2    4    4    0    0  0.11925070242E+02  0.16707391182E+03  0.40773113062E+03  0.44993183163E+03  0.90211301530E+02 0.  0.
          2    1    3    3  502    0 -0.14314643363E+03 -0.35416647407E+02  0.13313876228E+04  0.13395291123E+04  0.00000000000E+00 0. -1.
         -1    1    3    3    0  502 -0.22179580466E+03 -0.50632157188E+02  0.13276680879E+04  0.13470187623E+04  0.00000000000E+00 0.  1.
         11    1    5    5    0    0  0.28778482152E+03 -0.27723048748E+02 -0.28361131808E+03  0.40499882799E+03  0.00000000000E+00 0. -1.
        -11    1    5    5    0    0  0.65232346529E+02 -0.53302058477E+02 -0.80931827105E+02  0.11681750344E+03  0.00000000000E+00 0.  1.
          1    1    6    6  503    0 -0.58092461039E+01  0.80833004068E+02  0.30023680904E+03  0.31098209497E+03  0.00000000000E+00 0. -1.
         -1    1    6    6    0  503  0.17734316346E+02  0.86240907752E+02  0.10749432158E+03  0.13894973666E+03  0.00000000000E+00 0.  1.
<mgrwt>
<rscale>  0 0.24659702E+04</rscale>
<asrwt>0</asrwt>
<pdfrwt beam="1">  1        2 0.48927227E+00 0.24659702E+04</pdfrwt>
<pdfrwt beam="2">  1       -1 0.73542490E-01 0.24659702E+04</pdfrwt>
<totfact> 0.25324098E+00</totfact>
</mgrwt>
</event>
<event>
12    6  0.1494052E-007  0.1387361E+04  0.7818608E-02  0.8963019E-01
          2   -1    0    0  501    0  0.00000000000E+00  0.00000000000E+00  0.60860952953E+03  0.60860952953E+03  0.00000000000E+00 0. -1.
         -1   -1    0    0    0  501 -0.00000000000E+00 -0.00000000000E+00 -0.79064212485E+03  0.79064212485E+03  0.00000000000E+00 0.  1.
         24    2    1    2    0    0 -0.34835868525E+03  0.94532414678E+02  0.11372021848E+03  0.38631737216E+03  0.77580106528E+02 0.  0.
        254    2    1    2    0    0  0.34835868525E+03 -0.94532414678E+02 -0.29575281381E+03  0.10129342822E+04  0.89904170214E+03 0.  0.
         23    2    4    4    0    0 -0.76648765318E+02 -0.24491630314E+03  0.19707837672E+03  0.33888586770E+03  0.10072098088E+03 0.  0.
         23    2    4    4    0    0  0.42500745057E+03  0.15038388846E+03 -0.49283119053E+03  0.67404841451E+03  0.90620283642E+02 0.  0.
          4    1    3    3  502    0 -0.33571158048E+03  0.98293215698E+02  0.12231150937E+03  0.37057243131E+03  0.00000000000E+00 0. -1.
         -3    1    3    3    0  502 -0.12647104765E+02 -0.37608010198E+01 -0.85912908888E+01  0.15744940851E+02  0.00000000000E+00 0.  1.
         11    1    5    5    0    0 -0.95398184180E+02 -0.23451893089E+03  0.17297523673E+03  0.30662742051E+03  0.00000000000E+00 0.  1.
        -11    1    5    5    0    0  0.18749418861E+02 -0.10397372247E+02  0.24103139992E+02  0.32258447184E+02  0.00000000000E+00 0. -1.
          3    1    6    6  503    0 -0.17385696021E+01 -0.37472694993E+01 -0.13106786398E+02  0.13742361611E+02  0.00000000000E+00 0. -1.
         -3    1    6    6    0  503  0.42674602017E+03  0.15413115796E+03 -0.47972440413E+03  0.66030605290E+03  0.00000000000E+00 0.  1.
<mgrwt>
<rscale>  0 0.13873606E+04</rscale>
<asrwt>0</asrwt>
<pdfrwt beam="1">  1        2 0.93632235E-01 0.13873606E+04</pdfrwt>
<pdfrwt beam="2">  1       -1 0.12163725E+00 0.13873606E+04</pdfrwt>
<totfact> 0.32504220E+01</totfact>
</mgrwt>
</event>
<event>
12    6  0.1494052E-007  0.1541466E+04  0.7818608E-02  0.8857338E-01
         -1   -1    0    0    0  501 -0.00000000000E+00  0.00000000000E+00  0.66060625084E+03  0.66060625084E+03  0.00000000000E+00 0.  1.
          2   -1    0    0  501    0  0.00000000000E+00 -0.00000000000E+00 -0.89921798191E+03  0.89921798191E+03  0.00000000000E+00 0. -1.
         24    2    1    2    0    0  0.41753051180E+03 -0.82516091752E+02  0.33305965981E+03  0.54618042352E+03  0.79016987761E+02 0.  0.
        254    2    1    2    0    0 -0.41753051180E+03  0.82516091752E+02 -0.57167139088E+03  0.10136438092E+04  0.72078079828E+03 0.  0.
         23    2    4    4    0    0 -0.21651113091E+03 -0.21503262005E+03 -0.55764192812E+03  0.64243853436E+03  0.92987380557E+02 0.  0.
         23    2    4    4    0    0 -0.20101938089E+03  0.29754871181E+03 -0.14029462759E+02  0.37120527487E+03  0.93018830749E+02 0.  0.
          2    1    3    3  502    0  0.13808767273E+03  0.62652372774E+01  0.86310838774E+02  0.16296324569E+03  0.00000000000E+00 0. -1.
         -1    1    3    3    0  502  0.27944283908E+03 -0.88781329029E+02  0.24674882104E+03  0.38321717783E+03  0.00000000000E+00 0.  1.
         11    1    5    5    0    0 -0.67665302738E+02 -0.12099520282E+03 -0.29880256125E+03  0.32939551137E+03  0.00000000000E+00 0. -1.
        -11    1    5    5    0    0 -0.14884582817E+03 -0.94037417236E+02 -0.25883936686E+03  0.31304302299E+03  0.00000000000E+00 0.  1.
          3    1    6    6  503    0 -0.95176983007E+02  0.96050353834E+02  0.32088081662E+02  0.13897472270E+03  0.00000000000E+00 0. -1.
         -3    1    6    6    0  503 -0.10584239789E+03  0.20149835797E+03 -0.46117544421E+02  0.23223055217E+03  0.00000000000E+00 0.  1.
<mgrwt>
<rscale>  0 0.15414656E+04</rscale>
<asrwt>0</asrwt>
<pdfrwt beam="1">  1        2 0.13834123E+00 0.15414656E+04</pdfrwt>
<pdfrwt beam="2">  1       -1 0.10163173E+00 0.15414656E+04</pdfrwt>
<totfact> 0.29643382E+01</totfact>
</mgrwt>
</event>
<event>
12    6  0.1494052E-007  0.2274207E+04  0.7818608E-02  0.8488161E-01
         -1   -1    0    0    0  501 -0.00000000000E+00  0.00000000000E+00  0.80379171096E+03  0.80379171096E+03  0.00000000000E+00 0.  1.
          2   -1    0    0  501    0  0.00000000000E+00 -0.00000000000E+00 -0.16086306796E+04  0.16086306796E+04  0.00000000000E+00 0. -1.
         24    2    1    2    0    0 -0.83240105327E+03 -0.41061535529E+03 -0.10340200921E+03  0.93744622681E+03  0.81344754964E+02 0.  0.
        254    2    1    2    0    0  0.83240105327E+03  0.41061535529E+03 -0.70143695947E+03  0.14749761638E+04  0.90666663783E+03 0.  0.
         23    2    4    4    0    0  0.10038922486E+04  0.43303963338E+03 -0.57870414998E+03  0.12400654134E+04  0.86837581210E+02 0.  0.
         23    2    4    4    0    0 -0.17149119531E+03 -0.22424278090E+02 -0.12273280949E+03  0.23491075038E+03  0.10103286495E+03 0.  0.
          2    1    3    3  502    0 -0.71466274439E+01  0.28875590851E+01 -0.49401475305E+01  0.91551809876E+01  0.00000000000E+00 0. -1.
         -1    1    3    3    0  502 -0.82525442583E+03 -0.41350291437E+03 -0.98461861675E+02  0.92829104582E+03  0.00000000000E+00 0.  1.
         11    1    5    5    0    0  0.22575415171E+03  0.12737103456E+03 -0.16516372509E+03  0.30735545146E+03  0.00000000000E+00 0. -1.
        -11    1    5    5    0    0  0.77813809687E+03  0.30566859881E+03 -0.41354042489E+03  0.93270996195E+03  0.00000000000E+00 0.  1.
          3    1    6    6  503    0 -0.14026038665E+03  0.23843841304E+02 -0.10323687554E+03  0.17578213021E+03  0.00000000000E+00 0.  1.
         -3    1    6    6    0  503 -0.31230808653E+02 -0.46268119394E+02 -0.19495933957E+02  0.59128620162E+02  0.00000000000E+00 0. -1.
<mgrwt>
<rscale>  0 0.22742067E+04</rscale>
<asrwt>0</asrwt>
<pdfrwt beam="1">  1        2 0.24748164E+00 0.22742067E+04</pdfrwt>
<pdfrwt beam="2">  1       -1 0.12366026E+00 0.22742067E+04</pdfrwt>
<totfact> 0.65597453E+00</totfact>
</mgrwt>
</event>
<event>
12    6  0.1494052E-007  0.1206616E+04  0.7818608E-02  0.9107085E-01
         -1   -1    0    0    0  501 -0.00000000000E+00  0.00000000000E+00  0.17906805713E+03  0.17906805713E+03  0.00000000000E+00 0.  1.
          2   -1    0    0  501    0  0.00000000000E+00 -0.00000000000E+00 -0.20326370560E+04  0.20326370560E+04  0.00000000000E+00 0. -1.
         24    2    1    2    0    0 -0.63401695104E+02  0.22806549059E+03 -0.63909721281E+03  0.68620072844E+03  0.79953419919E+02 0.  0.
        254    2    1    2    0    0  0.63401695104E+02 -0.22806549059E+03 -0.12144717861E+04  0.15255043847E+04  0.89229382249E+03 0.  0.
         23    2    4    4    0    0  0.20551064274E+03 -0.51386948242E+03 -0.93775329356E+03  0.10930693108E+04  0.95513398473E+02 0.  0.
         23    2    4    4    0    0 -0.14210894764E+03  0.28580399183E+03 -0.27671849254E+03  0.43243507397E+03  0.92455904854E+02 0.  0.
          4    1    3    3  502    0 -0.74241542883E+02  0.12886582476E+03 -0.34699132873E+03  0.37751978716E+03  0.00000000000E+00 0. -1.
         -3    1    3    3    0  502  0.10839847779E+02  0.99199665823E+02 -0.29210588408E+03  0.30868094128E+03  0.00000000000E+00 0.  1.
         11    1    5    5    0    0  0.91907931160E+02 -0.34827622053E+03 -0.57742138709E+03  0.68055775058E+03  0.00000000000E+00 0. -1.
        -11    1    5    5    0    0  0.11360271158E+03 -0.16559326188E+03 -0.36033190647E+03  0.41251156018E+03  0.00000000000E+00 0.  1.
          4    1    6    6  503    0 -0.12755935203E+03  0.29028931372E+03 -0.26381977098E+03  0.41248047895E+03  0.00000000000E+00 0. -1.
         -4    1    6    6    0  503 -0.14549595607E+02 -0.44853218903E+01 -0.12898721557E+02  0.19954595024E+02  0.00000000000E+00 0.  1.
<mgrwt>
<rscale>  0 0.12066157E+04</rscale>
<asrwt>0</asrwt>
<pdfrwt beam="1">  1        2 0.31271340E+00 0.12066157E+04</pdfrwt>
<pdfrwt beam="2">  1       -1 0.27548931E-01 0.12066157E+04</pdfrwt>
<totfact> 0.85393901E+01</totfact>
</mgrwt>
</event>
<event>
12    6  0.1494052E-007  0.3757945E+04  0.7818608E-02  0.8055240E-01
          2   -1    0    0  501    0  0.00000000000E+00  0.00000000000E+00  0.29015764149E+04  0.29015764149E+04  0.00000000000E+00 0. -1.
         -1   -1    0    0    0  501 -0.00000000000E+00 -0.00000000000E+00 -0.12167654111E+04  0.12167654111E+04  0.00000000000E+00 0.  1.
         24    2    1    2    0    0  0.58384945466E+03  0.13620354631E+04 -0.26786337033E+03  0.15080293202E+04  0.79880267439E+02 0.  0.
        254    2    1    2    0    0 -0.58384945466E+03 -0.13620354631E+04  0.19526743741E+04  0.26103125057E+04  0.89709162172E+03 0.  0.
         23    2    4    4    0    0 -0.67931828285E+03 -0.53336317973E+03  0.12108638420E+04  0.14901044261E+04  0.90941442790E+02 0.  0.
         23    2    4    4    0    0  0.95468828185E+02 -0.82867228333E+03  0.74181053213E+03  0.11202080796E+04  0.93654821898E+02 0.  0.
          2    1    3    3  502    0  0.22585596340E+03  0.57134135392E+03 -0.75261992856E+02  0.61895575486E+03  0.00000000000E+00 0. -1.
         -1    1    3    3    0  502  0.35799349127E+03  0.79069410913E+03 -0.19260137748E+03  0.88907356535E+03  0.00000000000E+00 0.  1.
         11    1    5    5    0    0 -0.40638021187E+03 -0.36568656108E+03  0.80435140066E+03  0.97254959426E+03  0.00000000000E+00 0.  1.
        -11    1    5    5    0    0 -0.27293807098E+03 -0.16767661865E+03  0.40651244135E+03  0.51755483188E+03  0.00000000000E+00 0. -1.
          1    1    6    6  503    0  0.69328756010E+02 -0.33549110354E+03  0.25820418675E+03  0.42898736464E+03  0.00000000000E+00 0.  1.
         -1    1    6    6    0  503  0.26140072176E+02 -0.49318117978E+03  0.48360634538E+03  0.69122071494E+03  0.00000000000E+00 0. -1.
<mgrwt>
<rscale>  0 0.37579451E+04</rscale>
<asrwt>0</asrwt>
<pdfrwt beam="1">  1        2 0.44639637E+00 0.37579451E+04</pdfrwt>
<pdfrwt beam="2">  1       -1 0.18719468E+00 0.37579451E+04</pdfrwt>
<totfact> 0.33857691E-01</totfact>
</mgrwt>
</event>
<event>
12    6  0.1494052E-007  0.1860525E+04  0.7818608E-02  0.8674759E-01
          2   -1    0    0  501    0  0.00000000000E+00  0.00000000000E+00  0.24589773113E+04  0.24589773113E+04  0.00000000000E+00 0. -1.
         -1   -1    0    0    0  501 -0.00000000000E+00 -0.00000000000E+00 -0.35193007666E+03  0.35193007666E+03  0.00000000000E+00 0.  1.
         24    2    1    2    0    0  0.44703707266E+03  0.54216312051E+03  0.11295457076E+04  0.13327142040E+04  0.80440353681E+02 0.  0.
        254    2    1    2    0    0 -0.44703707266E+03 -0.54216312051E+03  0.97750152712E+03  0.14781931840E+04  0.85776620365E+03 0.  0.
         23    2    4    4    0    0 -0.41804436070E+03 -0.68804056190E+03  0.45671276659E+03  0.93008382780E+03  0.91150826869E+02 0.  0.
         23    2    4    4    0    0 -0.28992711966E+02  0.14587744140E+03  0.52078876053E+03  0.54810935619E+03  0.84155380083E+02 0.  0.
          2    1    3    3  502    0  0.34411838214E+03  0.46207449603E+03  0.94402915504E+03  0.11059481662E+04  0.00000000000E+00 0. -1.
         -1    1    3    3    0  502  0.10291869052E+03  0.80088624479E+02  0.18551655253E+03  0.22676603778E+03  0.00000000000E+00 0.  1.
         11    1    5    5    0    0 -0.19049466894E+03 -0.22908831688E+03  0.16480200837E+03  0.34048403455E+03  0.00000000000E+00 0.  1.
        -11    1    5    5    0    0 -0.22754969176E+03 -0.45895224503E+03  0.29191075822E+03  0.58959979325E+03  0.00000000000E+00 0. -1.
          1    1    6    6  503    0 -0.32727234212E+02  0.14840395349E+03  0.52180754823E+03  0.54348681921E+03  0.00000000000E+00 0. -1.
         -1    1    6    6    0  503  0.37345222468E+01 -0.25265120934E+01 -0.10187876972E+01  0.46225369811E+01  0.00000000000E+00 0.  1.
<mgrwt>
<rscale>  0 0.18605247E+04</rscale>
<asrwt>0</asrwt>
<pdfrwt beam="1">  1        2 0.37830419E+00 0.18605247E+04</pdfrwt>
<pdfrwt beam="2">  1       -1 0.54143090E-01 0.18605247E+04</pdfrwt>
<totfact> 0.13557671E+01</totfact>
</mgrwt>
</event>
<event>
12    6  0.1494052E-007  0.1801048E+04  0.7818608E-02  0.8705742E-01
         -1   -1    0    0    0  501 -0.00000000000E+00  0.00000000000E+00  0.48918760542E+03  0.48918760542E+03  0.00000000000E+00 0.  1.
          2   -1    0    0  501    0  0.00000000000E+00 -0.00000000000E+00 -0.16577359021E+04  0.16577359021E+04  0.00000000000E+00 0. -1.
         24    2    1    2    0    0  0.17180611017E+03 -0.58565192165E+03 -0.78146767201E+03  0.99464631907E+03  0.78256404307E+02 0.  0.
        254    2    1    2    0    0 -0.17180611017E+03  0.58565192165E+03 -0.38708062467E+03  0.11522771884E+04  0.89744403512E+03 0.  0.
         23    2    4    4    0    0 -0.41201716470E+03  0.63616764316E+03 -0.44688267421E+03  0.88392508458E+03  0.84569595170E+02 0.  0.
         23    2    4    4    0    0  0.24021105453E+03 -0.50515721512E+02  0.59802049546E+02  0.26835210386E+03  0.90462023395E+02 0.  0.
          2    1    3    3  502    0  0.12026432442E+03 -0.32358027665E+03 -0.39119702845E+03  0.52173059929E+03  0.00000000000E+00 0. -1.
         -1    1    3    3    0  502  0.51541785755E+02 -0.26207164501E+03 -0.39027064356E+03  0.47291571978E+03  0.00000000000E+00 0.  1.
         11    1    5    5    0    0 -0.24348302220E+03  0.31347092478E+03 -0.26217082756E+03  0.47569059861E+03  0.00000000000E+00 0.  1.
        -11    1    5    5    0    0 -0.16853414251E+03  0.32269671839E+03 -0.18471184665E+03  0.40823448598E+03  0.00000000000E+00 0. -1.
          1    1    6    6  503    0  0.14277450954E+03  0.14629905964E+02  0.43796948651E+02  0.15005588104E+03  0.00000000000E+00 0.  1.
         -1    1    6    6    0  503  0.97436544991E+02 -0.65145627477E+02  0.16005100894E+02  0.11829622282E+03  0.00000000000E+00 0. -1.
<mgrwt>
<rscale>  0 0.18010484E+04</rscale>
<asrwt>0</asrwt>
<pdfrwt beam="1">  1        2 0.25503629E+00 0.18010484E+04</pdfrwt>
<pdfrwt beam="2">  1       -1 0.75259633E-01 0.18010484E+04</pdfrwt>
<totfact> 0.19761435E+01</totfact>
</mgrwt>
</event>
<event>
12    6  0.1494052E-007  0.2314543E+04  0.7818608E-02  0.8472209E-01
          2   -1    0    0  501    0  0.00000000000E+00  0.00000000000E+00  0.16344164257E+04  0.16344164257E+04  0.00000000000E+00 0. -1.
         -1   -1    0    0    0  501 -0.00000000000E+00 -0.00000000000E+00 -0.81942248318E+03  0.81942248318E+03  0.00000000000E+00 0.  1.
         24    2    1    2    0    0 -0.46072187344E+03 -0.69669629844E+03  0.88708075525E+03  0.12209784809E+04  0.78903786169E+02 0.  0.
        254    2    1    2    0    0  0.46072187344E+03  0.69669629844E+03 -0.72086812736E+02  0.12328604280E+04  0.90393470421E+03 0.  0.
         23    2    4    4    0    0  0.35051941822E+03  0.16095584965E+03  0.35522396165E+03  0.53296032429E+03  0.95351959844E+02 0.  0.
         23    2    4    4    0    0  0.11020245522E+03  0.53574044879E+03 -0.42731077439E+03  0.69990010373E+03  0.90018040910E+02 0.  0.
          4    1    3    3  502    0 -0.45625368708E+03 -0.66285764755E+03  0.85522193864E+03  0.11742879767E+04  0.00000000000E+00 0. -1.
         -3    1    3    3    0  502 -0.44681863637E+01 -0.33838650893E+02  0.31858816611E+02  0.46690504169E+02  0.00000000000E+00 0.  1.
         11    1    5    5    0    0  0.38767494430E+02  0.39861667470E+02  0.91393347313E+02  0.10697950781E+03  0.00000000000E+00 0. -1.
        -11    1    5    5    0    0  0.31175192379E+03  0.12109418218E+03  0.26383061434E+03  0.42598081648E+03  0.00000000000E+00 0.  1.
          3    1    6    6  503    0  0.52075336997E+02  0.84079152231E+02 -0.79023598124E+02  0.12659333957E+03  0.00000000000E+00 0. -1.
         -3    1    6    6    0  503  0.58127118219E+02  0.45166129656E+03 -0.34828717626E+03  0.57330676416E+03  0.00000000000E+00 0.  1.
<mgrwt>
<rscale>  0 0.23145432E+04</rscale>
<asrwt>0</asrwt>
<pdfrwt beam="1">  1        2 0.25144868E+00 0.23145432E+04</pdfrwt>
<pdfrwt beam="2">  1       -1 0.12606500E+00 0.23145432E+04</pdfrwt>
<totfact> 0.60279291E+00</totfact>
</mgrwt>
</event>
<event>
12    6  0.1494052E-007  0.1141748E+04  0.7818608E-02  0.9165431E-01
          2   -1    0    0  501    0  0.00000000000E+00  0.00000000000E+00  0.16408257114E+04  0.16408257114E+04  0.00000000000E+00 0. -1.
         -1   -1    0    0    0  501 -0.00000000000E+00 -0.00000000000E+00 -0.19861765906E+03  0.19861765906E+03  0.00000000000E+00 0.  1.
         24    2    1    2    0    0 -0.36881559761E+02  0.12545540688E+03  0.34796470171E+02  0.15693833234E+03  0.79495517216E+02 0.  0.
        254    2    1    2    0    0  0.36881559761E+02 -0.12545540688E+03  0.14074115822E+04  0.16825050381E+04  0.91264260972E+03 0.  0.
         23    2    4    4    0    0 -0.86805381432E+02 -0.37111633419E+03  0.19891278734E+03  0.43981943676E+03  0.92802652084E+02 0.  0.
         23    2    4    4    0    0  0.12368694119E+03  0.24566092732E+03  0.12084987949E+04  0.12426856014E+04  0.90279654805E+02 0.  0.
          4    1    3    3  502    0  0.82457097623E+01 -0.73577320718E+01  0.91393245137E+01  0.14340683502E+02  0.00000000000E+00 0. -1.
         -3    1    3    3    0  502 -0.45127269523E+02  0.13281313895E+03  0.25657145657E+02  0.14259764884E+03  0.00000000000E+00 0.  1.
         11    1    5    5    0    0 -0.28856230852E+02 -0.31792431895E+02  0.46682896172E+02  0.63425023293E+02  0.00000000000E+00 0. -1.
        -11    1    5    5    0    0 -0.57949150580E+02 -0.33932390230E+03  0.15222989117E+03  0.37639441347E+03  0.00000000000E+00 0.  1.
          1    1    6    6  503    0  0.18071469440E+02 -0.15925211358E+01  0.12586142394E+03  0.12716214911E+03  0.00000000000E+00 0. -1.
         -1    1    6    6    0  503  0.10561547175E+03  0.24725344845E+03  0.10826373709E+04  0.11155234523E+04  0.00000000000E+00 0.  1.
<mgrwt>
<rscale>  0 0.11417477E+04</rscale>
<asrwt>0</asrwt>
<pdfrwt beam="1">  1        2 0.25243472E+00 0.11417477E+04</pdfrwt>
<pdfrwt beam="2">  1       -1 0.30556564E-01 0.11417477E+04</pdfrwt>
<totfact> 0.11790938E+02</totfact>
</mgrwt>
</event>
<event>
12    6  0.1494052E-007  0.1198697E+04  0.7818608E-02  0.9113998E-01
          2   -1    0    0  501    0  0.00000000000E+00  0.00000000000E+00  0.18050833311E+04  0.18050833311E+04  0.00000000000E+00 0. -1.
         -1   -1    0    0    0  501 -0.00000000000E+00 -0.00000000000E+00 -0.19900395903E+03  0.19900395903E+03  0.00000000000E+00 0.  1.
         24    2    1    2    0    0 -0.74519049837E+02  0.85078675645E+01 -0.47524756662E+02  0.11913797096E+03  0.79434130127E+02 0.  0.
        254    2    1    2    0    0  0.74519049837E+02 -0.85078675645E+01  0.16536041288E+04  0.18849493192E+04  0.90166615147E+03 0.  0.
         23    2    4    4    0    0  0.11977566231E+03  0.28301860035E+03  0.15113854102E+04  0.15451475659E+04  0.93538253182E+02 0.  0.
         23    2    4    4    0    0 -0.45256612473E+02 -0.29152646791E+03  0.14221871854E+03  0.33980175328E+03  0.90571657632E+02 0.  0.
          2    1    3    3  502    0 -0.52026406392E+01  0.22759041237E+02  0.12375965224E+02  0.26423586866E+02  0.00000000000E+00 0. -1.
         -1    1    3    3    0  502 -0.69316409197E+02 -0.14251173672E+02 -0.59900721886E+02  0.92714384092E+02  0.00000000000E+00 0.  1.
         11    1    5    5    0    0  0.59493114865E+02  0.17214479649E+03  0.10954322236E+04  0.11104706292E+04  0.00000000000E+00 0.  1.
        -11    1    5    5    0    0  0.60282547445E+02  0.11087380385E+03  0.41595318659E+03  0.43467693675E+03  0.00000000000E+00 0. -1.
          4    1    6    6  503    0 -0.55607072190E+02 -0.17828698274E+03  0.12515791015E+03  0.22481747523E+03  0.00000000000E+00 0. -1.
         -4    1    6    6    0  503  0.10350459717E+02 -0.11323948517E+03  0.17060808385E+02  0.11498427806E+03  0.00000000000E+00 0.  1.
<mgrwt>
<rscale>  0 0.11986972E+04</rscale>
<asrwt>0</asrwt>
<pdfrwt beam="1">  1        2 0.27770512E+00 0.11986972E+04</pdfrwt>
<pdfrwt beam="2">  1       -1 0.30615995E-01 0.11986972E+04</pdfrwt>
<totfact> 0.94912621E+01</totfact>
</mgrwt>
</event>
<event>
12    6  0.1494052E-007  0.1502337E+04  0.7818608E-02  0.8882900E-01
         -1   -1    0    0    0  501 -0.00000000000E+00  0.00000000000E+00  0.93100867179E+03  0.93100867179E+03  0.00000000000E+00 0.  1.
          2   -1    0    0  501    0  0.00000000000E+00 -0.00000000000E+00 -0.60606745044E+03  0.60606745044E+03  0.00000000000E+00 0. -1.
         24    2    1    2    0    0  0.40152694247E+02  0.25107684534E+03  0.52093578679E+03  0.58514729140E+03  0.79821285101E+02 0.  0.
        254    2    1    2    0    0 -0.40152694247E+02 -0.25107684534E+03 -0.19599456543E+03  0.95192883083E+03  0.89616003491E+03 0.  0.
         23    2    4    4    0    0  0.23720277387E+03  0.13721021639E+03  0.17743492468E+03  0.33950188152E+03  0.93201800681E+02 0.  0.
         23    2    4    4    0    0 -0.27735546812E+03 -0.38828706173E+03 -0.37342949011E+03  0.61242694931E+03  0.89018459676E+02 0.  0.
          2    1    3    3  502    0  0.43893237207E+02  0.24477441201E+03  0.45258899083E+03  0.51640867893E+03  0.00000000000E+00 0. -1.
         -1    1    3    3    0  502 -0.37405429592E+01  0.63024333296E+01  0.68346795951E+02  0.68738612470E+02  0.00000000000E+00 0.  1.
         11    1    5    5    0    0  0.62395652273E+01 -0.12590968246E+02  0.67239122700E+01  0.15578050321E+02  0.00000000000E+00 0.  1.
        -11    1    5    5    0    0  0.23096320864E+03  0.14980118463E+03  0.17071101241E+03  0.32392383120E+03  0.00000000000E+00 0. -1.
          3    1    6    6  503    0 -0.27642172308E+03 -0.39045820456E+03 -0.37633421349E+03  0.60868219847E+03  0.00000000000E+00 0. -1.
         -3    1    6    6    0  503 -0.93374503282E+00  0.21711428277E+01  0.29047233770E+01  0.37447508410E+01  0.00000000000E+00 0.  1.
<mgrwt>
<rscale>  0 0.15023369E+04</rscale>
<asrwt>0</asrwt>
<pdfrwt beam="1">  1        2 0.93241147E-01 0.15023369E+04</pdfrwt>
<pdfrwt beam="2">  1       -1 0.14323210E+00 0.15023369E+04</pdfrwt>
<totfact> 0.21349422E+01</totfact>
</mgrwt>
</event>
<event>
12    6  0.1494052E-007  0.2700672E+04  0.7818608E-02  0.8334787E-01
         -1   -1    0    0    0  501 -0.00000000000E+00  0.00000000000E+00  0.15792042530E+04  0.15792042530E+04  0.00000000000E+00 0.  1.
          2   -1    0    0  501    0  0.00000000000E+00 -0.00000000000E+00 -0.11546367981E+04  0.11546367981E+04  0.00000000000E+00 0. -1.
         24    2    1    2    0    0  0.10846816771E+04 -0.39265964018E+03  0.51792196279E+03  0.12670321213E+04  0.80070613542E+02 0.  0.
        254    2    1    2    0    0 -0.10846816771E+04  0.39265964018E+03 -0.93354507827E+02  0.14668089298E+04  0.90116449037E+03 0.  0.
         23    2    4    4    0    0 -0.76288520983E+03  0.47498062641E+03  0.29242557667E+03  0.94956134740E+03  0.92485651530E+02 0.  0.
         23    2    4    4    0    0 -0.32179646728E+03 -0.82320986236E+02 -0.38578008450E+03  0.51724758239E+03  0.91591903418E+02 0.  0.
          4    1    3    3  502    0  0.23746208015E+03 -0.51531239146E+02  0.11287105427E+03  0.26792458456E+03  0.00000000000E+00 0. -1.
         -3    1    3    3    0  502  0.84721959696E+03 -0.34112840103E+03  0.40505090853E+03  0.99910753673E+03  0.00000000000E+00 0.  1.
         11    1    5    5    0    0 -0.39350028076E+03  0.23510032840E+03  0.10131558544E+03  0.46944593216E+03  0.00000000000E+00 0. -1.
        -11    1    5    5    0    0 -0.36938492907E+03  0.23988029801E+03  0.19110999123E+03  0.48011541524E+03  0.00000000000E+00 0.  1.
          4    1    6    6  503    0 -0.19021469638E+03 -0.94355205909E+02 -0.24364414294E+03  0.32318261709E+03  0.00000000000E+00 0. -1.
         -4    1    6    6    0  503 -0.13158177090E+03  0.12034219674E+02 -0.14213594155E+03  0.19406496530E+03  0.00000000000E+00 0.  1.
<mgrwt>
<rscale>  0 0.27006720E+04</rscale>
<asrwt>0</asrwt>
<pdfrwt beam="1">  1        2 0.17763643E+00 0.27006720E+04</pdfrwt>
<pdfrwt beam="2">  1       -1 0.24295450E+00 0.27006720E+04</pdfrwt>
<totfact> 0.15633822E+00</totfact>
</mgrwt>
</event>
<event>
12    6  0.1494052E-007  0.1973947E+04  0.7818608E-02  0.8618899E-01
          2   -1    0    0  501    0  0.00000000000E+00  0.00000000000E+00  0.15388694287E+04  0.15388694287E+04  0.00000000000E+00 0. -1.
         -1   -1    0    0    0  501 -0.00000000000E+00 -0.00000000000E+00 -0.63300813644E+03  0.63300813644E+03  0.00000000000E+00 0.  1.
         24    2    1    2    0    0  0.24559554237E+03  0.57632204034E+03  0.92534026971E+03  0.11204098637E+04  0.81236587983E+02 0.  0.
        254    2    1    2    0    0 -0.24559554237E+03 -0.57632204034E+03 -0.19478977468E+02  0.10514677015E+04  0.84423967688E+03 0.  0.
         23    2    4    4    0    0  0.30480548852E+03 -0.24553486314E+03 -0.13481382805E+02  0.40242405326E+03  0.92572221073E+02 0.  0.
         23    2    4    4    0    0 -0.55040103089E+03 -0.33078717721E+03 -0.59975946631E+01  0.64904364819E+03  0.94128819769E+02 0.  0.
          2    1    3    3  502    0  0.24476751235E+03  0.52150668345E+03  0.85991177461E+03  0.10350500549E+04  0.00000000000E+00 0. -1.
         -3    1    3    3    0  502  0.82803001982E+00  0.54815356890E+02  0.65428495094E+02  0.85359808780E+02  0.00000000000E+00 0.  1.
         11    1    5    5    0    0  0.19329861684E+03 -0.19961745931E+03 -0.34540372752E+02  0.28000807611E+03  0.00000000000E+00 0.  1.
        -11    1    5    5    0    0  0.11150687168E+03 -0.45917403825E+02  0.21058989947E+02  0.12241597716E+03  0.00000000000E+00 0. -1.
          3    1    6    6  503    0 -0.11473100376E+03 -0.10396763358E+03  0.25237524661E+02  0.15687384966E+03  0.00000000000E+00 0. -1.
         -3    1    6    6    0  503 -0.43567002713E+03 -0.22681954362E+03 -0.31235119324E+02  0.49216979853E+03  0.00000000000E+00 0.  1.
<mgrwt>
<rscale>  0 0.19739472E+04</rscale>
<asrwt>0</asrwt>
<pdfrwt beam="1">  1        2 0.23674914E+00 0.19739472E+04</pdfrwt>
<pdfrwt beam="2">  1       -1 0.97385867E-01 0.19739472E+04</pdfrwt>
<totfact> 0.12960630E+01</totfact>
</mgrwt>
</event>
<event>
12    6  0.1494052E-007  0.1613005E+04  0.7818608E-02  0.8812598E-01
         -1   -1    0    0    0  501 -0.00000000000E+00  0.00000000000E+00  0.94399055236E+03  0.94399055236E+03  0.00000000000E+00 0.  1.
          2   -1    0    0  501    0  0.00000000000E+00 -0.00000000000E+00 -0.68903878713E+03  0.68903878713E+03  0.00000000000E+00 0. -1.
         24    2    1    2    0    0  0.84659820388E+02 -0.45852143444E+03  0.39755311414E+03  0.61785858531E+03  0.79319366211E+02 0.  0.
        254    2    1    2    0    0 -0.84659820388E+02  0.45852143444E+03 -0.14260134891E+03  0.10151707542E+04  0.89040851546E+03 0.  0.
         23    2    4    4    0    0 -0.21192059063E+03  0.60097092049E+03  0.14412057472E+03  0.65899190098E+03  0.86158003108E+02 0.  0.
         23    2    4    4    0    0  0.12726077024E+03 -0.14244948605E+03 -0.28672192363E+03  0.35617885320E+03  0.90370096073E+02 0.  0.
          4    1    3    3  502    0 -0.55774540319E+01 -0.23502450009E+02  0.43506769516E+02  0.49762557648E+02  0.00000000000E+00 0. -1.
         -3    1    3    3    0  502  0.90237274420E+02 -0.43501898443E+03  0.35404634462E+03  0.56809602766E+03  0.00000000000E+00 0.  1.
         11    1    5    5    0    0 -0.16046863846E+03  0.50445792654E+03  0.14762525509E+03  0.54956455446E+03  0.00000000000E+00 0. -1.
        -11    1    5    5    0    0 -0.51451952168E+02  0.96512993947E+02 -0.35046803702E+01  0.10942734652E+03  0.00000000000E+00 0.  1.
          1    1    6    6  503    0  0.10115764867E+03 -0.13278603889E+03 -0.28234904478E+03  0.32800302605E+03  0.00000000000E+00 0. -1.
         -1    1    6    6    0  503  0.26103121566E+02 -0.96634471624E+01 -0.43728788469E+01  0.28175827157E+02  0.00000000000E+00 0.  1.
<mgrwt>
<rscale>  0 0.16130048E+04</rscale>
<asrwt>0</asrwt>
<pdfrwt beam="1">  1        2 0.10600597E+00 0.16130048E+04</pdfrwt>
<pdfrwt beam="2">  1       -1 0.14522932E+00 0.16130048E+04</pdfrwt>
<totfact> 0.17402549E+01</totfact>
</mgrwt>
</event>
<event>
12    6  0.1494052E-007  0.2021882E+04  0.7818608E-02  0.8596458E-01
          2   -1    0    0  501    0  0.00000000000E+00  0.00000000000E+00  0.19417862909E+04  0.19417862909E+04  0.00000000000E+00 0. -1.
         -1   -1    0    0    0  501 -0.00000000000E+00 -0.00000000000E+00 -0.52632046786E+03  0.52632046786E+03  0.00000000000E+00 0.  1.
         24    2    1    2    0    0 -0.36923065937E+03  0.16473288299E+03  0.14207683690E+04  0.14793320519E+04  0.79827056080E+02 0.  0.
        254    2    1    2    0    0  0.36923065937E+03 -0.16473288299E+03 -0.53025459025E+01  0.98877470691E+03  0.90231873608E+03 0.  0.
         23    2    4    4    0    0 -0.99153551635E+02  0.21375012421E+03  0.22465908059E+03  0.33842438953E+03  0.92405749496E+02 0.  0.
         23    2    4    4    0    0  0.46838421100E+03 -0.37848300719E+03 -0.22996162649E+03  0.65035031738E+03  0.86255607370E+02 0.  0.
          4    1    3    3  502    0 -0.28994115547E+03  0.99977647528E+02  0.11379902155E+04  0.11785937104E+04  0.00000000000E+00 0. -1.
         -3    1    3    3    0  502 -0.79289503896E+02  0.64755235458E+02  0.28277815347E+03  0.30073834146E+03  0.00000000000E+00 0.  1.
         11    1    5    5    0    0 -0.23515278448E+02  0.53395529586E+02  0.86688723613E+01  0.58984745895E+02  0.00000000000E+00 0. -1.
        -11    1    5    5    0    0 -0.75638273187E+02  0.16035459462E+03  0.21599020823E+03  0.27943964364E+03  0.00000000000E+00 0.  1.
          3    1    6    6  503    0  0.74568976773E+02 -0.64324204372E+02 -0.73357286569E+02  0.12279831863E+03  0.00000000000E+00 0. -1.
         -3    1    6    6    0  503  0.39381523423E+03 -0.31415880282E+03 -0.15660433992E+03  0.52755199875E+03  0.00000000000E+00 0.  1.
<mgrwt>
<rscale>  0 0.20218822E+04</rscale>
<asrwt>0</asrwt>
<pdfrwt beam="1">  1        2 0.29873635E+00 0.20218822E+04</pdfrwt>
<pdfrwt beam="2">  1       -1 0.80972380E-01 0.20218822E+04</pdfrwt>
<totfact> 0.11553903E+01</totfact>
</mgrwt>
</event>
<event>
12    6  0.1494052E-007  0.1933266E+04  0.7818608E-02  0.8638472E-01
          2   -1    0    0  501    0  0.00000000000E+00  0.00000000000E+00  0.32102034932E+04  0.32102034932E+04  0.00000000000E+00 0. -1.
         -1   -1    0    0    0  501 -0.00000000000E+00 -0.00000000000E+00 -0.29106558126E+03  0.29106558126E+03  0.00000000000E+00 0.  1.
         24    2    1    2    0    0 -0.40740710059E+03  0.42103491516E+03  0.28017310750E+03  0.65415031579E+03  0.78515731487E+02 0.  0.
        254    2    1    2    0    0  0.40740710059E+03 -0.42103491516E+03  0.26389648044E+04  0.28471187587E+04  0.89369963716E+03 0.  0.
         23    2    4    4    0    0  0.64499853876E+03 -0.16290417327E+03  0.20316586532E+04  0.21397238009E+04  0.90665187763E+02 0.  0.
         23    2    4    4    0    0 -0.23759143818E+03 -0.25813074189E+03  0.60730615123E+03  0.70739495776E+03  0.92226317012E+02 0.  0.
          2    1    3    3  502    0 -0.84644241212E+01  0.44500665902E+01  0.18382493872E+02  0.20721140155E+02  0.00000000000E+00 0. -1.
         -1    1    3    3    0  502 -0.39894267646E+03  0.41658484857E+03  0.26179061362E+03  0.63342917563E+03  0.00000000000E+00 0.  1.
         11    1    5    5    0    0  0.88660718098E+02 -0.29142305305E+00  0.34680429692E+03  0.35795813753E+03  0.00000000000E+00 0.  1.
        -11    1    5    5    0    0  0.55633782067E+03 -0.16261275022E+03  0.16848543563E+04  0.17817656634E+04  0.00000000000E+00 0. -1.
          3    1    6    6  503    0 -0.17522990578E+03 -0.15195927607E+03  0.46185221743E+03  0.51682164449E+03  0.00000000000E+00 0. -1.
         -3    1    6    6    0  503 -0.62361532399E+02 -0.10617146582E+03  0.14545393379E+03  0.19057331328E+03  0.00000000000E+00 0.  1.
<mgrwt>
<rscale>  0 0.19332664E+04</rscale>
<asrwt>0</asrwt>
<pdfrwt beam="1">  1        2 0.49387744E+00 0.19332664E+04</pdfrwt>
<pdfrwt beam="2">  1       -1 0.44779322E-01 0.19332664E+04</pdfrwt>
<totfact> 0.67388552E+00</totfact>
</mgrwt>
</event>
<event>
12    6  0.1494052E-007  0.2359099E+04  0.7818608E-02  0.8454977E-01
          2   -1    0    0  501    0  0.00000000000E+00  0.00000000000E+00  0.50590275836E+03  0.50590275836E+03  0.00000000000E+00 0. -1.
         -1   -1    0    0    0  501 -0.00000000000E+00 -0.00000000000E+00 -0.27502075982E+04  0.27502075982E+04  0.00000000000E+00 0.  1.
         24    2    1    2    0    0  0.37838915344E+03  0.81342378698E+03 -0.15701425146E+04  0.18100892363E+04  0.78986827254E+02 0.  0.
        254    2    1    2    0    0 -0.37838915344E+03 -0.81342378698E+03 -0.67416232532E+03  0.14460211202E+04  0.91194606782E+03 0.  0.
         23    2    4    4    0    0  0.25000734732E+03 -0.17441275443E+03  0.44067570580E+01  0.31811545354E+03  0.90854497149E+02 0.  0.
         23    2    4    4    0    0 -0.62839650076E+03 -0.63901103256E+03 -0.67856908238E+03  0.11279056667E+04  0.92184225934E+02 0.  0.
          2    1    3    3  502    0  0.20485041555E+02  0.14303668443E+02 -0.44586860365E+02  0.51109881389E+02  0.00000000000E+00 0. -1.
         -1    1    3    3    0  502  0.35790411188E+03  0.79912011854E+03 -0.15255556542E+04  0.17589793550E+04  0.00000000000E+00 0.  1.
         11    1    5    5    0    0  0.29243574896E+02 -0.57941841735E+02  0.20305881036E+02  0.68005679917E+02  0.00000000000E+00 0.  1.
        -11    1    5    5    0    0  0.22076377243E+03 -0.11647091269E+03 -0.15899123977E+02  0.25010977362E+03  0.00000000000E+00 0. -1.
          2    1    6    6  503    0 -0.61042032077E+03 -0.63203171009E+03 -0.67562647026E+03  0.11083989254E+04  0.00000000000E+00 0. -1.
         -2    1    6    6    0  503 -0.17976179985E+02 -0.69793224689E+01 -0.29426121229E+01  0.19506741273E+02  0.00000000000E+00 0.  1.
<mgrwt>
<rscale>  0 0.23590995E+04</rscale>
<asrwt>0</asrwt>
<pdfrwt beam="1">  1        2 0.77831194E-01 0.23590995E+04</pdfrwt>
<pdfrwt beam="2">  1       -1 0.42310886E+00 0.23590995E+04</pdfrwt>
<totfact> 0.31051843E-01</totfact>
</mgrwt>
</event>
<event>
12    6  0.1494052E-007  0.2521056E+04  0.7818608E-02  0.8395522E-01
         -1   -1    0    0    0  501 -0.00000000000E+00  0.00000000000E+00  0.48177299928E+03  0.48177299928E+03  0.00000000000E+00 0.  1.
          2   -1    0    0  501    0  0.00000000000E+00 -0.00000000000E+00 -0.32980899840E+04  0.32980899840E+04  0.00000000000E+00 0. -1.
         24    2    1    2    0    0  0.40980481662E+03  0.96015920793E+03 -0.72089890206E+03  0.12707447007E+04  0.72464991282E+02 0.  0.
        254    2    1    2    0    0 -0.40980481662E+03 -0.96015920793E+03 -0.20954180827E+04  0.25091182827E+04  0.90280226120E+03 0.  0.
         23    2    4    4    0    0 -0.33156045973E+03  0.20267816814E+02 -0.86673695535E+03  0.93256772892E+03  0.90036083970E+02 0.  0.
         23    2    4    4    0    0 -0.78244356895E+02 -0.98042702474E+03 -0.12286811273E+04  0.15765505537E+04  0.92168354475E+02 0.  0.
          2    1    3    3  502    0  0.61218324205E+02  0.14027853886E+03 -0.75746097520E+02  0.17077243036E+03  0.00000000000E+00 0. -1.
         -3    1    3    3    0  502  0.34858649241E+03  0.81988066907E+03 -0.64515280454E+03  0.10999722703E+04  0.00000000000E+00 0.  1.
         11    1    5    5    0    0 -0.19267985778E+03 -0.20012632257E+02 -0.57885193385E+03  0.61040608972E+03  0.00000000000E+00 0.  1.
        -11    1    5    5    0    0 -0.13888060194E+03  0.40280449072E+02 -0.28788502150E+03  0.32216163921E+03  0.00000000000E+00 0. -1.
          1    1    6    6  503    0 -0.88925333611E+02 -0.58169509830E+03 -0.75740511060E+03  0.95913471624E+03  0.00000000000E+00 0. -1.
         -1    1    6    6    0  503  0.10680976716E+02 -0.39873192644E+03 -0.47127601675E+03  0.61741583749E+03  0.00000000000E+00 0.  1.
<mgrwt>
<rscale>  0 0.25210559E+04</rscale>
<asrwt>0</asrwt>
<pdfrwt beam="1">  1        2 0.50739845E+00 0.25210559E+04</pdfrwt>
<pdfrwt beam="2">  1       -1 0.74118924E-01 0.25210559E+04</pdfrwt>
<totfact> 0.20741498E+00</totfact>
</mgrwt>
</event>
<event>
12    6  0.1494052E-007  0.1468773E+04  0.7818608E-02  0.8905488E-01
          2   -1    0    0  501    0  0.00000000000E+00  0.00000000000E+00  0.33202731069E+04  0.33202731069E+04  0.00000000000E+00 0. -1.
         -1   -1    0    0    0  501 -0.00000000000E+00 -0.00000000000E+00 -0.16243358269E+03  0.16243358269E+03  0.00000000000E+00 0.  1.
         24    2    1    2    0    0 -0.44444860363E+02 -0.89613773812E+02  0.20081268897E+04  0.20121677016E+04  0.78989113873E+02 0.  0.
        254    2    1    2    0    0  0.44444860363E+02  0.89613773812E+02  0.11497126345E+04  0.14705389880E+04  0.91139442571E+03 0.  0.
         23    2    4    4    0    0  0.15056595824E+03 -0.18626291839E+03 -0.23867521300E+02  0.25684397469E+03  0.89639200183E+02 0.  0.
         23    2    4    4    0    0 -0.10612109788E+03  0.27587669221E+03  0.11735801558E+04  0.12136950133E+04  0.91627324104E+02 0.  0.
          4    1    3    3  502    0 -0.58361800922E+02 -0.95677608640E+02  0.18030499266E+04  0.18065296406E+04  0.00000000000E+00 0. -1.
         -3    1    3    3    0  502  0.13916940559E+02  0.60638348284E+01  0.20507696312E+03  0.20563806099E+03  0.00000000000E+00 0.  1.
         11    1    5    5    0    0  0.10135961091E+03 -0.97885157799E+02 -0.54612719190E+02  0.15112188438E+03  0.00000000000E+00 0.  1.
        -11    1    5    5    0    0  0.49206347335E+02 -0.88377760595E+02  0.30745197890E+02  0.10572209031E+03  0.00000000000E+00 0. -1.
          3    1    6    6  503    0 -0.62492299213E+02  0.11940329444E+03  0.36802165212E+03  0.39192138320E+03  0.00000000000E+00 0. -1.
         -3    1    6    6    0  503 -0.43628798669E+02  0.15647339777E+03  0.80555850367E+03  0.82177363009E+03  0.00000000000E+00 0.  1.
<mgrwt>
<rscale>  0 0.14687734E+04</rscale>
<asrwt>0</asrwt>
<pdfrwt beam="1">  1        2 0.51081120E+00 0.14687734E+04</pdfrwt>
<pdfrwt beam="2">  1       -1 0.24989784E-01 0.14687734E+04</pdfrwt>
<totfact> 0.16893478E+01</totfact>
</mgrwt>
</event>
<event>
12    6  0.1494052E-007  0.2972361E+04  0.7818608E-02  0.8251668E-01
          2   -1    0    0  501    0  0.00000000000E+00  0.00000000000E+00  0.74036463357E+03  0.74036463357E+03  0.00000000000E+00 0. -1.
         -1   -1    0    0    0  501 -0.00000000000E+00 -0.00000000000E+00 -0.29833044752E+04  0.29833044752E+04  0.00000000000E+00 0.  1.
         24    2    1    2    0    0 -0.10994181251E+04 -0.52717383080E+03 -0.29746338598E+03  0.12575320927E+04  0.79183562512E+02 0.  0.
        254    2    1    2    0    0  0.10994181251E+04  0.52717383080E+03 -0.19454764557E+04  0.24661370161E+04  0.90017813850E+03 0.  0.
         23    2    4    4    0    0  0.38271838006E+03 -0.48464516342E+02 -0.10958088039E+03  0.41089150150E+03  0.89452159723E+02 0.  0.
         23    2    4    4    0    0  0.71669974500E+03  0.57563834714E+03 -0.18358955753E+04  0.20552455146E+04  0.92214590873E+02 0.  0.
          2    1    3    3  502    0 -0.92621363027E+02 -0.39344150291E+02 -0.47074122670E+02  0.11109748906E+03  0.00000000000E+00 0. -1.
         -1    1    3    3    0  502 -0.10067967620E+04 -0.48782968051E+03 -0.25038926331E+03  0.11464346036E+04  0.00000000000E+00 0.  1.
         11    1    5    5    0    0  0.27283937376E+02 -0.11439588902E+02 -0.35009772245E+02  0.45836247508E+02  0.00000000000E+00 0. -1.
        -11    1    5    5    0    0  0.35543444268E+03 -0.37024927440E+02 -0.74571108144E+02  0.36505525399E+03  0.00000000000E+00 0.  1.
          4    1    6    6  503    0  0.11606985894E+03  0.11325867297E+03 -0.25810673680E+03  0.30482589578E+03  0.00000000000E+00 0. -1.
         -4    1    6    6    0  503  0.60062988606E+03  0.46237967417E+03 -0.15777888385E+04  0.17504196188E+04  0.00000000000E+00 0.  1.
<mgrwt>
<rscale>  0 0.29723614E+04</rscale>
<asrwt>0</asrwt>
<pdfrwt beam="1">  1        2 0.11390225E+00 0.29723614E+04</pdfrwt>
<pdfrwt beam="2">  1       -1 0.45896992E+00 0.29723614E+04</pdfrwt>
<totfact> 0.10456905E-01</totfact>
</mgrwt>
</event>
<event>
12    6  0.1494052E-007  0.1082583E+04  0.7818608E-02  0.9222336E-01
          2   -1    0    0  501    0  0.00000000000E+00  0.00000000000E+00  0.55481867192E+03  0.55481867192E+03  0.00000000000E+00 0. -1.
         -1   -1    0    0    0  501 -0.00000000000E+00 -0.00000000000E+00 -0.52809434463E+03  0.52809434463E+03  0.00000000000E+00 0.  1.
         24    2    1    2    0    0 -0.60688982448E+02  0.20176909245E+02  0.13812650656E+03  0.17172840180E+03  0.79507558846E+02 0.  0.
        254    2    1    2    0    0  0.60688982448E+02 -0.20176909245E+02 -0.11140217927E+03  0.91118461475E+03  0.90208463924E+03 0.  0.
         23    2    4    4    0    0  0.32583653182E+03 -0.28917156077E+03  0.11837911353E+03  0.46014363524E+03  0.89044446799E+02 0.  0.
         23    2    4    4    0    0 -0.26514754937E+03  0.26899465153E+03 -0.22978129280E+03  0.45104097950E+03  0.89315044556E+02 0.  0.
          4    1    3    3  502    0 -0.42157798412E+02  0.48647039110E+02  0.67036984095E+02  0.92939612748E+02  0.00000000000E+00 0. -1.
         -3    1    3    3    0  502 -0.18531184036E+02 -0.28470129865E+02  0.71089522468E+02  0.78788789056E+02  0.00000000000E+00 0.  1.
         11    1    5    5    0    0  0.10322158760E+03 -0.63336882067E+02  0.68499991061E+02  0.13913484665E+03  0.00000000000E+00 0. -1.
        -11    1    5    5    0    0  0.22261494422E+03 -0.22583467871E+03  0.49879122471E+02  0.32100878859E+03  0.00000000000E+00 0.  1.
          2    1    6    6  503    0 -0.51533835185E+02  0.72663437224E+02 -0.15652811947E+02  0.90447342691E+02  0.00000000000E+00 0. -1.
         -2    1    6    6    0  503 -0.21361371419E+03  0.19633121430E+03 -0.21412848085E+03  0.36059363681E+03  0.00000000000E+00 0.  1.
<mgrwt>
<rscale>  0 0.10825832E+04</rscale>
<asrwt>0</asrwt>
<pdfrwt beam="1">  1        2 0.85356719E-01 0.10825832E+04</pdfrwt>
<pdfrwt beam="2">  1       -1 0.81245284E-01 0.10825832E+04</pdfrwt>
<totfact> 0.93476345E+01</totfact>
</mgrwt>
</event>
<event>
12    6  0.1494052E-007  0.1292572E+04  0.7818608E-02  0.9035477E-01
          2   -1    0    0  501    0  0.00000000000E+00  0.00000000000E+00  0.31062445084E+03  0.31062445084E+03  0.00000000000E+00 0. -1.
         -1   -1    0    0    0  501 -0.00000000000E+00 -0.00000000000E+00 -0.13446639518E+04  0.13446639518E+04  0.00000000000E+00 0.  1.
         24    2    1    2    0    0  0.15344233789E+03  0.14556531326E+03 -0.26950199689E+02  0.22751557055E+03  0.79392758472E+02 0.  0.
        254    2    1    2    0    0 -0.15344233789E+03 -0.14556531326E+03 -0.10070893013E+04  0.14277728321E+04  0.98973359439E+03 0.  0.
         23    2    4    4    0    0  0.16163446890E+03 -0.44391580374E+03 -0.80967081830E+03  0.94196228129E+03  0.92407591720E+02 0.  0.
         23    2    4    4    0    0 -0.31507680679E+03  0.29835049048E+03 -0.19741848301E+03  0.48581055084E+03  0.93549048787E+02 0.  0.
          4    1    3    3  502    0  0.15483941526E+03  0.14123785482E+03 -0.40294716947E+02  0.21341752591E+03  0.00000000000E+00 0. -1.
         -3    1    3    3    0  502 -0.13970773754E+01  0.43274584460E+01  0.13344517258E+02  0.14098044639E+02  0.00000000000E+00 0.  1.
         11    1    5    5    0    0  0.27502816183E+02 -0.32695563736E+02 -0.37270928035E+02  0.56696797640E+02  0.00000000000E+00 0. -1.
        -11    1    5    5    0    0  0.13413165272E+03 -0.41122024001E+03 -0.77239989027E+03  0.88526548365E+03  0.00000000000E+00 0.  1.
          3    1    6    6  503    0 -0.21327461806E+03  0.20480575696E+03 -0.18074376477E+03  0.34655413617E+03  0.00000000000E+00 0. -1.
         -3    1    6    6    0  503 -0.10180218873E+03  0.93544733517E+02 -0.16674718242E+02  0.13925641468E+03  0.00000000000E+00 0.  1.
<mgrwt>
<rscale>  0 0.12925719E+04</rscale>
<asrwt>0</asrwt>
<pdfrwt beam="1">  1        2 0.47788376E-01 0.12925719E+04</pdfrwt>
<pdfrwt beam="2">  1       -1 0.20687138E+00 0.12925719E+04</pdfrwt>
<totfact> 0.16020122E+01</totfact>
</mgrwt>
</event>
<event>
12    6  0.1494052E-007  0.3651130E+04  0.7818608E-02  0.8078879E-01
          2   -1    0    0  501    0  0.00000000000E+00  0.00000000000E+00  0.15612193708E+04  0.15612193708E+04  0.00000000000E+00 0. -1.
         -1   -1    0    0    0  501 -0.00000000000E+00 -0.00000000000E+00 -0.21346691036E+04  0.21346691036E+04  0.00000000000E+00 0.  1.
         24    2    1    2    0    0  0.47566445492E+03  0.94887049760E+03  0.10935284394E+04  0.15260801706E+04  0.80649516883E+02 0.  0.
        254    2    1    2    0    0 -0.47566445492E+03 -0.94887049760E+03 -0.16669781722E+04  0.21698083038E+04  0.89590175444E+03 0.  0.
         23    2    4    4    0    0  0.15860513840E+03 -0.32647302880E+03 -0.13608389210E+03  0.39726431100E+03  0.86947562632E+02 0.  0.
         23    2    4    4    0    0 -0.63426959332E+03 -0.62239746881E+03 -0.15308942801E+04  0.17725439928E+04  0.92727467727E+02 0.  0.
          2    1    3    3  502    0  0.35050139077E+03  0.62337260155E+03  0.75877522388E+03  0.10426813826E+04  0.00000000000E+00 0. -1.
         -1    1    3    3    0  502  0.12516306415E+03  0.32549789606E+03  0.33475321550E+03  0.48339878801E+03  0.00000000000E+00 0.  1.
         11    1    5    5    0    0  0.14787152242E+03 -0.32456519404E+03 -0.11713894733E+03  0.37540656003E+03  0.00000000000E+00 0.  1.
        -11    1    5    5    0    0  0.10733615979E+02 -0.19078347533E+01 -0.18944944771E+02  0.21857750978E+02  0.00000000000E+00 0. -1.
          4    1    6    6  503    0 -0.21698669481E+02 -0.48489907006E+02 -0.11167871451E+03  0.12366987755E+03  0.00000000000E+00 0. -1.
         -4    1    6    6    0  503 -0.61257092384E+03 -0.57390756180E+03 -0.14192155656E+04  0.16488741152E+04  0.00000000000E+00 0.  1.
<mgrwt>
<rscale>  0 0.36511296E+04</rscale>
<asrwt>0</asrwt>
<pdfrwt beam="1">  1        2 0.24018760E+00 0.36511296E+04</pdfrwt>
<pdfrwt beam="2">  1       -1 0.32841063E+00 0.36511296E+04</pdfrwt>
<totfact> 0.23354702E-01</totfact>
</mgrwt>
</event>
<event>
12    6  0.1494052E-007  0.2315185E+04  0.7818608E-02  0.8471958E-01
          2   -1    0    0  501    0  0.00000000000E+00  0.00000000000E+00  0.54009516291E+03  0.54009516291E+03  0.00000000000E+00 0. -1.
         -1   -1    0    0    0  501 -0.00000000000E+00 -0.00000000000E+00 -0.24810828687E+04  0.24810828687E+04  0.00000000000E+00 0.  1.
         24    2    1    2    0    0  0.20779941228E+03 -0.27309286747E+03  0.37284670188E+03  0.51314081219E+03  0.80861115687E+02 0.  0.
        254    2    1    2    0    0 -0.20779941228E+03  0.27309286747E+03 -0.23138344077E+04  0.25080372194E+04  0.90479871678E+03 0.  0.
         23    2    4    4    0    0 -0.24699902630E+03 -0.11915979724E+03 -0.19268107027E+04  0.19483786688E+04  0.91500692102E+02 0.  0.
         23    2    4    4    0    0  0.39199614019E+02  0.39225266470E+03 -0.38702370496E+03  0.55965855063E+03  0.89619096117E+02 0.  0.
          4    1    3    3  502    0  0.15653457663E+03 -0.22569061083E+03  0.33669690737E+03  0.43451597546E+03  0.00000000000E+00 0. -1.
         -3    1    3    3    0  502  0.51264835650E+02 -0.47402256631E+02  0.36149794516E+02  0.78624836735E+02  0.00000000000E+00 0.  1.
         11    1    5    5    0    0 -0.20061775456E+03 -0.58903784119E+02 -0.15436224585E+04  0.15577186632E+04  0.00000000000E+00 0.  1.
        -11    1    5    5    0    0 -0.46381271736E+02 -0.60256013119E+02 -0.38318824418E+03  0.39066000559E+03  0.00000000000E+00 0. -1.
          1    1    6    6  503    0 -0.26093706270E+02  0.72731809796E+02 -0.60185343110E+02  0.97944235095E+02  0.00000000000E+00 0. -1.
         -1    1    6    6    0  503  0.65293320289E+02  0.31952085491E+03 -0.32683836185E+03  0.46171431554E+03  0.00000000000E+00 0.  1.
<mgrwt>
<rscale>  0 0.23151854E+04</rscale>
<asrwt>0</asrwt>
<pdfrwt beam="1">  1        2 0.83091565E-01 0.23151854E+04</pdfrwt>
<pdfrwt beam="2">  1       -1 0.38170505E+00 0.23151854E+04</pdfrwt>
<totfact> 0.55434564E-01</totfact>
</mgrwt>
</event>
<event>
12    6  0.1494052E-007  0.1851097E+04  0.7818608E-02  0.8679589E-01
          2   -1    0    0  501    0  0.00000000000E+00  0.00000000000E+00  0.14401733282E+04  0.14401733282E+04  0.00000000000E+00 0. -1.
         -1   -1    0    0    0  501 -0.00000000000E+00 -0.00000000000E+00 -0.59481702420E+03  0.59481702420E+03  0.00000000000E+00 0.  1.
         24    2    1    2    0    0  0.50753358179E+03  0.39135600255E+03  0.62492432247E+03  0.89873128588E+03  0.80235017536E+02 0.  0.
        254    2    1    2    0    0 -0.50753358179E+03 -0.39135600255E+03  0.22043198155E+03  0.11362590665E+04  0.91200030177E+03 0.  0.
         23    2    4    4    0    0 -0.53040019895E+03  0.14239655267E+03  0.21037183642E+03  0.59457748602E+03  0.87549574888E+02 0.  0.
         23    2    4    4    0    0  0.22866617164E+02 -0.53375255522E+03  0.10060145127E+02  0.54168158052E+03  0.88899132581E+02 0.  0.
          2    1    3    3  502    0  0.22875009182E+03  0.16382626429E+03  0.32842086618E+03  0.43246492889E+03  0.00000000000E+00 0. -1.
         -1    1    3    3    0  502  0.27878348997E+03  0.22752973826E+03  0.29650345629E+03  0.46626635699E+03  0.00000000000E+00 0.  1.
         11    1    5    5    0    0  0.32682195801E+00  0.83073458150E+01  0.52805378986E+00  0.83305250667E+01  0.00000000000E+00 0.  1.
        -11    1    5    5    0    0 -0.53072702091E+03  0.13408920686E+03  0.20984378263E+03  0.58624696095E+03  0.00000000000E+00 0. -1.
          1    1    6    6  503    0  0.46358436156E+02 -0.19495727670E+03  0.23758281339E+02  0.20179668053E+03  0.00000000000E+00 0. -1.
         -1    1    6    6    0  503 -0.23491818993E+02 -0.33879527852E+03 -0.13698136212E+02  0.33988489999E+03  0.00000000000E+00 0.  1.
<mgrwt>
<rscale>  0 0.18510966E+04</rscale>
<asrwt>0</asrwt>
<pdfrwt beam="1">  1        2 0.22156513E+00 0.18510966E+04</pdfrwt>
<pdfrwt beam="2">  1       -1 0.91510312E-01 0.18510966E+04</pdfrwt>
<totfact> 0.17121955E+01</totfact>
</mgrwt>
</event>
<event>
12    6  0.1494052E-007  0.1447354E+04  0.7818608E-02  0.8920237E-01
         -1   -1    0    0    0  501 -0.00000000000E+00  0.00000000000E+00  0.70066634860E+03  0.70066634860E+03  0.00000000000E+00 0.  1.
          2   -1    0    0  501    0  0.00000000000E+00 -0.00000000000E+00 -0.74744344520E+03  0.74744344520E+03  0.00000000000E+00 0. -1.
         24    2    1    2    0    0  0.12809326792E+03 -0.37479208379E+03 -0.22410521429E+03  0.46150841730E+03  0.76745558866E+02 0.  0.
        254    2    1    2    0    0 -0.12809326792E+03  0.37479208379E+03  0.17732811769E+03  0.98660137650E+03  0.88603612987E+03 0.  0.
         23    2    4    4    0    0 -0.33217282686E+03 -0.19041265303E+02  0.35859993844E+03  0.49891085340E+03  0.98065116669E+02 0.  0.
         23    2    4    4    0    0  0.20407955894E+03  0.39383334909E+03 -0.18127182075E+03  0.48769052310E+03  0.90716040997E+02 0.  0.
          4    1    3    3  502    0  0.41235098377E+02 -0.23491799319E+03 -0.14108983712E+03  0.27711575019E+03  0.00000000000E+00 0. -1.
         -3    1    3    3    0  502  0.86858169541E+02 -0.13987409060E+03 -0.83015377166E+02  0.18439266711E+03  0.00000000000E+00 0.  1.
         11    1    5    5    0    0 -0.24924027654E+03 -0.56385120384E+02  0.27452945804E+03  0.37505522338E+03  0.00000000000E+00 0.  1.
        -11    1    5    5    0    0 -0.82932550312E+02  0.37343855082E+02  0.84070480401E+02  0.12385563002E+03  0.00000000000E+00 0. -1.
          1    1    6    6  503    0  0.10005766406E+02  0.96013932822E+02 -0.27428002966E+02  0.10035480060E+03  0.00000000000E+00 0. -1.
         -1    1    6    6    0  503  0.19407379253E+03  0.29781941627E+03 -0.15384381778E+03  0.38733572250E+03  0.00000000000E+00 0.  1.
<mgrwt>
<rscale>  0 0.14473541E+04</rscale>
<asrwt>0</asrwt>
<pdfrwt beam="1">  1        2 0.11499130E+00 0.14473541E+04</pdfrwt>
<pdfrwt beam="2">  1       -1 0.10779482E+00 0.14473541E+04</pdfrwt>
<totfact> 0.33413388E+01</totfact>
</mgrwt>
</event>
<event>
12    6  0.1494052E-007  0.1703407E+04  0.7818608E-02  0.8759424E-01
         -1   -1    0    0    0  501 -0.00000000000E+00  0.00000000000E+00  0.93062539850E+03  0.93062539850E+03  0.00000000000E+00 0.  1.
          2   -1    0    0  501    0  0.00000000000E+00 -0.00000000000E+00 -0.77947415511E+03  0.77947415511E+03  0.00000000000E+00 0. -1.
         24    2    1    2    0    0 -0.26523514621E+02 -0.60420355690E+03 -0.56938398346E+01  0.61021029777E+03  0.80986126544E+02 0.  0.
        254    2    1    2    0    0  0.26523514621E+02  0.60420355690E+03  0.15684508323E+03  0.10998892558E+04  0.90520194430E+03 0.  0.
         23    2    4    4    0    0  0.26069824461E+03  0.67024311720E+03  0.31911450157E+03  0.79330192452E+03  0.10151092275E+03 0.  0.
         23    2    4    4    0    0 -0.23417472999E+03 -0.66039560297E+02 -0.16226941834E+03  0.30658733131E+03  0.92007607842E+02 0.  0.
          2    1    3    3  502    0 -0.98162668191E+01 -0.58142354183E+03 -0.61111861773E+00  0.58150672185E+03  0.00000000000E+00 0. -1.
         -1    1    3    3    0  502 -0.16707247802E+02 -0.22780015072E+02 -0.50827212168E+01  0.28703575923E+02  0.00000000000E+00 0.  1.
         11    1    5    5    0    0  0.10651476150E+03  0.33460776660E+03  0.10566346856E+03  0.36670495016E+03  0.00000000000E+00 0. -1.
        -11    1    5    5    0    0  0.15418348311E+03  0.33563535060E+03  0.21345103301E+03  0.42659697436E+03  0.00000000000E+00 0.  1.
          4    1    6    6  503    0 -0.19810291521E+03 -0.43276624613E+02 -0.16828723661E+03  0.26351133800E+03  0.00000000000E+00 0.  1.
         -4    1    6    6    0  503 -0.36071814784E+02 -0.22762935684E+02  0.60178182656E+01  0.43075993308E+02  0.00000000000E+00 0. -1.
<mgrwt>
<rscale>  0 0.17034065E+04</rscale>
<asrwt>0</asrwt>
<pdfrwt beam="1">  1        2 0.11991910E+00 0.17034065E+04</pdfrwt>
<pdfrwt beam="2">  1       -1 0.14317314E+00 0.17034065E+04</pdfrwt>
<totfact> 0.15302894E+01</totfact>
</mgrwt>
</event>
<event>
12    6  0.1494052E-007  0.2004440E+04  0.7818608E-02  0.8604548E-01
          2   -1    0    0  501    0  0.00000000000E+00  0.00000000000E+00  0.13683409003E+04  0.13683409003E+04  0.00000000000E+00 0. -1.
         -1   -1    0    0    0  501 -0.00000000000E+00 -0.00000000000E+00 -0.73406029983E+03  0.73406029983E+03  0.00000000000E+00 0.  1.
         24    2    1    2    0    0  0.31106539087E+03  0.67572873850E+03  0.21907975832E+02  0.74882669655E+03  0.83008774351E+02 0.  0.
        254    2    1    2    0    0 -0.31106539087E+03 -0.67572873850E+03  0.61237262462E+03  0.13535745036E+04  0.95068012489E+03 0.  0.
         23    2    4    4    0    0 -0.38622684752E+03 -0.25331499538E+02  0.56477514310E+03  0.69082015870E+03  0.91916629537E+02 0.  0.
         23    2    4    4    0    0  0.75161456648E+02 -0.65039723896E+03  0.47597481511E+02  0.66275434485E+03  0.91170106734E+02 0.  0.
          2    1    3    3  502    0  0.17352189703E+03  0.38293801013E+03  0.53459833696E+02  0.42380340038E+03  0.00000000000E+00 0. -1.
         -1    1    3    3    0  502  0.13754349384E+03  0.29279072837E+03 -0.31551857863E+02  0.32502329617E+03  0.00000000000E+00 0.  1.
         11    1    5    5    0    0 -0.14478105055E+03 -0.47762874834E+02  0.17853728205E+03  0.23477309448E+03  0.00000000000E+00 0.  1.
        -11    1    5    5    0    0 -0.24144579698E+03  0.22431375296E+02  0.38623786105E+03  0.45604706422E+03  0.00000000000E+00 0. -1.
          3    1    6    6  503    0  0.94493255848E+02 -0.58377120922E+03  0.36462611203E+02  0.59249246588E+03  0.00000000000E+00 0. -1.
         -3    1    6    6    0  503 -0.19331799200E+02 -0.66626029744E+02  0.11134870308E+02  0.70261878971E+02  0.00000000000E+00 0.  1.
<mgrwt>
<rscale>  0 0.20044398E+04</rscale>
<asrwt>0</asrwt>
<pdfrwt beam="1">  1        2 0.21051398E+00 0.20044398E+04</pdfrwt>
<pdfrwt beam="2">  1       -1 0.11293235E+00 0.20044398E+04</pdfrwt>
<totfact> 0.11450818E+01</totfact>
</mgrwt>
</event>
<event>
12    6  0.1494052E-007  0.1310758E+04  0.7818608E-02  0.9021077E-01
         -1   -1    0    0    0  501 -0.00000000000E+00  0.00000000000E+00  0.95230891346E+03  0.95230891346E+03  0.00000000000E+00 0.  1.
          4   -1    0    0  501    0  0.00000000000E+00 -0.00000000000E+00 -0.45103170406E+03  0.45103170406E+03  0.00000000000E+00 0. -1.
         24    2    1    2    0    0  0.15565308251E+02  0.13959693515E+03  0.44822507248E+03  0.47634280030E+03  0.79165425990E+02 0.  0.
        254    2    1    2    0    0 -0.15565308251E+02 -0.13959693515E+03  0.53052136920E+02  0.92699781722E+03  0.91475725784E+03 0.  0.
         23    2    4    4    0    0  0.77565368302E+02 -0.42102274617E+03 -0.24073786151E+03  0.49888419426E+03  0.87488182964E+02 0.  0.
         23    2    4    4    0    0 -0.93130676552E+02  0.28142581102E+03  0.29378999843E+03  0.42811362297E+03  0.95367190200E+02 0.  0.
          4    1    3    3  502    0  0.70025416394E+01 -0.57471201585E+01  0.77894579508E+02  0.78419579802E+02  0.00000000000E+00 0. -1.
         -3    1    3    3    0  502  0.85627666114E+01  0.14534405531E+03  0.37033049297E+03  0.39792322050E+03  0.00000000000E+00 0.  1.
         11    1    5    5    0    0  0.16432611959E+02 -0.24459244072E+03 -0.17390065653E+03  0.30056102730E+03  0.00000000000E+00 0. -1.
        -11    1    5    5    0    0  0.61132756343E+02 -0.17643030545E+03 -0.66837204989E+02  0.19832316695E+03  0.00000000000E+00 0.  1.
          4    1    6    6  503    0 -0.77705380189E+02  0.22571829733E+03  0.28136549651E+03  0.36898972680E+03  0.00000000000E+00 0. -1.
         -4    1    6    6    0  503 -0.15425296364E+02  0.55707513691E+02  0.12424501923E+02  0.59123896164E+02  0.00000000000E+00 0.  1.
<mgrwt>
<rscale>  0 0.13107578E+04</rscale>
<asrwt>0</asrwt>
<pdfrwt beam="1">  1        4 0.69389493E-01 0.13107578E+04</pdfrwt>
<pdfrwt beam="2">  1       -1 0.14650906E+00 0.13107578E+04</pdfrwt>
<totfact> 0.29016012E+00</totfact>
</mgrwt>
</event>
<event>
12    6  0.1494052E-007  0.2140023E+04  0.7818608E-02  0.8543815E-01
         -1   -1    0    0    0  501 -0.00000000000E+00  0.00000000000E+00  0.59571054826E+03  0.59571054826E+03  0.00000000000E+00 0.  1.
          2   -1    0    0  501    0  0.00000000000E+00 -0.00000000000E+00 -0.19219473529E+04  0.19219473529E+04  0.00000000000E+00 0. -1.
         24    2    1    2    0    0  0.20170285527E+03  0.74699117890E+03 -0.56248260495E+02  0.77990555834E+03  0.80055917623E+02 0.  0.
        254    2    1    2    0    0 -0.20170285527E+03 -0.74699117890E+03 -0.12699885442E+04  0.17377523429E+04  0.89901748569E+03 0.  0.
         23    2    4    4    0    0 -0.40949760603E+03 -0.11253182016E+03 -0.81882534755E+03  0.92686416695E+03  0.90832451828E+02 0.  0.
         23    2    4    4    0    0  0.20779475076E+03 -0.63445935874E+03 -0.45116319663E+03  0.81088817590E+03  0.90961901320E+02 0.  0.
          4    1    3    3  502    0  0.23721348980E+02  0.28785824016E+02 -0.95491324131E+01  0.38503402338E+02  0.00000000000E+00 0. -1.
         -3    1    3    3    0  502  0.17798150629E+03  0.71820535488E+03 -0.46699128082E+02  0.74140215600E+03  0.00000000000E+00 0.  1.
         11    1    5    5    0    0 -0.77971788966E+02 -0.40734900828E+02 -0.10835454726E+03  0.13956948066E+03  0.00000000000E+00 0.  1.
        -11    1    5    5    0    0 -0.33152581706E+03 -0.71796919333E+02 -0.71047080028E+03  0.78729468629E+03  0.00000000000E+00 0. -1.
          3    1    6    6  503    0  0.16170410542E+03 -0.47662967674E+03 -0.38489109292E+03  0.63361283121E+03  0.00000000000E+00 0. -1.
         -3    1    6    6    0  503  0.46090645342E+02 -0.15782968199E+03 -0.66272103709E+02  0.17727534469E+03  0.00000000000E+00 0.  1.
<mgrwt>
<rscale>  0 0.21400227E+04</rscale>
<asrwt>0</asrwt>
<pdfrwt beam="1">  1        2 0.29568421E+00 0.21400227E+04</pdfrwt>
<pdfrwt beam="2">  1       -1 0.91647776E-01 0.21400227E+04</pdfrwt>
<totfact> 0.89580493E+00</totfact>
</mgrwt>
</event>
<event>
12    6  0.1494052E-007  0.1942949E+04  0.7818608E-02  0.8633768E-01
         -1   -1    0    0    0  501 -0.00000000000E+00  0.00000000000E+00  0.51615015447E+03  0.51615015447E+03  0.00000000000E+00 0.  1.
          2   -1    0    0  501    0  0.00000000000E+00 -0.00000000000E+00 -0.18284654070E+04  0.18284654070E+04  0.00000000000E+00 0. -1.
         24    2    1    2    0    0 -0.48181701856E+03 -0.17360129067E+03 -0.13621651484E+04  0.14574630753E+04  0.80122885863E+02 0.  0.
        254    2    1    2    0    0  0.48181701856E+03  0.17360129067E+03  0.49849895885E+02  0.88715248616E+03  0.72268213904E+03 0.  0.
         23    2    4    4    0    0  0.29482805767E+03  0.12466039479E+03 -0.31871845723E+03  0.46105113311E+03  0.92319525286E+02 0.  0.
         23    2    4    4    0    0  0.18698896089E+03  0.48940895880E+02  0.36856835311E+03  0.42610135305E+03  0.91431118157E+02 0.  0.
          4    1    3    3  502    0 -0.40085418042E+03 -0.11127780507E+03 -0.10779265508E+04  0.11554187435E+04  0.00000000000E+00 0. -1.
         -3    1    3    3    0  502 -0.80962838134E+02 -0.62323485600E+02 -0.28423859765E+03  0.30204433186E+03  0.00000000000E+00 0.  1.
         11    1    5    5    0    0  0.14338993208E+03  0.36857562157E+02 -0.20282862665E+03  0.25111472337E+03  0.00000000000E+00 0.  1.
        -11    1    5    5    0    0  0.15143812559E+03  0.87802832629E+02 -0.11588983058E+03  0.20993640974E+03  0.00000000000E+00 0. -1.
          2    1    6    6  503    0  0.12090545245E+03  0.68082975051E+02  0.29118771699E+03  0.32255806679E+03  0.00000000000E+00 0.  1.
         -2    1    6    6    0  503  0.66083508436E+02 -0.19142079171E+02  0.77380636123E+02  0.10354328626E+03  0.00000000000E+00 0. -1.
<mgrwt>
<rscale>  0 0.19429490E+04</rscale>
<asrwt>0</asrwt>
<pdfrwt beam="1">  1        2 0.28130237E+00 0.19429490E+04</pdfrwt>
<pdfrwt beam="2">  1       -1 0.79407717E-01 0.19429490E+04</pdfrwt>
<totfact> 0.14014858E+01</totfact>
</mgrwt>
</event>
<event>
12    6  0.1494052E-007  0.2037161E+04  0.7818608E-02  0.8589441E-01
         -1   -1    0    0    0  501 -0.00000000000E+00  0.00000000000E+00  0.10037171928E+04  0.10037171928E+04  0.00000000000E+00 0.  1.
          2   -1    0    0  501    0  0.00000000000E+00 -0.00000000000E+00 -0.10336643151E+04  0.10336643151E+04  0.00000000000E+00 0. -1.
         24    2    1    2    0    0 -0.75008067583E+03 -0.31550826262E+03 -0.82056120512E+02  0.82174235990E+03  0.79754718319E+02 0.  0.
        254    2    1    2    0    0  0.75008067583E+03  0.31550826262E+03  0.52108998193E+02  0.12156391480E+04  0.90160784519E+03 0.  0.
         23    2    4    4    0    0  0.62036251301E+03 -0.17551405790E+03  0.19270111560E+03  0.68034623920E+03  0.10041141948E+03 0.  0.
         23    2    4    4    0    0  0.12971816282E+03  0.49102232053E+03 -0.14059211741E+03  0.53529290884E+03  0.94035279329E+02 0.  0.
          2    1    3    3  502    0 -0.74642550424E+03 -0.31870178575E+03 -0.85015957401E+02  0.81605733538E+03  0.00000000000E+00 0. -1.
         -1    1    3    3    0  502 -0.36551715881E+01  0.31935231227E+01  0.29598368897E+01  0.56850245107E+01  0.00000000000E+00 0.  1.
         11    1    5    5    0    0  0.33985915926E+03 -0.10625923548E+03  0.15722831275E+03  0.38925058200E+03  0.00000000000E+00 0. -1.
        -11    1    5    5    0    0  0.28050335376E+03 -0.69254822426E+02  0.35472802847E+02  0.29109565720E+03  0.00000000000E+00 0.  1.
          3    1    6    6  503    0  0.57770648341E+02  0.93950239533E+02 -0.52971093377E+02  0.12235208233E+03  0.00000000000E+00 0. -1.
         -3    1    6    6    0  503  0.71947514477E+02  0.39707208099E+03 -0.87621024028E+02  0.41294082651E+03  0.00000000000E+00 0.  1.
<mgrwt>
<rscale>  0 0.20371614E+04</rscale>
<asrwt>0</asrwt>
<pdfrwt beam="1">  1        2 0.15902528E+00 0.20371614E+04</pdfrwt>
<pdfrwt beam="2">  1       -1 0.15441803E+00 0.20371614E+04</pdfrwt>
<totfact> 0.81661084E+00</totfact>
</mgrwt>
</event>
<event>
12    6  0.1494052E-007  0.1891721E+04  0.7818608E-02  0.8658989E-01
         -1   -1    0    0    0  501 -0.00000000000E+00  0.00000000000E+00  0.92619967046E+03  0.92619967046E+03  0.00000000000E+00 0.  1.
          2   -1    0    0  501    0  0.00000000000E+00 -0.00000000000E+00 -0.96593820156E+03  0.96593820156E+03  0.00000000000E+00 0. -1.
         24    2    1    2    0    0 -0.83745914782E+02  0.13930608009E+03  0.71431646610E+03  0.73811432002E+03  0.90250614920E+02 0.  0.
        254    2    1    2    0    0  0.83745914782E+02 -0.13930608009E+03 -0.75405499719E+03  0.11540235520E+04  0.85834250597E+03 0.  0.
         23    2    4    4    0    0 -0.19460644022E+03 -0.22631565821E+03 -0.78910888609E+03  0.84856524278E+03  0.90992820788E+02 0.  0.
         23    2    4    4    0    0  0.27835235500E+03  0.87009578118E+02  0.35053888895E+02  0.30545830921E+03  0.83817082506E+02 0.  0.
          4    1    3    3  502    0 -0.58029141748E+02  0.95626762280E+02  0.29072610902E+03  0.31150205364E+03  0.00000000000E+00 0. -1.
         -3    1    3    3    0  502 -0.25716773033E+02  0.43679317807E+02  0.42359035708E+03  0.42661226638E+03  0.00000000000E+00 0.  1.
         11    1    5    5    0    0 -0.13880325104E+03 -0.21054745597E+03 -0.60232424351E+03  0.65298626940E+03  0.00000000000E+00 0.  1.
        -11    1    5    5    0    0 -0.55803189176E+02 -0.15768202236E+02 -0.18678464258E+03  0.19557897338E+03  0.00000000000E+00 0. -1.
          4    1    6    6  503    0  0.13446066701E+01 -0.95544572464E+01  0.40644941552E+01  0.10469753250E+02  0.00000000000E+00 0. -1.
         -4    1    6    6    0  503  0.27700774833E+03  0.96564035364E+02  0.30989394740E+02  0.29498855596E+03  0.00000000000E+00 0.  1.
<mgrwt>
<rscale>  0 0.18917205E+04</rscale>
<asrwt>0</asrwt>
<pdfrwt beam="1">  1        2 0.14860588E+00 0.18917205E+04</pdfrwt>
<pdfrwt beam="2">  1       -1 0.14249226E+00 0.18917205E+04</pdfrwt>
<totfact> 0.11340617E+01</totfact>
</mgrwt>
</event>
<event>
12    6  0.1494052E-007  0.1239779E+04  0.7818608E-02  0.9078733E-01
         -1   -1    0    0    0  501 -0.00000000000E+00  0.00000000000E+00  0.59761581940E+03  0.59761581940E+03  0.00000000000E+00 0.  1.
          2   -1    0    0  501    0  0.00000000000E+00 -0.00000000000E+00 -0.64299368231E+03  0.64299368231E+03  0.00000000000E+00 0. -1.
         24    2    1    2    0    0  0.44397718261E+02  0.15916682114E+03 -0.21341737930E+03  0.28170727943E+03  0.80664609066E+02 0.  0.
        254    2    1    2    0    0 -0.44397718261E+02 -0.15916682114E+03  0.16803951639E+03  0.95890222228E+03  0.92948962258E+03 0.  0.
         23    2    4    4    0    0  0.20742985783E+03 -0.47067300183E+03  0.16697885893E+03  0.54830113384E+03  0.90509521445E+02 0.  0.
         23    2    4    4    0    0 -0.25182757609E+03  0.31150618069E+03  0.10606574609E+01  0.41060108844E+03  0.90215853079E+02 0.  0.
          4    1    3    3  502    0  0.55172974638E+02  0.73741006419E+02 -0.14480275412E+03  0.17160894720E+03  0.00000000000E+00 0. -1.
         -3    1    3    3    0  502 -0.10775256377E+02  0.85425814720E+02 -0.68614625185E+02  0.11009833223E+03  0.00000000000E+00 0.  1.
         11    1    5    5    0    0  0.45921686964E+02 -0.20357566918E+03  0.47093029445E+02  0.21393832718E+03  0.00000000000E+00 0. -1.
        -11    1    5    5    0    0  0.16150817087E+03 -0.26709733264E+03  0.11988582949E+03  0.33436280665E+03  0.00000000000E+00 0.  1.
          1    1    6    6  503    0 -0.21530977783E+03  0.20293923102E+03 -0.46838648753E+01  0.29591311310E+03  0.00000000000E+00 0. -1.
         -1    1    6    6    0  503 -0.36517798264E+02  0.10856694967E+03  0.57445223362E+01  0.11468797534E+03  0.00000000000E+00 0.  1.
<mgrwt>
<rscale>  0 0.12397793E+04</rscale>
<asrwt>0</asrwt>
<pdfrwt beam="1">  1        2 0.98922105E-01 0.12397793E+04</pdfrwt>
<pdfrwt beam="2">  1       -1 0.91940895E-01 0.12397793E+04</pdfrwt>
<totfact> 0.59068118E+01</totfact>
</mgrwt>
</event>
<event>
12    6  0.1494052E-007  0.1241706E+04  0.7818608E-02  0.9077115E-01
         -1   -1    0    0    0  501 -0.00000000000E+00  0.00000000000E+00  0.46666402237E+03  0.46666402237E+03  0.00000000000E+00 0.  1.
          4   -1    0    0  501    0  0.00000000000E+00 -0.00000000000E+00 -0.82598640359E+03  0.82598640359E+03  0.00000000000E+00 0. -1.
         24    2    1    2    0    0 -0.11055455863E+03  0.25569800147E+03 -0.14817580149E+03  0.32501718547E+03  0.77950781361E+02 0.  0.
        254    2    1    2    0    0  0.11055455863E+03 -0.25569800147E+03 -0.21114657972E+03  0.96763324049E+03  0.90229010389E+03 0.  0.
         23    2    4    4    0    0 -0.35483617290E+03  0.38918276312E+02  0.54136511638E+01  0.36867134996E+03  0.92010406093E+02 0.  0.
         23    2    4    4    0    0  0.46539073153E+03 -0.29461627778E+03 -0.21656023089E+03  0.59896189053E+03  0.92031128318E+02 0.  0.
          4    1    3    3  502    0 -0.11858488145E+03  0.21821811002E+03 -0.11248650400E+03  0.27264396423E+03  0.00000000000E+00 0. -1.
         -3    1    3    3    0  502  0.80303228196E+01  0.37479891449E+02 -0.35689297494E+02  0.52373221241E+02  0.00000000000E+00 0.  1.
         11    1    5    5    0    0 -0.16590826109E+02  0.84242002009E+01  0.21797466880E+02  0.28659243228E+02  0.00000000000E+00 0. -1.
        -11    1    5    5    0    0 -0.33824534679E+03  0.30494076111E+02 -0.16383815716E+02  0.34001210673E+03  0.00000000000E+00 0.  1.
          4    1    6    6  503    0  0.43892631916E+02 -0.65073219453E+02 -0.30686863800E+02  0.84277936830E+02  0.00000000000E+00 0. -1.
         -4    1    6    6    0  503  0.42149809962E+03 -0.22954305833E+03 -0.18587336709E+03  0.51468395370E+03  0.00000000000E+00 0.  1.
<mgrwt>
<rscale>  0 0.12417055E+04</rscale>
<asrwt>0</asrwt>
<pdfrwt beam="1">  1        4 0.12707483E+00 0.12417055E+04</pdfrwt>
<pdfrwt beam="2">  1       -1 0.71794465E-01 0.12417055E+04</pdfrwt>
<totfact> 0.36318921E+00</totfact>
</mgrwt>
</event>
<event>
12    6  0.1494052E-007  0.2190726E+04  0.7818608E-02  0.8522298E-01
         -1   -1    0    0    0  501 -0.00000000000E+00  0.00000000000E+00  0.10356417547E+04  0.10356417547E+04  0.00000000000E+00 0.  1.
          2   -1    0    0  501    0  0.00000000000E+00 -0.00000000000E+00 -0.11585281812E+04  0.11585281812E+04  0.00000000000E+00 0. -1.
         24    2    1    2    0    0  0.50435443273E+03 -0.58757114010E+03 -0.52624333404E+03  0.93955339455E+03  0.78837149145E+02 0.  0.
        254    2    1    2    0    0 -0.50435443273E+03  0.58757114010E+03  0.40335690746E+03  0.12546165413E+04  0.90097315858E+03 0.  0.
         23    2    4    4    0    0 -0.54503788392E+03  0.79017704184E+03  0.34594349373E+03  0.10243820441E+04  0.90750312135E+02 0.  0.
         23    2    4    4    0    0  0.40683451190E+02 -0.20260590174E+03  0.57413413734E+02  0.23023449719E+03  0.83709790348E+02 0.  0.
          4    1    3    3  502    0  0.44579018628E+03 -0.48479635360E+03 -0.46612297407E+03  0.80686245520E+03  0.00000000000E+00 0. -1.
         -3    1    3    3    0  502  0.58564246449E+02 -0.10277478650E+03 -0.60120359970E+02  0.13269093935E+03  0.00000000000E+00 0.  1.
         11    1    5    5    0    0 -0.44591725599E+03  0.58272526489E+03  0.27764540189E+03  0.78453674403E+03  0.00000000000E+00 0. -1.
        -11    1    5    5    0    0 -0.99120627923E+02  0.20745177695E+03  0.68298091836E+02  0.23984530012E+03  0.00000000000E+00 0.  1.
          3    1    6    6  503    0  0.16072562176E+02 -0.15720083722E+03  0.71730659369E+01  0.15818306911E+03  0.00000000000E+00 0. -1.
         -3    1    6    6    0  503  0.24610889014E+02 -0.45405064519E+02  0.50240347797E+02  0.72051428084E+02  0.00000000000E+00 0.  1.
<mgrwt>
<rscale>  0 0.21907261E+04</rscale>
<asrwt>0</asrwt>
<pdfrwt beam="1">  1        2 0.17823511E+00 0.21907261E+04</pdfrwt>
<pdfrwt beam="2">  1       -1 0.15932950E+00 0.21907261E+04</pdfrwt>
<totfact> 0.61867605E+00</totfact>
</mgrwt>
</event>
<event>
12    6  0.1494052E-007  0.1396809E+04  0.7818608E-02  0.8956131E-01
         -1   -1    0    0    0  501 -0.00000000000E+00  0.00000000000E+00  0.25359367622E+03  0.25359367622E+03  0.00000000000E+00 0.  1.
          2   -1    0    0  501    0  0.00000000000E+00 -0.00000000000E+00 -0.19234274449E+04  0.19234274449E+04  0.00000000000E+00 0. -1.
         24    2    1    2    0    0 -0.16692236447E+03  0.33960582456E+03 -0.26555509745E+03  0.46849547745E+03  0.75982305696E+02 0.  0.
        254    2    1    2    0    0  0.16692236447E+03 -0.33960582456E+03 -0.14042786713E+04  0.17085256437E+04  0.89658580000E+03 0.  0.
         23    2    4    4    0    0 -0.16011535328E+03 -0.34188077896E+03 -0.16226542428E+03  0.42071790710E+03  0.90300033548E+02 0.  0.
         23    2    4    4    0    0  0.32703771775E+03  0.22749544068E+01 -0.12420132470E+04  0.12878077366E+04  0.94302791613E+02 0.  0.
          4    1    3    3  502    0  0.46003848557E+01 -0.70127527343E+00 -0.15995012320E+01  0.49207450677E+01  0.00000000000E+00 0. -1.
         -3    1    3    3    0  502 -0.17152274933E+03  0.34030709983E+03 -0.26395559621E+03  0.46357473238E+03  0.00000000000E+00 0.  1.
         11    1    5    5    0    0 -0.13323094483E+03 -0.22712756259E+03 -0.14782485530E+03  0.30197616163E+03  0.00000000000E+00 0. -1.
        -11    1    5    5    0    0 -0.26884408444E+02 -0.11475321637E+03 -0.14440568989E+02  0.11874174547E+03  0.00000000000E+00 0.  1.
          2    1    6    6  503    0  0.29214912532E+03 -0.26728601789E+02 -0.10281901350E+04  0.10692242437E+04  0.00000000000E+00 0. -1.
         -2    1    6    6    0  503  0.34888592427E+02  0.29003556196E+02 -0.21382311196E+03  0.21858349288E+03  0.00000000000E+00 0.  1.
<mgrwt>
<rscale>  0 0.13968093E+04</rscale>
<asrwt>0</asrwt>
<pdfrwt beam="1">  1        2 0.29591191E+00 0.13968093E+04</pdfrwt>
<pdfrwt beam="2">  1       -1 0.39014413E-01 0.13968093E+04</pdfrwt>
<totfact> 0.52122399E+01</totfact>
</mgrwt>
</event>
<event>
12    6  0.1494052E-007  0.1992926E+04  0.7818608E-02  0.8609935E-01
          2   -1    0    0  501    0  0.00000000000E+00  0.00000000000E+00  0.31127655006E+04  0.31127655006E+04  0.00000000000E+00 0. -1.
         -1   -1    0    0    0  501 -0.00000000000E+00 -0.00000000000E+00 -0.31898916907E+03  0.31898916907E+03  0.00000000000E+00 0.  1.
         24    2    1    2    0    0 -0.70907592422E+03 -0.11517832475E+03  0.54611827306E+03  0.90560859582E+03  0.76335102298E+02 0.  0.
        254    2    1    2    0    0  0.70907592422E+03  0.11517832475E+03  0.22476580584E+04  0.25261460738E+04  0.90188276724E+03 0.  0.
         23    2    4    4    0    0  0.86443963507E+03 -0.60333503671E+02  0.19540829150E+04  0.21395789483E+04  0.91989253113E+02 0.  0.
         23    2    4    4    0    0 -0.15536371085E+03  0.17551182842E+03  0.29357514339E+03  0.38656712555E+03  0.91134478525E+02 0.  0.
          4    1    3    3  502    0 -0.13992328237E+03 -0.21018100800E+02  0.71285060260E+02  0.15843561887E+03  0.00000000000E+00 0. -1.
         -3    1    3    3    0  502 -0.56915264186E+03 -0.94160223952E+02  0.47483321280E+03  0.74717297695E+03  0.00000000000E+00 0.  1.
         11    1    5    5    0    0  0.75313245776E+03 -0.52538671815E+02  0.17705486588E+04  0.19247886544E+04  0.00000000000E+00 0. -1.
        -11    1    5    5    0    0  0.11130717731E+03 -0.77948318560E+01  0.18353425628E+03  0.21479029390E+03  0.00000000000E+00 0.  1.
          1    1    6    6  503    0 -0.70910041298E+02  0.87045393181E+02  0.71697716193E+02  0.13321297586E+03  0.00000000000E+00 0. -1.
         -1    1    6    6    0  503 -0.84453669548E+02  0.88466435241E+02  0.22187742720E+03  0.25335414969E+03  0.00000000000E+00 0.  1.
<mgrwt>
<rscale>  0 0.19929260E+04</rscale>
<asrwt>0</asrwt>
<pdfrwt beam="1">  1        2 0.47888698E+00 0.19929260E+04</pdfrwt>
<pdfrwt beam="2">  1       -1 0.49075259E-01 0.19929260E+04</pdfrwt>
<totfact> 0.65186291E+00</totfact>
</mgrwt>
</event>
<event>
12    6  0.1494052E-007  0.5303503E+04  0.7818608E-02  0.7783321E-01
          2   -1    0    0  501    0  0.00000000000E+00  0.00000000000E+00  0.34470972423E+04  0.34470972423E+04  0.00000000000E+00 0. -1.
         -1   -1    0    0    0  501 -0.00000000000E+00 -0.00000000000E+00 -0.20399151146E+04  0.20399151146E+04  0.00000000000E+00 0.  1.
         24    2    1    2    0    0  0.16786406445E+04 -0.17704609397E+04  0.15346997627E+04  0.28828585732E+04  0.56602465826E+02 0.  0.
        254    2    1    2    0    0 -0.16786406445E+04  0.17704609397E+04 -0.12751763493E+03  0.26041537837E+04  0.90165948624E+03 0.  0.
         23    2    4    4    0    0 -0.17704095741E+04  0.16790265170E+04 -0.13519554415E+03  0.24454927869E+04  0.93150580649E+02 0.  0.
         23    2    4    4    0    0  0.91768929582E+02  0.91434422748E+02  0.76779092189E+01  0.15866099678E+03  0.91282920138E+02 0.  0.
          2    1    3    3  502    0  0.12148540634E+04 -0.12813512523E+04  0.10806175083E+04  0.20701366202E+04  0.00000000000E+00 0. -1.
         -1    1    3    3    0  502  0.46378658112E+03 -0.48910968746E+03  0.45408225437E+03  0.81272195303E+03  0.00000000000E+00 0.  1.
         11    1    5    5    0    0 -0.15146178250E+04  0.14630316551E+04 -0.90970558178E+02  0.21077961054E+04  0.00000000000E+00 0. -1.
        -11    1    5    5    0    0 -0.25579174911E+03  0.21599486190E+03 -0.44224985975E+02  0.33769668145E+03  0.00000000000E+00 0.  1.
          1    1    6    6  503    0  0.85652988730E+02  0.21694620216E+02  0.72173039839E+01  0.88652019162E+02  0.00000000000E+00 0. -1.
         -1    1    6    6    0  503  0.61159408520E+01  0.69739802532E+02  0.46060523499E+00  0.70008977617E+02  0.00000000000E+00 0.  1.
<mgrwt>
<rscale>  0 0.53035029E+04</rscale>
<asrwt>0</asrwt>
<pdfrwt beam="1">  1        2 0.53032265E+00 0.53035029E+04</pdfrwt>
<pdfrwt beam="2">  1       -1 0.31383310E+00 0.53035029E+04</pdfrwt>
<totfact> 0.19152782E-02</totfact>
</mgrwt>
</event>
<event>
12    6  0.1494052E-007  0.2406720E+04  0.7818608E-02  0.8436992E-01
         -1   -1    0    0    0  501 -0.00000000000E+00  0.00000000000E+00  0.17581035039E+04  0.17581035039E+04  0.00000000000E+00 0.  1.
          2   -1    0    0  501    0  0.00000000000E+00 -0.00000000000E+00 -0.82365771620E+03  0.82365771620E+03  0.00000000000E+00 0. -1.
         24    2    1    2    0    0 -0.86689473498E+03 -0.11349410826E+02  0.98628270306E+03  0.13156245045E+04  0.80492085892E+02 0.  0.
        254    2    1    2    0    0  0.86689473498E+03  0.11349410826E+02 -0.51836915336E+02  0.12661367156E+04  0.92129247589E+03 0.  0.
         23    2    4    4    0    0  0.16588697517E+03 -0.40230238257E+03 -0.38904055479E+02  0.44670275106E+03  0.93081290925E+02 0.  0.
         23    2    4    4    0    0  0.70100775981E+03  0.41365179339E+03 -0.12932859858E+02  0.81943396455E+03  0.93728746335E+02 0.  0.
          2    1    3    3  502    0 -0.81586265953E+03 -0.29113872773E+02  0.93283523267E+03  0.12396213406E+04  0.00000000000E+00 0. -1.
         -3    1    3    3    0  502 -0.51032075453E+02  0.17764461948E+02  0.53447470391E+02  0.76003163912E+02  0.00000000000E+00 0.  1.
         11    1    5    5    0    0  0.17240318683E+03 -0.40310230649E+03 -0.38809855735E+02  0.44013694827E+03  0.00000000000E+00 0. -1.
        -11    1    5    5    0    0 -0.65162116620E+01  0.79992392302E+00 -0.94199743892E-01  0.65658027916E+01  0.00000000000E+00 0.  1.
          4    1    6    6  503    0  0.59606249195E+03  0.38466877554E+03  0.29022293539E+01  0.70941453617E+03  0.00000000000E+00 0. -1.
         -4    1    6    6    0  503  0.10494526786E+03  0.28983017850E+02 -0.15835089211E+02  0.11001942838E+03  0.00000000000E+00 0.  1.
<mgrwt>
<rscale>  0 0.24067202E+04</rscale>
<asrwt>0</asrwt>
<pdfrwt beam="1">  1        2 0.12671657E+00 0.24067202E+04</pdfrwt>
<pdfrwt beam="2">  1       -1 0.27047746E+00 0.24067202E+04</pdfrwt>
<totfact> 0.17421101E+00</totfact>
</mgrwt>
</event>
<event>
12    6  0.1494052E-007  0.2553926E+04  0.7818608E-02  0.8384022E-01
         -1   -1    0    0    0  501 -0.00000000000E+00  0.00000000000E+00  0.77887775995E+03  0.77887775995E+03  0.00000000000E+00 0.  1.
          2   -1    0    0  501    0  0.00000000000E+00 -0.00000000000E+00 -0.20935688631E+04  0.20935688631E+04  0.00000000000E+00 0. -1.
         24    2    1    2    0    0 -0.10383566916E+04  0.21454541057E+03 -0.18823054801E+03  0.10799138707E+04  0.81048606999E+02 0.  0.
        254    2    1    2    0    0  0.10383566916E+04 -0.21454541057E+03 -0.11264605551E+04  0.17925327523E+04  0.90556387603E+03 0.  0.
         23    2    4    4    0    0  0.80997002181E+03  0.20489955068E+03 -0.96620473754E+03  0.12807259043E+04  0.93123492996E+02 0.  0.
         23    2    4    4    0    0  0.22838666983E+03 -0.41944496126E+03 -0.16025581760E+03  0.51180684804E+03  0.90386813984E+02 0.  0.
          4    1    3    3  502    0 -0.90067463699E+02  0.40058938524E+02 -0.70090641839E+01  0.98823041612E+02  0.00000000000E+00 0. -1.
         -3    1    3    3    0  502 -0.94828922795E+03  0.17448647205E+03 -0.18122148382E+03  0.98109082911E+03  0.00000000000E+00 0.  1.
         11    1    5    5    0    0  0.30123274182E+03  0.95432313415E+02 -0.42891046267E+03  0.53274072134E+03  0.00000000000E+00 0. -1.
        -11    1    5    5    0    0  0.50873727999E+03  0.10946723727E+03 -0.53729427487E+03  0.74798518294E+03  0.00000000000E+00 0.  1.
          2    1    6    6  503    0  0.38511073044E+02 -0.10737563112E+03 -0.75542157247E+02  0.13681829712E+03  0.00000000000E+00 0.  1.
         -2    1    6    6    0  503  0.18987559679E+03 -0.31206933014E+03 -0.84713660351E+02  0.37498855092E+03  0.00000000000E+00 0. -1.
<mgrwt>
<rscale>  0 0.25539258E+04</rscale>
<asrwt>0</asrwt>
<pdfrwt beam="1">  1        2 0.32208752E+00 0.25539258E+04</pdfrwt>
<pdfrwt beam="2">  1       -1 0.11982735E+00 0.25539258E+04</pdfrwt>
<totfact> 0.37180068E+00</totfact>
</mgrwt>
</event>
<event>
12    6  0.1494052E-007  0.1208141E+04  0.7818608E-02  0.9105761E-01
         -1   -1    0    0    0  501 -0.00000000000E+00  0.00000000000E+00  0.15028940566E+03  0.15028940566E+03  0.00000000000E+00 0.  1.
          2   -1    0    0  501    0  0.00000000000E+00 -0.00000000000E+00 -0.24279887150E+04  0.24279887150E+04  0.00000000000E+00 0. -1.
         24    2    1    2    0    0  0.11022103359E+03 -0.15186567342E+03 -0.13409457633E+03  0.24432153857E+03  0.80621335874E+02 0.  0.
        254    2    1    2    0    0 -0.11022103359E+03  0.15186567342E+03 -0.21436047330E+04  0.23339565821E+04  0.90393595827E+03 0.  0.
         23    2    4    4    0    0 -0.15302127457E+03 -0.38256449501E+01  0.53328694428E+01  0.17694896368E+03  0.88613487788E+02 0.  0.
         23    2    4    4    0    0  0.42800240983E+02  0.15569131837E+03 -0.21489376024E+04  0.21570076184E+04  0.93152559738E+02 0.  0.
          4    1    3    3  502    0  0.10367827305E+03 -0.12455699168E+03 -0.14165125548E+03  0.21524104315E+03  0.00000000000E+00 0. -1.
         -3    1    3    3    0  502  0.65427605412E+01 -0.27308681743E+02  0.75566791471E+01  0.29080495418E+02  0.00000000000E+00 0.  1.
         11    1    5    5    0    0 -0.73053528893E+02  0.37338516338E+02  0.23180738273E+02  0.85254498491E+02  0.00000000000E+00 0.  1.
        -11    1    5    5    0    0 -0.79967745680E+02 -0.41164161288E+02 -0.17847868830E+02  0.91694465185E+02  0.00000000000E+00 0. -1.
          2    1    6    6  503    0 -0.28450631600E+02  0.29613960804E+02 -0.41080424767E+03  0.41285173491E+03  0.00000000000E+00 0. -1.
         -2    1    6    6    0  503  0.71250872583E+02  0.12607735756E+03 -0.17381333548E+04  0.17441558835E+04  0.00000000000E+00 0.  1.
<mgrwt>
<rscale>  0 0.12081407E+04</rscale>
<asrwt>0</asrwt>
<pdfrwt beam="1">  1        2 0.37353671E+00 0.12081407E+04</pdfrwt>
<pdfrwt beam="2">  1       -1 0.23121448E-01 0.12081407E+04</pdfrwt>
<totfact> 0.69266268E+01</totfact>
</mgrwt>
</event>
<event>
12    6  0.1494052E-007  0.1807585E+04  0.7818608E-02  0.8702276E-01
         -1   -1    0    0    0  501 -0.00000000000E+00  0.00000000000E+00  0.48238339365E+03  0.48238339365E+03  0.00000000000E+00 0.  1.
          2   -1    0    0  501    0  0.00000000000E+00 -0.00000000000E+00 -0.16933445403E+04  0.16933445403E+04  0.00000000000E+00 0. -1.
         24    2    1    2    0    0 -0.12307084208E+03 -0.54317418759E+03 -0.91111042141E+03  0.10707191581E+04  0.78311463297E+02 0.  0.
        254    2    1    2    0    0  0.12307084208E+03  0.54317418759E+03 -0.29985072523E+03  0.11050087758E+04  0.90606252931E+03 0.  0.
         23    2    4    4    0    0 -0.15119172043E+03  0.38210093063E+03  0.23004969110E+03  0.47970668421E+03  0.91299424873E+02 0.  0.
         23    2    4    4    0    0  0.27426256251E+03  0.16107325696E+03 -0.52990041633E+03  0.62530209163E+03  0.95098408326E+02 0.  0.
          4    1    3    3  502    0  0.74205696182E+01 -0.52435087549E+02 -0.11249666112E+03  0.12433825648E+03  0.00000000000E+00 0. -1.
         -3    1    3    3    0  502 -0.13049141170E+03 -0.49073910004E+03 -0.79861376028E+03  0.94638090162E+03  0.00000000000E+00 0.  1.
         11    1    5    5    0    0 -0.79772668101E+02  0.30519882237E+03  0.16191884519E+03  0.35458103754E+03  0.00000000000E+00 0.  1.
        -11    1    5    5    0    0 -0.71419052327E+02  0.76902108257E+02  0.68130845909E+02  0.12512564667E+03  0.00000000000E+00 0. -1.
          2    1    6    6  503    0  0.86216339159E+01  0.37790422019E+02 -0.71751208025E+02  0.81551728497E+02  0.00000000000E+00 0. -1.
         -2    1    6    6    0  503  0.26564092859E+03  0.12328283494E+03 -0.45814920831E+03  0.54375036313E+03  0.00000000000E+00 0.  1.
<mgrwt>
<rscale>  0 0.18075854E+04</rscale>
<asrwt>0</asrwt>
<pdfrwt beam="1">  1        2 0.26051454E+00 0.18075854E+04</pdfrwt>
<pdfrwt beam="2">  1       -1 0.74212831E-01 0.18075854E+04</pdfrwt>
<totfact> 0.19429121E+01</totfact>
</mgrwt>
</event>
<event>
12    6  0.1494052E-007  0.2044767E+04  0.7818608E-02  0.8585972E-01
         -1   -1    0    0    0  501 -0.00000000000E+00  0.00000000000E+00  0.17892700973E+04  0.17892700973E+04  0.00000000000E+00 0.  1.
          2   -1    0    0  501    0  0.00000000000E+00 -0.00000000000E+00 -0.58418704821E+03  0.58418704821E+03  0.00000000000E+00 0. -1.
         24    2    1    2    0    0 -0.52366648929E+03 -0.27198102992E+03 -0.17275422240E+03  0.61979097549E+03  0.78080466785E+02 0.  0.
        254    2    1    2    0    0  0.52366648929E+03  0.27198102992E+03  0.13778372715E+04  0.17536661700E+04  0.91033467282E+03 0.  0.
         23    2    4    4    0    0  0.44172625758E+03  0.58443898252E+03  0.82726998782E+03  0.11089699389E+04  0.93529041910E+02 0.  0.
         23    2    4    4    0    0  0.81940231712E+02 -0.31245795260E+03  0.55056728367E+03  0.64469623114E+03  0.90358856146E+02 0.  0.
          2    1    3    3  502    0 -0.31565800953E+03 -0.15410070776E+03 -0.14139410903E+03  0.37865459350E+03  0.00000000000E+00 0. -1.
         -1    1    3    3    0  502 -0.20800847976E+03 -0.11788032216E+03 -0.31360113370E+02  0.24113638198E+03  0.00000000000E+00 0.  1.
         11    1    5    5    0    0 -0.10582281802E+01 -0.72816240670E+00  0.12088584079E+02  0.12156641493E+02  0.00000000000E+00 0. -1.
        -11    1    5    5    0    0  0.44278448576E+03  0.58516714493E+03  0.81518140374E+03  0.10968132974E+04  0.00000000000E+00 0.  1.
          3    1    6    6  503    0 -0.50694052723E+01 -0.95366643132E+02  0.10827392667E+03  0.14437360801E+03  0.00000000000E+00 0. -1.
         -3    1    6    6    0  503  0.87009636984E+02 -0.21709130946E+03  0.44229335700E+03  0.50032262314E+03  0.00000000000E+00 0.  1.
<mgrwt>
<rscale>  0 0.20447674E+04</rscale>
<asrwt>0</asrwt>
<pdfrwt beam="1">  1        2 0.89874931E-01 0.20447674E+04</pdfrwt>
<pdfrwt beam="2">  1       -1 0.27527232E+00 0.20447674E+04</pdfrwt>
<totfact> 0.25865691E+00</totfact>
</mgrwt>
</event>
<event>
12    6  0.1494052E-007  0.1666607E+04  0.7818608E-02  0.8780642E-01
          2   -1    0    0  501    0  0.00000000000E+00  0.00000000000E+00  0.18809568058E+04  0.18809568058E+04  0.00000000000E+00 0. -1.
         -1   -1    0    0    0  501 -0.00000000000E+00 -0.00000000000E+00 -0.36917122755E+03  0.36917122755E+03  0.00000000000E+00 0.  1.
         24    2    1    2    0    0 -0.21546812507E+02 -0.58110705712E+03  0.62740118953E+03  0.85915115867E+03  0.79741983060E+02 0.  0.
        254    2    1    2    0    0  0.21546812507E+02  0.58110705712E+03  0.88438438871E+03  0.13909768747E+04  0.90251384582E+03 0.  0.
         23    2    4    4    0    0 -0.23168346361E+03 -0.15197008844E+03  0.27038605866E+03  0.39764439147E+03  0.90776132661E+02 0.  0.
         23    2    4    4    0    0  0.25323027612E+03  0.73307714556E+03  0.61399833005E+03  0.99333248319E+03  0.90486456329E+02 0.  0.
          2    1    3    3  502    0  0.66618941601E+01 -0.48123021986E+03  0.48844262653E+03  0.68571357340E+03  0.00000000000E+00 0. -1.
         -1    1    3    3    0  502 -0.28208706667E+02 -0.99876837260E+02  0.13895856299E+03  0.17343758526E+03  0.00000000000E+00 0.  1.
         11    1    5    5    0    0 -0.15790414698E+03 -0.82214368178E+02  0.22369526136E+03  0.28588895033E+03  0.00000000000E+00 0. -1.
        -11    1    5    5    0    0 -0.73779316630E+02 -0.69755720263E+02  0.46690797304E+02  0.11175544114E+03  0.00000000000E+00 0.  1.
          1    1    6    6  503    0  0.16153250321E+03  0.54592021699E+03  0.48761308040E+03  0.74959198841E+03  0.00000000000E+00 0. -1.
         -1    1    6    6    0  503  0.91697772911E+02  0.18715692856E+03  0.12638524965E+03  0.24374049478E+03  0.00000000000E+00 0.  1.
<mgrwt>
<rscale>  0 0.16666075E+04</rscale>
<asrwt>0</asrwt>
<pdfrwt beam="1">  1        2 0.28937796E+00 0.16666075E+04</pdfrwt>
<pdfrwt beam="2">  1       -1 0.56795575E-01 0.16666075E+04</pdfrwt>
<totfact> 0.26533861E+01</totfact>
</mgrwt>
</event>
<event>
12    6  0.1494052E-007  0.1381980E+04  0.7818608E-02  0.8966967E-01
          2   -1    0    0  501    0  0.00000000000E+00  0.00000000000E+00  0.15241549398E+04  0.15241549398E+04  0.00000000000E+00 0. -1.
         -1   -1    0    0    0  501 -0.00000000000E+00 -0.00000000000E+00 -0.31326683616E+03  0.31326683616E+03  0.00000000000E+00 0.  1.
         24    2    1    2    0    0  0.23136645538E+03  0.34174481510E+02  0.73806064545E+03  0.77852862177E+03  0.81700469372E+02 0.  0.
        254    2    1    2    0    0 -0.23136645538E+03 -0.34174481510E+02  0.47282745816E+03  0.10588931542E+04  0.91814518182E+03 0.  0.
         23    2    4    4    0    0 -0.53215904238E+03  0.16670243828E+03  0.35676871826E+03  0.66821117404E+03  0.90770620053E+02 0.  0.
         23    2    4    4    0    0  0.30079258699E+03 -0.20087691979E+03  0.11605873990E+03  0.39068198013E+03  0.91296556329E+02 0.  0.
          4    1    3    3  502    0  0.15613103082E+03 -0.38584883368E+01  0.38346786036E+03  0.41405239602E+03  0.00000000000E+00 0. -1.
         -3    1    3    3    0  502  0.75235424560E+02  0.38032969846E+02  0.35459278509E+03  0.36447622576E+03  0.00000000000E+00 0.  1.
         11    1    5    5    0    0 -0.47646294499E+03  0.17149712601E+03  0.30021281874E+03  0.58869001921E+03  0.00000000000E+00 0. -1.
        -11    1    5    5    0    0 -0.55696097387E+02 -0.47946877319E+01  0.56555899521E+02  0.79521154828E+02  0.00000000000E+00 0.  1.
          3    1    6    6  503    0  0.30562603095E+03 -0.18797600515E+03  0.11532926439E+03  0.37688604183E+03  0.00000000000E+00 0. -1.
         -3    1    6    6    0  503 -0.48334439527E+01 -0.12900914644E+02  0.72947551623E+00  0.13795938302E+02  0.00000000000E+00 0.  1.
<mgrwt>
<rscale>  0 0.13819800E+04</rscale>
<asrwt>0</asrwt>
<pdfrwt beam="1">  1        2 0.23448537E+00 0.13819800E+04</pdfrwt>
<pdfrwt beam="2">  1       -1 0.48194899E-01 0.13819800E+04</pdfrwt>
<totfact> 0.58790374E+01</totfact>
</mgrwt>
</event>
<event>
12    6  0.1494052E-007  0.2341446E+04  0.7818608E-02  0.8461756E-01
         -1   -1    0    0    0  501 -0.00000000000E+00  0.00000000000E+00  0.34918114654E+03  0.34918114654E+03  0.00000000000E+00 0.  1.
          2   -1    0    0  501    0  0.00000000000E+00 -0.00000000000E+00 -0.39251627030E+04  0.39251627030E+04  0.00000000000E+00 0. -1.
         24    2    1    2    0    0 -0.19937268348E+03  0.59684020207E+03 -0.11192043998E+03  0.64402063422E+03  0.79175114090E+02 0.  0.
        254    2    1    2    0    0  0.19937268348E+03 -0.59684020207E+03 -0.34640611164E+04  0.36303232153E+04  0.88518898279E+03 0.  0.
         23    2    4    4    0    0 -0.26419624395E+03 -0.13910464792E+02 -0.50184041135E+03  0.57447049159E+03  0.90439985012E+02 0.  0.
         23    2    4    4    0    0  0.46356892743E+03 -0.58292973728E+03 -0.29622207051E+04  0.30558527237E+04  0.93707706054E+02 0.  0.
          4    1    3    3  502    0 -0.83348512236E+02  0.18790946617E+03 -0.46274706687E+01  0.20561701158E+03  0.00000000000E+00 0. -1.
         -3    1    3    3    0  502 -0.11602417124E+03  0.40893073590E+03 -0.10729296931E+03  0.43840362264E+03  0.00000000000E+00 0.  1.
         11    1    5    5    0    0 -0.23054007873E+03  0.11747311282E+02 -0.46145477584E+03  0.51597212848E+03  0.00000000000E+00 0. -1.
        -11    1    5    5    0    0 -0.33656165222E+02 -0.25657776074E+02 -0.40385635517E+02  0.58498363111E+02  0.00000000000E+00 0.  1.
          2    1    6    6  503    0  0.40733186455E+03 -0.54545928831E+03 -0.27563692988E+04  0.28391929829E+04  0.00000000000E+00 0. -1.
         -2    1    6    6    0  503  0.56237062887E+02 -0.37470448965E+02 -0.20585140633E+03  0.21665974078E+03  0.00000000000E+00 0.  1.
<mgrwt>
<rscale>  0 0.23414464E+04</rscale>
<asrwt>0</asrwt>
<pdfrwt beam="1">  1        2 0.60387120E+00 0.23414464E+04</pdfrwt>
<pdfrwt beam="2">  1       -1 0.53720175E-01 0.23414464E+04</pdfrwt>
<totfact> 0.14184929E+00</totfact>
</mgrwt>
</event>
<event>
12    6  0.1494052E-007  0.1242194E+04  0.7818608E-02  0.9076705E-01
          2   -1    0    0  501    0  0.00000000000E+00  0.00000000000E+00  0.12785400782E+04  0.12785400782E+04  0.00000000000E+00 0. -1.
         -1   -1    0    0    0  501 -0.00000000000E+00 -0.00000000000E+00 -0.30172019241E+03  0.30172019241E+03  0.00000000000E+00 0.  1.
         24    2    1    2    0    0  0.11388852328E+03  0.70503736962E+02 -0.88253543585E+02  0.18034419983E+03  0.82425540921E+02 0.  0.
        254    2    1    2    0    0 -0.11388852328E+03 -0.70503736962E+02  0.10650734294E+04  0.13999160708E+04  0.89857788899E+03 0.  0.
         23    2    4    4    0    0  0.31290236159E+03 -0.27384794069E+03  0.48048507391E+03  0.64273148840E+03  0.96629588719E+02 0.  0.
         23    2    4    4    0    0 -0.42679088487E+03  0.20334420373E+03  0.58458835544E+03  0.75718458236E+03  0.89920085892E+02 0.  0.
          4    1    3    3  502    0  0.79640774672E+02  0.13749649003E+02 -0.16179115406E+02  0.82422506716E+02  0.00000000000E+00 0. -1.
         -3    1    3    3    0  502  0.34247748610E+02  0.56754087959E+02 -0.72074428180E+02  0.97921693114E+02  0.00000000000E+00 0.  1.
         11    1    5    5    0    0  0.82730862851E+00 -0.21780901213E+02  0.48687640553E+02  0.53343963481E+02  0.00000000000E+00 0. -1.
        -11    1    5    5    0    0  0.31207505296E+03 -0.25206703948E+03  0.43179743336E+03  0.58938752492E+03  0.00000000000E+00 0.  1.
          2    1    6    6  503    0 -0.88553818628E+02  0.17502509988E+02  0.71488687854E+02  0.11514664190E+03  0.00000000000E+00 0. -1.
         -2    1    6    6    0  503 -0.33823706624E+03  0.18584169374E+03  0.51309966759E+03  0.64203794046E+03  0.00000000000E+00 0.  1.
<mgrwt>
<rscale>  0 0.12421938E+04</rscale>
<asrwt>0</asrwt>
<pdfrwt beam="1">  1        2 0.19669847E+00 0.12421938E+04</pdfrwt>
<pdfrwt beam="2">  1       -1 0.46418492E-01 0.12421938E+04</pdfrwt>
<totfact> 0.88154798E+01</totfact>
</mgrwt>
</event>
<event>
12    6  0.1494052E-007  0.1115626E+04  0.7818608E-02  0.9190094E-01
         -1   -1    0    0    0  501 -0.00000000000E+00  0.00000000000E+00  0.36511331799E+03  0.36511331799E+03  0.00000000000E+00 0.  1.
          2   -1    0    0  501    0  0.00000000000E+00 -0.00000000000E+00 -0.85221632728E+03  0.85221632728E+03  0.00000000000E+00 0. -1.
         24    2    1    2    0    0  0.37680931977E+02  0.17828509591E+03 -0.76152272906E+02  0.21295980370E+03  0.79669826577E+02 0.  0.
        254    2    1    2    0    0 -0.37680931977E+02 -0.17828509591E+03 -0.41095073638E+03  0.10043698416E+04  0.89814967732E+03 0.  0.
         23    2    4    4    0    0 -0.10672466263E+03 -0.34473074413E+03 -0.61369191128E+03  0.71770449409E+03  0.90843487959E+02 0.  0.
         23    2    4    4    0    0  0.69043730658E+02  0.16644564822E+03  0.20274117490E+03  0.28666534748E+03  0.92746142179E+02 0.  0.
          2    1    3    3  502    0 -0.17935727320E+02  0.47039166252E+02 -0.43940790204E+02  0.66821901499E+02  0.00000000000E+00 0. -1.
         -1    1    3    3    0  502  0.55616659297E+02  0.13124592965E+03 -0.32211482702E+02  0.14613790220E+03  0.00000000000E+00 0.  1.
         11    1    5    5    0    0 -0.77257336286E+02 -0.19886963642E+03 -0.43991527816E+03  0.48892052551E+03  0.00000000000E+00 0. -1.
        -11    1    5    5    0    0 -0.29467326349E+02 -0.14586110770E+03 -0.17377663312E+03  0.22878396858E+03  0.00000000000E+00 0.  1.
          4    1    6    6  503    0  0.13738916594E+02  0.12834922107E+03  0.16545829644E+03  0.20985406415E+03  0.00000000000E+00 0. -1.
         -4    1    6    6    0  503  0.55304814063E+02  0.38096427154E+02  0.37282878457E+02  0.76811283328E+02  0.00000000000E+00 0.  1.
<mgrwt>
<rscale>  0 0.11156263E+04</rscale>
<asrwt>0</asrwt>
<pdfrwt beam="1">  1        2 0.13111020E+00 0.11156263E+04</pdfrwt>
<pdfrwt beam="2">  1       -1 0.56171280E-01 0.11156263E+04</pdfrwt>
<totfact> 0.11479789E+02</totfact>
</mgrwt>
</event>
<event>
12    6  0.1494052E-007  0.3423374E+04  0.7818608E-02  0.8132193E-01
          2   -1    0    0  501    0  0.00000000000E+00  0.00000000000E+00  0.22518211423E+04  0.22518211423E+04  0.00000000000E+00 0. -1.
         -1   -1    0    0    0  501 -0.00000000000E+00 -0.00000000000E+00 -0.13011121195E+04  0.13011121195E+04  0.00000000000E+00 0.  1.
         24    2    1    2    0    0 -0.10029358584E+04 -0.99334695490E+03  0.12246384990E+04  0.18706462618E+04  0.83423466219E+02 0.  0.
        254    2    1    2    0    0  0.10029358584E+04  0.99334695490E+03 -0.27392947624E+03  0.16822870000E+04  0.87317448631E+03 0.  0.
         23    2    4    4    0    0  0.96868224461E+03  0.11229493991E+04 -0.18471715411E+03  0.14977128679E+04  0.98299356494E+02 0.  0.
         23    2    4    4    0    0  0.34253613770E+02 -0.12960244424E+03 -0.89212322136E+02  0.18457413213E+03  0.90214567675E+02 0.  0.
          2    1    3    3  502    0 -0.88499056277E+03 -0.84817117256E+03  0.10355011266E+04  0.16046386563E+04  0.00000000000E+00 0. -1.
         -1    1    3    3    0  502 -0.11794529561E+03 -0.14517578234E+03  0.18913737246E+03  0.26600760552E+03  0.00000000000E+00 0.  1.
         11    1    5    5    0    0  0.64439432087E+02  0.72579241002E+02 -0.37060480180E+02  0.10389256866E+03  0.00000000000E+00 0. -1.
        -11    1    5    5    0    0  0.90424281252E+03  0.10503701581E+04 -0.14765667393E+03  0.13938202992E+04  0.00000000000E+00 0.  1.
          1    1    6    6  503    0 -0.18341381657E+02  0.24338519300E+01 -0.42325186692E+01  0.18980098276E+02  0.00000000000E+00 0. -1.
         -1    1    6    6    0  503  0.52594995427E+02 -0.13203629617E+03 -0.84979803466E+02  0.16559403385E+03  0.00000000000E+00 0.  1.
<mgrwt>
<rscale>  0 0.34233736E+04</rscale>
<asrwt>0</asrwt>
<pdfrwt beam="1">  1        2 0.34643402E+00 0.34233736E+04</pdfrwt>
<pdfrwt beam="2">  1       -1 0.20017110E+00 0.34233736E+04</pdfrwt>
<totfact> 0.68116414E-01</totfact>
</mgrwt>
</event>
<event>
12    6  0.1494052E-007  0.3713442E+04  0.7818608E-02  0.8064989E-01
          2   -1    0    0  501    0  0.00000000000E+00  0.00000000000E+00  0.22606848861E+04  0.22606848861E+04  0.00000000000E+00 0. -1.
         -1   -1    0    0    0  501 -0.00000000000E+00 -0.00000000000E+00 -0.15249418620E+04  0.15249418620E+04  0.00000000000E+00 0.  1.
         24    2    1    2    0    0 -0.78874837406E+03 -0.15426464717E+04  0.59196276071E+03  0.18326920965E+04  0.80363403163E+02 0.  0.
        254    2    1    2    0    0  0.78874837406E+03  0.15426464717E+04  0.14378026342E+03  0.19529346515E+04  0.88960601099E+03 0.  0.
         23    2    4    4    0    0  0.17862637759E+03  0.17152085693E+03  0.34685579658E+03  0.43582295541E+03  0.91136807679E+02 0.  0.
         23    2    4    4    0    0  0.61012199647E+03  0.13711256147E+04 -0.20307553316E+03  0.15171116961E+04  0.90299082487E+02 0.  0.
          2    1    3    3  502    0 -0.70545823141E+03 -0.14063810657E+04  0.51605458318E+03  0.16558657407E+04  0.00000000000E+00 0. -1.
         -1    1    3    3    0  502 -0.83290142656E+02 -0.13626540592E+03  0.75908177525E+02  0.17682635587E+03  0.00000000000E+00 0.  1.
         11    1    5    5    0    0  0.93766431545E+02  0.65488804749E+02  0.22914148121E+03  0.25609909341E+03  0.00000000000E+00 0.  1.
        -11    1    5    5    0    0  0.84859946043E+02  0.10603205218E+03  0.11771431536E+03  0.17972386200E+03  0.00000000000E+00 0. -1.
          3    1    6    6  503    0  0.42960393312E+03  0.10344451860E+04 -0.17914934735E+03  0.11343416024E+04  0.00000000000E+00 0. -1.
         -3    1    6    6    0  503  0.18051806335E+03  0.33668042873E+03 -0.23926185807E+02  0.38277009373E+03  0.00000000000E+00 0.  1.
<mgrwt>
<rscale>  0 0.37134421E+04</rscale>
<asrwt>0</asrwt>
<pdfrwt beam="1">  1        2 0.34779767E+00 0.37134421E+04</pdfrwt>
<pdfrwt beam="2">  1       -1 0.23460644E+00 0.37134421E+04</pdfrwt>
<totfact> 0.38553429E-01</totfact>
</mgrwt>
</event>
<event>
12    6  0.1494052E-007  0.1281125E+04  0.7818608E-02  0.9044669E-01
         -3   -1    0    0    0  501 -0.00000000000E+00  0.00000000000E+00  0.19041183908E+03  0.19041183908E+03  0.00000000000E+00 0.  1.
          2   -1    0    0  501    0  0.00000000000E+00 -0.00000000000E+00 -0.21549082320E+04  0.21549082320E+04  0.00000000000E+00 0. -1.
         24    2    1    2    0    0  0.17579542317E+03 -0.12581654558E+03 -0.91694678256E+03  0.94538454821E+03  0.78909492417E+02 0.  0.
        254    2    1    2    0    0 -0.17579542317E+03  0.12581654558E+03 -0.10475496104E+04  0.13999355229E+04  0.90317520345E+03 0.  0.
         23    2    4    4    0    0 -0.42559257971E+03 -0.13212177836E+03 -0.24754992220E+03  0.51820893900E+03  0.93136095339E+02 0.  0.
         23    2    4    4    0    0  0.24979715653E+03  0.25793832394E+03 -0.79999968820E+03  0.88172658393E+03  0.92257624674E+02 0.  0.
          2    1    3    3  502    0  0.16461975388E+03 -0.86506733216E+02 -0.80529629070E+03  0.82648968177E+03  0.00000000000E+00 0. -1.
         -1    1    3    3    0  502  0.11175669291E+02 -0.39309812369E+02 -0.11165049187E+03  0.11889486644E+03  0.00000000000E+00 0.  1.
         11    1    5    5    0    0 -0.14832270416E+03 -0.92959257865E+00 -0.87761847715E+02  0.17234451144E+03  0.00000000000E+00 0.  1.
        -11    1    5    5    0    0 -0.27726987555E+03 -0.13119218578E+03 -0.15978807448E+03  0.34586442755E+03  0.00000000000E+00 0. -1.
          4    1    6    6  503    0  0.25186348529E+03  0.22743229935E+03 -0.74848126037E+03  0.82181802313E+03  0.00000000000E+00 0. -1.
         -4    1    6    6    0  503 -0.20663287553E+01  0.30506024594E+02 -0.51518427830E+02  0.59908560800E+02  0.00000000000E+00 0.  1.
<mgrwt>
<rscale>  0 0.12811246E+04</rscale>
<asrwt>0</asrwt>
<pdfrwt beam="1">  1        2 0.33152434E+00 0.12811246E+04</pdfrwt>
<pdfrwt beam="2">  1       -3 0.29294130E-01 0.12811246E+04</pdfrwt>
<totfact> 0.39547324E+01</totfact>
</mgrwt>
</event>
<event>
12    6  0.1494052E-007  0.1640243E+04  0.7818608E-02  0.8796200E-01
          2   -1    0    0  501    0  0.00000000000E+00  0.00000000000E+00  0.49348479789E+04  0.49348479789E+04  0.00000000000E+00 0. -1.
         -1   -1    0    0    0  501 -0.00000000000E+00 -0.00000000000E+00 -0.13629583594E+03  0.13629583594E+03  0.00000000000E+00 0.  1.
         24    2    1    2    0    0  0.38010597191E+03  0.35707277540E+03  0.23673143455E+04  0.24253914084E+04  0.79779426641E+02 0.  0.
        254    2    1    2    0    0 -0.38010597191E+03 -0.35707277540E+03  0.24312377975E+04  0.26457524064E+04  0.90393973880E+03 0.  0.
         23    2    4    4    0    0 -0.37689918685E+03 -0.55396758726E+03  0.22889893066E+04  0.23867546619E+04  0.90513454033E+02 0.  0.
         23    2    4    4    0    0 -0.32067850558E+01  0.19689481186E+03  0.14224849088E+03  0.25899774457E+03  0.89818417515E+02 0.  0.
          2    1    3    3  502    0  0.30415473423E+03  0.27556922052E+03  0.17000421522E+04  0.17488830197E+04  0.00000000000E+00 0. -1.
         -1    1    3    3    0  502  0.75951237675E+02  0.81503554884E+02  0.66727219332E+03  0.67650838867E+03  0.00000000000E+00 0.  1.
         11    1    5    5    0    0 -0.34758015341E+03 -0.45697580784E+03  0.19812829736E+04  0.20627944816E+04  0.00000000000E+00 0. -1.
        -11    1    5    5    0    0 -0.29319033436E+02 -0.96991779419E+02  0.30770633306E+03  0.32396018027E+03  0.00000000000E+00 0.  1.
          1    1    6    6  503    0 -0.66080760500E+01  0.19349962779E+03  0.15329463236E+03  0.24695144651E+03  0.00000000000E+00 0. -1.
         -1    1    6    6    0  503  0.34012909943E+01  0.33951840758E+01 -0.11046141480E+02  0.12046298059E+02  0.00000000000E+00 0.  1.
<mgrwt>
<rscale>  0 0.16402429E+04</rscale>
<asrwt>0</asrwt>
<pdfrwt beam="1">  1        2 0.75920724E+00 0.16402429E+04</pdfrwt>
<pdfrwt beam="2">  1       -1 0.20968594E-01 0.16402429E+04</pdfrwt>
<totfact> 0.88554210E-01</totfact>
</mgrwt>
</event>
<event>
12    6  0.1494052E-007  0.1029259E+04  0.7818608E-02  0.9277023E-01
          2   -1    0    0  501    0  0.00000000000E+00  0.00000000000E+00  0.25926277830E+04  0.25926277830E+04  0.00000000000E+00 0. -1.
         -1   -1    0    0    0  501 -0.00000000000E+00 -0.00000000000E+00 -0.10215257736E+03  0.10215257736E+03  0.00000000000E+00 0.  1.
         24    2    1    2    0    0 -0.79998063930E+02  0.11887049788E+02  0.12446484173E+03  0.16906764400E+03  0.80940590764E+02 0.  0.
        254    2    1    2    0    0  0.79998063930E+02 -0.11887049788E+02  0.23660103639E+04  0.25257127164E+04  0.88015833309E+03 0.  0.
         23    2    4    4    0    0 -0.31191472369E+03  0.24145006731E+03  0.98114118898E+03  0.10612919549E+04  0.90075806333E+02 0.  0.
         23    2    4    4    0    0  0.39191278762E+03 -0.25333711709E+03  0.13848691749E+04  0.14644207615E+04  0.94287894555E+02 0.  0.
          2    1    3    3  502    0 -0.21145696855E+02  0.19561468551E+02 -0.25013218475E+01  0.28914497373E+02  0.00000000000E+00 0. -1.
         -1    1    3    3    0  502 -0.58852367075E+02 -0.76744187623E+01  0.12696616358E+03  0.14015314662E+03  0.00000000000E+00 0.  1.
         11    1    5    5    0    0 -0.23173755598E+03  0.18134992509E+03  0.82354856557E+03  0.87454121117E+03  0.00000000000E+00 0. -1.
        -11    1    5    5    0    0 -0.80177167706E+02  0.60100142220E+02  0.15759262340E+03  0.18675074368E+03  0.00000000000E+00 0.  1.
          3    1    6    6  503    0  0.37897271227E+03 -0.23922523178E+03  0.12441747178E+04  0.13224294902E+04  0.00000000000E+00 0. -1.
         -3    1    6    6    0  503  0.12940075345E+02 -0.14111885317E+02  0.14069445710E+03  0.14199127126E+03  0.00000000000E+00 0.  1.
<mgrwt>
<rscale>  0 0.10292592E+04</rscale>
<asrwt>0</asrwt>
<pdfrwt beam="1">  1        2 0.39886576E+00 0.10292592E+04</pdfrwt>
<pdfrwt beam="2">  1       -1 0.15715783E-01 0.10292592E+04</pdfrwt>
<totfact> 0.10781456E+02</totfact>
</mgrwt>
</event>
<event>
12    6  0.1494052E-007  0.1488879E+04  0.7818608E-02  0.8891882E-01
          2   -1    0    0  501    0  0.00000000000E+00  0.00000000000E+00  0.15471594854E+04  0.15471594854E+04  0.00000000000E+00 0. -1.
         -1   -1    0    0    0  501 -0.00000000000E+00 -0.00000000000E+00 -0.35819853172E+03  0.35819853172E+03  0.00000000000E+00 0.  1.
         24    2    1    2    0    0 -0.33870318931E+03 -0.76089872390E+02  0.78203425982E+03  0.85938428308E+03  0.80338305541E+02 0.  0.
        254    2    1    2    0    0  0.33870318931E+03  0.76089872390E+02  0.40692669385E+03  0.10459737340E+04  0.89886717538E+03 0.  0.
         23    2    4    4    0    0  0.38569350654E+03  0.42671161303E+03  0.15567315493E+03  0.60263141977E+03  0.89934505283E+02 0.  0.
         23    2    4    4    0    0 -0.46990317229E+02 -0.35062174064E+03  0.25125353892E+03  0.44334231426E+03  0.90996548665E+02 0.  0.
          2    1    3    3  502    0 -0.29196510623E+03 -0.47569426686E+02  0.70791006298E+03  0.76723081982E+03  0.00000000000E+00 0. -1.
         -1    1    3    3    0  502 -0.46738083082E+02 -0.28520445703E+02  0.74124196838E+02  0.92153463257E+02  0.00000000000E+00 0.  1.
         11    1    5    5    0    0  0.19580527166E+03  0.15816027584E+03  0.45616173765E+02  0.25580307381E+03  0.00000000000E+00 0.  1.
        -11    1    5    5    0    0  0.18988823488E+03  0.26855133719E+03  0.11005698116E+03  0.34682834595E+03  0.00000000000E+00 0. -1.
          3    1    6    6  503    0 -0.13854222304E+02 -0.36474901492E+01  0.12098811999E+01  0.14377324944E+02  0.00000000000E+00 0. -1.
         -3    1    6    6    0  503 -0.33136094925E+02 -0.34697425049E+03  0.25004365772E+03  0.42896498931E+03  0.00000000000E+00 0.  1.
<mgrwt>
<rscale>  0 0.14888791E+04</rscale>
<asrwt>0</asrwt>
<pdfrwt beam="1">  1        2 0.23802453E+00 0.14888791E+04</pdfrwt>
<pdfrwt beam="2">  1       -1 0.55107467E-01 0.14888791E+04</pdfrwt>
<totfact> 0.43784433E+01</totfact>
</mgrwt>
</event>
<event>
12    6  0.1494052E-007  0.2314644E+04  0.7818608E-02  0.8472169E-01
         -1   -1    0    0    0  501 -0.00000000000E+00  0.00000000000E+00  0.78742417332E+03  0.78742417332E+03  0.00000000000E+00 0.  1.
          2   -1    0    0  501    0  0.00000000000E+00 -0.00000000000E+00 -0.17009817996E+04  0.17009817996E+04  0.00000000000E+00 0. -1.
         24    2    1    2    0    0  0.36181079180E+03 -0.55327049581E+03 -0.12006575223E+04  0.13728885705E+04  0.78925601555E+02 0.  0.
        254    2    1    2    0    0 -0.36181079180E+03  0.55327049581E+03  0.28709989603E+03  0.11155174024E+04  0.85143257758E+03 0.  0.
         23    2    4    4    0    0 -0.39305596780E+03  0.55071581086E+03 -0.12405709810E+03  0.69316190502E+03  0.85453875392E+02 0.  0.
         23    2    4    4    0    0  0.31245176009E+02  0.25546849543E+01  0.41115699412E+03  0.42235549739E+03  0.91385474327E+02 0.  0.
          4    1    3    3  502    0  0.20771590075E+03 -0.28745491151E+03 -0.71649869833E+03  0.79946645101E+03  0.00000000000E+00 0. -1.
         -1    1    3    3    0  502  0.15409489104E+03 -0.26581558431E+03 -0.48415882393E+03  0.57342211947E+03  0.00000000000E+00 0.  1.
         11    1    5    5    0    0 -0.38968365975E+03  0.52155218348E+03 -0.10881785859E+03  0.66008435909E+03  0.00000000000E+00 0. -1.
        -11    1    5    5    0    0 -0.33723080524E+01  0.29163627377E+02 -0.15239239509E+02  0.33077545921E+02  0.00000000000E+00 0.  1.
          1    1    6    6  503    0  0.52641758733E+02 -0.24736698524E+02  0.31026600209E+03  0.31567079541E+03  0.00000000000E+00 0. -1.
         -1    1    6    6    0  503 -0.21396582724E+02  0.27291383478E+02  0.10089099203E+03  0.10668470198E+03  0.00000000000E+00 0.  1.
<mgrwt>
<rscale>  0 0.23146440E+04</rscale>
<asrwt>0</asrwt>
<pdfrwt beam="1">  1        2 0.26168950E+00 0.23146440E+04</pdfrwt>
<pdfrwt beam="2">  1       -1 0.12114218E+00 0.23146440E+04</pdfrwt>
<totfact> 0.61082364E+00</totfact>
</mgrwt>
</event>
<event>
12    6  0.1494052E-007  0.1167594E+04  0.7818608E-02  0.9141704E-01
         -1   -1    0    0    0  501 -0.00000000000E+00  0.00000000000E+00  0.43884870288E+03  0.43884870288E+03  0.00000000000E+00 0.  1.
          2   -1    0    0  501    0  0.00000000000E+00 -0.00000000000E+00 -0.77662085397E+03  0.77662085397E+03  0.00000000000E+00 0. -1.
         24    2    1    2    0    0  0.22701311618E+03  0.12853847017E+02 -0.21610893419E+03  0.32314644072E+03  0.77591071744E+02 0.  0.
        254    2    1    2    0    0 -0.22701311618E+03 -0.12853847017E+02 -0.12166321690E+03  0.89232311613E+03  0.85424728793E+03 0.  0.
         23    2    4    4    0    0  0.81241104311E+02 -0.36996857052E+03 -0.13101413555E+03  0.41100504181E+03  0.91014177358E+02 0.  0.
         23    2    4    4    0    0 -0.30825422049E+03  0.35711472350E+03  0.93509186597E+01  0.48131807432E+03  0.95016097580E+02 0.  0.
          4    1    3    3  502    0  0.12812948452E+03  0.76218747095E+01 -0.17232938278E+03  0.21487827705E+03  0.00000000000E+00 0. -1.
         -3    1    3    3    0  502  0.98883631654E+02  0.52319723071E+01 -0.43779551412E+02  0.10826816367E+03  0.00000000000E+00 0.  1.
         11    1    5    5    0    0 -0.57303588126E+00 -0.16694977195E+03 -0.84973277992E+02  0.18733129129E+03  0.00000000000E+00 0. -1.
        -11    1    5    5    0    0  0.81814140192E+02 -0.20301879856E+03 -0.46040857562E+02  0.22367375052E+03  0.00000000000E+00 0.  1.
          1    1    6    6  503    0 -0.17511022633E+03  0.24936387480E+03  0.39983074976E+02  0.30731836864E+03  0.00000000000E+00 0. -1.
         -1    1    6    6    0  503 -0.13314399416E+03  0.10775084870E+03 -0.30632156316E+02  0.17399970568E+03  0.00000000000E+00 0.  1.
<mgrwt>
<rscale>  0 0.11675942E+04</rscale>
<asrwt>0</asrwt>
<pdfrwt beam="1">  1        2 0.11948013E+00 0.11675942E+04</pdfrwt>
<pdfrwt beam="2">  1       -1 0.67515185E-01 0.11675942E+04</pdfrwt>
<totfact> 0.89885294E+01</totfact>
</mgrwt>
</event>
<event>
12    6  0.1607524E-007  0.1502347E+04  0.7818608E-02  0.8882894E-01
         -1   -1    0    0    0  501 -0.00000000000E+00  0.00000000000E+00  0.57966093297E+03  0.57966093297E+03  0.00000000000E+00 0.  1.
          2   -1    0    0  501    0  0.00000000000E+00 -0.00000000000E+00 -0.97343410593E+03  0.97343410593E+03  0.00000000000E+00 0. -1.
         24    2    1    2    0    0  0.27754897996E+03 -0.21310772305E+03 -0.48144029127E+03  0.60060266406E+03  0.80563441523E+02 0.  0.
        254    2    1    2    0    0 -0.27754897996E+03  0.21310772305E+03  0.87667118310E+02  0.95249237484E+03  0.88153721565E+03 0.  0.
         23    2    4    4    0    0 -0.13114227942E+03 -0.27800693394E+02 -0.37088193157E+03  0.40654751728E+03  0.98773987661E+02 0.  0.
         23    2    4    4    0    0 -0.14640670055E+03  0.24090841644E+03  0.45854904988E+03  0.54594485755E+03  0.91196322639E+02 0.  0.
          4    1    3    3  502    0  0.25986456441E+03 -0.21099228744E+03 -0.47612534411E+03  0.58201604832E+03  0.00000000000E+00 0. -1.
         -3    1    3    3    0  502  0.17684415552E+02 -0.21154356073E+01 -0.53149471601E+01  0.18586615736E+02  0.00000000000E+00 0.  1.
         11    1    5    5    0    0 -0.67505729598E+02 -0.46250856667E+02 -0.29340742658E+03  0.30460479846E+03  0.00000000000E+00 0.  1.
        -11    1    5    5    0    0 -0.63636549818E+02  0.18450163273E+02 -0.77474504987E+02  0.10194271882E+03  0.00000000000E+00 0. -1.
          1    1    6    6  503    0 -0.10123743497E+03  0.19406636241E+03  0.40995604633E+03  0.46473081582E+03  0.00000000000E+00 0. -1.
         -1    1    6    6    0  503 -0.45169265582E+02  0.46842054036E+02  0.48593003555E+02  0.81214041729E+02  0.00000000000E+00 0.  1.
<mgrwt>
<rscale>  0 0.15023471E+04</rscale>
<asrwt>0</asrwt>
<pdfrwt beam="1">  1        2 0.14975909E+00 0.15023471E+04</pdfrwt>
<pdfrwt beam="2">  1       -1 0.89178605E-01 0.15023471E+04</pdfrwt>
<totfact> 0.35615300E+01</totfact>
</mgrwt>
</event>
<event>
12    6  0.1494052E-007  0.1802594E+04  0.7818608E-02  0.8704921E-01
          2   -1    0    0  501    0  0.00000000000E+00  0.00000000000E+00  0.10363968090E+04  0.10363968090E+04  0.00000000000E+00 0. -1.
         -1   -1    0    0    0  501 -0.00000000000E+00 -0.00000000000E+00 -0.78380812043E+03  0.78380812043E+03  0.00000000000E+00 0.  1.
         24    2    1    2    0    0 -0.21888309728E+03 -0.28864455722E+03  0.65599664841E+03  0.75366131628E+03  0.80301221967E+02 0.  0.
        254    2    1    2    0    0  0.21888309728E+03  0.28864455722E+03 -0.40340795987E+03  0.10665436131E+04  0.91845076400E+03 0.  0.
         23    2    4    4    0    0 -0.19820638473E+03  0.44756040758E+03 -0.34672156898E+03  0.60702025855E+03  0.93068031631E+02 0.  0.
         23    2    4    4    0    0  0.41708948201E+03 -0.15891585037E+03 -0.56686390891E+02  0.45952335456E+03  0.93437053516E+02 0.  0.
          2    1    3    3  502    0 -0.20119583493E+03 -0.24427220177E+03  0.61073402051E+03  0.68785515653E+03  0.00000000000E+00 0. -1.
         -1    1    3    3    0  502 -0.17687262349E+02 -0.44372355449E+02  0.45262627898E+02  0.65806159755E+02  0.00000000000E+00 0.  1.
         11    1    5    5    0    0 -0.47234103402E+00  0.85177939276E+02 -0.66752245881E+02  0.10821906845E+03  0.00000000000E+00 0.  1.
        -11    1    5    5    0    0 -0.19773404370E+03  0.36238246831E+03 -0.27996932310E+03  0.49880119011E+03  0.00000000000E+00 0. -1.
          3    1    6    6  503    0  0.33731614927E+03 -0.16547339926E+03 -0.40876823345E+02  0.37793457781E+03  0.00000000000E+00 0. -1.
         -3    1    6    6    0  503  0.79773332747E+02  0.65575488970E+01 -0.15809567546E+02  0.81588776747E+02  0.00000000000E+00 0.  1.
<mgrwt>
<rscale>  0 0.18025939E+04</rscale>
<asrwt>0</asrwt>
<pdfrwt beam="1">  1        2 0.15944566E+00 0.18025939E+04</pdfrwt>
<pdfrwt beam="2">  1       -1 0.12058586E+00 0.18025939E+04</pdfrwt>
<totfact> 0.15728135E+01</totfact>
</mgrwt>
</event>
<event>
12    6  0.1494052E-007  0.1654775E+04  0.7818608E-02  0.8787587E-01
          2   -1    0    0  501    0  0.00000000000E+00  0.00000000000E+00  0.38187437476E+04  0.38187437476E+04  0.00000000000E+00 0. -1.
         -1   -1    0    0    0  501 -0.00000000000E+00 -0.00000000000E+00 -0.17926576975E+03  0.17926576975E+03  0.00000000000E+00 0.  1.
         24    2    1    2    0    0 -0.32257809787E+03 -0.38529961745E+01  0.26172560101E+04  0.26382171232E+04  0.78032633489E+02 0.  0.
        254    2    1    2    0    0  0.32257809787E+03  0.38529961745E+01  0.10222219678E+04  0.13597923942E+04  0.83667564150E+03 0.  0.
         23    2    4    4    0    0  0.25174194992E+03  0.31556047305E+03  0.92474704967E+03  0.10130373777E+04  0.90195350544E+02 0.  0.
         23    2    4    4    0    0  0.70836147948E+02 -0.31170747687E+03  0.97474918129E+02  0.34675501650E+03  0.92511463113E+02 0.  0.
          4    1    3    3  502    0 -0.27100043800E+03 -0.91201361161E+01  0.23779244921E+04  0.23933343486E+04  0.00000000000E+00 0. -1.
         -3    1    3    3    0  502 -0.51577659866E+02  0.52671399416E+01  0.23933151798E+03  0.24488277452E+03  0.00000000000E+00 0.  1.
         11    1    5    5    0    0  0.42915806977E+02  0.17958698152E+02  0.15352200661E+03  0.16041598374E+03  0.00000000000E+00 0. -1.
        -11    1    5    5    0    0  0.20882614294E+03  0.29760177490E+03  0.77122504306E+03  0.85262139397E+03  0.00000000000E+00 0.  1.
          1    1    6    6  503    0  0.29052775449E+01 -0.32599332898E+02  0.43556944916E+02  0.54482699946E+02  0.00000000000E+00 0. -1.
         -1    1    6    6    0  503  0.67930870403E+02 -0.27910814397E+03  0.53917973213E+02  0.29227231655E+03  0.00000000000E+00 0.  1.
<mgrwt>
<rscale>  0 0.16547750E+04</rscale>
<asrwt>0</asrwt>
<pdfrwt beam="1">  1        2 0.58749898E+00 0.16547750E+04</pdfrwt>
<pdfrwt beam="2">  1       -1 0.27579352E-01 0.16547750E+04</pdfrwt>
<totfact> 0.62025823E+00</totfact>
</mgrwt>
</event>
<event>
12    6  0.1494052E-007  0.1458770E+04  0.7818608E-02  0.8912343E-01
          2   -1    0    0  501    0  0.00000000000E+00  0.00000000000E+00  0.65307201003E+03  0.65307201003E+03  0.00000000000E+00 0. -1.
         -1   -1    0    0    0  501 -0.00000000000E+00 -0.00000000000E+00 -0.81461564927E+03  0.81461564927E+03  0.00000000000E+00 0.  1.
         24    2    1    2    0    0 -0.36487709260E+03 -0.21053014693E+03  0.41782216555E+02  0.43065274611E+03  0.79106249069E+02 0.  0.
        254    2    1    2    0    0  0.36487709260E+03  0.21053014693E+03 -0.20332585580E+03  0.10370349132E+04  0.92554944334E+03 0.  0.
         23    2    4    4    0    0  0.29221191361E+03 -0.14000259770E+03  0.27364670147E+03  0.43385189376E+03  0.91413449093E+02 0.  0.
         23    2    4    4    0    0  0.72665178983E+02  0.35053274463E+03 -0.47697255727E+03  0.60318301943E+03  0.90407418077E+02 0.  0.
          4    1    3    3  502    0 -0.36240258725E+03 -0.19275440609E+03  0.37380840576E+02  0.41217377834E+03  0.00000000000E+00 0. -1.
         -3    1    3    3    0  502 -0.24745053491E+01 -0.17775740842E+02  0.44013759791E+01  0.18478967766E+02  0.00000000000E+00 0.  1.
         11    1    5    5    0    0  0.64245880262E+02  0.80813944548E+01  0.49081541318E+02  0.81251706229E+02  0.00000000000E+00 0. -1.
        -11    1    5    5    0    0  0.22796603335E+03 -0.14808399215E+03  0.22456516016E+03  0.35260018754E+03  0.00000000000E+00 0.  1.
          2    1    6    6  503    0 -0.15741528382E+02  0.92268073042E+02 -0.15496240303E+03  0.18103739772E+03  0.00000000000E+00 0. -1.
         -2    1    6    6    0  503  0.88406707365E+02  0.25826467158E+03 -0.32201015424E+03  0.42214562171E+03  0.00000000000E+00 0.  1.
<mgrwt>
<rscale>  0 0.14587703E+04</rscale>
<asrwt>0</asrwt>
<pdfrwt beam="1">  1        2 0.10047262E+00 0.14587703E+04</pdfrwt>
<pdfrwt beam="2">  1       -1 0.12532548E+00 0.14587703E+04</pdfrwt>
<totfact> 0.27525963E+01</totfact>
</mgrwt>
</event>
<event>
12    6  0.1494052E-007  0.1213046E+04  0.7818608E-02  0.9101514E-01
         -1   -1    0    0    0  501 -0.00000000000E+00  0.00000000000E+00  0.18199187209E+03  0.18199187209E+03  0.00000000000E+00 0.  1.
          2   -1    0    0  501    0  0.00000000000E+00 -0.00000000000E+00 -0.20213540999E+04  0.20213540999E+04  0.00000000000E+00 0. -1.
         24    2    1    2    0    0 -0.13927294657E+03  0.11047529182E+03 -0.80187102809E+03  0.82558848235E+03  0.83650778616E+02 0.  0.
        254    2    1    2    0    0  0.13927294657E+03 -0.11047529182E+03 -0.10374911998E+04  0.13777574897E+04  0.88894654904E+03 0.  0.
         23    2    4    4    0    0 -0.97378533564E+02  0.35497476037E+03 -0.41309900358E+03  0.55915446770E+03  0.80704849237E+02 0.  0.
         23    2    4    4    0    0  0.23665148013E+03 -0.46545005219E+03 -0.62439219617E+03  0.81860302198E+03  0.87164320780E+02 0.  0.
          2    1    3    3  502    0 -0.12103010725E+03  0.79741725818E+02 -0.47108768971E+03  0.49287994592E+03  0.00000000000E+00 0. -1.
         -1    1    3    3    0  502 -0.18242839315E+02  0.30733565998E+02 -0.33078333838E+03  0.33270853643E+03  0.00000000000E+00 0.  1.
         11    1    5    5    0    0 -0.65179092381E+01  0.12848538024E+03 -0.10462413339E+03  0.16582275286E+03  0.00000000000E+00 0. -1.
        -11    1    5    5    0    0 -0.90860624326E+02  0.22648938013E+03 -0.30847487019E+03  0.39333171484E+03  0.00000000000E+00 0.  1.
          1    1    6    6  503    0  0.45286649466E+02 -0.17395135073E+03 -0.23574052195E+03  0.29645159256E+03  0.00000000000E+00 0. -1.
         -1    1    6    6    0  503  0.19136483067E+03 -0.29149870145E+03 -0.38865167422E+03  0.52215142941E+03  0.00000000000E+00 0.  1.
<mgrwt>
<rscale>  0 0.12130458E+04</rscale>
<asrwt>0</asrwt>
<pdfrwt beam="1">  1        2 0.31097757E+00 0.12130458E+04</pdfrwt>
<pdfrwt beam="2">  1       -1 0.27998748E-01 0.12130458E+04</pdfrwt>
<totfact> 0.84185272E+01</totfact>
</mgrwt>
</event>
<event>
12    6  0.1494052E-007  0.1431098E+04  0.7818608E-02  0.8931611E-01
         -1   -1    0    0    0  501 -0.00000000000E+00  0.00000000000E+00  0.18204376727E+03  0.18204376727E+03  0.00000000000E+00 0.  1.
          2   -1    0    0  501    0  0.00000000000E+00 -0.00000000000E+00 -0.28125666572E+04  0.28125666572E+04  0.00000000000E+00 0. -1.
         24    2    1    2    0    0  0.28073511434E+03 -0.30555410719E+03 -0.10193021047E+04  0.11034693058E+04  0.80574259696E+02 0.  0.
        254    2    1    2    0    0 -0.28073511434E+03  0.30555410719E+03 -0.16112207853E+04  0.18911411187E+04  0.89900322312E+03 0.  0.
         23    2    4    4    0    0  0.50074163112E+02 -0.28077273871E+03 -0.36786274347E+03  0.47442776166E+03  0.91749389006E+02 0.  0.
         23    2    4    4    0    0 -0.33080927745E+03  0.58632684591E+03 -0.12433580418E+04  0.14167133571E+04  0.89014424052E+02 0.  0.
          2    1    3    3  502    0  0.20278032879E+03 -0.26196187019E+03 -0.84497593300E+03  0.90759473915E+03  0.00000000000E+00 0. -1.
         -1    1    3    3    0  502  0.77954785553E+02 -0.43592237003E+02 -0.17432617168E+03  0.19587456662E+03  0.00000000000E+00 0.  1.
         11    1    5    5    0    0  0.28263515657E+02 -0.21586499886E+02 -0.73247230373E+02  0.81424566636E+02  0.00000000000E+00 0.  1.
        -11    1    5    5    0    0  0.21810647456E+02 -0.25918623883E+03 -0.29461551310E+03  0.39300319502E+03  0.00000000000E+00 0. -1.
          4    1    6    6  503    0 -0.23978048941E+03  0.45697260589E+03 -0.10187109531E+04  0.11419678855E+04  0.00000000000E+00 0. -1.
         -4    1    6    6    0  503 -0.91028788045E+02  0.12935424002E+03 -0.22464708875E+03  0.27474547157E+03  0.00000000000E+00 0.  1.
<mgrwt>
<rscale>  0 0.14310978E+04</rscale>
<asrwt>0</asrwt>
<pdfrwt beam="1">  1        2 0.43270259E+00 0.14310978E+04</pdfrwt>
<pdfrwt beam="2">  1       -1 0.28006732E-01 0.14310978E+04</pdfrwt>
<totfact> 0.29104181E+01</totfact>
</mgrwt>
</event>
<event>
12    6  0.1494052E-007  0.1970144E+04  0.7818608E-02  0.8620708E-01
         -1   -1    0    0    0  501 -0.00000000000E+00  0.00000000000E+00  0.11680324369E+04  0.11680324369E+04  0.00000000000E+00 0.  1.
          2   -1    0    0  501    0  0.00000000000E+00 -0.00000000000E+00 -0.83077057805E+03  0.83077057805E+03  0.00000000000E+00 0. -1.
         24    2    1    2    0    0  0.71690625435E+03 -0.19989829314E+03  0.36768546380E+03  0.83403286482E+03  0.80649328491E+02 0.  0.
        254    2    1    2    0    0 -0.71690625435E+03  0.19989829314E+03 -0.30423604962E+02  0.11647701501E+04  0.89546077620E+03 0.  0.
         23    2    4    4    0    0 -0.36244686300E+03  0.28411401797E+03 -0.41497153218E+03  0.62676102640E+03  0.92409458323E+02 0.  0.
         23    2    4    4    0    0 -0.35445939135E+03 -0.84215724834E+02  0.38454792722E+03  0.53800912371E+03  0.94037016300E+02 0.  0.
          2    1    3    3  502    0  0.64196319310E+03 -0.18910120978E+03  0.30378979695E+03  0.73495867201E+03  0.00000000000E+00 0. -1.
         -1    1    3    3    0  502  0.74943061253E+02 -0.10797083360E+02  0.63895666850E+02  0.99074192811E+02  0.00000000000E+00 0.  1.
         11    1    5    5    0    0 -0.17496218424E+03  0.17266379152E+03 -0.26852932224E+03  0.36405019945E+03  0.00000000000E+00 0. -1.
        -11    1    5    5    0    0 -0.18748467875E+03  0.11145022645E+03 -0.14644220994E+03  0.26271082695E+03  0.00000000000E+00 0.  1.
          2    1    6    6  503    0 -0.16275508720E+03 -0.24216761033E+02  0.11042345487E+03  0.19816409693E+03  0.00000000000E+00 0. -1.
         -2    1    6    6    0  503 -0.19170430415E+03 -0.59998963801E+02  0.27412447235E+03  0.33984502678E+03  0.00000000000E+00 0.  1.
<mgrwt>
<rscale>  0 0.19701441E+04</rscale>
<asrwt>0</asrwt>
<pdfrwt beam="1">  1        2 0.12781086E+00 0.19701441E+04</pdfrwt>
<pdfrwt beam="2">  1       -1 0.17969730E+00 0.19701441E+04</pdfrwt>
<totfact> 0.72781412E+00</totfact>
</mgrwt>
</event>
<event>
12    6  0.1494052E-007  0.1913849E+04  0.7818608E-02  0.8647993E-01
          2   -1    0    0  501    0  0.00000000000E+00  0.00000000000E+00  0.31604866781E+04  0.31604866781E+04  0.00000000000E+00 0. -1.
         -1   -1    0    0    0  501 -0.00000000000E+00 -0.00000000000E+00 -0.28973522098E+03  0.28973522098E+03  0.00000000000E+00 0.  1.
         24    2    1    2    0    0 -0.52255283398E+03  0.47959830554E+03  0.70586328455E+03  0.10038994712E+04  0.80592635626E+02 0.  0.
        254    2    1    2    0    0  0.52255283398E+03 -0.47959830554E+03  0.21648881726E+04  0.24463224278E+04  0.89144636530E+03 0.  0.
         23    2    4    4    0    0  0.68367666490E+02 -0.23130446688E+03  0.43579785153E+02  0.26081167378E+03  0.89149522069E+02 0.  0.
         23    2    4    4    0    0  0.45418516749E+03 -0.24829383866E+03  0.21213083874E+04  0.21855107541E+04  0.92595814525E+02 0.  0.
          2    1    3    3  502    0 -0.10917011772E+02  0.32825286209E+02  0.34697211011E+02  0.48995683613E+02  0.00000000000E+00 0. -1.
         -1    1    3    3    0  502 -0.51163582221E+03  0.44677301933E+03  0.67116607354E+03  0.95490378763E+03  0.00000000000E+00 0.  1.
         11    1    5    5    0    0  0.30006314453E+02 -0.20996879061E+03  0.45287909555E+02  0.21688307147E+03  0.00000000000E+00 0.  1.
        -11    1    5    5    0    0  0.38361352037E+02 -0.21335676271E+02 -0.17081244017E+01  0.43928602311E+02  0.00000000000E+00 0. -1.
          3    1    6    6  503    0  0.43713071424E+02 -0.30838832053E+02  0.36112236198E+03  0.36506331848E+03  0.00000000000E+00 0. -1.
         -3    1    6    6    0  503  0.41047209606E+03 -0.21745500661E+03  0.17601860254E+04  0.18204474356E+04  0.00000000000E+00 0.  1.
<mgrwt>
<rscale>  0 0.19138488E+04</rscale>
<asrwt>0</asrwt>
<pdfrwt beam="1">  1        2 0.48622869E+00 0.19138488E+04</pdfrwt>
<pdfrwt beam="2">  1       -1 0.44574652E-01 0.19138488E+04</pdfrwt>
<totfact> 0.73330791E+00</totfact>
</mgrwt>
</event>
<event>
12    6  0.1494052E-007  0.3441729E+04  0.7818608E-02  0.8127740E-01
          2   -1    0    0  501    0  0.00000000000E+00  0.00000000000E+00  0.16252169776E+04  0.16252169776E+04  0.00000000000E+00 0. -1.
         -3   -1    0    0    0  501 -0.00000000000E+00 -0.00000000000E+00 -0.18221415834E+04  0.18221415834E+04  0.00000000000E+00 0.  1.
         24    2    1    2    0    0  0.36331537697E+03 -0.10005559479E+04 -0.12897833801E+04  0.16742372188E+04  0.80117596539E+02 0.  0.
        254    2    1    2    0    0 -0.36331537697E+03  0.10005559479E+04  0.10928587743E+04  0.17731213422E+04  0.90360872357E+03 0.  0.
         23    2    4    4    0    0 -0.18328314735E+03  0.34371053095E+03 -0.85262539334E+02  0.40925464059E+03  0.92141299299E+02 0.  0.
         23    2    4    4    0    0 -0.18003222962E+03  0.65684541699E+03  0.11781213137E+04  0.13638667016E+04  0.91132016635E+02 0.  0.
          2    1    3    3  502    0  0.49336060293E+02 -0.10463451722E+03 -0.10695219050E+03  0.15754745346E+03  0.00000000000E+00 0. -1.
         -1    1    3    3    0  502  0.31397931668E+03 -0.89592143072E+03 -0.11828311896E+04  0.15166897654E+04  0.00000000000E+00 0.  1.
         11    1    5    5    0    0 -0.21472796242E+02  0.82497148851E+02 -0.52802828912E+02  0.10027461936E+03  0.00000000000E+00 0. -1.
        -11    1    5    5    0    0 -0.16181035111E+03  0.26121338210E+03 -0.32459710423E+02  0.30898002123E+03  0.00000000000E+00 0.  1.
          4    1    6    6  503    0 -0.15120330368E+03  0.57983032660E+03  0.10862569339E+04  0.12405723571E+04  0.00000000000E+00 0.  1.
         -4    1    6    6    0  503 -0.28828925939E+02  0.77015090388E+02  0.91864379757E+02  0.12329434450E+03  0.00000000000E+00 0. -1.
<mgrwt>
<rscale>  0 0.34417295E+04</rscale>
<asrwt>0</asrwt>
<pdfrwt beam="1">  1        2 0.25003338E+00 0.34417295E+04</pdfrwt>
<pdfrwt beam="2">  1       -3 0.28032947E+00 0.34417295E+04</pdfrwt>
<totfact> 0.27467082E-01</totfact>
</mgrwt>
</event>
<event>
12    6  0.1494052E-007  0.2132658E+04  0.7818608E-02  0.8546992E-01
          2   -1    0    0  501    0  0.00000000000E+00  0.00000000000E+00  0.17976336255E+04  0.17976336255E+04  0.00000000000E+00 0. -1.
         -1   -1    0    0    0  501 -0.00000000000E+00 -0.00000000000E+00 -0.63253000371E+03  0.63253000371E+03  0.00000000000E+00 0.  1.
         24    2    1    2    0    0  0.23251630105E+03 -0.89326322419E+02  0.14159883094E+04  0.14399418300E+04  0.79790721690E+02 0.  0.
        254    2    1    2    0    0 -0.23251630105E+03  0.89326322419E+02 -0.25088468766E+03  0.99022179917E+03  0.92496111428E+03 0.  0.
         23    2    4    4    0    0  0.20387910523E+03  0.76946849218E+02  0.23312157289E+03  0.33340074039E+03  0.96555055760E+02 0.  0.
         23    2    4    4    0    0 -0.43639540627E+03  0.12379473201E+02 -0.48400626055E+03  0.65682105878E+03  0.80979262999E+02 0.  0.
          4    1    3    3  502    0  0.15165146476E+03 -0.45650761110E+02  0.67793195133E+03  0.69618524071E+03  0.00000000000E+00 0. -1.
         -3    1    3    3    0  502  0.80864836285E+02 -0.43675561309E+02  0.73805635809E+03  0.74375658929E+03  0.00000000000E+00 0.  1.
         11    1    5    5    0    0  0.37529727679E+02  0.12936660449E+02 -0.31331304325E+00  0.39698057992E+02  0.00000000000E+00 0. -1.
        -11    1    5    5    0    0  0.16634937755E+03  0.64010188770E+02  0.23343488594E+03  0.29370268240E+03  0.00000000000E+00 0.  1.
          4    1    6    6  503    0 -0.14345611385E+02  0.94693679868E+01 -0.39982120122E+01  0.17647979924E+02  0.00000000000E+00 0. -1.
         -4    1    6    6    0  503 -0.42204979489E+03  0.29101052139E+01 -0.48000804854E+03  0.63917307886E+03  0.00000000000E+00 0.  1.
<mgrwt>
<rscale>  0 0.21326577E+04</rscale>
<asrwt>0</asrwt>
<pdfrwt beam="1">  1        2 0.27655902E+00 0.21326577E+04</pdfrwt>
<pdfrwt beam="2">  1       -1 0.97312309E-01 0.21326577E+04</pdfrwt>
<totfact> 0.91854393E+00</totfact>
</mgrwt>
</event>
<event>
12    6  0.1494052E-007  0.1636444E+04  0.7818608E-02  0.8798467E-01
         -1   -1    0    0    0  501 -0.00000000000E+00  0.00000000000E+00  0.17274190073E+04  0.17274190073E+04  0.00000000000E+00 0.  1.
          2   -1    0    0  501    0  0.00000000000E+00 -0.00000000000E+00 -0.38756497261E+03  0.38756497261E+03  0.00000000000E+00 0. -1.
         24    2    1    2    0    0  0.78742169903E+02  0.31744818336E+03 -0.12484756516E+03  0.36415979872E+03  0.10025849610E+03 0.  0.
        254    2    1    2    0    0 -0.78742169903E+02 -0.31744818336E+03  0.14647015998E+04  0.17508241812E+04  0.90169887347E+03 0.  0.
         23    2    4    4    0    0  0.24953612481E+02  0.12135552944E+03 -0.54785066653E+02  0.16327821843E+03  0.91151115102E+02 0.  0.
         23    2    4    4    0    0 -0.10369578238E+03 -0.43880371280E+03  0.15194866665E+04  0.15875459627E+04  0.90337924219E+02 0.  0.
          2    1    3    3  502    0  0.92197912537E+01  0.22685430364E+03 -0.70835277338E+02  0.23783506080E+03  0.00000000000E+00 0. -1.
         -1    1    3    3    0  502  0.69522378649E+02  0.90593879724E+02 -0.54012287818E+02  0.12632473793E+03  0.00000000000E+00 0.  1.
         11    1    5    5    0    0 -0.20918937213E+02  0.99839315636E+02 -0.27125727366E+02  0.10555233757E+03  0.00000000000E+00 0. -1.
        -11    1    5    5    0    0  0.45872549693E+02  0.21516213808E+02 -0.27659339287E+02  0.57725880866E+02  0.00000000000E+00 0.  1.
          4    1    6    6  503    0 -0.88327554757E+01 -0.21792306992E+03  0.66212756843E+03  0.69712366108E+03  0.00000000000E+00 0. -1.
         -4    1    6    6    0  503 -0.94863026908E+02 -0.22088064289E+03  0.85735909804E+03  0.89042230165E+03  0.00000000000E+00 0.  1.
<mgrwt>
<rscale>  0 0.16364438E+04</rscale>
<asrwt>0</asrwt>
<pdfrwt beam="1">  1        2 0.59625381E-01 0.16364438E+04</pdfrwt>
<pdfrwt beam="2">  1       -1 0.26575677E+00 0.16364438E+04</pdfrwt>
<totfact> 0.49656788E+00</totfact>
</mgrwt>
</event>
<event>
12    6  0.1494052E-007  0.1057429E+04  0.7818608E-02  0.9247707E-01
         -1   -1    0    0    0  501 -0.00000000000E+00  0.00000000000E+00  0.99332886111E+03  0.99332886111E+03  0.00000000000E+00 0.  1.
          2   -1    0    0  501    0  0.00000000000E+00 -0.00000000000E+00 -0.28141640498E+03  0.28141640498E+03  0.00000000000E+00 0. -1.
         24    2    1    2    0    0  0.88034811575E+02  0.41057095974E+02  0.18202080864E+03  0.22130343891E+03  0.80048885804E+02 0.  0.
        254    2    1    2    0    0 -0.88034811575E+02 -0.41057095974E+02  0.52989164750E+03  0.10534418272E+04  0.90527272796E+03 0.  0.
         23    2    4    4    0    0  0.35210493671E+03 -0.15998547047E+03  0.76767438649E+02  0.40475318135E+03  0.91425712772E+02 0.  0.
         23    2    4    4    0    0 -0.44013974829E+03  0.11892837450E+03  0.45312420885E+03  0.64868864583E+03  0.87226454143E+02 0.  0.
          2    1    3    3  502    0  0.36062882067E+02 -0.68827967736E+01  0.14501967252E+02  0.39474186610E+02  0.00000000000E+00 0. -1.
         -1    1    3    3    0  502  0.51971929509E+02  0.47939892748E+02  0.16751884138E+03  0.18182925230E+03  0.00000000000E+00 0.  1.
         11    1    5    5    0    0  0.65053199464E+02 -0.23038476104E+02  0.50713408458E+02  0.85641928628E+02  0.00000000000E+00 0. -1.
        -11    1    5    5    0    0  0.28705173725E+03 -0.13694699437E+03  0.26054030191E+02  0.31911125272E+03  0.00000000000E+00 0.  1.
          2    1    6    6  503    0 -0.42235900303E+03  0.10452596535E+03  0.40075274310E+03  0.59153661423E+03  0.00000000000E+00 0.  1.
         -2    1    6    6    0  503 -0.17780745253E+02  0.14402409153E+02  0.52371465750E+02  0.57152031600E+02  0.00000000000E+00 0. -1.
<mgrwt>
<rscale>  0 0.10574290E+04</rscale>
<asrwt>0</asrwt>
<pdfrwt beam="1">  1        2 0.43294832E-01 0.10574290E+04</pdfrwt>
<pdfrwt beam="2">  1       -1 0.15281982E+00 0.10574290E+04</pdfrwt>
<totfact> 0.44634883E+01</totfact>
</mgrwt>
</event>
<event>
12    6  0.1494052E-007  0.1180118E+04  0.7818608E-02  0.9130439E-01
         -1   -1    0    0    0  501 -0.00000000000E+00  0.00000000000E+00  0.17966096165E+03  0.17966096165E+03  0.00000000000E+00 0.  1.
          2   -1    0    0  501    0  0.00000000000E+00 -0.00000000000E+00 -0.19379259220E+04  0.19379259220E+04  0.00000000000E+00 0. -1.
         24    2    1    2    0    0  0.15852518338E+03  0.16863049664E+03 -0.33095884032E+03  0.41065400553E+03  0.74407527244E+02 0.  0.
        254    2    1    2    0    0 -0.15852518338E+03 -0.16863049664E+03 -0.14273061200E+04  0.17069328781E+04  0.90711113540E+03 0.  0.
         23    2    4    4    0    0 -0.12116062628E+03  0.92683563226E+02 -0.14162434583E+04  0.14271412456E+04  0.87843391786E+02 0.  0.
         23    2    4    4    0    0 -0.37364557097E+02 -0.26131405987E+03 -0.11062661677E+02  0.27979163246E+03  0.92085976684E+02 0.  0.
          2    1    3    3  502    0  0.45870365905E+02  0.14680432555E+02 -0.39369009124E+02  0.62205501748E+02  0.00000000000E+00 0. -1.
         -1    1    3    3    0  502  0.11265481747E+03  0.15395006409E+03 -0.29158983120E+03  0.34844850379E+03  0.00000000000E+00 0.  1.
         11    1    5    5    0    0 -0.38445973163E+02 -0.30539268349E+01 -0.59083891719E+03  0.59209631429E+03  0.00000000000E+00 0.  1.
        -11    1    5    5    0    0 -0.82714653116E+02  0.95737490061E+02 -0.82540454112E+03  0.83504493133E+03  0.00000000000E+00 0. -1.
          4    1    6    6  503    0  0.29178877132E+02 -0.73277126116E+02 -0.15009987004E+02  0.80288503489E+02  0.00000000000E+00 0. -1.
         -4    1    6    6    0  503 -0.66543434229E+02 -0.18803693375E+03  0.39473253273E+01  0.19950312898E+03  0.00000000000E+00 0.  1.
<mgrwt>
<rscale>  0 0.11801180E+04</rscale>
<asrwt>0</asrwt>
<pdfrwt beam="1">  1        2 0.29814245E+00 0.11801180E+04</pdfrwt>
<pdfrwt beam="2">  1       -1 0.27640148E-01 0.11801180E+04</pdfrwt>
<totfact> 0.95977789E+01</totfact>
</mgrwt>
</event>
<event>
12    6  0.1494052E-007  0.1601548E+04  0.7818608E-02  0.8819598E-01
          2   -1    0    0  501    0  0.00000000000E+00  0.00000000000E+00  0.10394669382E+04  0.10394669382E+04  0.00000000000E+00 0. -1.
         -1   -1    0    0    0  501 -0.00000000000E+00 -0.00000000000E+00 -0.61689177154E+03  0.61689177154E+03  0.00000000000E+00 0.  1.
         24    2    1    2    0    0 -0.23280753703E+03 -0.33112625849E+03 -0.22992171936E+03  0.47292398805E+03  0.83361580361E+02 0.  0.
        254    2    1    2    0    0  0.23280753703E+03  0.33112625849E+03  0.65249688599E+03  0.11834347217E+04  0.90051185769E+03 0.  0.
         23    2    4    4    0    0  0.25908526094E+03 -0.22558626768E+03  0.47005953397E+03  0.59031153319E+03  0.97454626028E+02 0.  0.
         23    2    4    4    0    0 -0.26277723908E+02  0.55671252617E+03  0.18243735202E+03  0.59312318847E+03  0.88839032637E+02 0.  0.
          2    1    3    3  502    0 -0.33649117320E+02 -0.10662725805E+02 -0.12445571766E+02  0.37427918384E+02  0.00000000000E+00 0. -1.
         -1    1    3    3    0  502 -0.19915841971E+03 -0.32046353268E+03 -0.21747614760E+03  0.43549606967E+03  0.00000000000E+00 0.  1.
         11    1    5    5    0    0  0.14455485044E+03 -0.14476112836E+03  0.20031459772E+03  0.28631770314E+03  0.00000000000E+00 0. -1.
        -11    1    5    5    0    0  0.11453041050E+03 -0.80825139320E+02  0.26974493625E+03  0.30399383005E+03  0.00000000000E+00 0.  1.
          3    1    6    6  503    0 -0.22805302933E+02  0.48790344983E+03  0.12695957545E+03  0.50466681286E+03  0.00000000000E+00 0. -1.
         -3    1    6    6    0  503 -0.34724209746E+01  0.68809076337E+02  0.55477776564E+02  0.88456375611E+02  0.00000000000E+00 0.  1.
<mgrwt>
<rscale>  0 0.16015475E+04</rscale>
<asrwt>0</asrwt>
<pdfrwt beam="1">  1        2 0.15991799E+00 0.16015475E+04</pdfrwt>
<pdfrwt beam="2">  1       -1 0.94906426E-01 0.16015475E+04</pdfrwt>
<totfact> 0.27906590E+01</totfact>
</mgrwt>
</event>
<event>
12    6  0.1494052E-007  0.1374943E+04  0.7818608E-02  0.8972159E-01
          2   -1    0    0  501    0  0.00000000000E+00  0.00000000000E+00  0.91701666704E+03  0.91701666704E+03  0.00000000000E+00 0. -1.
         -1   -1    0    0    0  501 -0.00000000000E+00 -0.00000000000E+00 -0.51538535474E+03  0.51538535474E+03  0.00000000000E+00 0.  1.
         24    2    1    2    0    0  0.22762406359E+03 -0.14911588320E+02 -0.21403830232E+03  0.32171022530E+03  0.75166511227E+02 0.  0.
        254    2    1    2    0    0 -0.22762406359E+03  0.14911588320E+02  0.61566961463E+03  0.11106917965E+04  0.89585273489E+03 0.  0.
         23    2    4    4    0    0 -0.23554498554E+03  0.11558139818E+03 -0.16223954007E+03  0.32146243949E+03  0.90420859452E+02 0.  0.
         23    2    4    4    0    0  0.79209219490E+01 -0.10066980986E+03  0.77790915470E+03  0.78922935699E+03  0.86851444165E+02 0.  0.
          4    1    3    3  502    0  0.86636617258E+02 -0.33502986384E+02 -0.11771628518E+03  0.14995158333E+03  0.00000000000E+00 0. -1.
         -3    1    3    3    0  502  0.14098744633E+03  0.18591398064E+02 -0.96322017145E+02  0.17175864197E+03  0.00000000000E+00 0.  1.
         11    1    5    5    0    0 -0.84165892030E+01  0.13313234193E+01  0.10920017700E+02  0.13851288114E+02  0.00000000000E+00 0. -1.
        -11    1    5    5    0    0 -0.22712839634E+03  0.11425007476E+03 -0.17315955777E+03  0.30761115138E+03  0.00000000000E+00 0.  1.
          4    1    6    6  503    0  0.33226670129E+02 -0.10250364554E+02  0.31358068599E+03  0.31550265958E+03  0.00000000000E+00 0. -1.
         -4    1    6    6    0  503 -0.25305748180E+02 -0.90419445305E+02  0.46432846871E+03  0.47372669741E+03  0.00000000000E+00 0.  1.
<mgrwt>
<rscale>  0 0.13749429E+04</rscale>
<asrwt>0</asrwt>
<pdfrwt beam="1">  1        2 0.14107949E+00 0.13749429E+04</pdfrwt>
<pdfrwt beam="2">  1       -1 0.79290055E-01 0.13749429E+04</pdfrwt>
<totfact> 0.50533347E+01</totfact>
</mgrwt>
</event>
<event>
12    6  0.1494052E-007  0.1666966E+04  0.7818608E-02  0.8780433E-01
         -1   -1    0    0    0  501 -0.00000000000E+00  0.00000000000E+00  0.10110767761E+04  0.10110767761E+04  0.00000000000E+00 0.  1.
          2   -1    0    0  501    0  0.00000000000E+00 -0.00000000000E+00 -0.68708285991E+03  0.68708285991E+03  0.00000000000E+00 0. -1.
         24    2    1    2    0    0 -0.38273973234E+03  0.41496816900E+03  0.27315190369E+03  0.63287298730E+03  0.85017477977E+02 0.  0.
        254    2    1    2    0    0  0.38273973234E+03 -0.41496816900E+03  0.50842012455E+02  0.10652866487E+04  0.90197696735E+03 0.  0.
         23    2    4    4    0    0  0.45414133948E+03 -0.19329755455E+02 -0.27585048029E+03  0.53943323195E+03  0.90976527670E+02 0.  0.
         23    2    4    4    0    0 -0.71401607132E+02 -0.39563841355E+03  0.32669249274E+03  0.52585341673E+03  0.90365299186E+02 0.  0.
          4    1    3    3  502    0 -0.73761321880E+02  0.10984370034E+03  0.31861946865E+02  0.13609391893E+03  0.00000000000E+00 0. -1.
         -3    1    3    3    0  502 -0.30897841046E+03  0.30512446866E+03  0.24128995683E+03  0.49677906837E+03  0.00000000000E+00 0.  1.
         11    1    5    5    0    0  0.10859940950E+03  0.28146237405E+02 -0.43431341257E+02  0.12030097184E+03  0.00000000000E+00 0.  1.
        -11    1    5    5    0    0  0.34554192998E+03 -0.47475992859E+02 -0.23241913903E+03  0.41913226010E+03  0.00000000000E+00 0. -1.
          2    1    6    6  503    0 -0.92646604924E+02 -0.32600548680E+03  0.26054386612E+03  0.42748810159E+03  0.00000000000E+00 0. -1.
         -2    1    6    6    0  503  0.21244997792E+02 -0.69632926742E+02  0.66148626630E+02  0.98365315141E+02  0.00000000000E+00 0.  1.
<mgrwt>
<rscale>  0 0.16669655E+04</rscale>
<asrwt>0</asrwt>
<pdfrwt beam="1">  1        2 0.10570506E+00 0.16669655E+04</pdfrwt>
<pdfrwt beam="2">  1       -1 0.15555027E+00 0.16669655E+04</pdfrwt>
<totfact> 0.14444756E+01</totfact>
</mgrwt>
</event>
<event>
12    6  0.1494052E-007  0.1917075E+04  0.7818608E-02  0.8646404E-01
         -1   -1    0    0    0  501 -0.00000000000E+00  0.00000000000E+00  0.28387404561E+03  0.28387404561E+03  0.00000000000E+00 0.  1.
          2   -1    0    0  501    0  0.00000000000E+00 -0.00000000000E+00 -0.32366254751E+04  0.32366254751E+04  0.00000000000E+00 0. -1.
         24    2    1    2    0    0  0.37377281541E+03  0.33889812392E+03 -0.21535775661E+04  0.22133222458E+04  0.79630235435E+02 0.  0.
        254    2    1    2    0    0 -0.37377281541E+03 -0.33889812392E+03 -0.79917386331E+03  0.13071772749E+04  0.90303682551E+03 0.  0.
         23    2    4    4    0    0  0.10703526357E+03  0.12368837658E+03  0.76671444772E+02  0.20213687463E+03  0.90694230745E+02 0.  0.
         23    2    4    4    0    0 -0.48080807899E+03 -0.46258650050E+03 -0.87584530808E+03  0.11050404003E+04  0.94056383293E+02 0.  0.
          2    1    3    3  502    0  0.17842220810E+03  0.15329397906E+03 -0.11754539878E+04  0.11987600284E+04  0.00000000000E+00 0. -1.
         -1    1    3    3    0  502  0.19535060731E+03  0.18560414486E+03 -0.97812357838E+03  0.10145622174E+04  0.00000000000E+00 0.  1.
         11    1    5    5    0    0  0.85623556964E+01  0.44516210576E+02 -0.13044953300E+02  0.47171789723E+02  0.00000000000E+00 0.  1.
        -11    1    5    5    0    0  0.98472907877E+02  0.79172166007E+02  0.89716398072E+02  0.15496508490E+03  0.00000000000E+00 0. -1.
          2    1    6    6  503    0 -0.68381068009E+02 -0.26018800381E+02 -0.90376504082E+02  0.11627923686E+03  0.00000000000E+00 0. -1.
         -2    1    6    6    0  503 -0.41242701098E+03 -0.43656770012E+03 -0.78546880400E+03  0.98876116339E+03  0.00000000000E+00 0.  1.
<mgrwt>
<rscale>  0 0.19170748E+04</rscale>
<asrwt>0</asrwt>
<pdfrwt beam="1">  1        2 0.49794239E+00 0.19170748E+04</pdfrwt>
<pdfrwt beam="2">  1       -1 0.43672929E-01 0.19170748E+04</pdfrwt>
<totfact> 0.67954461E+00</totfact>
</mgrwt>
</event>
<event>
12    6  0.1907758E-007  0.1705064E+04  0.7818608E-02  0.8758482E-01
         -1   -1    0    0    0  501 -0.00000000000E+00  0.00000000000E+00  0.55585177748E+03  0.55585177748E+03  0.00000000000E+00 0.  1.
          2   -1    0    0  501    0  0.00000000000E+00 -0.00000000000E+00 -0.13075618583E+04  0.13075618583E+04  0.00000000000E+00 0. -1.
         24    2    1    2    0    0  0.49213287191E+03 -0.59068731487E+02  0.11493517660E+03  0.51513031687E+03  0.80406901994E+02 0.  0.
        254    2    1    2    0    0 -0.49213287191E+03  0.59068731487E+02 -0.86664525741E+03  0.13482833189E+04  0.90615121650E+03 0.  0.
         23    2    4    4    0    0  0.14017009619E+03 -0.11333511510E+03 -0.60329971089E+03  0.63625089942E+03  0.91390161799E+02 0.  0.
         23    2    4    4    0    0 -0.63230296810E+03  0.17240384659E+03 -0.26334554651E+03  0.71203241947E+03  0.90050872991E+02 0.  0.
          4    1    3    3  502    0  0.10259914134E+03  0.48229783234E+00  0.55391142495E+02  0.11659757751E+03  0.00000000000E+00 0. -1.
         -3    1    3    3    0  502  0.38953373057E+03 -0.59551029319E+02  0.59544034103E+02  0.39853273936E+03  0.00000000000E+00 0.  1.
         11    1    5    5    0    0  0.63571281428E+01 -0.46178811823E+02 -0.21704570268E+03  0.22199489362E+03  0.00000000000E+00 0. -1.
        -11    1    5    5    0    0  0.13381296805E+03 -0.67156303277E+02 -0.38625400821E+03  0.41425600580E+03  0.00000000000E+00 0.  1.
          1    1    6    6  503    0 -0.65969870310E+01  0.13813091641E+02 -0.12464964668E+01  0.15358238572E+02  0.00000000000E+00 0. -1.
         -1    1    6    6    0  503 -0.62570598107E+03  0.15859075495E+03 -0.26209905005E+03  0.69667418090E+03  0.00000000000E+00 0.  1.
<mgrwt>
<rscale>  0 0.17050637E+04</rscale>
<asrwt>0</asrwt>
<pdfrwt beam="1">  1        2 0.20116336E+00 0.17050637E+04</pdfrwt>
<pdfrwt beam="2">  1       -1 0.85515658E-01 0.17050637E+04</pdfrwt>
<totfact> 0.23977440E+01</totfact>
</mgrwt>
</event>
<event>
12    6  0.1494052E-007  0.2272371E+04  0.7818608E-02  0.8488895E-01
         -1   -1    0    0    0  501 -0.00000000000E+00  0.00000000000E+00  0.51986270562E+03  0.51986270562E+03  0.00000000000E+00 0.  1.
          2   -1    0    0  501    0  0.00000000000E+00 -0.00000000000E+00 -0.24831883701E+04  0.24831883701E+04  0.00000000000E+00 0. -1.
         24    2    1    2    0    0  0.54096267180E+03  0.72775939092E+03 -0.11666891692E+04  0.14798045195E+04  0.79896526886E+02 0.  0.
        254    2    1    2    0    0 -0.54096267180E+03 -0.72775939092E+03 -0.79663649527E+03  0.15232465562E+04  0.92918029578E+03 0.  0.
         23    2    4    4    0    0 -0.20302704765E+03 -0.58133726720E+02  0.17743644487E+03  0.29051345940E+03  0.91185886328E+02 0.  0.
         23    2    4    4    0    0 -0.33793562415E+03 -0.66962566420E+03 -0.97407294014E+03  0.12327330968E+04  0.90629901488E+02 0.  0.
          2    1    3    3  502    0  0.42718762355E+03  0.55914842273E+03 -0.85066566527E+03  0.11039783958E+04  0.00000000000E+00 0. -1.
         -1    1    3    3    0  502  0.11377504825E+03  0.16861096820E+03 -0.31602350392E+03  0.37582612367E+03  0.00000000000E+00 0.  1.
         11    1    5    5    0    0 -0.94510181886E+02  0.84891044651E+01  0.11376972122E+03  0.14814786141E+03  0.00000000000E+00 0.  1.
        -11    1    5    5    0    0 -0.10851686577E+03 -0.66622831185E+02  0.63666723651E+02  0.14236559799E+03  0.00000000000E+00 0. -1.
          4    1    6    6  503    0 -0.57294653025E+02 -0.55324111047E+02 -0.11712588611E+03  0.14164006398E+03  0.00000000000E+00 0. -1.
         -4    1    6    6    0  503 -0.28064097112E+03 -0.61430155315E+03 -0.85694705403E+03  0.10910930328E+04  0.00000000000E+00 0.  1.
<mgrwt>
<rscale>  0 0.22723706E+04</rscale>
<asrwt>0</asrwt>
<pdfrwt beam="1">  1        2 0.38202899E+00 0.22723706E+04</pdfrwt>
<pdfrwt beam="2">  1       -1 0.79978875E-01 0.22723706E+04</pdfrwt>
<totfact> 0.57448184E+00</totfact>
</mgrwt>
</event>
<event>
12    6  0.1494052E-007  0.1446527E+04  0.7818608E-02  0.8920812E-01
          2   -1    0    0  501    0  0.00000000000E+00  0.00000000000E+00  0.22988307407E+04  0.22988307407E+04  0.00000000000E+00 0. -1.
         -1   -1    0    0    0  501 -0.00000000000E+00 -0.00000000000E+00 -0.22755482024E+03  0.22755482024E+03  0.00000000000E+00 0.  1.
         24    2    1    2    0    0 -0.25938305743E+03 -0.30000326166E+02  0.13045382393E+04  0.13328546560E+04  0.80634521348E+02 0.  0.
        254    2    1    2    0    0  0.25938305743E+03  0.30000326166E+02  0.76673768112E+03  0.11935309050E+04  0.87661266212E+03 0.  0.
         23    2    4    4    0    0  0.37251306871E+03 -0.27468713664E+03  0.70814833305E+03  0.85104750440E+03  0.92675691257E+02 0.  0.
         23    2    4    4    0    0 -0.11313001129E+03  0.30468746281E+03  0.58589348070E+02  0.34248340056E+03  0.90715591303E+02 0.  0.
          2    1    3    3  502    0 -0.37116531723E+02 -0.30805969768E+02  0.31415270616E+03  0.31783418238E+03  0.00000000000E+00 0. -1.
         -1    1    3    3    0  502 -0.22226652570E+03  0.80564360163E+00  0.99038553314E+03  0.10150204736E+04  0.00000000000E+00 0.  1.
         11    1    5    5    0    0  0.27486319863E+03 -0.17187805434E+03  0.55178557270E+03  0.63996809433E+03  0.00000000000E+00 0.  1.
        -11    1    5    5    0    0  0.97649870084E+02 -0.10280908230E+03  0.15636276035E+03  0.21107941007E+03  0.00000000000E+00 0. -1.
          2    1    6    6  503    0 -0.10283526339E+02  0.81957214530E+02  0.50921914703E+02  0.97034928373E+02  0.00000000000E+00 0. -1.
         -2    1    6    6    0  503 -0.10284648495E+03  0.22273024828E+03  0.76674333677E+01  0.24544847218E+03  0.00000000000E+00 0.  1.
<mgrwt>
<rscale>  0 0.14465269E+04</rscale>
<asrwt>0</asrwt>
<pdfrwt beam="1">  1        2 0.35366625E+00 0.14465269E+04</pdfrwt>
<pdfrwt beam="2">  1       -1 0.35008435E-01 0.14465269E+04</pdfrwt>
<totfact> 0.38982418E+01</totfact>
</mgrwt>
</event>
<event>
12    6  0.1494052E-007  0.1218240E+04  0.7818608E-02  0.9097039E-01
          2   -1    0    0  501    0  0.00000000000E+00  0.00000000000E+00  0.48403943792E+03  0.48403943792E+03  0.00000000000E+00 0. -1.
         -1   -1    0    0    0  501 -0.00000000000E+00 -0.00000000000E+00 -0.76652295241E+03  0.76652295241E+03  0.00000000000E+00 0.  1.
         24    2    1    2    0    0 -0.23816701685E+03  0.11426757902E+03 -0.11689209702E+03  0.30025381557E+03  0.81902282571E+02 0.  0.
        254    2    1    2    0    0  0.23816701685E+03 -0.11426757902E+03 -0.16559141747E+03  0.95030857475E+03  0.89771112401E+03 0.  0.
         23    2    4    4    0    0 -0.30115322605E+03 -0.16487601554E+03 -0.18538488750E+03  0.40051977913E+03  0.90394529139E+02 0.  0.
         23    2    4    4    0    0  0.53932024290E+03  0.50608436522E+02  0.19793470030E+02  0.54978879562E+03  0.91915178737E+02 0.  0.
          2    1    3    3  502    0 -0.14808826548E+02 -0.12081166324E+01  0.10681411276E+02  0.18299000966E+02  0.00000000000E+00 0. -1.
         -1    1    3    3    0  502 -0.22335819031E+03  0.11547569565E+03 -0.12757350829E+03  0.28195481461E+03  0.00000000000E+00 0.  1.
         11    1    5    5    0    0 -0.30235768194E+03 -0.17177175773E+03 -0.18385161961E+03  0.39335368641E+03  0.00000000000E+00 0.  1.
        -11    1    5    5    0    0  0.12044558857E+01  0.68957421942E+01 -0.15332678911E+01  0.71660927161E+01  0.00000000000E+00 0. -1.
          4    1    6    6  503    0  0.71144554704E+02  0.17706077797E+02 -0.27006729084E+02  0.78130763921E+02  0.00000000000E+00 0. -1.
         -4    1    6    6    0  503  0.46817568820E+03  0.32902358725E+02  0.46800199114E+02  0.47165803170E+03  0.00000000000E+00 0.  1.
<mgrwt>
<rscale>  0 0.12182403E+04</rscale>
<asrwt>0</asrwt>
<pdfrwt beam="1">  1        2 0.74467606E-01 0.12182403E+04</pdfrwt>
<pdfrwt beam="2">  1       -1 0.11792661E+00 0.12182403E+04</pdfrwt>
<totfact> 0.46583996E+01</totfact>
</mgrwt>
</event>
<event>
12    6  0.1494052E-007  0.1981294E+04  0.7818608E-02  0.8615416E-01
          2   -1    0    0  501    0  0.00000000000E+00  0.00000000000E+00  0.29202422125E+04  0.29202422125E+04  0.00000000000E+00 0. -1.
         -1   -1    0    0    0  501 -0.00000000000E+00 -0.00000000000E+00 -0.33606181391E+03  0.33606181391E+03  0.00000000000E+00 0.  1.
         24    2    1    2    0    0 -0.71205615837E+03  0.59946046665E+02  0.48256293245E+03  0.86605647308E+03  0.81051401026E+02 0.  0.
        254    2    1    2    0    0  0.71205615837E+03 -0.59946046665E+02  0.21016174662E+04  0.23902475534E+04  0.88649302933E+03 0.  0.
         23    2    4    4    0    0  0.91204285359E+03 -0.47221129961E+02  0.17288744751E+04  0.19572381485E+04  0.87876147102E+02 0.  0.
         23    2    4    4    0    0 -0.19998669522E+03 -0.12724916704E+02  0.37274299103E+03  0.43300940487E+03  0.91669000065E+02 0.  0.
          4    1    3    3  502    0 -0.25458399459E+03  0.34739509014E+01  0.21388321258E+03  0.33252234099E+03  0.00000000000E+00 0. -1.
         -3    1    3    3    0  502 -0.45747216378E+03  0.56472095764E+02  0.26867971987E+03  0.53353413209E+03  0.00000000000E+00 0.  1.
         11    1    5    5    0    0  0.10002660525E+03 -0.20271719534E+02  0.24696399225E+03  0.26722177651E+03  0.00000000000E+00 0. -1.
        -11    1    5    5    0    0  0.81201624833E+03 -0.26949410427E+02  0.14819104829E+04  0.16900163720E+04  0.00000000000E+00 0.  1.
          4    1    6    6  503    0 -0.52749358769E+02  0.23105279618E+02  0.17272058070E+03  0.18206797575E+03  0.00000000000E+00 0. -1.
         -4    1    6    6    0  503 -0.14723733645E+03 -0.35830196322E+02  0.20002241033E+03  0.25094142912E+03  0.00000000000E+00 0.  1.
<mgrwt>
<rscale>  0 0.19812944E+04</rscale>
<asrwt>0</asrwt>
<pdfrwt beam="1">  1        2 0.44926802E+00 0.19812944E+04</pdfrwt>
<pdfrwt beam="2">  1       -1 0.51701820E-01 0.19812944E+04</pdfrwt>
<totfact> 0.78004738E+00</totfact>
</mgrwt>
</event>
<event>
12    6  0.1494052E-007  0.1784181E+04  0.7818608E-02  0.8714757E-01
         -1   -1    0    0    0  501 -0.00000000000E+00  0.00000000000E+00  0.37204015447E+03  0.37204015447E+03  0.00000000000E+00 0.  1.
          2   -1    0    0  501    0  0.00000000000E+00 -0.00000000000E+00 -0.21390845466E+04  0.21390845466E+04  0.00000000000E+00 0. -1.
         24    2    1    2    0    0  0.21862785662E+03  0.46650236955E+03 -0.12103570468E+04  0.13179597343E+04  0.81431444046E+02 0.  0.
        254    2    1    2    0    0 -0.21862785662E+03 -0.46650236955E+03 -0.55668734532E+03  0.11931649667E+04  0.92104247292E+03 0.  0.
         23    2    4    4    0    0  0.13994109761E+03 -0.28600029571E+02  0.18852369578E+03  0.25283251835E+03  0.89339946094E+02 0.  0.
         23    2    4    4    0    0 -0.35856895423E+03 -0.43790233997E+03 -0.74521104110E+03  0.94033244839E+03  0.92495748131E+02 0.  0.
          2    1    3    3  502    0  0.14601490232E+03  0.34750700881E+03 -0.79497843035E+03  0.87981371755E+03  0.00000000000E+00 0. -1.
         -1    1    3    3    0  502  0.72612954301E+02  0.11899536074E+03 -0.41537861647E+03  0.43814601679E+03  0.00000000000E+00 0.  1.
         11    1    5    5    0    0  0.55919129644E+02 -0.36540041134E+02  0.29965781092E+02  0.73212510561E+02  0.00000000000E+00 0. -1.
        -11    1    5    5    0    0  0.84021967971E+02  0.79400115633E+01  0.15855791469E+03  0.17962000778E+03  0.00000000000E+00 0.  1.
          3    1    6    6  503    0 -0.28263753296E+02 -0.77478189282E+01 -0.57149524338E+02  0.64225669172E+02  0.00000000000E+00 0. -1.
         -3    1    6    6    0  503 -0.33030520094E+03 -0.43015452105E+03 -0.68806151676E+03  0.87610677922E+03  0.00000000000E+00 0.  1.
<mgrwt>
<rscale>  0 0.17841809E+04</rscale>
<asrwt>0</asrwt>
<pdfrwt beam="1">  1        2 0.32908993E+00 0.17841809E+04</pdfrwt>
<pdfrwt beam="2">  1       -1 0.57236946E-01 0.17841809E+04</pdfrwt>
<totfact> 0.18593646E+01</totfact>
</mgrwt>
</event>
<event>
12    6  0.1494052E-007  0.1214919E+04  0.7818608E-02  0.9099897E-01
          2   -1    0    0  501    0  0.00000000000E+00  0.00000000000E+00  0.82733788589E+03  0.82733788589E+03  0.00000000000E+00 0. -1.
         -1   -1    0    0    0  501 -0.00000000000E+00 -0.00000000000E+00 -0.44601769135E+03  0.44601769135E+03  0.00000000000E+00 0.  1.
         24    2    1    2    0    0  0.17493117251E+02 -0.26053203584E+03  0.13219762716E+03  0.30359135677E+03  0.80675575160E+02 0.  0.
        254    2    1    2    0    0 -0.17493117251E+02  0.26053203584E+03  0.24912256738E+03  0.96976422047E+03  0.90010979268E+03 0.  0.
         23    2    4    4    0    0  0.29684321144E+03 -0.91048998963E+02  0.35209815516E+03  0.47887528161E+03  0.94565385179E+02 0.  0.
         23    2    4    4    0    0 -0.31433632870E+03  0.35158103480E+03 -0.10297558778E+03  0.49088893887E+03  0.89170774640E+02 0.  0.
          2    1    3    3  502    0  0.19745160776E+02 -0.43429947737E+02 -0.30376741141E+01  0.47804384720E+02  0.00000000000E+00 0. -1.
         -1    1    3    3    0  502 -0.22520435241E+01 -0.21710208810E+03  0.13523530127E+03  0.25578697205E+03  0.00000000000E+00 0.  1.
         11    1    5    5    0    0  0.55955596708E+02 -0.25532812886E+02  0.22682972764E+02  0.65555095837E+02  0.00000000000E+00 0.  1.
        -11    1    5    5    0    0  0.24088761474E+03 -0.65516186078E+02  0.32941518240E+03  0.41332018577E+03  0.00000000000E+00 0. -1.
          4    1    6    6  503    0 -0.14384290400E+03  0.16806851696E+03 -0.93652878202E+02  0.24022628711E+03  0.00000000000E+00 0. -1.
         -4    1    6    6    0  503 -0.17049342470E+03  0.18351251785E+03 -0.93227095792E+01  0.25066265176E+03  0.00000000000E+00 0.  1.
<mgrwt>
<rscale>  0 0.12149195E+04</rscale>
<asrwt>0</asrwt>
<pdfrwt beam="1">  1        2 0.12728275E+00 0.12149195E+04</pdfrwt>
<pdfrwt beam="2">  1       -1 0.68618106E-01 0.12149195E+04</pdfrwt>
<totfact> 0.79660635E+01</totfact>
</mgrwt>
</event>
<event>
12    6  0.1494052E-007  0.1022651E+04  0.7818608E-02  0.9284045E-01
         -1   -1    0    0    0  501 -0.00000000000E+00  0.00000000000E+00  0.84422083188E+02  0.84422083188E+02  0.00000000000E+00 0.  1.
          2   -1    0    0  501    0  0.00000000000E+00 -0.00000000000E+00 -0.30969809620E+04  0.30969809620E+04  0.00000000000E+00 0. -1.
         24    2    1    2    0    0 -0.25651196269E+02  0.30101341052E+02 -0.39220132010E+03  0.40233647769E+03  0.80552412705E+02 0.  0.
        254    2    1    2    0    0  0.25651196269E+02 -0.30101341052E+02 -0.26203575587E+04  0.27790665675E+04  0.92486386915E+03 0.  0.
         23    2    4    4    0    0 -0.14771824441E+03 -0.43560539741E+03 -0.11637624375E+04  0.12544003058E+04  0.87203063921E+02 0.  0.
         23    2    4    4    0    0  0.17336944068E+03  0.40550405636E+03 -0.14565951212E+04  0.15246662617E+04  0.91909518591E+02 0.  0.
          2    1    3    3  502    0 -0.38329306921E+02 -0.11077873367E+02 -0.26616681956E+03  0.26914054114E+03  0.00000000000E+00 0. -1.
         -1    1    3    3    0  502  0.12678110652E+02  0.41179214419E+02 -0.12603450054E+03  0.13319593656E+03  0.00000000000E+00 0.  1.
         11    1    5    5    0    0 -0.13493762181E+03 -0.42133922846E+03 -0.11453659317E+04  0.12278428339E+04  0.00000000000E+00 0.  1.
        -11    1    5    5    0    0 -0.12780622601E+02 -0.14266168954E+02 -0.18396505784E+02  0.26557471938E+02  0.00000000000E+00 0. -1.
          1    1    6    6  503    0  0.11263636458E+03  0.15034452411E+03 -0.63730539759E+03  0.66441598141E+03  0.00000000000E+00 0. -1.
         -1    1    6    6    0  503  0.60733076101E+02  0.25515953225E+03 -0.81928972366E+03  0.86025028028E+03  0.00000000000E+00 0.  1.
<mgrwt>
<rscale>  0 0.10226506E+04</rscale>
<asrwt>0</asrwt>
<pdfrwt beam="1">  1        2 0.47645867E+00 0.10226506E+04</pdfrwt>
<pdfrwt beam="2">  1       -1 0.12988011E-01 0.10226506E+04</pdfrwt>
<totfact> 0.73187388E+01</totfact>
</mgrwt>
</event>
<event>
12    6  0.1494052E-007  0.2539692E+04  0.7818608E-02  0.8388980E-01
         -1   -1    0    0    0  501 -0.00000000000E+00  0.00000000000E+00  0.82743709764E+03  0.82743709764E+03  0.00000000000E+00 0.  1.
          2   -1    0    0  501    0  0.00000000000E+00 -0.00000000000E+00 -0.19487985885E+04  0.19487985885E+04  0.00000000000E+00 0. -1.
         24    2    1    2    0    0  0.10849034445E+04  0.28165189136E+02 -0.25605626996E+03  0.11179597734E+04  0.80377109800E+02 0.  0.
        254    2    1    2    0    0 -0.10849034445E+04 -0.28165189136E+02 -0.86530522089E+03  0.16582759128E+04  0.90736823608E+03 0.  0.
         23    2    4    4    0    0 -0.54858148600E+03  0.36871765460E+03 -0.16625893646E+03  0.68767107998E+03  0.91406371139E+02 0.  0.
         23    2    4    4    0    0 -0.53632195847E+03 -0.39688284374E+03 -0.69904628443E+03  0.97060483279E+03  0.90833908102E+02 0.  0.
          4    1    3    3  502    0  0.82557337720E+03  0.19920449598E+01 -0.22344929558E+03  0.85528063060E+03  0.00000000000E+00 0. -1.
         -3    1    3    3    0  502  0.25933006727E+03  0.26173144176E+02 -0.32606974375E+02  0.26267914277E+03  0.00000000000E+00 0.  1.
         11    1    5    5    0    0 -0.40393671889E+03  0.31386445175E+03 -0.14366341914E+03  0.53133317697E+03  0.00000000000E+00 0.  1.
        -11    1    5    5    0    0 -0.14464476711E+03  0.54853202845E+02 -0.22595517313E+02  0.15633790301E+03  0.00000000000E+00 0. -1.
          3    1    6    6  503    0 -0.21633302803E+03 -0.18649179024E+03 -0.35645134092E+03  0.45676769291E+03  0.00000000000E+00 0. -1.
         -3    1    6    6    0  503 -0.31998893044E+03 -0.21039105349E+03 -0.34259494351E+03  0.51383713988E+03  0.00000000000E+00 0.  1.
<mgrwt>
<rscale>  0 0.25396915E+04</rscale>
<asrwt>0</asrwt>
<pdfrwt beam="1">  1        2 0.29981517E+00 0.25396915E+04</pdfrwt>
<pdfrwt beam="2">  1       -1 0.12729802E+00 0.25396915E+04</pdfrwt>
<totfact> 0.38586675E+00</totfact>
</mgrwt>
</event>
<event>
12    6  0.1494052E-007  0.1497982E+04  0.7818608E-02  0.8885796E-01
         -1   -1    0    0    0  501 -0.00000000000E+00  0.00000000000E+00  0.57175300958E+03  0.57175300958E+03  0.00000000000E+00 0.  1.
          2   -1    0    0  501    0  0.00000000000E+00 -0.00000000000E+00 -0.98117102310E+03  0.98117102310E+03  0.00000000000E+00 0. -1.
         24    2    1    2    0    0  0.25819839680E+03 -0.33484197929E+03 -0.34131854205E+03  0.54918340669E+03  0.79489017065E+02 0.  0.
        254    2    1    2    0    0 -0.25819839680E+03  0.33484197929E+03 -0.68099471472E+02  0.10037406260E+04  0.90778419410E+03 0.  0.
         23    2    4    4    0    0 -0.15222647232E+03  0.53872228161E+03  0.23423928414E+03  0.61327613942E+03  0.88571921988E+02 0.  0.
         23    2    4    4    0    0 -0.10597192448E+03 -0.20388030232E+03 -0.30233875562E+03  0.39046448658E+03  0.90865646301E+02 0.  0.
          4    1    3    3  502    0  0.52093683476E+02 -0.24291578180E+02 -0.48094826027E+02  0.74946280222E+02  0.00000000000E+00 0. -1.
         -3    1    3    3    0  502  0.20610471332E+03 -0.31055040111E+03 -0.29322371602E+03  0.47423712646E+03  0.00000000000E+00 0.  1.
         11    1    5    5    0    0  0.22985087503E+01  0.12667754614E+03  0.50522641948E+02  0.13640022430E+03  0.00000000000E+00 0. -1.
        -11    1    5    5    0    0 -0.15452498107E+03  0.41204473547E+03  0.18371664220E+03  0.47687591512E+03  0.00000000000E+00 0.  1.
          2    1    6    6  503    0 -0.55917172100E+02 -0.33429149191E+02 -0.51272602623E+02  0.82904269679E+02  0.00000000000E+00 0. -1.
         -2    1    6    6    0  503 -0.50054752376E+02 -0.17045115313E+03 -0.25106615299E+03  0.30756021690E+03  0.00000000000E+00 0.  1.
<mgrwt>
<rscale>  0 0.14979820E+04</rscale>
<asrwt>0</asrwt>
<pdfrwt beam="1">  1        2 0.15094939E+00 0.14979820E+04</pdfrwt>
<pdfrwt beam="2">  1       -1 0.87962002E-01 0.14979820E+04</pdfrwt>
<totfact> 0.36295441E+01</totfact>
</mgrwt>
</event>
<event>
12    6  0.1494052E-007  0.1878268E+04  0.7818608E-02  0.8665750E-01
         -1   -1    0    0    0  501 -0.00000000000E+00  0.00000000000E+00  0.16864491232E+04  0.16864491232E+04  0.00000000000E+00 0.  1.
          2   -1    0    0  501    0  0.00000000000E+00 -0.00000000000E+00 -0.52297624767E+03  0.52297624767E+03  0.00000000000E+00 0. -1.
         24    2    1    2    0    0  0.41316083706E+03 -0.53995878439E+03  0.16661529017E+03  0.70485291170E+03  0.82459724113E+02 0.  0.
        254    2    1    2    0    0 -0.41316083706E+03  0.53995878439E+03  0.99685758541E+03  0.15045724592E+04  0.89875239822E+03 0.  0.
         23    2    4    4    0    0 -0.14331299526E+03 -0.18094782436E+03  0.56646822842E+03  0.61819252616E+03  0.89414852426E+02 0.  0.
         23    2    4    4    0    0 -0.26984784180E+03  0.72090660875E+03  0.43038935699E+03  0.88637993305E+03  0.88939253697E+02 0.  0.
          2    1    3    3  502    0  0.36808375727E+03 -0.45720313274E+03  0.11756903316E+03  0.59861743586E+03  0.00000000000E+00 0. -1.
         -1    1    3    3    0  502  0.45077079788E+02 -0.82755651649E+02  0.49046257003E+02  0.10623547584E+03  0.00000000000E+00 0.  1.
         11    1    5    5    0    0 -0.11282954989E+02  0.36200741225E+01  0.55027540063E+01  0.13064850232E+02  0.00000000000E+00 0. -1.
        -11    1    5    5    0    0 -0.13203004027E+03 -0.18456789848E+03  0.56096547441E+03  0.60512767592E+03  0.00000000000E+00 0.  1.
          3    1    6    6  503    0 -0.10075683129E+03  0.37905640764E+03  0.24360625307E+03  0.46171387867E+03  0.00000000000E+00 0. -1.
         -3    1    6    6    0  503 -0.16909101051E+03  0.34185020111E+03  0.18678310392E+03  0.42466605438E+03  0.00000000000E+00 0.  1.
<mgrwt>
<rscale>  0 0.18782682E+04</rscale>
<asrwt>0</asrwt>
<pdfrwt beam="1">  1        2 0.80457885E-01 0.18782682E+04</pdfrwt>
<pdfrwt beam="2">  1       -1 0.25945371E+00 0.18782682E+04</pdfrwt>
<totfact> 0.37892217E+00</totfact>
</mgrwt>
</event>
<event>
12    6  0.1494052E-007  0.1651214E+04  0.7818608E-02  0.8789689E-01
         -1   -1    0    0    0  501 -0.00000000000E+00  0.00000000000E+00  0.18114889222E+03  0.18114889222E+03  0.00000000000E+00 0.  1.
          2   -1    0    0  501    0  0.00000000000E+00 -0.00000000000E+00 -0.37627992170E+04  0.37627992170E+04  0.00000000000E+00 0. -1.
         24    2    1    2    0    0  0.28649164499E+03 -0.41050392686E+03 -0.19464484431E+04  0.20113689513E+04  0.79703074013E+02 0.  0.
        254    2    1    2    0    0 -0.28649164499E+03  0.41050392686E+03 -0.16352018816E+04  0.19325791579E+04  0.90021445842E+03 0.  0.
         23    2    4    4    0    0 -0.31755438629E+03 -0.57173217151E+02 -0.13160554621E+04  0.13579701932E+04  0.89283263989E+02 0.  0.
         23    2    4    4    0    0  0.31062741299E+02  0.46767714401E+03 -0.31914641950E+03  0.57460896466E+03  0.92920505088E+02 0.  0.
          2    1    3    3  502    0  0.23926697205E+03 -0.36949581028E+03 -0.16066929018E+04  0.16659045346E+04  0.00000000000E+00 0. -1.
         -1    1    3    3    0  502  0.47224672943E+02 -0.41008116576E+02 -0.33975554131E+03  0.34546441670E+03  0.00000000000E+00 0.  1.
         11    1    5    5    0    0 -0.41738128548E+02  0.18132306943E+02 -0.12341086643E+03  0.13153362263E+03  0.00000000000E+00 0. -1.
        -11    1    5    5    0    0 -0.27581625774E+03 -0.75305524094E+02 -0.11926445957E+04  0.12264365706E+04  0.00000000000E+00 0.  1.
          1    1    6    6  503    0  0.29620395763E+02  0.61517179708E+02 -0.71691602540E+02  0.99002106640E+02  0.00000000000E+00 0. -1.
         -1    1    6    6    0  503  0.14423455367E+01  0.40615996430E+03 -0.24745481696E+03  0.47560685802E+03  0.00000000000E+00 0.  1.
<mgrwt>
<rscale>  0 0.16512140E+04</rscale>
<asrwt>0</asrwt>
<pdfrwt beam="1">  1        2 0.57889217E+00 0.16512140E+04</pdfrwt>
<pdfrwt beam="2">  1       -1 0.27869061E-01 0.16512140E+04</pdfrwt>
<totfact> 0.67128410E+00</totfact>
</mgrwt>
</event>
<event>
12    6  0.1494052E-007  0.1323492E+04  0.7818608E-02  0.9011140E-01
          2   -1    0    0  501    0  0.00000000000E+00  0.00000000000E+00  0.16717401287E+03  0.16717401287E+03  0.00000000000E+00 0. -1.
         -1   -1    0    0    0  501 -0.00000000000E+00 -0.00000000000E+00 -0.26194743890E+04  0.26194743890E+04  0.00000000000E+00 0.  1.
         24    2    1    2    0    0 -0.24542343158E+03  0.92147760895E+02 -0.11827869530E+04  0.12140448992E+04  0.78715758140E+02 0.  0.
        254    2    1    2    0    0  0.24542343158E+03 -0.92147760895E+02 -0.12695134232E+04  0.15726035027E+04  0.89033340632E+03 0.  0.
         23    2    4    4    0    0  0.80900350976E+01 -0.45346587684E+03 -0.47507584064E+03  0.66365855937E+03  0.95125595610E+02 0.  0.
         23    2    4    4    0    0  0.23733339648E+03  0.36131811595E+03 -0.79443758258E+03  0.90894494334E+03  0.90398647165E+02 0.  0.
          2    1    3    3  502    0 -0.59270252009E+02 -0.11394860560E+02 -0.23659400692E+03  0.24417110748E+03  0.00000000000E+00 0. -1.
         -1    1    3    3    0  502 -0.18615317957E+03  0.10354262146E+03 -0.94619294604E+03  0.96987379172E+03  0.00000000000E+00 0.  1.
         11    1    5    5    0    0  0.27972945882E+02 -0.14417966844E+03 -0.20743919839E+03  0.25416782550E+03  0.00000000000E+00 0.  1.
        -11    1    5    5    0    0 -0.19882910784E+02 -0.30928620840E+03 -0.26763664225E+03  0.40949073386E+03  0.00000000000E+00 0. -1.
          3    1    6    6  503    0  0.70332162301E+02  0.60796616531E+02 -0.22950516412E+03  0.24761959129E+03  0.00000000000E+00 0. -1.
         -3    1    6    6    0  503  0.16700123418E+03  0.30052149942E+03 -0.56493241847E+03  0.66132535205E+03  0.00000000000E+00 0.  1.
<mgrwt>
<rscale>  0 0.13234924E+04</rscale>
<asrwt>0</asrwt>
<pdfrwt beam="1">  1        2 0.25719080E-01 0.13234924E+04</pdfrwt>
<pdfrwt beam="2">  1       -1 0.40299605E+00 0.13234924E+04</pdfrwt>
<totfact> 0.16452850E+00</totfact>
</mgrwt>
</event>
<event>
12    6  0.1494052E-007  0.1732522E+04  0.7818608E-02  0.8743030E-01
         -1   -1    0    0    0  501 -0.00000000000E+00  0.00000000000E+00  0.79714650916E+03  0.79714650916E+03  0.00000000000E+00 0.  1.
          2   -1    0    0  501    0  0.00000000000E+00 -0.00000000000E+00 -0.94136830669E+03  0.94136830669E+03  0.00000000000E+00 0. -1.
         24    2    1    2    0    0 -0.17268461010E+03  0.10953315582E+03  0.54055042211E+03  0.58327569213E+03  0.78729202953E+02 0.  0.
        254    2    1    2    0    0  0.17268461010E+03 -0.10953315582E+03 -0.68477221963E+03  0.11552391237E+04  0.90766015304E+03 0.  0.
         23    2    4    4    0    0  0.51477700775E+03 -0.15847417064E+03 -0.27628615071E+03  0.61259186270E+03  0.93943188724E+02 0.  0.
         23    2    4    4    0    0 -0.34209239764E+03  0.48941014816E+02 -0.40848606892E+03  0.54264726102E+03  0.90458553723E+02 0.  0.
          4    1    3    3  502    0 -0.22431624607E+02  0.47313400731E+02  0.88096832974E+02  0.10248310910E+03  0.00000000000E+00 0. -1.
         -3    1    3    3    0  502 -0.15025298550E+03  0.62219755092E+02  0.45245358913E+03  0.48079258303E+03  0.00000000000E+00 0.  1.
         11    1    5    5    0    0  0.45704252136E+03 -0.10889300379E+03 -0.24904999725E+03  0.53176259152E+03  0.00000000000E+00 0.  1.
        -11    1    5    5    0    0  0.57734486380E+02 -0.49581166853E+02 -0.27236153460E+02  0.80829271179E+02  0.00000000000E+00 0. -1.
          2    1    6    6  503    0 -0.28366807061E+03  0.52009930118E+02 -0.38143937448E+03  0.47819306092E+03  0.00000000000E+00 0.  1.
         -2    1    6    6    0  503 -0.58424327033E+02 -0.30689153017E+01 -0.27046694439E+02  0.64454200100E+02  0.00000000000E+00 0. -1.
<mgrwt>
<rscale>  0 0.17325224E+04</rscale>
<asrwt>0</asrwt>
<pdfrwt beam="1">  1        2 0.14482589E+00 0.17325224E+04</pdfrwt>
<pdfrwt beam="2">  1       -1 0.12263792E+00 0.17325224E+04</pdfrwt>
<totfact> 0.17484889E+01</totfact>
</mgrwt>
</event>
<event>
12    6  0.1494052E-007  0.2066794E+04  0.7818608E-02  0.8576014E-01
          2   -1    0    0  501    0  0.00000000000E+00  0.00000000000E+00  0.23818970366E+04  0.23818970366E+04  0.00000000000E+00 0. -1.
         -1   -1    0    0    0  501 -0.00000000000E+00 -0.00000000000E+00 -0.44834384041E+03  0.44834384041E+03  0.00000000000E+00 0.  1.
         24    2    1    2    0    0 -0.51107256857E+02  0.76841950736E+03  0.46768526377E+03  0.90462279364E+03  0.80823275242E+02 0.  0.
        254    2    1    2    0    0  0.51107256857E+02 -0.76841950736E+03  0.14658679324E+04  0.19256180833E+04  0.98293220350E+03 0.  0.
         23    2    4    4    0    0  0.13563960924E+03 -0.81518065855E+03  0.54297423466E+03  0.99303684405E+03  0.91561697666E+02 0.  0.
         23    2    4    4    0    0 -0.84532352387E+02  0.46761151183E+02  0.92289369772E+03  0.93258123928E+03  0.92965943768E+02 0.  0.
          2    1    3    3  502    0  0.15228939783E+02  0.24880484041E+03  0.17502845613E+03  0.30458287816E+03  0.00000000000E+00 0. -1.
         -1    1    3    3    0  502 -0.66336196641E+02  0.51961466696E+03  0.29265680764E+03  0.60003991547E+03  0.00000000000E+00 0.  1.
         11    1    5    5    0    0  0.12577108344E+02 -0.95426940610E+01  0.52255605618E+01  0.16629887174E+02  0.00000000000E+00 0.  1.
        -11    1    5    5    0    0  0.12306250090E+03 -0.80563796449E+03  0.53774867410E+03  0.97640695688E+03  0.00000000000E+00 0. -1.
          4    1    6    6  503    0 -0.66591493094E+02  0.72192676177E+02  0.57789669618E+03  0.58618324856E+03  0.00000000000E+00 0. -1.
         -4    1    6    6    0  503 -0.17940859293E+02 -0.25431524994E+02  0.34499700155E+03  0.34639799072E+03  0.00000000000E+00 0.  1.
<mgrwt>
<rscale>  0 0.20667935E+04</rscale>
<asrwt>0</asrwt>
<pdfrwt beam="1">  1        2 0.36644569E+00 0.20667935E+04</pdfrwt>
<pdfrwt beam="2">  1       -1 0.68975977E-01 0.20667935E+04</pdfrwt>
<totfact> 0.91088439E+00</totfact>
</mgrwt>
</event>
<event>
12    6  0.1494052E-007  0.3212074E+04  0.7818608E-02  0.8185636E-01
          2   -1    0    0  501    0  0.00000000000E+00  0.00000000000E+00  0.15390941791E+04  0.15390941791E+04  0.00000000000E+00 0. -1.
         -1   -1    0    0    0  501 -0.00000000000E+00 -0.00000000000E+00 -0.16758913350E+04  0.16758913350E+04  0.00000000000E+00 0.  1.
         24    2    1    2    0    0  0.14213413846E+04 -0.32841170392E+03  0.18051652947E+03  0.14719489115E+04  0.77342110228E+02 0.  0.
        254    2    1    2    0    0 -0.14213413846E+04  0.32841170392E+03 -0.31731368545E+03  0.17430366026E+04  0.89967941188E+03 0.  0.
         23    2    4    4    0    0 -0.12575368625E+04  0.58954083216E+03 -0.23928850649E+03  0.14124276446E+04  0.93463942023E+02 0.  0.
         23    2    4    4    0    0 -0.16380452202E+03 -0.26112912824E+03 -0.78025178958E+02  0.33060895796E+03  0.90520779291E+02 0.  0.
          2    1    3    3  502    0  0.11872784247E+04 -0.28195659987E+03  0.17869701600E+03  0.12333135066E+04  0.00000000000E+00 0. -1.
         -1    1    3    3    0  502  0.23406295986E+03 -0.46455104057E+02  0.18195134686E+01  0.23863540496E+03  0.00000000000E+00 0.  1.
         11    1    5    5    0    0 -0.12272430000E+04  0.58625167281E+03 -0.22423537278E+03  0.13784403894E+04  0.00000000000E+00 0.  1.
        -11    1    5    5    0    0 -0.30293862562E+02  0.32891593592E+01 -0.15053133708E+02  0.33987255150E+02  0.00000000000E+00 0. -1.
          1    1    6    6  503    0 -0.17300414832E+03 -0.23500704906E+03 -0.61086113086E+02  0.29814469920E+03  0.00000000000E+00 0. -1.
         -1    1    6    6    0  503  0.91996263025E+01 -0.26122079177E+02 -0.16939065873E+02  0.32464258767E+02  0.00000000000E+00 0.  1.
<mgrwt>
<rscale>  0 0.32120738E+04</rscale>
<asrwt>0</asrwt>
<pdfrwt beam="1">  1        2 0.23678372E+00 0.32120738E+04</pdfrwt>
<pdfrwt beam="2">  1       -1 0.25782943E+00 0.32120738E+04</pdfrwt>
<totfact> 0.71621669E-01</totfact>
</mgrwt>
</event>
<event>
12    6  0.1494052E-007  0.1948542E+04  0.7818608E-02  0.8631064E-01
          2   -1    0    0  501    0  0.00000000000E+00  0.00000000000E+00  0.18098291899E+04  0.18098291899E+04  0.00000000000E+00 0. -1.
         -1   -1    0    0    0  501 -0.00000000000E+00 -0.00000000000E+00 -0.52447180153E+03  0.52447180153E+03  0.00000000000E+00 0.  1.
         24    2    1    2    0    0 -0.24579029605E+03 -0.72604025589E+03  0.43737234795E+03  0.88605545695E+03  0.79071987671E+02 0.  0.
        254    2    1    2    0    0  0.24579029605E+03  0.72604025589E+03  0.84798504039E+03  0.14482455345E+04  0.88926327740E+03 0.  0.
         23    2    4    4    0    0 -0.15391420553E+03  0.26781885970E+03 -0.82461225244E+02  0.33302497775E+03  0.93216188840E+02 0.  0.
         23    2    4    4    0    0  0.39970450157E+03  0.45822139619E+03  0.93044626564E+03  0.11152205567E+04  0.90863085754E+02 0.  0.
          2    1    3    3  502    0 -0.16885261335E+03 -0.56556999584E+03  0.36475184344E+03  0.69384762919E+03  0.00000000000E+00 0. -1.
         -1    1    3    3    0  502 -0.76937682693E+02 -0.16047026005E+03  0.72620504505E+02  0.19220782776E+03  0.00000000000E+00 0.  1.
         11    1    5    5    0    0 -0.10574484469E+03  0.20681787936E+03 -0.10072426250E+03  0.25318172221E+03  0.00000000000E+00 0.  1.
        -11    1    5    5    0    0 -0.48169360843E+02  0.61000980340E+02  0.18263037259E+02  0.79843255547E+02  0.00000000000E+00 0. -1.
          2    1    6    6  503    0  0.70075604435E+02  0.14029738444E+03  0.23366317318E+03  0.28141148683E+03  0.00000000000E+00 0. -1.
         -2    1    6    6    0  503  0.32962889714E+03  0.31792401176E+03  0.69678309245E+03  0.83380906988E+03  0.00000000000E+00 0.  1.
<mgrwt>
<rscale>  0 0.19485424E+04</rscale>
<asrwt>0</asrwt>
<pdfrwt beam="1">  1        2 0.27843526E+00 0.19485424E+04</pdfrwt>
<pdfrwt beam="2">  1       -1 0.80687970E-01 0.19485424E+04</pdfrwt>
<totfact> 0.13865250E+01</totfact>
</mgrwt>
</event>
<event>
12    6  0.1494052E-007  0.1626339E+04  0.7818608E-02  0.8804529E-01
          2   -1    0    0  501    0  0.00000000000E+00  0.00000000000E+00  0.23632332652E+04  0.23632332652E+04  0.00000000000E+00 0. -1.
         -1   -1    0    0    0  501 -0.00000000000E+00 -0.00000000000E+00 -0.27980498192E+03  0.27980498192E+03  0.00000000000E+00 0.  1.
         24    2    1    2    0    0  0.29241820061E+03  0.16180464346E+02  0.15092422236E+04  0.15396041463E+04  0.82453783224E+02 0.  0.
        254    2    1    2    0    0 -0.29241820061E+03 -0.16180464346E+02  0.57418605965E+03  0.11034341008E+04  0.89560424977E+03 0.  0.
         23    2    4    4    0    0 -0.34273713009E+03 -0.38425378102E+03  0.47977437663E+03  0.70957330844E+03  0.90504801108E+02 0.  0.
         23    2    4    4    0    0  0.50318929473E+02  0.36807331667E+03  0.94411683026E+02  0.39386079234E+03  0.90569292507E+02 0.  0.
          4    1    3    3  502    0  0.16066337445E+03  0.19122866977E+02  0.62538650577E+03  0.64597731038E+03  0.00000000000E+00 0. -1.
         -3    1    3    3    0  502  0.13175482616E+03 -0.29424026310E+01  0.88385571785E+03  0.89362683595E+03  0.00000000000E+00 0.  1.
         11    1    5    5    0    0 -0.13603454181E+03 -0.10341656099E+03  0.12190646875E+03  0.20990847714E+03  0.00000000000E+00 0.  1.
        -11    1    5    5    0    0 -0.20670258827E+03 -0.28083722002E+03  0.35786790788E+03  0.49966483130E+03  0.00000000000E+00 0. -1.
          1    1    6    6  503    0  0.31668836209E+02  0.19577080374E+03  0.39315340053E+01  0.19835468167E+03  0.00000000000E+00 0. -1.
         -1    1    6    6    0  503  0.18650093263E+02  0.17230251293E+03  0.90480149020E+02  0.19550611067E+03  0.00000000000E+00 0.  1.
<mgrwt>
<rscale>  0 0.16263388E+04</rscale>
<asrwt>0</asrwt>
<pdfrwt beam="1">  1        2 0.36357434E+00 0.16263388E+04</pdfrwt>
<pdfrwt beam="2">  1       -1 0.43046922E-01 0.16263388E+04</pdfrwt>
<totfact> 0.24224329E+01</totfact>
</mgrwt>
</event>
<event>
12    6  0.1494052E-007  0.3859248E+04  0.7818608E-02  0.8033559E-01
          2   -1    0    0  501    0  0.00000000000E+00  0.00000000000E+00  0.22112250476E+04  0.22112250476E+04  0.00000000000E+00 0. -1.
         -1   -1    0    0    0  501 -0.00000000000E+00 -0.00000000000E+00 -0.16838849151E+04  0.16838849151E+04  0.00000000000E+00 0.  1.
         24    2    1    2    0    0 -0.14096735549E+03 -0.76739276364E+03  0.19132919618E+04  0.20679034416E+04  0.82310776262E+02 0.  0.
        254    2    1    2    0    0  0.14096735549E+03  0.76739276364E+03 -0.13859518293E+04  0.18272065211E+04  0.89947637461E+03 0.  0.
         23    2    4    4    0    0 -0.12523878839E+03  0.55730113311E+03 -0.13558127331E+04  0.14740381191E+04  0.91054391879E+02 0.  0.
         23    2    4    4    0    0  0.26620614388E+03  0.21009163053E+03 -0.30139096232E+02  0.35316840198E+03  0.93890099438E+02 0.  0.
          2    1    3    3  502    0 -0.57913175820E+02 -0.50630502446E+03  0.11944037406E+04  0.12985757619E+04  0.00000000000E+00 0. -1.
         -3    1    3    3    0  502 -0.83054179671E+02 -0.26108773918E+03  0.71888822115E+03  0.76932767975E+03  0.00000000000E+00 0.  1.
         11    1    5    5    0    0 -0.13421007018E+03  0.42257739699E+03 -0.10432710156E+04  0.11335777041E+04  0.00000000000E+00 0. -1.
        -11    1    5    5    0    0  0.89712817817E+01  0.13472373612E+03 -0.31254171753E+03  0.34046041498E+03  0.00000000000E+00 0.  1.
          2    1    6    6  503    0  0.25534963331E+03  0.17451752170E+03 -0.46078977306E+02  0.31270285058E+03  0.00000000000E+00 0. -1.
         -2    1    6    6    0  503  0.10856510570E+02  0.35574108831E+02  0.15939881074E+02  0.40465551393E+02  0.00000000000E+00 0.  1.
<mgrwt>
<rscale>  0 0.38592479E+04</rscale>
<asrwt>0</asrwt>
<pdfrwt beam="1">  1        2 0.34018847E+00 0.38592479E+04</pdfrwt>
<pdfrwt beam="2">  1       -1 0.25905922E+00 0.38592479E+04</pdfrwt>
<totfact> 0.28101689E-01</totfact>
</mgrwt>
</event>
<event>
12    6  0.1494052E-007  0.1700795E+04  0.7818608E-02  0.8760911E-01
          2   -1    0    0  501    0  0.00000000000E+00  0.00000000000E+00  0.82048466142E+03  0.82048466142E+03  0.00000000000E+00 0. -1.
         -1   -1    0    0    0  501 -0.00000000000E+00 -0.00000000000E+00 -0.88140110335E+03  0.88140110335E+03  0.00000000000E+00 0.  1.
         24    2    1    2    0    0  0.58987875720E+03  0.11301230388E+03 -0.99490630892E+02  0.61387167376E+03  0.78811910198E+02 0.  0.
        254    2    1    2    0    0 -0.58987875720E+03 -0.11301230388E+03  0.38574188963E+02  0.10880140910E+04  0.90639834794E+03 0.  0.
         23    2    4    4    0    0 -0.25873503767E+03 -0.33767889257E+02 -0.42404545759E+03  0.50659611933E+03  0.93493250855E+02 0.  0.
         23    2    4    4    0    0 -0.33114371953E+03 -0.79244414618E+02  0.46261964655E+03  0.58141797167E+03  0.89967106104E+02 0.  0.
          2    1    3    3  502    0  0.33608156006E+03  0.31055341794E+02 -0.33820118356E+02  0.33920355197E+03  0.00000000000E+00 0. -1.
         -1    1    3    3    0  502  0.25379719714E+03  0.81956962081E+02 -0.65670512536E+02  0.27466812178E+03  0.00000000000E+00 0.  1.
         11    1    5    5    0    0 -0.17547315769E+03 -0.66432625307E+02 -0.29364297103E+03  0.34846853116E+03  0.00000000000E+00 0. -1.
        -11    1    5    5    0    0 -0.83261879979E+02  0.32664736050E+02 -0.13040248656E+03  0.15812758817E+03  0.00000000000E+00 0.  1.
          2    1    6    6  503    0 -0.23695066595E+03 -0.16856794422E+02  0.28646054492E+03  0.37214165772E+03  0.00000000000E+00 0. -1.
         -2    1    6    6    0  503 -0.94193053570E+02 -0.62387620196E+02  0.17615910163E+03  0.20927631395E+03  0.00000000000E+00 0.  1.
<mgrwt>
<rscale>  0 0.17007952E+04</rscale>
<asrwt>0</asrwt>
<pdfrwt beam="1">  1        2 0.12622841E+00 0.17007952E+04</pdfrwt>
<pdfrwt beam="2">  1       -1 0.13560017E+00 0.17007952E+04</pdfrwt>
<totfact> 0.16473550E+01</totfact>
</mgrwt>
</event>
<event>
12    6  0.1494052E-007  0.3321619E+04  0.7818608E-02  0.8157416E-01
         -1   -1    0    0    0  501 -0.00000000000E+00  0.00000000000E+00  0.13465859390E+04  0.13465859390E+04  0.00000000000E+00 0.  1.
          2   -1    0    0  501    0  0.00000000000E+00 -0.00000000000E+00 -0.20483565118E+04  0.20483565118E+04  0.00000000000E+00 0. -1.
         24    2    1    2    0    0  0.75912649687E+03 -0.13238463108E+04 -0.51945572011E+03  0.16139229532E+04  0.77916369754E+02 0.  0.
        254    2    1    2    0    0 -0.75912649687E+03  0.13238463108E+04 -0.18231485261E+03  0.17810194976E+04  0.89997202871E+03 0.  0.
         23    2    4    4    0    0 -0.22519694608E+02 -0.33667301695E+02 -0.20693118025E+03  0.23327878973E+03  0.99789060166E+02 0.  0.
         23    2    4    4    0    0 -0.73660680226E+03  0.13575136125E+04  0.24616327641E+02  0.15477407079E+04  0.97275618422E+02 0.  0.
          4    1    3    3  502    0  0.92232417873E+02 -0.13089614294E+03 -0.35085736305E+02  0.16392567839E+03  0.00000000000E+00 0. -1.
         -3    1    3    3    0  502  0.66689407900E+03 -0.11929501679E+04 -0.48436998381E+03  0.14499972748E+04  0.00000000000E+00 0.  1.
         11    1    5    5    0    0  0.36481845235E+02 -0.10611777553E+02 -0.11891513185E+03  0.12483726782E+03  0.00000000000E+00 0.  1.
        -11    1    5    5    0    0 -0.59001539843E+02 -0.23055524142E+02 -0.88016048402E+02  0.10844152191E+03  0.00000000000E+00 0. -1.
          1    1    6    6  503    0 -0.10324505317E+03  0.14328228148E+03 -0.18500203473E+02  0.17757142427E+03  0.00000000000E+00 0. -1.
         -1    1    6    6    0  503 -0.63336174909E+03  0.12142313311E+04  0.43116531114E+02  0.13701692836E+04  0.00000000000E+00 0.  1.
<mgrwt>
<rscale>  0 0.33216189E+04</rscale>
<asrwt>0</asrwt>
<pdfrwt beam="1">  1        2 0.31513177E+00 0.33216189E+04</pdfrwt>
<pdfrwt beam="2">  1       -1 0.20716707E+00 0.33216189E+04</pdfrwt>
<totfact> 0.80024043E-01</totfact>
</mgrwt>
</event>
<event>
12    6  0.1494052E-007  0.1514443E+04  0.7818608E-02  0.8874905E-01
          2   -1    0    0  501    0  0.00000000000E+00  0.00000000000E+00  0.30618431075E+04  0.30618431075E+04  0.00000000000E+00 0. -1.
         -1   -1    0    0    0  501 -0.00000000000E+00 -0.00000000000E+00 -0.18726782066E+03  0.18726782066E+03  0.00000000000E+00 0.  1.
         24    2    1    2    0    0  0.27979144367E+03 -0.13879889045E+03  0.13002263036E+03  0.34740703168E+03  0.78977068281E+02 0.  0.
        254    2    1    2    0    0 -0.27979144367E+03  0.13879889045E+03  0.27445526565E+04  0.29017038965E+04  0.88868882893E+03 0.  0.
         23    2    4    4    0    0 -0.34856810281E+03 -0.27351059170E+03  0.88845035605E+03  0.99693123820E+03  0.90664725591E+02 0.  0.
         23    2    4    4    0    0  0.68776659141E+02  0.41230948215E+03  0.18561023004E+04  0.19047726583E+04  0.91179998435E+02 0.  0.
          4    1    3    3  502    0  0.72459614971E+02 -0.73500653986E+02  0.58125661036E+02  0.11845393370E+03  0.00000000000E+00 0. -1.
         -3    1    3    3    0  502  0.20733182870E+03 -0.65298236467E+02  0.71896969320E+02  0.22895309798E+03  0.00000000000E+00 0.  1.
         11    1    5    5    0    0 -0.80914929749E+02 -0.50436558908E+02  0.27989592231E+03  0.29569037802E+03  0.00000000000E+00 0.  1.
        -11    1    5    5    0    0 -0.26765317306E+03 -0.22307403279E+03  0.60855443374E+03  0.70124086018E+03  0.00000000000E+00 0. -1.
          2    1    6    6  503    0  0.11865030526E+02  0.30564949079E+03  0.12678525070E+04  0.13042286493E+04  0.00000000000E+00 0. -1.
         -2    1    6    6    0  503  0.56911628615E+02  0.10665999136E+03  0.58824979347E+03  0.60054400900E+03  0.00000000000E+00 0.  1.
<mgrwt>
<rscale>  0 0.15144434E+04</rscale>
<asrwt>0</asrwt>
<pdfrwt beam="1">  1        2 0.47105275E+00 0.15144434E+04</pdfrwt>
<pdfrwt beam="2">  1       -1 0.28810436E-01 0.15144434E+04</pdfrwt>
<totfact> 0.19310519E+01</totfact>
</mgrwt>
</event>
<event>
12    6  0.1494052E-007  0.1353086E+04  0.7818608E-02  0.8988495E-01
          2   -1    0    0  501    0  0.00000000000E+00  0.00000000000E+00  0.58889654301E+03  0.58889654301E+03  0.00000000000E+00 0. -1.
         -1   -1    0    0    0  501 -0.00000000000E+00 -0.00000000000E+00 -0.77723399658E+03  0.77723399658E+03  0.00000000000E+00 0.  1.
         24    2    1    2    0    0  0.25720487968E+03 -0.15285539063E+03  0.17263921553E+03  0.35460931569E+03  0.80152027175E+02 0.  0.
        254    2    1    2    0    0 -0.25720487968E+03  0.15285539063E+03 -0.36097666910E+03  0.10115212239E+04  0.89629900713E+03 0.  0.
         23    2    4    4    0    0 -0.17417395969E+03 -0.36209619794E+03 -0.11109408856E+03  0.42621724290E+03  0.88707479033E+02 0.  0.
         23    2    4    4    0    0 -0.83030919989E+02  0.51495158856E+03 -0.24988258054E+03  0.58530398100E+03  0.89834146496E+02 0.  0.
          2    1    3    3  502    0  0.26328535700E+03 -0.14988308380E+03  0.16945150779E+03  0.34712811973E+03  0.00000000000E+00 0. -1.
         -1    1    3    3    0  502 -0.60804773172E+01 -0.29723068246E+01  0.31877077443E+01  0.74811959557E+01  0.00000000000E+00 0.  1.
         11    1    5    5    0    0 -0.15596616763E+03 -0.35387352083E+03 -0.11917560962E+03  0.40466620827E+03  0.00000000000E+00 0.  1.
        -11    1    5    5    0    0 -0.18207792066E+02 -0.82226771088E+01  0.80815210669E+01  0.21551034627E+02  0.00000000000E+00 0. -1.
          3    1    6    6  503    0 -0.36754975839E+02  0.11194216625E+03 -0.21473562007E+02  0.11976264317E+03  0.00000000000E+00 0. -1.
         -3    1    6    6    0  503 -0.46275944150E+02  0.40300942232E+03 -0.22840901853E+03  0.46554133783E+03  0.00000000000E+00 0.  1.
<mgrwt>
<rscale>  0 0.13530860E+04</rscale>
<asrwt>0</asrwt>
<pdfrwt beam="1">  1        2 0.90599469E-01 0.13530860E+04</pdfrwt>
<pdfrwt beam="2">  1       -1 0.11957446E+00 0.13530860E+04</pdfrwt>
<totfact> 0.35371381E+01</totfact>
</mgrwt>
</event>
<event>
12    6  0.1494052E-007  0.1828152E+04  0.7818608E-02  0.8691470E-01
         -1   -1    0    0    0  501 -0.00000000000E+00  0.00000000000E+00  0.69705783007E+03  0.69705783007E+03  0.00000000000E+00 0.  1.
          2   -1    0    0  501    0  0.00000000000E+00 -0.00000000000E+00 -0.11986598142E+04  0.11986598142E+04  0.00000000000E+00 0. -1.
         24    2    1    2    0    0 -0.49329599895E+03  0.68822287740E+00 -0.69053438246E+03  0.85235130246E+03  0.79521023750E+02 0.  0.
        254    2    1    2    0    0  0.49329599895E+03 -0.68822287740E+00  0.18893239837E+03  0.10433663418E+04  0.89976466687E+03 0.  0.
         23    2    4    4    0    0  0.31858687715E+03 -0.40977388208E+03  0.25387480341E+03  0.58482460783E+03  0.90305998655E+02 0.  0.
         23    2    4    4    0    0  0.17470912180E+03  0.40908565920E+03 -0.64942405038E+02  0.45854173394E+03  0.90380595194E+02 0.  0.
          4    1    3    3  502    0 -0.33762977643E+03 -0.23658839120E+02 -0.51727527757E+03  0.61816447600E+03  0.00000000000E+00 0. -1.
         -3    1    3    3    0  502 -0.15566622252E+03  0.24347061998E+02 -0.17325910489E+03  0.23418682646E+03  0.00000000000E+00 0.  1.
         11    1    5    5    0    0  0.64235029097E+02 -0.65545213617E+02  0.10260407985E+02  0.92344950935E+02  0.00000000000E+00 0.  1.
        -11    1    5    5    0    0  0.25435184805E+03 -0.34422866846E+03  0.24361439542E+03  0.49247965689E+03  0.00000000000E+00 0. -1.
          4    1    6    6  503    0  0.17297007804E+03  0.34562937466E+03 -0.34187814666E+02  0.38800401956E+03  0.00000000000E+00 0. -1.
         -4    1    6    6    0  503  0.17390437684E+01  0.63456284541E+02 -0.30754590373E+02  0.70537714380E+02  0.00000000000E+00 0.  1.
<mgrwt>
<rscale>  0 0.18281523E+04</rscale>
<asrwt>0</asrwt>
<pdfrwt beam="1">  1        2 0.18440920E+00 0.18281523E+04</pdfrwt>
<pdfrwt beam="2">  1       -1 0.10723967E+00 0.18281523E+04</pdfrwt>
<totfact> 0.16517003E+01</totfact>
</mgrwt>
</event>
<event>
12    6  0.1494052E-007  0.1777534E+04  0.7818608E-02  0.8718339E-01
         -1   -1    0    0    0  501 -0.00000000000E+00  0.00000000000E+00  0.15381409925E+03  0.15381409925E+03  0.00000000000E+00 0.  1.
          2   -1    0    0  501    0  0.00000000000E+00 -0.00000000000E+00 -0.51354644275E+04  0.51354644275E+04  0.00000000000E+00 0. -1.
         24    2    1    2    0    0  0.51432953169E+03 -0.31141965959E+03 -0.10400045178E+04  0.12040191541E+04  0.80843397023E+02 0.  0.
        254    2    1    2    0    0 -0.51432953169E+03  0.31141965959E+03 -0.39416458104E+04  0.40852593727E+04  0.88952536520E+03 0.  0.
         23    2    4    4    0    0 -0.85257709150E+02  0.21460776757E+03 -0.32562543909E+04  0.32656876925E+04  0.90543228649E+02 0.  0.
         23    2    4    4    0    0 -0.42907182254E+03  0.96811892018E+02 -0.68539141957E+03  0.81957168011E+03  0.91984615513E+02 0.  0.
          2    1    3    3  502    0  0.69786313123E+02 -0.30957593247E+02 -0.18819853581E+03  0.20309404462E+03  0.00000000000E+00 0. -1.
         -1    1    3    3    0  502  0.44454321857E+03 -0.28046206634E+03 -0.85180598204E+03  0.10009251095E+04  0.00000000000E+00 0.  1.
         11    1    5    5    0    0 -0.11613653609E+02  0.12167089336E+03 -0.12598418210E+04  0.12657567291E+04  0.00000000000E+00 0.  1.
        -11    1    5    5    0    0 -0.73644055541E+02  0.92936874212E+02 -0.19964125699E+04  0.19999309635E+04  0.00000000000E+00 0. -1.
          2    1    6    6  503    0 -0.23380416328E+03  0.15766246746E+02 -0.41186923181E+03  0.47386625267E+03  0.00000000000E+00 0.  1.
         -2    1    6    6    0  503 -0.19526765926E+03  0.81045645272E+02 -0.27352218776E+03  0.34570542745E+03  0.00000000000E+00 0. -1.
<mgrwt>
<rscale>  0 0.17775341E+04</rscale>
<asrwt>0</asrwt>
<pdfrwt beam="1">  1        2 0.79007145E+00 0.17775341E+04</pdfrwt>
<pdfrwt beam="2">  1       -1 0.23663708E-01 0.17775341E+04</pdfrwt>
<totfact> 0.39176059E-01</totfact>
</mgrwt>
</event>
<event>
12    6  0.1494052E-007  0.1735011E+04  0.7818608E-02  0.8741644E-01
          2   -1    0    0  501    0  0.00000000000E+00  0.00000000000E+00  0.18855500424E+04  0.18855500424E+04  0.00000000000E+00 0. -1.
         -1   -1    0    0    0  501 -0.00000000000E+00 -0.00000000000E+00 -0.39912284169E+03  0.39912284169E+03  0.00000000000E+00 0.  1.
         24    2    1    2    0    0 -0.53486244118E+03  0.23693169188E+03  0.84608471141E+03  0.10317383025E+04  0.80063276798E+02 0.  0.
        254    2    1    2    0    0  0.53486244118E+03 -0.23693169188E+03  0.64034248932E+03  0.12529345817E+04  0.90420799856E+03 0.  0.
         23    2    4    4    0    0  0.37175739500E+03  0.30418072476E+03  0.39629998840E+03  0.63044284763E+03  0.98361726678E+02 0.  0.
         23    2    4    4    0    0  0.16310504619E+03 -0.54111241664E+03  0.24404250093E+03  0.62249173402E+03  0.92375933736E+02 0.  0.
          2    1    3    3  502    0 -0.16907187411E+03  0.94688160093E+02  0.22392895579E+03  0.29613396212E+03  0.00000000000E+00 0. -1.
         -1    1    3    3    0  502 -0.36579056708E+03  0.14224353179E+03  0.62215575562E+03  0.73560434035E+03  0.00000000000E+00 0.  1.
         11    1    5    5    0    0  0.20510461218E+03  0.20410981580E+03  0.28644150456E+03  0.40715777577E+03  0.00000000000E+00 0.  1.
        -11    1    5    5    0    0  0.16665278282E+03  0.10007090897E+03  0.10985848384E+03  0.22328507186E+03  0.00000000000E+00 0. -1.
          1    1    6    6  503    0  0.51789565279E+02 -0.11541215673E+03  0.17876000717E+02  0.12775631645E+03  0.00000000000E+00 0. -1.
         -1    1    6    6    0  503  0.11131548091E+03 -0.42570025991E+03  0.22616650021E+03  0.49473541757E+03  0.00000000000E+00 0.  1.
<mgrwt>
<rscale>  0 0.17350113E+04</rscale>
<asrwt>0</asrwt>
<pdfrwt beam="1">  1        2 0.29008462E+00 0.17350113E+04</pdfrwt>
<pdfrwt beam="2">  1       -1 0.61403515E-01 0.17350113E+04</pdfrwt>
<totfact> 0.22488634E+01</totfact>
</mgrwt>
</event>
<event>
12    6  0.1494052E-007  0.1744006E+04  0.7818608E-02  0.8736657E-01
         -1   -1    0    0    0  501 -0.00000000000E+00  0.00000000000E+00  0.42042786515E+03  0.42042786515E+03  0.00000000000E+00 0.  1.
          2   -1    0    0  501    0  0.00000000000E+00 -0.00000000000E+00 -0.18086073053E+04  0.18086073053E+04  0.00000000000E+00 0. -1.
         24    2    1    2    0    0 -0.38021127308E+03  0.24811627215E+03  0.57650456282E+02  0.46549055173E+03  0.85062224030E+02 0.  0.
        254    2    1    2    0    0  0.38021127308E+03 -0.24811627215E+03 -0.14458298964E+04  0.17635446187E+04  0.90196631654E+03 0.  0.
         23    2    4    4    0    0  0.46346497268E+03  0.21391906783E+03 -0.89298423572E+03  0.10325529901E+04  0.90463714108E+02 0.  0.
         23    2    4    4    0    0 -0.83253699608E+02 -0.46203533998E+03 -0.55284566072E+03  0.73099162867E+03  0.91118618930E+02 0.  0.
          4    1    3    3  502    0 -0.17543290408E+03  0.13565452998E+03  0.67038795191E+02  0.23167445996E+03  0.00000000000E+00 0. -1.
         -3    1    3    3    0  502 -0.20477836900E+03  0.11246174218E+03 -0.93883389088E+01  0.23381609177E+03  0.00000000000E+00 0.  1.
         11    1    5    5    0    0  0.18563386426E+03  0.10144588121E+03 -0.28750833248E+03  0.35694851116E+03  0.00000000000E+00 0.  1.
        -11    1    5    5    0    0  0.27783110843E+03  0.11247318662E+03 -0.60547590325E+03  0.67560447892E+03  0.00000000000E+00 0. -1.
          4    1    6    6  503    0 -0.98590645349E+02 -0.31833949773E+03 -0.40026348560E+03  0.52083683536E+03  0.00000000000E+00 0. -1.
         -4    1    6    6    0  503  0.15336945740E+02 -0.14369584226E+03 -0.15258217512E+03  0.21015479331E+03  0.00000000000E+00 0.  1.
<mgrwt>
<rscale>  0 0.17440056E+04</rscale>
<asrwt>0</asrwt>
<pdfrwt beam="1">  1        2 0.27824729E+00 0.17440056E+04</pdfrwt>
<pdfrwt beam="2">  1       -1 0.64681208E-01 0.17440056E+04</pdfrwt>
<totfact> 0.22340040E+01</totfact>
</mgrwt>
</event>
<event>
12    6  0.1494052E-007  0.2065116E+04  0.7818608E-02  0.8576768E-01
         -1   -1    0    0    0  501 -0.00000000000E+00  0.00000000000E+00  0.75859044176E+03  0.75859044176E+03  0.00000000000E+00 0.  1.
          2   -1    0    0  501    0  0.00000000000E+00 -0.00000000000E+00 -0.14054693880E+04  0.14054693880E+04  0.00000000000E+00 0. -1.
         24    2    1    2    0    0 -0.47180596618E+02  0.78605698660E+03 -0.56554498312E+03  0.97275985981E+03  0.79429352485E+02 0.  0.
        254    2    1    2    0    0  0.47180596618E+02 -0.78605698660E+03 -0.81333963124E+02  0.11912999700E+04  0.89020717250E+03 0.  0.
         23    2    4    4    0    0 -0.18522281231E+03 -0.83105940441E+03 -0.24194825160E+03  0.88988988188E+03  0.91639628765E+02 0.  0.
         23    2    4    4    0    0  0.23240340893E+03  0.45002417807E+02  0.16061428848E+03  0.30141008808E+03  0.94944875797E+02 0.  0.
          2    1    3    3  502    0 -0.56084171130E+02  0.76572903726E+03 -0.55867542108E+03  0.94952862983E+03  0.00000000000E+00 0. -1.
         -1    1    3    3    0  502  0.89035745123E+01  0.20327949338E+02 -0.68695620457E+01  0.23231229974E+02  0.00000000000E+00 0.  1.
         11    1    5    5    0    0 -0.45459946561E+01 -0.14970381770E+03 -0.63986751094E+02  0.16286866923E+03  0.00000000000E+00 0. -1.
        -11    1    5    5    0    0 -0.18067681766E+03 -0.68135558671E+03 -0.17796150051E+03  0.72702121265E+03  0.00000000000E+00 0.  1.
          3    1    6    6  503    0  0.23641010059E+02  0.19256141164E+01  0.62313867095E+02  0.66675508087E+02  0.00000000000E+00 0. -1.
         -3    1    6    6    0  503  0.20876239887E+03  0.43076803691E+02  0.98300421382E+02  0.23473457999E+03  0.00000000000E+00 0.  1.
<mgrwt>
<rscale>  0 0.20651156E+04</rscale>
<asrwt>0</asrwt>
<pdfrwt beam="1">  1        2 0.21622606E+00 0.20651156E+04</pdfrwt>
<pdfrwt beam="2">  1       -1 0.11670622E+00 0.20651156E+04</pdfrwt>
<totfact> 0.10023951E+01</totfact>
</mgrwt>
</event>
<event>
12    6  0.1494052E-007  0.2237110E+04  0.7818608E-02  0.8503139E-01
         -1   -1    0    0    0  501 -0.00000000000E+00  0.00000000000E+00  0.13495214124E+04  0.13495214124E+04  0.00000000000E+00 0.  1.
          2   -1    0    0  501    0  0.00000000000E+00 -0.00000000000E+00 -0.92711793370E+03  0.92711793370E+03  0.00000000000E+00 0. -1.
         24    2    1    2    0    0 -0.11483377829E+03  0.57839868260E+03 -0.55966782977E+03  0.81694710741E+03  0.80266206899E+02 0.  0.
        254    2    1    2    0    0  0.11483377829E+03 -0.57839868260E+03  0.98207130850E+03  0.14596922387E+04  0.90471296230E+03 0.  0.
         23    2    4    4    0    0  0.40243255657E+03 -0.48015010778E+03  0.94994317331E+03  0.11409853080E+04  0.83422730906E+02 0.  0.
         23    2    4    4    0    0 -0.28759877828E+03 -0.98248574811E+02  0.32128135190E+02  0.31870693070E+03  0.90421517799E+02 0.  0.
          2    1    3    3  502    0 -0.11695582234E+03  0.43854656413E+03 -0.40349543031E+03  0.60729755110E+03  0.00000000000E+00 0. -1.
         -1    1    3    3    0  502  0.21220440545E+01  0.13985211846E+03 -0.15617239946E+03  0.20964955631E+03  0.00000000000E+00 0.  1.
         11    1    5    5    0    0  0.15238189385E+02 -0.18596481703E+02  0.74439246680E+02  0.78225526484E+02  0.00000000000E+00 0. -1.
        -11    1    5    5    0    0  0.38719436718E+03 -0.46155362608E+03  0.87550392663E+03  0.10627597815E+04  0.00000000000E+00 0.  1.
          4    1    6    6  503    0 -0.20239785280E+03 -0.40388762969E+02 -0.11832088415E+02  0.20672721472E+03  0.00000000000E+00 0. -1.
         -4    1    6    6    0  503 -0.85200925485E+02 -0.57859811842E+02  0.43960223604E+02  0.11197971597E+03  0.00000000000E+00 0.  1.
<mgrwt>
<rscale>  0 0.22371102E+04</rscale>
<asrwt>0</asrwt>
<pdfrwt beam="1">  1        2 0.14263353E+00 0.22371102E+04</pdfrwt>
<pdfrwt beam="2">  1       -1 0.20761868E+00 0.22371102E+04</pdfrwt>
<totfact> 0.38994004E+00</totfact>
</mgrwt>
</event>
<event>
12    6  0.1494052E-007  0.1499109E+04  0.7818608E-02  0.8885046E-01
          2   -1    0    0  501    0  0.00000000000E+00  0.00000000000E+00  0.84060434544E+03  0.84060434544E+03  0.00000000000E+00 0. -1.
         -1   -1    0    0    0  501 -0.00000000000E+00 -0.00000000000E+00 -0.66836632955E+03  0.66836632955E+03  0.00000000000E+00 0.  1.
         24    2    1    2    0    0 -0.21459938467E+03 -0.28711935816E+03  0.36300429330E+03  0.51622929878E+03  0.78931300737E+02 0.  0.
        254    2    1    2    0    0  0.21459938467E+03  0.28711935816E+03 -0.19076627742E+03  0.99274137620E+03  0.90589913660E+03 0.  0.
         23    2    4    4    0    0 -0.24976789406E+03  0.15709595897E+03 -0.35921617085E+03  0.47383322359E+03  0.91752521268E+02 0.  0.
         23    2    4    4    0    0  0.46436727873E+03  0.13002339919E+03  0.16844989343E+03  0.51890815261E+03  0.91363287788E+02 0.  0.
          2    1    3    3  502    0 -0.19141449318E+03 -0.28520357289E+03  0.34478821896E+03  0.48668213663E+03  0.00000000000E+00 0. -1.
         -1    1    3    3    0  502 -0.23184891491E+02 -0.19157852747E+01  0.18216074347E+02  0.29547162153E+02  0.00000000000E+00 0.  1.
         11    1    5    5    0    0 -0.14845477387E+02 -0.57963851966E+01 -0.16259156006E+01  0.16019671711E+02  0.00000000000E+00 0. -1.
        -11    1    5    5    0    0 -0.23492241667E+03  0.16289234416E+03 -0.35759025525E+03  0.45781355188E+03  0.00000000000E+00 0.  1.
          1    1    6    6  503    0  0.13447578435E+03  0.80242060746E+02  0.42093824909E+02  0.16215552715E+03  0.00000000000E+00 0. -1.
         -1    1    6    6    0  503  0.32989149437E+03  0.49781338449E+02  0.12635606852E+03  0.35675262546E+03  0.00000000000E+00 0.  1.
<mgrwt>
<rscale>  0 0.14991086E+04</rscale>
<asrwt>0</asrwt>
<pdfrwt beam="1">  1        2 0.12932375E+00 0.14991086E+04</pdfrwt>
<pdfrwt beam="2">  1       -1 0.10282559E+00 0.14991086E+04</pdfrwt>
<totfact> 0.31779713E+01</totfact>
</mgrwt>
</event>
<event>
12    6  0.1494052E-007  0.1369963E+04  0.7818608E-02  0.8975852E-01
          2   -1    0    0  501    0  0.00000000000E+00  0.00000000000E+00  0.16433884234E+04  0.16433884234E+04  0.00000000000E+00 0. -1.
         -1   -1    0    0    0  501 -0.00000000000E+00 -0.00000000000E+00 -0.28550745165E+03  0.28550745165E+03  0.00000000000E+00 0.  1.
         24    2    1    2    0    0  0.30953039798E+03  0.77085674504E+02  0.86060556254E+02  0.34031415628E+03  0.81584539769E+02 0.  0.
        254    2    1    2    0    0 -0.30953039798E+03 -0.77085674504E+02  0.12718204155E+04  0.15885817187E+04  0.89683523540E+03 0.  0.
         23    2    4    4    0    0 -0.34376953818E+03  0.24569629309E+03  0.11539136698E+04  0.12327708828E+04  0.98301212794E+02 0.  0.
         23    2    4    4    0    0  0.34239140195E+02 -0.32278196760E+03  0.11790674566E+03  0.35581083589E+03  0.85666988611E+02 0.  0.
          2    1    3    3  502    0  0.22247276450E+03  0.48859826854E+02  0.98108692391E+02  0.24800550225E+03  0.00000000000E+00 0. -1.
         -3    1    3    3    0  502  0.87057633483E+02  0.28225847650E+02 -0.12048136137E+02  0.92308654024E+02  0.00000000000E+00 0.  1.
         11    1    5    5    0    0 -0.12494860564E+03  0.57190800720E+02  0.27152372441E+03  0.30431574829E+03  0.00000000000E+00 0. -1.
        -11    1    5    5    0    0 -0.21882093253E+03  0.18850549237E+03  0.88238994539E+03  0.92845513456E+03  0.00000000000E+00 0.  1.
          2    1    6    6  503    0  0.43670886999E+02 -0.22051690954E+03  0.11629402543E+03  0.25309909940E+03  0.00000000000E+00 0. -1.
         -2    1    6    6    0  503 -0.94317468036E+01 -0.10226505805E+03  0.16127202290E+01  0.10271173649E+03  0.00000000000E+00 0.  1.
<mgrwt>
<rscale>  0 0.13699630E+04</rscale>
<asrwt>0</asrwt>
<pdfrwt beam="1">  1        2 0.25282898E+00 0.13699630E+04</pdfrwt>
<pdfrwt beam="2">  1       -1 0.43924224E-01 0.13699630E+04</pdfrwt>
<totfact> 0.60041061E+01</totfact>
</mgrwt>
</event>
<event>
12    6  0.1494052E-007  0.2432746E+04  0.7818608E-02  0.8427345E-01
          2   -1    0    0  501    0  0.00000000000E+00  0.00000000000E+00  0.27988050859E+04  0.27988050859E+04  0.00000000000E+00 0. -1.
         -1   -1    0    0    0  501 -0.00000000000E+00 -0.00000000000E+00 -0.52864113760E+03  0.52864113760E+03  0.00000000000E+00 0.  1.
         24    2    1    2    0    0 -0.41263463583E+03  0.84029949346E+03  0.33771586687E+03  0.99846437981E+03  0.80675458665E+02 0.  0.
        254    2    1    2    0    0  0.41263463583E+03 -0.84029949346E+03  0.19324480814E+04  0.23289818437E+04  0.90190368633E+03 0.  0.
         23    2    4    4    0    0  0.68792665405E+03 -0.54298432010E+03  0.12083342777E+04  0.14953845541E+04  0.89600137958E+02 0.  0.
         23    2    4    4    0    0 -0.27529201823E+03 -0.29731517336E+03  0.72411380371E+03  0.83359728958E+03  0.79759844899E+02 0.  0.
          2    1    3    3  502    0 -0.15948829129E+01 -0.18892230082E+01  0.99093289197E+00  0.26635996466E+01  0.00000000000E+00 0. -1.
         -3    1    3    3    0  502 -0.41103975291E+03  0.84218871646E+03  0.33672493398E+03  0.99580078017E+03  0.00000000000E+00 0.  1.
         11    1    5    5    0    0  0.44505358259E+03 -0.40214052358E+03  0.80226384392E+03  0.10017070267E+04  0.00000000000E+00 0.  1.
        -11    1    5    5    0    0  0.24287307147E+03 -0.14084379651E+03  0.40607043377E+03  0.49367752738E+03  0.00000000000E+00 0. -1.
          4    1    6    6  503    0 -0.25594167462E+03 -0.29734660326E+03  0.70216787416E+03  0.80433877612E+03  0.00000000000E+00 0. -1.
         -4    1    6    6    0  503 -0.19350343613E+02  0.31429896945E-01  0.21945929551E+02  0.29258513455E+02  0.00000000000E+00 0.  1.
<mgrwt>
<rscale>  0 0.24327462E+04</rscale>
<asrwt>0</asrwt>
<pdfrwt beam="1">  1        2 0.43058539E+00 0.24327462E+04</pdfrwt>
<pdfrwt beam="2">  1       -1 0.81329407E-01 0.24327462E+04</pdfrwt>
<totfact> 0.35582451E+00</totfact>
</mgrwt>
</event>
<event>
12    6  0.1494052E-007  0.1672715E+04  0.7818608E-02  0.8777081E-01
          2   -1    0    0  501    0  0.00000000000E+00  0.00000000000E+00  0.14941437032E+04  0.14941437032E+04  0.00000000000E+00 0. -1.
         -1   -1    0    0    0  501 -0.00000000000E+00 -0.00000000000E+00 -0.46815683885E+03  0.46815683885E+03  0.00000000000E+00 0.  1.
         24    2    1    2    0    0 -0.46694938314E+03  0.35429888038E+03  0.45371937554E+03  0.74557091356E+03  0.80282578118E+02 0.  0.
        254    2    1    2    0    0  0.46694938314E+03 -0.35429888038E+03  0.57226748886E+03  0.12167296285E+04  0.89965075840E+03 0.  0.
         23    2    4    4    0    0  0.54728901448E+03 -0.22811486598E+03  0.75466574262E+03  0.96400288667E+03  0.90661595961E+02 0.  0.
         23    2    4    4    0    0 -0.80339631332E+02 -0.12618401440E+03 -0.18239825376E+03  0.25272674186E+03  0.90690800099E+02 0.  0.
          4    1    3    3  502    0 -0.24512918833E+03  0.16653775607E+03  0.27570218667E+03  0.40476516513E+03  0.00000000000E+00 0. -1.
         -3    1    3    3    0  502 -0.22182019482E+03  0.18776112431E+03  0.17801718887E+03  0.34080574843E+03  0.00000000000E+00 0.  1.
         11    1    5    5    0    0  0.45005407842E+03 -0.22062265033E+03  0.60952370696E+03  0.78914015022E+03  0.00000000000E+00 0. -1.
        -11    1    5    5    0    0  0.97234936051E+02 -0.74922156566E+01  0.14514203566E+03  0.17486273645E+03  0.00000000000E+00 0.  1.
          3    1    6    6  503    0 -0.53606449787E+02 -0.45301043898E+02 -0.14210443785E+03  0.15849134770E+03  0.00000000000E+00 0. -1.
         -3    1    6    6    0  503 -0.26733181545E+02 -0.80882970500E+02 -0.40293815910E+02  0.94235394163E+02  0.00000000000E+00 0.  1.
<mgrwt>
<rscale>  0 0.16727147E+04</rscale>
<asrwt>0</asrwt>
<pdfrwt beam="1">  1        2 0.22986826E+00 0.16727147E+04</pdfrwt>
<pdfrwt beam="2">  1       -1 0.72024130E-01 0.16727147E+04</pdfrwt>
<totfact> 0.27037026E+01</totfact>
</mgrwt>
</event>
<event>
12    6  0.1494052E-007  0.2420858E+04  0.7818608E-02  0.8431736E-01
          2   -1    0    0  501    0  0.00000000000E+00  0.00000000000E+00  0.26429460049E+04  0.26429460049E+04  0.00000000000E+00 0. -1.
         -1   -1    0    0    0  501 -0.00000000000E+00 -0.00000000000E+00 -0.55435791301E+03  0.55435791301E+03  0.00000000000E+00 0.  1.
         24    2    1    2    0    0 -0.49881499278E+03 -0.33580449354E+03  0.20220903014E+04  0.21107890461E+04  0.70711775651E+02 0.  0.
        254    2    1    2    0    0  0.49881499278E+03  0.33580449354E+03  0.66497790533E+02  0.10865148718E+04  0.90250293944E+03 0.  0.
         23    2    4    4    0    0  0.66912877769E+03 -0.20178046962E+02 -0.59031056956E+01  0.67551233437E+03  0.90230773631E+02 0.  0.
         23    2    4    4    0    0 -0.17031378491E+03  0.35598254051E+03  0.72400896228E+02  0.41100253748E+03  0.89167491632E+02 0.  0.
          4    1    3    3  502    0 -0.43670191034E+03 -0.27837498050E+03  0.16579219859E+04  0.17369244369E+04  0.00000000000E+00 0. -1.
         -3    1    3    3    0  502 -0.62113082437E+02 -0.57429513046E+02  0.36416831547E+03  0.37386460915E+03  0.00000000000E+00 0.  1.
         11    1    5    5    0    0  0.53626123293E+01  0.49229407645E+01  0.84029776642E+01  0.11117688177E+02  0.00000000000E+00 0.  1.
        -11    1    5    5    0    0  0.66376616536E+03 -0.25100987726E+02 -0.14306083360E+02  0.66439464619E+03  0.00000000000E+00 0. -1.
          3    1    6    6  503    0 -0.10852077727E+03  0.30665382463E+03  0.63572713289E+02  0.33144353536E+03  0.00000000000E+00 0. -1.
         -3    1    6    6    0  503 -0.61793007646E+02  0.49328715876E+02  0.88281829392E+01  0.79559002118E+02  0.00000000000E+00 0.  1.
<mgrwt>
<rscale>  0 0.24208577E+04</rscale>
<asrwt>0</asrwt>
<pdfrwt beam="1">  1        2 0.40660707E+00 0.24208577E+04</pdfrwt>
<pdfrwt beam="2">  1       -1 0.85285834E-01 0.24208577E+04</pdfrwt>
<totfact> 0.39841290E+00</totfact>
</mgrwt>
</event>
<event>
12    6  0.1494052E-007  0.1890574E+04  0.7818608E-02  0.8659562E-01
          2   -1    0    0  501    0  0.00000000000E+00  0.00000000000E+00  0.96331376790E+03  0.96331376790E+03  0.00000000000E+00 0. -1.
         -1   -1    0    0    0  501 -0.00000000000E+00 -0.00000000000E+00 -0.92759805618E+03  0.92759805618E+03  0.00000000000E+00 0.  1.
         24    2    1    2    0    0  0.18019074695E+03 -0.36417344004E+03  0.62164123205E+03  0.74671982349E+03  0.77856751081E+02 0.  0.
        254    2    1    2    0    0 -0.18019074695E+03  0.36417344004E+03 -0.58592552032E+03  0.11441920006E+04  0.89486067024E+03 0.  0.
         23    2    4    4    0    0 -0.50987699905E+03  0.27852739196E+03 -0.52541608539E+03  0.78867059310E+03  0.91581545105E+02 0.  0.
         23    2    4    4    0    0  0.32968625210E+03  0.85646048079E+02 -0.60509434934E+02  0.35552140749E+03  0.81889004723E+02 0.  0.
          4    1    3    3  502    0  0.13184097065E+03 -0.29624865881E+03  0.54094836716E+03  0.63069045127E+03  0.00000000000E+00 0. -1.
         -3    1    3    3    0  502  0.48349776301E+02 -0.67924781233E+02  0.80692864891E+02  0.11602937222E+03  0.00000000000E+00 0.  1.
         11    1    5    5    0    0 -0.39401013607E+03  0.19253432315E+03 -0.34703877726E+03  0.55923998949E+03  0.00000000000E+00 0. -1.
        -11    1    5    5    0    0 -0.11586686298E+03  0.85993068809E+02 -0.17837730813E+03  0.22943060362E+03  0.00000000000E+00 0.  1.
          1    1    6    6  503    0  0.31042043051E+03  0.83926373717E+02 -0.76367321214E+02  0.33050937602E+03  0.00000000000E+00 0. -1.
         -1    1    6    6    0  503  0.19265821589E+02  0.17196743615E+01  0.15857886280E+02  0.25012031478E+02  0.00000000000E+00 0.  1.
<mgrwt>
<rscale>  0 0.18905745E+04</rscale>
<asrwt>0</asrwt>
<pdfrwt beam="1">  1        2 0.14820212E+00 0.18905745E+04</pdfrwt>
<pdfrwt beam="2">  1       -1 0.14270739E+00 0.18905745E+04</pdfrwt>
<totfact> 0.11341420E+01</totfact>
</mgrwt>
</event>
<event>
12    6  0.1494052E-007  0.1501308E+04  0.7818608E-02  0.8883584E-01
         -1   -1    0    0    0  501 -0.00000000000E+00  0.00000000000E+00  0.28149331010E+03  0.28149331010E+03  0.00000000000E+00 0.  1.
          2   -1    0    0  501    0  0.00000000000E+00 -0.00000000000E+00 -0.20017573675E+04  0.20017573675E+04  0.00000000000E+00 0. -1.
         24    2    1    2    0    0  0.69864851267E+02  0.40966225414E+03 -0.97470882513E+03  0.10626893301E+04  0.80913895720E+02 0.  0.
        254    2    1    2    0    0 -0.69864851267E+02 -0.40966225414E+03 -0.74555523232E+03  0.12205613476E+04  0.87247529414E+03 0.  0.
         23    2    4    4    0    0  0.91246557775E+02 -0.28891750056E+03 -0.89819306056E+03  0.95218673606E+03  0.90053039076E+02 0.  0.
         23    2    4    4    0    0 -0.16111140904E+03 -0.12074475358E+03  0.15263782824E+03  0.26837461153E+03  0.90501071052E+02 0.  0.
          4    1    3    3  502    0  0.79157852615E+02  0.37468994041E+03 -0.83952746837E+03  0.92274855038E+03  0.00000000000E+00 0. -1.
         -3    1    3    3    0  502 -0.92930013483E+01  0.34972313726E+02 -0.13518135676E+03  0.13994077968E+03  0.00000000000E+00 0.  1.
         11    1    5    5    0    0  0.81414469869E+02 -0.18201280740E+03 -0.46611913986E+03  0.50697537465E+03  0.00000000000E+00 0. -1.
        -11    1    5    5    0    0  0.98320879061E+01 -0.10690469316E+03 -0.43207392070E+03  0.44521136141E+03  0.00000000000E+00 0.  1.
          3    1    6    6  503    0 -0.67241508245E+02 -0.20929469147E+02  0.10948793977E+02  0.71269482946E+02  0.00000000000E+00 0. -1.
         -3    1    6    6    0  503 -0.93869900797E+02 -0.99815284435E+02  0.14168903427E+03  0.19710512858E+03  0.00000000000E+00 0.  1.
<mgrwt>
<rscale>  0 0.15013078E+04</rscale>
<asrwt>0</asrwt>
<pdfrwt beam="1">  1        2 0.30796267E+00 0.15013078E+04</pdfrwt>
<pdfrwt beam="2">  1       -1 0.43306664E-01 0.15013078E+04</pdfrwt>
<totfact> 0.38604698E+01</totfact>
</mgrwt>
</event>
<event>
12    6  0.1494052E-007  0.1569475E+04  0.7818608E-02  0.8839523E-01
         -1   -1    0    0    0  501 -0.00000000000E+00  0.00000000000E+00  0.17079504422E+04  0.17079504422E+04  0.00000000000E+00 0.  1.
          2   -1    0    0  501    0  0.00000000000E+00 -0.00000000000E+00 -0.36055652422E+03  0.36055652422E+03  0.00000000000E+00 0. -1.
         24    2    1    2    0    0 -0.29820345530E+03  0.32038010038E+03  0.86031175337E+03  0.96858610905E+03  0.80336966433E+02 0.  0.
        254    2    1    2    0    0  0.29820345530E+03 -0.32038010038E+03  0.48708216456E+03  0.10999208573E+04  0.88374665368E+03 0.  0.
         23    2    4    4    0    0 -0.19253651651E+03  0.21919499690E+02  0.44416327993E+03  0.49308077454E+03  0.91087081047E+02 0.  0.
         23    2    4    4    0    0  0.49073997181E+03 -0.34229960007E+03  0.42918884638E+02  0.60684008279E+03  0.91750309414E+02 0.  0.
          4    1    3    3  502    0 -0.96980385063E+02  0.14623469954E+03  0.28460380317E+03  0.33434878079E+03  0.00000000000E+00 0. -1.
         -3    1    3    3    0  502 -0.20122307024E+03  0.17414540085E+03  0.57570795020E+03  0.63423732826E+03  0.00000000000E+00 0.  1.
         11    1    5    5    0    0 -0.83733624404E+02  0.34315340114E+02  0.11595797757E+03  0.14708879966E+03  0.00000000000E+00 0.  1.
        -11    1    5    5    0    0 -0.10880289211E+03 -0.12395840424E+02  0.32820530235E+03  0.34599197489E+03  0.00000000000E+00 0. -1.
          3    1    6    6  503    0  0.13536709526E+03 -0.11801653389E+03 -0.24447398595E+02  0.18124521525E+03  0.00000000000E+00 0. -1.
         -3    1    6    6    0  503  0.35537287655E+03 -0.22428306618E+03  0.67366283233E+02  0.42559486755E+03  0.00000000000E+00 0.  1.
<mgrwt>
<rscale>  0 0.15694747E+04</rscale>
<asrwt>0</asrwt>
<pdfrwt beam="1">  1        2 0.55470235E-01 0.15694747E+04</pdfrwt>
<pdfrwt beam="2">  1       -1 0.26276160E+00 0.15694747E+04</pdfrwt>
<totfact> 0.56639420E+00</totfact>
</mgrwt>
</event>
<event>
12    6  0.1494052E-007  0.1967393E+04  0.7818608E-02  0.8622019E-01
          2   -1    0    0  501    0  0.00000000000E+00  0.00000000000E+00  0.18275056560E+04  0.18275056560E+04  0.00000000000E+00 0. -1.
         -1   -1    0    0    0  501 -0.00000000000E+00 -0.00000000000E+00 -0.52949727729E+03  0.52949727729E+03  0.00000000000E+00 0.  1.
         24    2    1    2    0    0 -0.44961811227E+03  0.28210840874E+03  0.11982759763E+04  0.13150084354E+04  0.10789007620E+03 0.  0.
        254    2    1    2    0    0  0.44961811227E+03 -0.28210840874E+03  0.99732402431E+02  0.10419944979E+04  0.89110290117E+03 0.  0.
         23    2    4    4    0    0  0.13926035850E+02  0.29321187154E+03  0.61469522058E+02  0.31356652477E+03  0.91533202858E+02 0.  0.
         23    2    4    4    0    0  0.43569207642E+03 -0.57532028028E+03  0.38262880373E+02  0.72842797317E+03  0.91226387226E+02 0.  0.
          2    1    3    3  502    0 -0.25429236067E+03  0.10185612016E+03  0.55271208959E+03  0.61687107882E+03  0.00000000000E+00 0. -1.
         -1    1    3    3    0  502 -0.19532575161E+03  0.18025228858E+03  0.64556388671E+03  0.69813735654E+03  0.00000000000E+00 0.  1.
         11    1    5    5    0    0  0.70741913331E+01  0.28985927939E+03  0.42401838764E+02  0.29302962642E+03  0.00000000000E+00 0.  1.
        -11    1    5    5    0    0  0.68518445169E+01  0.33525921524E+01  0.19067683294E+02  0.20536898345E+02  0.00000000000E+00 0. -1.
          2    1    6    6  503    0  0.11067155660E+03 -0.86818791269E+02  0.91654517949E+01  0.14095992858E+03  0.00000000000E+00 0. -1.
         -2    1    6    6    0  503  0.32502051983E+03 -0.48850148901E+03  0.29097428578E+02  0.58746804460E+03  0.00000000000E+00 0.  1.
<mgrwt>
<rscale>  0 0.19673935E+04</rscale>
<asrwt>0</asrwt>
<pdfrwt beam="1">  1        2 0.28115471E+00 0.19673935E+04</pdfrwt>
<pdfrwt beam="2">  1       -1 0.81461120E-01 0.19673935E+04</pdfrwt>
<totfact> 0.13260843E+01</totfact>
</mgrwt>
</event>
<event>
12    6  0.1521159E-007  0.2621383E+04  0.7818608E-02  0.8360974E-01
         -1   -1    0    0    0  501 -0.00000000000E+00  0.00000000000E+00  0.10175949441E+04  0.10175949441E+04  0.00000000000E+00 0.  1.
          2   -1    0    0  501    0  0.00000000000E+00 -0.00000000000E+00 -0.16882087640E+04  0.16882087640E+04  0.00000000000E+00 0. -1.
         24    2    1    2    0    0 -0.71800885966E+03 -0.87752808183E+03 -0.52935138185E+03  0.12539099170E+04  0.80529109208E+02 0.  0.
        254    2    1    2    0    0  0.71800885966E+03  0.87752808183E+03 -0.14126243808E+03  0.14518937911E+04  0.89579475730E+03 0.  0.
         23    2    4    4    0    0  0.31486660393E+03 -0.11616248705E+03  0.70723120633E+02  0.35496619406E+03  0.91457845278E+02 0.  0.
         23    2    4    4    0    0  0.40314225573E+03  0.99369056889E+03 -0.21198555872E+03  0.10969275970E+04  0.91474865167E+02 0.  0.
          4    1    3    3  502    0 -0.45407721451E+03 -0.58151994751E+03 -0.30587812882E+03  0.79869455725E+03  0.00000000000E+00 0. -1.
         -3    1    3    3    0  502 -0.26393164515E+03 -0.29600813432E+03 -0.22347325303E+03  0.45521535971E+03  0.00000000000E+00 0.  1.
         11    1    5    5    0    0  0.18149931456E+03 -0.97872397566E+02  0.77228075074E+02  0.22019351255E+03  0.00000000000E+00 0.  1.
        -11    1    5    5    0    0  0.13336728937E+03 -0.18290089486E+02 -0.65049544408E+01  0.13477268151E+03  0.00000000000E+00 0. -1.
          3    1    6    6  503    0  0.13830578466E+03  0.45454484761E+03 -0.77905674836E+02  0.48146526638E+03  0.00000000000E+00 0. -1.
         -3    1    6    6    0  503  0.26483647106E+03  0.53914572128E+03 -0.13407988388E+03  0.61546233064E+03  0.00000000000E+00 0.  1.
<mgrwt>
<rscale>  0 0.26213834E+04</rscale>
<asrwt>0</asrwt>
<pdfrwt beam="1">  1        2 0.25972442E+00 0.26213834E+04</pdfrwt>
<pdfrwt beam="2">  1       -1 0.15655307E+00 0.26213834E+04</pdfrwt>
<totfact> 0.31075292E+00</totfact>
</mgrwt>
</event>
<event>
12    6  0.1494052E-007  0.1762639E+04  0.7818608E-02  0.8726424E-01
         -1   -1    0    0    0  501 -0.00000000000E+00  0.00000000000E+00  0.29652556532E+03  0.29652556532E+03  0.00000000000E+00 0.  1.
          2   -1    0    0  501    0  0.00000000000E+00 -0.00000000000E+00 -0.26194164793E+04  0.26194164793E+04  0.00000000000E+00 0. -1.
         24    2    1    2    0    0  0.26786349731E+03  0.30134194636E+03 -0.16976165368E+04  0.17466700649E+04  0.79978669963E+02 0.  0.
        254    2    1    2    0    0 -0.26786349731E+03 -0.30134194636E+03 -0.62527437720E+03  0.11692719798E+04  0.90203719107E+03 0.  0.
         23    2    4    4    0    0 -0.99126723316E+02 -0.55246728657E+03 -0.63647665047E+03  0.85342685059E+03  0.90491174793E+02 0.  0.
         23    2    4    4    0    0 -0.16873677399E+03  0.25112534021E+03  0.11202273261E+02  0.31584512919E+03  0.89981216455E+02 0.  0.
          4    1    3    3  502    0  0.24832817122E+03  0.29190515315E+03 -0.15130064574E+04  0.15607895563E+04  0.00000000000E+00 0. -1.
         -3    1    3    3    0  502  0.19535326091E+02  0.94367932071E+01 -0.18461007942E+03  0.18588050854E+03  0.00000000000E+00 0.  1.
         11    1    5    5    0    0 -0.48242260356E+02 -0.25723770539E+03 -0.22961884523E+03  0.34817146185E+03  0.00000000000E+00 0. -1.
        -11    1    5    5    0    0 -0.50884462960E+02 -0.29522958117E+03 -0.40685780524E+03  0.50525538874E+03  0.00000000000E+00 0.  1.
          4    1    6    6  503    0 -0.94496636194E+02  0.14146147101E+03 -0.38452266818E+02  0.17441198025E+03  0.00000000000E+00 0. -1.
         -4    1    6    6    0  503 -0.74240137798E+02  0.10966386920E+03  0.49654540079E+02  0.14143314894E+03  0.00000000000E+00 0.  1.
<mgrwt>
<rscale>  0 0.17626389E+04</rscale>
<asrwt>0</asrwt>
<pdfrwt beam="1">  1        2 0.40298715E+00 0.17626389E+04</pdfrwt>
<pdfrwt beam="2">  1       -1 0.45619318E-01 0.17626389E+04</pdfrwt>
<totfact> 0.15284265E+01</totfact>
</mgrwt>
</event>
<event>
12    6  0.1494052E-007  0.2620547E+04  0.7818608E-02  0.8361255E-01
          2   -1    0    0  501    0  0.00000000000E+00  0.00000000000E+00  0.24232065526E+04  0.24232065526E+04  0.00000000000E+00 0. -1.
         -1   -1    0    0    0  501 -0.00000000000E+00 -0.00000000000E+00 -0.70848941470E+03  0.70848941470E+03  0.00000000000E+00 0.  1.
         24    2    1    2    0    0 -0.21744333360E+03 -0.10687074153E+04  0.30310417983E+03  0.11346019605E+04  0.77668024864E+02 0.  0.
        254    2    1    2    0    0  0.21744333360E+03  0.10687074153E+04  0.14116129580E+04  0.19970940068E+04  0.89795110433E+03 0.  0.
         23    2    4    4    0    0  0.11597080789E+03  0.43047617310E+02 -0.86892659122E+02  0.17602555618E+03  0.90179468733E+02 0.  0.
         23    2    4    4    0    0  0.10147252572E+03  0.10256597980E+04  0.14985056171E+04  0.18210684506E+04  0.92176582831E+02 0.  0.
          4    1    3    3  502    0 -0.17340063072E+03 -0.82307292824E+03  0.20000458283E+03  0.86459161289E+03  0.00000000000E+00 0. -1.
         -3    1    3    3    0  502 -0.44042702881E+02 -0.24563448706E+03  0.10309959700E+03  0.27001034760E+03  0.00000000000E+00 0.  1.
         11    1    5    5    0    0  0.67623990776E+01  0.43329981511E+02 -0.23596274011E+02  0.49799613314E+02  0.00000000000E+00 0. -1.
        -11    1    5    5    0    0  0.10920840881E+03 -0.28236420086E+00 -0.63296385111E+02  0.12622594286E+03  0.00000000000E+00 0.  1.
          3    1    6    6  503    0  0.50021861323E+02  0.37063044351E+03  0.47061682563E+03  0.60112337239E+03  0.00000000000E+00 0. -1.
         -3    1    6    6    0  503  0.51450664396E+02  0.65502935447E+03  0.10278887915E+04  0.12199450782E+04  0.00000000000E+00 0.  1.
<mgrwt>
<rscale>  0 0.26205467E+04</rscale>
<asrwt>0</asrwt>
<pdfrwt beam="1">  1        2 0.37280100E+00 0.26205467E+04</pdfrwt>
<pdfrwt beam="2">  1       -1 0.10899837E+00 0.26205467E+04</pdfrwt>
<totfact> 0.30187006E+00</totfact>
</mgrwt>
</event>
<event>
12    6  0.1494052E-007  0.1919655E+04  0.7818608E-02  0.8645134E-01
          2   -1    0    0  501    0  0.00000000000E+00  0.00000000000E+00  0.13928198069E+04  0.13928198069E+04  0.00000000000E+00 0. -1.
         -1   -1    0    0    0  501 -0.00000000000E+00 -0.00000000000E+00 -0.66144139188E+03  0.66144139188E+03  0.00000000000E+00 0.  1.
         24    2    1    2    0    0  0.60606491244E+03 -0.21471883009E+03 -0.11448881484E+03  0.65799620865E+03  0.80202667012E+02 0.  0.
        254    2    1    2    0    0 -0.60606491244E+03  0.21471883009E+03  0.84586722990E+03  0.13962649902E+04  0.90589497076E+03 0.  0.
         23    2    4    4    0    0 -0.34073065558E+03  0.46594986650E+03  0.14770394433E+03  0.60345564664E+03  0.95580356491E+02 0.  0.
         23    2    4    4    0    0 -0.26533425685E+03 -0.25123103641E+03  0.69816328557E+03  0.79280934352E+03  0.87151479345E+02 0.  0.
          4    1    3    3  502    0  0.14881896708E+03 -0.82138528975E+02 -0.81009557659E+01  0.17017475838E+03  0.00000000000E+00 0. -1.
         -3    1    3    3    0  502  0.45724594536E+03 -0.13258030111E+03 -0.10638785907E+03  0.48782145027E+03  0.00000000000E+00 0.  1.
         11    1    5    5    0    0 -0.28353485045E+02  0.11214797707E+02  0.22069689017E+02  0.37639911997E+02  0.00000000000E+00 0. -1.
        -11    1    5    5    0    0 -0.31237717054E+03  0.45473506879E+03  0.12563425532E+03  0.56581573464E+03  0.00000000000E+00 0.  1.
          2    1    6    6  503    0 -0.60124754824E+02 -0.53177028367E+02  0.86958100445E+02  0.11834058358E+03  0.00000000000E+00 0. -1.
         -2    1    6    6    0  503 -0.20520950203E+03 -0.19805400804E+03  0.61120518512E+03  0.67446875995E+03  0.00000000000E+00 0.  1.
<mgrwt>
<rscale>  0 0.19196548E+04</rscale>
<asrwt>0</asrwt>
<pdfrwt beam="1">  1        2 0.21427997E+00 0.19196548E+04</pdfrwt>
<pdfrwt beam="2">  1       -1 0.10176021E+00 0.19196548E+04</pdfrwt>
<totfact> 0.14254960E+01</totfact>
</mgrwt>
</event>
<event>
12    6  0.1494052E-007  0.1330978E+04  0.7818608E-02  0.9005354E-01
          2   -1    0    0  501    0  0.00000000000E+00  0.00000000000E+00  0.12560496459E+04  0.12560496459E+04  0.00000000000E+00 0. -1.
         -1   -1    0    0    0  501 -0.00000000000E+00 -0.00000000000E+00 -0.35259396233E+03  0.35259396233E+03  0.00000000000E+00 0.  1.
         24    2    1    2    0    0 -0.13108713472E+03  0.29345747209E+03  0.66337912799E+02  0.33654600844E+03  0.74574609002E+02 0.  0.
        254    2    1    2    0    0  0.13108713472E+03 -0.29345747209E+03  0.83711777073E+03  0.12720975998E+04  0.90231093112E+03 0.  0.
         23    2    4    4    0    0  0.14967272393E+03  0.30308426715E+03  0.35280433651E+03  0.49730553422E+03  0.92627734642E+02 0.  0.
         23    2    4    4    0    0 -0.18585589208E+02 -0.59654173924E+03  0.48431343422E+03  0.77479206553E+03  0.97651274753E+02 0.  0.
          4    1    3    3  502    0 -0.97523518501E+02  0.13767747202E+03  0.51987851905E+02  0.17654648030E+03  0.00000000000E+00 0. -1.
         -3    1    3    3    0  502 -0.33563616218E+02  0.15578000007E+03  0.14350060895E+02  0.15999952813E+03  0.00000000000E+00 0.  1.
         11    1    5    5    0    0  0.57461097232E+02  0.58468167165E+02  0.13066423650E+03  0.15425124624E+03  0.00000000000E+00 0.  1.
        -11    1    5    5    0    0  0.92211626694E+02  0.24461609999E+03  0.22214010002E+03  0.34305428799E+03  0.00000000000E+00 0. -1.
          4    1    6    6  503    0 -0.14075624058E+02 -0.46137270239E+03  0.42377638714E+03  0.62661736331E+03  0.00000000000E+00 0. -1.
         -4    1    6    6    0  503 -0.45099651500E+01 -0.13516903685E+03  0.60537047071E+02  0.14817470221E+03  0.00000000000E+00 0.  1.
<mgrwt>
<rscale>  0 0.13309779E+04</rscale>
<asrwt>0</asrwt>
<pdfrwt beam="1">  1        2 0.19323841E+00 0.13309779E+04</pdfrwt>
<pdfrwt beam="2">  1       -1 0.54245226E-01 0.13309779E+04</pdfrwt>
<totfact> 0.67119405E+01</totfact>
</mgrwt>
</event>
<event>
12    6  0.1494052E-007  0.2241046E+04  0.7818608E-02  0.8501536E-01
         -1   -1    0    0    0  501 -0.00000000000E+00  0.00000000000E+00  0.16517073662E+04  0.16517073662E+04  0.00000000000E+00 0.  1.
          2   -1    0    0  501    0  0.00000000000E+00 -0.00000000000E+00 -0.76016569375E+03  0.76016569375E+03  0.00000000000E+00 0. -1.
         24    2    1    2    0    0 -0.31237960172E+03 -0.26076950912E+03 -0.53399470062E+03  0.67621381973E+03  0.80827206056E+02 0.  0.
        254    2    1    2    0    0  0.31237960172E+03  0.26076950912E+03  0.14255363730E+04  0.17356592402E+04  0.90265015080E+03 0.  0.
         23    2    4    4    0    0  0.12006325698E+03 -0.17527209439E+03  0.14773628286E+01  0.23125427750E+03  0.91328339041E+02 0.  0.
         23    2    4    4    0    0  0.19231634474E+03  0.43604160351E+03  0.14240590102E+04  0.15044049627E+04  0.90401165635E+02 0.  0.
          4    1    3    3  502    0 -0.21734347805E+03 -0.20677778942E+03 -0.43712371366E+03  0.53016260023E+03  0.00000000000E+00 0. -1.
         -3    1    3    3    0  502 -0.95036123679E+02 -0.53991719697E+02 -0.96870986968E+02  0.14605121949E+03  0.00000000000E+00 0.  1.
         11    1    5    5    0    0 -0.23053133524E+01 -0.18322156865E+02 -0.24359764665E+02  0.30568186671E+02  0.00000000000E+00 0. -1.
        -11    1    5    5    0    0  0.12236857033E+03 -0.15694993753E+03  0.25837127494E+02  0.20068609083E+03  0.00000000000E+00 0.  1.
          2    1    6    6  503    0  0.11573422527E+03  0.33967338431E+03  0.11303829745E+04  0.11859755849E+04  0.00000000000E+00 0.  1.
         -2    1    6    6    0  503  0.76582119479E+02  0.96368219206E+02  0.29367603569E+03  0.31842937779E+03  0.00000000000E+00 0. -1.
<mgrwt>
<rscale>  0 0.22410455E+04</rscale>
<asrwt>0</asrwt>
<pdfrwt beam="1">  1        2 0.11694857E+00 0.22410455E+04</pdfrwt>
<pdfrwt beam="2">  1       -1 0.25410882E+00 0.22410455E+04</pdfrwt>
<totfact> 0.25102822E+00</totfact>
</mgrwt>
</event>
<event>
12    6  0.1494052E-007  0.1382918E+04  0.7818608E-02  0.8966277E-01
          2   -1    0    0  501    0  0.00000000000E+00  0.00000000000E+00  0.16969798008E+04  0.16969798008E+04  0.00000000000E+00 0. -1.
         -1   -1    0    0    0  501 -0.00000000000E+00 -0.00000000000E+00 -0.28174509912E+03  0.28174509912E+03  0.00000000000E+00 0.  1.
         24    2    1    2    0    0 -0.25823841732E+03 -0.16535277062E+03  0.57121753128E+02  0.32179837079E+03  0.79137082522E+02 0.  0.
        254    2    1    2    0    0  0.25823841732E+03  0.16535277062E+03  0.13581129485E+04  0.16569265291E+04  0.89827953499E+03 0.  0.
         23    2    4    4    0    0 -0.37174214203E+02  0.48945843340E+03  0.76639437771E+03  0.91451097729E+03  0.89546106356E+02 0.  0.
         23    2    4    4    0    0  0.29541263153E+03 -0.32410566278E+03  0.59171857080E+03  0.74241555181E+03  0.93471284478E+02 0.  0.
          4    1    3    3  502    0 -0.55471434796E+02 -0.58283012535E+01 -0.62682816063E+01  0.56127894386E+02  0.00000000000E+00 0. -1.
         -1    1    3    3    0  502 -0.20276698253E+03 -0.15952446937E+03  0.63390034734E+02  0.26567047641E+03  0.00000000000E+00 0.  1.
         11    1    5    5    0    0 -0.44112536609E+02  0.22905025136E+03  0.42829521853E+03  0.48769532266E+03  0.00000000000E+00 0. -1.
        -11    1    5    5    0    0  0.69383224056E+01  0.26040818205E+03  0.33809915919E+03  0.42681565463E+03  0.00000000000E+00 0.  1.
          2    1    6    6  503    0  0.22111273847E+03 -0.23176307182E+03  0.49420478264E+03  0.58893406401E+03  0.00000000000E+00 0. -1.
         -2    1    6    6    0  503  0.74299893057E+02 -0.92342590960E+02  0.97513788165E+02  0.15348148780E+03  0.00000000000E+00 0.  1.
<mgrwt>
<rscale>  0 0.13829183E+04</rscale>
<asrwt>0</asrwt>
<pdfrwt beam="1">  1        2 0.26107381E+00 0.13829183E+04</pdfrwt>
<pdfrwt beam="2">  1       -1 0.43345401E-01 0.13829183E+04</pdfrwt>
<totfact> 0.57397925E+01</totfact>
</mgrwt>
</event>
<event>
12    6  0.1494052E-007  0.1736243E+04  0.7818608E-02  0.8740959E-01
          2   -1    0    0  501    0  0.00000000000E+00  0.00000000000E+00  0.21868521498E+04  0.21868521498E+04  0.00000000000E+00 0. -1.
         -1   -1    0    0    0  501 -0.00000000000E+00 -0.00000000000E+00 -0.34462087282E+03  0.34462087282E+03  0.00000000000E+00 0.  1.
         24    2    1    2    0    0 -0.30837612866E+03 -0.25176906792E+03  0.13844415146E+04  0.14430303387E+04  0.84703901694E+02 0.  0.
        254    2    1    2    0    0  0.30837612866E+03  0.25176906792E+03  0.45778976243E+03  0.10884426839E+04  0.90368828103E+03 0.  0.
         23    2    4    4    0    0  0.35257673325E+03  0.35322953183E+03  0.66470301639E+03  0.83633770286E+03  0.92461874531E+02 0.  0.
         23    2    4    4    0    0 -0.44200604590E+02 -0.10146046391E+03 -0.20691325396E+03  0.25210498105E+03  0.92173247881E+02 0.  0.
          4    1    3    3  502    0 -0.32450552170E+02 -0.32829467332E+02  0.85349301627E+02  0.97032548919E+02  0.00000000000E+00 0. -1.
         -3    1    3    3    0  502 -0.27592557649E+03 -0.21893960059E+03  0.12990922129E+04  0.13459977898E+04  0.00000000000E+00 0.  1.
         11    1    5    5    0    0  0.20054492902E+03  0.26255490303E+03  0.44308951919E+03  0.55270396025E+03  0.00000000000E+00 0. -1.
        -11    1    5    5    0    0  0.15203180423E+03  0.90674628799E+02  0.22161349719E+03  0.28363374260E+03  0.00000000000E+00 0.  1.
          4    1    6    6  503    0  0.17436222025E+02 -0.63060434147E+02 -0.62602120243E+02  0.90552005235E+02  0.00000000000E+00 0. -1.
         -4    1    6    6    0  503 -0.61636826615E+02 -0.38400029762E+02 -0.14431113371E+03  0.16155297581E+03  0.00000000000E+00 0.  1.
<mgrwt>
<rscale>  0 0.17362430E+04</rscale>
<asrwt>0</asrwt>
<pdfrwt beam="1">  1        2 0.33643878E+00 0.17362430E+04</pdfrwt>
<pdfrwt beam="2">  1       -1 0.53018597E-01 0.17362430E+04</pdfrwt>
<totfact> 0.20367115E+01</totfact>
</mgrwt>
</event>
<event>
12    6  0.1494052E-007  0.2146204E+04  0.7818608E-02  0.8541159E-01
          2   -1    0    0  501    0  0.00000000000E+00  0.00000000000E+00  0.22263447422E+04  0.22263447422E+04  0.00000000000E+00 0. -1.
         -1   -1    0    0    0  501 -0.00000000000E+00 -0.00000000000E+00 -0.51723689575E+03  0.51723689575E+03  0.00000000000E+00 0.  1.
         24    2    1    2    0    0  0.79481715341E+03  0.26133351774E+03  0.35408034129E+03  0.91202275533E+03  0.79894325781E+02 0.  0.
        254    2    1    2    0    0 -0.79481715341E+03 -0.26133351774E+03  0.13550275052E+04  0.18315588827E+04  0.90469822924E+03 0.  0.
         23    2    4    4    0    0 -0.98445549014E+03 -0.23962183001E+03  0.11674262109E+04  0.15485000162E+04  0.91635740476E+02 0.  0.
         23    2    4    4    0    0  0.18963833673E+03 -0.21711687730E+02  0.18760129434E+03  0.28305886645E+03  0.92162791306E+02 0.  0.
          4    1    3    3  502    0  0.32613000002E+03  0.79898267795E+02  0.17378724915E+03  0.37808268683E+03  0.00000000000E+00 0. -1.
         -3    1    3    3    0  502  0.46868715339E+03  0.18143524994E+03  0.18029309214E+03  0.53394006850E+03  0.00000000000E+00 0.  1.
         11    1    5    5    0    0 -0.50036446282E+02  0.28495553400E+01  0.39148743051E+02  0.63595518747E+02  0.00000000000E+00 0.  1.
        -11    1    5    5    0    0 -0.93441904386E+03 -0.24247138535E+03  0.11282774678E+04  0.14849044975E+04  0.00000000000E+00 0. -1.
          2    1    6    6  503    0  0.19468256027E+03 -0.52786927912E+01  0.17134875671E+03  0.25940231360E+03  0.00000000000E+00 0. -1.
         -2    1    6    6    0  503 -0.50442235483E+01 -0.16432994939E+02  0.16252537623E+02  0.23656552857E+02  0.00000000000E+00 0.  1.
<mgrwt>
<rscale>  0 0.21462038E+04</rscale>
<asrwt>0</asrwt>
<pdfrwt beam="1">  1        2 0.34251457E+00 0.21462038E+04</pdfrwt>
<pdfrwt beam="2">  1       -1 0.79574908E-01 0.21462038E+04</pdfrwt>
<totfact> 0.82265325E+00</totfact>
</mgrwt>
</event>
<event>
12    6  0.1494052E-007  0.1201841E+04  0.7818608E-02  0.9111246E-01
          2   -1    0    0  501    0  0.00000000000E+00  0.00000000000E+00  0.52453278266E+03  0.52453278266E+03  0.00000000000E+00 0. -1.
         -3   -1    0    0    0  501 -0.00000000000E+00 -0.00000000000E+00 -0.68843286416E+03  0.68843286416E+03  0.00000000000E+00 0.  1.
         24    2    1    2    0    0  0.39599015006E+02  0.24451860051E+03 -0.90903480592E+02  0.27541317277E+03  0.78940135362E+02 0.  0.
        254    2    1    2    0    0 -0.39599015006E+02 -0.24451860051E+03 -0.72996600905E+02  0.93755247404E+03  0.90128725158E+03 0.  0.
         23    2    4    4    0    0  0.28979999176E+01  0.30017049112E+03 -0.19647675381E+03  0.37023982061E+03  0.91453200246E+02 0.  0.
         23    2    4    4    0    0 -0.42497014924E+02 -0.54468909163E+03  0.12348015291E+03  0.56731265343E+03  0.90022751327E+02 0.  0.
          4    1    3    3  502    0  0.49391811157E+02  0.20595930487E+03 -0.10058321238E+03  0.23446912139E+03  0.00000000000E+00 0. -1.
         -3    1    3    3    0  502 -0.97927961508E+01  0.38559295636E+02  0.96797317883E+01  0.40944051386E+02  0.00000000000E+00 0.  1.
         11    1    5    5    0    0  0.48965064115E-01  0.77203337176E+01  0.97073224496E+01  0.12403147158E+02  0.00000000000E+00 0. -1.
        -11    1    5    5    0    0  0.28490348534E+01  0.29245015741E+03 -0.20618407626E+03  0.35783667346E+03  0.00000000000E+00 0.  1.
          3    1    6    6  503    0 -0.42880086009E+02 -0.98883139701E+02  0.28832311742E+02  0.11157006450E+03  0.00000000000E+00 0. -1.
         -3    1    6    6    0  503  0.38307108499E+00 -0.44580595193E+03  0.94647841164E+02  0.45574258892E+03  0.00000000000E+00 0.  1.
<mgrwt>
<rscale>  0 0.12018413E+04</rscale>
<asrwt>0</asrwt>
<pdfrwt beam="1">  1        2 0.80697351E-01 0.12018413E+04</pdfrwt>
<pdfrwt beam="2">  1       -3 0.10591275E+00 0.12018413E+04</pdfrwt>
<totfact> 0.27597997E+01</totfact>
</mgrwt>
</event>
<event>
12    6  0.1494052E-007  0.1906241E+04  0.7818608E-02  0.8651756E-01
          2   -1    0    0  501    0  0.00000000000E+00  0.00000000000E+00  0.10759377884E+04  0.10759377884E+04  0.00000000000E+00 0. -1.
         -1   -1    0    0    0  501 -0.00000000000E+00 -0.00000000000E+00 -0.84432281489E+03  0.84432281489E+03  0.00000000000E+00 0.  1.
         24    2    1    2    0    0 -0.33559903540E+03 -0.51342530357E+03  0.51433159407E+03  0.80426035925E+03  0.77881203764E+02 0.  0.
        254    2    1    2    0    0  0.33559903540E+03  0.51342530357E+03 -0.28271662052E+03  0.11160002441E+04  0.88842309873E+03 0.  0.
         23    2    4    4    0    0  0.21084082421E+03  0.22564562707E+03  0.30520272266E+03  0.44357049471E+03  0.90753951342E+02 0.  0.
         23    2    4    4    0    0  0.12475821119E+03  0.28777967650E+03 -0.58791934319E+03  0.67242974937E+03  0.90171282998E+02 0.  0.
          4    1    3    3  502    0 -0.30635453199E+03 -0.41679583333E+03  0.43480395081E+03  0.67574132742E+03  0.00000000000E+00 0. -1.
         -3    1    3    3    0  502 -0.29244503402E+02 -0.96629470245E+02  0.79527643265E+02  0.12851903183E+03  0.00000000000E+00 0.  1.
         11    1    5    5    0    0  0.37687108820E+01  0.26910744614E+02  0.60813239197E+02  0.66608118267E+02  0.00000000000E+00 0. -1.
        -11    1    5    5    0    0  0.20707211332E+03  0.19873488246E+03  0.24438948347E+03  0.37696237644E+03  0.00000000000E+00 0.  1.
          2    1    6    6  503    0  0.31198524391E+02  0.18396126529E+03 -0.33255990371E+03  0.38132818491E+03  0.00000000000E+00 0.  1.
         -2    1    6    6    0  503  0.93559686799E+02  0.10381841120E+03 -0.25535943948E+03  0.29110156446E+03  0.00000000000E+00 0. -1.
<mgrwt>
<rscale>  0 0.19062411E+04</rscale>
<asrwt>0</asrwt>
<pdfrwt beam="1">  1        2 0.16552889E+00 0.19062411E+04</pdfrwt>
<pdfrwt beam="2">  1       -1 0.12989582E+00 0.19062411E+04</pdfrwt>
<totfact> 0.12235287E+01</totfact>
</mgrwt>
</event>
<event>
12    6  0.1494052E-007  0.3654054E+04  0.7818608E-02  0.8078221E-01
          2   -1    0    0  501    0  0.00000000000E+00  0.00000000000E+00  0.81222447937E+03  0.81222447937E+03  0.00000000000E+00 0. -1.
         -1   -1    0    0    0  501 -0.00000000000E+00 -0.00000000000E+00 -0.41097351820E+04  0.41097351820E+04  0.00000000000E+00 0.  1.
         24    2    1    2    0    0 -0.16478136764E+04 -0.25905767358E+03 -0.10140478623E+04  0.19545901702E+04  0.98635066667E+02 0.  0.
        254    2    1    2    0    0  0.16478136764E+04  0.25905767358E+03 -0.22834628403E+04  0.29673694911E+04  0.89926545763E+03 0.  0.
         23    2    4    4    0    0  0.87260865897E+03  0.35112946044E+03 -0.62699186642E+03  0.11340025040E+04  0.90028377855E+02 0.  0.
         23    2    4    4    0    0  0.77520501739E+03 -0.92071786861E+02 -0.16564709739E+04  0.18333669871E+04  0.88985330553E+02 0.  0.
          4    1    3    3  502    0 -0.15285000602E+04 -0.21515673663E+03 -0.92753270509E+03  0.18008114211E+04  0.00000000000E+00 0. -1.
         -3    1    3    3    0  502 -0.11931361621E+03 -0.43900936947E+02 -0.86515157164E+02  0.15377874917E+03  0.00000000000E+00 0.  1.
         11    1    5    5    0    0  0.24087532256E+03  0.90543104005E+02 -0.22046801619E+03  0.33885855583E+03  0.00000000000E+00 0. -1.
        -11    1    5    5    0    0  0.63173333641E+03  0.26058635644E+03 -0.40652385024E+03  0.79514394817E+03  0.00000000000E+00 0.  1.
          4    1    6    6  503    0  0.38935402530E+03 -0.90584723951E+02 -0.85768139941E+03  0.94626610007E+03  0.00000000000E+00 0. -1.
         -4    1    6    6    0  503  0.38585099209E+03 -0.14870629107E+01 -0.79878957450E+03  0.88710088704E+03  0.00000000000E+00 0.  1.
<mgrwt>
<rscale>  0 0.36540539E+04</rscale>
<asrwt>0</asrwt>
<pdfrwt beam="1">  1        2 0.12495761E+00 0.36540539E+04</pdfrwt>
<pdfrwt beam="2">  1       -1 0.63226695E+00 0.36540539E+04</pdfrwt>
<totfact> 0.10432283E-02</totfact>
</mgrwt>
</event>
<event>
12    6  0.1494052E-007  0.2896496E+04  0.7818608E-02  0.8273921E-01
         -1   -1    0    0    0  501 -0.00000000000E+00  0.00000000000E+00  0.60097432793E+03  0.60097432793E+03  0.00000000000E+00 0.  1.
          2   -1    0    0  501    0  0.00000000000E+00 -0.00000000000E+00 -0.34900369747E+04  0.34900369747E+04  0.00000000000E+00 0. -1.
         24    2    1    2    0    0 -0.48699849295E+03 -0.88934049869E+03 -0.24761742333E+04  0.26769024077E+04  0.79206137353E+02 0.  0.
        254    2    1    2    0    0  0.48699849295E+03  0.88934049869E+03 -0.41288841348E+03  0.14141088949E+04  0.89506037221E+03 0.  0.
         23    2    4    4    0    0  0.43119801450E+03  0.10056659384E+04 -0.15058986113E+03  0.11082448353E+04  0.90739194661E+02 0.  0.
         23    2    4    4    0    0  0.55800478459E+02 -0.11632543968E+03 -0.26229855235E+03  0.30586405958E+03  0.90038830866E+02 0.  0.
          4    1    3    3  502    0 -0.36212820833E+03 -0.63266381391E+03 -0.18631466787E+04  0.20006788566E+04  0.00000000000E+00 0. -1.
         -3    1    3    3    0  502 -0.12487028462E+03 -0.25667668478E+03 -0.61302755454E+03  0.67622355114E+03  0.00000000000E+00 0.  1.
         11    1    5    5    0    0  0.12575904455E+03  0.20226599884E+03 -0.43188512446E+02  0.24205809051E+03  0.00000000000E+00 0. -1.
        -11    1    5    5    0    0  0.30543896994E+03  0.80339993953E+03 -0.10740134868E+03  0.86618674481E+03  0.00000000000E+00 0.  1.
          4    1    6    6  503    0  0.14900473904E+02  0.13643427444E+02 -0.24083854952E+02  0.31435637489E+02  0.00000000000E+00 0. -1.
         -4    1    6    6    0  503  0.40900004555E+02 -0.12996886712E+03 -0.23821469740E+03  0.27442842209E+03  0.00000000000E+00 0.  1.
<mgrwt>
<rscale>  0 0.28964962E+04</rscale>
<asrwt>0</asrwt>
<pdfrwt beam="1">  1        2 0.53692875E+00 0.28964962E+04</pdfrwt>
<pdfrwt beam="2">  1       -1 0.92457591E-01 0.28964962E+04</pdfrwt>
<totfact> 0.92163780E-01</totfact>
</mgrwt>
</event>
<event>
12    6  0.1494052E-007  0.1528479E+04  0.7818608E-02  0.8865732E-01
         -1   -1    0    0    0  501 -0.00000000000E+00  0.00000000000E+00  0.83346693687E+03  0.83346693687E+03  0.00000000000E+00 0.  1.
          2   -1    0    0  501    0  0.00000000000E+00 -0.00000000000E+00 -0.70076224310E+03  0.70076224310E+03  0.00000000000E+00 0. -1.
         24    2    1    2    0    0  0.23425599495E+03 -0.11141084480E+03  0.46617867359E+03  0.53946241795E+03  0.80055587940E+02 0.  0.
        254    2    1    2    0    0 -0.23425599495E+03  0.11141084480E+03 -0.33347397983E+03  0.99476676202E+03  0.90059300913E+03 0.  0.
         23    2    4    4    0    0 -0.88534328835E+02 -0.35524905863E+03 -0.32384759958E+03  0.49733558560E+03  0.91788865972E+02 0.  0.
         23    2    4    4    0    0 -0.14572166611E+03  0.46665990343E+03 -0.96263802468E+01  0.49743117642E+03  0.91317241716E+02 0.  0.
          4    1    3    3  502    0  0.25251312425E+02 -0.16715806730E+02  0.16166860525E+02  0.34328040333E+02  0.00000000000E+00 0. -1.
         -3    1    3    3    0  502  0.20900468252E+03 -0.94695038069E+02  0.45001181307E+03  0.50513437762E+03  0.00000000000E+00 0.  1.
         11    1    5    5    0    0 -0.30704406482E+02 -0.26281083639E+02 -0.56699654968E+02  0.69629783916E+02  0.00000000000E+00 0. -1.
        -11    1    5    5    0    0 -0.57829922352E+02 -0.32896797499E+03 -0.26714794461E+03  0.42770580169E+03  0.00000000000E+00 0.  1.
          4    1    6    6  503    0 -0.29593640979E+02  0.46377187951E+02  0.24174225279E+02  0.60091765796E+02  0.00000000000E+00 0. -1.
         -4    1    6    6    0  503 -0.11612802513E+03  0.42028271547E+03 -0.33800605525E+02  0.43733941062E+03  0.00000000000E+00 0.  1.
<mgrwt>
<rscale>  0 0.15284792E+04</rscale>
<asrwt>0</asrwt>
<pdfrwt beam="1">  1        2 0.10780958E+00 0.15284792E+04</pdfrwt>
<pdfrwt beam="2">  1       -1 0.12822568E+00 0.15284792E+04</pdfrwt>
<totfact> 0.23661796E+01</totfact>
</mgrwt>
</event>
<event>
12    6  0.2464202E-007  0.1513829E+04  0.7818608E-02  0.8875309E-01
         -1   -1    0    0    0  501 -0.00000000000E+00  0.00000000000E+00  0.37461745442E+03  0.37461745442E+03  0.00000000000E+00 0.  1.
          2   -1    0    0  501    0  0.00000000000E+00 -0.00000000000E+00 -0.15293446961E+04  0.15293446961E+04  0.00000000000E+00 0. -1.
         24    2    1    2    0    0 -0.20051176755E+03  0.22566469915E+03  0.11667721489E+03  0.33385647250E+03  0.81957588924E+02 0.  0.
        254    2    1    2    0    0  0.20051176755E+03 -0.22566469915E+03 -0.12714044566E+04  0.15701056780E+04  0.87042117542E+03 0.  0.
         23    2    4    4    0    0  0.19197886099E+03  0.27484865590E+03 -0.81726662070E+03  0.88806893438E+03  0.91345695973E+02 0.  0.
         23    2    4    4    0    0  0.85329065633E+01 -0.50051335505E+03 -0.45413783587E+03  0.68203674365E+03  0.91359272373E+02 0.  0.
          4    1    3    3  502    0  0.76731412403E+01  0.10310471875E+02  0.14779140841E+01  0.12937045908E+02  0.00000000000E+00 0. -1.
         -3    1    3    3    0  502 -0.20818490879E+03  0.21535422728E+03  0.11519930081E+03  0.32091942659E+03  0.00000000000E+00 0.  1.
         11    1    5    5    0    0  0.19727680863E+03  0.27578177825E+03 -0.78135506690E+03  0.85175669590E+03  0.00000000000E+00 0. -1.
        -11    1    5    5    0    0 -0.52979476397E+01 -0.93312235869E+00 -0.35911553807E+02  0.36312238479E+02  0.00000000000E+00 0.  1.
          3    1    6    6  503    0  0.36406719816E+02 -0.40095892796E+03 -0.33062325698E+03  0.52096568910E+03  0.00000000000E+00 0. -1.
         -3    1    6    6    0  503 -0.27873813252E+02 -0.99554427082E+02 -0.12351457888E+03  0.16107105455E+03  0.00000000000E+00 0.  1.
<mgrwt>
<rscale>  0 0.15138285E+04</rscale>
<asrwt>0</asrwt>
<pdfrwt beam="1">  1        2 0.23528380E+00 0.15138285E+04</pdfrwt>
<pdfrwt beam="2">  1       -1 0.57633456E-01 0.15138285E+04</pdfrwt>
<totfact> 0.40975322E+01</totfact>
</mgrwt>
</event>
<event>
12    6  0.1494052E-007  0.1525365E+04  0.7818608E-02  0.8867759E-01
         -1   -1    0    0    0  501 -0.00000000000E+00  0.00000000000E+00  0.14342114158E+03  0.14342114158E+03  0.00000000000E+00 0.  1.
          2   -1    0    0  501    0  0.00000000000E+00 -0.00000000000E+00 -0.40557779879E+04  0.40557779879E+04  0.00000000000E+00 0. -1.
         24    2    1    2    0    0 -0.20386527017E+03  0.75466909878E+02 -0.66876864714E+02  0.24181733633E+03  0.82138944784E+02 0.  0.
        254    2    1    2    0    0  0.20386527017E+03 -0.75466909878E+02 -0.38454799816E+04  0.39573817931E+04  0.90878934023E+03 0.  0.
         23    2    4    4    0    0  0.41982347194E+03 -0.31543065857E+03 -0.15981341483E+04  0.16846390941E+04  0.90707625681E+02 0.  0.
         23    2    4    4    0    0 -0.21595820178E+03  0.23996374869E+03 -0.22473458333E+04  0.22727426991E+04  0.10283742566E+03 0.  0.
          2    1    3    3  502    0 -0.14253879778E+03  0.28149134612E+02 -0.75748061969E+02  0.16385191956E+03  0.00000000000E+00 0. -1.
         -1    1    3    3    0  502 -0.61326472387E+02  0.47317775266E+02  0.88711972547E+01  0.77965416771E+02  0.00000000000E+00 0.  1.
         11    1    5    5    0    0  0.16109198233E+03 -0.89731986864E+02 -0.67462519954E+03  0.69937230149E+03  0.00000000000E+00 0.  1.
        -11    1    5    5    0    0  0.25873148961E+03 -0.22569867170E+03 -0.92350894878E+03  0.98526679260E+03  0.00000000000E+00 0. -1.
          3    1    6    6  503    0 -0.48987107241E+02  0.32216870297E+02 -0.71413566607E+03  0.71653849370E+03  0.00000000000E+00 0. -1.
         -3    1    6    6    0  503 -0.16697109453E+03  0.20774687839E+03 -0.15332101672E+04  0.15562042054E+04  0.00000000000E+00 0.  1.
<mgrwt>
<rscale>  0 0.15253646E+04</rscale>
<asrwt>0</asrwt>
<pdfrwt beam="1">  1        2 0.62396593E+00 0.15253646E+04</pdfrwt>
<pdfrwt beam="2">  1       -1 0.22064788E-01 0.15253646E+04</pdfrwt>
<totfact> 0.60045259E+00</totfact>
</mgrwt>
</event>
<event>
12    6  0.1494052E-007  0.1552125E+04  0.7818608E-02  0.8850511E-01
         -1   -1    0    0    0  501 -0.00000000000E+00  0.00000000000E+00  0.17416201852E+03  0.17416201852E+03  0.00000000000E+00 0.  1.
          2   -1    0    0  501    0  0.00000000000E+00 -0.00000000000E+00 -0.34581196084E+04  0.34581196084E+04  0.00000000000E+00 0. -1.
         24    2    1    2    0    0  0.67028412401E+02 -0.49920740179E+03 -0.87921018631E+03  0.10151547183E+04  0.61868508885E+02 0.  0.
        254    2    1    2    0    0 -0.67028412401E+02  0.49920740179E+03 -0.24047474036E+04  0.26171269086E+04  0.90157769632E+03 0.  0.
         23    2    4    4    0    0  0.36236837516E+03  0.14383228065E+02 -0.10161702127E+04  0.10824418319E+04  0.86952294665E+02 0.  0.
         23    2    4    4    0    0 -0.42939678756E+03  0.48482417373E+03 -0.13885771908E+04  0.15346850767E+04  0.87610439783E+02 0.  0.
          4    1    3    3  502    0  0.13847946109E+01 -0.14246801954E+01  0.67026018792E+00  0.20968115063E+01  0.00000000000E+00 0. -1.
         -3    1    3    3    0  502  0.65643617791E+02 -0.49778272160E+03 -0.87988044649E+03  0.10130579068E+04  0.00000000000E+00 0.  1.
         11    1    5    5    0    0  0.29217286468E+03  0.29522129513E+02 -0.71769652735E+03  0.77545138104E+03  0.00000000000E+00 0. -1.
        -11    1    5    5    0    0  0.70195510485E+02 -0.15138901449E+02 -0.29847368539E+03  0.30699045082E+03  0.00000000000E+00 0.  1.
          4    1    6    6  503    0 -0.37699591980E+03  0.38091732284E+03 -0.11752904717E+04  0.12917165413E+04  0.00000000000E+00 0. -1.
         -4    1    6    6    0  503 -0.52400867760E+02  0.10390685089E+03 -0.21328671919E+03  0.24296853538E+03  0.00000000000E+00 0.  1.
<mgrwt>
<rscale>  0 0.15521251E+04</rscale>
<asrwt>0</asrwt>
<pdfrwt beam="1">  1        2 0.53201833E+00 0.15521251E+04</pdfrwt>
<pdfrwt beam="2">  1       -1 0.26794160E-01 0.15521251E+04</pdfrwt>
<totfact> 0.11989440E+01</totfact>
</mgrwt>
</event>
<event>
12    6  0.1494052E-007  0.1892562E+04  0.7818608E-02  0.8658568E-01
          2   -1    0    0  501    0  0.00000000000E+00  0.00000000000E+00  0.47226993212E+04  0.47226993212E+04  0.00000000000E+00 0. -1.
         -1   -1    0    0    0  501 -0.00000000000E+00 -0.00000000000E+00 -0.18960499478E+03  0.18960499478E+03  0.00000000000E+00 0.  1.
         24    2    1    2    0    0  0.19014096255E+03 -0.40160461712E+03  0.32298945193E+04  0.32612891560E+04  0.79677471304E+02 0.  0.
        254    2    1    2    0    0 -0.19014096255E+03  0.40160461712E+03  0.13031998071E+04  0.16510151599E+04  0.91108806758E+03 0.  0.
         23    2    4    4    0    0 -0.10942026516E+02 -0.21995019518E+03  0.77636305096E+03  0.81225321238E+03  0.92292349696E+02 0.  0.
         23    2    4    4    0    0 -0.17919893604E+03  0.62155481230E+03  0.52683675615E+03  0.83876194754E+03  0.86729427755E+02 0.  0.
          2    1    3    3  502    0  0.17225449923E+03 -0.39729219529E+03  0.31005386225E+04  0.31306313182E+04  0.00000000000E+00 0. -1.
         -1    1    3    3    0  502  0.17886463320E+02 -0.43124218327E+01  0.12935589677E+03  0.13065783781E+03  0.00000000000E+00 0.  1.
         11    1    5    5    0    0 -0.23012365094E+02 -0.53622943512E+01  0.66964603118E+02  0.71011134470E+02  0.00000000000E+00 0. -1.
        -11    1    5    5    0    0  0.12070338578E+02 -0.21458790083E+03  0.70939844784E+03  0.74124207791E+03  0.00000000000E+00 0.  1.
          1    1    6    6  503    0 -0.81086113439E+01  0.99975726443E+02  0.52106124586E+02  0.11303072005E+03  0.00000000000E+00 0. -1.
         -1    1    6    6    0  503 -0.17109032469E+03  0.52157908586E+03  0.47473063157E+03  0.72573122749E+03  0.00000000000E+00 0.  1.
<mgrwt>
<rscale>  0 0.18925616E+04</rscale>
<asrwt>0</asrwt>
<pdfrwt beam="1">  1        2 0.72656904E+00 0.18925616E+04</pdfrwt>
<pdfrwt beam="2">  1       -1 0.29170003E-01 0.18925616E+04</pdfrwt>
<totfact> 0.84907059E-01</totfact>
</mgrwt>
</event>
<event>
12    6  0.1494052E-007  0.3101436E+04  0.7818608E-02  0.8215344E-01
          2   -1    0    0  501    0  0.00000000000E+00  0.00000000000E+00  0.14449673566E+04  0.14449673566E+04  0.00000000000E+00 0. -1.
         -1   -1    0    0    0  501 -0.00000000000E+00 -0.00000000000E+00 -0.16642084169E+04  0.16642084169E+04  0.00000000000E+00 0.  1.
         24    2    1    2    0    0  0.89491026306E+02  0.47108117580E+03 -0.14397675343E+04  0.15195156132E+04  0.77916801248E+02 0.  0.
        254    2    1    2    0    0 -0.89491026306E+02 -0.47108117580E+03  0.12205264740E+04  0.15896601603E+04  0.89855908740E+03 0.  0.
         23    2    4    4    0    0 -0.26317217999E+03  0.82901546381E+02  0.84298446815E+03  0.89160451203E+03  0.90573338334E+02 0.  0.
         23    2    4    4    0    0  0.17368115368E+03 -0.55398272218E+03  0.37754200589E+03  0.69805564830E+03  0.87645435157E+02 0.  0.
          4    1    3    3  502    0 -0.78271311909E+01  0.42114047934E+01 -0.25713544475E+02  0.27206364742E+02  0.00000000000E+00 0. -1.
         -3    1    3    3    0  502  0.97318157497E+02  0.46686977100E+03 -0.14140539898E+04  0.14923092484E+04  0.00000000000E+00 0.  1.
         11    1    5    5    0    0 -0.11700393394E+03  0.54566929707E+01  0.25173737304E+03  0.27765338291E+03  0.00000000000E+00 0. -1.
        -11    1    5    5    0    0 -0.14616824605E+03  0.77444853410E+02  0.59124709511E+03  0.61395112912E+03  0.00000000000E+00 0.  1.
          2    1    6    6  503    0  0.75782770322E+01 -0.13844505102E+03  0.10687432088E+03  0.17506165456E+03  0.00000000000E+00 0.  1.
         -2    1    6    6    0  503  0.16610287665E+03 -0.41553767115E+03  0.27066768501E+03  0.52299399374E+03  0.00000000000E+00 0. -1.
<mgrwt>
<rscale>  0 0.31014363E+04</rscale>
<asrwt>0</asrwt>
<pdfrwt beam="1">  1        2 0.22230267E+00 0.31014363E+04</pdfrwt>
<pdfrwt beam="2">  1       -1 0.25603206E+00 0.31014363E+04</pdfrwt>
<totfact> 0.83957376E-01</totfact>
</mgrwt>
</event>
<event>
12    6  0.1494052E-007  0.2014478E+04  0.7818608E-02  0.8599882E-01
          2   -1    0    0  501    0  0.00000000000E+00  0.00000000000E+00  0.43409481475E+04  0.43409481475E+04  0.00000000000E+00 0. -1.
         -1   -1    0    0    0  501 -0.00000000000E+00 -0.00000000000E+00 -0.23371165694E+03  0.23371165694E+03  0.00000000000E+00 0.  1.
         24    2    1    2    0    0  0.67265085141E+03 -0.44885342188E+02  0.26383133004E+04  0.27242912776E+04  0.81191333774E+02 0.  0.
        254    2    1    2    0    0 -0.67265085141E+03  0.44885342188E+02  0.14689231902E+04  0.18503685268E+04  0.90091868917E+03 0.  0.
         23    2    4    4    0    0 -0.24281928686E+03 -0.35815756092E+02  0.13662151224E+04  0.13910895611E+04  0.91336914971E+02 0.  0.
         23    2    4    4    0    0 -0.42983156455E+03  0.80701098280E+02  0.10270806786E+03  0.45927896572E+03  0.95500680635E+02 0.  0.
          4    1    3    3  502    0  0.65821076524E+03 -0.41280854171E+02  0.26128542792E+04  0.26948011067E+04  0.00000000000E+00 0. -1.
         -3    1    3    3    0  502  0.14440086169E+02 -0.36044880177E+01  0.25459021151E+02  0.29490170911E+02  0.00000000000E+00 0.  1.
         11    1    5    5    0    0 -0.19660031227E+03 -0.47028395739E+02  0.89831619951E+03  0.92077974950E+03  0.00000000000E+00 0. -1.
        -11    1    5    5    0    0 -0.46218974588E+02  0.11212639648E+02  0.46789892285E+03  0.47030981162E+03  0.00000000000E+00 0.  1.
          2    1    6    6  503    0 -0.43321373519E+03  0.85179489614E+02  0.98765575958E+02  0.45242051767E+03  0.00000000000E+00 0. -1.
         -2    1    6    6    0  503  0.33821706486E+01 -0.44783913335E+01  0.39424919025E+01  0.68584480485E+01  0.00000000000E+00 0.  1.
<mgrwt>
<rscale>  0 0.20144778E+04</rscale>
<asrwt>0</asrwt>
<pdfrwt beam="1">  1        2 0.66783812E+00 0.20144778E+04</pdfrwt>
<pdfrwt beam="2">  1       -1 0.35955643E-01 0.20144778E+04</pdfrwt>
<totfact> 0.13788636E+00</totfact>
</mgrwt>
</event>
<event>
12    6  0.1494052E-007  0.1906061E+04  0.7818608E-02  0.8651845E-01
         -3   -1    0    0    0  501 -0.00000000000E+00  0.00000000000E+00  0.16704826448E+04  0.16704826448E+04  0.00000000000E+00 0.  1.
          2   -1    0    0  501    0  0.00000000000E+00 -0.00000000000E+00 -0.54371546602E+03  0.54371546602E+03  0.00000000000E+00 0. -1.
         24    2    1    2    0    0  0.54013024329E+03 -0.20949194974E+02  0.10305406207E+04  0.11661297381E+04  0.75266504177E+02 0.  0.
        254    2    1    2    0    0 -0.54013024329E+03  0.20949194974E+02  0.96226558032E+02  0.10480683727E+04  0.89275316572E+03 0.  0.
         23    2    4    4    0    0 -0.69213693902E+03 -0.33351303125E+02 -0.17438843207E+03  0.72017462258E+03  0.89857164371E+02 0.  0.
         23    2    4    4    0    0  0.15200669573E+03  0.54300498099E+02  0.27061499011E+03  0.32789375012E+03  0.90704238356E+02 0.  0.
          4    1    3    3  502    0  0.22498821862E+02 -0.95679289670E+00  0.85620732640E+02  0.88532605833E+02  0.00000000000E+00 0. -1.
         -3    1    3    3    0  502  0.51763142143E+03 -0.19992402077E+02  0.94491988811E+03  0.10775971323E+04  0.00000000000E+00 0.  1.
         11    1    5    5    0    0 -0.64535090775E+03 -0.17607058702E+02 -0.14167121209E+03  0.66095274792E+03  0.00000000000E+00 0.  1.
        -11    1    5    5    0    0 -0.46786031273E+02 -0.15744244423E+02 -0.32717219985E+02  0.59221874660E+02  0.00000000000E+00 0. -1.
          1    1    6    6  503    0  0.37288630908E+02  0.58929921026E+02  0.11532604288E+03  0.13477119037E+03  0.00000000000E+00 0. -1.
         -1    1    6    6    0  503  0.11471806483E+03 -0.46294229273E+01  0.15528894723E+03  0.19312255975E+03  0.00000000000E+00 0.  1.
<mgrwt>
<rscale>  0 0.19060611E+04</rscale>
<asrwt>0</asrwt>
<pdfrwt beam="1">  1        2 0.83648534E-01 0.19060611E+04</pdfrwt>
<pdfrwt beam="2">  1       -3 0.25699733E+00 0.19060611E+04</pdfrwt>
<totfact> 0.21744832E+00</totfact>
</mgrwt>
</event>
<event>
12    6  0.1494052E-007  0.1624933E+04  0.7818608E-02  0.8805376E-01
         -1   -1    0    0    0  501 -0.00000000000E+00  0.00000000000E+00  0.31949087628E+03  0.31949087628E+03  0.00000000000E+00 0.  1.
          2   -1    0    0  501    0  0.00000000000E+00 -0.00000000000E+00 -0.20661051272E+04  0.20661051272E+04  0.00000000000E+00 0. -1.
         24    2    1    2    0    0 -0.39222571415E+03 -0.42146699320E+02 -0.11777052278E+04  0.12452702922E+04  0.89950774830E+02 0.  0.
        254    2    1    2    0    0  0.39222571415E+03  0.42146699320E+02 -0.56890902318E+03  0.11403257114E+04  0.90612796901E+03 0.  0.
         23    2    4    4    0    0  0.11655795768E+02 -0.37987595704E+03 -0.35236599114E+03  0.52606038727E+03  0.90200548927E+02 0.  0.
         23    2    4    4    0    0  0.38056991838E+03  0.42202265636E+03 -0.21654303204E+03  0.61426532408E+03  0.86570308934E+02 0.  0.
          4    1    3    3  502    0 -0.35460582741E+03 -0.27006502439E+02 -0.11171551560E+04  0.11723951069E+04  0.00000000000E+00 0. -1.
         -3    1    3    3    0  502 -0.37619886734E+02 -0.15140196881E+02 -0.60550071750E+02  0.72875185272E+02  0.00000000000E+00 0.  1.
         11    1    5    5    0    0 -0.25467289066E+02 -0.63760286396E+02 -0.36994389739E+02  0.77990652041E+02  0.00000000000E+00 0. -1.
        -11    1    5    5    0    0  0.37123084833E+02 -0.31611567065E+03 -0.31537160141E+03  0.44806973523E+03  0.00000000000E+00 0.  1.
          1    1    6    6  503    0  0.20606837462E+03  0.16567240923E+03 -0.89508875194E+02  0.27914756122E+03  0.00000000000E+00 0. -1.
         -1    1    6    6    0  503  0.17450154376E+03  0.25635024714E+03 -0.12703415684E+03  0.33511776286E+03  0.00000000000E+00 0.  1.
<mgrwt>
<rscale>  0 0.16249329E+04</rscale>
<asrwt>0</asrwt>
<pdfrwt beam="1">  1        2 0.31786233E+00 0.16249329E+04</pdfrwt>
<pdfrwt beam="2">  1       -1 0.49152443E-01 0.16249329E+04</pdfrwt>
<totfact> 0.27754055E+01</totfact>
</mgrwt>
</event>
<event>
12    6  0.1494052E-007  0.1940742E+04  0.7818608E-02  0.8634838E-01
         -1   -1    0    0    0  501 -0.00000000000E+00  0.00000000000E+00  0.41337810598E+03  0.41337810598E+03  0.00000000000E+00 0.  1.
          2   -1    0    0  501    0  0.00000000000E+00 -0.00000000000E+00 -0.22778665136E+04  0.22778665136E+04  0.00000000000E+00 0. -1.
         24    2    1    2    0    0  0.27665609562E+02  0.63458579750E+02  0.31511150275E+03  0.33245004284E+03  0.80220910734E+02 0.  0.
        254    2    1    2    0    0 -0.27665609562E+02 -0.63458579750E+02 -0.21795999104E+04  0.23587945767E+04  0.89914609971E+03 0.  0.
         23    2    4    4    0    0 -0.29595533863E+03  0.26799694062E+03 -0.14701697894E+04  0.15258518127E+04  0.86096585816E+02 0.  0.
         23    2    4    4    0    0  0.26828972907E+03 -0.33145552037E+03 -0.70943012095E+03  0.83294276399E+03  0.93061328478E+02 0.  0.
          4    1    3    3  502    0  0.20922351592E+02 -0.81769521959E+01  0.25269317703E+02  0.33810438633E+02  0.00000000000E+00 0. -1.
         -3    1    3    3    0  502  0.67432579703E+01  0.71635531946E+02  0.28984218505E+03  0.29863960420E+03  0.00000000000E+00 0.  1.
         11    1    5    5    0    0 -0.28935329470E+03  0.23893866240E+03 -0.14039675293E+04  0.14532521587E+04  0.00000000000E+00 0.  1.
        -11    1    5    5    0    0 -0.66020439314E+01  0.29058278219E+02 -0.66202260110E+02  0.72599654000E+02  0.00000000000E+00 0. -1.
          1    1    6    6  503    0  0.19433441379E+03 -0.18819074056E+03 -0.50170114672E+03  0.56998742077E+03  0.00000000000E+00 0. -1.
         -1    1    6    6    0  503  0.73955315282E+02 -0.14326477980E+03 -0.20772897423E+03  0.26295534322E+03  0.00000000000E+00 0.  1.
<mgrwt>
<rscale>  0 0.19407423E+04</rscale>
<asrwt>0</asrwt>
<pdfrwt beam="1">  1        2 0.35044101E+00 0.19407423E+04</pdfrwt>
<pdfrwt beam="2">  1       -1 0.63596631E-01 0.19407423E+04</pdfrwt>
<totfact> 0.12439223E+01</totfact>
</mgrwt>
</event>
<event>
12    6  0.1494052E-007  0.1601188E+04  0.7818608E-02  0.8819819E-01
         -1   -1    0    0    0  501 -0.00000000000E+00  0.00000000000E+00  0.22758866018E+03  0.22758866018E+03  0.00000000000E+00 0.  1.
          2   -1    0    0  501    0  0.00000000000E+00 -0.00000000000E+00 -0.28162679989E+04  0.28162679989E+04  0.00000000000E+00 0. -1.
         24    2    1    2    0    0  0.26456894067E+03 -0.29148335052E+02 -0.17891929296E+04  0.18106423103E+04  0.79799038825E+02 0.  0.
        254    2    1    2    0    0 -0.26456894067E+03  0.29148335052E+02 -0.79948640906E+03  0.12332143488E+04  0.90044031557E+03 0.  0.
         23    2    4    4    0    0 -0.24727426085E+03 -0.40551319363E+03 -0.32210912798E+03  0.58064589762E+03  0.88373399883E+02 0.  0.
         23    2    4    4    0    0 -0.17294679819E+02  0.43466152869E+03 -0.47737728108E+03  0.65256845113E+03  0.93417152869E+02 0.  0.
          4    1    3    3  502    0  0.24606437145E+03 -0.46946536454E+02 -0.15552860550E+04  0.15753305574E+04  0.00000000000E+00 0. -1.
         -3    1    3    3    0  502  0.18504569219E+02  0.17798201402E+02 -0.23390687463E+03  0.23531175290E+03  0.00000000000E+00 0.  1.
         11    1    5    5    0    0 -0.29085224483E+02 -0.29193328755E+02 -0.33231244690E+01  0.41343002833E+02  0.00000000000E+00 0. -1.
        -11    1    5    5    0    0 -0.21818903637E+03 -0.37631986488E+03 -0.31878600351E+03  0.53930289479E+03  0.00000000000E+00 0.  1.
          3    1    6    6  503    0 -0.50078501175E+02  0.14491637861E+03 -0.16581180992E+03  0.22583659884E+03  0.00000000000E+00 0. -1.
         -3    1    6    6    0  503  0.32783821356E+02  0.28974515008E+03 -0.31156547116E+03  0.42673185229E+03  0.00000000000E+00 0.  1.
<mgrwt>
<rscale>  0 0.16011879E+04</rscale>
<asrwt>0</asrwt>
<pdfrwt beam="1">  1        2 0.43327205E+00 0.16011879E+04</pdfrwt>
<pdfrwt beam="2">  1       -1 0.35013636E-01 0.16011879E+04</pdfrwt>
<totfact> 0.19221574E+01</totfact>
</mgrwt>
</event>
<event>
12    6  0.1494052E-007  0.1556964E+04  0.7818608E-02  0.8847432E-01
          2   -1    0    0  501    0  0.00000000000E+00  0.00000000000E+00  0.88999204118E+03  0.88999204118E+03  0.00000000000E+00 0. -1.
         -1   -1    0    0    0  501 -0.00000000000E+00 -0.00000000000E+00 -0.68094338527E+03  0.68094338527E+03  0.00000000000E+00 0.  1.
         24    2    1    2    0    0 -0.16085554485E+03  0.61253041176E+02  0.54968466980E+03  0.58198693283E+03  0.83241290339E+02 0.  0.
        254    2    1    2    0    0  0.16085554485E+03 -0.61253041176E+02 -0.34063601389E+03  0.98894849362E+03  0.91233754046E+03 0.  0.
         23    2    4    4    0    0 -0.11079769932E+03 -0.42884659025E+03 -0.24169805398E+03  0.51231244927E+03  0.88659845697E+02 0.  0.
         23    2    4    4    0    0  0.27165324417E+03  0.36759354907E+03 -0.98937959907E+02  0.47663604435E+03  0.92047251319E+02 0.  0.
          4    1    3    3  502    0 -0.98468471127E+02  0.48029601291E+02  0.45375320499E+03  0.46679208803E+03  0.00000000000E+00 0. -1.
         -3    1    3    3    0  502 -0.62387073719E+02  0.13223439885E+02  0.95931464804E+02  0.11519484480E+03  0.00000000000E+00 0.  1.
         11    1    5    5    0    0 -0.97975505183E+02 -0.33891135366E+03 -0.15037714517E+03  0.38350148767E+03  0.00000000000E+00 0.  1.
        -11    1    5    5    0    0 -0.12822194138E+02 -0.89935236592E+02 -0.91320908816E+02  0.12881096161E+03  0.00000000000E+00 0. -1.
          4    1    6    6  503    0  0.22397779913E+03  0.26183230375E+03 -0.10575619291E+03  0.36042555699E+03  0.00000000000E+00 0.  1.
         -4    1    6    6    0  503  0.47675445036E+02  0.10576124532E+03  0.68182330018E+01  0.11621048736E+03  0.00000000000E+00 0. -1.
<mgrwt>
<rscale>  0 0.15569640E+04</rscale>
<asrwt>0</asrwt>
<pdfrwt beam="1">  1        2 0.13692185E+00 0.15569640E+04</pdfrwt>
<pdfrwt beam="2">  1       -1 0.10476052E+00 0.15569640E+04</pdfrwt>
<totfact> 0.28000039E+01</totfact>
</mgrwt>
</event>
<event>
12    6  0.1494052E-007  0.1300176E+04  0.7818608E-02  0.9029426E-01
          4   -1    0    0  501    0  0.00000000000E+00  0.00000000000E+00  0.12266289758E+04  0.12266289758E+04  0.00000000000E+00 0. -1.
         -3   -1    0    0    0  501 -0.00000000000E+00 -0.00000000000E+00 -0.34453319656E+03  0.34453319656E+03  0.00000000000E+00 0.  1.
         24    2    1    2    0    0  0.20109755166E+03 -0.21465595435E+03 -0.54412461623E+00  0.30468287313E+03  0.79460386906E+02 0.  0.
        254    2    1    2    0    0 -0.20109755166E+03  0.21465595435E+03  0.88263990382E+03  0.12664792992E+04  0.85930158353E+03 0.  0.
         23    2    4    4    0    0 -0.33907699522E+03  0.42867639797E+03  0.31543338543E+03  0.63768635356E+03  0.91700610726E+02 0.  0.
         23    2    4    4    0    0  0.13797944356E+03 -0.21402044362E+03  0.56720651839E+03  0.62879294564E+03  0.93884273667E+02 0.  0.
          4    1    3    3  502    0  0.99152767712E+02 -0.10213499732E+03  0.39366327373E+02  0.14769067930E+03  0.00000000000E+00 0. -1.
         -3    1    3    3    0  502  0.10194478394E+03 -0.11252095703E+03 -0.39910451989E+02  0.15699219382E+03  0.00000000000E+00 0.  1.
         11    1    5    5    0    0 -0.21672766274E+03  0.31254498708E+03  0.17717789429E+03  0.41957985530E+03  0.00000000000E+00 0. -1.
        -11    1    5    5    0    0 -0.12234933248E+03  0.11613141089E+03  0.13825549114E+03  0.21810649826E+03  0.00000000000E+00 0.  1.
          3    1    6    6  503    0  0.11050467308E+03 -0.21528190689E+03  0.52896035525E+03  0.58168431270E+03  0.00000000000E+00 0. -1.
         -3    1    6    6    0  503  0.27474770483E+02  0.12614632691E+01  0.38246163137E+02  0.47108632938E+02  0.00000000000E+00 0.  1.
<mgrwt>
<rscale>  0 0.13001760E+04</rscale>
<asrwt>0</asrwt>
<pdfrwt beam="1">  1        4 0.18871215E+00 0.13001760E+04</pdfrwt>
<pdfrwt beam="2">  1       -3 0.53005108E-01 0.13001760E+04</pdfrwt>
<totfact> 0.12348285E+00</totfact>
</mgrwt>
</event>
<event>
12    6  0.1494052E-007  0.3022910E+04  0.7818608E-02  0.8237219E-01
          2   -1    0    0  501    0  0.00000000000E+00  0.00000000000E+00  0.21042421766E+04  0.21042421766E+04  0.00000000000E+00 0. -1.
         -1   -1    0    0    0  501 -0.00000000000E+00 -0.00000000000E+00 -0.10856625381E+04  0.10856625381E+04  0.00000000000E+00 0.  1.
         24    2    1    2    0    0  0.67863407863E+03  0.90124748134E+03 -0.36549877900E+03  0.11884731575E+04  0.78024696569E+02 0.  0.
        254    2    1    2    0    0 -0.67863407863E+03 -0.90124748134E+03  0.13840784175E+04  0.20014315572E+04  0.90402653546E+03 0.  0.
         23    2    4    4    0    0 -0.51193344811E+02  0.17104415732E+03  0.18734649894E+03  0.27417186259E+03  0.90524235809E+02 0.  0.
         23    2    4    4    0    0 -0.62744073382E+03 -0.10722916387E+04  0.11967319186E+04  0.17272596946E+04  0.88133618458E+02 0.  0.
          4    1    3    3  502    0  0.44446185578E+03  0.61249404977E+03 -0.20894105970E+03  0.78508067653E+03  0.00000000000E+00 0. -1.
         -3    1    3    3    0  502  0.23417222286E+03  0.28875343158E+03 -0.15655771931E+03  0.40339248094E+03  0.00000000000E+00 0.  1.
         11    1    5    5    0    0 -0.60709913290E+02  0.52321236566E+02  0.62580488774E+02  0.10168344478E+03  0.00000000000E+00 0. -1.
        -11    1    5    5    0    0  0.95165684788E+01  0.11872292075E+03  0.12476601016E+03  0.17248841781E+03  0.00000000000E+00 0.  1.
          3    1    6    6  503    0 -0.50174507354E+02 -0.10303055516E+03  0.79143016886E+02  0.13927093597E+03  0.00000000000E+00 0. -1.
         -3    1    6    6    0  503 -0.57726622647E+03 -0.96926108349E+03  0.11175889017E+04  0.15879887586E+04  0.00000000000E+00 0.  1.
<mgrwt>
<rscale>  0 0.30229105E+04</rscale>
<asrwt>0</asrwt>
<pdfrwt beam="1">  1        2 0.32372957E+00 0.30229105E+04</pdfrwt>
<pdfrwt beam="2">  1       -1 0.16702501E+00 0.30229105E+04</pdfrwt>
<totfact> 0.14698108E+00</totfact>
</mgrwt>
</event>
<event>
12    6  0.1494052E-007  0.1796907E+04  0.7818608E-02  0.8707946E-01
         -1   -1    0    0    0  501 -0.00000000000E+00  0.00000000000E+00  0.54107465663E+03  0.54107465663E+03  0.00000000000E+00 0.  1.
          2   -1    0    0  501    0  0.00000000000E+00 -0.00000000000E+00 -0.14918808162E+04  0.14918808162E+04  0.00000000000E+00 0. -1.
         24    2    1    2    0    0 -0.61041262560E+03 -0.21042824956E+03 -0.15483449832E+03  0.66899645258E+03  0.81846869113E+02 0.  0.
        254    2    1    2    0    0  0.61041262560E+03  0.21042824956E+03 -0.79597166121E+03  0.13639590202E+04  0.89996094452E+03 0.  0.
         23    2    4    4    0    0  0.58496676228E+03  0.38244520483E+03 -0.19489669439E+03  0.73152642574E+03  0.93250964644E+02 0.  0.
         23    2    4    4    0    0  0.25445863327E+02 -0.17201695527E+03 -0.60107496681E+03  0.63243259447E+03  0.91883327974E+02 0.  0.
          2    1    3    3  502    0 -0.49798367697E+02  0.47054682481E+01 -0.17711810973E+02  0.53063425301E+02  0.00000000000E+00 0. -1.
         -1    1    3    3    0  502 -0.56061425791E+03 -0.21513371781E+03 -0.13712268735E+03  0.61593302728E+03  0.00000000000E+00 0.  1.
         11    1    5    5    0    0  0.21136401073E+03  0.18617830378E+03 -0.10065730568E+03  0.29911368911E+03  0.00000000000E+00 0. -1.
        -11    1    5    5    0    0  0.37360275155E+03  0.19626690106E+03 -0.94239388714E+02  0.43241273663E+03  0.00000000000E+00 0.  1.
          4    1    6    6  503    0  0.15405905370E+02 -0.10736206784E+03 -0.21453301485E+03  0.24039211716E+03  0.00000000000E+00 0. -1.
         -4    1    6    6    0  503  0.10039957956E+02 -0.64654887429E+02 -0.38654195196E+03  0.39204047731E+03  0.00000000000E+00 0.  1.
<mgrwt>
<rscale>  0 0.17969072E+04</rscale>
<asrwt>0</asrwt>
<pdfrwt beam="1">  1        2 0.22952013E+00 0.17969072E+04</pdfrwt>
<pdfrwt beam="2">  1       -1 0.83242255E-01 0.17969072E+04</pdfrwt>
<totfact> 0.19773542E+01</totfact>
</mgrwt>
</event>
<event>
12    6  0.1494052E-007  0.1531258E+04  0.7818608E-02  0.8863929E-01
          2   -1    0    0  501    0  0.00000000000E+00  0.00000000000E+00  0.20487281193E+04  0.20487281193E+04  0.00000000000E+00 0. -1.
         -1   -1    0    0    0  501 -0.00000000000E+00 -0.00000000000E+00 -0.28612269543E+03  0.28612269543E+03  0.00000000000E+00 0.  1.
         24    2    1    2    0    0  0.19525317606E+03 -0.36894798761E+03  0.10575234334E+04  0.11396125488E+04  0.78195452782E+02 0.  0.
        254    2    1    2    0    0 -0.19525317606E+03  0.36894798761E+03  0.70508199047E+03  0.11952382659E+04  0.87017669398E+03 0.  0.
         23    2    4    4    0    0  0.22113778848E+03  0.25079714287E+03 -0.19006769374E+02  0.34691207166E+03  0.90474304698E+02 0.  0.
         23    2    4    4    0    0 -0.41639096454E+03  0.11815084473E+03  0.72408875984E+03  0.84832619427E+03  0.89508336474E+02 0.  0.
          4    1    3    3  502    0  0.20122006636E+03 -0.35959180929E+03  0.10421108080E+04  0.11206206854E+04  0.00000000000E+00 0. -1.
         -3    1    3    3    0  502 -0.59668903054E+01 -0.93561783143E+01  0.15412625368E+02  0.18991863345E+02  0.00000000000E+00 0.  1.
         11    1    5    5    0    0  0.18517537643E+03  0.14937365817E+03 -0.24439131589E+02  0.23916454784E+03  0.00000000000E+00 0. -1.
        -11    1    5    5    0    0  0.35962412058E+02  0.10142348470E+03  0.54323622149E+01  0.10774752382E+03  0.00000000000E+00 0.  1.
          3    1    6    6  503    0 -0.41061521443E+03  0.10535669900E+03  0.71611752714E+03  0.83218339386E+03  0.00000000000E+00 0. -1.
         -3    1    6    6    0  503 -0.57757501168E+01  0.12794145732E+02  0.79712327073E+01  0.16142800417E+02  0.00000000000E+00 0.  1.
<mgrwt>
<rscale>  0 0.15312578E+04</rscale>
<asrwt>0</asrwt>
<pdfrwt beam="1">  1        2 0.31518893E+00 0.15312578E+04</pdfrwt>
<pdfrwt beam="2">  1       -1 0.44018878E-01 0.15312578E+04</pdfrwt>
<totfact> 0.35182253E+01</totfact>
</mgrwt>
</event>
<event>
12    6  0.1494052E-007  0.2253860E+04  0.7818608E-02  0.8496339E-01
         -1   -1    0    0    0  501 -0.00000000000E+00  0.00000000000E+00  0.40893041100E+03  0.40893041100E+03  0.00000000000E+00 0.  1.
          2   -1    0    0  501    0  0.00000000000E+00 -0.00000000000E+00 -0.31055931477E+04  0.31055931477E+04  0.00000000000E+00 0. -1.
         24    2    1    2    0    0  0.69722066015E+02  0.13037820273E+03  0.31811838673E+03  0.36260866545E+03  0.91793758209E+02 0.  0.
        254    2    1    2    0    0 -0.69722066015E+02 -0.13037820273E+03 -0.30147811235E+04  0.31519148933E+04  0.90763573633E+03 0.  0.
         23    2    4    4    0    0 -0.14818036027E+03  0.10615618229E+03 -0.28076812473E+04  0.28150452777E+04  0.90439894274E+02 0.  0.
         23    2    4    4    0    0  0.78458294251E+02 -0.23653438502E+03 -0.20709987611E+03  0.33686961559E+03  0.92122527050E+02 0.  0.
          2    1    3    3  502    0  0.36295275170E+02 -0.30429501937E+01  0.62772542052E+02  0.72574090289E+02  0.00000000000E+00 0. -1.
         -1    1    3    3    0  502  0.33426790845E+02  0.13342115293E+03  0.25534584468E+03  0.29003457516E+03  0.00000000000E+00 0.  1.
         11    1    5    5    0    0 -0.13178215050E+03  0.78031798286E+02 -0.26265689556E+04  0.26310302118E+04  0.00000000000E+00 0.  1.
        -11    1    5    5    0    0 -0.16398209761E+02  0.28124384006E+02 -0.18111229172E+03  0.18401506588E+03  0.00000000000E+00 0. -1.
          1    1    6    6  503    0  0.70247547155E+02 -0.16376649639E+03 -0.19227887262E+03  0.26215519846E+03  0.00000000000E+00 0. -1.
         -1    1    6    6    0  503  0.82107470965E+01 -0.72767888630E+02 -0.14821003490E+02  0.74714417136E+02  0.00000000000E+00 0.  1.
<mgrwt>
<rscale>  0 0.22538602E+04</rscale>
<asrwt>0</asrwt>
<pdfrwt beam="1">  1        2 0.47778357E+00 0.22538602E+04</pdfrwt>
<pdfrwt beam="2">  1       -1 0.62912370E-01 0.22538602E+04</pdfrwt>
<totfact> 0.39652814E+00</totfact>
</mgrwt>
</event>
<event>
12    6  0.1494052E-007  0.1410840E+04  0.7818608E-02  0.8946009E-01
          2   -1    0    0  501    0  0.00000000000E+00  0.00000000000E+00  0.46239944068E+03  0.46239944068E+03  0.00000000000E+00 0. -1.
         -1   -1    0    0    0  501 -0.00000000000E+00 -0.00000000000E+00 -0.10761634967E+04  0.10761634967E+04  0.00000000000E+00 0.  1.
         24    2    1    2    0    0  0.31986609952E+03  0.51925425134E+02 -0.46875022206E+03  0.57553776895E+03  0.80662143614E+02 0.  0.
        254    2    1    2    0    0 -0.31986609952E+03 -0.51925425134E+02 -0.14501383400E+03  0.96302516847E+03  0.89519712447E+03 0.  0.
         23    2    4    4    0    0 -0.31089274089E+03 -0.32651037338E+03 -0.37500228590E+03  0.59396114678E+03  0.94338800055E+02 0.  0.
         23    2    4    4    0    0 -0.89733586313E+01  0.27458494824E+03  0.22998845191E+03  0.36906402169E+03  0.88522026212E+02 0.  0.
          4    1    3    3  502    0  0.57733075022E+02  0.41712201279E+02 -0.89080707847E+02  0.11405432126E+03  0.00000000000E+00 0. -1.
         -3    1    3    3    0  502  0.26213302450E+03  0.10213223856E+02 -0.37966951422E+03  0.46148344770E+03  0.00000000000E+00 0.  1.
         11    1    5    5    0    0 -0.20586524409E+03 -0.22137886502E+03 -0.19159758688E+03  0.35790883742E+03  0.00000000000E+00 0.  1.
        -11    1    5    5    0    0 -0.10502749679E+03 -0.10513150835E+03 -0.18340469903E+03  0.23605230937E+03  0.00000000000E+00 0. -1.
          1    1    6    6  503    0 -0.18505725271E+02  0.67605572307E+02  0.10760684522E+03  0.12842199349E+03  0.00000000000E+00 0. -1.
         -1    1    6    6    0  503  0.95323666393E+01  0.20697937594E+03  0.12238160669E+03  0.24064202819E+03  0.00000000000E+00 0.  1.
<mgrwt>
<rscale>  0 0.14108400E+04</rscale>
<asrwt>0</asrwt>
<pdfrwt beam="1">  1        2 0.71138375E-01 0.14108400E+04</pdfrwt>
<pdfrwt beam="2">  1       -1 0.16556362E+00 0.14108400E+04</pdfrwt>
<totfact> 0.19899380E+01</totfact>
</mgrwt>
</event>
<event>
12    6  0.1494052E-007  0.1533125E+04  0.7818608E-02  0.8862719E-01
         -1   -1    0    0    0  501 -0.00000000000E+00  0.00000000000E+00  0.37306357004E+03  0.37306357004E+03  0.00000000000E+00 0.  1.
          2   -1    0    0  501    0  0.00000000000E+00 -0.00000000000E+00 -0.15751154181E+04  0.15751154181E+04  0.00000000000E+00 0. -1.
         24    2    1    2    0    0  0.11281246081E+03 -0.70619261509E+02 -0.10053277104E+04  0.10172324582E+04  0.79776796220E+02 0.  0.
        254    2    1    2    0    0 -0.11281246081E+03  0.70619261509E+02 -0.19672413768E+03  0.93094653000E+03  0.90013739171E+03 0.  0.
         23    2    4    4    0    0 -0.29051114041E+03  0.31165014058E+03 -0.36787689339E+03  0.57114524599E+03  0.96700312832E+02 0.  0.
         23    2    4    4    0    0  0.17769867960E+03 -0.24103087907E+03  0.17115275572E+03  0.35980128400E+03  0.10242554752E+03 0.  0.
          2    1    3    3  502    0  0.10592648503E+03 -0.78714055726E+02 -0.98889888137E+03  0.99766593626E+03  0.00000000000E+00 0. -1.
         -3    1    3    3    0  502  0.68859757816E+01  0.80947942171E+01 -0.16428829053E+02  0.19566521917E+02  0.00000000000E+00 0.  1.
         11    1    5    5    0    0 -0.59533091196E+02  0.11436033637E+03 -0.14721941765E+03  0.19569372094E+03  0.00000000000E+00 0. -1.
        -11    1    5    5    0    0 -0.23097804922E+03  0.19728980421E+03 -0.22065747575E+03  0.37545152506E+03  0.00000000000E+00 0.  1.
          4    1    6    6  503    0  0.29563753813E+02 -0.10370282737E+03  0.25615166644E+02  0.11083514202E+03  0.00000000000E+00 0. -1.
         -4    1    6    6    0  503  0.14813492578E+03 -0.13732805170E+03  0.14553758907E+03  0.24896614198E+03  0.00000000000E+00 0.  1.
<mgrwt>
<rscale>  0 0.15331251E+04</rscale>
<asrwt>0</asrwt>
<pdfrwt beam="1">  1        2 0.24232545E+00 0.15331251E+04</pdfrwt>
<pdfrwt beam="2">  1       -1 0.57394395E-01 0.15331251E+04</pdfrwt>
<totfact> 0.38875635E+01</totfact>
</mgrwt>
</event>
<event>
12    6  0.1494052E-007  0.2147572E+04  0.7818608E-02  0.8540572E-01
          2   -1    0    0  501    0  0.00000000000E+00  0.00000000000E+00  0.10825112180E+04  0.10825112180E+04  0.00000000000E+00 0. -1.
         -1   -1    0    0    0  501 -0.00000000000E+00 -0.00000000000E+00 -0.10651306981E+04  0.10651306981E+04  0.00000000000E+00 0.  1.
         24    2    1    2    0    0  0.25011238326E+02  0.81141712610E+03  0.15334374859E+03  0.83002701682E+03  0.80045167600E+02 0.  0.
        254    2    1    2    0    0 -0.25011238326E+02 -0.81141712610E+03 -0.13596322866E+03  0.13176148993E+04  0.10288827478E+04 0.  0.
         23    2    4    4    0    0  0.28628447571E+03 -0.71011746852E+02  0.27344160850E+03  0.41183232269E+03  0.88510335726E+02 0.  0.
         23    2    4    4    0    0 -0.31129571403E+03 -0.74040537925E+03 -0.40940483717E+03  0.90578257660E+03  0.87889750163E+02 0.  0.
          4    1    3    3  502    0  0.21628920027E+02  0.75456256880E+03  0.16297044612E+03  0.77226410425E+03  0.00000000000E+00 0. -1.
         -1    1    3    3    0  502  0.33823182985E+01  0.56854557304E+02 -0.96266975317E+01  0.57762912571E+02  0.00000000000E+00 0.  1.
         11    1    5    5    0    0  0.22929974820E+03 -0.41551885424E+02  0.25421734223E+03  0.34486430780E+03  0.00000000000E+00 0. -1.
        -11    1    5    5    0    0  0.56984727508E+02 -0.29459861428E+02  0.19224266279E+02  0.66968014891E+02  0.00000000000E+00 0.  1.
          3    1    6    6  503    0 -0.27326705192E+03 -0.55880913562E+03 -0.30330260267E+03  0.69205129904E+03  0.00000000000E+00 0. -1.
         -3    1    6    6    0  503 -0.38028662107E+02 -0.18159624362E+03 -0.10610223450E+03  0.21373127756E+03  0.00000000000E+00 0.  1.
<mgrwt>
<rscale>  0 0.21475716E+04</rscale>
<asrwt>0</asrwt>
<pdfrwt beam="1">  1        2 0.16654019E+00 0.21475716E+04</pdfrwt>
<pdfrwt beam="2">  1       -1 0.16386626E+00 0.21475716E+04</pdfrwt>
<totfact> 0.63899152E+00</totfact>
</mgrwt>
</event>
<event>
12    6  0.1494052E-007  0.1846225E+04  0.7818608E-02  0.8682096E-01
         -1   -1    0    0    0  501 -0.00000000000E+00  0.00000000000E+00  0.50914663698E+03  0.50914663698E+03  0.00000000000E+00 0.  1.
          2   -1    0    0  501    0  0.00000000000E+00 -0.00000000000E+00 -0.16736575214E+04  0.16736575214E+04  0.00000000000E+00 0. -1.
         24    2    1    2    0    0  0.50163930009E+03  0.96727292733E+02  0.14000149761E+03  0.53556137364E+03  0.78913934446E+02 0.  0.
        254    2    1    2    0    0 -0.50163930009E+03 -0.96727292733E+02 -0.13045123821E+04  0.16472427848E+04  0.86640526340E+03 0.  0.
         23    2    4    4    0    0 -0.25727960467E+03 -0.19748414826E+03 -0.13227820100E+04  0.13649303553E+04  0.89943566228E+02 0.  0.
         23    2    4    4    0    0 -0.24435969542E+03  0.10075685553E+03  0.18269627930E+02  0.28231242945E+03  0.97482941255E+02 0.  0.
          2    1    3    3  502    0  0.79729336062E+02  0.40996413418E+02  0.41213015867E+02  0.98671098194E+02  0.00000000000E+00 0. -1.
         -3    1    3    3    0  502  0.42190996403E+03  0.55730879315E+02  0.98788481744E+02  0.43689027545E+03  0.00000000000E+00 0.  1.
         11    1    5    5    0    0 -0.25331988761E+02 -0.48329919476E+02 -0.33339408526E+03  0.33782999698E+03  0.00000000000E+00 0. -1.
        -11    1    5    5    0    0 -0.23194761591E+03 -0.14915422879E+03 -0.98938792474E+03  0.10271003583E+04  0.00000000000E+00 0.  1.
          3    1    6    6  503    0 -0.68697422671E+02 -0.49854757795E+01 -0.24051997139E+02  0.72956764023E+02  0.00000000000E+00 0. -1.
         -3    1    6    6    0  503 -0.17566227275E+03  0.10574233131E+03  0.42321625069E+02  0.20935566543E+03  0.00000000000E+00 0.  1.
<mgrwt>
<rscale>  0 0.18462254E+04</rscale>
<asrwt>0</asrwt>
<pdfrwt beam="1">  1        2 0.25748577E+00 0.18462254E+04</pdfrwt>
<pdfrwt beam="2">  1       -1 0.78330253E-01 0.18462254E+04</pdfrwt>
<totfact> 0.17730804E+01</totfact>
</mgrwt>
</event>
<event>
12    6  0.1494052E-007  0.2959659E+04  0.7818608E-02  0.8255345E-01
         -1   -1    0    0    0  501 -0.00000000000E+00  0.00000000000E+00  0.24106931043E+04  0.24106931043E+04  0.00000000000E+00 0.  1.
          2   -1    0    0  501    0  0.00000000000E+00 -0.00000000000E+00 -0.90840931347E+03  0.90840931347E+03  0.00000000000E+00 0. -1.
         24    2    1    2    0    0 -0.98363917731E+03  0.72694094711E+03  0.12912926476E+04  0.17804642574E+04  0.81406991201E+02 0.  0.
        254    2    1    2    0    0  0.98363917731E+03 -0.72694094711E+03  0.21099114316E+03  0.15386381604E+04  0.90934094501E+03 0.  0.
         23    2    4    4    0    0 -0.14204001957E+02 -0.43512434404E+03  0.21644925683E+03  0.49502954073E+03  0.93107555899E+02 0.  0.
         23    2    4    4    0    0  0.99784317927E+03 -0.29181660308E+03 -0.54581136685E+01  0.10436086196E+04  0.90781163854E+02 0.  0.
          4    1    3    3  502    0 -0.18036558832E+03  0.13605088200E+03  0.28614145788E+03  0.36457992520E+03  0.00000000000E+00 0. -1.
         -3    1    3    3    0  502 -0.80327358900E+03  0.59089006511E+03  0.10051511897E+04  0.14158843322E+04  0.00000000000E+00 0.  1.
         11    1    5    5    0    0  0.33712564213E+02 -0.15907091496E+03  0.10463336273E+03  0.19336037228E+03  0.00000000000E+00 0. -1.
        -11    1    5    5    0    0 -0.47916566171E+02 -0.27605342908E+03  0.11181589410E+03  0.30166916845E+03  0.00000000000E+00 0.  1.
          1    1    6    6  503    0  0.29065524878E+03 -0.45492594398E+02 -0.16663855684E+02  0.29466546095E+03  0.00000000000E+00 0. -1.
         -1    1    6    6    0  503  0.70718793049E+03 -0.24632400868E+03  0.11205742015E+02  0.74894315868E+03  0.00000000000E+00 0.  1.
<mgrwt>
<rscale>  0 0.29596595E+04</rscale>
<asrwt>0</asrwt>
<pdfrwt beam="1">  1        2 0.13975528E+00 0.29596595E+04</pdfrwt>
<pdfrwt beam="2">  1       -1 0.37087586E+00 0.29596595E+04</pdfrwt>
<totfact> 0.31923678E-01</totfact>
</mgrwt>
</event>
<event>
12    6  0.1494052E-007  0.1980483E+04  0.7818608E-02  0.8615800E-01
         -3   -1    0    0    0  501 -0.00000000000E+00  0.00000000000E+00  0.46278293462E+03  0.46278293462E+03  0.00000000000E+00 0.  1.
          2   -1    0    0  501    0  0.00000000000E+00 -0.00000000000E+00 -0.21188732784E+04  0.21188732784E+04  0.00000000000E+00 0. -1.
         24    2    1    2    0    0  0.36589286085E+03 -0.41061455320E+01  0.23575867622E+03  0.44277411362E+03  0.81069823157E+02 0.  0.
        254    2    1    2    0    0 -0.36589286085E+03  0.41061455320E+01 -0.18918490200E+04  0.21388820994E+04  0.92834771212E+03 0.  0.
         23    2    4    4    0    0  0.27096201479E+03  0.81958361258E+01 -0.99357914372E+03  0.10340588904E+04  0.92685968386E+02 0.  0.
         23    2    4    4    0    0 -0.63685487564E+03 -0.40896905938E+01 -0.89826987624E+03  0.11048232090E+04  0.90247960456E+02 0.  0.
          2    1    3    3  502    0  0.48487796395E+02 -0.18416319352E+02  0.95305199398E+01  0.52735737674E+02  0.00000000000E+00 0. -1.
         -1    1    3    3    0  502  0.31740506446E+03  0.14310173820E+02  0.22622815628E+03  0.39003837594E+03  0.00000000000E+00 0.  1.
         11    1    5    5    0    0  0.33392242822E+01  0.17312991662E+02 -0.42772738186E+02  0.46264427275E+02  0.00000000000E+00 0.  1.
        -11    1    5    5    0    0  0.26762279051E+03 -0.91171555362E+01 -0.95080640553E+03  0.98779446310E+03  0.00000000000E+00 0. -1.
          2    1    6    6  503    0 -0.10993879908E+03 -0.85135187079E+01 -0.21840492410E+03  0.24466248265E+03  0.00000000000E+00 0.  1.
         -2    1    6    6    0  503 -0.52691607656E+03  0.44238281141E+01 -0.67986495213E+03  0.86016072634E+03  0.00000000000E+00 0. -1.
<mgrwt>
<rscale>  0 0.19804832E+04</rscale>
<asrwt>0</asrwt>
<pdfrwt beam="1">  1        2 0.32598050E+00 0.19804832E+04</pdfrwt>
<pdfrwt beam="2">  1       -3 0.71197374E-01 0.19804832E+04</pdfrwt>
<totfact> 0.64272657E+00</totfact>
</mgrwt>
</event>
<event>
12    6  0.1494052E-007  0.1282100E+04  0.7818608E-02  0.9043882E-01
          2   -1    0    0  501    0  0.00000000000E+00  0.00000000000E+00  0.19020863319E+04  0.19020863319E+04  0.00000000000E+00 0. -1.
         -1   -1    0    0    0  501 -0.00000000000E+00 -0.00000000000E+00 -0.21604956279E+03  0.21604956279E+03  0.00000000000E+00 0.  1.
         24    2    1    2    0    0  0.13375864693E+03  0.23842047014E+03  0.16259661044E+03  0.32822716478E+03  0.80992084561E+02 0.  0.
        254    2    1    2    0    0 -0.13375864693E+03 -0.23842047014E+03  0.15234401587E+04  0.17899087299E+04  0.89898145039E+03 0.  0.
         23    2    4    4    0    0  0.19531320062E+02 -0.15658497544E+03  0.15762623236E+04  0.15867760444E+04  0.91405552649E+02 0.  0.
         23    2    4    4    0    0 -0.15328996699E+03 -0.81835494697E+02 -0.52822164960E+02  0.20313268555E+03  0.90982661284E+02 0.  0.
          4    1    3    3  502    0  0.78020212547E+01  0.14937304032E+02 -0.94704917039E+01  0.19330928600E+02  0.00000000000E+00 0. -1.
         -3    1    3    3    0  502  0.12595662568E+03  0.22348316610E+03  0.17206710215E+03  0.30889623618E+03  0.00000000000E+00 0.  1.
         11    1    5    5    0    0 -0.19245883734E+01  0.79904548516E+00 -0.40919459992E+00  0.21236653020E+01  0.00000000000E+00 0.  1.
        -11    1    5    5    0    0  0.21455908436E+02 -0.15738402093E+03  0.15766715182E+04  0.15846523791E+04  0.00000000000E+00 0. -1.
          2    1    6    6  503    0 -0.59213427871E+02 -0.78487398031E+02 -0.46567738550E+02  0.10878904340E+03  0.00000000000E+00 0. -1.
         -2    1    6    6    0  503 -0.94076539123E+02 -0.33480966656E+01 -0.62544264106E+01  0.94343642151E+02  0.00000000000E+00 0.  1.
<mgrwt>
<rscale>  0 0.12820997E+04</rscale>
<asrwt>0</asrwt>
<pdfrwt beam="1">  1        2 0.29262866E+00 0.12820997E+04</pdfrwt>
<pdfrwt beam="2">  1       -1 0.33238396E-01 0.12820997E+04</pdfrwt>
<totfact> 0.72092367E+01</totfact>
</mgrwt>
</event>
<event>
12    6  0.1494052E-007  0.2275767E+04  0.7818608E-02  0.8487537E-01
         -1   -1    0    0    0  501 -0.00000000000E+00  0.00000000000E+00  0.11985410535E+04  0.11985410535E+04  0.00000000000E+00 0.  1.
          2   -1    0    0  501    0  0.00000000000E+00 -0.00000000000E+00 -0.10802960206E+04  0.10802960206E+04  0.00000000000E+00 0. -1.
         24    2    1    2    0    0  0.99298037410E+02  0.14988935431E+02 -0.90736276382E+03  0.91659411026E+03  0.82175479159E+02 0.  0.
        254    2    1    2    0    0 -0.99298037410E+02 -0.14988935431E+02  0.10256077967E+04  0.13622429639E+04  0.89092635586E+03 0.  0.
         23    2    4    4    0    0 -0.41428862254E+03  0.52394074025E+01  0.92502123623E+03  0.10182882035E+04  0.97898231571E+02 0.  0.
         23    2    4    4    0    0  0.31499058513E+03 -0.20228342833E+02  0.10058656046E+03  0.34395476037E+03  0.92514682431E+02 0.  0.
          2    1    3    3  502    0  0.96317127163E+02 -0.85540133363E+01 -0.54931772468E+03  0.55776350076E+03  0.00000000000E+00 0. -1.
         -1    1    3    3    0  502  0.29809102463E+01  0.23542948767E+02 -0.35804503914E+03  0.35883060950E+03  0.00000000000E+00 0.  1.
         11    1    5    5    0    0 -0.33412984944E+03  0.70639764308E+01  0.82482672423E+03  0.88996167392E+03  0.00000000000E+00 0. -1.
        -11    1    5    5    0    0 -0.80158773098E+02 -0.18245690282E+01  0.10019451200E+03  0.12832652957E+03  0.00000000000E+00 0.  1.
          4    1    6    6  503    0  0.19766490983E+03  0.29847058522E+01  0.17778215363E+02  0.19848523872E+03  0.00000000000E+00 0. -1.
         -4    1    6    6    0  503  0.11732567530E+03 -0.23213048685E+02  0.82808345093E+02  0.14546952165E+03  0.00000000000E+00 0.  1.
<mgrwt>
<rscale>  0 0.22757672E+04</rscale>
<asrwt>0</asrwt>
<pdfrwt beam="1">  1        2 0.16619939E+00 0.22757672E+04</pdfrwt>
<pdfrwt beam="2">  1       -1 0.18439093E+00 0.22757672E+04</pdfrwt>
<totfact> 0.44931357E+00</totfact>
</mgrwt>
</event>
<event>
12    6  0.1494052E-007  0.1880591E+04  0.7818608E-02  0.8664578E-01
          2   -1    0    0  501    0  0.00000000000E+00  0.00000000000E+00  0.19260423564E+04  0.19260423564E+04  0.00000000000E+00 0. -1.
         -1   -1    0    0    0  501 -0.00000000000E+00 -0.00000000000E+00 -0.45905289302E+03  0.45905289302E+03  0.00000000000E+00 0.  1.
         24    2    1    2    0    0 -0.76412197225E+02  0.66349447960E+03  0.23970106658E+03  0.71429941057E+03  0.81873672705E+02 0.  0.
        254    2    1    2    0    0  0.76412197225E+02 -0.66349447960E+03  0.12272883968E+04  0.16707958388E+04  0.91611035242E+03 0.  0.
         23    2    4    4    0    0 -0.37253049471E+03 -0.16190413171E+03  0.26479802723E+03  0.49268280844E+03  0.87329474720E+02 0.  0.
         23    2    4    4    0    0  0.44894269194E+03 -0.50159034789E+03  0.96249036956E+03  0.11781130304E+04  0.91761555818E+02 0.  0.
          4    1    3    3  502    0 -0.30184250385E+01  0.67025959956E+01  0.14229472847E+02  0.16016041343E+02  0.00000000000E+00 0. -1.
         -3    1    3    3    0  502 -0.73393772187E+02  0.65679188360E+03  0.22547159374E+03  0.69828336923E+03  0.00000000000E+00 0.  1.
         11    1    5    5    0    0 -0.72057806433E+02 -0.80012467379E+01  0.18592789203E+02  0.74846771658E+02  0.00000000000E+00 0. -1.
        -11    1    5    5    0    0 -0.30047268828E+03 -0.15390288497E+03  0.24620523802E+03  0.41783603678E+03  0.00000000000E+00 0.  1.
          1    1    6    6  503    0  0.90000727779E+01 -0.21251395351E+02  0.12450242591E+02  0.26222731645E+02  0.00000000000E+00 0. -1.
         -1    1    6    6    0  503  0.43994261916E+03 -0.48033895254E+03  0.95004012697E+03  0.11518902987E+04  0.00000000000E+00 0.  1.
<mgrwt>
<rscale>  0 0.18805907E+04</rscale>
<asrwt>0</asrwt>
<pdfrwt beam="1">  1        2 0.29631420E+00 0.18805907E+04</pdfrwt>
<pdfrwt beam="2">  1       -1 0.70623523E-01 0.18805907E+04</pdfrwt>
<totfact> 0.15893554E+01</totfact>
</mgrwt>
</event>
<event>
12    6  0.1494052E-007  0.1397096E+04  0.7818608E-02  0.8955923E-01
         -1   -1    0    0    0  501 -0.00000000000E+00  0.00000000000E+00  0.14885900145E+04  0.14885900145E+04  0.00000000000E+00 0.  1.
          2   -1    0    0  501    0  0.00000000000E+00 -0.00000000000E+00 -0.32780653500E+03  0.32780653500E+03  0.00000000000E+00 0. -1.
         24    2    1    2    0    0  0.38373411393E+02 -0.40312697024E+03  0.36920809215E+03  0.55384883512E+03  0.80312166035E+02 0.  0.
        254    2    1    2    0    0 -0.38373411393E+02  0.40312697024E+03  0.79157538734E+03  0.12625477144E+04  0.89635443011E+03 0.  0.
         23    2    4    4    0    0 -0.14693379269E+03 -0.10145440144E+02  0.80693771222E+03  0.82524767951E+03  0.90514041665E+02 0.  0.
         23    2    4    4    0    0  0.10856038129E+03  0.41327241039E+03 -0.15362324885E+02  0.43730003486E+03  0.91738094003E+02 0.  0.
          4    1    3    3  502    0  0.20818984861E+02 -0.70506963589E+02  0.32999314747E+02  0.80582980951E+02  0.00000000000E+00 0. -1.
         -3    1    3    3    0  502  0.17554426532E+02 -0.33262000665E+03  0.33620877741E+03  0.47326585417E+03  0.00000000000E+00 0.  1.
         11    1    5    5    0    0 -0.35176349088E+02 -0.39377314737E+02  0.17326490021E+03  0.18113164852E+03  0.00000000000E+00 0. -1.
        -11    1    5    5    0    0 -0.11175744360E+03  0.29231874593E+02  0.63367281201E+03  0.64411603099E+03  0.00000000000E+00 0.  1.
          4    1    6    6  503    0  0.35791096486E+02  0.10187802211E+03 -0.43208038145E+02  0.11630592649E+03  0.00000000000E+00 0.  1.
         -4    1    6    6    0  503  0.72769284809E+02  0.31139438828E+03  0.27845713260E+02  0.32099410837E+03  0.00000000000E+00 0. -1.
<mgrwt>
<rscale>  0 0.13970963E+04</rscale>
<asrwt>0</asrwt>
<pdfrwt beam="1">  1        2 0.50431775E-01 0.13970963E+04</pdfrwt>
<pdfrwt beam="2">  1       -1 0.22901385E+00 0.13970963E+04</pdfrwt>
<totfact> 0.10626023E+01</totfact>
</mgrwt>
</event>
<event>
12    6  0.1494052E-007  0.2224508E+04  0.7818608E-02  0.8508296E-01
         -1   -1    0    0    0  501 -0.00000000000E+00  0.00000000000E+00  0.57121666219E+03  0.57121666219E+03  0.00000000000E+00 0.  1.
          2   -1    0    0  501    0  0.00000000000E+00 -0.00000000000E+00 -0.21657446383E+04  0.21657446383E+04  0.00000000000E+00 0. -1.
         24    2    1    2    0    0 -0.13545832142E+03  0.47395155457E+02 -0.17921225845E+04  0.17996427781E+04  0.80096898074E+02 0.  0.
        254    2    1    2    0    0  0.13545832142E+03 -0.47395155457E+02  0.19759460842E+03  0.93731852242E+03  0.90494592412E+03 0.  0.
         23    2    4    4    0    0  0.51975512940E+02 -0.30692393632E+03  0.44898373913E+03  0.55381346715E+03  0.90659813375E+02 0.  0.
         23    2    4    4    0    0  0.83482808482E+02  0.25952878086E+03 -0.25138913071E+03  0.38350505526E+03  0.97750012620E+02 0.  0.
          2    1    3    3  502    0 -0.14012169264E+03  0.58841391718E+02 -0.16508278362E+04  0.16578084760E+04  0.00000000000E+00 0. -1.
         -1    1    3    3    0  502  0.46633712128E+01 -0.11446236261E+02 -0.14129474830E+03  0.14183430211E+03  0.00000000000E+00 0.  1.
         11    1    5    5    0    0 -0.15289594973E+02 -0.94085754244E+02  0.18496434345E+03  0.20808101598E+03  0.00000000000E+00 0. -1.
        -11    1    5    5    0    0  0.67265107913E+02 -0.21283818208E+03  0.26401939568E+03  0.34573245117E+03  0.00000000000E+00 0.  1.
          4    1    6    6  503    0  0.65023076080E+02  0.25421848009E+03 -0.25264078934E+03  0.36425596012E+03  0.00000000000E+00 0.  1.
         -4    1    6    6    0  503  0.18459732403E+02  0.53103007751E+01  0.12516586339E+01  0.19249095148E+02  0.00000000000E+00 0. -1.
<mgrwt>
<rscale>  0 0.22245084E+04</rscale>
<asrwt>0</asrwt>
<pdfrwt beam="1">  1        2 0.33319148E+00 0.22245084E+04</pdfrwt>
<pdfrwt beam="2">  1       -1 0.87879487E-01 0.22245084E+04</pdfrwt>
<totfact> 0.71333355E+00</totfact>
</mgrwt>
</event>
<event>
12    6  0.1494052E-007  0.1803427E+04  0.7818608E-02  0.8704479E-01
          2   -1    0    0  501    0  0.00000000000E+00  0.00000000000E+00  0.52337169908E+03  0.52337169908E+03  0.00000000000E+00 0. -1.
         -1   -1    0    0    0  501 -0.00000000000E+00 -0.00000000000E+00 -0.15535553993E+04  0.15535553993E+04  0.00000000000E+00 0.  1.
         24    2    1    2    0    0 -0.80246764827E+02  0.22540042747E+03  0.33991006163E+03  0.42496906999E+03  0.88402287729E+02 0.  0.
        254    2    1    2    0    0  0.80246764827E+02 -0.22540042747E+03 -0.13700937619E+04  0.16519580284E+04  0.89138292296E+03 0.  0.
         23    2    4    4    0    0  0.11792016714E+03  0.22101015736E+03 -0.10778099016E+04  0.11095093393E+04  0.81155002843E+02 0.  0.
         23    2    4    4    0    0 -0.37673402312E+02 -0.44641058484E+03 -0.29228386030E+03  0.54244868915E+03  0.90105659524E+02 0.  0.
          2    1    3    3  502    0 -0.52091585555E+02  0.16507170792E+03  0.17058284042E+03  0.24302408829E+03  0.00000000000E+00 0. -1.
         -1    1    3    3    0  502 -0.28155179272E+02  0.60328719552E+02  0.16932722121E+03  0.18194498170E+03  0.00000000000E+00 0.  1.
         11    1    5    5    0    0  0.12534305699E+03  0.16715066825E+03 -0.86123557563E+03  0.88621495393E+03  0.00000000000E+00 0.  1.
        -11    1    5    5    0    0 -0.74228898464E+01  0.53859489117E+02 -0.21657432597E+03  0.22329438535E+03  0.00000000000E+00 0. -1.
          3    1    6    6  503    0  0.22421737425E+02 -0.21046101973E+03 -0.16022458491E+03  0.26545902272E+03  0.00000000000E+00 0. -1.
         -3    1    6    6    0  503 -0.60095139737E+02 -0.23594956511E+03 -0.13205927539E+03  0.27698966643E+03  0.00000000000E+00 0.  1.
<mgrwt>
<rscale>  0 0.18034267E+04</rscale>
<asrwt>0</asrwt>
<pdfrwt beam="1">  1        2 0.80518723E-01 0.18034267E+04</pdfrwt>
<pdfrwt beam="2">  1       -1 0.23900852E+00 0.18034267E+04</pdfrwt>
<totfact> 0.51809997E+00</totfact>
</mgrwt>
</event>
<event>
12    6  0.1594808E-007  0.2356074E+04  0.7818608E-02  0.8456134E-01
         -1   -1    0    0    0  501 -0.00000000000E+00  0.00000000000E+00  0.57325824082E+03  0.57325824082E+03  0.00000000000E+00 0.  1.
          2   -1    0    0  501    0  0.00000000000E+00 -0.00000000000E+00 -0.24208480497E+04  0.24208480497E+04  0.00000000000E+00 0. -1.
         24    2    1    2    0    0 -0.36540885274E+03  0.88662139142E+03 -0.42473907798E+03  0.10518691681E+04  0.80027126848E+02 0.  0.
        254    2    1    2    0    0  0.36540885274E+03 -0.88662139142E+03 -0.14228507309E+04  0.19422371224E+04  0.91003281037E+03 0.  0.
         23    2    4    4    0    0  0.31151793725E+03 -0.97843842050E+03 -0.14700074103E+04  0.17954546601E+04  0.91380972205E+02 0.  0.
         23    2    4    4    0    0  0.53890915482E+02  0.91817029079E+02  0.47156679427E+02  0.14678246234E+03  0.89368569620E+02 0.  0.
          4    1    3    3  502    0 -0.53210561289E+02  0.17691211351E+03 -0.54147233939E+02  0.19251281174E+03  0.00000000000E+00 0. -1.
         -3    1    3    3    0  502 -0.31219829145E+03  0.70970927791E+03 -0.37059184404E+03  0.85935635635E+03  0.00000000000E+00 0.  1.
         11    1    5    5    0    0  0.29126079216E+01 -0.29095101527E+01 -0.22284084997E+02  0.22661177780E+02  0.00000000000E+00 0.  1.
        -11    1    5    5    0    0  0.30860532933E+03 -0.97552891035E+03 -0.14477233253E+04  0.17727934823E+04  0.00000000000E+00 0. -1.
          4    1    6    6  503    0  0.61873157477E+02  0.87167975865E+02  0.66118066272E+02  0.12569066123E+03  0.00000000000E+00 0. -1.
         -4    1    6    6    0  503 -0.79822419952E+01  0.46490532140E+01 -0.18961386845E+02  0.21091801112E+02  0.00000000000E+00 0.  1.
<mgrwt>
<rscale>  0 0.23560739E+04</rscale>
<asrwt>0</asrwt>
<pdfrwt beam="1">  1        2 0.37243816E+00 0.23560739E+04</pdfrwt>
<pdfrwt beam="2">  1       -1 0.88193576E-01 0.23560739E+04</pdfrwt>
<totfact> 0.50150837E+00</totfact>
</mgrwt>
</event>
<event>
12    6  0.1607774E-007  0.2878602E+04  0.7818608E-02  0.8279273E-01
          2   -1    0    0  501    0  0.00000000000E+00  0.00000000000E+00  0.19758107722E+04  0.19758107722E+04  0.00000000000E+00 0. -1.
         -1   -1    0    0    0  501 -0.00000000000E+00 -0.00000000000E+00 -0.10484744238E+04  0.10484744238E+04  0.00000000000E+00 0.  1.
         24    2    1    2    0    0 -0.10574296489E+04 -0.21484343588E+02  0.12109763778E+04  0.16096160086E+04  0.76032020584E+02 0.  0.
        254    2    1    2    0    0  0.10574296489E+04  0.21484343588E+02 -0.28364002946E+03  0.14146691874E+04  0.89566634634E+03 0.  0.
         23    2    4    4    0    0  0.31433638445E+03 -0.92822139395E+02  0.30378381766E+03  0.45614740246E+03  0.91446884825E+02 0.  0.
         23    2    4    4    0    0  0.74309326449E+03  0.11430648298E+03 -0.58742384712E+03  0.95852178493E+03  0.91889413096E+02 0.  0.
          2    1    3    3  502    0 -0.10514293031E+04 -0.19270285828E+02  0.12100526156E+04  0.16031538466E+04  0.00000000000E+00 0. -1.
         -1    1    3    3    0  502 -0.60003458103E+01 -0.22140577596E+01  0.92376224663E+00  0.64621620449E+01  0.00000000000E+00 0.  1.
         11    1    5    5    0    0  0.11113179931E+03 -0.65106812842E+02  0.16134498905E+03  0.20644945965E+03  0.00000000000E+00 0.  1.
        -11    1    5    5    0    0  0.20320458514E+03 -0.27715326553E+02  0.14243882861E+03  0.24969794281E+03  0.00000000000E+00 0. -1.
          2    1    6    6  503    0  0.64785457255E+02  0.58496480831E+01 -0.87078891541E+02  0.10869271920E+03  0.00000000000E+00 0. -1.
         -2    1    6    6    0  503  0.67830780724E+03  0.10845683490E+03 -0.50034495558E+03  0.84982906574E+03  0.00000000000E+00 0.  1.
<mgrwt>
<rscale>  0 0.28786018E+04</rscale>
<asrwt>0</asrwt>
<pdfrwt beam="1">  1        2 0.30397089E+00 0.28786018E+04</pdfrwt>
<pdfrwt beam="2">  1       -1 0.16130376E+00 0.28786018E+04</pdfrwt>
<totfact> 0.19364000E+00</totfact>
</mgrwt>
</event>
<event>
12    6  0.1494052E-007  0.1030917E+04  0.7818608E-02  0.9275271E-01
         -1   -1    0    0    0  501 -0.00000000000E+00  0.00000000000E+00  0.13947414589E+03  0.13947414589E+03  0.00000000000E+00 0.  1.
          2   -1    0    0  501    0  0.00000000000E+00 -0.00000000000E+00 -0.19049945261E+04  0.19049945261E+04  0.00000000000E+00 0. -1.
         24    2    1    2    0    0  0.51944901292E+02 -0.90726547896E+02 -0.21175018989E+03  0.24527086282E+03  0.66257633257E+02 0.  0.
        254    2    1    2    0    0 -0.51944901292E+02  0.90726547896E+02 -0.15537701904E+04  0.17991978092E+04  0.90110009042E+03 0.  0.
         23    2    4    4    0    0 -0.45909475292E+03  0.38282766713E+02 -0.64024257119E+03  0.79359337575E+03  0.87443317050E+02 0.  0.
         23    2    4    4    0    0  0.40714985163E+03  0.52443781183E+02 -0.91352761918E+03  0.10056044335E+04  0.90477697425E+02 0.  0.
          4    1    3    3  502    0  0.26172982222E+02 -0.19081702686E+02 -0.12821469850E+03  0.13224275136E+03  0.00000000000E+00 0. -1.
         -1    1    3    3    0  502  0.25771919070E+02 -0.71644845210E+02 -0.83535491392E+02  0.11302811146E+03  0.00000000000E+00 0.  1.
         11    1    5    5    0    0 -0.62047166235E+02 -0.21612505524E+02 -0.68314824771E+02  0.94783260739E+02  0.00000000000E+00 0.  1.
        -11    1    5    5    0    0 -0.39704758668E+03  0.59895272237E+02 -0.57192774641E+03  0.69881011501E+03  0.00000000000E+00 0. -1.
          1    1    6    6  503    0  0.95983283110E+02  0.49263203554E+02 -0.20201615079E+03  0.22902004070E+03  0.00000000000E+00 0.  1.
         -1    1    6    6    0  503  0.31116656852E+03  0.31805776288E+01 -0.71151146839E+03  0.77658439277E+03  0.00000000000E+00 0. -1.
<mgrwt>
<rscale>  0 0.10309170E+04</rscale>
<asrwt>0</asrwt>
<pdfrwt beam="1">  1        2 0.29307608E+00 0.10309170E+04</pdfrwt>
<pdfrwt beam="2">  1       -1 0.21457561E-01 0.10309170E+04</pdfrwt>
<totfact> 0.15600146E+02</totfact>
</mgrwt>
</event>
<event>
12    6  0.1494052E-007  0.1509882E+04  0.7818608E-02  0.8877908E-01
         -1   -1    0    0    0  501 -0.00000000000E+00  0.00000000000E+00  0.18224709370E+03  0.18224709370E+03  0.00000000000E+00 0.  1.
          2   -1    0    0  501    0  0.00000000000E+00 -0.00000000000E+00 -0.31272694326E+04  0.31272694326E+04  0.00000000000E+00 0. -1.
         24    2    1    2    0    0 -0.11815858439E+03  0.36120301991E+03 -0.17292269190E+04  0.17722550935E+04  0.78951291908E+02 0.  0.
        254    2    1    2    0    0  0.11815858439E+03 -0.36120301991E+03 -0.12157954200E+04  0.15372614329E+04  0.86057256348E+03 0.  0.
         23    2    4    4    0    0 -0.19547274782E+03 -0.25596722181E+03 -0.11378007552E+04  0.11861113743E+04  0.92416556519E+02 0.  0.
         23    2    4    4    0    0  0.31363133221E+03 -0.10523579810E+03 -0.77994664819E+02  0.35115005859E+03  0.88227037563E+02 0.  0.
          2    1    3    3  502    0 -0.50506365181E+02  0.16359933522E+03 -0.96141548231E+03  0.97654255669E+03  0.00000000000E+00 0. -1.
         -1    1    3    3    0  502 -0.67652219207E+02  0.19760368469E+03 -0.76781143665E+03  0.79571253680E+03  0.00000000000E+00 0.  1.
         11    1    5    5    0    0 -0.15637435707E+03 -0.14110767870E+03 -0.64145379261E+03  0.67514982381E+03  0.00000000000E+00 0.  1.
        -11    1    5    5    0    0 -0.39098390751E+02 -0.11485954311E+03 -0.49634696256E+03  0.51096155046E+03  0.00000000000E+00 0. -1.
          1    1    6    6  503    0  0.30782987277E+02 -0.29385536122E+02 -0.35138155880E+02  0.55188694834E+02  0.00000000000E+00 0. -1.
         -1    1    6    6    0  503  0.28284834494E+03 -0.75850261981E+02 -0.42856508939E+02  0.29596136375E+03  0.00000000000E+00 0.  1.
<mgrwt>
<rscale>  0 0.15098818E+04</rscale>
<asrwt>0</asrwt>
<pdfrwt beam="1">  1        2 0.48111837E+00 0.15098818E+04</pdfrwt>
<pdfrwt beam="2">  1       -1 0.28038015E-01 0.15098818E+04</pdfrwt>
<totfact> 0.18412563E+01</totfact>
</mgrwt>
</event>
<event>
12    6  0.1494052E-007  0.1770359E+04  0.7818608E-02  0.8722223E-01
         -1   -1    0    0    0  501 -0.00000000000E+00  0.00000000000E+00  0.57071532645E+03  0.57071532645E+03  0.00000000000E+00 0.  1.
          2   -1    0    0  501    0  0.00000000000E+00 -0.00000000000E+00 -0.13729142126E+04  0.13729142126E+04  0.00000000000E+00 0. -1.
         24    2    1    2    0    0 -0.19783507258E+03 -0.28662427346E+03 -0.91106947667E+03  0.97858912151E+03  0.79352928891E+02 0.  0.
        254    2    1    2    0    0  0.19783507258E+03  0.28662427346E+03  0.10887059050E+03  0.96504041756E+03  0.89339689499E+03 0.  0.
         23    2    4    4    0    0  0.83646159644E+02  0.57626806725E+03 -0.71184253078E+02  0.59395384562E+03  0.92910750141E+02 0.  0.
         23    2    4    4    0    0  0.11418891294E+03 -0.28964379379E+03  0.18005484358E+03  0.37108657194E+03  0.91393993571E+02 0.  0.
          4    1    3    3  502    0 -0.17596535969E+03 -0.27713286783E+03 -0.79526752832E+03  0.86035857399E+03  0.00000000000E+00 0. -1.
         -3    1    3    3    0  502 -0.21869712888E+02 -0.94914056308E+01 -0.11580194835E+03  0.11823054751E+03  0.00000000000E+00 0.  1.
         11    1    5    5    0    0  0.70159679964E+02  0.50987530031E+03 -0.92510762313E+02  0.52292776145E+03  0.00000000000E+00 0.  1.
        -11    1    5    5    0    0  0.13486479680E+02  0.66392766941E+02  0.21326509235E+02  0.71026084169E+02  0.00000000000E+00 0. -1.
          1    1    6    6  503    0 -0.15380952536E+02 -0.40290593356E+02  0.29895655514E+02  0.52475287827E+02  0.00000000000E+00 0. -1.
         -1    1    6    6    0  503  0.12956986547E+03 -0.24935320043E+03  0.15015918806E+03  0.31861128411E+03  0.00000000000E+00 0.  1.
<mgrwt>
<rscale>  0 0.17703595E+04</rscale>
<asrwt>0</asrwt>
<pdfrwt beam="1">  1        2 0.21121757E+00 0.17703595E+04</pdfrwt>
<pdfrwt beam="2">  1       -1 0.87802359E-01 0.17703595E+04</pdfrwt>
<totfact> 0.20634696E+01</totfact>
</mgrwt>
</event>
<event>
12    6  0.1494052E-007  0.1195979E+04  0.7818608E-02  0.9116384E-01
          2   -1    0    0  501    0  0.00000000000E+00  0.00000000000E+00  0.17149534232E+04  0.17149534232E+04  0.00000000000E+00 0. -1.
         -1   -1    0    0    0  501 -0.00000000000E+00 -0.00000000000E+00 -0.20851371543E+03  0.20851371543E+03  0.00000000000E+00 0.  1.
         24    2    1    2    0    0 -0.45383828848E+02 -0.20396675699E+03  0.56430722499E+03  0.60732737624E+03  0.82108269256E+02 0.  0.
        254    2    1    2    0    0  0.45383828848E+02  0.20396675699E+03  0.94213248281E+03  0.13161397624E+04  0.89495705439E+03 0.  0.
         23    2    4    4    0    0 -0.23555128246E+03 -0.21852813438E+03  0.13999074186E+03  0.36248107220E+03  0.92499555193E+02 0.  0.
         23    2    4    4    0    0  0.28093511131E+03  0.42249489137E+03  0.80214174095E+03  0.95365869023E+03  0.92774214548E+02 0.  0.
          2    1    3    3  502    0  0.76890455500E+01 -0.35185565141E+02  0.18907065240E+03  0.19247040555E+03  0.00000000000E+00 0. -1.
         -1    1    3    3    0  502 -0.53072874398E+02 -0.16878119185E+03  0.37523657259E+03  0.41485697069E+03  0.00000000000E+00 0.  1.
         11    1    5    5    0    0 -0.25298676086E+02 -0.18498579686E+02  0.49334082737E+02  0.58447174283E+02  0.00000000000E+00 0. -1.
        -11    1    5    5    0    0 -0.21025260637E+03 -0.20002955469E+03  0.90656659124E+02  0.30403389791E+03  0.00000000000E+00 0.  1.
          1    1    6    6  503    0  0.16359496745E+03  0.27795599654E+03  0.42967556248E+03  0.53725593378E+03  0.00000000000E+00 0. -1.
         -1    1    6    6    0  503  0.11734014386E+03  0.14453889483E+03  0.37246617847E+03  0.41640275646E+03  0.00000000000E+00 0.  1.
<mgrwt>
<rscale>  0 0.11959788E+04</rscale>
<asrwt>0</asrwt>
<pdfrwt beam="1">  1        2 0.26383898E+00 0.11959788E+04</pdfrwt>
<pdfrwt beam="2">  1       -1 0.32079034E-01 0.11959788E+04</pdfrwt>
<totfact> 0.98063279E+01</totfact>
</mgrwt>
</event>
<event>
12    6  0.1494052E-007  0.1915329E+04  0.7818608E-02  0.8647264E-01
          2   -1    0    0  501    0  0.00000000000E+00  0.00000000000E+00  0.31727206904E+04  0.31727206904E+04  0.00000000000E+00 0. -1.
         -1   -1    0    0    0  501 -0.00000000000E+00 -0.00000000000E+00 -0.28906457603E+03  0.28906457603E+03  0.00000000000E+00 0.  1.
         24    2    1    2    0    0  0.10326336739E+03  0.61468216675E+03  0.39327399956E+03  0.74157813586E+03  0.82317699765E+02 0.  0.
        254    2    1    2    0    0 -0.10326336739E+03 -0.61468216675E+03  0.24903821148E+04  0.27202071305E+04  0.89945887413E+03 0.  0.
         23    2    4    4    0    0 -0.35537696646E+03 -0.71694136142E+03  0.17908177232E+04  0.19638885600E+04  0.97634288528E+02 0.  0.
         23    2    4    4    0    0  0.25211359907E+03  0.10225919467E+03  0.69956439155E+03  0.75631857053E+03  0.92785949745E+02 0.  0.
          2    1    3    3  502    0  0.27628624317E+02  0.41821524541E+02  0.21929928614E+02  0.54711082658E+02  0.00000000000E+00 0. -1.
         -1    1    3    3    0  502  0.75634743073E+02  0.57286064221E+03  0.37134407094E+03  0.68686705320E+03  0.00000000000E+00 0.  1.
         11    1    5    5    0    0 -0.69205226338E+02 -0.23303840723E+03  0.50032447962E+03  0.55625609885E+03  0.00000000000E+00 0.  1.
        -11    1    5    5    0    0 -0.28617174012E+03 -0.48390295420E+03  0.12904932436E+04  0.14076324612E+04  0.00000000000E+00 0. -1.
          3    1    6    6  503    0  0.10353843357E+03 -0.45030366546E+01  0.28161335510E+03  0.30007760052E+03  0.00000000000E+00 0. -1.
         -3    1    6    6    0  503  0.14857516550E+03  0.10676223133E+03  0.41795103645E+03  0.45624097000E+03  0.00000000000E+00 0.  1.
<mgrwt>
<rscale>  0 0.19153289E+04</rscale>
<asrwt>0</asrwt>
<pdfrwt beam="1">  1        2 0.48811085E+00 0.19153289E+04</pdfrwt>
<pdfrwt beam="2">  1       -1 0.44471475E-01 0.19153289E+04</pdfrwt>
<totfact> 0.72311838E+00</totfact>
</mgrwt>
</event>
<event>
12    6  0.1494052E-007  0.1810180E+04  0.7818608E-02  0.8700904E-01
         -1   -1    0    0    0  501 -0.00000000000E+00  0.00000000000E+00  0.11354750863E+04  0.11354750863E+04  0.00000000000E+00 0.  1.
          2   -1    0    0  501    0  0.00000000000E+00 -0.00000000000E+00 -0.72144979068E+03  0.72144979068E+03  0.00000000000E+00 0. -1.
         24    2    1    2    0    0  0.11676679517E+03  0.53238840277E+03  0.56017608487E+03  0.78564402072E+03  0.79795898252E+02 0.  0.
        254    2    1    2    0    0 -0.11676679517E+03 -0.53238840277E+03 -0.14615078921E+03  0.10712808563E+04  0.91061008341E+03 0.  0.
         23    2    4    4    0    0  0.66606478909E+02 -0.55735638361E+03  0.25267720122E+03  0.62223128582E+03  0.90793411962E+02 0.  0.
         23    2    4    4    0    0 -0.18337327408E+03  0.24967980850E+02 -0.39882799043E+03  0.44904957046E+03  0.91283038233E+02 0.  0.
          4    1    3    3  502    0 -0.10553735916E+02  0.85922194142E+02  0.90465760954E+02  0.12521205490E+03  0.00000000000E+00 0. -1.
         -3    1    3    3    0  502  0.12732053109E+03  0.44646620862E+03  0.46971032392E+03  0.66043196582E+03  0.00000000000E+00 0.  1.
         11    1    5    5    0    0 -0.61524344863E+01 -0.63251261878E+01 -0.43816881716E+01  0.98518456460E+01  0.00000000000E+00 0. -1.
        -11    1    5    5    0    0  0.72758913396E+02 -0.55103125743E+03  0.25705888939E+03  0.61237944018E+03  0.00000000000E+00 0.  1.
          3    1    6    6  503    0 -0.70867954958E+02  0.17542832983E+02 -0.68890913768E+02  0.10037916133E+03  0.00000000000E+00 0. -1.
         -3    1    6    6    0  503 -0.11250531913E+03  0.74251478665E+01 -0.32993707666E+03  0.34867040914E+03  0.00000000000E+00 0.  1.
<mgrwt>
<rscale>  0 0.18101804E+04</rscale>
<asrwt>0</asrwt>
<pdfrwt beam="1">  1        2 0.11099228E+00 0.18101804E+04</pdfrwt>
<pdfrwt beam="2">  1       -1 0.17468848E+00 0.18101804E+04</pdfrwt>
<totfact> 0.96542121E+00</totfact>
</mgrwt>
</event>
<event>
12    6  0.1494052E-007  0.1562553E+04  0.7818608E-02  0.8843889E-01
          2   -1    0    0  501    0  0.00000000000E+00  0.00000000000E+00  0.32391911048E+04  0.32391911048E+04  0.00000000000E+00 0. -1.
         -1   -1    0    0    0  501 -0.00000000000E+00 -0.00000000000E+00 -0.18843992860E+03  0.18843992860E+03  0.00000000000E+00 0.  1.
         24    2    1    2    0    0 -0.65744331537E+02  0.39754203497E+03  0.17279718044E+04  0.17760854384E+04  0.78936311164E+02 0.  0.
        254    2    1    2    0    0  0.65744331537E+02 -0.39754203497E+03  0.13227793718E+04  0.16515455950E+04  0.90304794944E+03 0.  0.
         23    2    4    4    0    0 -0.14155459907E+03  0.61911648863E+02  0.10598423930E+04  0.10748989516E+04  0.90945594961E+02 0.  0.
         23    2    4    4    0    0  0.20729893061E+03 -0.45945368384E+03  0.26293697881E+03  0.57664664340E+03  0.96514052309E+02 0.  0.
          4    1    3    3  502    0 -0.65600214052E+01  0.25418299369E+02  0.51664007680E+02  0.57950785268E+02  0.00000000000E+00 0. -1.
         -3    1    3    3    0  502 -0.59184310132E+02  0.37212373560E+03  0.16763077967E+04  0.17181346532E+04  0.00000000000E+00 0.  1.
         11    1    5    5    0    0  0.11109543096E+02  0.15890615693E+02  0.14050977548E+03  0.14184121622E+03  0.00000000000E+00 0.  1.
        -11    1    5    5    0    0 -0.15266414217E+03  0.46021033170E+02  0.91933261754E+03  0.93305773534E+03  0.00000000000E+00 0. -1.
          1    1    6    6  503    0  0.20899672133E+03 -0.41590680915E+03  0.21779002742E+03  0.51389746007E+03  0.00000000000E+00 0. -1.
         -1    1    6    6    0  503 -0.16977907202E+01 -0.43546874691E+02  0.45146951393E+02  0.62749183332E+02  0.00000000000E+00 0.  1.
<mgrwt>
<rscale>  0 0.15625530E+04</rscale>
<asrwt>0</asrwt>
<pdfrwt beam="1">  1        2 0.49833705E+00 0.15625530E+04</pdfrwt>
<pdfrwt beam="2">  1       -1 0.28990761E-01 0.15625530E+04</pdfrwt>
<totfact> 0.14634710E+01</totfact>
</mgrwt>
</event>
<event>
12    6  0.1494052E-007  0.3873893E+04  0.7818608E-02  0.8030481E-01
         -1   -1    0    0    0  501 -0.00000000000E+00  0.00000000000E+00  0.16373670724E+04  0.16373670724E+04  0.00000000000E+00 0.  1.
          2   -1    0    0  501    0  0.00000000000E+00 -0.00000000000E+00 -0.22913384036E+04  0.22913384036E+04  0.00000000000E+00 0. -1.
         24    2    1    2    0    0 -0.12099451276E+04 -0.10062490341E+04 -0.12589402129E+04  0.20169616531E+04  0.81850595990E+02 0.  0.
        254    2    1    2    0    0  0.12099451276E+04  0.10062490341E+04  0.60496888172E+03  0.19117438229E+04  0.90126176343E+03 0.  0.
         23    2    4    4    0    0 -0.18649500398E+02  0.21688747445E+03  0.35622093220E+03  0.42755594230E+03  0.92318745728E+02 0.  0.
         23    2    4    4    0    0  0.12285946280E+04  0.78936155963E+03  0.24874794952E+03  0.14841878806E+04  0.91660737622E+02 0.  0.
          2    1    3    3  502    0 -0.63331179018E+03 -0.49977057167E+03 -0.59997384387E+03  0.10053969670E+04  0.00000000000E+00 0. -1.
         -1    1    3    3    0  502 -0.57663333743E+03 -0.50647846241E+03 -0.65896636898E+03  0.10115646861E+04  0.00000000000E+00 0.  1.
         11    1    5    5    0    0  0.76776842909E+01  0.18353365082E+03  0.22987000339E+03  0.29425119589E+03  0.00000000000E+00 0.  1.
        -11    1    5    5    0    0 -0.26327184689E+02  0.33353823633E+02  0.12635092881E+03  0.13330474641E+03  0.00000000000E+00 0. -1.
          3    1    6    6  503    0  0.40809774775E+03  0.21903169603E+03  0.56178651128E+02  0.46655620929E+03  0.00000000000E+00 0. -1.
         -3    1    6    6    0  503  0.82049688025E+03  0.57032986360E+03  0.19256929839E+03  0.10176316713E+04  0.00000000000E+00 0.  1.
<mgrwt>
<rscale>  0 0.38738932E+04</rscale>
<asrwt>0</asrwt>
<pdfrwt beam="1">  1        2 0.35251360E+00 0.38738932E+04</pdfrwt>
<pdfrwt beam="2">  1       -1 0.25190263E+00 0.38738932E+04</pdfrwt>
<totfact> 0.28151154E-01</totfact>
</mgrwt>
</event>
<event>
12    6  0.1494052E-007  0.2565377E+04  0.7818608E-02  0.8380058E-01
         -1   -1    0    0    0  501 -0.00000000000E+00  0.00000000000E+00  0.22191575836E+04  0.22191575836E+04  0.00000000000E+00 0.  1.
          2   -1    0    0  501    0  0.00000000000E+00 -0.00000000000E+00 -0.74140265421E+03  0.74140265421E+03  0.00000000000E+00 0. -1.
         24    2    1    2    0    0  0.14363369181E+03  0.92622883938E+02 -0.63081358475E+03  0.65816892389E+03  0.77787644382E+02 0.  0.
        254    2    1    2    0    0 -0.14363369181E+03 -0.92622883938E+02  0.21085685141E+04  0.23023913139E+04  0.90869959145E+03 0.  0.
         23    2    4    4    0    0 -0.20564972236E+03  0.36998882670E+03  0.12172256876E+04  0.12921066148E+04  0.93368031498E+02 0.  0.
         23    2    4    4    0    0  0.62016030553E+02 -0.46261171064E+03  0.89134282658E+03  0.10102846991E+04  0.91255443376E+02 0.  0.
          2    1    3    3  502    0  0.91682986583E+02  0.24039742790E+02 -0.41820509935E+03  0.42881136224E+03  0.00000000000E+00 0. -1.
         -1    1    3    3    0  502  0.51950705225E+02  0.68583141147E+02 -0.21260848540E+03  0.22935756166E+03  0.00000000000E+00 0.  1.
         11    1    5    5    0    0 -0.21448540155E+03  0.36300062811E+03  0.11947606749E+04  0.12669753406E+04  0.00000000000E+00 0. -1.
        -11    1    5    5    0    0  0.88356791897E+01  0.69881985909E+01  0.22465012662E+02  0.25131274146E+02  0.00000000000E+00 0.  1.
          2    1    6    6  503    0  0.60621971165E+02 -0.43916961341E+03  0.78649919855E+03  0.90284326550E+03  0.00000000000E+00 0. -1.
         -2    1    6    6    0  503  0.13940593883E+01 -0.23442097226E+02  0.10484362803E+03  0.10744143363E+03  0.00000000000E+00 0.  1.
<mgrwt>
<rscale>  0 0.25653766E+04</rscale>
<asrwt>0</asrwt>
<pdfrwt beam="1">  1        2 0.11406195E+00 0.25653766E+04</pdfrwt>
<pdfrwt beam="2">  1       -1 0.34140886E+00 0.25653766E+04</pdfrwt>
<totfact> 0.68223117E-01</totfact>
</mgrwt>
</event>
<event>
12    6  0.1575769E-007  0.2426712E+04  0.7818608E-02  0.8429570E-01
          2   -1    0    0  501    0  0.00000000000E+00  0.00000000000E+00  0.20594963873E+04  0.20594963873E+04  0.00000000000E+00 0. -1.
         -1   -1    0    0    0  501 -0.00000000000E+00 -0.00000000000E+00 -0.71485067334E+03  0.71485067334E+03  0.00000000000E+00 0.  1.
         24    2    1    2    0    0 -0.67777927647E+01  0.98434741307E+03  0.97972908221E+03  0.13913518754E+04  0.83697063946E+02 0.  0.
        254    2    1    2    0    0  0.67777927647E+01 -0.98434741307E+03  0.36491663174E+03  0.13829951853E+04  0.90029204496E+03 0.  0.
         23    2    4    4    0    0  0.39201806398E+03 -0.49117500055E+03  0.39940212260E+03  0.75016149838E+03  0.91044903505E+02 0.  0.
         23    2    4    4    0    0 -0.38524027122E+03 -0.49317241252E+03 -0.34485490862E+02  0.63283368688E+03  0.87522175067E+02 0.  0.
          2    1    3    3  502    0 -0.23235596231E+02  0.77327994245E+03  0.72639692367E+03  0.10612041524E+04  0.00000000000E+00 0. -1.
         -1    1    3    3    0  502  0.16457803466E+02  0.21106747062E+03  0.25333215854E+03  0.33014772299E+03  0.00000000000E+00 0.  1.
         11    1    5    5    0    0  0.27571533680E+02 -0.27409514302E+02  0.19675382194E+01  0.38927395885E+02  0.00000000000E+00 0.  1.
        -11    1    5    5    0    0  0.36444653030E+03 -0.46376548625E+03  0.39743458438E+03  0.71123410249E+03  0.00000000000E+00 0. -1.
          2    1    6    6  503    0 -0.79902516391E+02 -0.13832006820E+03 -0.39973423135E+02  0.16466550321E+03  0.00000000000E+00 0.  1.
         -2    1    6    6    0  503 -0.30533775483E+03 -0.35485234432E+03  0.54879322732E+01  0.46816818366E+03  0.00000000000E+00 0. -1.
<mgrwt>
<rscale>  0 0.24267117E+04</rscale>
<asrwt>0</asrwt>
<pdfrwt beam="1">  1        2 0.31684560E+00 0.24267117E+04</pdfrwt>
<pdfrwt beam="2">  1       -1 0.10997703E+00 0.24267117E+04</pdfrwt>
<totfact> 0.48252186E+00</totfact>
</mgrwt>
</event>
<event>
12    6  0.1494052E-007  0.2819653E+04  0.7818608E-02  0.8297193E-01
          2   -1    0    0  501    0  0.00000000000E+00  0.00000000000E+00  0.10300938489E+04  0.10300938489E+04  0.00000000000E+00 0. -1.
         -1   -1    0    0    0  501 -0.00000000000E+00 -0.00000000000E+00 -0.19295433711E+04  0.19295433711E+04  0.00000000000E+00 0.  1.
         24    2    1    2    0    0  0.95156209330E+02 -0.16270397937E+03 -0.17161791120E+04  0.17284184463E+04  0.81438886500E+02 0.  0.
        254    2    1    2    0    0 -0.95156209330E+02  0.16270397937E+03  0.81672958969E+03  0.12312187737E+04  0.90184541739E+03 0.  0.
         23    2    4    4    0    0 -0.89292371869E+02  0.48408117868E+03  0.73152126736E+03  0.88631256670E+03  0.90104861435E+02 0.  0.
         23    2    4    4    0    0 -0.58638374614E+01 -0.32137719932E+03  0.85208322335E+02  0.34490620697E+03  0.91554052772E+02 0.  0.
          4    1    3    3  502    0  0.24078690216E+02 -0.15219614475E+02 -0.10029551337E+03  0.10426221746E+03  0.00000000000E+00 0. -1.
         -3    1    3    3    0  502  0.71077519114E+02 -0.14748436489E+03 -0.16158835986E+04  0.16241562289E+04  0.00000000000E+00 0.  1.
         11    1    5    5    0    0  0.10625358858E+02  0.20309658747E+02  0.59020490430E+02  0.63315075455E+02  0.00000000000E+00 0.  1.
        -11    1    5    5    0    0 -0.99917730727E+02  0.46377151994E+03  0.67250077693E+03  0.82299749124E+03  0.00000000000E+00 0. -1.
          3    1    6    6  503    0 -0.12991561237E+02 -0.23340504318E+03  0.18931324362E+02  0.23453163942E+03  0.00000000000E+00 0. -1.
         -3    1    6    6    0  503  0.71277237754E+01 -0.87972156133E+02  0.66276997973E+02  0.11037456755E+03  0.00000000000E+00 0.  1.
<mgrwt>
<rscale>  0 0.28196530E+04</rscale>
<asrwt>0</asrwt>
<pdfrwt beam="1">  1        2 0.15847598E+00 0.28196530E+04</pdfrwt>
<pdfrwt beam="2">  1       -1 0.29685282E+00 0.28196530E+04</pdfrwt>
<totfact> 0.82581209E-01</totfact>
</mgrwt>
</event>
<event>
12    6  0.1494052E-007  0.2444873E+04  0.7818608E-02  0.8422892E-01
         -1   -1    0    0    0  501 -0.00000000000E+00  0.00000000000E+00  0.79074008018E+03  0.79074008018E+03  0.00000000000E+00 0.  1.
          2   -1    0    0  501    0  0.00000000000E+00 -0.00000000000E+00 -0.18898129659E+04  0.18898129659E+04  0.00000000000E+00 0. -1.
         24    2    1    2    0    0  0.19333559922E+03  0.10391317396E+04 -0.51047188598E+03  0.11761400366E+04  0.74501093777E+02 0.  0.
        254    2    1    2    0    0 -0.19333559922E+03 -0.10391317396E+04 -0.58860099971E+03  0.15044130095E+04  0.89422253383E+03 0.  0.
         23    2    4    4    0    0 -0.44852217914E+03 -0.10141702613E+04 -0.47152890431E+03  0.12084510159E+04  0.91109198568E+02 0.  0.
         23    2    4    4    0    0  0.25518657992E+03 -0.24961478356E+02 -0.11707209540E+03  0.29596199364E+03  0.90246108946E+02 0.  0.
          4    1    3    3  502    0 -0.98673276210E+00  0.14150943416E+02  0.10893850240E+01  0.14227072813E+02  0.00000000000E+00 0. -1.
         -3    1    3    3    0  502  0.19432233198E+03  0.10249807962E+04 -0.51156127100E+03  0.11619129638E+04  0.00000000000E+00 0.  1.
         11    1    5    5    0    0  0.25900841017E+00 -0.40540346155E+02 -0.19062555515E+02  0.44799193905E+02  0.00000000000E+00 0. -1.
        -11    1    5    5    0    0 -0.44878118755E+03 -0.97362991513E+03 -0.45246634879E+03  0.11636518220E+04  0.00000000000E+00 0.  1.
          3    1    6    6  503    0  0.17257741848E+03 -0.58817403167E+02 -0.72964151201E+02  0.19638283949E+03  0.00000000000E+00 0. -1.
         -3    1    6    6    0  503  0.82609161446E+02  0.33855924811E+02 -0.44107944201E+02  0.99579154150E+02  0.00000000000E+00 0.  1.
<mgrwt>
<rscale>  0 0.24448729E+04</rscale>
<asrwt>0</asrwt>
<pdfrwt beam="1">  1        2 0.29074045E+00 0.24448729E+04</pdfrwt>
<pdfrwt beam="2">  1       -1 0.12165232E+00 0.24448729E+04</pdfrwt>
<totfact> 0.46955731E+00</totfact>
</mgrwt>
</event>
<event>
12    6  0.1494052E-007  0.1568477E+04  0.7818608E-02  0.8840151E-01
         -1   -1    0    0    0  501 -0.00000000000E+00  0.00000000000E+00  0.71502432559E+03  0.71502432559E+03  0.00000000000E+00 0.  1.
          2   -1    0    0  501    0  0.00000000000E+00 -0.00000000000E+00 -0.86015278186E+03  0.86015278186E+03  0.00000000000E+00 0. -1.
         24    2    1    2    0    0  0.13884064013E+02 -0.51051091479E+03  0.85482831878E+02  0.52414501277E+03  0.81280492813E+02 0.  0.
        254    2    1    2    0    0 -0.13884064013E+02  0.51051091479E+03 -0.23061128815E+03  0.10510320947E+04  0.88919780504E+03 0.  0.
         23    2    4    4    0    0  0.19995180482E+03 -0.11166482566E+03  0.14899814265E+03  0.28612612483E+03  0.84958550239E+02 0.  0.
         23    2    4    4    0    0 -0.21383586884E+03  0.62217574045E+03 -0.37960943080E+03  0.76490596985E+03  0.90273982738E+02 0.  0.
          4    1    3    3  502    0  0.10685325555E+02 -0.82382391886E+01 -0.37354935635E+01  0.13999952832E+02  0.00000000000E+00 0. -1.
         -3    1    3    3    0  502  0.31987384577E+01 -0.50227267560E+03  0.89218325442E+02  0.51014505994E+03  0.00000000000E+00 0.  1.
         11    1    5    5    0    0  0.26937562960E+02  0.43985662475E+01  0.46549927204E+02  0.53961795800E+02  0.00000000000E+00 0. -1.
        -11    1    5    5    0    0  0.17301424186E+03 -0.11606339190E+03  0.10244821544E+03  0.23216432903E+03  0.00000000000E+00 0.  1.
          1    1    6    6  503    0 -0.51070003034E+01  0.97576596102E+02 -0.76454290296E+02  0.12406664364E+03  0.00000000000E+00 0. -1.
         -1    1    6    6    0  503 -0.20872886853E+03  0.52459914434E+03 -0.30315514050E+03  0.64083932621E+03  0.00000000000E+00 0.  1.
<mgrwt>
<rscale>  0 0.15684772E+04</rscale>
<asrwt>0</asrwt>
<pdfrwt beam="1">  1        2 0.13233120E+00 0.15684772E+04</pdfrwt>
<pdfrwt beam="2">  1       -1 0.11000374E+00 0.15684772E+04</pdfrwt>
<totfact> 0.26152626E+01</totfact>
</mgrwt>
</event>
<event>
12    6  0.1494052E-007  0.1810491E+04  0.7818608E-02  0.8700740E-01
          2   -1    0    0  501    0  0.00000000000E+00  0.00000000000E+00  0.99818394188E+03  0.99818394188E+03  0.00000000000E+00 0. -1.
         -1   -1    0    0    0  501 -0.00000000000E+00 -0.00000000000E+00 -0.82096035623E+03  0.82096035623E+03  0.00000000000E+00 0.  1.
         24    2    1    2    0    0  0.24164682848E+03  0.17613891802E+03 -0.55139967767E+03  0.63214536800E+03  0.78409524914E+02 0.  0.
        254    2    1    2    0    0 -0.24164682848E+03 -0.17613891802E+03  0.72862326332E+03  0.11869989301E+04  0.88806333786E+03 0.  0.
         23    2    4    4    0    0 -0.16630205257E+03  0.34351162308E+03  0.39810170518E+03  0.55913207879E+03  0.92125490441E+02 0.  0.
         23    2    4    4    0    0 -0.75344775902E+02 -0.51965054110E+03  0.33052155814E+03  0.62786685131E+03  0.96222463335E+02 0.  0.
          4    1    3    3  502    0  0.86675455288E+02  0.11112813326E+03 -0.24172622750E+03  0.27981005274E+03  0.00000000000E+00 0. -1.
         -3    1    3    3    0  502  0.15497137319E+03  0.65010784766E+02 -0.30967345017E+03  0.35233531527E+03  0.00000000000E+00 0.  1.
         11    1    5    5    0    0 -0.14684379064E+03  0.32750437381E+03  0.33411069639E+03  0.49035922665E+03  0.00000000000E+00 0. -1.
        -11    1    5    5    0    0 -0.19458261934E+02  0.16007249268E+02  0.63991008791E+02  0.68772852149E+02  0.00000000000E+00 0.  1.
          3    1    6    6  503    0 -0.96785543931E+02 -0.39726291496E+03  0.23972840815E+03  0.47397782099E+03  0.00000000000E+00 0. -1.
         -3    1    6    6    0  503  0.21440768029E+02 -0.12238762614E+03  0.90793149996E+02  0.15388903032E+03  0.00000000000E+00 0.  1.
<mgrwt>
<rscale>  0 0.18104910E+04</rscale>
<asrwt>0</asrwt>
<pdfrwt beam="1">  1        2 0.15356676E+00 0.18104910E+04</pdfrwt>
<pdfrwt beam="2">  1       -1 0.12630159E+00 0.18104910E+04</pdfrwt>
<totfact> 0.14823950E+01</totfact>
</mgrwt>
</event>
<event>
12    6  0.1494052E-007  0.1340159E+04  0.7818608E-02  0.8998312E-01
         -1   -1    0    0    0  501 -0.00000000000E+00  0.00000000000E+00  0.75941190440E+03  0.75941190440E+03  0.00000000000E+00 0.  1.
          2   -1    0    0  501    0  0.00000000000E+00 -0.00000000000E+00 -0.59125521097E+03  0.59125521097E+03  0.00000000000E+00 0. -1.
         24    2    1    2    0    0  0.61253379996E+02  0.35108877471E+03  0.13666925641E+03  0.38971075329E+03  0.78617309129E+02 0.  0.
        254    2    1    2    0    0 -0.61253379996E+02 -0.35108877471E+03  0.31487437016E+02  0.96095636207E+03  0.89186903009E+03 0.  0.
         23    2    4    4    0    0 -0.61705024992E+02 -0.63729055528E+03 -0.50912077005E+02  0.64860349774E+03  0.90264587373E+02 0.  0.
         23    2    4    4    0    0  0.45164499657E+00  0.28620178057E+03  0.82399514021E+02  0.31235286434E+03  0.94143341571E+02 0.  0.
          4    1    3    3  502    0 -0.29231993253E+01 -0.24302831250E+01 -0.23358307808E+01  0.44617794432E+01  0.00000000000E+00 0. -1.
         -1    1    3    3    0  502  0.64176579321E+02  0.35351905783E+03  0.13900508719E+03  0.38524897385E+03  0.00000000000E+00 0.  1.
         11    1    5    5    0    0  0.19616972412E+02 -0.25065254514E+03 -0.24941779575E+02  0.25265315427E+03  0.00000000000E+00 0. -1.
        -11    1    5    5    0    0 -0.81321997405E+02 -0.38663801013E+03 -0.25970297430E+02  0.39595034347E+03  0.00000000000E+00 0.  1.
          4    1    6    6  503    0 -0.21059782266E+02  0.99613187155E+01  0.47656768639E-01  0.23296878993E+02  0.00000000000E+00 0.  1.
         -4    1    6    6    0  503  0.21511427263E+02  0.27624046186E+03  0.82351857252E+02  0.28905598534E+03  0.00000000000E+00 0. -1.
<mgrwt>
<rscale>  0 0.13401586E+04</rscale>
<asrwt>0</asrwt>
<pdfrwt beam="1">  1        2 0.90962340E-01 0.13401586E+04</pdfrwt>
<pdfrwt beam="2">  1       -1 0.11683260E+00 0.13401586E+04</pdfrwt>
<totfact> 0.37279008E+01</totfact>
</mgrwt>
</event>
<event>
12    6  0.1494052E-007  0.4953275E+04  0.7818608E-02  0.7835756E-01
         -1   -1    0    0    0  501 -0.00000000000E+00  0.00000000000E+00  0.32865944719E+04  0.32865944719E+04  0.00000000000E+00 0.  1.
          2   -1    0    0  501    0  0.00000000000E+00 -0.00000000000E+00 -0.18662885370E+04  0.18662885370E+04  0.00000000000E+00 0. -1.
         24    2    1    2    0    0 -0.22117349897E+04  0.30760488006E+03  0.15829036604E+04  0.27383128122E+04  0.79878862022E+02 0.  0.
        254    2    1    2    0    0  0.22117349897E+04 -0.30760488006E+03 -0.16259772558E+03  0.24145701967E+04  0.90405684984E+03 0.  0.
         23    2    4    4    0    0  0.14494460977E+04  0.13735713016E+03 -0.36572663445E+03  0.15040891880E+04  0.93634089955E+02 0.  0.
         23    2    4    4    0    0  0.76228889192E+03 -0.44496201022E+03  0.20312890887E+03  0.91048100872E+03  0.92944974805E+02 0.  0.
          4    1    3    3  502    0 -0.45531813078E+03  0.31014472039E+02  0.31903043043E+03  0.55682754353E+03  0.00000000000E+00 0. -1.
         -3    1    3    3    0  502 -0.17564168589E+04  0.27659040802E+03  0.12638732300E+04  0.21814852687E+04  0.00000000000E+00 0.  1.
         11    1    5    5    0    0  0.53692528075E+02 -0.91973675751E+01 -0.30595993470E+01  0.54560427872E+02  0.00000000000E+00 0.  1.
        -11    1    5    5    0    0  0.13957535697E+04  0.14655449773E+03 -0.36266703510E+03  0.14495287601E+04  0.00000000000E+00 0. -1.
          3    1    6    6  503    0  0.65773152629E+03 -0.37498784146E+03  0.20598125721E+03  0.78463680786E+03  0.00000000000E+00 0. -1.
         -3    1    6    6    0  503  0.10455736563E+03 -0.69974168759E+02 -0.28523483373E+01  0.12584420087E+03  0.00000000000E+00 0.  1.
<mgrwt>
<rscale>  0 0.49532751E+04</rscale>
<asrwt>0</asrwt>
<pdfrwt beam="1">  1        2 0.28712131E+00 0.49532751E+04</pdfrwt>
<pdfrwt beam="2">  1       -1 0.50562992E+00 0.49532751E+04</pdfrwt>
<totfact> 0.91068693E-03</totfact>
</mgrwt>
</event>
<event>
12    6  0.1494052E-007  0.1546387E+04  0.7818608E-02  0.8854179E-01
         -3   -1    0    0    0  501 -0.00000000000E+00  0.00000000000E+00  0.11463604303E+04  0.11463604303E+04  0.00000000000E+00 0.  1.
          2   -1    0    0  501    0  0.00000000000E+00 -0.00000000000E+00 -0.52150135461E+03  0.52150135461E+03  0.00000000000E+00 0. -1.
         24    2    1    2    0    0  0.25883810725E+03  0.33579562638E+03  0.51985012058E+03  0.67433543373E+03  0.68762350534E+02 0.  0.
        254    2    1    2    0    0 -0.25883810725E+03 -0.33579562638E+03  0.10500895509E+03  0.99352635115E+03  0.89236307707E+03 0.  0.
         23    2    4    4    0    0  0.35134291529E+02 -0.57772210080E+03 -0.62115052716E+01  0.58664415807E+03  0.95475343446E+02 0.  0.
         23    2    4    4    0    0 -0.29397239878E+03  0.24192647442E+03  0.11122046036E+03  0.40688219308E+03  0.90746559052E+02 0.  0.
          2    1    3    3  502    0  0.29280037533E+02  0.75410187906E+02  0.77326884945E+02  0.11190828465E+03  0.00000000000E+00 0. -1.
         -1    1    3    3    0  502  0.22955806971E+03  0.26038543848E+03  0.44252323564E+03  0.56242714908E+03  0.00000000000E+00 0.  1.
         11    1    5    5    0    0  0.65963347804E+01 -0.53371836482E+03 -0.11879020184E+02  0.53389129577E+03  0.00000000000E+00 0.  1.
        -11    1    5    5    0    0  0.28537956749E+02 -0.44003735981E+02  0.56675149122E+01  0.52752862301E+02  0.00000000000E+00 0. -1.
          4    1    6    6  503    0  0.39680622313E+01  0.79256781397E+01  0.12607460725E+02  0.15411358077E+02  0.00000000000E+00 0. -1.
         -4    1    6    6    0  503 -0.29794046101E+03  0.23400079628E+03  0.98612999633E+02  0.39147083501E+03  0.00000000000E+00 0.  1.
<mgrwt>
<rscale>  0 0.15463874E+04</rscale>
<asrwt>0</asrwt>
<pdfrwt beam="1">  1        2 0.80230977E-01 0.15463874E+04</pdfrwt>
<pdfrwt beam="2">  1       -3 0.17636314E+00 0.15463874E+04</pdfrwt>
<totfact> 0.73985301E+00</totfact>
</mgrwt>
</event>
<event>
12    6  0.1494052E-007  0.1435120E+04  0.7818608E-02  0.8928782E-01
          2   -1    0    0  501    0  0.00000000000E+00  0.00000000000E+00  0.26782648546E+04  0.26782648546E+04  0.00000000000E+00 0. -1.
         -1   -1    0    0    0  501 -0.00000000000E+00 -0.00000000000E+00 -0.19224854853E+03  0.19224854853E+03  0.00000000000E+00 0.  1.
         24    2    1    2    0    0  0.26422165235E+03  0.35423913818E+03  0.70952995494E+03  0.83980141264E+03  0.80840627907E+02 0.  0.
        254    2    1    2    0    0 -0.26422165235E+03 -0.35423913818E+03  0.17764863512E+04  0.20307119905E+04  0.87897041134E+03 0.  0.
         23    2    4    4    0    0 -0.37618945886E+03  0.15449096952E+03  0.10668904762E+04  0.11456061853E+04  0.93660423450E+02 0.  0.
         23    2    4    4    0    0  0.11196780651E+03 -0.50873010770E+03  0.70959587493E+03  0.88510580522E+03  0.92427639474E+02 0.  0.
          4    1    3    3  502    0  0.26633919515E+03  0.34816677146E+03  0.70870416197E+03  0.83331762061E+03  0.00000000000E+00 0. -1.
         -3    1    3    3    0  502 -0.21175427976E+01  0.60723667211E+01  0.82579297376E+00  0.64837920333E+01  0.00000000000E+00 0.  1.
         11    1    5    5    0    0 -0.11038593158E+03  0.49244902266E+02  0.21020671526E+03  0.24248088055E+03  0.00000000000E+00 0.  1.
        -11    1    5    5    0    0 -0.26580352727E+03  0.10524606725E+03  0.85668376098E+03  0.90312530477E+03  0.00000000000E+00 0. -1.
          2    1    6    6  503    0  0.82805578133E+02 -0.48314179481E+03  0.66093725910E+03  0.82287351284E+03  0.00000000000E+00 0. -1.
         -2    1    6    6    0  503  0.29162228378E+02 -0.25588312888E+02  0.48658615827E+02  0.62232292378E+02  0.00000000000E+00 0.  1.
<mgrwt>
<rscale>  0 0.14351202E+04</rscale>
<asrwt>0</asrwt>
<pdfrwt beam="1">  1        2 0.41204072E+00 0.14351202E+04</pdfrwt>
<pdfrwt beam="2">  1       -1 0.29576702E-01 0.14351202E+04</pdfrwt>
<totfact> 0.31800374E+01</totfact>
</mgrwt>
</event>
<event>
12    6  0.1494052E-007  0.1817784E+04  0.7818608E-02  0.8696899E-01
          2   -1    0    0  501    0  0.00000000000E+00  0.00000000000E+00  0.42664687015E+04  0.42664687015E+04  0.00000000000E+00 0. -1.
         -1   -1    0    0    0  501 -0.00000000000E+00 -0.00000000000E+00 -0.19362261483E+03  0.19362261483E+03  0.00000000000E+00 0.  1.
         24    2    1    2    0    0  0.27927474007E+03 -0.57310931017E+03  0.92718416505E+03  0.11280202905E+04  0.79439524808E+02 0.  0.
        254    2    1    2    0    0 -0.27927474007E+03  0.57310931017E+03  0.31456619216E+04  0.33320710258E+04  0.89501940422E+03 0.  0.
         23    2    4    4    0    0 -0.19611958523E+03  0.68522906296E+03  0.13557587128E+04  0.15344203890E+04  0.91446609486E+02 0.  0.
         23    2    4    4    0    0 -0.83155154844E+02 -0.11211975279E+03  0.17899032088E+04  0.17976506368E+04  0.91152050483E+02 0.  0.
          4    1    3    3  502    0  0.79097754590E+02 -0.24915664102E+03  0.39270934355E+03  0.47175853470E+03  0.00000000000E+00 0. -1.
         -3    1    3    3    0  502  0.20017698548E+03 -0.32395266914E+03  0.53447482150E+03  0.65626175584E+03  0.00000000000E+00 0.  1.
         11    1    5    5    0    0 -0.86196780912E+02  0.45847386340E+03  0.89145273976E+03  0.10061392328E+04  0.00000000000E+00 0.  1.
        -11    1    5    5    0    0 -0.10992280431E+03  0.22675519955E+03  0.46430597308E+03  0.52828115627E+03  0.00000000000E+00 0. -1.
          4    1    6    6  503    0 -0.59097083344E+02 -0.67881005746E+02  0.15452404319E+04  0.15478592600E+04  0.00000000000E+00 0. -1.
         -4    1    6    6    0  503 -0.24058071500E+02 -0.44238747045E+02  0.24466277687E+03  0.24979137682E+03  0.00000000000E+00 0.  1.
<mgrwt>
<rscale>  0 0.18177842E+04</rscale>
<asrwt>0</asrwt>
<pdfrwt beam="1">  1        2 0.65637973E+00 0.18177842E+04</pdfrwt>
<pdfrwt beam="2">  1       -1 0.29788098E-01 0.18177842E+04</pdfrwt>
<totfact> 0.22950565E+00</totfact>
</mgrwt>
</event>
<event>
12    6  0.1494052E-007  0.2415663E+04  0.7818608E-02  0.8433663E-01
         -1   -1    0    0    0  501 -0.00000000000E+00  0.00000000000E+00  0.41780986016E+03  0.41780986016E+03  0.00000000000E+00 0.  1.
          2   -1    0    0  501    0  0.00000000000E+00 -0.00000000000E+00 -0.34916771150E+04  0.34916771150E+04  0.00000000000E+00 0. -1.
         24    2    1    2    0    0  0.97833102751E+03  0.31233044349E+03 -0.10749524840E+04  0.14890351074E+04  0.83790231257E+02 0.  0.
        254    2    1    2    0    0 -0.97833102751E+03 -0.31233044349E+03 -0.19989147708E+04  0.24204518677E+04  0.89902451454E+03 0.  0.
         23    2    4    4    0    0 -0.37129085275E+03 -0.37424510914E+03 -0.30160786292E+03  0.61449370392E+03  0.93375104431E+02 0.  0.
         23    2    4    4    0    0 -0.60704017476E+03  0.61914665650E+02 -0.16973069079E+04  0.18059581638E+04  0.91120526200E+02 0.  0.
          4    1    3    3  502    0  0.90103470356E+02  0.38463613889E+02 -0.13810280517E+03  0.16932356528E+03  0.00000000000E+00 0. -1.
         -3    1    3    3    0  502  0.88822755716E+03  0.27386682960E+03 -0.93684967883E+03  0.13197115421E+04  0.00000000000E+00 0.  1.
         11    1    5    5    0    0  0.11405974526E+00 -0.19245819301E+02 -0.23163936206E+02  0.30116150330E+02  0.00000000000E+00 0.  1.
        -11    1    5    5    0    0 -0.37140491249E+03 -0.35499928984E+03 -0.27844392672E+03  0.58437755359E+03  0.00000000000E+00 0. -1.
          1    1    6    6  503    0 -0.51335880648E+03  0.85218379449E+02 -0.14386622579E+04  0.15298851358E+04  0.00000000000E+00 0. -1.
         -1    1    6    6    0  503 -0.93681368284E+02 -0.23303713798E+02 -0.25864465001E+03  0.27607302806E+03  0.00000000000E+00 0.  1.
<mgrwt>
<rscale>  0 0.24156632E+04</rscale>
<asrwt>0</asrwt>
<pdfrwt beam="1">  1        2 0.53718113E+00 0.24156632E+04</pdfrwt>
<pdfrwt beam="2">  1       -1 0.64278436E-01 0.24156632E+04</pdfrwt>
<totfact> 0.20694917E+00</totfact>
</mgrwt>
</event>
<event>
12    6  0.1494052E-007  0.1316094E+04  0.7818608E-02  0.9016899E-01
          2   -1    0    0  501    0  0.00000000000E+00  0.00000000000E+00  0.64350585556E+03  0.64350585556E+03  0.00000000000E+00 0. -1.
         -1   -1    0    0    0  501 -0.00000000000E+00 -0.00000000000E+00 -0.67291646817E+03  0.67291646817E+03  0.00000000000E+00 0.  1.
         24    2    1    2    0    0 -0.23419786087E+03 -0.98755490487E+02  0.28910213886E+03  0.39327896444E+03  0.80541990563E+02 0.  0.
        254    2    1    2    0    0  0.23419786087E+03  0.98755490487E+02 -0.31851275147E+03  0.92314335928E+03  0.82833689040E+03 0.  0.
         23    2    4    4    0    0  0.22747234705E+03 -0.33645708476E+03 -0.20869681324E+03  0.46533042451E+03  0.89615877867E+02 0.  0.
         23    2    4    4    0    0  0.67255138230E+01  0.43521257524E+03 -0.10981593823E+03  0.45781293477E+03  0.89877276145E+02 0.  0.
          2    1    3    3  502    0 -0.12879263334E+03 -0.61470787617E+02  0.21873635481E+03  0.26117387513E+03  0.00000000000E+00 0. -1.
         -1    1    3    3    0  502 -0.10540522753E+03 -0.37284702869E+02  0.70365784050E+02  0.13210508932E+03  0.00000000000E+00 0.  1.
         11    1    5    5    0    0  0.21060591175E+03 -0.28255268983E+03 -0.14743624686E+03  0.38200565373E+03  0.00000000000E+00 0. -1.
        -11    1    5    5    0    0  0.16866435291E+02 -0.53904394931E+02 -0.61260566383E+02  0.83324770782E+02  0.00000000000E+00 0.  1.
          2    1    6    6  503    0  0.12332900399E+02  0.25261639006E+02  0.11316265785E+02  0.30303608842E+02  0.00000000000E+00 0.  1.
         -2    1    6    6    0  503 -0.56073865758E+01  0.40995093624E+03 -0.12113220402E+03  0.42750932593E+03  0.00000000000E+00 0. -1.
<mgrwt>
<rscale>  0 0.13160937E+04</rscale>
<asrwt>0</asrwt>
<pdfrwt beam="1">  1        2 0.99000902E-01 0.13160937E+04</pdfrwt>
<pdfrwt beam="2">  1       -1 0.10352561E+00 0.13160937E+04</pdfrwt>
<totfact> 0.44829788E+01</totfact>
</mgrwt>
</event>
<event>
12    6  0.1494052E-007  0.1760441E+04  0.7818608E-02  0.8727624E-01
         -1   -1    0    0    0  501 -0.00000000000E+00  0.00000000000E+00  0.34926185601E+03  0.34926185601E+03  0.00000000000E+00 0.  1.
          2   -1    0    0  501    0  0.00000000000E+00 -0.00000000000E+00 -0.22183580272E+04  0.22183580272E+04  0.00000000000E+00 0. -1.
         24    2    1    2    0    0 -0.10007972909E+03 -0.22024910343E+03 -0.15650063803E+04  0.15850801516E+04  0.68618487961E+02 0.  0.
        254    2    1    2    0    0  0.10007972909E+03  0.22024910343E+03 -0.30408979091E+03  0.98253973163E+03  0.90243454253E+03 0.  0.
         23    2    4    4    0    0  0.32377521243E+02  0.53879736955E+03 -0.32111074450E+02  0.54791499029E+03  0.88480541189E+02 0.  0.
         23    2    4    4    0    0  0.67702207843E+02 -0.31854826612E+03 -0.27197871646E+03  0.43462474133E+03  0.94178855252E+02 0.  0.
          4    1    3    3  502    0 -0.21665961092E+02 -0.13044473976E+03 -0.83059244028E+03  0.84105234430E+03  0.00000000000E+00 0. -1.
         -3    1    3    3    0  502 -0.78413767995E+02 -0.89804363670E+02 -0.73441394005E+03  0.74402780733E+03  0.00000000000E+00 0.  1.
         11    1    5    5    0    0  0.49824978655E+01  0.28978344049E+03 -0.59613252211E+02  0.29589357462E+03  0.00000000000E+00 0. -1.
        -11    1    5    5    0    0  0.27395023378E+02  0.24901392907E+03  0.27502177761E+02  0.25202141567E+03  0.00000000000E+00 0.  1.
          4    1    6    6  503    0  0.35260163445E+02 -0.29876296157E+03 -0.23699891078E+03  0.38297659203E+03  0.00000000000E+00 0. -1.
         -4    1    6    6    0  503  0.32442044398E+02 -0.19785304548E+02 -0.34979805683E+02  0.51648149303E+02  0.00000000000E+00 0.  1.
<mgrwt>
<rscale>  0 0.17604407E+04</rscale>
<asrwt>0</asrwt>
<pdfrwt beam="1">  1        2 0.34128586E+00 0.17604407E+04</pdfrwt>
<pdfrwt beam="2">  1       -1 0.53732592E-01 0.17604407E+04</pdfrwt>
<totfact> 0.19016504E+01</totfact>
</mgrwt>
</event>
<event>
12    6  0.1494052E-007  0.1247771E+04  0.7818608E-02  0.9072040E-01
         -1   -1    0    0    0  501 -0.00000000000E+00  0.00000000000E+00  0.23497055445E+03  0.23497055445E+03  0.00000000000E+00 0.  1.
          2   -1    0    0  501    0  0.00000000000E+00 -0.00000000000E+00 -0.16565194421E+04  0.16565194421E+04  0.00000000000E+00 0. -1.
         24    2    1    2    0    0 -0.24805486532E+03 -0.34937005307E+02 -0.11133547245E+03  0.28549292369E+03  0.79742156391E+02 0.  0.
        254    2    1    2    0    0  0.24805486532E+03  0.34937005307E+02 -0.13102134152E+04  0.16059970729E+04  0.89432409904E+03 0.  0.
         23    2    4    4    0    0  0.12752440915E+03  0.38874311426E+03 -0.10769229627E+04  0.11554841431E+04  0.89425128129E+02 0.  0.
         23    2    4    4    0    0  0.12053045617E+03 -0.35380610895E+03 -0.23329045255E+03  0.45051292981E+03  0.93973991481E+02 0.  0.
          2    1    3    3  502    0 -0.44387083864E+02  0.11293778449E+02 -0.50037069486E+02  0.67834143087E+02  0.00000000000E+00 0. -1.
         -1    1    3    3    0  502 -0.20366778146E+03 -0.46230783757E+02 -0.61298402960E+02  0.21765878061E+03  0.00000000000E+00 0.  1.
         11    1    5    5    0    0  0.26157414194E+02  0.37550831580E+02 -0.20492669671E+03  0.20997434675E+03  0.00000000000E+00 0. -1.
        -11    1    5    5    0    0  0.10136699495E+03  0.35119228268E+03 -0.87199626599E+03  0.94550979635E+03  0.00000000000E+00 0.  1.
          3    1    6    6  503    0  0.16131910751E+02 -0.31481019612E+02  0.57868157137E+01  0.35843833171E+02  0.00000000000E+00 0. -1.
         -3    1    6    6    0  503  0.10439854542E+03 -0.32232508934E+03 -0.23907726826E+03  0.41466909664E+03  0.00000000000E+00 0.  1.
<mgrwt>
<rscale>  0 0.12477713E+04</rscale>
<asrwt>0</asrwt>
<pdfrwt beam="1">  1        2 0.25484914E+00 0.12477713E+04</pdfrwt>
<pdfrwt beam="2">  1       -1 0.36149317E-01 0.12477713E+04</pdfrwt>
<totfact> 0.85064544E+01</totfact>
</mgrwt>
</event>
<event>
12    6  0.1494052E-007  0.2109629E+04  0.7818608E-02  0.8557014E-01
         -1   -1    0    0    0  501 -0.00000000000E+00  0.00000000000E+00  0.43662332491E+03  0.43662332491E+03  0.00000000000E+00 0.  1.
          2   -1    0    0  501    0  0.00000000000E+00 -0.00000000000E+00 -0.25482679765E+04  0.25482679765E+04  0.00000000000E+00 0. -1.
         24    2    1    2    0    0  0.22325324951E+03  0.44553047202E+03  0.11579143084E+03  0.51724408294E+03  0.76120765675E+02 0.  0.
        254    2    1    2    0    0 -0.22325324951E+03 -0.44553047202E+03 -0.22274360824E+04  0.24676472184E+04  0.93780162003E+03 0.  0.
         23    2    4    4    0    0  0.25023536368E+03  0.14026692520E+03 -0.70473251930E+03  0.76645867452E+03  0.92295332794E+02 0.  0.
         23    2    4    4    0    0 -0.47348861319E+03 -0.58579739722E+03 -0.15227035631E+04  0.17011885439E+04  0.89812379035E+02 0.  0.
          4    1    3    3  502    0  0.10130815611E+02  0.82170504266E+02  0.22316812578E+02  0.85747684049E+02  0.00000000000E+00 0. -1.
         -3    1    3    3    0  502  0.21312243390E+03  0.36335996776E+03  0.93474618259E+02  0.43149639889E+03  0.00000000000E+00 0.  1.
         11    1    5    5    0    0  0.11640163282E+03  0.14857425912E+02 -0.29871970618E+03  0.32094165528E+03  0.00000000000E+00 0. -1.
        -11    1    5    5    0    0  0.13383373085E+03  0.12540949929E+03 -0.40601281311E+03  0.44551701925E+03  0.00000000000E+00 0.  1.
          1    1    6    6  503    0 -0.39369058507E+01 -0.86240029362E+01 -0.45644710292E+01  0.10521741781E+02  0.00000000000E+00 0. -1.
         -1    1    6    6    0  503 -0.46955170734E+03 -0.57717339429E+03 -0.15181390921E+04  0.16906668021E+04  0.00000000000E+00 0.  1.
<mgrwt>
<rscale>  0 0.21096286E+04</rscale>
<asrwt>0</asrwt>
<pdfrwt beam="1">  1        2 0.39204123E+00 0.21096286E+04</pdfrwt>
<pdfrwt beam="2">  1       -1 0.67172819E-01 0.21096286E+04</pdfrwt>
<totfact> 0.76799258E+00</totfact>
</mgrwt>
</event>
<event>
12    6  0.1494052E-007  0.2173247E+04  0.7818608E-02  0.8529646E-01
         -1   -1    0    0    0  501 -0.00000000000E+00  0.00000000000E+00  0.10260316328E+04  0.10260316328E+04  0.00000000000E+00 0.  1.
          2   -1    0    0  501    0  0.00000000000E+00 -0.00000000000E+00 -0.11507936610E+04  0.11507936610E+04  0.00000000000E+00 0. -1.
         24    2    1    2    0    0 -0.24632042446E+03 -0.85812491032E+03  0.41835373429E+02  0.89728143753E+03  0.79445997076E+02 0.  0.
        254    2    1    2    0    0  0.24632042446E+03  0.85812491032E+03 -0.16659740161E+03  0.12795438563E+04  0.90134658864E+03 0.  0.
         23    2    4    4    0    0  0.36328764703E+03  0.47011425387E+02  0.13593578055E+03  0.40135970444E+03  0.91777379118E+02 0.  0.
         23    2    4    4    0    0 -0.11696722256E+03  0.81111348493E+03 -0.30253318216E+03  0.87818415189E+03  0.89970338094E+02 0.  0.
          2    1    3    3  502    0 -0.15413893681E+03 -0.43220181730E+03  0.48707582315E+02  0.46144300980E+03  0.00000000000E+00 0. -1.
         -1    1    3    3    0  502 -0.92181487656E+02 -0.42592309302E+03 -0.68722088864E+01  0.43583842773E+03  0.00000000000E+00 0.  1.
         11    1    5    5    0    0  0.10123996749E+02  0.13293224816E+02 -0.79721873166E+01  0.18513803143E+02  0.00000000000E+00 0. -1.
        -11    1    5    5    0    0  0.35316365028E+03  0.33718200570E+02  0.14390796787E+03  0.38284590130E+03  0.00000000000E+00 0.  1.
          2    1    6    6  503    0 -0.11604389579E+03  0.66489613902E+03 -0.27782845375E+03  0.72989157493E+03  0.00000000000E+00 0.  1.
         -2    1    6    6    0  503 -0.92332677107E+00  0.14621734591E+03 -0.24704728405E+02  0.14829257696E+03  0.00000000000E+00 0. -1.
<mgrwt>
<rscale>  0 0.21732471E+04</rscale>
<asrwt>0</asrwt>
<pdfrwt beam="1">  1        2 0.17704518E+00 0.21732471E+04</pdfrwt>
<pdfrwt beam="2">  1       -1 0.15785102E+00 0.21732471E+04</pdfrwt>
<totfact> 0.64277133E+00</totfact>
</mgrwt>
</event>
<event>
12    6  0.1494052E-007  0.1477534E+04  0.7818608E-02  0.8899531E-01
         -1   -1    0    0    0  501 -0.00000000000E+00  0.00000000000E+00  0.19778710121E+03  0.19778710121E+03  0.00000000000E+00 0.  1.
          2   -1    0    0  501    0  0.00000000000E+00 -0.00000000000E+00 -0.27594159104E+04  0.27594159104E+04  0.00000000000E+00 0. -1.
         24    2    1    2    0    0 -0.36607001751E+03  0.22377889982E+02 -0.24923576075E+03  0.45067663006E+03  0.80516661466E+02 0.  0.
        254    2    1    2    0    0  0.36607001751E+03 -0.22377889982E+02 -0.23123930484E+04  0.25065263815E+04  0.89498875030E+03 0.  0.
         23    2    4    4    0    0 -0.24682224549E+03 -0.15734068667E+03 -0.10474024131E+04  0.10914056759E+04  0.91854351466E+02 0.  0.
         23    2    4    4    0    0  0.61289226300E+03  0.13496279669E+03 -0.12649906353E+04  0.14151207056E+04  0.92268203928E+02 0.  0.
          4    1    3    3  502    0 -0.22456924882E+02 -0.18095421742E+02 -0.26690063860E+02  0.39295257627E+02  0.00000000000E+00 0. -1.
         -3    1    3    3    0  502 -0.34361309263E+03  0.40473311724E+02 -0.22254569689E+03  0.41138137244E+03  0.00000000000E+00 0.  1.
         11    1    5    5    0    0 -0.10951339034E+03 -0.38917751925E+02 -0.28605056485E+03  0.30875993867E+03  0.00000000000E+00 0. -1.
        -11    1    5    5    0    0 -0.13730885515E+03 -0.11842293475E+03 -0.76135184822E+03  0.78264573720E+03  0.00000000000E+00 0.  1.
          2    1    6    6  503    0  0.47955853532E+03  0.83003066866E+02 -0.10436291693E+04  0.11515327789E+04  0.00000000000E+00 0. -1.
         -2    1    6    6    0  503  0.13333372768E+03  0.51959729824E+02 -0.22136146608E+03  0.26358792674E+03  0.00000000000E+00 0.  1.
<mgrwt>
<rscale>  0 0.14775343E+04</rscale>
<asrwt>0</asrwt>
<pdfrwt beam="1">  1        2 0.42452550E+00 0.14775343E+04</pdfrwt>
<pdfrwt beam="2">  1       -1 0.30428787E-01 0.14775343E+04</pdfrwt>
<totfact> 0.26975216E+01</totfact>
</mgrwt>
</event>
<event>
12    6  0.1494052E-007  0.1546041E+04  0.7818608E-02  0.8854401E-01
          2   -1    0    0  501    0  0.00000000000E+00  0.00000000000E+00  0.12943797378E+04  0.12943797378E+04  0.00000000000E+00 0. -1.
         -1   -1    0    0    0  501 -0.00000000000E+00 -0.00000000000E+00 -0.46165772155E+03  0.46165772155E+03  0.00000000000E+00 0.  1.
         24    2    1    2    0    0  0.37428792290E+03 -0.30600351666E+03 -0.13192704147E+01  0.49005144864E+03  0.80119163774E+02 0.  0.
        254    2    1    2    0    0 -0.37428792290E+03  0.30600351666E+03  0.83404128669E+03  0.12659860107E+04  0.82058888003E+03 0.  0.
         23    2    4    4    0    0 -0.43754262702E+03  0.31022855279E+03  0.95641128712E+03  0.11005421891E+04  0.93729687770E+02 0.  0.
         23    2    4    4    0    0  0.63254704118E+02 -0.42250361334E+01 -0.12237000043E+03  0.16544382167E+03  0.91532685961E+02 0.  0.
          4    1    3    3  502    0  0.11187856006E+03 -0.95397597994E+02 -0.37227261827E+02  0.15166866165E+03  0.00000000000E+00 0. -1.
         -3    1    3    3    0  502  0.26240936284E+03 -0.21060591867E+03  0.35907991412E+02  0.33838278699E+03  0.00000000000E+00 0.  1.
         11    1    5    5    0    0 -0.43251631752E+03  0.28363379487E+03  0.91508291601E+03  0.10511399706E+04  0.00000000000E+00 0.  1.
        -11    1    5    5    0    0 -0.50263094961E+01  0.26594757924E+02  0.41328371102E+02  0.49402218514E+02  0.00000000000E+00 0. -1.
          3    1    6    6  503    0 -0.17966923722E+02 -0.21311859106E+02 -0.24433410203E+02  0.37067468496E+02  0.00000000000E+00 0. -1.
         -3    1    6    6    0  503  0.81221627839E+02  0.17086822972E+02 -0.97936590225E+02  0.12837635317E+03  0.00000000000E+00 0.  1.
<mgrwt>
<rscale>  0 0.15460406E+04</rscale>
<asrwt>0</asrwt>
<pdfrwt beam="1">  1        2 0.19913534E+00 0.15460406E+04</pdfrwt>
<pdfrwt beam="2">  1       -1 0.71024266E-01 0.15460406E+04</pdfrwt>
<totfact> 0.36611776E+01</totfact>
</mgrwt>
</event>
<event>
12    6  0.1494052E-007  0.1907723E+04  0.7818608E-02  0.8651022E-01
         -1   -1    0    0    0  501 -0.00000000000E+00  0.00000000000E+00  0.14408300058E+04  0.14408300058E+04  0.00000000000E+00 0.  1.
          2   -1    0    0  501    0  0.00000000000E+00 -0.00000000000E+00 -0.63147757209E+03  0.63147757209E+03  0.00000000000E+00 0. -1.
         24    2    1    2    0    0  0.50151863975E+03  0.13067834098E+03  0.87642283276E+03  0.10212578921E+04  0.79075441876E+02 0.  0.
        254    2    1    2    0    0 -0.50151863975E+03 -0.13067834098E+03 -0.67070399105E+02  0.10510496858E+04  0.91192610924E+03 0.  0.
         23    2    4    4    0    0  0.66619417708E+02 -0.33472295485E+03  0.17631170717E+03  0.39388660709E+03  0.87081788239E+02 0.  0.
         23    2    4    4    0    0 -0.56813805746E+03  0.20404461387E+03 -0.24338210627E+03  0.65716307868E+03  0.90627840937E+02 0.  0.
          2    1    3    3  502    0  0.14503219462E+02  0.14164979754E+02  0.61706783842E+02  0.64951652776E+02  0.00000000000E+00 0. -1.
         -1    1    3    3    0  502  0.48701542029E+03  0.11651336122E+03  0.81471604892E+03  0.95630623929E+03  0.00000000000E+00 0.  1.
         11    1    5    5    0    0  0.63216024842E+02 -0.28083941750E+03  0.18043111680E+03  0.33973877042E+03  0.00000000000E+00 0. -1.
        -11    1    5    5    0    0  0.34033928654E+01 -0.53883537348E+02 -0.41194096311E+01  0.54147836668E+02  0.00000000000E+00 0.  1.
          1    1    6    6  503    0 -0.45602857458E+03  0.14921961168E+03 -0.22859666417E+03  0.53149316855E+03  0.00000000000E+00 0. -1.
         -1    1    6    6    0  503 -0.11210948287E+03  0.54825002192E+02 -0.14785442107E+02  0.12566991014E+03  0.00000000000E+00 0.  1.
<mgrwt>
<rscale>  0 0.19077231E+04</rscale>
<asrwt>0</asrwt>
<pdfrwt beam="1">  1        2 0.97150396E-01 0.19077231E+04</pdfrwt>
<pdfrwt beam="2">  1       -1 0.22166615E+00 0.19077231E+04</pdfrwt>
<totfact> 0.53412080E+00</totfact>
</mgrwt>
</event>
<event>
12    6  0.1494052E-007  0.1528008E+04  0.7818608E-02  0.8866039E-01
         -1   -1    0    0    0  501 -0.00000000000E+00  0.00000000000E+00  0.18306294249E+03  0.18306294249E+03  0.00000000000E+00 0.  1.
          2   -1    0    0  501    0  0.00000000000E+00 -0.00000000000E+00 -0.31885328867E+04  0.31885328867E+04  0.00000000000E+00 0. -1.
         24    2    1    2    0    0 -0.51712173165E+02 -0.37607303150E+03 -0.28024790948E+03  0.47833824472E+03  0.78508036032E+02 0.  0.
        254    2    1    2    0    0  0.51712173165E+02  0.37607303150E+03 -0.27252220348E+04  0.28932575845E+04  0.89442676485E+03 0.  0.
         23    2    4    4    0    0  0.45505822642E+03  0.28605786852E+03 -0.16490792957E+04  0.17368573911E+04  0.91126175807E+02 0.  0.
         23    2    4    4    0    0 -0.40334605325E+03  0.90015162976E+02 -0.10761427391E+04  0.11564001934E+04  0.91582991054E+02 0.  0.
          2    1    3    3  502    0 -0.14086028620E+02 -0.54644523633E+01 -0.99425549134E+01  0.18086758695E+02  0.00000000000E+00 0. -1.
         -1    1    3    3    0  502 -0.37626144546E+02 -0.37060857913E+03 -0.27030535456E+03  0.46025148602E+03  0.00000000000E+00 0.  1.
         11    1    5    5    0    0  0.21341503318E+03  0.17936428328E+03 -0.92523400243E+03  0.96632058954E+03  0.00000000000E+00 0. -1.
        -11    1    5    5    0    0  0.24164319323E+03  0.10669358524E+03 -0.72384529326E+03  0.77053680155E+03  0.00000000000E+00 0.  1.
          2    1    6    6  503    0 -0.22973107599E+03  0.16503672645E+02 -0.50756379342E+03  0.55737755864E+03  0.00000000000E+00 0. -1.
         -2    1    6    6    0  503 -0.17361497726E+03  0.73511490331E+02 -0.56857894566E+03  0.59902263479E+03  0.00000000000E+00 0.  1.
<mgrwt>
<rscale>  0 0.15280081E+04</rscale>
<asrwt>0</asrwt>
<pdfrwt beam="1">  1        2 0.49054350E+00 0.15280081E+04</pdfrwt>
<pdfrwt beam="2">  1       -1 0.28163531E-01 0.15280081E+04</pdfrwt>
<totfact> 0.16659281E+01</totfact>
</mgrwt>
</event>
<event>
12    6  0.1494052E-007  0.1536900E+04  0.7818608E-02  0.8860279E-01
         -1   -1    0    0    0  501 -0.00000000000E+00  0.00000000000E+00  0.89324145325E+03  0.89324145325E+03  0.00000000000E+00 0.  1.
          2   -1    0    0  501    0  0.00000000000E+00 -0.00000000000E+00 -0.66109236914E+03  0.66109236914E+03  0.00000000000E+00 0. -1.
         24    2    1    2    0    0  0.30190281655E+03 -0.26036108280E+03  0.42179275330E+03  0.58590026875E+03  0.80229633570E+02 0.  0.
        254    2    1    2    0    0 -0.30190281655E+03  0.26036108280E+03 -0.18964366919E+03  0.96843355365E+03  0.86195453621E+03 0.  0.
         23    2    4    4    0    0  0.15537659327E+03 -0.53536045980E+02  0.20751975833E+03  0.27993903451E+03  0.91068210663E+02 0.  0.
         23    2    4    4    0    0 -0.45727940981E+03  0.31389712878E+03 -0.39716342752E+03  0.68849451914E+03  0.93005637613E+02 0.  0.
          2    1    3    3  502    0  0.28276803855E+03 -0.25938334814E+03  0.38053778864E+03  0.54041326177E+03  0.00000000000E+00 0. -1.
         -1    1    3    3    0  502  0.19134777998E+02 -0.97773465941E+00  0.41254964659E+02  0.45487006971E+02  0.00000000000E+00 0.  1.
         11    1    5    5    0    0  0.15931752403E+03 -0.54865026408E+02  0.21391621648E+03  0.27230936865E+03  0.00000000000E+00 0. -1.
        -11    1    5    5    0    0 -0.39409307612E+01  0.13289804283E+01 -0.63964581498E+01  0.76296658581E+01  0.00000000000E+00 0.  1.
          3    1    6    6  503    0 -0.73476192825E+02  0.40638389530E+02 -0.10369678636E+03  0.13342883165E+03  0.00000000000E+00 0. -1.
         -3    1    6    6    0  503 -0.38380321699E+03  0.27325873925E+03 -0.29346664116E+03  0.55506568749E+03  0.00000000000E+00 0.  1.
<mgrwt>
<rscale>  0 0.15368996E+04</rscale>
<asrwt>0</asrwt>
<pdfrwt beam="1">  1        2 0.10170652E+00 0.15368996E+04</pdfrwt>
<pdfrwt beam="2">  1       -1 0.13742176E+00 0.15368996E+04</pdfrwt>
<totfact> 0.21324582E+01</totfact>
</mgrwt>
</event>
<event>
12    6  0.1494052E-007  0.1550342E+04  0.7818608E-02  0.8851649E-01
          2   -1    0    0  501    0  0.00000000000E+00  0.00000000000E+00  0.12540315965E+04  0.12540315965E+04  0.00000000000E+00 0. -1.
         -1   -1    0    0    0  501 -0.00000000000E+00 -0.00000000000E+00 -0.47916680335E+03  0.47916680335E+03  0.00000000000E+00 0.  1.
         24    2    1    2    0    0 -0.11695253475E+03  0.24196105085E+01 -0.29667920223E+03  0.32874991837E+03  0.79838649120E+02 0.  0.
        254    2    1    2    0    0  0.11695253475E+03 -0.24196105085E+01  0.10715439954E+04  0.14044484815E+04  0.90032508196E+03 0.  0.
         23    2    4    4    0    0 -0.20952802734E+03 -0.31208944917E+03  0.24583719696E+03  0.45973673898E+03  0.98082226891E+02 0.  0.
         23    2    4    4    0    0  0.32648056209E+03  0.30966983866E+03  0.82570679842E+03  0.94471174251E+03  0.90573688623E+02 0.  0.
          2    1    3    3  502    0 -0.16825606906E+02  0.38378206478E+01 -0.18230575517E+01  0.17353773478E+02  0.00000000000E+00 0. -1.
         -1    1    3    3    0  502 -0.10012692784E+03 -0.14182101393E+01 -0.29485614467E+03  0.31139614489E+03  0.00000000000E+00 0.  1.
         11    1    5    5    0    0  0.43972317722E+00  0.28427836134E+01  0.17401409288E+02  0.17637568436E+02  0.00000000000E+00 0.  1.
        -11    1    5    5    0    0 -0.20996775052E+03 -0.31493223278E+03  0.22843578767E+03  0.44209917054E+03  0.00000000000E+00 0. -1.
          1    1    6    6  503    0  0.21772277597E+03  0.16636024848E+03  0.42784057695E+03  0.50806151077E+03  0.00000000000E+00 0.  1.
         -1    1    6    6    0  503  0.10875778612E+03  0.14330959018E+03  0.39786622147E+03  0.43665023173E+03  0.00000000000E+00 0. -1.
<mgrwt>
<rscale>  0 0.15503423E+04</rscale>
<asrwt>0</asrwt>
<pdfrwt beam="1">  1        2 0.19292794E+00 0.15503423E+04</pdfrwt>
<pdfrwt beam="2">  1       -1 0.73717970E-01 0.15503423E+04</pdfrwt>
<totfact> 0.35783612E+01</totfact>
</mgrwt>
</event>
<event>
12    6  0.1494052E-007  0.1838805E+04  0.7818608E-02  0.8685931E-01
          2   -1    0    0  501    0  0.00000000000E+00  0.00000000000E+00  0.11744868000E+04  0.11744868000E+04  0.00000000000E+00 0. -1.
         -1   -1    0    0    0  501 -0.00000000000E+00 -0.00000000000E+00 -0.71971954956E+03  0.71971954956E+03  0.00000000000E+00 0.  1.
         24    2    1    2    0    0 -0.16870333043E+01  0.10641059809E+03  0.88450487159E+03  0.89462078949E+03  0.81678807888E+02 0.  0.
        254    2    1    2    0    0  0.16870333043E+01 -0.10641059809E+03 -0.42973762118E+03  0.99958556004E+03  0.89619797329E+03 0.  0.
         23    2    4    4    0    0 -0.31731859116E+03  0.43321698672E+02 -0.52538050478E+03  0.62207181777E+03  0.91546784659E+02 0.  0.
         23    2    4    4    0    0  0.31900562447E+03 -0.14973229676E+03  0.95642883610E+02  0.37751374227E+03  0.95836920272E+02 0.  0.
          4    1    3    3  502    0 -0.25097432618E+02  0.10075435246E+03  0.80133273269E+03  0.80803184909E+03  0.00000000000E+00 0. -1.
         -3    1    3    3    0  502  0.23410399314E+02  0.56562456255E+01  0.83172138893E+02  0.86588940395E+02  0.00000000000E+00 0.  1.
         11    1    5    5    0    0 -0.32125152117E+03  0.34961904877E+02 -0.51648441534E+03  0.60924627692E+03  0.00000000000E+00 0. -1.
        -11    1    5    5    0    0  0.39329300081E+01  0.83597937951E+01 -0.88960894409E+01  0.12825540850E+02  0.00000000000E+00 0.  1.
          4    1    6    6  503    0  0.25767074637E+03 -0.79353449299E+02  0.52522461841E+02  0.27468125609E+03  0.00000000000E+00 0. -1.
         -4    1    6    6    0  503  0.61334878094E+02 -0.70378847459E+02  0.43120421769E+02  0.10283248618E+03  0.00000000000E+00 0.  1.
<mgrwt>
<rscale>  0 0.18388052E+04</rscale>
<asrwt>0</asrwt>
<pdfrwt beam="1">  1        2 0.18069028E+00 0.18388052E+04</pdfrwt>
<pdfrwt beam="2">  1       -1 0.11072608E+00 0.18388052E+04</pdfrwt>
<totfact> 0.15823744E+01</totfact>
</mgrwt>
</event>
<event>
12    6  0.1494052E-007  0.1856129E+04  0.7818608E-02  0.8677007E-01
         -1   -1    0    0    0  501 -0.00000000000E+00  0.00000000000E+00  0.71570381188E+03  0.71570381188E+03  0.00000000000E+00 0.  1.
          2   -1    0    0  501    0  0.00000000000E+00 -0.00000000000E+00 -0.12034360613E+04  0.12034360613E+04  0.00000000000E+00 0. -1.
         24    2    1    2    0    0 -0.15663628071E+03  0.10888013015E+03  0.51447316646E+03  0.55429024586E+03  0.78518981640E+02 0.  0.
        254    2    1    2    0    0  0.15663628071E+03 -0.10888013015E+03 -0.10022054159E+04  0.13648496273E+04  0.90664712120E+03 0.  0.
         23    2    4    4    0    0  0.12296740447E+03 -0.13333442265E+03 -0.11606404628E+04  0.11783202558E+04  0.91941777539E+02 0.  0.
         23    2    4    4    0    0  0.33668876238E+02  0.24454292504E+02  0.15843504694E+03  0.18652937151E+03  0.89218477288E+02 0.  0.
          4    1    3    3  502    0 -0.10032893316E+02  0.73091275339E+01  0.12855116151E+03  0.12914907440E+03  0.00000000000E+00 0. -1.
         -3    1    3    3    0  502 -0.14660338739E+03  0.10157100262E+03  0.38592200495E+03  0.42514117146E+03  0.00000000000E+00 0.  1.
         11    1    5    5    0    0  0.50048817736E+02 -0.25726615089E+02 -0.60799015837E+03  0.61058887605E+03  0.00000000000E+00 0. -1.
        -11    1    5    5    0    0  0.72918586732E+02 -0.10760780757E+03 -0.55265030448E+03  0.56773137978E+03  0.00000000000E+00 0.  1.
          2    1    6    6  503    0  0.56196944022E+02  0.12718718096E+01  0.13606347216E+03  0.14721746714E+03  0.00000000000E+00 0. -1.
         -2    1    6    6    0  503 -0.22528067784E+02  0.23182420694E+02  0.22371574783E+02  0.39311904375E+02  0.00000000000E+00 0.  1.
<mgrwt>
<rscale>  0 0.18561291E+04</rscale>
<asrwt>0</asrwt>
<pdfrwt beam="1">  1        2 0.18514401E+00 0.18561291E+04</pdfrwt>
<pdfrwt beam="2">  1       -1 0.11010828E+00 0.18561291E+04</pdfrwt>
<totfact> 0.15383327E+01</totfact>
</mgrwt>
</event>
<event>
12    6  0.1494052E-007  0.2058770E+04  0.7818608E-02  0.8579626E-01
          2   -1    0    0  501    0  0.00000000000E+00  0.00000000000E+00  0.24152801061E+04  0.24152801061E+04  0.00000000000E+00 0. -1.
         -1   -1    0    0    0  501 -0.00000000000E+00 -0.00000000000E+00 -0.43872065136E+03  0.43872065136E+03  0.00000000000E+00 0.  1.
         24    2    1    2    0    0 -0.52891159855E+03 -0.17912372517E+03  0.16389091118E+04  0.17342165703E+04  0.98240766543E+02 0.  0.
        254    2    1    2    0    0  0.52891159855E+03  0.17912372517E+03  0.33765034294E+03  0.11197841871E+04  0.90998685900E+03 0.  0.
         23    2    4    4    0    0  0.36382151337E+03  0.45074277811E+03  0.48117619939E+03  0.75831855402E+03  0.89338395439E+02 0.  0.
         23    2    4    4    0    0  0.16509008517E+03 -0.27161905294E+03 -0.14352585645E+03  0.36146563306E+03  0.95005717072E+02 0.  0.
          2    1    3    3  502    0 -0.41191546553E+03 -0.95002320523E+02  0.12403933409E+04  0.13104485613E+04  0.00000000000E+00 0. -1.
         -1    1    3    3    0  502 -0.11699613302E+03 -0.84121404650E+02  0.39851577084E+03  0.42376800902E+03  0.00000000000E+00 0.  1.
         11    1    5    5    0    0  0.54639627951E+02  0.50547738301E+02  0.28855456552E+02  0.79832325300E+02  0.00000000000E+00 0.  1.
        -11    1    5    5    0    0  0.30918188542E+03  0.40019503981E+03  0.45232074284E+03  0.67848622872E+03  0.00000000000E+00 0. -1.
          3    1    6    6  503    0  0.13468755620E+03 -0.26933189908E+03 -0.12736817885E+03  0.32696033802E+03  0.00000000000E+00 0. -1.
         -3    1    6    6    0  503  0.30402528970E+02 -0.22871538603E+01 -0.16157677595E+02  0.34505295040E+02  0.00000000000E+00 0.  1.
<mgrwt>
<rscale>  0 0.20587698E+04</rscale>
<asrwt>0</asrwt>
<pdfrwt beam="1">  1        2 0.37158155E+00 0.20587698E+04</pdfrwt>
<pdfrwt beam="2">  1       -1 0.67495486E-01 0.20587698E+04</pdfrwt>
<totfact> 0.91179448E+00</totfact>
</mgrwt>
</event>
<event>
12    6  0.1494052E-007  0.1669548E+04  0.7818608E-02  0.8778925E-01
         -1   -1    0    0    0  501 -0.00000000000E+00  0.00000000000E+00  0.12836011648E+04  0.12836011648E+04  0.00000000000E+00 0.  1.
          2   -1    0    0  501    0  0.00000000000E+00 -0.00000000000E+00 -0.54288471993E+03  0.54288471993E+03  0.00000000000E+00 0. -1.
         24    2    1    2    0    0 -0.52572926108E+02 -0.42992360022E+03  0.70884894926E+03  0.83449326997E+03  0.79460494371E+02 0.  0.
        254    2    1    2    0    0  0.52572926108E+02  0.42992360022E+03  0.31867495565E+02  0.99199261473E+03  0.89187196156E+03 0.  0.
         23    2    4    4    0    0 -0.41795890949E+02  0.47102337763E+03  0.38261537126E+03  0.61528755373E+03  0.92597692670E+02 0.  0.
         23    2    4    4    0    0  0.94368817057E+02 -0.41099777406E+02 -0.35074787569E+03  0.37670506100E+03  0.91038263061E+02 0.  0.
          4    1    3    3  502    0 -0.49874175308E+02 -0.19042512942E+03  0.37619336105E+03  0.42458286374E+03  0.00000000000E+00 0. -1.
         -3    1    3    3    0  502 -0.26987508004E+01 -0.23949847080E+03  0.33265558821E+03  0.40991040623E+03  0.00000000000E+00 0.  1.
         11    1    5    5    0    0 -0.17114690126E+01  0.17064322758E+03  0.19384402139E+03  0.25825867822E+03  0.00000000000E+00 0.  1.
        -11    1    5    5    0    0 -0.40084421937E+02  0.30038015004E+03  0.18877134987E+03  0.35702887552E+03  0.00000000000E+00 0. -1.
          3    1    6    6  503    0  0.61567447077E+02  0.14668374317E+02 -0.10515241436E+03  0.12273036295E+03  0.00000000000E+00 0. -1.
         -3    1    6    6    0  503  0.32801369981E+02 -0.55768151722E+02 -0.24559546133E+03  0.25397469804E+03  0.00000000000E+00 0.  1.
<mgrwt>
<rscale>  0 0.16695478E+04</rscale>
<asrwt>0</asrwt>
<pdfrwt beam="1">  1        2 0.83520727E-01 0.16695478E+04</pdfrwt>
<pdfrwt beam="2">  1       -1 0.19747710E+00 0.16695478E+04</pdfrwt>
<totfact> 0.95460384E+00</totfact>
</mgrwt>
</event>
<event>
12    6  0.1494052E-007  0.1286245E+04  0.7818608E-02  0.9040544E-01
         -1   -1    0    0    0  501 -0.00000000000E+00  0.00000000000E+00  0.25747973775E+03  0.25747973775E+03  0.00000000000E+00 0.  1.
          2   -1    0    0  501    0  0.00000000000E+00 -0.00000000000E+00 -0.16063662954E+04  0.16063662954E+04  0.00000000000E+00 0. -1.
         24    2    1    2    0    0  0.21087008091E+03 -0.15428009023E+03 -0.24177372839E+03  0.36498062099E+03  0.80546760906E+02 0.  0.
        254    2    1    2    0    0 -0.21087008091E+03  0.15428009023E+03 -0.11071128293E+04  0.14988654122E+04  0.97602775053E+03 0.  0.
         23    2    4    4    0    0  0.29880968545E+03  0.33505405674E+03 -0.44441655697E+03  0.63848086305E+03  0.92753907277E+02 0.  0.
         23    2    4    4    0    0 -0.50967976636E+03 -0.18077396650E+03 -0.66269627231E+03  0.86038454913E+03  0.92965218520E+02 0.  0.
          2    1    3    3  502    0  0.95718229822E+02 -0.11442116027E+03 -0.15678046056E+03  0.21641232463E+03  0.00000000000E+00 0. -1.
         -1    1    3    3    0  502  0.11515185109E+03 -0.39858929962E+02 -0.84993267830E+02  0.14856829636E+03  0.00000000000E+00 0.  1.
         11    1    5    5    0    0  0.18288362174E+03  0.15751307486E+03 -0.18924161072E+03  0.30670698570E+03  0.00000000000E+00 0.  1.
        -11    1    5    5    0    0  0.11592606371E+03  0.17754098188E+03 -0.25517494625E+03  0.33177387734E+03  0.00000000000E+00 0. -1.
          2    1    6    6  503    0 -0.21170427428E+03 -0.88172990206E+02 -0.21267250446E+03  0.31276631868E+03  0.00000000000E+00 0. -1.
         -2    1    6    6    0  503 -0.29797549208E+03 -0.92600976296E+02 -0.45002376785E+03  0.54761823045E+03  0.00000000000E+00 0.  1.
<mgrwt>
<rscale>  0 0.12862453E+04</rscale>
<asrwt>0</asrwt>
<pdfrwt beam="1">  1        2 0.24713327E+00 0.12862453E+04</pdfrwt>
<pdfrwt beam="2">  1       -1 0.39612268E-01 0.12862453E+04</pdfrwt>
<totfact> 0.76644222E+01</totfact>
</mgrwt>
</event>
<event>
12    6  0.1494052E-007  0.1204493E+04  0.7818608E-02  0.9108933E-01
         -1   -1    0    0    0  501 -0.00000000000E+00  0.00000000000E+00  0.14190808996E+04  0.14190808996E+04  0.00000000000E+00 0.  1.
          2   -1    0    0  501    0  0.00000000000E+00 -0.00000000000E+00 -0.25558841601E+03  0.25558841601E+03  0.00000000000E+00 0. -1.
         24    2    1    2    0    0 -0.21850427250E+02  0.76733470956E+02 -0.71089970989E+02  0.13229812521E+03  0.77997071882E+02 0.  0.
        254    2    1    2    0    0  0.21850427250E+02 -0.76733470956E+02  0.12345824546E+04  0.15423711904E+04  0.92105894767E+03 0.  0.
         23    2    4    4    0    0 -0.43776903566E+03  0.10398129490E+02  0.63467867616E+03  0.77631660125E+03  0.90003298430E+02 0.  0.
         23    2    4    4    0    0  0.45961946291E+03 -0.87131600446E+02  0.59990377843E+03  0.76605458916E+03  0.90072880000E+02 0.  0.
          2    1    3    3  502    0  0.18867097941E+02  0.65788575992E+02 -0.52309735944E+02  0.86141816734E+02  0.00000000000E+00 0. -1.
         -1    1    3    3    0  502 -0.40717525192E+02  0.10944894964E+02 -0.18780235045E+02  0.46156308473E+02  0.00000000000E+00 0.  1.
         11    1    5    5    0    0 -0.43675154215E+03  0.19803015089E+02  0.61602184852E+03  0.75539856158E+03  0.00000000000E+00 0.  1.
        -11    1    5    5    0    0 -0.10174935038E+01 -0.94048855993E+01  0.18656827640E+02  0.20918039673E+02  0.00000000000E+00 0. -1.
          3    1    6    6  503    0  0.11053183194E+03 -0.17427190993E+02  0.87082683415E+02  0.14178993832E+03  0.00000000000E+00 0. -1.
         -3    1    6    6    0  503  0.34908763097E+03 -0.69704409453E+02  0.51282109501E+03  0.62426465084E+03  0.00000000000E+00 0.  1.
<mgrwt>
<rscale>  0 0.12044927E+04</rscale>
<asrwt>0</asrwt>
<pdfrwt beam="1">  1        2 0.39321296E-01 0.12044927E+04</pdfrwt>
<pdfrwt beam="2">  1       -1 0.21832013E+00 0.12044927E+04</pdfrwt>
<totfact> 0.16785476E+01</totfact>
</mgrwt>
</event>
<event>
12    6  0.1494052E-007  0.2226291E+04  0.7818608E-02  0.8507564E-01
         -1   -1    0    0    0  501 -0.00000000000E+00  0.00000000000E+00  0.97726873382E+03  0.97726873382E+03  0.00000000000E+00 0.  1.
          2   -1    0    0  501    0  0.00000000000E+00 -0.00000000000E+00 -0.12679146151E+04  0.12679146151E+04  0.00000000000E+00 0. -1.
         24    2    1    2    0    0 -0.14762787519E+03  0.89827374490E+03  0.58529514024E+02  0.91564182879E+03  0.79275117914E+02 0.  0.
        254    2    1    2    0    0  0.14762787519E+03 -0.89827374490E+03 -0.34917539531E+03  0.13295415201E+04  0.90391785399E+03 0.  0.
         23    2    4    4    0    0  0.11292736395E+03 -0.72595324543E+03 -0.64013767459E+03  0.97813771577E+03  0.84949658631E+02 0.  0.
         23    2    4    4    0    0  0.34700511242E+02 -0.17232049947E+03  0.29096227929E+03  0.35140380436E+03  0.89034295268E+02 0.  0.
          4    1    3    3  502    0 -0.88149122074E+01  0.21611795783E+03 -0.71369834534E+01  0.21641536662E+03  0.00000000000E+00 0. -1.
         -3    1    3    3    0  502 -0.13881296299E+03  0.68215578706E+03  0.65666497477E+02  0.69922646218E+03  0.00000000000E+00 0.  1.
         11    1    5    5    0    0  0.76242517403E+01 -0.21899807794E+03 -0.22928884318E+03  0.31716188447E+03  0.00000000000E+00 0.  1.
        -11    1    5    5    0    0  0.10530311221E+03 -0.50695516749E+03 -0.41084883141E+03  0.66097583130E+03  0.00000000000E+00 0. -1.
          4    1    6    6  503    0  0.55614311632E+01 -0.35807097073E+02  0.14491598913E+03  0.14937778156E+03  0.00000000000E+00 0. -1.
         -4    1    6    6    0  503  0.29139080079E+02 -0.13651340240E+03  0.14604629016E+03  0.20202602281E+03  0.00000000000E+00 0.  1.
<mgrwt>
<rscale>  0 0.22262914E+04</rscale>
<asrwt>0</asrwt>
<pdfrwt beam="1">  1        2 0.19506379E+00 0.22262914E+04</pdfrwt>
<pdfrwt beam="2">  1       -1 0.15034904E+00 0.22262914E+04</pdfrwt>
<totfact> 0.62225297E+00</totfact>
</mgrwt>
</event>
<event>
12    6  0.1494052E-007  0.2819267E+04  0.7818608E-02  0.8297312E-01
         -1   -1    0    0    0  501 -0.00000000000E+00  0.00000000000E+00  0.83350955440E+03  0.83350955440E+03  0.00000000000E+00 0.  1.
          2   -1    0    0  501    0  0.00000000000E+00 -0.00000000000E+00 -0.23839758669E+04  0.23839758669E+04  0.00000000000E+00 0. -1.
         24    2    1    2    0    0  0.98781338198E+03 -0.67899829884E+03 -0.23781231544E+03  0.12245775178E+04  0.78876056485E+02 0.  0.
        254    2    1    2    0    0 -0.98781338198E+03  0.67899829884E+03 -0.13126539970E+04  0.19929079035E+04  0.90100356732E+03 0.  0.
         23    2    4    4    0    0 -0.51797168106E+03 -0.12254605730E+03 -0.66539408832E+03  0.85694937795E+03  0.91108424708E+02 0.  0.
         23    2    4    4    0    0 -0.46984170092E+03  0.80154435614E+03 -0.64725990870E+03  0.11359585255E+04  0.90729286803E+02 0.  0.
          4    1    3    3  502    0  0.38935599100E+03 -0.29469462482E+03 -0.12917990687E+03  0.50510440303E+03  0.00000000000E+00 0. -1.
         -3    1    3    3    0  502  0.59845739098E+03 -0.38430367402E+03 -0.10863240857E+03  0.71947311477E+03  0.00000000000E+00 0.  1.
         11    1    5    5    0    0 -0.29302521771E+03 -0.66200589580E+02 -0.44584921109E+03  0.53761307211E+03  0.00000000000E+00 0.  1.
        -11    1    5    5    0    0 -0.22494646336E+03 -0.56345467719E+02 -0.21954487722E+03  0.31933630584E+03  0.00000000000E+00 0. -1.
          2    1    6    6  503    0 -0.23379758973E+03  0.43339371187E+03 -0.39350118222E+03  0.63034482854E+03  0.00000000000E+00 0. -1.
         -2    1    6    6    0  503 -0.23604411118E+03  0.36815064427E+03 -0.25375872648E+03  0.50561369697E+03  0.00000000000E+00 0.  1.
<mgrwt>
<rscale>  0 0.28192670E+04</rscale>
<asrwt>0</asrwt>
<pdfrwt beam="1">  1        2 0.36676552E+00 0.28192670E+04</pdfrwt>
<pdfrwt beam="2">  1       -1 0.12823224E+00 0.28192670E+04</pdfrwt>
<totfact> 0.21051610E+00</totfact>
</mgrwt>
</event>
<event>
12    6  0.1494052E-007  0.2284931E+04  0.7818608E-02  0.8483886E-01
          4   -1    0    0  501    0  0.00000000000E+00  0.00000000000E+00  0.64853174573E+03  0.64853174573E+03  0.00000000000E+00 0. -1.
         -3   -1    0    0    0  501 -0.00000000000E+00 -0.00000000000E+00 -0.20125879707E+04  0.20125879707E+04  0.00000000000E+00 0.  1.
         24    2    1    2    0    0  0.69582713494E+03  0.60153225134E+03 -0.24332588030E+03  0.95454268105E+03  0.76992173552E+02 0.  0.
        254    2    1    2    0    0 -0.69582713494E+03 -0.60153225134E+03 -0.11207303446E+04  0.17065770354E+04  0.90019565711E+03 0.  0.
         23    2    4    4    0    0 -0.16537944683E+03  0.12518590597E+03  0.45535521006E+02  0.23068425628E+03  0.90110320925E+02 0.  0.
         23    2    4    4    0    0 -0.53044768811E+03 -0.72671815731E+03 -0.11662658657E+04  0.14758927791E+04  0.92678994165E+02 0.  0.
          2    1    3    3  502    0  0.32833593511E+03  0.26940997476E+03 -0.15043996876E+03  0.45057563736E+03  0.00000000000E+00 0. -1.
         -3    1    3    3    0  502  0.36749119984E+03  0.33212227658E+03 -0.92885911545E+02  0.50396704369E+03  0.00000000000E+00 0.  1.
         11    1    5    5    0    0 -0.10398933626E+03  0.27692200963E+02  0.41694880728E+02  0.11540841879E+03  0.00000000000E+00 0.  1.
        -11    1    5    5    0    0 -0.61390110574E+02  0.97493705003E+02  0.38406402781E+01  0.11527583749E+03  0.00000000000E+00 0. -1.
          3    1    6    6  503    0 -0.19584557061E+02 -0.51484494428E+02 -0.46794287644E+02  0.72276644899E+02  0.00000000000E+00 0. -1.
         -3    1    6    6    0  503 -0.51086313105E+03 -0.67523366288E+03 -0.11194715780E+04  0.14036161342E+04  0.00000000000E+00 0.  1.
<mgrwt>
<rscale>  0 0.22849308E+04</rscale>
<asrwt>0</asrwt>
<pdfrwt beam="1">  1        4 0.99774113E-01 0.22849308E+04</pdfrwt>
<pdfrwt beam="2">  1       -3 0.30962892E+00 0.22849308E+04</pdfrwt>
<totfact> 0.57880977E-02</totfact>
</mgrwt>
</event>
<event>
12    6  0.1494052E-007  0.2267478E+04  0.7818608E-02  0.8490856E-01
          2   -1    0    0  501    0  0.00000000000E+00  0.00000000000E+00  0.18097145020E+04  0.18097145020E+04  0.00000000000E+00 0. -1.
         -1   -1    0    0    0  501 -0.00000000000E+00 -0.00000000000E+00 -0.71025769944E+03  0.71025769944E+03  0.00000000000E+00 0.  1.
         24    2    1    2    0    0  0.50792797394E+03 -0.55746568715E+03 -0.11880962240E+03  0.76765926008E+03  0.80163546218E+02 0.  0.
        254    2    1    2    0    0 -0.50792797394E+03  0.55746568715E+03  0.12182664250E+04  0.17523129414E+04  0.10087956895E+04 0.  0.
         23    2    4    4    0    0 -0.24912470712E+02  0.54114283610E+02  0.10136888412E+04  0.10190944919E+04  0.86252708654E+02 0.  0.
         23    2    4    4    0    0 -0.48301550323E+03  0.50335140354E+03  0.20457758382E+03  0.73321844953E+03  0.95345136819E+02 0.  0.
          2    1    3    3  502    0  0.91977880488E+02 -0.74460396225E+02 -0.42245197105E+02  0.12565404006E+03  0.00000000000E+00 0. -1.
         -1    1    3    3    0  502  0.41595009346E+03 -0.48300529093E+03 -0.76564425296E+02  0.64200522002E+03  0.00000000000E+00 0.  1.
         11    1    5    5    0    0  0.24399966722E+02  0.12251589310E+02  0.57650332531E+03  0.57714949875E+03  0.00000000000E+00 0. -1.
        -11    1    5    5    0    0 -0.49312437434E+02  0.41862694300E+02  0.43718551585E+03  0.44194499310E+03  0.00000000000E+00 0.  1.
          3    1    6    6  503    0 -0.13485096866E+03  0.17598953154E+03  0.10381479437E+03  0.24481546212E+03  0.00000000000E+00 0. -1.
         -3    1    6    6    0  503 -0.34816453457E+03  0.32736187200E+03  0.10076278944E+03  0.48840298741E+03  0.00000000000E+00 0.  1.
<mgrwt>
<rscale>  0 0.22674776E+04</rscale>
<asrwt>0</asrwt>
<pdfrwt beam="1">  1        2 0.27841761E+00 0.22674776E+04</pdfrwt>
<pdfrwt beam="2">  1       -1 0.10927042E+00 0.22674776E+04</pdfrwt>
<totfact> 0.68375473E+00</totfact>
</mgrwt>
</event>
<event>
12    6  0.1494052E-007  0.1403315E+04  0.7818608E-02  0.8951422E-01
          2   -1    0    0  501    0  0.00000000000E+00  0.00000000000E+00  0.66026575968E+03  0.66026575968E+03  0.00000000000E+00 0. -1.
         -1   -1    0    0    0  501 -0.00000000000E+00 -0.00000000000E+00 -0.74564426422E+03  0.74564426422E+03  0.00000000000E+00 0.  1.
         24    2    1    2    0    0 -0.92387480255E+02  0.27018413288E+03  0.26003443055E+03  0.39458805214E+03  0.80913000502E+02 0.  0.
        254    2    1    2    0    0  0.92387480255E+02 -0.27018413288E+03 -0.34541293510E+03  0.10113219718E+04  0.90660196484E+03 0.  0.
         23    2    4    4    0    0  0.35704380012E+03  0.34765881437E+02  0.11885935638E+03  0.38899682017E+03  0.92206495339E+02 0.  0.
         23    2    4    4    0    0 -0.26465631987E+03 -0.30495001431E+03 -0.46427229148E+03  0.62232515159E+03  0.93286412687E+02 0.  0.
          2    1    3    3  502    0 -0.62518531129E+02  0.25635228883E+03  0.23183796324E+03  0.35124621553E+03  0.00000000000E+00 0. -1.
         -1    1    3    3    0  502 -0.29868949126E+02  0.13831844043E+02  0.28196467311E+02  0.43341836606E+02  0.00000000000E+00 0.  1.
         11    1    5    5    0    0  0.72124782749E+02  0.44826436761E+02  0.19967193208E+02  0.87235786945E+02  0.00000000000E+00 0.  1.
        -11    1    5    5    0    0  0.28491901737E+03 -0.10060555324E+02  0.98892163175E+02  0.30176103322E+03  0.00000000000E+00 0. -1.
          2    1    6    6  503    0 -0.18570607116E+03 -0.16163994566E+03 -0.23258840649E+03  0.33869098561E+03  0.00000000000E+00 0. -1.
         -2    1    6    6    0  503 -0.78950248704E+02 -0.14331006866E+03 -0.23168388499E+03  0.28363416599E+03  0.00000000000E+00 0.  1.
<mgrwt>
<rscale>  0 0.14033152E+04</rscale>
<asrwt>0</asrwt>
<pdfrwt beam="1">  1        2 0.10157935E+00 0.14033152E+04</pdfrwt>
<pdfrwt beam="2">  1       -1 0.11471450E+00 0.14033152E+04</pdfrwt>
<totfact> 0.33861845E+01</totfact>
</mgrwt>
</event>
<event>
12    6  0.1494052E-007  0.2566721E+04  0.7818608E-02  0.8379594E-01
          2   -1    0    0  501    0  0.00000000000E+00  0.00000000000E+00  0.14030718156E+04  0.14030718156E+04  0.00000000000E+00 0. -1.
         -1   -1    0    0    0  501 -0.00000000000E+00 -0.00000000000E+00 -0.11738634648E+04  0.11738634648E+04  0.00000000000E+00 0.  1.
         24    2    1    2    0    0  0.42950408341E+03  0.59958364569E+03  0.94900124201E+03  0.12047840230E+04  0.83227874016E+02 0.  0.
        254    2    1    2    0    0 -0.42950408341E+03 -0.59958364569E+03 -0.71979289124E+03  0.13721512574E+04  0.90593761436E+03 0.  0.
         23    2    4    4    0    0 -0.36850667078E+03  0.76148089796E+02 -0.53936702255E+03  0.66414081111E+03  0.92577178518E+02 0.  0.
         23    2    4    4    0    0 -0.60997412625E+02 -0.67573173548E+03 -0.18042586869E+03  0.70801044630E+03  0.91603686041E+02 0.  0.
          4    1    3    3  502    0  0.11869428955E+03  0.21462034218E+03  0.35910412521E+03  0.43486319503E+03  0.00000000000E+00 0. -1.
         -3    1    3    3    0  502  0.31080979385E+03  0.38496330351E+03  0.58989711680E+03  0.76992082802E+03  0.00000000000E+00 0.  1.
         11    1    5    5    0    0 -0.22122536280E+02  0.22003138680E+02 -0.82884550218E+02  0.88562934618E+02  0.00000000000E+00 0.  1.
        -11    1    5    5    0    0 -0.34638413450E+03  0.54144951116E+02 -0.45648247233E+03  0.57557787650E+03  0.00000000000E+00 0. -1.
          3    1    6    6  503    0 -0.55883741270E+02 -0.67524928844E+03 -0.18357439394E+03  0.70198586324E+03  0.00000000000E+00 0. -1.
         -3    1    6    6    0  503 -0.51136713553E+01 -0.48244703959E+00  0.31485252429E+01  0.60245830629E+01  0.00000000000E+00 0.  1.
<mgrwt>
<rscale>  0 0.25667214E+04</rscale>
<asrwt>0</asrwt>
<pdfrwt beam="1">  1        2 0.21585720E+00 0.25667214E+04</pdfrwt>
<pdfrwt beam="2">  1       -1 0.18059438E+00 0.25667214E+04</pdfrwt>
<totfact> 0.30010757E+00</totfact>
</mgrwt>
</event>
<event>
12    6  0.1494052E-007  0.1637448E+04  0.7818608E-02  0.8797867E-01
         -3   -1    0    0    0  501 -0.00000000000E+00  0.00000000000E+00  0.44728036502E+03  0.44728036502E+03  0.00000000000E+00 0.  1.
          4   -1    0    0  501    0  0.00000000000E+00 -0.00000000000E+00 -0.14986330694E+04  0.14986330694E+04  0.00000000000E+00 0. -1.
         24    2    1    2    0    0  0.29070795668E+03 -0.28520149814E+03 -0.83937435317E+03  0.93637101105E+03  0.79939695700E+02 0.  0.
        254    2    1    2    0    0 -0.29070795668E+03  0.28520149814E+03 -0.21197835117E+03  0.10095424233E+04  0.89910515097E+03 0.  0.
         23    2    4    4    0    0 -0.55608046357E+03  0.37754396547E+03 -0.70484021606E+02  0.68213029009E+03  0.92567853641E+02 0.  0.
         23    2    4    4    0    0  0.26537250689E+03 -0.92342467328E+02 -0.14149432956E+03  0.32741213324E+03  0.90710313682E+02 0.  0.
          2    1    3    3  502    0  0.19811030157E+03 -0.18784653295E+03 -0.64165812824E+03  0.69732285569E+03  0.00000000000E+00 0. -1.
         -1    1    3    3    0  502  0.92597655104E+02 -0.97354965193E+02 -0.19771622493E+03  0.23904815535E+03  0.00000000000E+00 0.  1.
         11    1    5    5    0    0 -0.16187972047E+02 -0.45974753437E+01 -0.43575862787E+01  0.17383203868E+02  0.00000000000E+00 0.  1.
        -11    1    5    5    0    0 -0.53989249152E+03  0.38214144082E+03 -0.66126435328E+02  0.66474708622E+03  0.00000000000E+00 0. -1.
          3    1    6    6  503    0  0.12533046788E+03 -0.36938794081E+01 -0.88250317892E+02  0.15332804548E+03  0.00000000000E+00 0. -1.
         -3    1    6    6    0  503  0.14004203901E+03 -0.88648587920E+02 -0.53244011669E+02  0.17408408775E+03  0.00000000000E+00 0.  1.
<mgrwt>
<rscale>  0 0.16374482E+04</rscale>
<asrwt>0</asrwt>
<pdfrwt beam="1">  1        4 0.23055893E+00 0.16374482E+04</pdfrwt>
<pdfrwt beam="2">  1       -3 0.68812365E-01 0.16374482E+04</pdfrwt>
<totfact> 0.37011579E-01</totfact>
</mgrwt>
</event>
<event>
12    6  0.1494052E-007  0.1450730E+04  0.7818608E-02  0.8917894E-01
          2   -1    0    0  501    0  0.00000000000E+00  0.00000000000E+00  0.18408666952E+04  0.18408666952E+04  0.00000000000E+00 0. -1.
         -1   -1    0    0    0  501 -0.00000000000E+00 -0.00000000000E+00 -0.28581896021E+03  0.28581896021E+03  0.00000000000E+00 0.  1.
         24    2    1    2    0    0  0.35198971675E+03 -0.75942908003E+00  0.87497685944E+03  0.94652052193E+03  0.80120262489E+02 0.  0.
        254    2    1    2    0    0 -0.35198971675E+03  0.75942908003E+00  0.68007087559E+03  0.11801651335E+04  0.89799555070E+03 0.  0.
         23    2    4    4    0    0 -0.47692414564E+03 -0.24179521688E+03  0.13071251854E+03  0.55986882834E+03  0.10220457347E+03 0.  0.
         23    2    4    4    0    0  0.12493442889E+03  0.24255464596E+03  0.54935835705E+03  0.62029630516E+03  0.92366303080E+02 0.  0.
          4    1    3    3  502    0  0.33710028711E+03 -0.70129293002E+01  0.86265568074E+03  0.92620764856E+03  0.00000000000E+00 0. -1.
         -3    1    3    3    0  502  0.14889429641E+02  0.62535002202E+01  0.12321178698E+02  0.20312873370E+02  0.00000000000E+00 0.  1.
         11    1    5    5    0    0 -0.84499771238E+01 -0.13937420729E+02 -0.11393244057E+02  0.19886171580E+02  0.00000000000E+00 0. -1.
        -11    1    5    5    0    0 -0.46847416851E+03 -0.22785779616E+03  0.14210576260E+03  0.53998265676E+03  0.00000000000E+00 0.  1.
          3    1    6    6  503    0  0.44768274335E+02  0.17364096573E+02  0.73852334558E+02  0.88090167195E+02  0.00000000000E+00 0. -1.
         -3    1    6    6    0  503  0.80166154553E+02  0.22519054939E+03  0.47550602249E+03  0.53220613797E+03  0.00000000000E+00 0.  1.
<mgrwt>
<rscale>  0 0.14507303E+04</rscale>
<asrwt>0</asrwt>
<pdfrwt beam="1">  1        2 0.28321025E+00 0.14507303E+04</pdfrwt>
<pdfrwt beam="2">  1       -1 0.43972149E-01 0.14507303E+04</pdfrwt>
<totfact> 0.46265125E+01</totfact>
</mgrwt>
</event>
<event>
12    6  0.1494052E-007  0.1296427E+04  0.7818608E-02  0.9032404E-01
          2   -1    0    0  501    0  0.00000000000E+00  0.00000000000E+00  0.11612264886E+04  0.11612264886E+04  0.00000000000E+00 0. -1.
         -1   -1    0    0    0  501 -0.00000000000E+00 -0.00000000000E+00 -0.36184199963E+03  0.36184199963E+03  0.00000000000E+00 0.  1.
         24    2    1    2    0    0 -0.26847621708E+03 -0.14761911475E+03  0.62628436171E+02  0.32314233851E+03  0.81411103312E+02 0.  0.
        254    2    1    2    0    0  0.26847621708E+03  0.14761911475E+03  0.73675605284E+03  0.11999261498E+04  0.89618212509E+03 0.  0.
         23    2    4    4    0    0  0.52264261784E+02 -0.36390517337E+03  0.23039943412E+03  0.44298737273E+03  0.89416916152E+02 0.  0.
         23    2    4    4    0    0  0.21621195529E+03  0.51152428811E+03  0.50635661872E+03  0.75693877704E+03  0.90302712688E+02 0.  0.
          2    1    3    3  502    0 -0.36574320362E+02  0.46183315306E+01  0.21574540934E+02  0.42713823436E+02  0.00000000000E+00 0. -1.
         -1    1    3    3    0  502 -0.23190189672E+03 -0.15223744628E+03  0.41053895237E+02  0.28042851507E+03  0.00000000000E+00 0.  1.
         11    1    5    5    0    0  0.31345257040E+01 -0.92933827412E+02  0.10540656843E+03  0.14055983138E+03  0.00000000000E+00 0.  1.
        -11    1    5    5    0    0  0.49129736080E+02 -0.27097134595E+03  0.12499286569E+03  0.30242754135E+03  0.00000000000E+00 0. -1.
          4    1    6    6  503    0  0.16013551628E+03  0.29840937969E+03  0.34788890222E+03  0.48550821800E+03  0.00000000000E+00 0. -1.
         -4    1    6    6    0  503  0.56076439014E+02  0.21311490843E+03  0.15846771651E+03  0.27143055904E+03  0.00000000000E+00 0.  1.
<mgrwt>
<rscale>  0 0.12964266E+04</rscale>
<asrwt>0</asrwt>
<pdfrwt beam="1">  1        2 0.17865023E+00 0.12964266E+04</pdfrwt>
<pdfrwt beam="2">  1       -1 0.55668001E-01 0.12964266E+04</pdfrwt>
<totfact> 0.72908332E+01</totfact>
</mgrwt>
</event>
<event>
12    6  0.1494052E-007  0.1761523E+04  0.7818608E-02  0.8727033E-01
          2   -1    0    0  501    0  0.00000000000E+00  0.00000000000E+00  0.66142232029E+03  0.66142232029E+03  0.00000000000E+00 0. -1.
         -1   -1    0    0    0  501 -0.00000000000E+00 -0.00000000000E+00 -0.11728376756E+04  0.11728376756E+04  0.00000000000E+00 0.  1.
         24    2    1    2    0    0  0.86542124206E+01  0.62235856937E+03 -0.44108530147E+01  0.62746696276E+03  0.79311092989E+02 0.  0.
        254    2    1    2    0    0 -0.86542124206E+01 -0.62235856937E+03 -0.50700450234E+03  0.12067930332E+04  0.90104981842E+03 0.  0.
         23    2    4    4    0    0  0.88277447808E+01  0.17537306455E+03  0.80997321494E+02  0.21162658343E+03  0.85974437354E+02 0.  0.
         23    2    4    4    0    0 -0.17481957201E+02 -0.79773163392E+03 -0.58800182384E+03  0.99516644975E+03  0.89043468520E+02 0.  0.
          2    1    3    3  502    0 -0.12227988055E+01  0.20734503021E+02  0.14720162844E+02  0.25457769867E+02  0.00000000000E+00 0. -1.
         -1    1    3    3    0  502  0.98770112261E+01  0.60162406635E+03 -0.19131015858E+02  0.60200919289E+03  0.00000000000E+00 0.  1.
         11    1    5    5    0    0  0.29757384294E+02  0.17858800861E+02  0.26416770889E+02  0.43615186259E+02  0.00000000000E+00 0. -1.
        -11    1    5    5    0    0 -0.20929639513E+02  0.15751426369E+03  0.54580550605E+02  0.16801139717E+03  0.00000000000E+00 0.  1.
          3    1    6    6  503    0 -0.15718949800E+02 -0.35905449515E+02 -0.15273323356E+02  0.42066151405E+02  0.00000000000E+00 0. -1.
         -3    1    6    6    0  503 -0.17630074016E+01 -0.76182618440E+03 -0.57272850048E+03  0.95310029834E+03  0.00000000000E+00 0.  1.
<mgrwt>
<rscale>  0 0.17615232E+04</rscale>
<asrwt>0</asrwt>
<pdfrwt beam="1">  1        2 0.10175728E+00 0.17615232E+04</pdfrwt>
<pdfrwt beam="2">  1       -1 0.18043656E+00 0.17615232E+04</pdfrwt>
<totfact> 0.98304809E+00</totfact>
</mgrwt>
</event>
<event>
12    6  0.1494052E-007  0.1368059E+04  0.7818608E-02  0.8977269E-01
         -1   -1    0    0    0  501 -0.00000000000E+00  0.00000000000E+00  0.23135386194E+03  0.23135386194E+03  0.00000000000E+00 0.  1.
          2   -1    0    0  501    0  0.00000000000E+00 -0.00000000000E+00 -0.20224285289E+04  0.20224285289E+04  0.00000000000E+00 0. -1.
         24    2    1    2    0    0 -0.76298468901E+02 -0.36601254326E+03 -0.35849535473E+03  0.52412107067E+03  0.79983368135E+02 0.  0.
        254    2    1    2    0    0  0.76298468901E+02  0.36601254326E+03 -0.14325793122E+04  0.17296613202E+04  0.89423607537E+03 0.  0.
         23    2    4    4    0    0  0.23379661315E+03  0.60134694701E+03 -0.11344769048E+04  0.13084151046E+04  0.92915183741E+02 0.  0.
         23    2    4    4    0    0 -0.15749814425E+03 -0.23533440375E+03 -0.29810240740E+03  0.42124621557E+03  0.91626316077E+02 0.  0.
          4    1    3    3  502    0 -0.11919408503E+02 -0.42481862501E+02 -0.84382406705E+02  0.95221696593E+02  0.00000000000E+00 0. -1.
         -3    1    3    3    0  502 -0.64379060398E+02 -0.32353068076E+03 -0.27411294802E+03  0.42889937407E+03  0.00000000000E+00 0.  1.
         11    1    5    5    0    0  0.22751416158E+03  0.53402213488E+03 -0.10542955140E+04  0.12035287139E+04  0.00000000000E+00 0.  1.
        -11    1    5    5    0    0  0.62824515757E+01  0.67324812133E+02 -0.80181390795E+02  0.10488639071E+03  0.00000000000E+00 0. -1.
          1    1    6    6  503    0 -0.48316078177E+02 -0.62129010692E+02 -0.14712801603E+03  0.16685655660E+03  0.00000000000E+00 0. -1.
         -1    1    6    6    0  503 -0.10918206607E+03 -0.17320539306E+03 -0.15097439137E+03  0.25438965896E+03  0.00000000000E+00 0.  1.
<mgrwt>
<rscale>  0 0.13680594E+04</rscale>
<asrwt>0</asrwt>
<pdfrwt beam="1">  1        2 0.31114286E+00 0.13680594E+04</pdfrwt>
<pdfrwt beam="2">  1       -1 0.35592900E-01 0.13680594E+04</pdfrwt>
<totfact> 0.54356654E+01</totfact>
</mgrwt>
</event>
<event>
12    6  0.1494052E-007  0.1681362E+04  0.7818608E-02  0.8772066E-01
          2   -1    0    0  501    0  0.00000000000E+00  0.00000000000E+00  0.81502959973E+03  0.81502959973E+03  0.00000000000E+00 0. -1.
         -1   -1    0    0    0  501 -0.00000000000E+00 -0.00000000000E+00 -0.86713984326E+03  0.86713984326E+03  0.00000000000E+00 0.  1.
         24    2    1    2    0    0  0.52561565844E+03 -0.26639330185E+03 -0.11265668351E+03  0.60548558296E+03  0.81756046680E+02 0.  0.
        254    2    1    2    0    0 -0.52561565844E+03  0.26639330185E+03  0.60546439984E+02  0.10766838600E+04  0.89908011400E+03 0.  0.
         23    2    4    4    0    0 -0.59337119014E+03  0.52231656733E+03  0.56247479172E+02  0.79647393341E+03  0.79391321251E+02 0.  0.
         23    2    4    4    0    0  0.67755531707E+02 -0.25592326548E+03  0.42989608114E+01  0.28020992662E+03  0.91714731772E+02 0.  0.
          2    1    3    3  502    0  0.82357250839E+02 -0.21334763071E+02  0.59850294041E+01  0.85286044920E+02  0.00000000000E+00 0. -1.
         -1    1    3    3    0  502  0.44325840760E+03 -0.24505853878E+03 -0.11864171291E+03  0.52019953804E+03  0.00000000000E+00 0.  1.
         11    1    5    5    0    0 -0.30837749620E+03  0.28003039144E+03  0.68830362018E+02  0.42219819875E+03  0.00000000000E+00 0. -1.
        -11    1    5    5    0    0 -0.28499369394E+03  0.24228617589E+03 -0.12582882846E+02  0.37427573466E+03  0.00000000000E+00 0.  1.
          1    1    6    6  503    0  0.82649940993E+02 -0.13480486060E+03  0.69922554720E+00  0.15812606396E+03  0.00000000000E+00 0. -1.
         -1    1    6    6    0  503 -0.14894409286E+02 -0.12111840488E+03  0.35997352642E+01  0.12208386267E+03  0.00000000000E+00 0.  1.
<mgrwt>
<rscale>  0 0.16813621E+04</rscale>
<asrwt>0</asrwt>
<pdfrwt beam="1">  1        2 0.12538917E+00 0.16813621E+04</pdfrwt>
<pdfrwt beam="2">  1       -1 0.13340613E+00 0.16813621E+04</pdfrwt>
<totfact> 0.17359050E+01</totfact>
</mgrwt>
</event>
<event>
12    6  0.1494052E-007  0.1715383E+04  0.7818608E-02  0.8752639E-01
          2   -1    0    0  501    0  0.00000000000E+00  0.00000000000E+00  0.14450616463E+04  0.14450616463E+04  0.00000000000E+00 0. -1.
         -1   -1    0    0    0  501 -0.00000000000E+00 -0.00000000000E+00 -0.50906823932E+03  0.50906823932E+03  0.00000000000E+00 0.  1.
         24    2    1    2    0    0 -0.30496993359E+03 -0.24534892878E+03 -0.21361713703E+03  0.45296563555E+03  0.79641876566E+02 0.  0.
        254    2    1    2    0    0  0.30496993359E+03  0.24534892878E+03  0.11496105440E+04  0.15011642501E+04  0.88243240284E+03 0.  0.
         23    2    4    4    0    0  0.56673806416E+03 -0.29992343430E+02  0.66270230733E+03  0.87692234835E+03  0.87902689803E+02 0.  0.
         23    2    4    4    0    0 -0.26176813056E+03  0.27534127221E+03  0.48690823670E+03  0.62424190174E+03  0.90900773177E+02 0.  0.
          2    1    3    3  502    0 -0.67947898995E+02 -0.17772135199E+02 -0.28294338911E+02  0.75718791471E+02  0.00000000000E+00 0. -1.
         -1    1    3    3    0  502 -0.23702203460E+03 -0.22757679358E+03 -0.18532279812E+03  0.37724684408E+03  0.00000000000E+00 0.  1.
         11    1    5    5    0    0  0.24456886245E+03  0.24946796579E+02  0.31754550083E+03  0.40158612556E+03  0.00000000000E+00 0.  1.
        -11    1    5    5    0    0  0.32216920171E+03 -0.54939140009E+02  0.34515680649E+03  0.47533622280E+03  0.00000000000E+00 0. -1.
          4    1    6    6  503    0 -0.83882775856E+01  0.51575684697E+02  0.74415848611E+02  0.90929274589E+02  0.00000000000E+00 0. -1.
         -4    1    6    6    0  503 -0.25337985298E+03  0.22376558751E+03  0.41249238809E+03  0.53331262715E+03  0.00000000000E+00 0.  1.
<mgrwt>
<rscale>  0 0.17153833E+04</rscale>
<asrwt>0</asrwt>
<pdfrwt beam="1">  1        2 0.22231717E+00 0.17153833E+04</pdfrwt>
<pdfrwt beam="2">  1       -1 0.78318191E-01 0.17153833E+04</pdfrwt>
<totfact> 0.24107114E+01</totfact>
</mgrwt>
</event>
<event>
12    6  0.1494052E-007  0.1427248E+04  0.7818608E-02  0.8934328E-01
         -1   -1    0    0    0  501 -0.00000000000E+00  0.00000000000E+00  0.11875987160E+03  0.11875987160E+03  0.00000000000E+00 0.  1.
          2   -1    0    0  501    0  0.00000000000E+00 -0.00000000000E+00 -0.42881420186E+04  0.42881420186E+04  0.00000000000E+00 0. -1.
         24    2    1    2    0    0  0.10450601271E+03  0.20259133334E+03 -0.15803544994E+03  0.28797650466E+03  0.77398377020E+02 0.  0.
        254    2    1    2    0    0 -0.10450601271E+03 -0.20259133334E+03 -0.40113466971E+04  0.41189253855E+04  0.90701667708E+03 0.  0.
         23    2    4    4    0    0  0.23577846093E+02 -0.11020614392E+03 -0.50650100637E+02  0.15403292581E+03  0.91974999614E+02 0.  0.
         23    2    4    4    0    0 -0.12808385880E+03 -0.92385189416E+02 -0.39606965964E+04  0.39648924597E+04  0.91182180867E+02 0.  0.
          2    1    3    3  502    0  0.20233345021E+02  0.25550876510E+01 -0.16799844237E+01  0.20463114898E+02  0.00000000000E+00 0. -1.
         -1    1    3    3    0  502  0.84272667684E+02  0.20003624569E+03 -0.15635546551E+03  0.26751338977E+03  0.00000000000E+00 0.  1.
         11    1    5    5    0    0  0.66366566311E+01 -0.69246085010E+02  0.18422324678E+02  0.71961430969E+02  0.00000000000E+00 0.  1.
        -11    1    5    5    0    0  0.16941189462E+02 -0.40960058913E+02 -0.69072425315E+02  0.82071494841E+02  0.00000000000E+00 0. -1.
          3    1    6    6  503    0 -0.12284615647E+02  0.18380348167E+02 -0.49076108437E+03  0.49125878202E+03  0.00000000000E+00 0. -1.
         -3    1    6    6    0  503 -0.11579924315E+03 -0.11076553758E+03 -0.34699355120E+04  0.34736336777E+04  0.00000000000E+00 0.  1.
<mgrwt>
<rscale>  0 0.14272480E+04</rscale>
<asrwt>0</asrwt>
<pdfrwt beam="1">  1        2 0.65971405E+00 0.14272480E+04</pdfrwt>
<pdfrwt beam="2">  1       -1 0.18270752E-01 0.14272480E+04</pdfrwt>
<totfact> 0.52926679E+00</totfact>
</mgrwt>
</event>
<event>
12    6  0.1494052E-007  0.1627262E+04  0.7818608E-02  0.8803973E-01
          2   -1    0    0  501    0  0.00000000000E+00  0.00000000000E+00  0.18885848302E+04  0.18885848302E+04  0.00000000000E+00 0. -1.
         -1   -1    0    0    0  501 -0.00000000000E+00 -0.00000000000E+00 -0.35052449107E+03  0.35052449107E+03  0.00000000000E+00 0.  1.
         24    2    1    2    0    0 -0.34105475526E+03 -0.33685113315E+03  0.88525165533E+03  0.10098373351E+04  0.79460166684E+02 0.  0.
        254    2    1    2    0    0  0.34105475526E+03  0.33685113315E+03  0.65280868382E+03  0.12292719862E+04  0.92475045629E+03 0.  0.
         23    2    4    4    0    0  0.33494543192E+03  0.52993601806E+03  0.10635669102E+03  0.64253908756E+03  0.92326094423E+02 0.  0.
         23    2    4    4    0    0  0.61093233368E+01 -0.19308488491E+03  0.54645199280E+03  0.58673289865E+03  0.91250300313E+02 0.  0.
          4    1    3    3  502    0 -0.27776764598E+03 -0.30621893983E+03  0.78747569655E+03  0.88940591235E+03  0.00000000000E+00 0. -1.
         -3    1    3    3    0  502 -0.63287109276E+02 -0.30632193316E+02  0.97775958785E+02  0.12043142274E+03  0.00000000000E+00 0.  1.
         11    1    5    5    0    0  0.26328301190E+03  0.47484689908E+03  0.98429056791E+02  0.55180232071E+03  0.00000000000E+00 0. -1.
        -11    1    5    5    0    0  0.71662420019E+02  0.55089118979E+02  0.79276342301E+01  0.90736766845E+02  0.00000000000E+00 0.  1.
          3    1    6    6  503    0  0.14880842624E+02 -0.18951791549E+03  0.54493668935E+03  0.57714337488E+03  0.00000000000E+00 0. -1.
         -3    1    6    6    0  503 -0.87715192873E+01 -0.35669694188E+01  0.15153034454E+01  0.95895237616E+01  0.00000000000E+00 0.  1.
<mgrwt>
<rscale>  0 0.16272618E+04</rscale>
<asrwt>0</asrwt>
<pdfrwt beam="1">  1        2 0.29055151E+00 0.16272618E+04</pdfrwt>
<pdfrwt beam="2">  1       -1 0.53926846E-01 0.16272618E+04</pdfrwt>
<totfact> 0.29155109E+01</totfact>
</mgrwt>
</event>
<event>
12    6  0.1494052E-007  0.1969752E+04  0.7818608E-02  0.8620894E-01
         -1   -1    0    0    0  501 -0.00000000000E+00  0.00000000000E+00  0.86047523593E+03  0.86047523593E+03  0.00000000000E+00 0.  1.
          2   -1    0    0  501    0  0.00000000000E+00 -0.00000000000E+00 -0.11272620762E+04  0.11272620762E+04  0.00000000000E+00 0. -1.
         24    2    1    2    0    0  0.31444472934E+03 -0.44942604287E+03  0.44888936020E+03  0.71341065479E+03  0.81202517541E+02 0.  0.
        254    2    1    2    0    0 -0.31444472934E+03  0.44942604287E+03 -0.71567620051E+03  0.12743266574E+04  0.90047584638E+03 0.  0.
         23    2    4    4    0    0  0.23374054776E+02 -0.14539102133E+01  0.18541691914E+03  0.20784872254E+03  0.90957117735E+02 0.  0.
         23    2    4    4    0    0 -0.33781878411E+03  0.45087995308E+03 -0.90109311965E+03  0.10664779348E+04  0.89398614107E+02 0.  0.
          2    1    3    3  502    0  0.15085653811E+03 -0.20483876879E+03  0.15698780042E+03  0.29893441718E+03  0.00000000000E+00 0. -1.
         -1    1    3    3    0  502  0.16358819123E+03 -0.24458727407E+03  0.29190155977E+03  0.41447623761E+03  0.00000000000E+00 0.  1.
         11    1    5    5    0    0  0.32504071880E+02 -0.38018546841E+02  0.67215026504E+02  0.83784153517E+02  0.00000000000E+00 0.  1.
        -11    1    5    5    0    0 -0.91300171035E+01  0.36564636628E+02  0.11820189264E+03  0.12406456903E+03  0.00000000000E+00 0. -1.
          1    1    6    6  503    0 -0.28228979521E+03  0.42217544596E+03 -0.80771052546E+03  0.95410477862E+03  0.00000000000E+00 0.  1.
         -1    1    6    6    0  503 -0.55528988906E+02  0.28704507117E+02 -0.93382594197E+02  0.11237315621E+03  0.00000000000E+00 0. -1.
<mgrwt>
<rscale>  0 0.19697524E+04</rscale>
<asrwt>0</asrwt>
<pdfrwt beam="1">  1        2 0.17342493E+00 0.19697524E+04</pdfrwt>
<pdfrwt beam="2">  1       -1 0.13238081E+00 0.19697524E+04</pdfrwt>
<totfact> 0.10782767E+01</totfact>
</mgrwt>
</event>
<event>
12    6  0.1494052E-007  0.1012208E+04  0.7818608E-02  0.9295255E-01
         -1   -1    0    0    0  501 -0.00000000000E+00  0.00000000000E+00  0.48706893371E+03  0.48706893371E+03  0.00000000000E+00 0.  1.
          2   -1    0    0  501    0  0.00000000000E+00 -0.00000000000E+00 -0.52588348730E+03  0.52588348730E+03  0.00000000000E+00 0. -1.
         24    2    1    2    0    0 -0.20084328695E+02  0.83217158956E+02  0.17730803249E+01  0.11795828453E+03  0.81132837196E+02 0.  0.
        254    2    1    2    0    0  0.20084328695E+02 -0.83217158956E+02 -0.40587633916E+02  0.89499413648E+03  0.88996554568E+03 0.  0.
         23    2    4    4    0    0 -0.10442246634E+02 -0.47585028834E+03  0.12678176781E+02  0.48693869833E+03  0.10200991293E+03 0.  0.
         23    2    4    4    0    0  0.30526575329E+02  0.39263312938E+03 -0.53265810698E+02  0.40805543815E+03  0.92624769504E+02 0.  0.
          2    1    3    3  502    0 -0.35295790002E+02  0.89083963430E+02  0.14968928773E+02  0.96983576758E+02  0.00000000000E+00 0. -1.
         -1    1    3    3    0  502  0.15211461307E+02 -0.58668044737E+01 -0.13195848448E+02  0.20974707771E+02  0.00000000000E+00 0.  1.
         11    1    5    5    0    0 -0.30365293818E+01 -0.69676048647E+02  0.38889652988E+02  0.79852222106E+02  0.00000000000E+00 0. -1.
        -11    1    5    5    0    0 -0.74057172525E+01 -0.40617423969E+03 -0.26211476206E+02  0.40708647622E+03  0.00000000000E+00 0.  1.
          1    1    6    6  503    0  0.46155513678E+01  0.85238218308E+01 -0.19275551788E+02  0.21575582258E+02  0.00000000000E+00 0. -1.
         -1    1    6    6    0  503  0.25911023961E+02  0.38410930755E+03 -0.33990258910E+02  0.38647985589E+03  0.00000000000E+00 0.  1.
<mgrwt>
<rscale>  0 0.10122085E+04</rscale>
<asrwt>0</asrwt>
<pdfrwt beam="1">  1        2 0.80905152E-01 0.10122085E+04</pdfrwt>
<pdfrwt beam="2">  1       -1 0.74933682E-01 0.10122085E+04</pdfrwt>
<totfact> 0.11867172E+02</totfact>
</mgrwt>
</event>
<event>
12    6  0.1494052E-007  0.2214828E+04  0.7818608E-02  0.8512282E-01
          2   -1    0    0  501    0  0.00000000000E+00  0.00000000000E+00  0.17840679234E+04  0.17840679234E+04  0.00000000000E+00 0. -1.
         -1   -1    0    0    0  501 -0.00000000000E+00 -0.00000000000E+00 -0.68739859883E+03  0.68739859883E+03  0.00000000000E+00 0.  1.
         24    2    1    2    0    0 -0.20594281435E+03  0.76649203173E+03  0.97244261463E+03  0.12577715144E+04  0.80137795345E+02 0.  0.
        254    2    1    2    0    0  0.20594281435E+03 -0.76649203173E+03  0.12422670998E+03  0.12136950079E+04  0.90978064342E+03 0.  0.
         23    2    4    4    0    0  0.24962835578E+03  0.10012562488E+03  0.18268703917E+03  0.33925648644E+03  0.96855317579E+02 0.  0.
         23    2    4    4    0    0 -0.43685541425E+02 -0.86661765661E+03 -0.58460329192E+02  0.87443852142E+03  0.91052338596E+02 0.  0.
          4    1    3    3  502    0 -0.21091787752E+03  0.75836906520E+03  0.95245061102E+03  0.12356262204E+04  0.00000000000E+00 0. -1.
         -1    1    3    3    0  502  0.49750631639E+01  0.81229665298E+01  0.19992003616E+02  0.22145294021E+02  0.00000000000E+00 0.  1.
         11    1    5    5    0    0  0.20904569431E+03  0.90232118193E+02  0.19036676286E+03  0.29678517797E+03  0.00000000000E+00 0. -1.
        -11    1    5    5    0    0  0.40582661471E+02  0.98935066917E+01 -0.76797236937E+01  0.42471308466E+02  0.00000000000E+00 0.  1.
          3    1    6    6  503    0 -0.15080498877E+02 -0.32193943915E+03 -0.65891190121E+02  0.32895907475E+03  0.00000000000E+00 0. -1.
         -3    1    6    6    0  503 -0.28605042548E+02 -0.54467821746E+03  0.74308609292E+01  0.54547944666E+03  0.00000000000E+00 0.  1.
<mgrwt>
<rscale>  0 0.22148280E+04</rscale>
<asrwt>0</asrwt>
<pdfrwt beam="1">  1        2 0.27447199E+00 0.22148280E+04</pdfrwt>
<pdfrwt beam="2">  1       -1 0.10575363E+00 0.22148280E+04</pdfrwt>
<totfact> 0.76636889E+00</totfact>
</mgrwt>
</event>
<event>
12    6  0.1494052E-007  0.2749205E+04  0.7818608E-02  0.8319214E-01
         -1   -1    0    0    0  501 -0.00000000000E+00  0.00000000000E+00  0.96008109155E+03  0.96008109155E+03  0.00000000000E+00 0.  1.
          2   -1    0    0  501    0  0.00000000000E+00 -0.00000000000E+00 -0.19680963963E+04  0.19680963963E+04  0.00000000000E+00 0. -1.
         24    2    1    2    0    0 -0.43714702608E+03 -0.66802051330E+03  0.53644669792E+03  0.96498938154E+03  0.77977677366E+02 0.  0.
        254    2    1    2    0    0  0.43714702608E+03  0.66802051330E+03 -0.15444620027E+04  0.19631881063E+04  0.91180904497E+03 0.  0.
         23    2    4    4    0    0  0.97091165318E+02  0.69385659581E+03 -0.14229341719E+04  0.15886745779E+04  0.91003224966E+02 0.  0.
         23    2    4    4    0    0  0.34005586077E+03 -0.25836082503E+02 -0.12152783075E+03  0.37451352841E+03  0.95842984692E+02 0.  0.
          4    1    3    3  502    0 -0.26193163273E+03 -0.36693269342E+03  0.26135158404E+03  0.52110692972E+03  0.00000000000E+00 0. -1.
         -3    1    3    3    0  502 -0.17521539336E+03 -0.30108781988E+03  0.27509511388E+03  0.44388245182E+03  0.00000000000E+00 0.  1.
         11    1    5    5    0    0 -0.12615950316E+02  0.17433262961E+03 -0.38437600438E+03  0.42225103989E+03  0.00000000000E+00 0.  1.
        -11    1    5    5    0    0  0.10970711563E+03  0.51952396619E+03 -0.10385581675E+04  0.11664235380E+04  0.00000000000E+00 0. -1.
          1    1    6    6  503    0  0.17411124022E+03 -0.58602921520E+02 -0.79808824490E+02  0.20029596812E+03  0.00000000000E+00 0. -1.
         -1    1    6    6    0  503  0.16594462055E+03  0.32766839016E+02 -0.41719006260E+02  0.17421756029E+03  0.00000000000E+00 0.  1.
<mgrwt>
<rscale>  0 0.27492051E+04</rscale>
<asrwt>0</asrwt>
<pdfrwt beam="1">  1        2 0.30278406E+00 0.27492051E+04</pdfrwt>
<pdfrwt beam="2">  1       -1 0.14770478E+00 0.27492051E+04</pdfrwt>
<totfact> 0.25162833E+00</totfact>
</mgrwt>
</event>
<event>
12    6  0.1494052E-007  0.1381849E+04  0.7818608E-02  0.8967063E-01
         -1   -1    0    0    0  501 -0.00000000000E+00  0.00000000000E+00  0.22697888944E+03  0.22697888944E+03  0.00000000000E+00 0.  1.
          2   -1    0    0  501    0  0.00000000000E+00 -0.00000000000E+00 -0.21031775592E+04  0.21031775592E+04  0.00000000000E+00 0. -1.
         24    2    1    2    0    0  0.27631825900E+03 -0.17214336604E+02 -0.96967871286E+02  0.30403259314E+03  0.79905794445E+02 0.  0.
        254    2    1    2    0    0 -0.27631825900E+03  0.17214336604E+02 -0.17792307985E+04  0.20261238555E+04  0.92890663145E+03 0.  0.
         23    2    4    4    0    0  0.89201250162E+00 -0.39126520353E+03 -0.43577166704E+03  0.59229125644E+03  0.88446206719E+02 0.  0.
         23    2    4    4    0    0 -0.27721027150E+03  0.40847954013E+03 -0.13434591314E+04  0.14338325991E+04  0.85395637918E+02 0.  0.
          4    1    3    3  502    0  0.74429848832E+01  0.39954347123E+01 -0.22793342028E+02  0.24308392858E+02  0.00000000000E+00 0. -1.
         -3    1    3    3    0  502  0.26887527412E+03 -0.21209771317E+02 -0.74174529257E+02  0.27972420028E+03  0.00000000000E+00 0.  1.
         11    1    5    5    0    0 -0.21703163660E+02 -0.27607886112E+02 -0.55179857567E+02  0.65406722663E+02  0.00000000000E+00 0.  1.
        -11    1    5    5    0    0  0.22595176161E+02 -0.36365731741E+03 -0.38059180948E+03  0.52688453378E+03  0.00000000000E+00 0. -1.
          3    1    6    6  503    0 -0.13077456196E+03  0.25067391048E+03 -0.68432405488E+03  0.74043150091E+03  0.00000000000E+00 0. -1.
         -3    1    6    6    0  503 -0.14643570954E+03  0.15780562964E+03 -0.65913507655E+03  0.69340109815E+03  0.00000000000E+00 0.  1.
<mgrwt>
<rscale>  0 0.13818494E+04</rscale>
<asrwt>0</asrwt>
<pdfrwt beam="1">  1        2 0.32356579E+00 0.13818494E+04</pdfrwt>
<pdfrwt beam="2">  1       -1 0.34919828E-01 0.13818494E+04</pdfrwt>
<totfact> 0.50673445E+01</totfact>
</mgrwt>
</event>
<event>
12    6  0.1494052E-007  0.1366514E+04  0.7818608E-02  0.8978421E-01
         -1   -1    0    0    0  501 -0.00000000000E+00  0.00000000000E+00  0.27415954340E+03  0.27415954340E+03  0.00000000000E+00 0.  1.
          2   -1    0    0  501    0  0.00000000000E+00 -0.00000000000E+00 -0.17028034480E+04  0.17028034480E+04  0.00000000000E+00 0. -1.
         24    2    1    2    0    0  0.12691538699E+03  0.16818288564E+03  0.55709995178E+02  0.23159748696E+03  0.78363217942E+02 0.  0.
        254    2    1    2    0    0 -0.12691538699E+03 -0.16818288564E+03 -0.14843538998E+04  0.17453655044E+04  0.89364492154E+03 0.  0.
         23    2    4    4    0    0 -0.15179439105E+03  0.32840652117E+03 -0.39142366482E+03  0.54098327037E+03  0.92509638053E+02 0.  0.
         23    2    4    4    0    0  0.24879004055E+02 -0.49658940681E+03 -0.10929302349E+04  0.12043822340E+04  0.93915192816E+02 0.  0.
          2    1    3    3  502    0  0.82113753201E+02  0.79814832403E+02 -0.63516315930E+01  0.11468835669E+03  0.00000000000E+00 0. -1.
         -1    1    3    3    0  502  0.44801633791E+02  0.88368053236E+02  0.62061626771E+02  0.11690913027E+03  0.00000000000E+00 0.  1.
         11    1    5    5    0    0 -0.15009701776E+03  0.33003443542E+03 -0.36504321953E+03  0.51449819770E+03  0.00000000000E+00 0. -1.
        -11    1    5    5    0    0 -0.16973732892E+01 -0.16279142479E+01 -0.26380445289E+02  0.26485072674E+02  0.00000000000E+00 0.  1.
          3    1    6    6  503    0  0.15407876755E+02 -0.49348737516E+03 -0.10833775289E+04  0.11905771971E+04  0.00000000000E+00 0. -1.
         -3    1    6    6    0  503  0.94711273007E+01 -0.31020316559E+01 -0.95527060454E+01  0.13805036962E+02  0.00000000000E+00 0.  1.
<mgrwt>
<rscale>  0 0.13665135E+04</rscale>
<asrwt>0</asrwt>
<pdfrwt beam="1">  1        2 0.26196976E+00 0.13665135E+04</pdfrwt>
<pdfrwt beam="2">  1       -1 0.42178392E-01 0.13665135E+04</pdfrwt>
<totfact> 0.59997679E+01</totfact>
</mgrwt>
</event>
<event>
12    6  0.1496320E-007  0.1756514E+04  0.7818608E-02  0.8729773E-01
         -1   -1    0    0    0  501 -0.00000000000E+00  0.00000000000E+00  0.43233092935E+03  0.43233092935E+03  0.00000000000E+00 0.  1.
          2   -1    0    0  501    0  0.00000000000E+00 -0.00000000000E+00 -0.17841320351E+04  0.17841320351E+04  0.00000000000E+00 0. -1.
         24    2    1    2    0    0 -0.33768481276E+03  0.79849676042E+02  0.18750619052E+03  0.40102533862E+03  0.72496532336E+02 0.  0.
        254    2    1    2    0    0  0.33768481276E+03 -0.79849676042E+02 -0.15393072963E+04  0.18154376259E+04  0.89774150922E+03 0.  0.
         23    2    4    4    0    0 -0.26020440230E+03 -0.19044648917E+03 -0.69014998456E+03  0.76687676290E+03  0.88412510892E+02 0.  0.
         23    2    4    4    0    0  0.59788921506E+03  0.11059681312E+03 -0.84915731175E+03  0.10485608630E+04  0.93319744253E+02 0.  0.
          4    1    3    3  502    0 -0.49520224102E+02 -0.47994019823E+01  0.60328026954E+01  0.50116679488E+02  0.00000000000E+00 0. -1.
         -3    1    3    3    0  502 -0.28816458866E+03  0.84649078024E+02  0.18147338783E+03  0.35090865913E+03  0.00000000000E+00 0.  1.
         11    1    5    5    0    0 -0.21472321225E+03 -0.19304276601E+03 -0.60091492822E+03  0.66668607181E+03  0.00000000000E+00 0.  1.
        -11    1    5    5    0    0 -0.45481190052E+02  0.25962768450E+01 -0.89235056333E+02  0.10019069109E+03  0.00000000000E+00 0. -1.
          2    1    6    6  503    0  0.55974388744E+02 -0.15575462639E+02 -0.95041801595E+02  0.11139421566E+03  0.00000000000E+00 0. -1.
         -2    1    6    6    0  503  0.54191482631E+03  0.12617227576E+03 -0.75411551016E+03  0.93716664730E+03  0.00000000000E+00 0.  1.
<mgrwt>
<rscale>  0 0.17565141E+04</rscale>
<asrwt>0</asrwt>
<pdfrwt beam="1">  1        2 0.27448185E+00 0.17565141E+04</pdfrwt>
<pdfrwt beam="2">  1       -1 0.66512452E-01 0.17565141E+04</pdfrwt>
<totfact> 0.21762131E+01</totfact>
</mgrwt>
</event>
<event>
12    6  0.1494052E-007  0.2222579E+04  0.7818608E-02  0.8509089E-01
          2   -1    0    0  501    0  0.00000000000E+00  0.00000000000E+00  0.97347630273E+03  0.97347630273E+03  0.00000000000E+00 0. -1.
         -1   -1    0    0    0  501 -0.00000000000E+00 -0.00000000000E+00 -0.12686122579E+04  0.12686122579E+04  0.00000000000E+00 0.  1.
         24    2    1    2    0    0  0.79817955053E+03 -0.13765417177E+02 -0.57463748392E+03  0.98678031660E+03  0.79038431741E+02 0.  0.
        254    2    1    2    0    0 -0.79817955053E+03  0.13765417177E+02  0.27950152872E+03  0.12553082441E+04  0.92757619712E+03 0.  0.
         23    2    4    4    0    0 -0.69530508058E+03 -0.41434281927E+02 -0.21861202182E+03  0.73641632487E+03  0.96704873989E+02 0.  0.
         23    2    4    4    0    0 -0.10287446995E+03  0.55199699105E+02  0.49811355054E+03  0.51889191919E+03  0.86611495896E+02 0.  0.
          4    1    3    3  502    0  0.43646611197E+03  0.12232351385E+02 -0.27186174858E+03  0.51435504048E+03  0.00000000000E+00 0. -1.
         -3    1    3    3    0  502  0.36171343856E+03 -0.25997768562E+02 -0.30277573534E+03  0.47242527612E+03  0.00000000000E+00 0.  1.
         11    1    5    5    0    0 -0.62317776953E+03 -0.29368913229E+02 -0.16376770768E+03  0.64500614539E+03  0.00000000000E+00 0. -1.
        -11    1    5    5    0    0 -0.72127311049E+02 -0.12065368698E+02 -0.54844314136E+02  0.91410179488E+02  0.00000000000E+00 0.  1.
          3    1    6    6  503    0 -0.47140995166E+02 -0.19572213940E+02  0.20728385819E+03  0.21347586011E+03  0.00000000000E+00 0.  1.
         -3    1    6    6    0  503 -0.55733474784E+02  0.74771913045E+02  0.29082969235E+03  0.30541605908E+03  0.00000000000E+00 0. -1.
<mgrwt>
<rscale>  0 0.22225787E+04</rscale>
<asrwt>0</asrwt>
<pdfrwt beam="1">  1        2 0.14976559E+00 0.22225787E+04</pdfrwt>
<pdfrwt beam="2">  1       -1 0.19517112E+00 0.22225787E+04</pdfrwt>
<totfact> 0.44326118E+00</totfact>
</mgrwt>
</event>
<event>
12    6  0.1494052E-007  0.1596923E+04  0.7818608E-02  0.8822441E-01
         -1   -1    0    0    0  501 -0.00000000000E+00  0.00000000000E+00  0.41469711213E+03  0.41469711213E+03  0.00000000000E+00 0.  1.
          2   -1    0    0  501    0  0.00000000000E+00 -0.00000000000E+00 -0.15373644443E+04  0.15373644443E+04  0.00000000000E+00 0. -1.
         24    2    1    2    0    0  0.35868085783E+03  0.14613325352E+03  0.74703792555E+02  0.40270759087E+03  0.81153321358E+02 0.  0.
        254    2    1    2    0    0 -0.35868085783E+03 -0.14613325352E+03 -0.11973711247E+04  0.15493539655E+04  0.90376612831E+03 0.  0.
         23    2    4    4    0    0  0.82494651047E+02 -0.43085217514E+03 -0.58390854059E+03  0.73661114021E+03  0.95957406378E+02 0.  0.
         23    2    4    4    0    0 -0.44117550888E+03  0.28471892162E+03 -0.61346258414E+03  0.81274282534E+03  0.92270602230E+02 0.  0.
          4    1    3    3  502    0  0.28435690920E+03  0.94847399221E+02  0.28052303443E+02  0.30106778751E+03  0.00000000000E+00 0. -1.
         -3    1    3    3    0  502  0.74323948629E+02  0.51285854297E+02  0.46651489113E+02  0.10163980336E+03  0.00000000000E+00 0.  1.
         11    1    5    5    0    0  0.70415904090E+02 -0.30592128350E+03 -0.34300675494E+03  0.46497297252E+03  0.00000000000E+00 0. -1.
        -11    1    5    5    0    0  0.12078746957E+02 -0.12493089164E+03 -0.24090178565E+03  0.27163816769E+03  0.00000000000E+00 0.  1.
          1    1    6    6  503    0 -0.12415263352E+03  0.99642885514E+02 -0.12893355975E+03  0.20485713039E+03  0.00000000000E+00 0. -1.
         -1    1    6    6    0  503 -0.31702287536E+03  0.18507603611E+03 -0.48452902439E+03  0.60788569495E+03  0.00000000000E+00 0.  1.
<mgrwt>
<rscale>  0 0.15969228E+04</rscale>
<asrwt>0</asrwt>
<pdfrwt beam="1">  1        2 0.23651761E+00 0.15969228E+04</pdfrwt>
<pdfrwt beam="2">  1       -1 0.63799556E-01 0.15969228E+04</pdfrwt>
<totfact> 0.32926966E+01</totfact>
</mgrwt>
</event>
<event>
12    6  0.1494052E-007  0.1061673E+04  0.7818608E-02  0.9243375E-01
         -1   -1    0    0    0  501 -0.00000000000E+00  0.00000000000E+00  0.22274992073E+03  0.22274992073E+03  0.00000000000E+00 0.  1.
          2   -1    0    0  501    0  0.00000000000E+00 -0.00000000000E+00 -0.12650382035E+04  0.12650382035E+04  0.00000000000E+00 0. -1.
         24    2    1    2    0    0  0.18266213257E+02  0.48365568145E+02 -0.32314026969E+03  0.33701980130E+03  0.80559480129E+02 0.  0.
        254    2    1    2    0    0 -0.18266213257E+02 -0.48365568145E+02 -0.71914801312E+03  0.11507683230E+04  0.89689519214E+03 0.  0.
         23    2    4    4    0    0  0.15812448477E+03 -0.40366014842E+03 -0.55693977998E+03  0.71260511114E+03  0.98383219035E+02 0.  0.
         23    2    4    4    0    0 -0.17639069803E+03  0.35529458028E+03 -0.16220823314E+03  0.43816321185E+03  0.91255532384E+02 0.  0.
          2    1    3    3  502    0  0.37483775961E+02  0.60977708100E+02 -0.26511118225E+03  0.27460381152E+03  0.00000000000E+00 0. -1.
         -1    1    3    3    0  502 -0.19217562704E+02 -0.12612139955E+02 -0.58029087440E+02  0.62415989775E+02  0.00000000000E+00 0.  1.
         11    1    5    5    0    0  0.65101799964E+02 -0.24957717095E+03 -0.38694692614E+03  0.46503218412E+03  0.00000000000E+00 0. -1.
        -11    1    5    5    0    0  0.93022684808E+02 -0.15408297748E+03 -0.16999285384E+03  0.24757292702E+03  0.00000000000E+00 0.  1.
          4    1    6    6  503    0 -0.13181970588E+03  0.30936115653E+03 -0.10491189313E+03  0.35226022391E+03  0.00000000000E+00 0. -1.
         -4    1    6    6    0  503 -0.44570992147E+02  0.45933423754E+02 -0.57296340012E+02  0.85902987943E+02  0.00000000000E+00 0.  1.
<mgrwt>
<rscale>  0 0.10616726E+04</rscale>
<asrwt>0</asrwt>
<pdfrwt beam="1">  1        2 0.19462126E+00 0.10616726E+04</pdfrwt>
<pdfrwt beam="2">  1       -1 0.34269219E-01 0.10616726E+04</pdfrwt>
<totfact> 0.15821147E+02</totfact>
</mgrwt>
</event>
<event>
12    6  0.1494052E-007  0.1557926E+04  0.7818608E-02  0.8846821E-01
          2   -1    0    0  501    0  0.00000000000E+00  0.00000000000E+00  0.21488283419E+04  0.21488283419E+04  0.00000000000E+00 0. -1.
         -1   -1    0    0    0  501 -0.00000000000E+00 -0.00000000000E+00 -0.28237876769E+03  0.28237876769E+03  0.00000000000E+00 0.  1.
         24    2    1    2    0    0 -0.13974583672E+03  0.42510097548E+03  0.10428053591E+04  0.11372337910E+04  0.74952920090E+02 0.  0.
        254    2    1    2    0    0  0.13974583672E+03 -0.42510097548E+03  0.82364421513E+03  0.12939733186E+04  0.89204115257E+03 0.  0.
         23    2    4    4    0    0  0.24697771099E+03  0.17885484382E+03  0.86247982387E+02  0.33057187299E+03  0.94085088404E+02 0.  0.
         23    2    4    4    0    0 -0.10723187427E+03 -0.60395581931E+03  0.73739623274E+03  0.96340144561E+03  0.90154505169E+02 0.  0.
          4    1    3    3  502    0 -0.75247733505E+02  0.32287606037E+03  0.80110390213E+03  0.86699402176E+03  0.00000000000E+00 0. -1.
         -3    1    3    3    0  502 -0.64498103215E+02  0.10222491511E+03  0.24170145697E+03  0.27023976926E+03  0.00000000000E+00 0.  1.
         11    1    5    5    0    0  0.19689514957E+03  0.18042910604E+03  0.58874317846E+02  0.27347494863E+03  0.00000000000E+00 0. -1.
        -11    1    5    5    0    0  0.50082561424E+02 -0.15742622150E+01  0.27373664540E+02  0.57096924354E+02  0.00000000000E+00 0.  1.
          1    1    6    6  503    0 -0.11358449898E+03 -0.56555028539E+03  0.65851142777E+03  0.87543467159E+03  0.00000000000E+00 0. -1.
         -1    1    6    6    0  503  0.63526247085E+01 -0.38405533917E+02  0.78884804971E+02  0.87966774020E+02  0.00000000000E+00 0.  1.
<mgrwt>
<rscale>  0 0.15579262E+04</rscale>
<asrwt>0</asrwt>
<pdfrwt beam="1">  1        2 0.33058897E+00 0.15579262E+04</pdfrwt>
<pdfrwt beam="2">  1       -1 0.43442889E-01 0.15579262E+04</pdfrwt>
<totfact> 0.31637555E+01</totfact>
</mgrwt>
</event>
<event>
12    6  0.1494052E-007  0.2694853E+04  0.7818608E-02  0.8336677E-01
         -1   -1    0    0    0  501 -0.00000000000E+00  0.00000000000E+00  0.13512456824E+04  0.13512456824E+04  0.00000000000E+00 0.  1.
          2   -1    0    0  501    0  0.00000000000E+00 -0.00000000000E+00 -0.13436181432E+04  0.13436181432E+04  0.00000000000E+00 0. -1.
         24    2    1    2    0    0 -0.24115004620E+03  0.11595511442E+04  0.19531646320E+03  0.12030044950E+04  0.79743924347E+02 0.  0.
        254    2    1    2    0    0  0.24115004620E+03 -0.11595511442E+04 -0.18768892408E+03  0.14918593306E+04  0.88752742454E+03 0.  0.
         23    2    4    4    0    0 -0.56819198519E+02  0.10705503524E+03 -0.10733883917E+03  0.18495968956E+03  0.89438573753E+02 0.  0.
         23    2    4    4    0    0  0.29796924472E+03 -0.12666061794E+04 -0.80350084907E+02  0.13068996410E+04  0.91943738455E+02 0.  0.
          2    1    3    3  502    0 -0.88589048749E+02  0.50146035927E+03  0.12085395307E+03  0.52337003109E+03  0.00000000000E+00 0. -1.
         -1    1    3    3    0  502 -0.15256099745E+03  0.65809078492E+03  0.74462510133E+02  0.67963446392E+03  0.00000000000E+00 0.  1.
         11    1    5    5    0    0 -0.41713244912E+02  0.11169382993E+03 -0.11649784080E+03  0.16669509098E+03  0.00000000000E+00 0. -1.
        -11    1    5    5    0    0 -0.15105953607E+02 -0.46387946838E+01  0.91590016265E+01  0.18264598580E+02  0.00000000000E+00 0.  1.
          1    1    6    6  503    0  0.19363717869E+03 -0.99068643607E+03 -0.60259307981E+02  0.10112300212E+04  0.00000000000E+00 0. -1.
         -1    1    6    6    0  503  0.10433206603E+03 -0.27591974336E+03 -0.20090776926E+02  0.29566961984E+03  0.00000000000E+00 0.  1.
<mgrwt>
<rscale>  0 0.26948530E+04</rscale>
<asrwt>0</asrwt>
<pdfrwt beam="1">  1        2 0.20671048E+00 0.26948530E+04</pdfrwt>
<pdfrwt beam="2">  1       -1 0.20788395E+00 0.26948530E+04</pdfrwt>
<totfact> 0.20719650E+00</totfact>
</mgrwt>
</event>
<event>
12    6  0.1494052E-007  0.1653457E+04  0.7818608E-02  0.8788364E-01
          2   -1    0    0  501    0  0.00000000000E+00  0.00000000000E+00  0.48119387870E+03  0.48119387870E+03  0.00000000000E+00 0. -1.
         -1   -1    0    0    0  501 -0.00000000000E+00 -0.00000000000E+00 -0.14203843583E+04  0.14203843583E+04  0.00000000000E+00 0.  1.
         24    2    1    2    0    0 -0.20630716190E+03  0.13683740610E+03  0.26632276545E+03  0.37533610389E+03  0.93071234689E+02 0.  0.
        254    2    1    2    0    0  0.20630716190E+03 -0.13683740610E+03 -0.12055132451E+04  0.15262421332E+04  0.90269914378E+03 0.  0.
         23    2    4    4    0    0  0.24766150711E+03 -0.39699664281E+03 -0.26618740698E+03  0.54651892761E+03  0.94258400660E+02 0.  0.
         23    2    4    4    0    0 -0.41354345212E+02  0.26015923671E+03 -0.93932583811E+03  0.97972320555E+03  0.90174935781E+02 0.  0.
          4    1    3    3  502    0 -0.18668118471E+03  0.10335468204E+03  0.25944236535E+03  0.33592022262E+03  0.00000000000E+00 0. -1.
         -3    1    3    3    0  502 -0.19625977185E+02  0.33482724058E+02  0.68804001020E+01  0.39415881271E+02  0.00000000000E+00 0.  1.
         11    1    5    5    0    0  0.20373617947E+02 -0.10615847124E+03 -0.65024432260E+02  0.12614627269E+03  0.00000000000E+00 0. -1.
        -11    1    5    5    0    0  0.22728788916E+03 -0.29083817157E+03 -0.20116297472E+03  0.42037265492E+03  0.00000000000E+00 0.  1.
          3    1    6    6  503    0 -0.23322006947E+02  0.28007873601E+02 -0.23744719031E+03  0.24022806909E+03  0.00000000000E+00 0. -1.
         -3    1    6    6    0  503 -0.18032338265E+02  0.23215136311E+03 -0.70187864779E+03  0.73949513646E+03  0.00000000000E+00 0.  1.
<mgrwt>
<rscale>  0 0.16534573E+04</rscale>
<asrwt>0</asrwt>
<pdfrwt beam="1">  1        2 0.74029827E-01 0.16534573E+04</pdfrwt>
<pdfrwt beam="2">  1       -1 0.21852067E+00 0.16534573E+04</pdfrwt>
<totfact> 0.79131463E+00</totfact>
</mgrwt>
</event>
<event>
12    6  0.1494052E-007  0.1112023E+04  0.7818608E-02  0.9193552E-01
          2   -1    0    0  501    0  0.00000000000E+00  0.00000000000E+00  0.35668398124E+03  0.35668398124E+03  0.00000000000E+00 0. -1.
         -1   -1    0    0    0  501 -0.00000000000E+00 -0.00000000000E+00 -0.86673031627E+03  0.86673031627E+03  0.00000000000E+00 0.  1.
         24    2    1    2    0    0  0.10264093127E+03 -0.77681619043E+02 -0.88813397675E+02  0.17470242033E+03  0.77868615976E+02 0.  0.
        254    2    1    2    0    0 -0.10264093127E+03  0.77681619043E+02 -0.42123293735E+03  0.10487118772E+04  0.95172990870E+03 0.  0.
         23    2    4    4    0    0 -0.20956075380E+03 -0.36903699236E+03 -0.38092610374E+03  0.57742797174E+03  0.90633077709E+02 0.  0.
         23    2    4    4    0    0  0.10691982253E+03  0.44671861140E+03 -0.40306833607E+02  0.47128390544E+03  0.97439788945E+02 0.  0.
          2    1    3    3  502    0  0.99516274187E+02 -0.48684694729E+02 -0.39897213085E+02  0.11775175557E+03  0.00000000000E+00 0. -1.
         -1    1    3    3    0  502  0.31246570856E+01 -0.28996924315E+02 -0.48916184590E+02  0.56950664759E+02  0.00000000000E+00 0.  1.
         11    1    5    5    0    0 -0.13282727793E+03 -0.29133709785E+03 -0.24558927351E+03  0.40352754752E+03  0.00000000000E+00 0. -1.
        -11    1    5    5    0    0 -0.76733475871E+02 -0.77699894503E+02 -0.13533683024E+03  0.17390042422E+03  0.00000000000E+00 0.  1.
          3    1    6    6  503    0  0.10370471503E+03  0.38497712445E+03 -0.22929973376E+01  0.39870705048E+03  0.00000000000E+00 0. -1.
         -3    1    6    6    0  503  0.32151074945E+01  0.61741486951E+02 -0.38013836270E+02  0.72576854954E+02  0.00000000000E+00 0.  1.
<mgrwt>
<rscale>  0 0.11120231E+04</rscale>
<asrwt>0</asrwt>
<pdfrwt beam="1">  1        2 0.54874458E-01 0.11120231E+04</pdfrwt>
<pdfrwt beam="2">  1       -1 0.13334313E+00 0.11120231E+04</pdfrwt>
<totfact> 0.48882093E+01</totfact>
</mgrwt>
</event>
<event>
12    6  0.1494052E-007  0.2979446E+04  0.7818608E-02  0.8249625E-01
         -1   -1    0    0    0  501 -0.00000000000E+00  0.00000000000E+00  0.20774725985E+04  0.20774725985E+04  0.00000000000E+00 0.  1.
          2   -1    0    0  501    0  0.00000000000E+00 -0.00000000000E+00 -0.10682568812E+04  0.10682568812E+04  0.00000000000E+00 0. -1.
         24    2    1    2    0    0 -0.81737739691E+02 -0.11323701545E+04  0.12311640626E+04  0.16766205261E+04  0.79675684618E+02 0.  0.
        254    2    1    2    0    0  0.81737739691E+02  0.11323701545E+04 -0.22194834528E+03  0.14691089536E+04  0.90558093210E+03 0.  0.
         23    2    4    4    0    0  0.18372674944E+03  0.67824790907E+03 -0.54589057859E+03  0.89470683457E+03  0.93424040922E+02 0.  0.
         23    2    4    4    0    0 -0.10198900975E+03  0.45412224546E+03  0.32394223331E+03  0.57440211902E+03  0.91490173669E+02 0.  0.
          2    1    3    3  502    0 -0.20604376720E+02 -0.25433444456E+03  0.32729538283E+03  0.41500941875E+03  0.00000000000E+00 0. -1.
         -1    1    3    3    0  502 -0.61133362971E+02 -0.87803570997E+03  0.90386867972E+03  0.12616111074E+04  0.00000000000E+00 0.  1.
         11    1    5    5    0    0  0.16533697168E+03  0.44198157681E+03 -0.36340430494E+03  0.59560617634E+03  0.00000000000E+00 0. -1.
        -11    1    5    5    0    0  0.18389777756E+02  0.23626633226E+03 -0.18248627365E+03  0.29910065823E+03  0.00000000000E+00 0.  1.
          3    1    6    6  503    0 -0.24553892989E+02  0.26466042162E+03  0.21897187701E+03  0.34437873825E+03  0.00000000000E+00 0. -1.
         -3    1    6    6    0  503 -0.77435116759E+02  0.18946182384E+03  0.10497035630E+03  0.23002338077E+03  0.00000000000E+00 0.  1.
<mgrwt>
<rscale>  0 0.29794459E+04</rscale>
<asrwt>0</asrwt>
<pdfrwt beam="1">  1        2 0.16434721E+00 0.29794459E+04</pdfrwt>
<pdfrwt beam="2">  1       -1 0.31961117E+00 0.29794459E+04</pdfrwt>
<totfact> 0.54834746E-01</totfact>
</mgrwt>
</event>
<event>
12    6  0.1494052E-007  0.2644214E+04  0.7818608E-02  0.8353336E-01
          2   -1    0    0  501    0  0.00000000000E+00  0.00000000000E+00  0.26714395362E+04  0.26714395362E+04  0.00000000000E+00 0. -1.
         -1   -1    0    0    0  501 -0.00000000000E+00 -0.00000000000E+00 -0.65431670051E+03  0.65431670051E+03  0.00000000000E+00 0.  1.
         24    2    1    2    0    0 -0.20713720301E+03 -0.10306193497E+04  0.25080874145E+03  0.10835189106E+04  0.77628216893E+02 0.  0.
        254    2    1    2    0    0  0.20713720301E+03  0.10306193497E+04  0.17663140942E+04  0.22422373261E+04  0.89592448470E+03 0.  0.
         23    2    4    4    0    0  0.17233156455E+02 -0.69503355048E+02 -0.35379516224E+02  0.12066208040E+03  0.90442962329E+02 0.  0.
         23    2    4    4    0    0  0.18990404656E+03  0.11001227047E+04  0.18016936104E+04  0.21215752457E+04  0.92995402411E+02 0.  0.
          2    1    3    3  502    0 -0.40732202518E+02 -0.22339131775E+03  0.21945649252E+02  0.22813242797E+03  0.00000000000E+00 0. -1.
         -1    1    3    3    0  502 -0.16640500050E+03 -0.80722803191E+03  0.22886309220E+03  0.85538648262E+03  0.00000000000E+00 0.  1.
         11    1    5    5    0    0  0.49732773194E+02 -0.48526035901E+02 -0.19106859026E+01  0.69510974748E+02  0.00000000000E+00 0.  1.
        -11    1    5    5    0    0 -0.32499616739E+02 -0.20977319148E+02 -0.33468830322E+02  0.51151105657E+02  0.00000000000E+00 0. -1.
          1    1    6    6  503    0  0.17248573905E+03  0.75036401409E+03  0.12231223773E+04  0.14452770785E+04  0.00000000000E+00 0. -1.
         -1    1    6    6    0  503  0.17418307504E+02  0.34975869062E+03  0.57857123310E+03  0.67629816714E+03  0.00000000000E+00 0.  1.
<mgrwt>
<rscale>  0 0.26442144E+04</rscale>
<asrwt>0</asrwt>
<pdfrwt beam="1">  1        2 0.41099069E+00 0.26442144E+04</pdfrwt>
<pdfrwt beam="2">  1       -1 0.10066411E+00 0.26442144E+04</pdfrwt>
<totfact> 0.25969945E+00</totfact>
</mgrwt>
</event>
<event>
12    6  0.1494052E-007  0.2241718E+04  0.7818608E-02  0.8501262E-01
         -1   -1    0    0    0  501 -0.00000000000E+00  0.00000000000E+00  0.15537166811E+04  0.15537166811E+04  0.00000000000E+00 0.  1.
          2   -1    0    0  501    0  0.00000000000E+00 -0.00000000000E+00 -0.80859359336E+03  0.80859359336E+03  0.00000000000E+00 0. -1.
         24    2    1    2    0    0  0.53664701182E+03  0.68287622926E+03  0.67782350682E+03  0.11071174315E+04  0.10933590912E+03 0.  0.
        254    2    1    2    0    0 -0.53664701182E+03 -0.68287622926E+03  0.67299580909E+02  0.12551928429E+04  0.90369789175E+03 0.  0.
         23    2    4    4    0    0 -0.78069946926E+03 -0.47012696016E+03  0.35508685790E+02  0.91635708585E+03  0.89097822971E+02 0.  0.
         23    2    4    4    0    0  0.24405245743E+03 -0.21274926910E+03  0.31790895120E+02  0.33883575707E+03  0.94737298753E+02 0.  0.
          2    1    3    3  502    0  0.73978444470E+01 -0.27140616902E+01  0.10417955138E+01  0.79485578071E+01  0.00000000000E+00 0. -1.
         -1    1    3    3    0  502  0.52924916738E+03  0.68559029095E+03  0.67678171131E+03  0.10991688737E+04  0.00000000000E+00 0.  1.
         11    1    5    5    0    0 -0.69769859892E+03 -0.38732447425E+03  0.40319369388E+02  0.79901766866E+03  0.00000000000E+00 0. -1.
        -11    1    5    5    0    0 -0.83000870336E+02 -0.82802485911E+02 -0.48106835986E+01  0.11733941719E+03  0.00000000000E+00 0.  1.
          2    1    6    6  503    0  0.16499510527E+03 -0.18930926921E+03  0.45604516465E+02  0.25522765542E+03  0.00000000000E+00 0. -1.
         -2    1    6    6    0  503  0.79057352164E+02 -0.23439999889E+02 -0.13813621346E+02  0.83608101645E+02  0.00000000000E+00 0.  1.
<mgrwt>
<rscale>  0 0.22417184E+04</rscale>
<asrwt>0</asrwt>
<pdfrwt beam="1">  1        2 0.12439901E+00 0.22417184E+04</pdfrwt>
<pdfrwt beam="2">  1       -1 0.23903334E+00 0.22417184E+04</pdfrwt>
<totfact> 0.29031872E+00</totfact>
</mgrwt>
</event>
<event>
12    6  0.1494052E-007  0.1526755E+04  0.7818608E-02  0.8866854E-01
          2   -1    0    0  501    0  0.00000000000E+00  0.00000000000E+00  0.89522232425E+03  0.89522232425E+03  0.00000000000E+00 0. -1.
         -1   -1    0    0    0  501 -0.00000000000E+00 -0.00000000000E+00 -0.65094993763E+03  0.65094993763E+03  0.00000000000E+00 0.  1.
         24    2    1    2    0    0  0.21062089849E+03 -0.47038037711E+03  0.20062867649E+03  0.55888158582E+03  0.80485396732E+02 0.  0.
        254    2    1    2    0    0 -0.21062089849E+03  0.47038037711E+03  0.43643710128E+02  0.98729067605E+03  0.84096328311E+03 0.  0.
         23    2    4    4    0    0  0.25836331227E+03  0.75899815868E+02 -0.17064825128E+03  0.33170558048E+03  0.91626324169E+02 0.  0.
         23    2    4    4    0    0 -0.46898421076E+03  0.39448056124E+03  0.21429196140E+03  0.65558509558E+03  0.91157389575E+02 0.  0.
          2    1    3    3  502    0  0.38333094317E+00  0.31100783077E+01  0.31781204684E+01  0.44631804135E+01  0.00000000000E+00 0. -1.
         -1    1    3    3    0  502  0.21023756755E+03 -0.47349045542E+03  0.19745055602E+03  0.55441840541E+03  0.00000000000E+00 0.  1.
         11    1    5    5    0    0  0.13183753937E+02 -0.15714831832E+02 -0.26292547854E+01  0.20680432493E+02  0.00000000000E+00 0.  1.
        -11    1    5    5    0    0  0.24517955833E+03  0.91614647699E+02 -0.16801899649E+03  0.31102514798E+03  0.00000000000E+00 0. -1.
          3    1    6    6  503    0 -0.46170858846E+03  0.36413357854E+03  0.20818590494E+03  0.62378638546E+03  0.00000000000E+00 0. -1.
         -3    1    6    6    0  503 -0.72756223047E+01  0.30346982704E+02  0.61060564675E+01  0.31798710111E+02  0.00000000000E+00 0.  1.
<mgrwt>
<rscale>  0 0.15267546E+04</rscale>
<asrwt>0</asrwt>
<pdfrwt beam="1">  1        2 0.13772651E+00 0.15267546E+04</pdfrwt>
<pdfrwt beam="2">  1       -1 0.10014614E+00 0.15267546E+04</pdfrwt>
<totfact> 0.30892506E+01</totfact>
</mgrwt>
</event>
<event>
12    6  0.1494052E-007  0.1417341E+04  0.7818608E-02  0.8941361E-01
         -1   -1    0    0    0  501 -0.00000000000E+00  0.00000000000E+00  0.11554107707E+04  0.11554107707E+04  0.00000000000E+00 0.  1.
          2   -1    0    0  501    0  0.00000000000E+00 -0.00000000000E+00 -0.43466283541E+03  0.43466283541E+03  0.00000000000E+00 0. -1.
         24    2    1    2    0    0 -0.30337079948E+03 -0.14486338630E+03  0.50601462250E+03  0.61445701336E+03  0.92126979867E+02 0.  0.
        254    2    1    2    0    0  0.30337079948E+03  0.14486338630E+03  0.21473331282E+03  0.97561659277E+03  0.89033594659E+03 0.  0.
         23    2    4    4    0    0  0.13534742438E+03 -0.33141298138E+02  0.53536250213E+03  0.56179712073E+03  0.97906717099E+02 0.  0.
         23    2    4    4    0    0  0.16802337510E+03  0.17800468443E+03 -0.32062918931E+03  0.41381947203E+03  0.92336104180E+02 0.  0.
          4    1    3    3  502    0 -0.26057928835E+03 -0.15680880909E+03  0.44407594446E+03  0.53823230353E+03  0.00000000000E+00 0. -1.
         -3    1    3    3    0  502 -0.42791511127E+02  0.11945422790E+02  0.61938678046E+02  0.76224709827E+02  0.00000000000E+00 0.  1.
         11    1    5    5    0    0  0.10149778741E+03 -0.14151548425E+02  0.20525705822E+03  0.22941780035E+03  0.00000000000E+00 0. -1.
        -11    1    5    5    0    0  0.33849636971E+02 -0.18989749713E+02  0.33010544391E+03  0.33237932038E+03  0.00000000000E+00 0.  1.
          3    1    6    6  503    0 -0.14824148357E+01  0.33916434296E+02 -0.18634220639E+02  0.38726686509E+02  0.00000000000E+00 0. -1.
         -3    1    6    6    0  503  0.16950578994E+03  0.14408825014E+03 -0.30199496867E+03  0.37509278552E+03  0.00000000000E+00 0.  1.
<mgrwt>
<rscale>  0 0.14173413E+04</rscale>
<asrwt>0</asrwt>
<pdfrwt beam="1">  1        2 0.66871206E-01 0.14173413E+04</pdfrwt>
<pdfrwt beam="2">  1       -1 0.17775550E+00 0.14173413E+04</pdfrwt>
<totfact> 0.17379016E+01</totfact>
</mgrwt>
</event>
<event>
12    6  0.1494052E-007  0.1463844E+04  0.7818608E-02  0.8908859E-01
          2   -1    0    0  501    0  0.00000000000E+00  0.00000000000E+00  0.56608453664E+03  0.56608453664E+03  0.00000000000E+00 0. -1.
         -1   -1    0    0    0  501 -0.00000000000E+00 -0.00000000000E+00 -0.94634191875E+03  0.94634191875E+03  0.00000000000E+00 0.  1.
         24    2    1    2    0    0 -0.89273521587E+02  0.74184330736E+02 -0.55545587909E+03  0.57307687316E+03  0.80079912332E+02 0.  0.
        254    2    1    2    0    0  0.89273521587E+02 -0.74184330736E+02  0.17519849697E+03  0.93934958222E+03  0.91553811920E+03 0.  0.
         23    2    4    4    0    0  0.37424822706E+03 -0.31161314314E+03 -0.47169847834E+02  0.49774387351E+03  0.91430206423E+02 0.  0.
         23    2    4    4    0    0 -0.28497470547E+03  0.23742881240E+03  0.22236834480E+03  0.44160570871E+03  0.89358253556E+02 0.  0.
          2    1    3    3  502    0 -0.14949387534E+02  0.39956916060E+02 -0.80324072592E+02  0.90950513833E+02  0.00000000000E+00 0. -1.
         -1    1    3    3    0  502 -0.74324134053E+02  0.34227414676E+02 -0.47513180650E+03  0.48212635933E+03  0.00000000000E+00 0.  1.
         11    1    5    5    0    0  0.15787139212E+02 -0.33484034455E+02  0.14713461803E+02  0.39835917036E+02  0.00000000000E+00 0. -1.
        -11    1    5    5    0    0  0.35846108784E+03 -0.27812910868E+03 -0.61883309637E+02  0.45790795648E+03  0.00000000000E+00 0.  1.
          2    1    6    6  503    0 -0.13745656535E+03  0.96618154666E+02  0.52021031071E+02  0.17588508419E+03  0.00000000000E+00 0. -1.
         -2    1    6    6    0  503 -0.14751814012E+03  0.14081065773E+03  0.17034731373E+03  0.26572062452E+03  0.00000000000E+00 0.  1.
<mgrwt>
<rscale>  0 0.14638436E+04</rscale>
<asrwt>0</asrwt>
<pdfrwt beam="1">  1        2 0.87089930E-01 0.14638436E+04</pdfrwt>
<pdfrwt beam="2">  1       -1 0.14559106E+00 0.14638436E+04</pdfrwt>
<totfact> 0.22264070E+01</totfact>
</mgrwt>
</event>
<event>
12    6  0.1494052E-007  0.1271382E+04  0.7818608E-02  0.9052572E-01
          2   -1    0    0  501    0  0.00000000000E+00  0.00000000000E+00  0.83415551500E+03  0.83415551500E+03  0.00000000000E+00 0. -1.
         -1   -1    0    0    0  501 -0.00000000000E+00 -0.00000000000E+00 -0.48444572299E+03  0.48444572299E+03  0.00000000000E+00 0.  1.
         24    2    1    2    0    0 -0.21824004189E+01 -0.47777229483E+02  0.40511260321E+03  0.41469118233E+03  0.74599791543E+02 0.  0.
        254    2    1    2    0    0  0.21824004189E+01  0.47777229483E+02 -0.55402811199E+02  0.90391005565E+03  0.90094200185E+03 0.  0.
         23    2    4    4    0    0  0.41799018633E+03  0.51622279346E+02  0.11597548909E+03  0.44630050737E+03  0.91395695790E+02 0.  0.
         23    2    4    4    0    0 -0.41580778592E+03 -0.38450498626E+01 -0.17137830029E+03  0.45760954829E+03  0.84410174969E+02 0.  0.
          4    1    3    3  502    0  0.79058732140E+01 -0.12475611011E+02  0.33691580298E+03  0.33723938382E+03  0.00000000000E+00 0. -1.
         -3    1    3    3    0  502 -0.10088273633E+02 -0.35301618472E+02  0.68196800226E+02  0.77451798512E+02  0.00000000000E+00 0.  1.
         11    1    5    5    0    0 -0.27482070815E+01  0.56382055981E+01 -0.25547349142E+01  0.67726416568E+01  0.00000000000E+00 0. -1.
        -11    1    5    5    0    0  0.42073839342E+03  0.45984073748E+02  0.11853022400E+03  0.43952786571E+03  0.00000000000E+00 0.  1.
          2    1    6    6  503    0 -0.22859360121E+03  0.39434865358E+02 -0.87008935900E+02  0.24775128263E+03  0.00000000000E+00 0. -1.
         -2    1    6    6    0  503 -0.18721418471E+03 -0.43279915220E+02 -0.84369364389E+02  0.20985826566E+03  0.00000000000E+00 0.  1.
<mgrwt>
<rscale>  0 0.12713820E+04</rscale>
<asrwt>0</asrwt>
<pdfrwt beam="1">  1        2 0.12833162E+00 0.12713820E+04</pdfrwt>
<pdfrwt beam="2">  1       -1 0.74530111E-01 0.12713820E+04</pdfrwt>
<totfact> 0.66154393E+01</totfact>
</mgrwt>
</event>
<event>
12    6  0.1494052E-007  0.1883234E+04  0.7818608E-02  0.8663247E-01
         -1   -1    0    0    0  501 -0.00000000000E+00  0.00000000000E+00  0.34718808001E+03  0.34718808001E+03  0.00000000000E+00 0.  1.
          2   -1    0    0  501    0  0.00000000000E+00 -0.00000000000E+00 -0.25537823505E+04  0.25537823505E+04  0.00000000000E+00 0. -1.
         24    2    1    2    0    0  0.58432917914E+03  0.43441708797E+02 -0.15008124548E+04  0.16130902116E+04  0.79336212315E+02 0.  0.
        254    2    1    2    0    0 -0.58432917914E+03 -0.43441708797E+02 -0.70578181571E+03  0.12878802189E+04  0.90397993080E+03 0.  0.
         23    2    4    4    0    0 -0.60361823513E+03  0.18505774989E+03 -0.80097339931E+03  0.10239211849E+04  0.90856270148E+02 0.  0.
         23    2    4    4    0    0  0.19289055995E+02 -0.22849945869E+03  0.95191583598E+02  0.26395903408E+03  0.89603927271E+02 0.  0.
          2    1    3    3  502    0  0.35864972195E+03  0.65119671051E+02 -0.91441710788E+03  0.98439262584E+03  0.00000000000E+00 0. -1.
         -1    1    3    3    0  502  0.22567945718E+03 -0.21677962254E+02 -0.58639534692E+03  0.62869758576E+03  0.00000000000E+00 0.  1.
         11    1    5    5    0    0 -0.42873825853E+03  0.15742442951E+03 -0.62690275763E+03  0.77563265330E+03  0.00000000000E+00 0. -1.
        -11    1    5    5    0    0 -0.17487997660E+03  0.27633320378E+02 -0.17407064168E+03  0.24828853156E+03  0.00000000000E+00 0.  1.
          4    1    6    6  503    0  0.14905801326E+02 -0.18586959060E+02 -0.13657607201E+02  0.27462487046E+02  0.00000000000E+00 0.  1.
         -4    1    6    6    0  503  0.43832546691E+01 -0.20991249963E+03  0.10884919080E+03  0.23649654703E+03  0.00000000000E+00 0. -1.
<mgrwt>
<rscale>  0 0.18832342E+04</rscale>
<asrwt>0</asrwt>
<pdfrwt beam="1">  1        2 0.39288960E+00 0.18832342E+04</pdfrwt>
<pdfrwt beam="2">  1       -1 0.53413549E-01 0.18832342E+04</pdfrwt>
<totfact> 0.12241486E+01</totfact>
</mgrwt>
</event>
<event>
12    6  0.1494052E-007  0.1178198E+04  0.7818608E-02  0.9132157E-01
         -1   -1    0    0    0  501 -0.00000000000E+00  0.00000000000E+00  0.70302961271E+03  0.70302961271E+03  0.00000000000E+00 0.  1.
          2   -1    0    0  501    0  0.00000000000E+00 -0.00000000000E+00 -0.49363157499E+03  0.49363157499E+03  0.00000000000E+00 0. -1.
         24    2    1    2    0    0  0.61881477098E+02  0.61373030761E+02  0.25714917891E+03  0.28314705120E+03  0.80315541922E+02 0.  0.
        254    2    1    2    0    0 -0.61881477098E+02 -0.61373030761E+02 -0.47751141190E+02  0.91351413651E+03  0.90809247327E+03 0.  0.
         23    2    4    4    0    0  0.31329257005E+03 -0.24494220095E+03  0.16037449627E+03  0.43813172714E+03  0.89947290242E+02 0.  0.
         23    2    4    4    0    0 -0.37517404715E+03  0.18356917019E+03 -0.20812563746E+03  0.47538240937E+03  0.90658415325E+02 0.  0.
          2    1    3    3  502    0  0.61406517787E+01 -0.18970625051E+02  0.57009631162E+02  0.60396111334E+02  0.00000000000E+00 0. -1.
         -1    1    3    3    0  502  0.55740825320E+02  0.80343655811E+02  0.20013954775E+03  0.22275093986E+03  0.00000000000E+00 0.  1.
         11    1    5    5    0    0  0.29544083307E+02 -0.11845968406E+02  0.41197237836E+02  0.52061427480E+02  0.00000000000E+00 0. -1.
        -11    1    5    5    0    0  0.28374848674E+03 -0.23309623254E+03  0.11917725843E+03  0.38607029966E+03  0.00000000000E+00 0.  1.
          2    1    6    6  503    0 -0.62325743803E+02  0.63803264240E+02 -0.68489457753E+02  0.11245514969E+03  0.00000000000E+00 0. -1.
         -2    1    6    6    0  503 -0.31284830334E+03  0.11976590595E+03 -0.13963617971E+03  0.36292725968E+03  0.00000000000E+00 0.  1.
<mgrwt>
<rscale>  0 0.11781980E+04</rscale>
<asrwt>0</asrwt>
<pdfrwt beam="1">  1        2 0.75943319E-01 0.11781980E+04</pdfrwt>
<pdfrwt beam="2">  1       -1 0.10815840E+00 0.11781980E+04</pdfrwt>
<totfact> 0.56130110E+01</totfact>
</mgrwt>
</event>
<event>
12    6  0.1494052E-007  0.2041859E+04  0.7818608E-02  0.8587296E-01
          2   -1    0    0  501    0  0.00000000000E+00  0.00000000000E+00  0.56609244130E+03  0.56609244130E+03  0.00000000000E+00 0. -1.
         -1   -1    0    0    0  501 -0.00000000000E+00 -0.00000000000E+00 -0.18412137857E+04  0.18412137857E+04  0.00000000000E+00 0.  1.
         24    2    1    2    0    0 -0.43259406517E+03 -0.20655614092E+03 -0.13137693682E+04  0.14012076987E+04  0.87120591951E+02 0.  0.
        254    2    1    2    0    0  0.43259406517E+03  0.20655614092E+03  0.38648023823E+02  0.10060985283E+04  0.88370669018E+03 0.  0.
         23    2    4    4    0    0  0.54734452435E+03  0.87537293297E+02 -0.28587897839E+03  0.63044763973E+03  0.92133762004E+02 0.  0.
         23    2    4    4    0    0 -0.11475045918E+03  0.11901884763E+03  0.32452700221E+03  0.37565088854E+03  0.91992722118E+02 0.  0.
          4    1    3    3  502    0 -0.29992350486E+02 -0.50178348332E+01 -0.15683248571E+03  0.15975339848E+03  0.00000000000E+00 0. -1.
         -3    1    3    3    0  502 -0.40260171468E+03 -0.20153830609E+03 -0.11569368825E+04  0.12414543002E+04  0.00000000000E+00 0.  1.
         11    1    5    5    0    0  0.40098104647E+03  0.35799725020E+02 -0.23949060011E+03  0.46842626686E+03  0.00000000000E+00 0.  1.
        -11    1    5    5    0    0  0.14636347788E+03  0.51737568277E+02 -0.46388378282E+02  0.16202137287E+03  0.00000000000E+00 0. -1.
          1    1    6    6  503    0 -0.83397430067E+02  0.20674842750E+02  0.14292324846E+03  0.16676221219E+03  0.00000000000E+00 0. -1.
         -1    1    6    6    0  503 -0.31353029117E+02  0.98344004875E+02  0.18160375376E+03  0.20888867635E+03  0.00000000000E+00 0.  1.
<mgrwt>
<rscale>  0 0.20418592E+04</rscale>
<asrwt>0</asrwt>
<pdfrwt beam="1">  1        2 0.87091144E-01 0.20418592E+04</pdfrwt>
<pdfrwt beam="2">  1       -1 0.28326366E+00 0.20418592E+04</pdfrwt>
<totfact> 0.23853337E+00</totfact>
</mgrwt>
</event>
<event>
12    6  0.1494052E-007  0.3425546E+04  0.7818608E-02  0.8131665E-01
         -1   -1    0    0    0  501 -0.00000000000E+00  0.00000000000E+00  0.13546444609E+04  0.13546444609E+04  0.00000000000E+00 0.  1.
          2   -1    0    0  501    0  0.00000000000E+00 -0.00000000000E+00 -0.21655806595E+04  0.21655806595E+04  0.00000000000E+00 0. -1.
         24    2    1    2    0    0 -0.84063048174E+03 -0.57135009465E+03 -0.16283736876E+04  0.19212980235E+04  0.81759961312E+02 0.  0.
        254    2    1    2    0    0  0.84063048174E+03  0.57135009465E+03  0.81743748898E+03  0.15989270968E+04  0.92480445232E+03 0.  0.
         23    2    4    4    0    0  0.17898204112E+02  0.53660459184E+03  0.33549878442E+03  0.64056666429E+03  0.97475039623E+02 0.  0.
         23    2    4    4    0    0  0.82273227763E+03  0.34745502804E+02  0.48193870456E+03  0.95836043252E+03  0.89967511104E+02 0.  0.
          2    1    3    3  502    0 -0.73319869388E+03 -0.52008517395E+03 -0.13997430823E+04  0.16635352744E+04  0.00000000000E+00 0. -1.
         -1    1    3    3    0  502 -0.10743178786E+03 -0.51264920702E+02 -0.22863060534E+03  0.25776274912E+03  0.00000000000E+00 0.  1.
         11    1    5    5    0    0  0.26617423311E+02  0.37696719240E+03  0.28357925083E+03  0.47247216094E+03  0.00000000000E+00 0. -1.
        -11    1    5    5    0    0 -0.87192191996E+01  0.15963739944E+03  0.51919533593E+02  0.16809450334E+03  0.00000000000E+00 0.  1.
          2    1    6    6  503    0  0.74330130360E+03  0.57598978170E+02  0.42771852604E+03  0.85951009752E+03  0.00000000000E+00 0. -1.
         -2    1    6    6    0  503  0.79430974023E+02 -0.22853475365E+02  0.54220178520E+02  0.98850334998E+02  0.00000000000E+00 0.  1.
<mgrwt>
<rscale>  0 0.34255463E+04</rscale>
<asrwt>0</asrwt>
<pdfrwt beam="1">  1        2 0.33316625E+00 0.34255463E+04</pdfrwt>
<pdfrwt beam="2">  1       -1 0.20840684E+00 0.34255463E+04</pdfrwt>
<totfact> 0.66897414E-01</totfact>
</mgrwt>
</event>
<event>
12    6  0.1494052E-007  0.1631715E+04  0.7818608E-02  0.8801298E-01
         -1   -1    0    0    0  501 -0.00000000000E+00  0.00000000000E+00  0.45560067738E+03  0.45560067738E+03  0.00000000000E+00 0.  1.
          2   -1    0    0  501    0  0.00000000000E+00 -0.00000000000E+00 -0.14609797650E+04  0.14609797650E+04  0.00000000000E+00 0. -1.
         24    2    1    2    0    0  0.12434495506E+03  0.20898312889E+02 -0.95040998092E+03  0.96221273657E+03  0.81705637833E+02 0.  0.
        254    2    1    2    0    0 -0.12434495506E+03 -0.20898312889E+02 -0.54969106728E+02  0.95436770585E+03  0.94440336082E+03 0.  0.
         23    2    4    4    0    0 -0.20634395501E+03 -0.15859108204E+03  0.38829716938E+03  0.47606124066E+03  0.90170139400E+02 0.  0.
         23    2    4    4    0    0  0.81998999948E+02  0.13769276915E+03 -0.44326627611E+03  0.47830646519E+03  0.81295439201E+02 0.  0.
          2    1    3    3  502    0  0.12827964260E+03  0.38126731676E+00 -0.85262343894E+03  0.86221954322E+03  0.00000000000E+00 0. -1.
         -1    1    3    3    0  502 -0.39346875387E+01  0.20517045572E+02 -0.97786541974E+02  0.99993193349E+02  0.00000000000E+00 0.  1.
         11    1    5    5    0    0 -0.27908556188E+02 -0.56753133843E+02  0.51564914704E+02  0.81601140543E+02  0.00000000000E+00 0. -1.
        -11    1    5    5    0    0 -0.17843539882E+03 -0.10183794820E+03  0.33673225468E+03  0.39446010012E+03  0.00000000000E+00 0.  1.
          3    1    6    6  503    0  0.19952278524E+02  0.97236371009E+02 -0.18913055414E+03  0.21359628222E+03  0.00000000000E+00 0. -1.
         -3    1    6    6    0  503  0.62046721424E+02  0.40456398141E+02 -0.25413572196E+03  0.26471018297E+03  0.00000000000E+00 0.  1.
<mgrwt>
<rscale>  0 0.16317149E+04</rscale>
<asrwt>0</asrwt>
<pdfrwt beam="1">  1        2 0.22476612E+00 0.16317149E+04</pdfrwt>
<pdfrwt beam="2">  1       -1 0.70092412E-01 0.16317149E+04</pdfrwt>
<totfact> 0.29960474E+01</totfact>
</mgrwt>
</event>
<event>
12    6  0.1494052E-007  0.2443631E+04  0.7818608E-02  0.8423347E-01
          2   -1    0    0  501    0  0.00000000000E+00  0.00000000000E+00  0.26136609445E+04  0.26136609445E+04  0.00000000000E+00 0. -1.
         -3   -1    0    0    0  501 -0.00000000000E+00 -0.00000000000E+00 -0.57116571865E+03  0.57116571865E+03  0.00000000000E+00 0.  1.
         24    2    1    2    0    0  0.78517906883E+03  0.69873538831E+03  0.76142563746E+03  0.13003217799E+04  0.79563916642E+02 0.  0.
        254    2    1    2    0    0 -0.78517906883E+03 -0.69873538831E+03  0.12810695883E+04  0.18845048832E+04  0.89748651897E+03 0.  0.
         23    2    4    4    0    0 -0.57409228166E+02  0.14188150673E+03 -0.94248538123E+01  0.17862408002E+03  0.91605418313E+02 0.  0.
         23    2    4    4    0    0 -0.72776984066E+03 -0.84061689504E+03  0.12904944422E+04  0.17058808032E+04  0.91475156794E+02 0.  0.
          2    1    3    3  502    0  0.72983012167E+03  0.64814835655E+03  0.73068183837E+03  0.12192802170E+04  0.00000000000E+00 0. -1.
         -1    1    3    3    0  502  0.55348947157E+02  0.50587031763E+02  0.30743799090E+02  0.81041562895E+02  0.00000000000E+00 0.  1.
         11    1    5    5    0    0 -0.82371349070E+02  0.10633461777E+03 -0.17687369832E+01  0.13451846905E+03  0.00000000000E+00 0. -1.
        -11    1    5    5    0    0  0.24962120905E+02  0.35546888959E+02 -0.76561168291E+01  0.44105610976E+02  0.00000000000E+00 0.  1.
          3    1    6    6  503    0 -0.53104548037E+03 -0.66633953332E+03  0.95915720235E+03  0.12829653989E+04  0.00000000000E+00 0. -1.
         -3    1    6    6    0  503 -0.19672436029E+03 -0.17427736172E+03  0.33133723981E+03  0.42291540434E+03  0.00000000000E+00 0.  1.
<mgrwt>
<rscale>  0 0.24436313E+04</rscale>
<asrwt>0</asrwt>
<pdfrwt beam="1">  1        2 0.40210168E+00 0.24436313E+04</pdfrwt>
<pdfrwt beam="2">  1       -3 0.87871651E-01 0.24436313E+04</pdfrwt>
<totfact> 0.20174432E+00</totfact>
</mgrwt>
</event>
<event>
12    6  0.1494052E-007  0.2779524E+04  0.7818608E-02  0.8309654E-01
         -1   -1    0    0    0  501 -0.00000000000E+00  0.00000000000E+00  0.41891425945E+03  0.41891425945E+03  0.00000000000E+00 0.  1.
          2   -1    0    0  501    0  0.00000000000E+00 -0.00000000000E+00 -0.46105807951E+04  0.46105807951E+04  0.00000000000E+00 0. -1.
         24    2    1    2    0    0  0.99640755129E+03  0.60403293011E+03 -0.11023272165E+04  0.16059545842E+04  0.79253047369E+02 0.  0.
        254    2    1    2    0    0 -0.99640755129E+03 -0.60403293011E+03 -0.30893393192E+04  0.34235404703E+04  0.90494648125E+03 0.  0.
         23    2    4    4    0    0 -0.83823102788E+03 -0.17133182562E+03 -0.11959381889E+04  0.14726862628E+04  0.80937175220E+02 0.  0.
         23    2    4    4    0    0 -0.15817652341E+03 -0.43270110449E+03 -0.18934011303E+04  0.19508542075E+04  0.92812933078E+02 0.  0.
          2    1    3    3  502    0  0.13698825545E+02  0.19164798609E+01 -0.23712466785E+02  0.27451990773E+02  0.00000000000E+00 0. -1.
         -1    1    3    3    0  502  0.98270872574E+03  0.60211645024E+03 -0.10786147497E+04  0.15785025934E+04  0.00000000000E+00 0.  1.
         11    1    5    5    0    0 -0.15676693436E+02 -0.15703627214E+02 -0.33329294789E+02  0.40040036413E+02  0.00000000000E+00 0. -1.
        -11    1    5    5    0    0 -0.82255433444E+03 -0.15562819840E+03 -0.11626088941E+04  0.14326462264E+04  0.00000000000E+00 0.  1.
          1    1    6    6  503    0 -0.82801864765E+02 -0.13845935677E+03 -0.52905644955E+03  0.55310746613E+03  0.00000000000E+00 0. -1.
         -1    1    6    6    0  503 -0.75374658646E+02 -0.29424174772E+03 -0.13643446807E+04  0.13977467414E+04  0.00000000000E+00 0.  1.
<mgrwt>
<rscale>  0 0.27795237E+04</rscale>
<asrwt>0</asrwt>
<pdfrwt beam="1">  1        2 0.70932012E+00 0.27795237E+04</pdfrwt>
<pdfrwt beam="2">  1       -1 0.64448348E-01 0.27795237E+04</pdfrwt>
<totfact> 0.23099979E-01</totfact>
</mgrwt>
</event>
<event>
12    6  0.1494052E-007  0.2394152E+04  0.7818608E-02  0.8441696E-01
          2   -1    0    0  501    0  0.00000000000E+00  0.00000000000E+00  0.23167556530E+04  0.23167556530E+04  0.00000000000E+00 0. -1.
         -1   -1    0    0    0  501 -0.00000000000E+00 -0.00000000000E+00 -0.61853335373E+03  0.61853335373E+03  0.00000000000E+00 0.  1.
         24    2    1    2    0    0  0.78156726588E+03 -0.60060666253E+03  0.38335530497E+03  0.10606602906E+04  0.80394079779E+02 0.  0.
        254    2    1    2    0    0 -0.78156726588E+03  0.60060666253E+03  0.13148669943E+04  0.18746287161E+04  0.90209858467E+03 0.  0.
         23    2    4    4    0    0 -0.22612901339E+03  0.58674753476E+03  0.11012729158E+04  0.12717627014E+04  0.95767077906E+02 0.  0.
         23    2    4    4    0    0 -0.55543825249E+03  0.13859127775E+02  0.21359407848E+03  0.60286601477E+03  0.95505359254E+02 0.  0.
          2    1    3    3  502    0  0.13030084819E+03 -0.64587274029E+02  0.59973713051E+02  0.15731075380E+03  0.00000000000E+00 0. -1.
         -1    1    3    3    0  502  0.65126641769E+03 -0.53601938850E+03  0.32338159192E+03  0.90334953681E+03  0.00000000000E+00 0.  1.
         11    1    5    5    0    0 -0.74463738613E+01  0.94816825750E+01  0.60537005857E+02  0.61725844395E+02  0.00000000000E+00 0. -1.
        -11    1    5    5    0    0 -0.21868263953E+03  0.57726585218E+03  0.10407359100E+04  0.12100368570E+04  0.00000000000E+00 0.  1.
          2    1    6    6  503    0 -0.18746885704E+03  0.29695750366E+02  0.11367559219E+03  0.22124319246E+03  0.00000000000E+00 0. -1.
         -2    1    6    6    0  503 -0.36796939545E+03 -0.15836622591E+02  0.99918486293E+02  0.38162282231E+03  0.00000000000E+00 0.  1.
<mgrwt>
<rscale>  0 0.23941517E+04</rscale>
<asrwt>0</asrwt>
<pdfrwt beam="1">  1        2 0.35642394E+00 0.23941517E+04</pdfrwt>
<pdfrwt beam="2">  1       -1 0.95158979E-01 0.23941517E+04</pdfrwt>
<totfact> 0.48419023E+00</totfact>
</mgrwt>
</event>
<event>
12    6  0.1494052E-007  0.1423027E+04  0.7818608E-02  0.8937317E-01
         -1   -1    0    0    0  501 -0.00000000000E+00  0.00000000000E+00  0.27933565751E+03  0.27933565751E+03  0.00000000000E+00 0.  1.
          2   -1    0    0  501    0  0.00000000000E+00 -0.00000000000E+00 -0.18123418839E+04  0.18123418839E+04  0.00000000000E+00 0. -1.
         24    2    1    2    0    0 -0.40549910874E+02  0.37780654530E+03 -0.75017522975E+03  0.84401990205E+03  0.72281662819E+02 0.  0.
        254    2    1    2    0    0  0.40549910874E+02 -0.37780654530E+03 -0.78283099666E+03  0.12476576394E+04  0.89411583971E+03 0.  0.
         23    2    4    4    0    0  0.20353659979E+03 -0.49172548513E+03 -0.12433400144E+03  0.55371626288E+03  0.89003683528E+02 0.  0.
         23    2    4    4    0    0 -0.16298668892E+03  0.11391893983E+03 -0.65849699523E+03  0.69394137650E+03  0.91619624982E+02 0.  0.
          2    1    3    3  502    0 -0.59339101556E+02  0.27111937153E+03 -0.56500061357E+03  0.62948592989E+03  0.00000000000E+00 0. -1.
         -1    1    3    3    0  502  0.18789190682E+02  0.10668717377E+03 -0.18517461618E+03  0.21453397216E+03  0.00000000000E+00 0.  1.
         11    1    5    5    0    0  0.12784808090E+03 -0.40312769384E+03 -0.10256445244E+03  0.43517414472E+03  0.00000000000E+00 0. -1.
        -11    1    5    5    0    0  0.75688518889E+02 -0.88597791287E+02 -0.21769548999E+02  0.11854211815E+03  0.00000000000E+00 0.  1.
          1    1    6    6  503    0 -0.92705405446E+02  0.73996692088E+02 -0.52200347131E+03  0.53531058901E+03  0.00000000000E+00 0. -1.
         -1    1    6    6    0  503 -0.70281283471E+02  0.39922247739E+02 -0.13649352391E+03  0.15863078749E+03  0.00000000000E+00 0.  1.
<mgrwt>
<rscale>  0 0.14230274E+04</rscale>
<asrwt>0</asrwt>
<pdfrwt beam="1">  1        2 0.27882183E+00 0.14230274E+04</pdfrwt>
<pdfrwt beam="2">  1       -1 0.42974716E-01 0.14230274E+04</pdfrwt>
<totfact> 0.50175167E+01</totfact>
</mgrwt>
</event>
<event>
12    6  0.1494052E-007  0.1284474E+04  0.7818608E-02  0.9041969E-01
          2   -1    0    0  501    0  0.00000000000E+00  0.00000000000E+00  0.55408333018E+03  0.55408333018E+03  0.00000000000E+00 0. -1.
         -1   -1    0    0    0  501 -0.00000000000E+00 -0.00000000000E+00 -0.74441598248E+03  0.74441598248E+03  0.00000000000E+00 0.  1.
         24    2    1    2    0    0  0.24567526268E+03  0.16419671916E+03 -0.17237946359E+03  0.35122982871E+03  0.79566424043E+02 0.  0.
        254    2    1    2    0    0 -0.24567526268E+03 -0.16419671916E+03 -0.17953188719E+02  0.94726948395E+03  0.89982234966E+03 0.  0.
         23    2    4    4    0    0  0.10100730683E+02 -0.25102262813E+03 -0.39371680972E+03  0.47567110960E+03  0.90198080125E+02 0.  0.
         23    2    4    4    0    0 -0.25577599336E+03  0.86825908962E+02  0.37576362100E+03  0.47159837435E+03  0.90810960666E+02 0.  0.
          4    1    3    3  502    0  0.13693725716E+02  0.35238591464E+02 -0.68339822662E+01  0.38418482089E+02  0.00000000000E+00 0. -1.
         -3    1    3    3    0  502  0.23198153696E+03  0.12895812770E+03 -0.16554548132E+03  0.31281134663E+03  0.00000000000E+00 0.  1.
         11    1    5    5    0    0  0.37931069361E+02 -0.22532505819E+03 -0.34784564175E+03  0.41618113647E+03  0.00000000000E+00 0.  1.
        -11    1    5    5    0    0 -0.27830338677E+02 -0.25697569938E+02 -0.45871167967E+02  0.59489973123E+02  0.00000000000E+00 0. -1.
          4    1    6    6  503    0 -0.13611994298E+03  0.25738283194E+02  0.25846619259E+03  0.29325052567E+03  0.00000000000E+00 0. -1.
         -4    1    6    6    0  503 -0.11965605039E+03  0.61087625768E+02  0.11729742841E+03  0.17834784868E+03  0.00000000000E+00 0.  1.
<mgrwt>
<rscale>  0 0.12844742E+04</rscale>
<asrwt>0</asrwt>
<pdfrwt beam="1">  1        2 0.85243590E-01 0.12844742E+04</pdfrwt>
<pdfrwt beam="2">  1       -1 0.11452553E+00 0.12844742E+04</pdfrwt>
<totfact> 0.42452187E+01</totfact>
</mgrwt>
</event>
<event>
12    6  0.1494052E-007  0.1048650E+04  0.7818608E-02  0.9256739E-01
         -1   -1    0    0    0  501 -0.00000000000E+00  0.00000000000E+00  0.26753821322E+03  0.26753821322E+03  0.00000000000E+00 0.  1.
          2   -1    0    0  501    0  0.00000000000E+00 -0.00000000000E+00 -0.10275783376E+04  0.10275783376E+04  0.00000000000E+00 0. -1.
         24    2    1    2    0    0 -0.29405860219E+01 -0.64494987551E+02 -0.24274293066E+03  0.26338285977E+03  0.79234777530E+02 0.  0.
        254    2    1    2    0    0  0.29405860219E+01  0.64494987551E+02 -0.51729719374E+03  0.10317336911E+04  0.89034250274E+03 0.  0.
         23    2    4    4    0    0 -0.35000602952E+02 -0.28497470380E+03  0.97597641865E+02  0.31726283329E+03  0.93245813186E+02 0.  0.
         23    2    4    4    0    0  0.37941188974E+02  0.34946969135E+03 -0.61489483560E+03  0.71447085778E+03  0.93831491387E+02 0.  0.
          4    1    3    3  502    0  0.23280249685E+02 -0.63747937296E+02 -0.21384157349E+03  0.22435237482E+03  0.00000000000E+00 0. -1.
         -3    1    3    3    0  502 -0.26220835707E+02 -0.74705025531E+00 -0.28901357173E+02  0.39030484953E+02  0.00000000000E+00 0.  1.
         11    1    5    5    0    0  0.13833657211E+02 -0.88015447231E+01  0.20790859972E+02  0.26478238607E+02  0.00000000000E+00 0. -1.
        -11    1    5    5    0    0 -0.48834260163E+02 -0.27617315908E+03  0.76806781893E+02  0.29078459468E+03  0.00000000000E+00 0.  1.
          3    1    6    6  503    0 -0.16246853651E+02  0.13907894968E+02 -0.60508681633E+02  0.64177023529E+02  0.00000000000E+00 0. -1.
         -3    1    6    6    0  503  0.54188042625E+02  0.33556179638E+03 -0.55438615397E+03  0.65029383425E+03  0.00000000000E+00 0.  1.
<mgrwt>
<rscale>  0 0.10486496E+04</rscale>
<asrwt>0</asrwt>
<pdfrwt beam="1">  1        2 0.15808897E+00 0.10486496E+04</pdfrwt>
<pdfrwt beam="2">  1       -1 0.41159725E-01 0.10486496E+04</pdfrwt>
<totfact> 0.15857513E+02</totfact>
</mgrwt>
</event>
<event>
12    6  0.1494052E-007  0.1423281E+04  0.7818608E-02  0.8937137E-01
         -1   -1    0    0    0  501 -0.00000000000E+00  0.00000000000E+00  0.28030703038E+03  0.28030703038E+03  0.00000000000E+00 0.  1.
          2   -1    0    0  501    0  0.00000000000E+00 -0.00000000000E+00 -0.18067048734E+04  0.18067048734E+04  0.00000000000E+00 0. -1.
         24    2    1    2    0    0 -0.32004840630E+03 -0.24658681806E+03 -0.29827529997E+03  0.50865664832E+03  0.80792265082E+02 0.  0.
        254    2    1    2    0    0  0.32004840630E+03  0.24658681806E+03 -0.12281225431E+04  0.15783552555E+04  0.90536417561E+03 0.  0.
         23    2    4    4    0    0 -0.21929730179E+03  0.73953136688E+02 -0.30798877227E+02  0.25047791153E+03  0.90720671992E+02 0.  0.
         23    2    4    4    0    0  0.53934570808E+03  0.17263368137E+03 -0.11973236659E+04  0.13278773440E+04  0.94752831158E+02 0.  0.
          4    1    3    3  502    0 -0.89504822014E+02 -0.89321472137E+02 -0.13655861926E+03  0.18611204970E+03  0.00000000000E+00 0. -1.
         -3    1    3    3    0  502 -0.23054358428E+03 -0.15726534592E+03 -0.16171668070E+03  0.32254459862E+03  0.00000000000E+00 0.  1.
         11    1    5    5    0    0 -0.16778469215E+03  0.43754096078E+02  0.16671890107E+02  0.17419551017E+03  0.00000000000E+00 0. -1.
        -11    1    5    5    0    0 -0.51512609638E+02  0.30199040610E+02 -0.47470767334E+02  0.76282401357E+02  0.00000000000E+00 0.  1.
          1    1    6    6  503    0  0.49395386799E+03  0.18346671924E+03 -0.11152577272E+04  0.12334708180E+04  0.00000000000E+00 0. -1.
         -1    1    6    6    0  503  0.45391840095E+02 -0.10833037873E+02 -0.82065938626E+02  0.94406525936E+02  0.00000000000E+00 0.  1.
<mgrwt>
<rscale>  0 0.14232808E+04</rscale>
<asrwt>0</asrwt>
<pdfrwt beam="1">  1        2 0.27795460E+00 0.14232808E+04</pdfrwt>
<pdfrwt beam="2">  1       -1 0.43124158E-01 0.14232808E+04</pdfrwt>
<totfact> 0.50212191E+01</totfact>
</mgrwt>
</event>
<event>
12    6  0.1494052E-007  0.1865450E+04  0.7818608E-02  0.8672248E-01
          2   -1    0    0  501    0  0.00000000000E+00  0.00000000000E+00  0.10958908755E+04  0.10958908755E+04  0.00000000000E+00 0. -1.
         -1   -1    0    0    0  501 -0.00000000000E+00 -0.00000000000E+00 -0.79385239023E+03  0.79385239023E+03  0.00000000000E+00 0.  1.
         24    2    1    2    0    0 -0.76710317125E+02 -0.35485002273E+03  0.73729561766E+03  0.82543786295E+03  0.77070269122E+02 0.  0.
        254    2    1    2    0    0  0.76710317125E+02  0.35485002273E+03 -0.43525713238E+03  0.10643054028E+04  0.90082973294E+03 0.  0.
         23    2    4    4    0    0 -0.27535731042E+02  0.33491708852E+03  0.20874442574E+03  0.40556688651E+03  0.89345349574E+02 0.  0.
         23    2    4    4    0    0  0.10424604817E+03  0.19932934211E+02 -0.64400155812E+03  0.65873851628E+03  0.89072249048E+02 0.  0.
          4    1    3    3  502    0 -0.43823348402E+02 -0.30130513694E+03  0.65104364278E+03  0.71872324035E+03  0.00000000000E+00 0. -1.
         -3    1    3    3    0  502 -0.32886968723E+02 -0.53544885786E+02  0.86251974878E+02  0.10671462260E+03  0.00000000000E+00 0.  1.
         11    1    5    5    0    0  0.25541991973E+02  0.21216627840E+03  0.12031683009E+03  0.24524082582E+03  0.00000000000E+00 0.  1.
        -11    1    5    5    0    0 -0.53077723015E+02  0.12275081011E+03  0.88427595654E+02  0.16032606069E+03  0.00000000000E+00 0. -1.
          1    1    6    6  503    0  0.11984782764E+03  0.15482878751E+02 -0.59410602129E+03  0.60627154466E+03  0.00000000000E+00 0. -1.
         -1    1    6    6    0  503 -0.15601779475E+02  0.44500554605E+01 -0.49895536828E+02  0.52466971628E+02  0.00000000000E+00 0.  1.
<mgrwt>
<rscale>  0 0.18654496E+04</rscale>
<asrwt>0</asrwt>
<pdfrwt beam="1">  1        2 0.16859860E+00 0.18654496E+04</pdfrwt>
<pdfrwt beam="2">  1       -1 0.12213114E+00 0.18654496E+04</pdfrwt>
<totfact> 0.13916732E+01</totfact>
</mgrwt>
</event>
<event>
12    6  0.1494052E-007  0.1314537E+04  0.7818608E-02  0.9018116E-01
          2   -1    0    0  501    0  0.00000000000E+00  0.00000000000E+00  0.11669572947E+04  0.11669572947E+04  0.00000000000E+00 0. -1.
         -3   -1    0    0    0  501 -0.00000000000E+00 -0.00000000000E+00 -0.37019502672E+03  0.37019502672E+03  0.00000000000E+00 0.  1.
         24    2    1    2    0    0  0.38523953330E+02  0.27256482042E+03  0.25870467880E+03  0.38629377956E+03  0.80740925064E+02 0.  0.
        254    2    1    2    0    0 -0.38523953330E+02 -0.27256482042E+03  0.53805758918E+03  0.11508585419E+04  0.97938436673E+03 0.  0.
         23    2    4    4    0    0 -0.75517864565E+02  0.17219322598E+03  0.64752032049E+03  0.68040134946E+03  0.91159069544E+02 0.  0.
         23    2    4    4    0    0  0.36993911235E+02 -0.44475804640E+03 -0.10946273131E+03  0.47045719240E+03  0.10084448936E+03 0.  0.
          4    1    3    3  502    0  0.47337260250E+02  0.26205927426E+03  0.26042408927E+03  0.37247360404E+03  0.00000000000E+00 0. -1.
         -3    1    3    3    0  502 -0.88133069202E+01  0.10505546157E+02 -0.17194104694E+01  0.13820175516E+02  0.00000000000E+00 0.  1.
         11    1    5    5    0    0 -0.14819198206E+02  0.43025099664E+02  0.31886246478E+03  0.32209321521E+03  0.00000000000E+00 0. -1.
        -11    1    5    5    0    0 -0.60698666360E+02  0.12916812631E+03  0.32865785571E+03  0.35830813426E+03  0.00000000000E+00 0.  1.
          3    1    6    6  503    0  0.39224069817E+02 -0.57167394109E+02 -0.79277679422E+01  0.69781717568E+02  0.00000000000E+00 0. -1.
         -3    1    6    6    0  503 -0.22301585812E+01 -0.38759065229E+03 -0.10153496337E+03  0.40067547484E+03  0.00000000000E+00 0.  1.
<mgrwt>
<rscale>  0 0.13145369E+04</rscale>
<asrwt>0</asrwt>
<pdfrwt beam="1">  1        2 0.17953189E+00 0.13145369E+04</pdfrwt>
<pdfrwt beam="2">  1       -3 0.56953082E-01 0.13145369E+04</pdfrwt>
<totfact> 0.37521299E+01</totfact>
</mgrwt>
</event>
<event>
12    6  0.1494052E-007  0.3724615E+04  0.7818608E-02  0.8062529E-01
          2   -1    0    0  501    0  0.00000000000E+00  0.00000000000E+00  0.27078659483E+04  0.27078659483E+04  0.00000000000E+00 0. -1.
         -1   -1    0    0    0  501 -0.00000000000E+00 -0.00000000000E+00 -0.12807833104E+04  0.12807833104E+04  0.00000000000E+00 0.  1.
         24    2    1    2    0    0 -0.74281071962E+03  0.14502773199E+03 -0.10161736697E+04  0.12694979566E+04  0.78837341975E+02 0.  0.
        254    2    1    2    0    0  0.74281071962E+03 -0.14502773199E+03  0.24432563075E+04  0.27191513021E+04  0.92275761237E+03 0.  0.
         23    2    4    4    0    0  0.11141419958E+03 -0.30802846146E+03  0.16673317077E+04  0.17016202405E+04  0.90673935386E+02 0.  0.
         23    2    4    4    0    0  0.63139652004E+03  0.16300072947E+03  0.77592459988E+03  0.10175310616E+04  0.89887003106E+02 0.  0.
          4    1    3    3  502    0 -0.20798424251E+03  0.43526145898E+02 -0.22868213547E+03  0.31216580465E+03  0.00000000000E+00 0. -1.
         -3    1    3    3    0  502 -0.53482647710E+03  0.10150158609E+03 -0.78749153423E+03  0.95733215191E+03  0.00000000000E+00 0.  1.
         11    1    5    5    0    0 -0.11175471696E+02 -0.65069089197E+02  0.39863879504E+03  0.40406901199E+03  0.00000000000E+00 0.  1.
        -11    1    5    5    0    0  0.12258967128E+03 -0.24295937226E+03  0.12686929126E+04  0.12975512285E+04  0.00000000000E+00 0. -1.
          3    1    6    6  503    0  0.54941551677E+03  0.14283831874E+03  0.71726255486E+03  0.91472715494E+03  0.00000000000E+00 0. -1.
         -3    1    6    6    0  503  0.81981003262E+02  0.20162410728E+02  0.58662045022E+02  0.10280390668E+03  0.00000000000E+00 0.  1.
<mgrwt>
<rscale>  0 0.37246152E+04</rscale>
<asrwt>0</asrwt>
<pdfrwt beam="1">  1        2 0.41659476E+00 0.37246152E+04</pdfrwt>
<pdfrwt beam="2">  1       -1 0.19704359E+00 0.37246152E+04</pdfrwt>
<totfact> 0.37977087E-01</totfact>
</mgrwt>
</event>
<event>
12    6  0.1494052E-007  0.2065482E+04  0.7818608E-02  0.8576603E-01
          2   -1    0    0  501    0  0.00000000000E+00  0.00000000000E+00  0.11987437051E+04  0.11987437051E+04  0.00000000000E+00 0. -1.
         -1   -1    0    0    0  501 -0.00000000000E+00 -0.00000000000E+00 -0.88972658608E+03  0.88972658608E+03  0.00000000000E+00 0.  1.
         24    2    1    2    0    0 -0.19266554113E+03 -0.44780796351E+03 -0.55986839617E+03  0.74799980124E+03  0.91646596760E+02 0.  0.
        254    2    1    2    0    0  0.19266554113E+03  0.44780796351E+03  0.86888551518E+03  0.13404704899E+04  0.89679825655E+03 0.  0.
         23    2    4    4    0    0  0.64358648333E+02  0.39536189696E+03 -0.43792465808E+02  0.41289118858E+03  0.90046034660E+02 0.  0.
         23    2    4    4    0    0  0.12830689280E+03  0.52446066552E+02  0.91267798099E+03  0.92757930135E+03  0.90603612956E+02 0.  0.
          4    1    3    3  502    0 -0.34830216641E+02 -0.12255874900E+03 -0.20529499640E+03  0.24161917659E+03  0.00000000000E+00 0. -1.
         -3    1    3    3    0  502 -0.15783532449E+03 -0.32524921451E+03 -0.35457339977E+03  0.50638062465E+03  0.00000000000E+00 0.  1.
         11    1    5    5    0    0 -0.18419215064E+02  0.15828625082E+03 -0.21361847784E+02  0.16077976621E+03  0.00000000000E+00 0. -1.
        -11    1    5    5    0    0  0.82777863397E+02  0.23707564614E+03 -0.22430618025E+02  0.25211142237E+03  0.00000000000E+00 0.  1.
          3    1    6    6  503    0  0.71774079844E+02  0.60663643258E+02  0.36400933522E+03  0.37594466651E+03  0.00000000000E+00 0. -1.
         -3    1    6    6    0  503  0.56532812953E+02 -0.82175767061E+01  0.54866864577E+03  0.55163463485E+03  0.00000000000E+00 0.  1.
<mgrwt>
<rscale>  0 0.20654822E+04</rscale>
<asrwt>0</asrwt>
<pdfrwt beam="1">  1        2 0.18442211E+00 0.20654822E+04</pdfrwt>
<pdfrwt beam="2">  1       -1 0.13688101E+00 0.20654822E+04</pdfrwt>
<totfact> 0.88870077E+00</totfact>
</mgrwt>
</event>
<event>
12    6  0.2451885E-007  0.3690061E+04  0.7818608E-02  0.8070168E-01
         -1   -1    0    0    0  501 -0.00000000000E+00  0.00000000000E+00  0.15005418999E+04  0.15005418999E+04  0.00000000000E+00 0.  1.
          2   -1    0    0  501    0  0.00000000000E+00 -0.00000000000E+00 -0.22686059533E+04  0.22686059533E+04  0.00000000000E+00 0. -1.
         24    2    1    2    0    0 -0.10521542540E+04 -0.10628621790E+04 -0.12559514963E+04  0.19549906267E+04  0.88710788054E+02 0.  0.
        254    2    1    2    0    0  0.10521542540E+04  0.10628621790E+04  0.48788744282E+03  0.18141572265E+04  0.90356388819E+03 0.  0.
         23    2    4    4    0    0  0.10140064080E+04  0.75799384263E+03  0.68048395639E+03  0.14403333035E+04  0.93476998340E+02 0.  0.
         23    2    4    4    0    0  0.38147845944E+02  0.30486833635E+03 -0.19259651358E+03  0.37382392305E+03  0.90834727627E+02 0.  0.
          4    1    3    3  502    0 -0.57189380646E+03 -0.59629062085E+03 -0.63854516927E+03  0.10442054221E+04  0.00000000000E+00 0. -1.
         -3    1    3    3    0  502 -0.48026044750E+03 -0.46657155813E+03 -0.61740632701E+03  0.91078520460E+03  0.00000000000E+00 0.  1.
         11    1    5    5    0    0  0.50740005531E+02  0.41898329507E+02  0.60495498754E+02  0.89385253517E+02  0.00000000000E+00 0. -1.
        -11    1    5    5    0    0  0.96326640248E+03  0.71609551313E+03  0.61998845764E+03  0.13509480500E+04  0.00000000000E+00 0.  1.
          4    1    6    6  503    0  0.23962860243E+02  0.18563210255E+02 -0.37263094386E+01  0.30540085593E+02  0.00000000000E+00 0. -1.
         -4    1    6    6    0  503  0.14184985702E+02  0.28630512609E+03 -0.18887020414E+03  0.34328383746E+03  0.00000000000E+00 0.  1.
<mgrwt>
<rscale>  0 0.36900614E+04</rscale>
<asrwt>0</asrwt>
<pdfrwt beam="1">  1        2 0.34901630E+00 0.36900614E+04</pdfrwt>
<pdfrwt beam="2">  1       -1 0.23085260E+00 0.36900614E+04</pdfrwt>
<totfact> 0.40480627E-01</totfact>
</mgrwt>
</event>
<event>
12    6  0.1494052E-007  0.1381278E+04  0.7818608E-02  0.8967483E-01
         -1   -1    0    0    0  501 -0.00000000000E+00  0.00000000000E+00  0.25289789052E+03  0.25289789052E+03  0.00000000000E+00 0.  1.
          2   -1    0    0  501    0  0.00000000000E+00 -0.00000000000E+00 -0.18860673528E+04  0.18860673528E+04  0.00000000000E+00 0. -1.
         24    2    1    2    0    0 -0.26553594287E+03  0.28885167234E+03 -0.52829684510E+03  0.66273623598E+03  0.78594760443E+02 0.  0.
        254    2    1    2    0    0  0.26553594287E+03 -0.28885167234E+03 -0.11048726172E+04  0.14762290074E+04  0.89697489172E+03 0.  0.
         23    2    4    4    0    0  0.48158991212E+03 -0.34244146338E+03 -0.10793587596E+04  0.12339003706E+04  0.91103201502E+02 0.  0.
         23    2    4    4    0    0 -0.21605396925E+03  0.53589791040E+02 -0.25513857663E+02  0.24232863682E+03  0.92309414255E+02 0.  0.
          4    1    3    3  502    0 -0.90052540470E+02  0.11212579430E+03 -0.25668960545E+03  0.29422985460E+03  0.00000000000E+00 0. -1.
         -3    1    3    3    0  502 -0.17548340240E+03  0.17672587804E+03 -0.27160723965E+03  0.36850638138E+03  0.00000000000E+00 0.  1.
         11    1    5    5    0    0  0.28392659906E+03 -0.22338088675E+03 -0.74063085767E+03  0.82404332505E+03  0.00000000000E+00 0.  1.
        -11    1    5    5    0    0  0.19766331305E+03 -0.11906057664E+03 -0.33872790190E+03  0.40985704552E+03  0.00000000000E+00 0. -1.
          2    1    6    6  503    0 -0.16498828942E+03  0.69655141394E+01 -0.43717486943E+02  0.17082409870E+03  0.00000000000E+00 0. -1.
         -2    1    6    6    0  503 -0.51065679828E+02  0.46624276901E+02  0.18203629281E+02  0.71504538120E+02  0.00000000000E+00 0.  1.
<mgrwt>
<rscale>  0 0.13812783E+04</rscale>
<asrwt>0</asrwt>
<pdfrwt beam="1">  1        2 0.29016422E+00 0.13812783E+04</pdfrwt>
<pdfrwt beam="2">  1       -1 0.38907366E-01 0.13812783E+04</pdfrwt>
<totfact> 0.55005004E+01</totfact>
</mgrwt>
</event>
<event>
12    6  0.1494052E-007  0.1226363E+04  0.7818608E-02  0.9090089E-01
          2   -1    0    0  501    0  0.00000000000E+00  0.00000000000E+00  0.28230238676E+04  0.28230238676E+04  0.00000000000E+00 0. -1.
         -1   -1    0    0    0  501 -0.00000000000E+00 -0.00000000000E+00 -0.13318753703E+03  0.13318753703E+03  0.00000000000E+00 0.  1.
         24    2    1    2    0    0  0.90314841953E+02  0.14446324408E+03  0.90238082593E+02  0.20852062679E+03  0.79445205512E+02 0.  0.
        254    2    1    2    0    0 -0.90314841953E+02 -0.14446324408E+03  0.25995982480E+04  0.27476907778E+04  0.87342266983E+03 0.  0.
         23    2    4    4    0    0 -0.44633322338E+03  0.75638461876E+02  0.13512288720E+04  0.14278407496E+04  0.89304078123E+02 0.  0.
         23    2    4    4    0    0  0.35601838143E+03 -0.22010170596E+03  0.12483693760E+04  0.13198500283E+04  0.91565000917E+02 0.  0.
          4    1    3    3  502    0  0.35206630882E+02  0.81841642358E+02  0.87774013926E+02  0.12506733707E+03  0.00000000000E+00 0. -1.
         -3    1    3    3    0  502  0.55108211072E+02  0.62621601725E+02  0.24640686670E+01  0.83453289717E+02  0.00000000000E+00 0.  1.
         11    1    5    5    0    0 -0.36037866803E+02  0.31876132576E+02  0.16655714771E+03  0.17336694934E+03  0.00000000000E+00 0. -1.
        -11    1    5    5    0    0 -0.41029535658E+03  0.43762329299E+02  0.11846717243E+04  0.12544738002E+04  0.00000000000E+00 0.  1.
          1    1    6    6  503    0  0.15260223030E+02 -0.31911625119E+02  0.16275827326E+03  0.16655774295E+03  0.00000000000E+00 0. -1.
         -1    1    6    6    0  503  0.34075815840E+03 -0.18819008084E+03  0.10856111027E+04  0.11532922853E+04  0.00000000000E+00 0.  1.
<mgrwt>
<rscale>  0 0.12263631E+04</rscale>
<asrwt>0</asrwt>
<pdfrwt beam="1">  1        2 0.43431132E+00 0.12263631E+04</pdfrwt>
<pdfrwt beam="2">  1       -1 0.20490392E-01 0.12263631E+04</pdfrwt>
<totfact> 0.49862976E+01</totfact>
</mgrwt>
</event>
<event>
12    6  0.1494052E-007  0.2168126E+04  0.7818608E-02  0.8531813E-01
         -1   -1    0    0    0  501 -0.00000000000E+00  0.00000000000E+00  0.41916796634E+03  0.41916796634E+03  0.00000000000E+00 0.  1.
          2   -1    0    0  501    0  0.00000000000E+00 -0.00000000000E+00 -0.28036318801E+04  0.28036318801E+04  0.00000000000E+00 0. -1.
         24    2    1    2    0    0  0.18339382681E+03 -0.36521856641E+03  0.19328815325E+03  0.45917953100E+03  0.80421604968E+02 0.  0.
        254    2    1    2    0    0 -0.18339382681E+03  0.36521856641E+03 -0.25777520670E+04  0.27636203154E+04  0.90872087680E+03 0.  0.
         23    2    4    4    0    0 -0.99731535894E+02  0.31710051413E+03 -0.26053423991E+04  0.26280711885E+04  0.91924100325E+02 0.  0.
         23    2    4    4    0    0 -0.83662290916E+02  0.48118052278E+02  0.27590332129E+02  0.13554912685E+03  0.91091237148E+02 0.  0.
          2    1    3    3  502    0  0.69729670958E+02 -0.20076175146E+03  0.67517694173E+02  0.22299360279E+03  0.00000000000E+00 0. -1.
         -1    1    3    3    0  502  0.11366415585E+03 -0.16445681495E+03  0.12577045907E+03  0.23618592821E+03  0.00000000000E+00 0.  1.
         11    1    5    5    0    0 -0.60783767325E+02  0.27505433167E+03 -0.23192780311E+04  0.23363219250E+04  0.00000000000E+00 0. -1.
        -11    1    5    5    0    0 -0.38947768569E+02  0.42046182460E+02 -0.28606436797E+03  0.29174926351E+03  0.00000000000E+00 0.  1.
          1    1    6    6  503    0 -0.77411160695E+02  0.62166814603E+02  0.47770559790E+02  0.11017816036E+03  0.00000000000E+00 0. -1.
         -1    1    6    6    0  503 -0.62511302217E+01 -0.14048762325E+02 -0.20180227661E+02  0.25370966484E+02  0.00000000000E+00 0.  1.
<mgrwt>
<rscale>  0 0.21681261E+04</rscale>
<asrwt>0</asrwt>
<pdfrwt beam="1">  1        2 0.43132798E+00 0.21681261E+04</pdfrwt>
<pdfrwt beam="2">  1       -1 0.64487380E-01 0.21681261E+04</pdfrwt>
<totfact> 0.58549944E+00</totfact>
</mgrwt>
</event>
<event>
12    6  0.1494052E-007  0.1492289E+04  0.7818608E-02  0.8889597E-01
         -1   -1    0    0    0  501 -0.00000000000E+00  0.00000000000E+00  0.25178471320E+03  0.25178471320E+03  0.00000000000E+00 0.  1.
          2   -1    0    0  501    0  0.00000000000E+00 -0.00000000000E+00 -0.22111405643E+04  0.22111405643E+04  0.00000000000E+00 0. -1.
         24    2    1    2    0    0 -0.17970752036E+03  0.40226329185E+03 -0.37642549294E+03  0.58515783041E+03  0.81258758937E+02 0.  0.
        254    2    1    2    0    0  0.17970752036E+03 -0.40226329185E+03 -0.15829303582E+04  0.18777674471E+04  0.90897278163E+03 0.  0.
         23    2    4    4    0    0 -0.16530732716E+02 -0.53637145229E+03 -0.42141944424E+03  0.68821688901E+03  0.89891814832E+02 0.  0.
         23    2    4    4    0    0  0.19623825307E+03  0.13410816044E+03 -0.11615109139E+04  0.11895505581E+04  0.97100342101E+02 0.  0.
          2    1    3    3  502    0 -0.13636285332E+03  0.29620161624E+03 -0.32214039000E+03  0.45837174444E+03  0.00000000000E+00 0. -1.
         -1    1    3    3    0  502 -0.43344667035E+02  0.10606167561E+03 -0.54285102945E+02  0.12678608597E+03  0.00000000000E+00 0.  1.
         11    1    5    5    0    0 -0.10524087858E+02 -0.53778634143E+03 -0.41752185909E+03  0.68091806282E+03  0.00000000000E+00 0.  1.
        -11    1    5    5    0    0 -0.60066448579E+01  0.14148891394E+01 -0.38975851484E+01  0.72988261875E+01  0.00000000000E+00 0. -1.
          4    1    6    6  503    0 -0.88433859349E+01  0.20132806376E+02 -0.11107238210E+03  0.11322813004E+03  0.00000000000E+00 0. -1.
         -4    1    6    6    0  503  0.20508163901E+03  0.11397535406E+03 -0.10504385318E+04  0.10763224280E+04  0.00000000000E+00 0.  1.
<mgrwt>
<rscale>  0 0.14922887E+04</rscale>
<asrwt>0</asrwt>
<pdfrwt beam="1">  1        2 0.34017547E+00 0.14922887E+04</pdfrwt>
<pdfrwt beam="2">  1       -1 0.38736109E-01 0.14922887E+04</pdfrwt>
<totfact> 0.36241464E+01</totfact>
</mgrwt>
</event>
<event>
12    6  0.1494052E-007  0.1650647E+04  0.7818608E-02  0.8790024E-01
          2   -1    0    0  501    0  0.00000000000E+00  0.00000000000E+00  0.16957068557E+04  0.16957068557E+04  0.00000000000E+00 0. -1.
         -1   -1    0    0    0  501 -0.00000000000E+00 -0.00000000000E+00 -0.40169621607E+03  0.40169621607E+03  0.00000000000E+00 0.  1.
         24    2    1    2    0    0 -0.49877897878E+03 -0.73584462169E+02  0.81923209992E+03  0.96535961294E+03  0.81134493301E+02 0.  0.
        254    2    1    2    0    0  0.49877897878E+03  0.73584462169E+02  0.47477853972E+03  0.11320434588E+04  0.89549572204E+03 0.  0.
         23    2    4    4    0    0  0.46022510235E+03 -0.29065132268E+03  0.38009971720E+02  0.55438081727E+03  0.98020387697E+02 0.  0.
         23    2    4    4    0    0  0.38553876434E+02  0.36423578485E+03  0.43676856800E+03  0.57766264157E+03  0.93665559959E+02 0.  0.
          4    1    3    3  502    0 -0.42398194828E+03 -0.58434580231E+02  0.74324730015E+03  0.85766650967E+03  0.00000000000E+00 0. -1.
         -3    1    3    3    0  502 -0.74797030505E+02 -0.15149881939E+02  0.75984799776E+02  0.10769310327E+03  0.00000000000E+00 0.  1.
         11    1    5    5    0    0  0.30653029094E+03 -0.23197251804E+03  0.57601759910E+02  0.38870301149E+03  0.00000000000E+00 0.  1.
        -11    1    5    5    0    0  0.15369481140E+03 -0.58678804635E+02 -0.19591788190E+02  0.16567780579E+03  0.00000000000E+00 0. -1.
          3    1    6    6  503    0 -0.28207361041E+02  0.95051375166E+02  0.13906472240E+03  0.17079056225E+03  0.00000000000E+00 0. -1.
         -3    1    6    6    0  503  0.66761237475E+02  0.26918440968E+03  0.29770384559E+03  0.40687207932E+03  0.00000000000E+00 0.  1.
<mgrwt>
<rscale>  0 0.16506472E+04</rscale>
<asrwt>0</asrwt>
<pdfrwt beam="1">  1        2 0.26087797E+00 0.16506472E+04</pdfrwt>
<pdfrwt beam="2">  1       -1 0.61799419E-01 0.16506472E+04</pdfrwt>
<totfact> 0.28496308E+01</totfact>
</mgrwt>
</event>
<event>
12    6  0.1494052E-007  0.1679725E+04  0.7818608E-02  0.8773013E-01
         -1   -1    0    0    0  501 -0.00000000000E+00  0.00000000000E+00  0.64068288489E+03  0.64068288489E+03  0.00000000000E+00 0.  1.
          2   -1    0    0  501    0  0.00000000000E+00 -0.00000000000E+00 -0.11009639529E+04  0.11009639529E+04  0.00000000000E+00 0. -1.
         24    2    1    2    0    0  0.57132231397E+03 -0.29369493855E+02 -0.28095560126E+03  0.64210744753E+03  0.78065169523E+02 0.  0.
        254    2    1    2    0    0 -0.57132231397E+03  0.29369493855E+02 -0.17932546677E+03  0.10995393903E+04  0.92171443198E+03 0.  0.
         23    2    4    4    0    0 -0.64527033377E+03 -0.30879446504E+03 -0.66954115152E+02  0.72434033525E+03  0.91968703645E+02 0.  0.
         23    2    4    4    0    0  0.73948019802E+02  0.33816395890E+03 -0.11237135161E+03  0.37519905502E+03  0.91235067241E+02 0.  0.
          2    1    3    3  502    0  0.46182894742E+03 -0.78014034629E+01 -0.19557114157E+03  0.50159237433E+03  0.00000000000E+00 0. -1.
         -1    1    3    3    0  502  0.10949336655E+03 -0.21568090392E+02 -0.85384459687E+02  0.14051507320E+03  0.00000000000E+00 0.  1.
         11    1    5    5    0    0 -0.12467883116E+03 -0.34523615141E+02  0.15007369952E+02  0.13023790575E+03  0.00000000000E+00 0. -1.
        -11    1    5    5    0    0 -0.52059150261E+03 -0.27427084990E+03 -0.81961485104E+02  0.59410242950E+03  0.00000000000E+00 0.  1.
          3    1    6    6  503    0  0.28884952801E+02  0.26418337298E+02  0.41243995182E+01  0.39360890682E+02  0.00000000000E+00 0. -1.
         -3    1    6    6    0  503  0.45063067001E+02  0.31174562160E+03 -0.11649575113E+03  0.33583816434E+03  0.00000000000E+00 0.  1.
<mgrwt>
<rscale>  0 0.16797247E+04</rscale>
<asrwt>0</asrwt>
<pdfrwt beam="1">  1        2 0.16937907E+00 0.16797247E+04</pdfrwt>
<pdfrwt beam="2">  1       -1 0.98566598E-01 0.16797247E+04</pdfrwt>
<totfact> 0.23300649E+01</totfact>
</mgrwt>
</event>
<event>
12    6  0.1494052E-007  0.1971564E+04  0.7818608E-02  0.8620032E-01
          2   -1    0    0  501    0  0.00000000000E+00  0.00000000000E+00  0.74191921036E+03  0.74191921036E+03  0.00000000000E+00 0. -1.
         -1   -1    0    0    0  501 -0.00000000000E+00 -0.00000000000E+00 -0.13097998978E+04  0.13097998978E+04  0.00000000000E+00 0.  1.
         24    2    1    2    0    0  0.32920740051E+03  0.37776761125E+03  0.39398580657E+03  0.64244315509E+03  0.80140570755E+02 0.  0.
        254    2    1    2    0    0 -0.32920740051E+03 -0.37776761125E+03 -0.96186649402E+03  0.14092759531E+04  0.89988092488E+03 0.  0.
         23    2    4    4    0    0 -0.22372152729E+03  0.12883945123E+03  0.41301391576E+02  0.27660634221E+03  0.90301371186E+02 0.  0.
         23    2    4    4    0    0 -0.10548587322E+03 -0.50660706248E+03 -0.10031678856E+04  0.11326696109E+04  0.93897047372E+02 0.  0.
          4    1    3    3  502    0  0.29685198521E+03  0.35619871761E+03  0.33597909624E+03  0.57260857544E+03  0.00000000000E+00 0. -1.
         -3    1    3    3    0  502  0.32355415301E+02  0.21568893635E+02  0.58006710327E+02  0.69834579650E+02  0.00000000000E+00 0.  1.
         11    1    5    5    0    0  0.48605269537E+00  0.21868104876E+02 -0.80962961732E+01  0.23323813364E+02  0.00000000000E+00 0.  1.
        -11    1    5    5    0    0 -0.22420757998E+03  0.10697134635E+03  0.49397687749E+02  0.25328252884E+03  0.00000000000E+00 0. -1.
          4    1    6    6  503    0  0.11492472919E+02 -0.14571638695E+03 -0.26008823589E+03  0.29834750344E+03  0.00000000000E+00 0.  1.
         -4    1    6    6    0  503 -0.11697834614E+03 -0.36089067553E+03 -0.74307964971E+03  0.83432210744E+03  0.00000000000E+00 0. -1.
<mgrwt>
<rscale>  0 0.19715635E+04</rscale>
<asrwt>0</asrwt>
<pdfrwt beam="1">  1        2 0.11414142E+00 0.19715635E+04</pdfrwt>
<pdfrwt beam="2">  1       -1 0.20150768E+00 0.19715635E+04</pdfrwt>
<totfact> 0.59393694E+00</totfact>
</mgrwt>
</event>
<event>
12    6  0.1494052E-007  0.1281712E+04  0.7818608E-02  0.9044194E-01
         -1   -1    0    0    0  501 -0.00000000000E+00  0.00000000000E+00  0.29199649589E+03  0.29199649589E+03  0.00000000000E+00 0.  1.
          2   -1    0    0  501    0  0.00000000000E+00 -0.00000000000E+00 -0.14065122042E+04  0.14065122042E+04  0.00000000000E+00 0. -1.
         24    2    1    2    0    0 -0.12797090825E+03  0.28207597219E+03 -0.36647372546E+03  0.48537955570E+03  0.73122596979E+02 0.  0.
        254    2    1    2    0    0  0.12797090825E+03 -0.28207597219E+03 -0.74804198281E+03  0.12131291444E+04  0.90342244016E+03 0.  0.
         23    2    4    4    0    0  0.44501974062E+03 -0.48347684586E+02 -0.13119443526E+03  0.47556138308E+03  0.92555826844E+02 0.  0.
         23    2    4    4    0    0 -0.31704883237E+03 -0.23372828761E+03 -0.61684754755E+03  0.73756776128E+03  0.91413516669E+02 0.  0.
          2    1    3    3  502    0 -0.11590727024E+03  0.23746276095E+03 -0.26676951404E+03  0.37548506196E+03  0.00000000000E+00 0. -1.
         -1    1    3    3    0  502 -0.12063638014E+02  0.44613211241E+02 -0.99704211415E+02  0.10989449374E+03  0.00000000000E+00 0.  1.
         11    1    5    5    0    0  0.12394838332E+03  0.25388513245E+02 -0.21412673573E+02  0.12832100733E+03  0.00000000000E+00 0.  1.
        -11    1    5    5    0    0  0.32107135730E+03 -0.73736197831E+02 -0.10978176169E+03  0.34724037575E+03  0.00000000000E+00 0. -1.
          2    1    6    6  503    0 -0.20532609409E+03 -0.96797488151E+02 -0.36717734228E+03  0.43168015858E+03  0.00000000000E+00 0. -1.
         -2    1    6    6    0  503 -0.11172273828E+03 -0.13693079946E+03 -0.24967020526E+03  0.30588760270E+03  0.00000000000E+00 0.  1.
<mgrwt>
<rscale>  0 0.12817123E+04</rscale>
<asrwt>0</asrwt>
<pdfrwt beam="1">  1        2 0.21638650E+00 0.12817123E+04</pdfrwt>
<pdfrwt beam="2">  1       -1 0.44922536E-01 0.12817123E+04</pdfrwt>
<totfact> 0.78810008E+01</totfact>
</mgrwt>
</event>
<event>
12    6  0.1494052E-007  0.1386787E+04  0.7818608E-02  0.8963439E-01
         -1   -1    0    0    0  501 -0.00000000000E+00  0.00000000000E+00  0.47295352655E+03  0.47295352655E+03  0.00000000000E+00 0.  1.
          2   -1    0    0  501    0  0.00000000000E+00 -0.00000000000E+00 -0.10165783276E+04  0.10165783276E+04  0.00000000000E+00 0. -1.
         24    2    1    2    0    0  0.30274997910E+03  0.20669790472E+03 -0.29800821271E+03  0.47931079895E+03  0.80922021011E+02 0.  0.
        254    2    1    2    0    0 -0.30274997910E+03 -0.20669790472E+03 -0.24561658835E+03  0.10102210552E+04  0.90875601690E+03 0.  0.
         23    2    4    4    0    0 -0.19007786082E+03  0.18953109837E+03  0.23658272316E+03  0.36936662995E+03  0.91698920374E+02 0.  0.
         23    2    4    4    0    0 -0.11267211828E+03 -0.39622900309E+03 -0.48219931152E+03  0.64085442526E+03  0.92118343515E+02 0.  0.
          4    1    3    3  502    0  0.22099936679E+03  0.13911330544E+03 -0.16384620924E+03  0.30828365535E+03  0.00000000000E+00 0. -1.
         -1    1    3    3    0  502  0.81750612308E+02  0.67584599282E+02 -0.13416200347E+03  0.17102714360E+03  0.00000000000E+00 0.  1.
         11    1    5    5    0    0 -0.31893729320E+02  0.60615233297E+02  0.19032872361E+02  0.71089146203E+02  0.00000000000E+00 0. -1.
        -11    1    5    5    0    0 -0.15818413150E+03  0.12891586507E+03  0.21754985080E+03  0.29827748374E+03  0.00000000000E+00 0.  1.
          3    1    6    6  503    0 -0.34657163999E+02 -0.13719201110E+03 -0.10288725354E+03  0.17495300474E+03  0.00000000000E+00 0. -1.
         -3    1    6    6    0  503 -0.78014954285E+02 -0.25903699199E+03 -0.37931205798E+03  0.46590142052E+03  0.00000000000E+00 0.  1.
<mgrwt>
<rscale>  0 0.13867867E+04</rscale>
<asrwt>0</asrwt>
<pdfrwt beam="1">  1        2 0.15639666E+00 0.13867867E+04</pdfrwt>
<pdfrwt beam="2">  1       -1 0.72762082E-01 0.13867867E+04</pdfrwt>
<totfact> 0.52038871E+01</totfact>
</mgrwt>
</event>
<event>
12    6  0.1494052E-007  0.2914144E+04  0.7818608E-02  0.8268682E-01
         -1   -1    0    0    0  501 -0.00000000000E+00  0.00000000000E+00  0.82602562584E+03  0.82602562584E+03  0.00000000000E+00 0.  1.
          2   -1    0    0  501    0  0.00000000000E+00 -0.00000000000E+00 -0.25702088069E+04  0.25702088069E+04  0.00000000000E+00 0. -1.
         24    2    1    2    0    0  0.48017823949E+03 -0.64118690507E+03 -0.19882026182E+04  0.21450802481E+04  0.82023355675E+02 0.  0.
        254    2    1    2    0    0 -0.48017823949E+03  0.64118690507E+03  0.24401943715E+03  0.12511541846E+04  0.92959642808E+03 0.  0.
         23    2    4    4    0    0  0.16281999316E+03  0.34122622096E+03  0.35560232002E+03  0.52735917618E+03  0.93322058821E+02 0.  0.
         23    2    4    4    0    0 -0.64299823265E+03  0.29996068411E+03 -0.11158288287E+03  0.72379500845E+03  0.89472539379E+02 0.  0.
          2    1    3    3  502    0  0.39226726813E+03 -0.55500014613E+03 -0.17400677188E+04  0.18680830918E+04  0.00000000000E+00 0. -1.
         -1    1    3    3    0  502  0.87910971361E+02 -0.86186758937E+02 -0.24813489942E+03  0.27699715632E+03  0.00000000000E+00 0.  1.
         11    1    5    5    0    0 -0.51200699422E+01  0.71064744461E+02  0.69097838966E+02  0.99251823012E+02  0.00000000000E+00 0.  1.
        -11    1    5    5    0    0  0.16794006310E+03  0.27016147650E+03  0.28650448105E+03  0.42810735317E+03  0.00000000000E+00 0. -1.
          1    1    6    6  503    0 -0.48473379423E+03  0.21671293992E+03 -0.44614152082E+02  0.53284310277E+03  0.00000000000E+00 0. -1.
         -1    1    6    6    0  503 -0.15826443841E+03  0.83247744187E+02 -0.66968730787E+02  0.19095190568E+03  0.00000000000E+00 0.  1.
<mgrwt>
<rscale>  0 0.29141437E+04</rscale>
<asrwt>0</asrwt>
<pdfrwt beam="1">  1        2 0.39541673E+00 0.29141437E+04</pdfrwt>
<pdfrwt beam="2">  1       -1 0.12708087E+00 0.29141437E+04</pdfrwt>
<totfact> 0.16665554E+00</totfact>
</mgrwt>
</event>
<event>
12    6  0.1494052E-007  0.2198560E+04  0.7818608E-02  0.8519028E-01
         -1   -1    0    0    0  501 -0.00000000000E+00  0.00000000000E+00  0.62476380381E+03  0.62476380381E+03  0.00000000000E+00 0.  1.
          2   -1    0    0  501    0  0.00000000000E+00 -0.00000000000E+00 -0.19341965621E+04  0.19341965621E+04  0.00000000000E+00 0. -1.
         24    2    1    2    0    0  0.16822110497E+03  0.79270416594E+03 -0.10233992706E+04  0.13078676677E+04  0.80582468763E+02 0.  0.
        254    2    1    2    0    0 -0.16822110497E+03 -0.79270416594E+03 -0.28603348778E+03  0.12510926983E+04  0.90925219205E+03 0.  0.
         23    2    4    4    0    0  0.25306382627E+03  0.19832550520E+02  0.42379138587E+02  0.27378473253E+03  0.93420865732E+02 0.  0.
         23    2    4    4    0    0 -0.42128493124E+03 -0.81253671646E+03 -0.32841262636E+03  0.97730796577E+03  0.97872866091E+02 0.  0.
          4    1    3    3  502    0  0.15008372732E+03  0.73783362199E+03 -0.97863868760E+03  0.12347701243E+04  0.00000000000E+00 0. -1.
         -3    1    3    3    0  502  0.18137377655E+02  0.54870543947E+02 -0.44760582960E+02  0.73097543380E+02  0.00000000000E+00 0.  1.
         11    1    5    5    0    0  0.32715850369E+02 -0.23318872570E+02  0.27645197061E+02  0.48768366837E+02  0.00000000000E+00 0. -1.
        -11    1    5    5    0    0  0.22034797590E+03  0.43151423091E+02  0.14733941526E+02  0.22501636569E+03  0.00000000000E+00 0.  1.
          2    1    6    6  503    0 -0.32444885683E+03 -0.58036779693E+03 -0.27838415792E+03  0.72082701101E+03  0.00000000000E+00 0. -1.
         -2    1    6    6    0  503 -0.96836074409E+02 -0.23216891952E+03 -0.50028468439E+02  0.25648095476E+03  0.00000000000E+00 0.  1.
<mgrwt>
<rscale>  0 0.21985595E+04</rscale>
<asrwt>0</asrwt>
<pdfrwt beam="1">  1        2 0.29756870E+00 0.21985595E+04</pdfrwt>
<pdfrwt beam="2">  1       -1 0.96117509E-01 0.21985595E+04</pdfrwt>
<totfact> 0.78877504E+00</totfact>
</mgrwt>
</event>
<event>
12    6  0.1494052E-007  0.2392973E+04  0.7818608E-02  0.8442139E-01
          2   -1    0    0  501    0  0.00000000000E+00  0.00000000000E+00  0.12515307707E+04  0.12515307707E+04  0.00000000000E+00 0. -1.
         -1   -1    0    0    0  501 -0.00000000000E+00 -0.00000000000E+00 -0.11438630948E+04  0.11438630948E+04  0.00000000000E+00 0.  1.
         24    2    1    2    0    0 -0.43199294760E+03 -0.44903331226E+03  0.86206051798E+03  0.10660159251E+04  0.70659702268E+02 0.  0.
        254    2    1    2    0    0  0.43199294760E+03  0.44903331226E+03 -0.75439284202E+03  0.13293779404E+04  0.89993795680E+03 0.  0.
         23    2    4    4    0    0  0.22668441365E+03  0.17708099360E+03 -0.89992732832E+03  0.94892661475E+03  0.88594707689E+02 0.  0.
         23    2    4    4    0    0  0.20530853395E+03  0.27195231866E+03  0.14553448630E+03  0.38045132567E+03  0.86332304288E+02 0.  0.
          4    1    3    3  502    0 -0.10995066438E+03 -0.85042387445E+02  0.22947280044E+03  0.26828925137E+03  0.00000000000E+00 0. -1.
         -3    1    3    3    0  502 -0.32204228323E+03 -0.36399092482E+03  0.63258771754E+03  0.79772667369E+03  0.00000000000E+00 0.  1.
         11    1    5    5    0    0  0.66870622967E+02  0.15134858269E+02 -0.28859592761E+03  0.29662830880E+03  0.00000000000E+00 0.  1.
        -11    1    5    5    0    0  0.15981379069E+03  0.16194613533E+03 -0.61133140072E+03  0.65229830595E+03  0.00000000000E+00 0. -1.
          1    1    6    6  503    0  0.77618950377E+02  0.42863750479E+02  0.46353829521E+02  0.10005338612E+03  0.00000000000E+00 0. -1.
         -1    1    6    6    0  503  0.12768958357E+03  0.22908856818E+03  0.99180656781E+02  0.28039793955E+03  0.00000000000E+00 0.  1.
<mgrwt>
<rscale>  0 0.23929729E+04</rscale>
<asrwt>0</asrwt>
<pdfrwt beam="1">  1        2 0.19254320E+00 0.23929729E+04</pdfrwt>
<pdfrwt beam="2">  1       -1 0.17597894E+00 0.23929729E+04</pdfrwt>
<totfact> 0.40275208E+00</totfact>
</mgrwt>
</event>
<event>
12    6  0.1494052E-007  0.1204422E+04  0.7818608E-02  0.9108995E-01
         -1   -1    0    0    0  501 -0.00000000000E+00  0.00000000000E+00  0.20509346577E+03  0.20509346577E+03  0.00000000000E+00 0.  1.
          2   -1    0    0  501    0  0.00000000000E+00 -0.00000000000E+00 -0.17682565159E+04  0.17682565159E+04  0.00000000000E+00 0. -1.
         24    2    1    2    0    0  0.23862926765E+03 -0.31440177905E+02 -0.17302222639E+03  0.30716568049E+03  0.80508709332E+02 0.  0.
        254    2    1    2    0    0 -0.23862926765E+03  0.31440177905E+02 -0.13901408238E+04  0.16661843012E+04  0.88642326431E+03 0.  0.
         23    2    4    4    0    0 -0.36038274794E+03 -0.10157377768E+03 -0.14111621977E+04  0.14628077962E+04  0.90746587335E+02 0.  0.
         23    2    4    4    0    0  0.12175348029E+03  0.13301395558E+03  0.21021373928E+02  0.20337650500E+03  0.91670509342E+02 0.  0.
          2    1    3    3  502    0  0.61628779581E+02  0.14341558585E+02 -0.80111174337E+02  0.10208617452E+03  0.00000000000E+00 0. -1.
         -1    1    3    3    0  502  0.17700048807E+03 -0.45781736490E+02 -0.92911052057E+02  0.20507950597E+03  0.00000000000E+00 0.  1.
         11    1    5    5    0    0 -0.14351080552E+03 -0.86540737939E+02 -0.64238601649E+03  0.66388586731E+03  0.00000000000E+00 0.  1.
        -11    1    5    5    0    0 -0.21687194241E+03 -0.15033039741E+02 -0.76877618119E+03  0.79892192888E+03  0.00000000000E+00 0. -1.
          1    1    6    6  503    0  0.45495183107E+02  0.38154620201E+02 -0.35501930187E+02  0.69180732690E+02  0.00000000000E+00 0. -1.
         -1    1    6    6    0  503  0.76258297179E+02  0.94859335384E+02  0.56523304115E+02  0.13419577231E+03  0.00000000000E+00 0.  1.
<mgrwt>
<rscale>  0 0.12044216E+04</rscale>
<asrwt>0</asrwt>
<pdfrwt beam="1">  1        2 0.27203946E+00 0.12044216E+04</pdfrwt>
<pdfrwt beam="2">  1       -1 0.31552842E-01 0.12044216E+04</pdfrwt>
<totfact> 0.94282687E+01</totfact>
</mgrwt>
</event>
<event>
12    6  0.1494052E-007  0.1675700E+04  0.7818608E-02  0.8775346E-01
         -1   -1    0    0    0  501 -0.00000000000E+00  0.00000000000E+00  0.12215827675E+04  0.12215827675E+04  0.00000000000E+00 0.  1.
          2   -1    0    0  501    0  0.00000000000E+00 -0.00000000000E+00 -0.57465801972E+03  0.57465801972E+03  0.00000000000E+00 0. -1.
         24    2    1    2    0    0 -0.56615218528E+03 -0.11046799857E+03  0.17029575991E+03  0.60672112743E+03  0.79864917337E+02 0.  0.
        254    2    1    2    0    0  0.56615218528E+03  0.11046799857E+03  0.47662898791E+03  0.11895196598E+04  0.92468932804E+03 0.  0.
         23    2    4    4    0    0 -0.32451323495E+02  0.40115270740E+03  0.12095037114E+03  0.42972198355E+03  0.89751923719E+02 0.  0.
         23    2    4    4    0    0  0.59860350878E+03 -0.29068470883E+03  0.35567861677E+03  0.75979767628E+03  0.89227068732E+02 0.  0.
          4    1    3    3  502    0 -0.30189662345E+03 -0.59176852166E+02  0.13223074113E+03  0.33485584956E+03  0.00000000000E+00 0. -1.
         -3    1    3    3    0  502 -0.26425556183E+03 -0.51291146409E+02  0.38065018773E+02  0.27186527787E+03  0.00000000000E+00 0.  1.
         11    1    5    5    0    0 -0.13753052503E+02  0.88809140546E+02 -0.10201484966E+02  0.90444901421E+02  0.00000000000E+00 0. -1.
        -11    1    5    5    0    0 -0.18698270992E+02  0.31234356686E+03  0.13115185611E+03  0.33927708212E+03  0.00000000000E+00 0.  1.
          3    1    6    6  503    0  0.25858783846E+02  0.27987501669E+01  0.36951338013E+01  0.26270967212E+02  0.00000000000E+00 0. -1.
         -3    1    6    6    0  503  0.57274472493E+03 -0.29348345899E+03  0.35198348297E+03  0.73352670907E+03  0.00000000000E+00 0.  1.
<mgrwt>
<rscale>  0 0.16756997E+04</rscale>
<asrwt>0</asrwt>
<pdfrwt beam="1">  1        2 0.88408927E-01 0.16756997E+04</pdfrwt>
<pdfrwt beam="2">  1       -1 0.18793581E+00 0.16756997E+04</pdfrwt>
<totfact> 0.10396495E+01</totfact>
</mgrwt>
</event>
<event>
12    6  0.1494052E-007  0.1887370E+04  0.7818608E-02  0.8661169E-01
          2   -1    0    0  501    0  0.00000000000E+00  0.00000000000E+00  0.17374649110E+04  0.17374649110E+04  0.00000000000E+00 0. -1.
         -1   -1    0    0    0  501 -0.00000000000E+00 -0.00000000000E+00 -0.51255220477E+03  0.51255220477E+03  0.00000000000E+00 0.  1.
         24    2    1    2    0    0 -0.30203143300E+03 -0.81351681618E+02 -0.31111918571E+03  0.44824789985E+03  0.79309201100E+02 0.  0.
        254    2    1    2    0    0  0.30203143300E+03  0.81351681618E+02  0.15360318920E+04  0.18017692160E+04  0.88833397537E+03 0.  0.
         23    2    4    4    0    0 -0.78360541093E+02 -0.32496981634E+03  0.37279283702E+03  0.50903330519E+03  0.91622325488E+02 0.  0.
         23    2    4    4    0    0  0.38039197409E+03  0.40632149796E+03  0.11632390549E+04  0.12927359108E+04  0.90806510632E+02 0.  0.
          4    1    3    3  502    0 -0.96723992810E+02 -0.17604037869E+02 -0.50879496897E+02  0.11069849204E+03  0.00000000000E+00 0. -1.
         -3    1    3    3    0  502 -0.20530744019E+03 -0.63747643748E+02 -0.26023968881E+03  0.33754940781E+03  0.00000000000E+00 0.  1.
         11    1    5    5    0    0 -0.54933534448E+01 -0.64765327990E+02  0.27495286707E+02  0.70574183898E+02  0.00000000000E+00 0. -1.
        -11    1    5    5    0    0 -0.72867187648E+02 -0.26020448835E+03  0.34529755031E+03  0.43845912129E+03  0.00000000000E+00 0.  1.
          3    1    6    6  503    0  0.28851607205E+03  0.30147952695E+03  0.95447375926E+03  0.10417060939E+04  0.00000000000E+00 0. -1.
         -3    1    6    6    0  503  0.91875902034E+02  0.10484197101E+03  0.20876529569E+03  0.25102981684E+03  0.00000000000E+00 0.  1.
<mgrwt>
<rscale>  0 0.18873701E+04</rscale>
<asrwt>0</asrwt>
<pdfrwt beam="1">  1        2 0.26730229E+00 0.18873701E+04</pdfrwt>
<pdfrwt beam="2">  1       -1 0.78854186E-01 0.18873701E+04</pdfrwt>
<totfact> 0.16054375E+01</totfact>
</mgrwt>
</event>
<event>
12    6  0.1494052E-007  0.1831868E+04  0.7818608E-02  0.8689534E-01
          2   -1    0    0  501    0  0.00000000000E+00  0.00000000000E+00  0.30773118006E+04  0.30773118006E+04  0.00000000000E+00 0. -1.
         -1   -1    0    0    0  501 -0.00000000000E+00 -0.00000000000E+00 -0.27261942944E+03  0.27261942944E+03  0.00000000000E+00 0.  1.
         24    2    1    2    0    0  0.73550005904E+02 -0.54474230733E+03  0.18348885212E+04  0.19170144971E+04  0.77297555275E+02 0.  0.
        254    2    1    2    0    0 -0.73550005904E+02  0.54474230733E+03  0.96980384996E+03  0.14329167329E+04  0.90032053814E+03 0.  0.
         23    2    4    4    0    0 -0.10927041979E+03  0.19411563436E+03  0.10346604733E+04  0.10622918815E+04  0.91218651529E+02 0.  0.
         23    2    4    4    0    0  0.35720413885E+02  0.35062667297E+03 -0.64856623348E+02  0.37062485142E+03  0.94558908272E+02 0.  0.
          2    1    3    3  502    0  0.54098432519E+02 -0.47170060770E+03  0.16582446354E+04  0.17248777854E+04  0.00000000000E+00 0. -1.
         -1    1    3    3    0  502  0.19451573384E+02 -0.73041699625E+02  0.17664388585E+03  0.19213671174E+03  0.00000000000E+00 0.  1.
         11    1    5    5    0    0 -0.11296245672E+03  0.18031338488E+03  0.81998764658E+03  0.84714412820E+03  0.00000000000E+00 0. -1.
        -11    1    5    5    0    0  0.36920369282E+01  0.13802249480E+02  0.21467282672E+03  0.21514775332E+03  0.00000000000E+00 0.  1.
          4    1    6    6  503    0  0.63553252269E+02  0.20429441173E+03 -0.57232802520E+02  0.22147418861E+03  0.00000000000E+00 0. -1.
         -4    1    6    6    0  503 -0.27832838384E+02  0.14633226124E+03 -0.76238208282E+01  0.14915066280E+03  0.00000000000E+00 0.  1.
<mgrwt>
<rscale>  0 0.18318679E+04</rscale>
<asrwt>0</asrwt>
<pdfrwt beam="1">  1        2 0.47343256E+00 0.18318679E+04</pdfrwt>
<pdfrwt beam="2">  1       -1 0.41941453E-01 0.18318679E+04</pdfrwt>
<totfact> 0.93488877E+00</totfact>
</mgrwt>
</event>
<event>
12    6  0.1494052E-007  0.1728568E+04  0.7818608E-02  0.8745237E-01
          2   -1    0    0  501    0  0.00000000000E+00  0.00000000000E+00  0.13903034980E+04  0.13903034980E+04  0.00000000000E+00 0. -1.
         -1   -1    0    0    0  501 -0.00000000000E+00 -0.00000000000E+00 -0.53728321098E+03  0.53728321098E+03  0.00000000000E+00 0.  1.
         24    2    1    2    0    0 -0.45602876603E+03 -0.23019240744E+03 -0.94037667972E+02  0.52554762853E+03  0.80040283375E+02 0.  0.
        254    2    1    2    0    0  0.45602876603E+03  0.23019240744E+03  0.94705795501E+03  0.14020390805E+04  0.89880144254E+03 0.  0.
         23    2    4    4    0    0  0.72488793989E+02  0.40899461356E+03  0.79405896173E+02  0.43280404867E+03  0.92102274791E+02 0.  0.
         23    2    4    4    0    0  0.38353997204E+03 -0.17880220612E+03  0.86765205883E+03  0.96923503179E+03  0.86737031237E+02 0.  0.
          2    1    3    3  502    0 -0.85204825443E+02 -0.79824753587E+02 -0.15798647349E+02  0.11781956893E+03  0.00000000000E+00 0. -1.
         -1    1    3    3    0  502 -0.37082394059E+03 -0.15036765386E+03 -0.78239020623E+02  0.40772805960E+03  0.00000000000E+00 0.  1.
         11    1    5    5    0    0  0.78020665924E+02  0.38697075504E+03  0.53519279190E+02  0.39836905354E+03  0.00000000000E+00 0. -1.
        -11    1    5    5    0    0 -0.55318719342E+01  0.22023858520E+02  0.25886616982E+02  0.34434995135E+02  0.00000000000E+00 0.  1.
          1    1    6    6  503    0  0.31138089174E+03 -0.17914028063E+03  0.70309183685E+03  0.78954887812E+03  0.00000000000E+00 0. -1.
         -1    1    6    6    0  503  0.72159080302E+02  0.33807451328E+00  0.16456022198E+03  0.17968615368E+03  0.00000000000E+00 0.  1.
<mgrwt>
<rscale>  0 0.17285679E+04</rscale>
<asrwt>0</asrwt>
<pdfrwt beam="1">  1        2 0.21389284E+00 0.17285679E+04</pdfrwt>
<pdfrwt beam="2">  1       -1 0.82658956E-01 0.17285679E+04</pdfrwt>
<totfact> 0.23067223E+01</totfact>
</mgrwt>
</event>
<event>
12    6  0.1494052E-007  0.1838139E+04  0.7818608E-02  0.8686276E-01
         -1   -1    0    0    0  501 -0.00000000000E+00  0.00000000000E+00  0.67824262209E+03  0.67824262209E+03  0.00000000000E+00 0.  1.
          2   -1    0    0  501    0  0.00000000000E+00 -0.00000000000E+00 -0.12454084628E+04  0.12454084628E+04  0.00000000000E+00 0. -1.
         24    2    1    2    0    0  0.24783372727E+03 -0.40916860399E+03  0.31131007710E+03  0.57669748846E+03  0.82616743003E+02 0.  0.
        254    2    1    2    0    0 -0.24783372727E+03  0.40916860399E+03 -0.87847591785E+03  0.13469535965E+04  0.90206626694E+03 0.  0.
         23    2    4    4    0    0 -0.47184552504E+02 -0.20437784728E+03  0.28469440496E+02  0.23013367437E+03  0.90301232466E+02 0.  0.
         23    2    4    4    0    0 -0.20064917476E+03  0.61354645127E+03 -0.90694535835E+03  0.11168199221E+04  0.89652195623E+02 0.  0.
          4    1    3    3  502    0  0.62789183105E+02 -0.12986455516E+03  0.53129550433E+02  0.15372063404E+03  0.00000000000E+00 0. -1.
         -3    1    3    3    0  502  0.18504454416E+03 -0.27930404883E+03  0.25818052667E+03  0.42297685441E+03  0.00000000000E+00 0.  1.
         11    1    5    5    0    0  0.13707078247E+01 -0.15577284500E+03  0.39106256048E+02  0.16061244455E+03  0.00000000000E+00 0.  1.
        -11    1    5    5    0    0 -0.48555260329E+02 -0.48605002275E+02 -0.10636815552E+02  0.69521229828E+02  0.00000000000E+00 0. -1.
          1    1    6    6  503    0 -0.77999277632E+01  0.13535395274E+03 -0.17105040306E+03  0.21826537010E+03  0.00000000000E+00 0. -1.
         -1    1    6    6    0  503 -0.19284924700E+03  0.47819249853E+03 -0.73589495529E+03  0.89855455201E+03  0.00000000000E+00 0.  1.
<mgrwt>
<rscale>  0 0.18381394E+04</rscale>
<asrwt>0</asrwt>
<pdfrwt beam="1">  1        2 0.19160130E+00 0.18381394E+04</pdfrwt>
<pdfrwt beam="2">  1       -1 0.10434502E+00 0.18381394E+04</pdfrwt>
<totfact> 0.16500526E+01</totfact>
</mgrwt>
</event>
<event>
12    6  0.1494052E-007  0.1288192E+04  0.7818608E-02  0.9038982E-01
         -1   -1    0    0    0  501 -0.00000000000E+00  0.00000000000E+00  0.33009438859E+03  0.33009438859E+03  0.00000000000E+00 0.  1.
          2   -1    0    0  501    0  0.00000000000E+00 -0.00000000000E+00 -0.12567903421E+04  0.12567903421E+04  0.00000000000E+00 0. -1.
         24    2    1    2    0    0 -0.14357014901E+03  0.28013856732E+03 -0.18597283032E+03  0.37391209147E+03  0.78322116580E+02 0.  0.
        254    2    1    2    0    0  0.14357014901E+03 -0.28013856732E+03 -0.74072312321E+03  0.12129726392E+04  0.90749207913E+03 0.  0.
         23    2    4    4    0    0  0.38503241393E+03  0.11574183214E+03 -0.58008674335E+03  0.71179895838E+03  0.92255058701E+02 0.  0.
         23    2    4    4    0    0 -0.24146226493E+03 -0.39588039946E+03 -0.16063637986E+03  0.50117368085E+03  0.10171379347E+03 0.  0.
          2    1    3    3  502    0 -0.13727157425E+02  0.87518232707E+02 -0.76783825426E+02  0.11723323656E+03  0.00000000000E+00 0. -1.
         -1    1    3    3    0  502 -0.12984299158E+03  0.19262033461E+03 -0.10918900489E+03  0.25667885491E+03  0.00000000000E+00 0.  1.
         11    1    5    5    0    0  0.29965093109E+03  0.12873589503E+03 -0.45956183254E+03  0.56352523378E+03  0.00000000000E+00 0. -1.
        -11    1    5    5    0    0  0.85381482844E+02 -0.12994062893E+02 -0.12052491081E+03  0.14827372460E+03  0.00000000000E+00 0.  1.
          3    1    6    6  503    0 -0.19144233122E+03 -0.37365245671E+03 -0.14616533089E+03  0.44455666517E+03  0.00000000000E+00 0. -1.
         -3    1    6    6    0  503 -0.50019933703E+02 -0.22227942749E+02 -0.14471048968E+02  0.56617015682E+02  0.00000000000E+00 0.  1.
<mgrwt>
<rscale>  0 0.12881917E+04</rscale>
<asrwt>0</asrwt>
<pdfrwt beam="1">  1        2 0.19335236E+00 0.12881917E+04</pdfrwt>
<pdfrwt beam="2">  1       -1 0.50783752E-01 0.12881917E+04</pdfrwt>
<totfact> 0.76342561E+01</totfact>
</mgrwt>
</event>
<event>
12    6  0.1494052E-007  0.2053939E+04  0.7818608E-02  0.8581809E-01
         -1   -1    0    0    0  501 -0.00000000000E+00  0.00000000000E+00  0.88248716754E+03  0.88248716754E+03  0.00000000000E+00 0.  1.
          2   -1    0    0  501    0  0.00000000000E+00 -0.00000000000E+00 -0.11951068762E+04  0.11951068762E+04  0.00000000000E+00 0. -1.
         24    2    1    2    0    0 -0.67882457825E+03  0.47096856714E+03  0.63239619365E+02  0.83222764194E+03  0.77391209327E+02 0.  0.
        254    2    1    2    0    0  0.67882457825E+03 -0.47096856714E+03 -0.37585932808E+03  0.12453664018E+04  0.85267405324E+03 0.  0.
         23    2    4    4    0    0  0.68162239723E+03 -0.32576200047E+03  0.74888671222E+02  0.76449295786E+03  0.90062179584E+02 0.  0.
         23    2    4    4    0    0 -0.27978189798E+01 -0.14520656667E+03 -0.45074799930E+03  0.48087344398E+03  0.83502906902E+02 0.  0.
          2    1    3    3  502    0 -0.56664635385E+02  0.65728272354E+02  0.15866078355E+02  0.88220287533E+02  0.00000000000E+00 0. -1.
         -3    1    3    3    0  502 -0.62215994287E+03  0.40524029478E+03  0.47373541010E+02  0.74400735440E+03  0.00000000000E+00 0.  1.
         11    1    5    5    0    0  0.74546490976E+02 -0.22902986076E+02 -0.17153377950E+02  0.79849636587E+02  0.00000000000E+00 0.  1.
        -11    1    5    5    0    0  0.60707590625E+03 -0.30285901439E+03  0.92042049172E+02  0.68464332128E+03  0.00000000000E+00 0. -1.
          3    1    6    6  503    0 -0.12459155990E+02 -0.75013724455E+02 -0.34703194176E+03  0.35526533468E+03  0.00000000000E+00 0. -1.
         -3    1    6    6    0  503  0.96613370102E+01 -0.70192842211E+02 -0.10371605753E+03  0.12560810930E+03  0.00000000000E+00 0.  1.
<mgrwt>
<rscale>  0 0.20539391E+04</rscale>
<asrwt>0</asrwt>
<pdfrwt beam="1">  1        2 0.18386260E+00 0.20539391E+04</pdfrwt>
<pdfrwt beam="2">  1       -1 0.13576726E+00 0.20539391E+04</pdfrwt>
<totfact> 0.91306472E+00</totfact>
</mgrwt>
</event>
<event>
12    6  0.1494052E-007  0.1272119E+04  0.7818608E-02  0.9051972E-01
          2   -1    0    0  501    0  0.00000000000E+00  0.00000000000E+00  0.11343160787E+04  0.11343160787E+04  0.00000000000E+00 0. -1.
         -1   -1    0    0    0  501 -0.00000000000E+00 -0.00000000000E+00 -0.35666563334E+03  0.35666563334E+03  0.00000000000E+00 0.  1.
         24    2    1    2    0    0 -0.96759303278E+02  0.13511118707E+03  0.53552347537E+03  0.56635560854E+03  0.79723817087E+02 0.  0.
        254    2    1    2    0    0  0.96759303278E+02 -0.13511118707E+03  0.24212696997E+03  0.92462610348E+03  0.87675000200E+03 0.  0.
         23    2    4    4    0    0 -0.21280446349E+03  0.23238142785E+03 -0.82077406928E+02  0.33780601580E+03  0.89940735443E+02 0.  0.
         23    2    4    4    0    0  0.30956376677E+03 -0.36749261492E+03  0.32420437690E+03  0.58682008768E+03  0.91481088674E+02 0.  0.
          4    1    3    3  502    0 -0.90633862335E+02  0.14594201958E+03  0.50335406566E+03  0.53186359670E+03  0.00000000000E+00 0. -1.
         -3    1    3    3    0  502 -0.61254409429E+01 -0.10830832509E+02  0.32169409718E+02  0.34492011846E+02  0.00000000000E+00 0.  1.
         11    1    5    5    0    0 -0.18894310114E+03  0.17311142582E+03 -0.93729310969E+02  0.27285938677E+03  0.00000000000E+00 0.  1.
        -11    1    5    5    0    0 -0.23861362358E+02  0.59270002033E+02  0.11651904041E+02  0.64946629030E+02  0.00000000000E+00 0. -1.
          4    1    6    6  503    0  0.62335482123E+02 -0.10711369887E+03  0.44499812966E+02  0.13167873849E+03  0.00000000000E+00 0. -1.
         -4    1    6    6    0  503  0.24722828465E+03 -0.26037891605E+03  0.27970456394E+03  0.45514134919E+03  0.00000000000E+00 0.  1.
<mgrwt>
<rscale>  0 0.12721188E+04</rscale>
<asrwt>0</asrwt>
<pdfrwt beam="1">  1        2 0.17451016E+00 0.12721188E+04</pdfrwt>
<pdfrwt beam="2">  1       -1 0.54871636E-01 0.12721188E+04</pdfrwt>
<totfact> 0.77990969E+01</totfact>
</mgrwt>
</event>
<event>
12    6  0.1494052E-007  0.1714503E+04  0.7818608E-02  0.8753136E-01
          2   -1    0    0  501    0  0.00000000000E+00  0.00000000000E+00  0.15059926170E+04  0.15059926170E+04  0.00000000000E+00 0. -1.
         -1   -1    0    0    0  501 -0.00000000000E+00 -0.00000000000E+00 -0.48797065520E+03  0.48797065520E+03  0.00000000000E+00 0.  1.
         24    2    1    2    0    0 -0.23268828789E+03 -0.40596521849E+03  0.84493110350E+03  0.96916473211E+03  0.80125591132E+02 0.  0.
        254    2    1    2    0    0  0.23268828789E+03  0.40596521849E+03  0.17309085828E+03  0.10247985401E+04  0.89515362066E+03 0.  0.
         23    2    4    4    0    0 -0.17954554173E+03  0.37155188243E+03 -0.19428543960E+03  0.46371657640E+03  0.83659000035E+02 0.  0.
         23    2    4    4    0    0  0.41223382962E+03  0.34413336057E+02  0.36737629788E+03  0.56108196369E+03  0.93416367653E+02 0.  0.
          4    1    3    3  502    0 -0.17575407459E+03 -0.27169472552E+03  0.64585963029E+03  0.72238644828E+03  0.00000000000E+00 0. -1.
         -3    1    3    3    0  502 -0.56934213303E+02 -0.13427049297E+03  0.19907147321E+03  0.24677828383E+03  0.00000000000E+00 0.  1.
         11    1    5    5    0    0 -0.11632026406E+03  0.15108745606E+03 -0.72140374644E+02  0.20386774356E+03  0.00000000000E+00 0. -1.
        -11    1    5    5    0    0 -0.63225277669E+02  0.22046442637E+03 -0.12214506496E+03  0.25984883283E+03  0.00000000000E+00 0.  1.
          4    1    6    6  503    0  0.35084752254E+03  0.34566979315E+02  0.26241968180E+03  0.43949169449E+03  0.00000000000E+00 0. -1.
         -4    1    6    6    0  503  0.61386307081E+02 -0.15364325781E+00  0.10495661608E+03  0.12159026919E+03  0.00000000000E+00 0.  1.
<mgrwt>
<rscale>  0 0.17145031E+04</rscale>
<asrwt>0</asrwt>
<pdfrwt beam="1">  1        2 0.23169117E+00 0.17145031E+04</pdfrwt>
<pdfrwt beam="2">  1       -1 0.75072409E-01 0.17145031E+04</pdfrwt>
<totfact> 0.24339694E+01</totfact>
</mgrwt>
</event>
<event>
12    6  0.1494052E-007  0.2246722E+04  0.7818608E-02  0.8499229E-01
          2   -1    0    0  501    0  0.00000000000E+00  0.00000000000E+00  0.16047714914E+04  0.16047714914E+04  0.00000000000E+00 0. -1.
         -1   -1    0    0    0  501 -0.00000000000E+00 -0.00000000000E+00 -0.78636735618E+03  0.78636735618E+03  0.00000000000E+00 0.  1.
         24    2    1    2    0    0 -0.30197834079E+03 -0.38951560711E+03 -0.51111796696E+03  0.71447759324E+03  0.79519359911E+02 0.  0.
        254    2    1    2    0    0  0.30197834079E+03  0.38951560711E+03  0.13295221021E+04  0.16766612543E+04  0.89479082198E+03 0.  0.
         23    2    4    4    0    0  0.44255955345E+03 -0.11367263386E+03  0.81046500034E+03  0.93466027932E+03  0.89195823430E+02 0.  0.
         23    2    4    4    0    0 -0.14058121265E+03  0.50318824097E+03  0.51905710179E+03  0.74200097498E+03  0.90463742726E+02 0.  0.
          4    1    3    3  502    0 -0.42928933127E+02 -0.10557306517E+03 -0.99254667705E+02  0.15112926404E+03  0.00000000000E+00 0. -1.
         -3    1    3    3    0  502 -0.25904940766E+03 -0.28394254194E+03 -0.41186329925E+03  0.56334832920E+03  0.00000000000E+00 0.  1.
         11    1    5    5    0    0  0.27048547221E+02 -0.30992488422E+02  0.87990659674E+02  0.97131428668E+02  0.00000000000E+00 0.  1.
        -11    1    5    5    0    0  0.41551100622E+03 -0.82680145440E+02  0.72247434067E+03  0.83752885065E+03  0.00000000000E+00 0. -1.
          2    1    6    6  503    0 -0.12221675803E+03  0.40878798241E+03  0.37075651611E+03  0.56524768443E+03  0.00000000000E+00 0. -1.
         -2    1    6    6    0  503 -0.18364454628E+02  0.94400258557E+02  0.14830058567E+03  0.17675329055E+03  0.00000000000E+00 0.  1.
<mgrwt>
<rscale>  0 0.22467220E+04</rscale>
<asrwt>0</asrwt>
<pdfrwt beam="1">  1        2 0.24688792E+00 0.22467220E+04</pdfrwt>
<pdfrwt beam="2">  1       -1 0.12097959E+00 0.22467220E+04</pdfrwt>
<totfact> 0.69752339E+00</totfact>
</mgrwt>
</event>
<event>
12    6  0.1494052E-007  0.1676500E+04  0.7818608E-02  0.8774882E-01
         -1   -1    0    0    0  501 -0.00000000000E+00  0.00000000000E+00  0.22793209383E+03  0.22793209383E+03  0.00000000000E+00 0.  1.
          2   -1    0    0  501    0  0.00000000000E+00 -0.00000000000E+00 -0.30827749740E+04  0.30827749740E+04  0.00000000000E+00 0. -1.
         24    2    1    2    0    0 -0.35106347606E+03  0.45079944442E+03 -0.67497793853E+03  0.88797724849E+03  0.80266263238E+02 0.  0.
        254    2    1    2    0    0  0.35106347606E+03 -0.45079944442E+03 -0.21798649416E+04  0.24227298193E+04  0.88957456710E+03 0.  0.
         23    2    4    4    0    0  0.60205014277E+02 -0.38996692425E+03 -0.26962793610E+03  0.48739837218E+03  0.95703205411E+02 0.  0.
         23    2    4    4    0    0  0.29085846178E+03 -0.60832520164E+02 -0.19102370055E+04  0.19353314471E+04  0.90571257830E+02 0.  0.
          4    1    3    3  502    0 -0.43099938050E+02  0.30699396049E+02 -0.92486604737E+02  0.10655435061E+03  0.00000000000E+00 0. -1.
         -3    1    3    3    0  502 -0.30796353801E+03  0.42010004837E+03 -0.58249133380E+03  0.78142289788E+03  0.00000000000E+00 0.  1.
         11    1    5    5    0    0  0.45558562610E+01 -0.13513092330E+03 -0.14518390654E+03  0.19839226037E+03  0.00000000000E+00 0. -1.
        -11    1    5    5    0    0  0.55649158016E+02 -0.25483600095E+03 -0.12444402956E+03  0.28900611181E+03  0.00000000000E+00 0.  1.
          1    1    6    6  503    0  0.76261348125E+01  0.62503267010E+01 -0.15517375906E+02  0.18385142672E+02  0.00000000000E+00 0. -1.
         -1    1    6    6    0  503  0.28323232697E+03 -0.67082846865E+02 -0.18947196296E+04  0.19169463044E+04  0.00000000000E+00 0.  1.
<mgrwt>
<rscale>  0 0.16765003E+04</rscale>
<asrwt>0</asrwt>
<pdfrwt beam="1">  1        2 0.47427307E+00 0.16765003E+04</pdfrwt>
<pdfrwt beam="2">  1       -1 0.35066476E-01 0.16765003E+04</pdfrwt>
<totfact> 0.13031573E+01</totfact>
</mgrwt>
</event>
<event>
12    6  0.1494052E-007  0.2278499E+04  0.7818608E-02  0.8486447E-01
          2   -1    0    0  501    0  0.00000000000E+00  0.00000000000E+00  0.33218840226E+04  0.33218840226E+04  0.00000000000E+00 0. -1.
         -1   -1    0    0    0  501 -0.00000000000E+00 -0.00000000000E+00 -0.39070877608E+03  0.39070877608E+03  0.00000000000E+00 0.  1.
         24    2    1    2    0    0  0.53873809658E+03  0.51471926547E+03  0.22005397337E+04  0.23246832726E+04  0.81256009261E+02 0.  0.
        254    2    1    2    0    0 -0.53873809658E+03 -0.51471926547E+03  0.73063551276E+03  0.13879095261E+04  0.91503548627E+03 0.  0.
         23    2    4    4    0    0  0.60977381385E+02 -0.50400549699E+03  0.55230130601E+03  0.75581735848E+03  0.92105182933E+02 0.  0.
         23    2    4    4    0    0 -0.59971547796E+03 -0.10713768478E+02  0.17833420674E+03  0.63209216759E+03  0.89241132307E+02 0.  0.
          4    1    3    3  502    0  0.45766053909E+03  0.42760753674E+03  0.19310452105E+04  0.20300829982E+04  0.00000000000E+00 0. -1.
         -3    1    3    3    0  502  0.81077557490E+02  0.87111728732E+02  0.26949452320E+03  0.29460027435E+03  0.00000000000E+00 0.  1.
         11    1    5    5    0    0 -0.74480486547E+01 -0.77456645029E+02  0.13115562017E+03  0.15250180980E+03  0.00000000000E+00 0. -1.
        -11    1    5    5    0    0  0.68425430040E+02 -0.42654885197E+03  0.42114568584E+03  0.60331554869E+03  0.00000000000E+00 0.  1.
          4    1    6    6  503    0 -0.41260039750E+02  0.18381185115E+02  0.27547933461E+02  0.52906970092E+02  0.00000000000E+00 0. -1.
         -4    1    6    6    0  503 -0.55845543821E+03 -0.29094953593E+02  0.15078627328E+03  0.57918519750E+03  0.00000000000E+00 0.  1.
<mgrwt>
<rscale>  0 0.22784988E+04</rscale>
<asrwt>0</asrwt>
<pdfrwt beam="1">  1        2 0.51105906E+00 0.22784988E+04</pdfrwt>
<pdfrwt beam="2">  1       -1 0.60109045E-01 0.22784988E+04</pdfrwt>
<totfact> 0.31290930E+00</totfact>
</mgrwt>
</event>
<event>
12    6  0.1494052E-007  0.2221372E+04  0.7818608E-02  0.8509585E-01
         -1   -1    0    0    0  501 -0.00000000000E+00  0.00000000000E+00  0.40425387017E+03  0.40425387017E+03  0.00000000000E+00 0.  1.
          2   -1    0    0  501    0  0.00000000000E+00 -0.00000000000E+00 -0.30516047294E+04  0.30516047294E+04  0.00000000000E+00 0. -1.
         24    2    1    2    0    0 -0.52794428603E+03 -0.74608389063E+03 -0.13641783140E+04  0.16440270489E+04  0.80474369849E+02 0.  0.
        254    2    1    2    0    0  0.52794428603E+03  0.74608389063E+03 -0.12831725452E+04  0.18118315507E+04  0.89489409770E+03 0.  0.
         23    2    4    4    0    0  0.58310681433E+03  0.65210761400E+03 -0.13828439900E+04  0.16385458200E+04  0.85539502163E+02 0.  0.
         23    2    4    4    0    0 -0.55162528300E+02  0.93976276625E+02  0.99671444777E+02  0.17328573063E+03  0.90659265606E+02 0.  0.
          4    1    3    3  502    0 -0.48927086504E+03 -0.69408541075E+03 -0.13002783667E+04  0.15530178260E+04  0.00000000000E+00 0. -1.
         -3    1    3    3    0  502 -0.38673420992E+02 -0.51998479881E+02 -0.63899947225E+02  0.91009222921E+02  0.00000000000E+00 0.  1.
         11    1    5    5    0    0  0.21653053767E+02  0.73507004686E+01 -0.51193735547E+02  0.56068583843E+02  0.00000000000E+00 0.  1.
        -11    1    5    5    0    0  0.56145376057E+03  0.64475691353E+03 -0.13316502545E+04  0.15824772362E+04  0.00000000000E+00 0. -1.
          2    1    6    6  503    0 -0.20974341512E+02  0.72929722944E+02  0.10828185426E+03  0.13222566866E+03  0.00000000000E+00 0. -1.
         -2    1    6    6    0  503 -0.34188186788E+02  0.21046553681E+02 -0.86104094840E+01  0.41060061972E+02  0.00000000000E+00 0.  1.
<mgrwt>
<rscale>  0 0.22213717E+04</rscale>
<asrwt>0</asrwt>
<pdfrwt beam="1">  1        2 0.46947767E+00 0.22213717E+04</pdfrwt>
<pdfrwt beam="2">  1       -1 0.62192901E-01 0.22213717E+04</pdfrwt>
<totfact> 0.44037309E+00</totfact>
</mgrwt>
</event>
<event>
12    6  0.1494052E-007  0.1290641E+04  0.7818608E-02  0.9037020E-01
          2   -1    0    0  501    0  0.00000000000E+00  0.00000000000E+00  0.15982909004E+04  0.15982909004E+04  0.00000000000E+00 0. -1.
         -1   -1    0    0    0  501 -0.00000000000E+00 -0.00000000000E+00 -0.26055226107E+03  0.26055226107E+03  0.00000000000E+00 0.  1.
         24    2    1    2    0    0 -0.27994010165E+03  0.11166327980E+03  0.51989927763E+03  0.60601038634E+03  0.78218801428E+02 0.  0.
        254    2    1    2    0    0  0.27994010165E+03 -0.11166327980E+03  0.81783936173E+03  0.12528327752E+04  0.89994088271E+03 0.  0.
         23    2    4    4    0    0 -0.42416892450E+02 -0.36161406389E+03  0.73632298539E+03  0.82676431447E+03  0.93828401403E+02 0.  0.
         23    2    4    4    0    0  0.32235699410E+03  0.24995078409E+03  0.81516376338E+02  0.42606846069E+03  0.92195376623E+02 0.  0.
          4    1    3    3  502    0 -0.96559889310E+02  0.33338037056E+02  0.25301184857E+03  0.27285569896E+03  0.00000000000E+00 0. -1.
         -3    1    3    3    0  502 -0.18338021234E+03  0.78325242744E+02  0.26688742907E+03  0.33315468738E+03  0.00000000000E+00 0.  1.
         11    1    5    5    0    0 -0.44914265180E+02 -0.36144509009E+03  0.68874901890E+03  0.77912454422E+03  0.00000000000E+00 0. -1.
        -11    1    5    5    0    0  0.24973727302E+01 -0.16897379949E+00  0.47573966489E+02  0.47639770257E+02  0.00000000000E+00 0.  1.
          2    1    6    6  503    0  0.23155957970E+03  0.19334659885E+03  0.99330680773E+02  0.31759932364E+03  0.00000000000E+00 0. -1.
         -2    1    6    6    0  503  0.90797414405E+02  0.56604185242E+02 -0.17814304435E+02  0.10846913705E+03  0.00000000000E+00 0.  1.
<mgrwt>
<rscale>  0 0.12906406E+04</rscale>
<asrwt>0</asrwt>
<pdfrwt beam="1">  1        2 0.24589090E+00 0.12906406E+04</pdfrwt>
<pdfrwt beam="2">  1       -1 0.40084964E-01 0.12906406E+04</pdfrwt>
<totfact> 0.75758704E+01</totfact>
</mgrwt>
</event>
<event>
12    6  0.1494052E-007  0.3202110E+04  0.7818608E-02  0.8188260E-01
          2   -1    0    0  501    0  0.00000000000E+00  0.00000000000E+00  0.12313443906E+04  0.12313443906E+04  0.00000000000E+00 0. -1.
         -1   -1    0    0    0  501 -0.00000000000E+00 -0.00000000000E+00 -0.20817712311E+04  0.20817712311E+04  0.00000000000E+00 0.  1.
         24    2    1    2    0    0  0.12362928593E+04 -0.21320626464E+03 -0.11932912899E+04  0.17333012959E+04  0.80699036211E+02 0.  0.
        254    2    1    2    0    0 -0.12362928593E+04  0.21320626464E+03  0.34286444937E+03  0.15798143258E+04  0.89687252613E+03 0.  0.
         23    2    4    4    0    0 -0.20017718842E+03  0.53496458156E+02  0.46864454768E+03  0.52018252786E+03  0.89606765469E+02 0.  0.
         23    2    4    4    0    0 -0.10361156709E+04  0.15970980649E+03 -0.12578009831E+03  0.10596317979E+04  0.89196459327E+02 0.  0.
          4    1    3    3  502    0  0.29818726525E+03 -0.83770147197E+02 -0.31341141413E+03  0.44063567403E+03  0.00000000000E+00 0. -1.
         -1    1    3    3    0  502  0.93810559403E+03 -0.12943611745E+03 -0.87987987577E+03  0.12926656218E+04  0.00000000000E+00 0.  1.
         11    1    5    5    0    0  0.19302777569E+00  0.12936476204E+02  0.80097359160E+02  0.81135544743E+02  0.00000000000E+00 0. -1.
        -11    1    5    5    0    0 -0.20037021620E+03  0.40559981953E+02  0.38854718852E+03  0.43904698311E+03  0.00000000000E+00 0.  1.
          3    1    6    6  503    0 -0.81510238068E+03  0.15261850143E+03 -0.12407638921E+03  0.83849821010E+03  0.00000000000E+00 0. -1.
         -3    1    6    6    0  503 -0.22101329018E+03  0.70913050579E+01 -0.17037090985E+01  0.22113358784E+03  0.00000000000E+00 0.  1.
<mgrwt>
<rscale>  0 0.32021101E+04</rscale>
<asrwt>0</asrwt>
<pdfrwt beam="1">  1        2 0.18943760E+00 0.32021101E+04</pdfrwt>
<pdfrwt beam="2">  1       -1 0.32027250E+00 0.32021101E+04</pdfrwt>
<totfact> 0.42403742E-01</totfact>
</mgrwt>
</event>
<event>
12    6  0.1494052E-007  0.2257677E+04  0.7818608E-02  0.8494798E-01
         -1   -1    0    0    0  501 -0.00000000000E+00  0.00000000000E+00  0.12911672162E+04  0.12911672162E+04  0.00000000000E+00 0.  1.
          2   -1    0    0  501    0  0.00000000000E+00 -0.00000000000E+00 -0.98691801343E+03  0.98691801343E+03  0.00000000000E+00 0. -1.
         24    2    1    2    0    0  0.87513007805E+03  0.33623448297E+03  0.21470892083E+03  0.96534322311E+03  0.82953822568E+02 0.  0.
        254    2    1    2    0    0 -0.87513007805E+03 -0.33623448297E+03  0.89540281898E+02  0.13127420065E+04  0.91453148248E+03 0.  0.
         23    2    4    4    0    0 -0.23802390339E+03 -0.42710173175E+03  0.35506528264E+03  0.61080060382E+03  0.89077240885E+02 0.  0.
         23    2    4    4    0    0 -0.63710617466E+03  0.90867248783E+02 -0.26552500075E+03  0.70194140266E+03  0.89761194552E+02 0.  0.
          2    1    3    3  502    0  0.82345964372E+03  0.30854980341E+03  0.22004404832E+03  0.90648119077E+03  0.00000000000E+00 0. -1.
         -1    1    3    3    0  502  0.51670434323E+02  0.27684679559E+02 -0.53351274858E+01  0.58862032336E+02  0.00000000000E+00 0.  1.
         11    1    5    5    0    0 -0.56135804723E+02 -0.38930443510E+02  0.47455449304E+02  0.83179490696E+02  0.00000000000E+00 0.  1.
        -11    1    5    5    0    0 -0.18188809866E+03 -0.38817128824E+03  0.30760983334E+03  0.52762111313E+03  0.00000000000E+00 0. -1.
          3    1    6    6  503    0 -0.58327273332E+03  0.65413869521E+02 -0.21931115536E+03  0.62656479204E+03  0.00000000000E+00 0. -1.
         -3    1    6    6    0  503 -0.53833441341E+02  0.25453379262E+02 -0.46213845381E+02  0.75376610612E+02  0.00000000000E+00 0.  1.
<mgrwt>
<rscale>  0 0.22576768E+04</rscale>
<asrwt>0</asrwt>
<pdfrwt beam="1">  1        2 0.15183354E+00 0.22576768E+04</pdfrwt>
<pdfrwt beam="2">  1       -1 0.19864111E+00 0.22576768E+04</pdfrwt>
<totfact> 0.40978849E+00</totfact>
</mgrwt>
</event>
<event>
12    6  0.1494052E-007  0.1324582E+04  0.7818608E-02  0.9010296E-01
          2   -1    0    0  501    0  0.00000000000E+00  0.00000000000E+00  0.11963142790E+04  0.11963142790E+04  0.00000000000E+00 0. -1.
         -1   -1    0    0    0  501 -0.00000000000E+00 -0.00000000000E+00 -0.36665050557E+03  0.36665050557E+03  0.00000000000E+00 0.  1.
         24    2    1    2    0    0  0.23513766908E+03  0.22592213286E+03  0.95817869830E+02  0.34917850579E+03  0.80087646975E+02 0.  0.
        254    2    1    2    0    0 -0.23513766908E+03 -0.22592213286E+03  0.73384590357E+03  0.12137862787E+04  0.91017404202E+03 0.  0.
         23    2    4    4    0    0 -0.12031270716E+03  0.58060247301E+02 -0.18218670412E+03  0.24342578974E+03  0.90653075694E+02 0.  0.
         23    2    4    4    0    0 -0.11482496192E+03 -0.28398238016E+03  0.91603260769E+03  0.97036048901E+03  0.93021374740E+02 0.  0.
          2    1    3    3  502    0  0.56989019787E+02  0.40994317000E+02 -0.11018515893E+02  0.71061171500E+02  0.00000000000E+00 0. -1.
         -1    1    3    3    0  502  0.17814864929E+03  0.18492781586E+03  0.10683638572E+03  0.27811733429E+03  0.00000000000E+00 0.  1.
         11    1    5    5    0    0 -0.47589238713E+02 -0.19130241091E+02 -0.86623137023E+02  0.10066910963E+03  0.00000000000E+00 0. -1.
        -11    1    5    5    0    0 -0.72723468447E+02  0.77190488392E+02 -0.95563567099E+02  0.14275668012E+03  0.00000000000E+00 0.  1.
          3    1    6    6  503    0  0.11470704301E+02 -0.72744822471E+01  0.70144572047E+02  0.71447576144E+02  0.00000000000E+00 0. -1.
         -3    1    6    6    0  503 -0.12629566622E+03 -0.27670789791E+03  0.84588803564E+03  0.89891291286E+03  0.00000000000E+00 0.  1.
<mgrwt>
<rscale>  0 0.13245818E+04</rscale>
<asrwt>0</asrwt>
<pdfrwt beam="1">  1        2 0.18404835E+00 0.13245818E+04</pdfrwt>
<pdfrwt beam="2">  1       -1 0.56407771E-01 0.13245818E+04</pdfrwt>
<totfact> 0.67544893E+01</totfact>
</mgrwt>
</event>
<event>
12    6  0.1494052E-007  0.2324213E+04  0.7818608E-02  0.8468435E-01
         -1   -1    0    0    0  501 -0.00000000000E+00  0.00000000000E+00  0.85922070220E+03  0.85922070220E+03  0.00000000000E+00 0.  1.
          2   -1    0    0  501    0  0.00000000000E+00 -0.00000000000E+00 -0.15717630516E+04  0.15717630516E+04  0.00000000000E+00 0. -1.
         24    2    1    2    0    0  0.85084017436E+03 -0.38220556264E+03 -0.34216066717E+03  0.99660188159E+03  0.78302578626E+02 0.  0.
        254    2    1    2    0    0 -0.85084017436E+03  0.38220556264E+03 -0.37038168223E+03  0.14343818722E+04  0.10248212870E+04 0.  0.
         23    2    4    4    0    0 -0.46489109464E+03 -0.20904591469E+03 -0.48960795287E+03  0.71268371221E+03  0.91532517759E+02 0.  0.
         23    2    4    4    0    0 -0.38594907972E+03  0.59125147733E+03  0.11922627064E+03  0.72169815999E+03  0.89990715847E+02 0.  0.
          4    1    3    3  502    0  0.33900668994E+02 -0.32870231629E+02 -0.22975123119E+02  0.52512510585E+02  0.00000000000E+00 0. -1.
         -3    1    3    3    0  502  0.81693950537E+03 -0.34933533101E+03 -0.31918554405E+03  0.94408937101E+03  0.00000000000E+00 0.  1.
         11    1    5    5    0    0 -0.33874376332E+03 -0.18294249494E+03 -0.32616717001E+03  0.50457934603E+03  0.00000000000E+00 0.  1.
        -11    1    5    5    0    0 -0.12614733133E+03 -0.26103419746E+02 -0.16344078286E+03  0.20810436618E+03  0.00000000000E+00 0. -1.
          1    1    6    6  503    0 -0.46013892825E+02  0.12347563984E+03  0.42083519729E+02  0.13832763498E+03  0.00000000000E+00 0. -1.
         -1    1    6    6    0  503 -0.33993518689E+03  0.46777583749E+03  0.77142750906E+02  0.58337052501E+03  0.00000000000E+00 0.  1.
<mgrwt>
<rscale>  0 0.23242129E+04</rscale>
<asrwt>0</asrwt>
<pdfrwt beam="1">  1        2 0.24180970E+00 0.23242129E+04</pdfrwt>
<pdfrwt beam="2">  1       -1 0.13218780E+00 0.23242129E+04</pdfrwt>
<totfact> 0.57942574E+00</totfact>
</mgrwt>
</event>
<event>
12    6  0.1494052E-007  0.1788345E+04  0.7818608E-02  0.8712522E-01
         -1   -1    0    0    0  501 -0.00000000000E+00  0.00000000000E+00  0.29151058664E+03  0.29151058664E+03  0.00000000000E+00 0.  1.
          2   -1    0    0  501    0  0.00000000000E+00 -0.00000000000E+00 -0.27427631531E+04  0.27427631531E+04  0.00000000000E+00 0. -1.
         24    2    1    2    0    0 -0.24348721751E+03 -0.21746162163E+03 -0.19330658467E+04  0.19620066566E+04  0.78428125838E+02 0.  0.
        254    2    1    2    0    0  0.24348721751E+03  0.21746162163E+03 -0.51818671979E+03  0.10722670832E+04  0.88014978219E+03 0.  0.
         23    2    4    4    0    0  0.36945693086E+03  0.45462395858E+03 -0.15679649425E+03  0.61333193423E+03  0.91703617473E+02 0.  0.
         23    2    4    4    0    0 -0.12596971335E+03 -0.23716233695E+03 -0.36139022555E+03  0.45893514893E+03  0.88905753791E+02 0.  0.
          4    1    3    3  502    0 -0.21097209030E+03 -0.20498249983E+03 -0.18224798749E+04  0.18460660721E+04  0.00000000000E+00 0. -1.
         -3    1    3    3    0  502 -0.32515127211E+02 -0.12479121798E+02 -0.11058597180E+03  0.11594058452E+03  0.00000000000E+00 0.  1.
         11    1    5    5    0    0  0.43383588305E+02  0.81850858031E+02 -0.54944756583E+02  0.10770619746E+03  0.00000000000E+00 0. -1.
        -11    1    5    5    0    0  0.32607334256E+03  0.37277310055E+03 -0.10185173767E+03  0.50562573677E+03  0.00000000000E+00 0.  1.
          2    1    6    6  503    0 -0.43631164023E+02 -0.86603104479E+02 -0.65951303223E+02  0.11727468003E+03  0.00000000000E+00 0. -1.
         -2    1    6    6    0  503 -0.82338549327E+02 -0.15055923247E+03 -0.29543892232E+03  0.34166046890E+03  0.00000000000E+00 0.  1.
<mgrwt>
<rscale>  0 0.17883450E+04</rscale>
<asrwt>0</asrwt>
<pdfrwt beam="1">  1        2 0.42196353E+00 0.17883450E+04</pdfrwt>
<pdfrwt beam="2">  1       -1 0.44847786E-01 0.17883450E+04</pdfrwt>
<totfact> 0.13306795E+01</totfact>
</mgrwt>
</event>
<event>
12    6  0.1494052E-007  0.1551920E+04  0.7818608E-02  0.8850642E-01
         -1   -1    0    0    0  501 -0.00000000000E+00  0.00000000000E+00  0.12891664957E+04  0.12891664957E+04  0.00000000000E+00 0.  1.
          2   -1    0    0  501    0  0.00000000000E+00 -0.00000000000E+00 -0.46705680624E+03  0.46705680624E+03  0.00000000000E+00 0. -1.
         24    2    1    2    0    0 -0.86409433862E+02  0.46052094262E+03  0.61036826500E+02  0.47984372173E+03  0.83536664085E+02 0.  0.
        254    2    1    2    0    0  0.86409433862E+02 -0.46052094262E+03  0.76107286293E+03  0.12763795802E+04  0.91124464398E+03 0.  0.
         23    2    4    4    0    0  0.44876097994E+03 -0.35774384868E+03  0.24383914135E+03  0.63016780234E+03  0.91032158426E+02 0.  0.
         23    2    4    4    0    0 -0.36235154608E+03 -0.10277709394E+03  0.51723372158E+03  0.64621177784E+03  0.90538196916E+02 0.  0.
          2    1    3    3  502    0 -0.52670238530E+02  0.27572351248E+03  0.77670940017E+02  0.29125656093E+03  0.00000000000E+00 0. -1.
         -1    1    3    3    0  502 -0.33739195332E+02  0.18479743014E+03 -0.16634113518E+02  0.18858716080E+03  0.00000000000E+00 0.  1.
         11    1    5    5    0    0  0.21404063123E+03 -0.14143969767E+03  0.66526761203E+02  0.26503658210E+03  0.00000000000E+00 0.  1.
        -11    1    5    5    0    0  0.23472034871E+03 -0.21630415101E+03  0.17731238015E+03  0.36513122024E+03  0.00000000000E+00 0. -1.
          1    1    6    6  503    0 -0.14396880417E+03  0.40598648790E+01  0.20333181184E+03  0.24917328265E+03  0.00000000000E+00 0. -1.
         -1    1    6    6    0  503 -0.21838274191E+03 -0.10683695882E+03  0.31390190974E+03  0.39703849520E+03  0.00000000000E+00 0.  1.
<mgrwt>
<rscale>  0 0.15519201E+04</rscale>
<asrwt>0</asrwt>
<pdfrwt beam="1">  1        2 0.71854894E-01 0.15519201E+04</pdfrwt>
<pdfrwt beam="2">  1       -1 0.19833331E+00 0.15519201E+04</pdfrwt>
<totfact> 0.11331855E+01</totfact>
</mgrwt>
</event>
<event>
12    6  0.1494052E-007  0.2165333E+04  0.7818608E-02  0.8532997E-01
         -1   -1    0    0    0  501 -0.00000000000E+00  0.00000000000E+00  0.11381501951E+04  0.11381501951E+04  0.00000000000E+00 0.  1.
          2   -1    0    0  501    0  0.00000000000E+00 -0.00000000000E+00 -0.10298873388E+04  0.10298873388E+04  0.00000000000E+00 0. -1.
         24    2    1    2    0    0  0.48939824259E+03 -0.73851990337E+03 -0.57325362204E+02  0.89140356673E+03  0.79948946838E+02 0.  0.
        254    2    1    2    0    0 -0.48939824259E+03  0.73851990337E+03  0.16558821850E+03  0.12766339672E+04  0.90413082046E+03 0.  0.
         23    2    4    4    0    0 -0.18127150477E+02  0.66995220207E+03 -0.15670584294E+03  0.69442116116E+03  0.92192631065E+02 0.  0.
         23    2    4    4    0    0 -0.47127109211E+03  0.68567701310E+02  0.32229406144E+03  0.58221280601E+03  0.91106078383E+02 0.  0.
          2    1    3    3  502    0  0.87116833560E+02 -0.85870038153E+02  0.30406531410E+01  0.12236115280E+03  0.00000000000E+00 0. -1.
         -1    1    3    3    0  502  0.40228140903E+03 -0.65264986522E+03 -0.60366015345E+02  0.76904241394E+03  0.00000000000E+00 0.  1.
         11    1    5    5    0    0 -0.76622826530E+01  0.65507797547E+03 -0.14040766569E+03  0.67000013217E+03  0.00000000000E+00 0.  1.
        -11    1    5    5    0    0 -0.10464867824E+02  0.14874226595E+02 -0.16298177254E+02  0.24421028995E+02  0.00000000000E+00 0. -1.
          2    1    6    6  503    0 -0.47309669473E+03  0.63522938457E+02  0.31101962476E+03  0.56972699889E+03  0.00000000000E+00 0.  1.
         -2    1    6    6    0  503  0.18256026157E+01  0.50447628525E+01  0.11274436674E+02  0.12485807121E+02  0.00000000000E+00 0. -1.
<mgrwt>
<rscale>  0 0.21653327E+04</rscale>
<asrwt>0</asrwt>
<pdfrwt beam="1">  1        2 0.15844421E+00 0.21653327E+04</pdfrwt>
<pdfrwt beam="2">  1       -1 0.17510003E+00 0.21653327E+04</pdfrwt>
<totfact> 0.56899693E+00</totfact>
</mgrwt>
</event>
<event>
12    6  0.1494052E-007  0.1353363E+04  0.7818608E-02  0.8988286E-01
          2   -1    0    0  501    0  0.00000000000E+00  0.00000000000E+00  0.11910435707E+04  0.11910435707E+04  0.00000000000E+00 0. -1.
         -1   -1    0    0    0  501 -0.00000000000E+00 -0.00000000000E+00 -0.38445092083E+03  0.38445092083E+03  0.00000000000E+00 0.  1.
         24    2    1    2    0    0 -0.28092309929E+03 -0.18720970834E+03  0.72939105914E+02  0.35450844219E+03  0.79942853326E+02 0.  0.
        254    2    1    2    0    0  0.28092309929E+03  0.18720970834E+03  0.73365354397E+03  0.12209860494E+04  0.91574786242E+03 0.  0.
         23    2    4    4    0    0  0.31053295651E+03  0.49308536163E+03  0.25016887898E+03  0.64074613770E+03  0.91691079341E+02 0.  0.
         23    2    4    4    0    0 -0.29609857216E+02 -0.30587565328E+03  0.48348466499E+03  0.58023991166E+03  0.92110123709E+02 0.  0.
          2    1    3    3  502    0 -0.13654750879E+03 -0.80723430770E+02 -0.54832459291E+01  0.15871849425E+03  0.00000000000E+00 0. -1.
         -1    1    3    3    0  502 -0.14437559050E+03 -0.10648627757E+03  0.78422351843E+02  0.19578994794E+03  0.00000000000E+00 0.  1.
         11    1    5    5    0    0  0.25043744679E+03  0.42265383530E+03  0.24242685889E+03  0.54783753172E+03  0.00000000000E+00 0. -1.
        -11    1    5    5    0    0  0.60095509719E+02  0.70431526322E+02  0.77420200897E+01  0.92908605971E+02  0.00000000000E+00 0.  1.
          3    1    6    6  503    0 -0.27804630650E+02 -0.29394073086E+03  0.40703761022E+03  0.50284576848E+03  0.00000000000E+00 0. -1.
         -3    1    6    6    0  503 -0.18052265665E+01 -0.11934922426E+02  0.76447054770E+02  0.77394143185E+02  0.00000000000E+00 0.  1.
<mgrwt>
<rscale>  0 0.13533629E+04</rscale>
<asrwt>0</asrwt>
<pdfrwt beam="1">  1        2 0.18323747E+00 0.13533629E+04</pdfrwt>
<pdfrwt beam="2">  1       -1 0.59146296E-01 0.13533629E+04</pdfrwt>
<totfact> 0.61866263E+01</totfact>
</mgrwt>
</event>
<event>
12    6  0.1494052E-007  0.2655611E+04  0.7818608E-02  0.8349553E-01
          2   -1    0    0  501    0  0.00000000000E+00  0.00000000000E+00  0.11766423964E+04  0.11766423964E+04  0.00000000000E+00 0. -1.
         -1   -1    0    0    0  501 -0.00000000000E+00 -0.00000000000E+00 -0.14983886418E+04  0.14983886418E+04  0.00000000000E+00 0.  1.
         24    2    1    2    0    0 -0.65766645362E+03 -0.90929182737E+03 -0.49935097077E+03  0.12307827001E+04  0.78344567461E+02 0.  0.
        254    2    1    2    0    0  0.65766645362E+03  0.90929182737E+03  0.17760472538E+03  0.14442483382E+04  0.89161260213E+03 0.  0.
         23    2    4    4    0    0  0.32243205861E+03  0.17476716614E+03  0.44994417364E+03  0.58731522971E+03  0.89350013300E+02 0.  0.
         23    2    4    4    0    0  0.33523439501E+03  0.73452466123E+03 -0.27233944825E+03  0.85693310846E+03  0.90868034817E+02 0.  0.
          4    1    3    3  502    0 -0.39542332005E+03 -0.49692151181E+03 -0.31016698124E+03  0.70674899872E+03  0.00000000000E+00 0. -1.
         -3    1    3    3    0  502 -0.26224313357E+03 -0.41237031556E+03 -0.18918398953E+03  0.52403370136E+03  0.00000000000E+00 0.  1.
         11    1    5    5    0    0  0.10032689239E+03  0.19721369121E+02  0.85810831519E+02  0.13348376884E+03  0.00000000000E+00 0.  1.
        -11    1    5    5    0    0  0.22210516622E+03  0.15504579702E+03  0.36413334212E+03  0.45383146087E+03  0.00000000000E+00 0. -1.
          1    1    6    6  503    0  0.29804656645E+03  0.63995817169E+03 -0.26834195456E+03  0.75523878467E+03  0.00000000000E+00 0. -1.
         -1    1    6    6    0  503  0.37187828553E+02  0.94566489533E+02 -0.39974936945E+01  0.10169432379E+03  0.00000000000E+00 0.  1.
<mgrwt>
<rscale>  0 0.26556111E+04</rscale>
<asrwt>0</asrwt>
<pdfrwt beam="1">  1        2 0.18102191E+00 0.26556111E+04</pdfrwt>
<pdfrwt beam="2">  1       -1 0.23052133E+00 0.26556111E+04</pdfrwt>
<totfact> 0.18381187E+00</totfact>
</mgrwt>
</event>
<event>
12    6  0.1494052E-007  0.3158498E+04  0.7818608E-02  0.8199864E-01
          2   -1    0    0  501    0  0.00000000000E+00  0.00000000000E+00  0.30834619456E+04  0.30834619456E+04  0.00000000000E+00 0. -1.
         -1   -1    0    0    0  501 -0.00000000000E+00 -0.00000000000E+00 -0.80884024413E+03  0.80884024413E+03  0.00000000000E+00 0.  1.
         24    2    1    2    0    0 -0.65342576653E+03  0.11825158306E+04  0.39138083603E+03  0.14088757651E+04  0.80268552662E+02 0.  0.
        254    2    1    2    0    0  0.65342576653E+03 -0.11825158306E+04  0.18832408654E+04  0.24834264247E+04  0.89190903542E+03 0.  0.
         23    2    4    4    0    0  0.70653999166E+03 -0.91941231481E+03  0.93021105066E+03  0.14890529372E+04  0.86419248874E+02 0.  0.
         23    2    4    4    0    0 -0.53114225133E+02 -0.26310351581E+03  0.95302981475E+03  0.99437348745E+03  0.92022952555E+02 0.  0.
          4    1    3    3  502    0 -0.84422126498E+01  0.29597406898E+02  0.19600178039E+02  0.36488963107E+02  0.00000000000E+00 0. -1.
         -3    1    3    3    0  502 -0.64498355388E+03  0.11529184237E+04  0.37178065799E+03  0.13723868020E+04  0.00000000000E+00 0.  1.
         11    1    5    5    0    0  0.35496987373E+03 -0.46134862371E+03  0.41163752117E+03  0.71294572913E+03  0.00000000000E+00 0. -1.
        -11    1    5    5    0    0  0.35157011793E+03 -0.45806369110E+03  0.51857352949E+03  0.77610720807E+03  0.00000000000E+00 0.  1.
          3    1    6    6  503    0 -0.43406122490E+02 -0.26680404825E+03  0.87918753748E+03  0.91980390176E+03  0.00000000000E+00 0. -1.
         -3    1    6    6    0  503 -0.97081026437E+01  0.37005324446E+01  0.73842277275E+02  0.74569585694E+02  0.00000000000E+00 0.  1.
<mgrwt>
<rscale>  0 0.31584984E+04</rscale>
<asrwt>0</asrwt>
<pdfrwt beam="1">  1        2 0.47437876E+00 0.31584984E+04</pdfrwt>
<pdfrwt beam="2">  1       -1 0.12443696E+00 0.31584984E+04</pdfrwt>
<totfact> 0.83686270E-01</totfact>
</mgrwt>
</event>
<event>
12    6  0.1494052E-007  0.1215651E+04  0.7818608E-02  0.9099267E-01
         -1   -1    0    0    0  501 -0.00000000000E+00  0.00000000000E+00  0.57118657696E+03  0.57118657696E+03  0.00000000000E+00 0.  1.
          2   -1    0    0  501    0  0.00000000000E+00 -0.00000000000E+00 -0.64681422821E+03  0.64681422821E+03  0.00000000000E+00 0. -1.
         24    2    1    2    0    0 -0.11893112640E+03  0.88139309727E+02  0.20672734027E+03  0.26661521850E+03  0.80214280364E+02 0.  0.
        254    2    1    2    0    0  0.11893112640E+03 -0.88139309727E+02 -0.28235499152E+03  0.95138558668E+03  0.89637996550E+03 0.  0.
         23    2    4    4    0    0  0.38901134629E+03  0.21457545382E+03 -0.28805355147E+03  0.53629934988E+03  0.85262484408E+02 0.  0.
         23    2    4    4    0    0 -0.27008021989E+03 -0.30271476355E+03  0.56985599428E+01  0.41508623680E+03  0.87661605892E+02 0.  0.
          4    1    3    3  502    0 -0.31195184810E+01  0.18171632176E+02 -0.12696072965E+01  0.18481112364E+02  0.00000000000E+00 0. -1.
         -3    1    3    3    0  502 -0.11581160792E+03  0.69967677550E+02  0.20799694757E+03  0.24813410614E+03  0.00000000000E+00 0.  1.
         11    1    5    5    0    0  0.47548523858E+02  0.51561002540E+01 -0.54931996097E+02  0.72835236569E+02  0.00000000000E+00 0.  1.
        -11    1    5    5    0    0  0.34146282243E+03  0.20941935357E+03 -0.23312155537E+03  0.46346411331E+03  0.00000000000E+00 0. -1.
          2    1    6    6  503    0 -0.55189660818E+02 -0.52201355500E+02  0.35184707989E+02  0.83718838104E+02  0.00000000000E+00 0.  1.
         -2    1    6    6    0  503 -0.21489055907E+03 -0.25051340805E+03 -0.29486148046E+02  0.33136739869E+03  0.00000000000E+00 0. -1.
<mgrwt>
<rscale>  0 0.12156506E+04</rscale>
<asrwt>0</asrwt>
<pdfrwt beam="1">  1        2 0.99509881E-01 0.12156506E+04</pdfrwt>
<pdfrwt beam="2">  1       -1 0.87874858E-01 0.12156506E+04</pdfrwt>
<totfact> 0.64901911E+01</totfact>
</mgrwt>
</event>
<event>
12    6  0.1494052E-007  0.2738879E+04  0.7818608E-02  0.8322499E-01
         -1   -1    0    0    0  501 -0.00000000000E+00  0.00000000000E+00  0.73187216151E+03  0.73187216151E+03  0.00000000000E+00 0.  1.
          2   -1    0    0  501    0  0.00000000000E+00 -0.00000000000E+00 -0.25624215035E+04  0.25624215035E+04  0.00000000000E+00 0. -1.
         24    2    1    2    0    0 -0.90408615162E+03 -0.29074528701E+03  0.10482308125E+03  0.95878520522E+03  0.79853615667E+02 0.  0.
        254    2    1    2    0    0  0.90408615162E+03  0.29074528701E+03 -0.19353724232E+04  0.23355084598E+04  0.89834779325E+03 0.  0.
         23    2    4    4    0    0  0.39887460197E+03 -0.28936357977E+03 -0.52062066304E+03  0.72260062956E+03  0.90959142837E+02 0.  0.
         23    2    4    4    0    0  0.50521154965E+03  0.58010886678E+03 -0.14147517602E+04  0.16129078302E+04  0.90466118561E+02 0.  0.
          2    1    3    3  502    0 -0.27528247654E+02  0.42076610113E+01 -0.12141674442E+01  0.27874415378E+02  0.00000000000E+00 0. -1.
         -1    1    3    3    0  502 -0.87655790396E+03 -0.29495294802E+03  0.10603724870E+03  0.93091078985E+03  0.00000000000E+00 0.  1.
         11    1    5    5    0    0  0.20077966117E+03 -0.14055817681E+03 -0.19363566031E+03  0.31235211277E+03  0.00000000000E+00 0. -1.
        -11    1    5    5    0    0  0.19809494080E+03 -0.14880540296E+03 -0.32698500273E+03  0.41024851679E+03  0.00000000000E+00 0.  1.
          3    1    6    6  503    0  0.16521208576E+03  0.14036972762E+03 -0.34745847552E+03  0.40954375337E+03  0.00000000000E+00 0. -1.
         -3    1    6    6    0  503  0.33999946389E+03  0.43973913915E+03 -0.10672932846E+04  0.12033640768E+04  0.00000000000E+00 0.  1.
<mgrwt>
<rscale>  0 0.27388793E+04</rscale>
<asrwt>0</asrwt>
<pdfrwt beam="1">  1        2 0.39421869E+00 0.27388793E+04</pdfrwt>
<pdfrwt beam="2">  1       -1 0.11259572E+00 0.27388793E+04</pdfrwt>
<totfact> 0.22976299E+00</totfact>
</mgrwt>
</event>
<event>
12    6  0.1494052E-007  0.1361124E+04  0.7818608E-02  0.8982450E-01
         -1   -1    0    0    0  501 -0.00000000000E+00  0.00000000000E+00  0.24238810255E+03  0.24238810255E+03  0.00000000000E+00 0.  1.
          2   -1    0    0  501    0  0.00000000000E+00 -0.00000000000E+00 -0.19108379366E+04  0.19108379366E+04  0.00000000000E+00 0. -1.
         24    2    1    2    0    0 -0.12209314870E+03 -0.35310747103E+03 -0.68207150174E+03  0.78206839504E+03  0.82570079243E+02 0.  0.
        254    2    1    2    0    0  0.12209314870E+03  0.35310747103E+03 -0.98637833234E+03  0.13711576441E+04  0.87609328700E+03 0.  0.
         23    2    4    4    0    0  0.36562435753E+03  0.35680805877E+03 -0.98147629849E+03  0.11102525832E+04  0.91498155465E+02 0.  0.
         23    2    4    4    0    0 -0.24353120883E+03 -0.37005877436E+01 -0.49020338507E+01  0.26090506091E+03  0.93414543028E+02 0.  0.
          4    1    3    3  502    0 -0.88697059787E+02 -0.16652506617E+03 -0.39948675478E+03  0.44180021879E+03  0.00000000000E+00 0. -1.
         -3    1    3    3    0  502 -0.33396088913E+02 -0.18658240486E+03 -0.28258474696E+03  0.34026817625E+03  0.00000000000E+00 0.  1.
         11    1    5    5    0    0  0.34737945547E+03  0.34182720281E+03 -0.96613737717E+03  0.10820996970E+04  0.00000000000E+00 0. -1.
        -11    1    5    5    0    0  0.18244902063E+02  0.14980855961E+02 -0.15338921326E+02  0.28152886248E+02  0.00000000000E+00 0.  1.
          3    1    6    6  503    0 -0.16183283149E+03  0.18820490326E+02 -0.42222473137E+02  0.16830571423E+03  0.00000000000E+00 0. -1.
         -3    1    6    6    0  503 -0.81698377336E+02 -0.22521078069E+02  0.37320439286E+02  0.92599346679E+02  0.00000000000E+00 0.  1.
<mgrwt>
<rscale>  0 0.13611236E+04</rscale>
<asrwt>0</asrwt>
<pdfrwt beam="1">  1        2 0.29397506E+00 0.13611236E+04</pdfrwt>
<pdfrwt beam="2">  1       -1 0.37290478E-01 0.13611236E+04</pdfrwt>
<totfact> 0.57653606E+01</totfact>
</mgrwt>
</event>
<event>
12    6  0.1494052E-007  0.2021016E+04  0.7818608E-02  0.8596857E-01
          2   -1    0    0  501    0  0.00000000000E+00  0.00000000000E+00  0.12687624342E+04  0.12687624342E+04  0.00000000000E+00 0. -1.
         -1   -1    0    0    0  501 -0.00000000000E+00 -0.00000000000E+00 -0.80482108309E+03  0.80482108309E+03  0.00000000000E+00 0.  1.
         24    2    1    2    0    0 -0.40277088701E+03 -0.67597586339E+03  0.38101972617E+03  0.87685392747E+03  0.67298016856E+02 0.  0.
        254    2    1    2    0    0  0.40277088701E+03  0.67597586339E+03  0.82921624965E+02  0.11967295899E+04  0.89784072086E+03 0.  0.
         23    2    4    4    0    0 -0.11363378897E+03 -0.81704129983E+02  0.20773088351E+03  0.26687689880E+03  0.92102965745E+02 0.  0.
         23    2    4    4    0    0  0.51640467598E+03  0.75767999338E+03 -0.12480925855E+03  0.92985269105E+03  0.91081909819E+02 0.  0.
          4    1    3    3  502    0 -0.31865248015E+03 -0.53838026805E+03  0.27196596397E+03  0.68217168051E+03  0.00000000000E+00 0. -1.
         -3    1    3    3    0  502 -0.84118406861E+02 -0.13759559534E+03  0.10905376220E+03  0.19468224696E+03  0.00000000000E+00 0.  1.
         11    1    5    5    0    0 -0.15907875350E+02 -0.33192471836E+02  0.56701327687E+01  0.37241792255E+02  0.00000000000E+00 0.  1.
        -11    1    5    5    0    0 -0.97725913616E+02 -0.48511658147E+02  0.20206075075E+03  0.22963510655E+03  0.00000000000E+00 0. -1.
          2    1    6    6  503    0  0.80647882340E+02  0.16107866594E+03  0.25665171968E+01  0.18015827640E+03  0.00000000000E+00 0.  1.
         -2    1    6    6    0  503  0.43575679364E+03  0.59660132744E+03 -0.12737577575E+03  0.74969441465E+03  0.00000000000E+00 0. -1.
<mgrwt>
<rscale>  0 0.20210163E+04</rscale>
<asrwt>0</asrwt>
<pdfrwt beam="1">  1        2 0.19519422E+00 0.20210163E+04</pdfrwt>
<pdfrwt beam="2">  1       -1 0.12381863E+00 0.20210163E+04</pdfrwt>
<totfact> 0.10447244E+01</totfact>
</mgrwt>
</event>
<event>
12    6  0.1494052E-007  0.1730788E+04  0.7818608E-02  0.8743997E-01
          2   -1    0    0  501    0  0.00000000000E+00  0.00000000000E+00  0.18930776484E+04  0.18930776484E+04  0.00000000000E+00 0. -1.
         -1   -1    0    0    0  501 -0.00000000000E+00 -0.00000000000E+00 -0.39560256811E+03  0.39560256811E+03  0.00000000000E+00 0.  1.
         24    2    1    2    0    0 -0.19022709516E+03 -0.33898668359E+03  0.11645627376E+04  0.12299959570E+04  0.74735299383E+02 0.  0.
        254    2    1    2    0    0  0.19022709516E+03  0.33898668359E+03  0.33291234276E+03  0.10586842596E+04  0.92675963129E+03 0.  0.
         23    2    4    4    0    0  0.15778351108E+03  0.31019142133E+03 -0.26801858166E+03  0.44848759863E+03  0.90514152323E+02 0.  0.
         23    2    4    4    0    0  0.32443584082E+02  0.28795262258E+02  0.60093092442E+03  0.61019666097E+03  0.96644895706E+02 0.  0.
          2    1    3    3  502    0 -0.14489899985E+03 -0.25357089832E+03  0.96524775845E+03  0.10084627687E+04  0.00000000000E+00 0. -1.
         -1    1    3    3    0  502 -0.45328095313E+02 -0.85415785268E+02  0.19931497913E+03  0.22153318826E+03  0.00000000000E+00 0.  1.
         11    1    5    5    0    0  0.15230519843E+03  0.30868060560E+03 -0.27421151378E+03  0.44008242868E+03  0.00000000000E+00 0. -1.
        -11    1    5    5    0    0  0.54783126527E+01  0.15108157268E+01  0.61929321153E+01  0.84051699487E+01  0.00000000000E+00 0.  1.
          3    1    6    6  503    0  0.56627115627E+02 -0.11151225218E+02  0.28000258732E+03  0.28588884021E+03  0.00000000000E+00 0. -1.
         -3    1    6    6    0  503 -0.24183531545E+02  0.39946487476E+02  0.32092833710E+03  0.32430782077E+03  0.00000000000E+00 0.  1.
<mgrwt>
<rscale>  0 0.17307875E+04</rscale>
<asrwt>0</asrwt>
<pdfrwt beam="1">  1        2 0.29124271E+00 0.17307875E+04</pdfrwt>
<pdfrwt beam="2">  1       -1 0.60861935E-01 0.17307875E+04</pdfrwt>
<totfact> 0.22677295E+01</totfact>
</mgrwt>
</event>
<event>
12    6  0.1494052E-007  0.2388123E+04  0.7818608E-02  0.8443964E-01
          4   -1    0    0  501    0  0.00000000000E+00  0.00000000000E+00  0.10252911596E+04  0.10252911596E+04  0.00000000000E+00 0. -1.
         -3   -1    0    0    0  501 -0.00000000000E+00 -0.00000000000E+00 -0.13906123746E+04  0.13906123746E+04  0.00000000000E+00 0.  1.
         24    2    1    2    0    0  0.49655380277E+03 -0.18389346796E+03 -0.10396827805E+04  0.11700783619E+04  0.88094281555E+02 0.  0.
        254    2    1    2    0    0 -0.49655380277E+03  0.18389346796E+03  0.67436156543E+03  0.12458251723E+04  0.90384420803E+03 0.  0.
         23    2    4    4    0    0 -0.45480565690E+03  0.14343590048E+03 -0.71971381426E+02  0.49170639292E+03  0.95777105808E+02 0.  0.
         23    2    4    4    0    0 -0.41748145861E+02  0.40457567481E+02  0.74633294686E+03  0.75411877937E+03  0.91118293377E+02 0.  0.
          4    1    3    3  502    0  0.10733483199E+03 -0.72002642888E+02 -0.30303620499E+03  0.32944815719E+03  0.00000000000E+00 0. -1.
         -3    1    3    3    0  502  0.38921897078E+03 -0.11189082507E+03 -0.73664657546E+03  0.84063020472E+03  0.00000000000E+00 0.  1.
         11    1    5    5    0    0 -0.25182977644E+03  0.29268330882E+02 -0.38625199013E+02  0.25645034118E+03  0.00000000000E+00 0. -1.
        -11    1    5    5    0    0 -0.20297588047E+03  0.11416756960E+03 -0.33346182413E+02  0.23525605174E+03  0.00000000000E+00 0.  1.
          3    1    6    6  503    0  0.71298600296E+00  0.46162113892E+02  0.59641771497E+03  0.59820192229E+03  0.00000000000E+00 0. -1.
         -3    1    6    6    0  503 -0.42461131864E+02 -0.57045464107E+01  0.14991523189E+03  0.15591685708E+03  0.00000000000E+00 0.  1.
<mgrwt>
<rscale>  0 0.23881228E+04</rscale>
<asrwt>0</asrwt>
<pdfrwt beam="1">  1        4 0.15773710E+00 0.23881228E+04</pdfrwt>
<pdfrwt beam="2">  1       -3 0.21394036E+00 0.23881228E+04</pdfrwt>
<totfact> 0.64038730E-02</totfact>
</mgrwt>
</event>
<event>
12    6  0.1494052E-007  0.1510575E+04  0.7818608E-02  0.8877451E-01
         -1   -1    0    0    0  501 -0.00000000000E+00  0.00000000000E+00  0.23688269058E+03  0.23688269058E+03  0.00000000000E+00 0.  1.
          2   -1    0    0  501    0  0.00000000000E+00 -0.00000000000E+00 -0.24081936364E+04  0.24081936364E+04  0.00000000000E+00 0. -1.
         24    2    1    2    0    0 -0.25658226477E+03  0.16706722803E+02  0.82452288943E+01  0.26929878987E+03  0.79625882981E+02 0.  0.
        254    2    1    2    0    0  0.25658226477E+03 -0.16706722803E+02 -0.21795561748E+04  0.23757775372E+04  0.90980229390E+03 0.  0.
         23    2    4    4    0    0  0.38351950113E+03 -0.18437525449E+03 -0.20814384722E+04  0.21264469332E+04  0.91153738057E+02 0.  0.
         23    2    4    4    0    0 -0.12693723636E+03  0.16766853169E+03 -0.98117702513E+02  0.24933060392E+03  0.91174930824E+02 0.  0.
          2    1    3    3  502    0 -0.45879175270E+02 -0.10151457017E+01  0.32833850338E+02  0.56426863923E+02  0.00000000000E+00 0. -1.
         -1    1    3    3    0  502 -0.21070308950E+03  0.17721868505E+02 -0.24588621444E+02  0.21287192594E+03  0.00000000000E+00 0.  1.
         11    1    5    5    0    0  0.60834497925E+02 -0.18558728822E+02 -0.49409344765E+03  0.49817024958E+03  0.00000000000E+00 0. -1.
        -11    1    5    5    0    0  0.32268500321E+03 -0.16581652567E+03 -0.15873450246E+04  0.16282766837E+04  0.00000000000E+00 0.  1.
          3    1    6    6  503    0 -0.38599766423E+02  0.55677331316E+02  0.12416718749E+02  0.68877297384E+02  0.00000000000E+00 0. -1.
         -3    1    6    6    0  503 -0.88337469937E+02  0.11199120037E+03 -0.11053442126E+03  0.18045330653E+03  0.00000000000E+00 0.  1.
<mgrwt>
<rscale>  0 0.15105752E+04</rscale>
<asrwt>0</asrwt>
<pdfrwt beam="1">  1        2 0.37049135E+00 0.15105752E+04</pdfrwt>
<pdfrwt beam="2">  1       -1 0.36443489E-01 0.15105752E+04</pdfrwt>
<totfact> 0.31264839E+01</totfact>
</mgrwt>
</event>
<event>
12    6  0.1494052E-007  0.1134265E+04  0.7818608E-02  0.9172424E-01
          2   -1    0    0  501    0  0.00000000000E+00  0.00000000000E+00  0.94695834374E+03  0.94695834374E+03  0.00000000000E+00 0. -1.
         -1   -1    0    0    0  501 -0.00000000000E+00 -0.00000000000E+00 -0.33965516347E+03  0.33965516347E+03  0.00000000000E+00 0.  1.
         24    2    1    2    0    0 -0.18162784018E+03  0.39561529241E+02  0.86742752660E+02  0.22026437136E+03  0.80239025575E+02 0.  0.
        254    2    1    2    0    0  0.18162784018E+03 -0.39561529241E+02  0.52056042762E+03  0.10663491358E+04  0.91190105483E+03 0.  0.
         23    2    4    4    0    0  0.18044234751E+03 -0.33556658828E+03 -0.71432710985E+02  0.39824125542E+03  0.91263844861E+02 0.  0.
         23    2    4    4    0    0  0.11854926714E+01  0.29600505904E+03  0.59199313860E+03  0.66810788043E+03  0.91059669252E+02 0.  0.
          2    1    3    3  502    0 -0.75520437661E+02  0.23864938841E+02  0.80333245944E+02  0.11281091354E+03  0.00000000000E+00 0. -1.
         -1    1    3    3    0  502 -0.10610740252E+03  0.15696590400E+02  0.64095067158E+01  0.10745345781E+03  0.00000000000E+00 0.  1.
         11    1    5    5    0    0  0.16525524813E+03 -0.31721622914E+03 -0.89068188353E+02  0.36860354752E+03  0.00000000000E+00 0.  1.
        -11    1    5    5    0    0  0.15187099378E+02 -0.18350359140E+02  0.17635477368E+02  0.29637707908E+02  0.00000000000E+00 0. -1.
          1    1    6    6  503    0  0.13514333522E+02  0.28575987603E+00  0.31176032492E+02  0.33980345366E+02  0.00000000000E+00 0. -1.
         -1    1    6    6    0  503 -0.12328840850E+02  0.29571929916E+03  0.56081710611E+03  0.63412753506E+03  0.00000000000E+00 0.  1.
<mgrwt>
<rscale>  0 0.11342650E+04</rscale>
<asrwt>0</asrwt>
<pdfrwt beam="1">  1        2 0.14568590E+00 0.11342650E+04</pdfrwt>
<pdfrwt beam="2">  1       -1 0.52254641E-01 0.11342650E+04</pdfrwt>
<totfact> 0.11370109E+02</totfact>
</mgrwt>
</event>
<event>
12    6  0.1494052E-007  0.1309655E+04  0.7818608E-02  0.9021944E-01
          2   -1    0    0  501    0  0.00000000000E+00  0.00000000000E+00  0.18129894913E+04  0.18129894913E+04  0.00000000000E+00 0. -1.
         -1   -1    0    0    0  501 -0.00000000000E+00 -0.00000000000E+00 -0.23651474696E+03  0.23651474696E+03  0.00000000000E+00 0.  1.
         24    2    1    2    0    0 -0.79672049039E+02 -0.29708675751E+03  0.63561856504E+03  0.71080440429E+03  0.81386510195E+02 0.  0.
        254    2    1    2    0    0  0.79672049039E+02  0.29708675751E+03  0.94085617926E+03  0.13386998339E+04  0.90127616103E+03 0.  0.
         23    2    4    4    0    0  0.11769968550E+03 -0.18552826797E+03  0.78751388277E+03  0.82261431517E+03  0.90786793014E+02 0.  0.
         23    2    4    4    0    0 -0.38027636462E+02  0.48261502548E+03  0.15334229649E+03  0.51608551876E+03  0.92016513900E+02 0.  0.
          2    1    3    3  502    0 -0.83648385501E+02 -0.29558991474E+03  0.63622999572E+03  0.70651189484E+03  0.00000000000E+00 0. -1.
         -1    1    3    3    0  502  0.39763364617E+01 -0.14968427720E+01 -0.61143067419E+00  0.42925094537E+01  0.00000000000E+00 0.  1.
         11    1    5    5    0    0  0.10887378556E+03 -0.16146752080E+03  0.76184523221E+03  0.78634179547E+03  0.00000000000E+00 0. -1.
        -11    1    5    5    0    0  0.88258999438E+01 -0.24060747171E+02  0.25668650562E+02  0.36272519708E+02  0.00000000000E+00 0.  1.
          2    1    6    6  503    0 -0.30351130520E+02  0.43422287173E+03  0.16536408330E+03  0.46563502178E+03  0.00000000000E+00 0. -1.
         -2    1    6    6    0  503 -0.76765059420E+01  0.48392153747E+02 -0.12021786815E+02  0.50450496985E+02  0.00000000000E+00 0.  1.
<mgrwt>
<rscale>  0 0.13096545E+04</rscale>
<asrwt>0</asrwt>
<pdfrwt beam="1">  1        2 0.27892145E+00 0.13096545E+04</pdfrwt>
<pdfrwt beam="2">  1       -1 0.36386885E-01 0.13096545E+04</pdfrwt>
<totfact> 0.68531952E+01</totfact>
</mgrwt>
</event>
<event>
12    6  0.1494052E-007  0.1930336E+04  0.7818608E-02  0.8639902E-01
         -1   -1    0    0    0  501 -0.00000000000E+00  0.00000000000E+00  0.57544884073E+03  0.57544884073E+03  0.00000000000E+00 0.  1.
          2   -1    0    0  501    0  0.00000000000E+00 -0.00000000000E+00 -0.16188218432E+04  0.16188218432E+04  0.00000000000E+00 0. -1.
         24    2    1    2    0    0 -0.35951852862E+03 -0.33977402489E+03 -0.10475968727E+04  0.11612048500E+04  0.78978069661E+02 0.  0.
        254    2    1    2    0    0  0.35951852862E+03  0.33977402489E+03  0.42238702490E+01  0.10330658340E+04  0.90692183555E+03 0.  0.
         23    2    4    4    0    0  0.17945192019E+02  0.58582532012E+03  0.71111262396E+02  0.59727405660E+03  0.90366760705E+02 0.  0.
         23    2    4    4    0    0  0.34157333660E+03 -0.24605129523E+03 -0.66887392147E+02  0.43579177736E+03  0.90702623024E+02 0.  0.
          2    1    3    3  502    0 -0.28649649710E+03 -0.26908652430E+03 -0.75031052110E+03  0.84702637413E+03  0.00000000000E+00 0. -1.
         -1    1    3    3    0  502 -0.73022031522E+02 -0.70687500590E+02 -0.29728635164E+03  0.31417847586E+03  0.00000000000E+00 0.  1.
         11    1    5    5    0    0 -0.83276323444E+01  0.20111506983E+03  0.65332052569E+02  0.21162442644E+03  0.00000000000E+00 0. -1.
        -11    1    5    5    0    0  0.26272824363E+02  0.38471025028E+03  0.57792098264E+01  0.38564963016E+03  0.00000000000E+00 0.  1.
          2    1    6    6  503    0  0.30741253448E+03 -0.24225788406E+03 -0.42604972897E+02  0.39370868984E+03  0.00000000000E+00 0.  1.
         -2    1    6    6    0  503  0.34160802125E+02 -0.37934111687E+01 -0.24282419249E+02  0.42083087514E+02  0.00000000000E+00 0. -1.
<mgrwt>
<rscale>  0 0.19303359E+04</rscale>
<asrwt>0</asrwt>
<pdfrwt beam="1">  1        2 0.24904951E+00 0.19303359E+04</pdfrwt>
<pdfrwt beam="2">  1       -1 0.88530591E-01 0.19303359E+04</pdfrwt>
<totfact> 0.14510433E+01</totfact>
</mgrwt>
</event>
<event>
12    6  0.1494052E-007  0.1419987E+04  0.7818608E-02  0.8939477E-01
          2   -1    0    0  501    0  0.00000000000E+00  0.00000000000E+00  0.57156452718E+03  0.57156452718E+03  0.00000000000E+00 0. -1.
         -1   -1    0    0    0  501 -0.00000000000E+00 -0.00000000000E+00 -0.88194854630E+03  0.88194854630E+03  0.00000000000E+00 0.  1.
         24    2    1    2    0    0 -0.55810101608E+02 -0.38471344068E+03  0.95062470604E+02  0.40829457328E+03  0.80922100649E+02 0.  0.
        254    2    1    2    0    0  0.55810101608E+02  0.38471344068E+03 -0.40544648973E+03  0.10452185002E+04  0.88146222736E+03 0.  0.
         23    2    4    4    0    0 -0.28551649171E+02 -0.25192093733E+03  0.17065133646E+02  0.27103779140E+03  0.94291623411E+02 0.  0.
         23    2    4    4    0    0  0.84361750779E+02  0.63663437801E+03 -0.42251162337E+03  0.77418070880E+03  0.91757624969E+02 0.  0.
          2    1    3    3  502    0 -0.25842414862E+01 -0.26253054684E+03  0.47605506939E+02  0.26682438161E+03  0.00000000000E+00 0. -1.
         -1    1    3    3    0  502 -0.53225860122E+02 -0.12218289384E+03  0.47456963665E+02  0.14147019167E+03  0.00000000000E+00 0.  1.
         11    1    5    5    0    0 -0.10784054509E+02 -0.23824638033E+02 -0.27501227511E+02  0.37950319151E+02  0.00000000000E+00 0. -1.
        -11    1    5    5    0    0 -0.17767594662E+02 -0.22809629930E+03  0.44566361157E+02  0.23308747225E+03  0.00000000000E+00 0.  1.
          1    1    6    6  503    0  0.24796283190E+02  0.33191573819E+03 -0.16868628730E+03  0.37314605242E+03  0.00000000000E+00 0. -1.
         -1    1    6    6    0  503  0.59565467589E+02  0.30471863982E+03 -0.25382533608E+03  0.40103465638E+03  0.00000000000E+00 0.  1.
<mgrwt>
<rscale>  0 0.14199866E+04</rscale>
<asrwt>0</asrwt>
<pdfrwt beam="1">  1        2 0.87933004E-01 0.14199866E+04</pdfrwt>
<pdfrwt beam="2">  1       -1 0.13568439E+00 0.14199866E+04</pdfrwt>
<totfact> 0.26564747E+01</totfact>
</mgrwt>
</event>
<event>
12    6  0.1494052E-007  0.3364122E+04  0.7818608E-02  0.8146769E-01
          2   -1    0    0  501    0  0.00000000000E+00  0.00000000000E+00  0.25276545849E+04  0.25276545849E+04  0.00000000000E+00 0. -1.
         -1   -1    0    0    0  501 -0.00000000000E+00 -0.00000000000E+00 -0.11193496183E+04  0.11193496183E+04  0.00000000000E+00 0.  1.
         24    2    1    2    0    0  0.15007370762E+04  0.23919999206E+03  0.10143316295E+04  0.18286500899E+04  0.75260141239E+02 0.  0.
        254    2    1    2    0    0 -0.15007370762E+04 -0.23919999206E+03  0.39397333713E+03  0.18183541133E+04  0.91747930935E+03 0.  0.
         23    2    4    4    0    0 -0.77120419614E+03 -0.50710439682E+03  0.45582067789E+03  0.10334251426E+04  0.91017875244E+02 0.  0.
         23    2    4    4    0    0 -0.72953288001E+03  0.26790440476E+03 -0.61847340758E+02  0.78492897068E+03  0.91090078206E+02 0.  0.
          2    1    3    3  502    0  0.14596576865E+04  0.22693837201E+03  0.99824309411E+03  0.17828603034E+04  0.00000000000E+00 0. -1.
         -1    1    3    3    0  502  0.41079389612E+02  0.12261620056E+02  0.16088535356E+02  0.45789786494E+02  0.00000000000E+00 0.  1.
         11    1    5    5    0    0 -0.65622090705E+03 -0.46114424870E+03  0.41492261211E+03  0.90301753637E+03  0.00000000000E+00 0.  1.
        -11    1    5    5    0    0 -0.11498328909E+03 -0.45960148123E+02  0.40898065773E+02  0.13040760626E+03  0.00000000000E+00 0. -1.
          1    1    6    6  503    0 -0.72352208745E+02  0.24258660201E+02  0.21026157702E+02  0.79154431416E+02  0.00000000000E+00 0. -1.
         -1    1    6    6    0  503 -0.65718067127E+03  0.24364574456E+03 -0.82873498460E+02  0.70577453927E+03  0.00000000000E+00 0.  1.
<mgrwt>
<rscale>  0 0.33641220E+04</rscale>
<asrwt>0</asrwt>
<pdfrwt beam="1">  1        2 0.38886994E+00 0.33641220E+04</pdfrwt>
<pdfrwt beam="2">  1       -1 0.17220763E+00 0.33641220E+04</pdfrwt>
<totfact> 0.75069690E-01</totfact>
</mgrwt>
</event>
<event>
12    6  0.1494052E-007  0.1290303E+04  0.7818608E-02  0.9037291E-01
          2   -1    0    0  501    0  0.00000000000E+00  0.00000000000E+00  0.24096665259E+04  0.24096665259E+04  0.00000000000E+00 0. -1.
         -1   -1    0    0    0  501 -0.00000000000E+00 -0.00000000000E+00 -0.17272948258E+03  0.17272948258E+03  0.00000000000E+00 0.  1.
         24    2    1    2    0    0  0.28125875145E+03  0.96966062751E+02  0.33205179518E+03  0.45330586961E+03  0.81968982805E+02 0.  0.
        254    2    1    2    0    0 -0.28125875145E+03 -0.96966062751E+02  0.19048852481E+04  0.21290901389E+04  0.90328738964E+03 0.  0.
         23    2    4    4    0    0 -0.52401233084E+03  0.53979670495E+02  0.66692480534E+03  0.85481373703E+03  0.91733861447E+02 0.  0.
         23    2    4    4    0    0  0.24275357938E+03 -0.15094573325E+03  0.12379604428E+04  0.12742764018E+04  0.97572412512E+02 0.  0.
          4    1    3    3  502    0  0.91738714304E+02  0.67483264054E+02  0.15452121070E+03  0.19195516973E+03  0.00000000000E+00 0. -1.
         -3    1    3    3    0  502  0.18952003715E+03  0.29482798697E+02  0.17753058448E+03  0.26135069988E+03  0.00000000000E+00 0.  1.
         11    1    5    5    0    0 -0.62175871755E+02 -0.50954767780E+01  0.40775837600E+02  0.74528329137E+02  0.00000000000E+00 0. -1.
        -11    1    5    5    0    0 -0.46183645908E+03  0.59075147273E+02  0.62614896774E+03  0.78028540789E+03  0.00000000000E+00 0.  1.
          2    1    6    6  503    0 -0.72472250659E+01 -0.52744770554E+01  0.88706471851E+02  0.89158177009E+02  0.00000000000E+00 0. -1.
         -2    1    6    6    0  503  0.25000080445E+03 -0.14567125619E+03  0.11492539709E+04  0.11851182248E+04  0.00000000000E+00 0.  1.
<mgrwt>
<rscale>  0 0.12903030E+04</rscale>
<asrwt>0</asrwt>
<pdfrwt beam="1">  1        2 0.37071790E+00 0.12903030E+04</pdfrwt>
<pdfrwt beam="2">  1       -1 0.26573768E-01 0.12903030E+04</pdfrwt>
<totfact> 0.55503344E+01</totfact>
</mgrwt>
</event>
<event>
12    6  0.1494052E-007  0.1645036E+04  0.7818608E-02  0.8793349E-01
          2   -1    0    0  501    0  0.00000000000E+00  0.00000000000E+00  0.10404422184E+04  0.10404422184E+04  0.00000000000E+00 0. -1.
         -1   -1    0    0    0  501 -0.00000000000E+00 -0.00000000000E+00 -0.65023854273E+03  0.65023854273E+03  0.00000000000E+00 0.  1.
         24    2    1    2    0    0 -0.39676403606E+03  0.41776002064E+03  0.52164551530E+02  0.58410579118E+03  0.80705016549E+02 0.  0.
        254    2    1    2    0    0  0.39676403606E+03 -0.41776002064E+03  0.33803912415E+03  0.11065749700E+04  0.88220892057E+03 0.  0.
         23    2    4    4    0    0  0.14786296529E+03 -0.65374245090E+03  0.11351271447E+03  0.68649242161E+03  0.95624578314E+02 0.  0.
         23    2    4    4    0    0  0.24890107077E+03  0.23598243026E+03  0.22452640968E+03  0.42008254834E+03  0.91748506032E+02 0.  0.
          2    1    3    3  502    0 -0.14000841552E+03  0.18591613444E+03  0.50532812241E+02  0.23816114413E+03  0.00000000000E+00 0. -1.
         -1    1    3    3    0  502 -0.25675562054E+03  0.23184388620E+03  0.16317392890E+01  0.34594464704E+03  0.00000000000E+00 0.  1.
         11    1    5    5    0    0  0.13652850938E+03 -0.64248193804E+03  0.12251090770E+03  0.66815566830E+03  0.00000000000E+00 0. -1.
        -11    1    5    5    0    0  0.11334455912E+02 -0.11260512860E+02 -0.89981932286E+01  0.18336753313E+02  0.00000000000E+00 0.  1.
          2    1    6    6  503    0  0.18405054526E+03  0.21257272716E+03  0.15050577519E+03  0.31892594111E+03  0.00000000000E+00 0. -1.
         -2    1    6    6    0  503  0.64850525503E+02  0.23409703095E+02  0.74020634492E+02  0.10115660724E+03  0.00000000000E+00 0.  1.
<mgrwt>
<rscale>  0 0.16450357E+04</rscale>
<asrwt>0</asrwt>
<pdfrwt beam="1">  1        2 0.16006803E+00 0.16450357E+04</pdfrwt>
<pdfrwt beam="2">  1       -1 0.10003670E+00 0.16450357E+04</pdfrwt>
<totfact> 0.24646987E+01</totfact>
</mgrwt>
</event>
<event>
12    6  0.1494052E-007  0.2170043E+04  0.7818608E-02  0.8531001E-01
         -1   -1    0    0    0  501 -0.00000000000E+00  0.00000000000E+00  0.45329083962E+03  0.45329083962E+03  0.00000000000E+00 0.  1.
          2   -1    0    0  501    0  0.00000000000E+00 -0.00000000000E+00 -0.25971665737E+04  0.25971665737E+04  0.00000000000E+00 0. -1.
         24    2    1    2    0    0  0.72814572252E+03  0.52753265513E+03 -0.99435941171E+03  0.13423203802E+04  0.67723467587E+02 0.  0.
        254    2    1    2    0    0 -0.72814572252E+03 -0.52753265513E+03 -0.11495163224E+04  0.17081370331E+04  0.88761334657E+03 0.  0.
         23    2    4    4    0    0  0.10515191478E+03  0.64694833986E+02 -0.42419250697E+03  0.45141893290E+03  0.92722291185E+02 0.  0.
         23    2    4    4    0    0 -0.83329763730E+03 -0.59222748911E+03 -0.72532381540E+03  0.12567181002E+04  0.90152066041E+02 0.  0.
          2    1    3    3  502    0  0.37249696549E+03  0.26615940718E+03 -0.45602435405E+03  0.64618343434E+03  0.00000000000E+00 0. -1.
         -1    1    3    3    0  502  0.35564875703E+03  0.26137324794E+03 -0.53833505766E+03  0.69613694588E+03  0.00000000000E+00 0.  1.
         11    1    5    5    0    0  0.11274086324E+03  0.65136475881E+02 -0.30053435561E+03  0.32752734487E+03  0.00000000000E+00 0.  1.
        -11    1    5    5    0    0 -0.75889484646E+01 -0.44164189468E+00 -0.12365815136E+03  0.12389158803E+03  0.00000000000E+00 0. -1.
          3    1    6    6  503    0 -0.26886617978E+01  0.32062125847E+01 -0.18609760331E+01  0.45795123318E+01  0.00000000000E+00 0. -1.
         -3    1    6    6    0  503 -0.83060897550E+03 -0.59543370170E+03 -0.72346283937E+03  0.12521385879E+04  0.00000000000E+00 0.  1.
<mgrwt>
<rscale>  0 0.21700431E+04</rscale>
<asrwt>0</asrwt>
<pdfrwt beam="1">  1        2 0.39956410E+00 0.21700431E+04</pdfrwt>
<pdfrwt beam="2">  1       -1 0.69737050E-01 0.21700431E+04</pdfrwt>
<totfact> 0.66255294E+00</totfact>
</mgrwt>
</event>
<event>
12    6  0.1494052E-007  0.1683198E+04  0.7818608E-02  0.8771006E-01
         -1   -1    0    0    0  501 -0.00000000000E+00  0.00000000000E+00  0.59374955215E+03  0.59374955215E+03  0.00000000000E+00 0.  1.
          2   -1    0    0  501    0  0.00000000000E+00 -0.00000000000E+00 -0.11929082623E+04  0.11929082623E+04  0.00000000000E+00 0. -1.
         24    2    1    2    0    0  0.51999923249E+03  0.32256082664E+03 -0.17616825816E+03  0.64172985531E+03  0.79606930280E+02 0.  0.
        254    2    1    2    0    0 -0.51999923249E+03 -0.32256082664E+03 -0.42299045201E+03  0.11449279592E+04  0.87034155395E+03 0.  0.
         23    2    4    4    0    0  0.13050260452E+03  0.53151591106E+02 -0.34589164105E+03  0.38409712310E+03  0.89630079775E+02 0.  0.
         23    2    4    4    0    0 -0.65050183700E+03 -0.37571241774E+03 -0.77098810965E+02  0.76083083607E+03  0.92773237915E+02 0.  0.
          2    1    3    3  502    0  0.40445543141E+03  0.24680220236E+03 -0.17014481981E+03  0.50343299732E+03  0.00000000000E+00 0. -1.
         -1    1    3    3    0  502  0.11554380108E+03  0.75758624278E+02 -0.60234383481E+01  0.13829685799E+03  0.00000000000E+00 0.  1.
         11    1    5    5    0    0  0.55479106238E+02  0.67730544986E+02 -0.14796486683E+03  0.17192719322E+03  0.00000000000E+00 0.  1.
        -11    1    5    5    0    0  0.75023498280E+02 -0.14578953880E+02 -0.19792677422E+03  0.21216992987E+03  0.00000000000E+00 0. -1.
          2    1    6    6  503    0 -0.51761280036E+03 -0.31982289257E+03 -0.94048498788E+02  0.61567427576E+03  0.00000000000E+00 0.  1.
         -2    1    6    6    0  503 -0.13288903665E+03 -0.55889525175E+02  0.16949687823E+02  0.14515656031E+03  0.00000000000E+00 0. -1.
<mgrwt>
<rscale>  0 0.16831978E+04</rscale>
<asrwt>0</asrwt>
<pdfrwt beam="1">  1        2 0.18352435E+00 0.16831978E+04</pdfrwt>
<pdfrwt beam="2">  1       -1 0.91346085E-01 0.16831978E+04</pdfrwt>
<totfact> 0.24293107E+01</totfact>
</mgrwt>
</event>
<event>
12    6  0.1494052E-007  0.2395388E+04  0.7818608E-02  0.8441232E-01
          2   -1    0    0  501    0  0.00000000000E+00  0.00000000000E+00  0.39460873722E+04  0.39460873722E+04  0.00000000000E+00 0. -1.
         -1   -1    0    0    0  501 -0.00000000000E+00 -0.00000000000E+00 -0.36351722513E+03  0.36351722513E+03  0.00000000000E+00 0.  1.
         24    2    1    2    0    0  0.90682285541E+03 -0.48202668587E+03  0.17008501903E+04  0.19896356541E+04  0.10526751288E+03 0.  0.
        254    2    1    2    0    0 -0.90682285541E+03  0.48202668587E+03  0.18817199568E+04  0.23199689432E+04  0.88696588705E+03 0.  0.
         23    2    4    4    0    0 -0.52743232354E+03 -0.14177064335E+03  0.11825024320E+04  0.13058676606E+04  0.93244700376E+02 0.  0.
         23    2    4    4    0    0 -0.37939053187E+03  0.62379732922E+03  0.69921752479E+03  0.10141012826E+04  0.80224564816E+02 0.  0.
          2    1    3    3  502    0  0.56534558562E+03 -0.27472783638E+03  0.11269906985E+04  0.12904259179E+04  0.00000000000E+00 0. -1.
         -1    1    3    3    0  502  0.34147726978E+03 -0.20729884949E+03  0.57385949182E+03  0.69920973615E+03  0.00000000000E+00 0.  1.
         11    1    5    5    0    0 -0.27273511879E+03 -0.73253257647E+02  0.72069117409E+03  0.77404538187E+03  0.00000000000E+00 0. -1.
        -11    1    5    5    0    0 -0.25469720474E+03 -0.68517385700E+02  0.46181125790E+03  0.53182227874E+03  0.00000000000E+00 0.  1.
          4    1    6    6  503    0 -0.35928556853E+03  0.56473732631E+03  0.66222047026E+03  0.94156801067E+03  0.00000000000E+00 0. -1.
         -4    1    6    6    0  503 -0.20104963342E+02  0.59060002909E+02  0.36997054533E+02  0.72533271943E+02  0.00000000000E+00 0.  1.
<mgrwt>
<rscale>  0 0.23953878E+04</rscale>
<asrwt>0</asrwt>
<pdfrwt beam="1">  1        2 0.60709034E+00 0.23953878E+04</pdfrwt>
<pdfrwt beam="2">  1       -1 0.55925730E-01 0.23953878E+04</pdfrwt>
<totfact> 0.12563690E+00</totfact>
</mgrwt>
</event>
<event>
12    6  0.1494052E-007  0.1762888E+04  0.7818608E-02  0.8726288E-01
          2   -1    0    0  501    0  0.00000000000E+00  0.00000000000E+00  0.21480609649E+04  0.21480609649E+04  0.00000000000E+00 0. -1.
         -1   -1    0    0    0  501 -0.00000000000E+00 -0.00000000000E+00 -0.36169515109E+03  0.36169515109E+03  0.00000000000E+00 0.  1.
         24    2    1    2    0    0 -0.94458930858E+02  0.63604834115E+03  0.75644396372E+03  0.99604653036E+03  0.80132630623E+02 0.  0.
        254    2    1    2    0    0  0.94458930858E+02 -0.63604834115E+03  0.10299218501E+04  0.15137095856E+04  0.90393457199E+03 0.  0.
         23    2    4    4    0    0  0.21311874055E+03 -0.55855066228E+03  0.11553014266E+04  0.13040408774E+04  0.91666698826E+02 0.  0.
         23    2    4    4    0    0 -0.11865980969E+03 -0.77497678870E+02 -0.12537957655E+03  0.20966870822E+03  0.90304420282E+02 0.  0.
          2    1    3    3  502    0 -0.22410238181E+02  0.17582667102E+03  0.26591775292E+03  0.31957704601E+03  0.00000000000E+00 0. -1.
         -1    1    3    3    0  502 -0.72048692677E+02  0.46022167013E+03  0.49052621079E+03  0.67646948434E+03  0.00000000000E+00 0.  1.
         11    1    5    5    0    0  0.22020229880E+03 -0.55411393276E+03  0.11428334514E+04  0.12890304886E+04  0.00000000000E+00 0. -1.
        -11    1    5    5    0    0 -0.70835582446E+01 -0.44367295179E+01  0.12467975261E+02  0.15010388847E+02  0.00000000000E+00 0.  1.
          2    1    6    6  503    0 -0.11291724519E+03 -0.35179059184E+02 -0.11657306810E+03  0.16606369462E+03  0.00000000000E+00 0. -1.
         -2    1    6    6    0  503 -0.57425645067E+01 -0.42318619686E+02 -0.88065084473E+01  0.43605013591E+02  0.00000000000E+00 0.  1.
<mgrwt>
<rscale>  0 0.17628877E+04</rscale>
<asrwt>0</asrwt>
<pdfrwt beam="1">  1        2 0.33047091E+00 0.17628877E+04</pdfrwt>
<pdfrwt beam="2">  1       -1 0.55645409E-01 0.17628877E+04</pdfrwt>
<totfact> 0.19454889E+01</totfact>
</mgrwt>
</event>
<event>
12    6  0.1494052E-007  0.2273396E+04  0.7818608E-02  0.8488485E-01
         -1   -1    0    0    0  501 -0.00000000000E+00  0.00000000000E+00  0.72294703245E+03  0.72294703245E+03  0.00000000000E+00 0.  1.
          2   -1    0    0  501    0  0.00000000000E+00 -0.00000000000E+00 -0.17872437577E+04  0.17872437577E+04  0.00000000000E+00 0. -1.
         24    2    1    2    0    0 -0.32164638682E+01  0.42495340115E+03 -0.13985967997E+04  0.14638948807E+04  0.79495124422E+02 0.  0.
        254    2    1    2    0    0  0.32164638682E+01 -0.42495340115E+03  0.33430007443E+03  0.10462959095E+04  0.89575825513E+03 0.  0.
         23    2    4    4    0    0 -0.99548498168E+02 -0.30732892115E+03  0.62177373823E+03  0.70700019724E+03  0.94264139986E+02 0.  0.
         23    2    4    4    0    0  0.10276496204E+03 -0.11762448000E+03 -0.28747366380E+03  0.33929571223E+03  0.89912831353E+02 0.  0.
          2    1    3    3  502    0 -0.44669021332E+01  0.21971867591E+03 -0.58822067475E+03  0.62793296773E+03  0.00000000000E+00 0. -1.
         -1    1    3    3    0  502  0.12504382650E+01  0.20523472524E+03 -0.81037612498E+03  0.83596191299E+03  0.00000000000E+00 0.  1.
         11    1    5    5    0    0 -0.55193920634E+02 -0.48248705722E+02  0.12242417530E+03  0.14269542801E+03  0.00000000000E+00 0.  1.
        -11    1    5    5    0    0 -0.44354577534E+02 -0.25908021543E+03  0.49934956293E+03  0.56430476923E+03  0.00000000000E+00 0. -1.
          1    1    6    6  503    0  0.28441992558E+02 -0.98514660956E+02 -0.18137349956E+03  0.20835170195E+03  0.00000000000E+00 0. -1.
         -1    1    6    6    0  503  0.74322969478E+02 -0.19109819046E+02 -0.10610016424E+03  0.13094401028E+03  0.00000000000E+00 0.  1.
<mgrwt>
<rscale>  0 0.22733962E+04</rscale>
<asrwt>0</asrwt>
<pdfrwt beam="1">  1        2 0.27496057E+00 0.22733962E+04</pdfrwt>
<pdfrwt beam="2">  1       -1 0.11122262E+00 0.22733962E+04</pdfrwt>
<totfact> 0.67446701E+00</totfact>
</mgrwt>
</event>
<event>
12    6  0.1494052E-007  0.1509033E+04  0.7818608E-02  0.8878468E-01
          2   -1    0    0  501    0  0.00000000000E+00  0.00000000000E+00  0.26210547468E+04  0.26210547468E+04  0.00000000000E+00 0. -1.
         -1   -1    0    0    0  501 -0.00000000000E+00 -0.00000000000E+00 -0.21720068826E+03  0.21720068826E+03  0.00000000000E+00 0.  1.
         24    2    1    2    0    0 -0.23585647443E+02 -0.14912302584E+03 -0.86460147078E+02  0.18989866146E+03  0.76106405709E+02 0.  0.
        254    2    1    2    0    0  0.23585647443E+02  0.14912302584E+03  0.24903142056E+04  0.26483567736E+04  0.88844515753E+03 0.  0.
         23    2    4    4    0    0  0.28844825801E+03 -0.13857912660E+03  0.19337574731E+04  0.19622124349E+04  0.91940758755E+02 0.  0.
         23    2    4    4    0    0 -0.26486261057E+03  0.28770215244E+03  0.55655673249E+03  0.68614433864E+03  0.90077333282E+02 0.  0.
          4    1    3    3  502    0  0.23048916445E+02 -0.16771720432E+02 -0.10868388164E+02  0.30506802796E+02  0.00000000000E+00 0. -1.
         -3    1    3    3    0  502 -0.46634563888E+02 -0.13235130541E+03 -0.75591758913E+02  0.15939185866E+03  0.00000000000E+00 0.  1.
         11    1    5    5    0    0  0.12119255241E+02 -0.16947912690E+02  0.46449855728E+02  0.50908714276E+02  0.00000000000E+00 0.  1.
        -11    1    5    5    0    0  0.27632900277E+03 -0.12163121391E+03  0.18873076174E+04  0.19113037207E+04  0.00000000000E+00 0. -1.
          4    1    6    6  503    0 -0.82373203156E+02  0.10653898536E+03  0.12474990227E+03  0.18357134340E+03  0.00000000000E+00 0.  1.
         -4    1    6    6    0  503 -0.18248940742E+03  0.18116316708E+03  0.43180683022E+03  0.50257299525E+03  0.00000000000E+00 0. -1.
<mgrwt>
<rscale>  0 0.15090327E+04</rscale>
<asrwt>0</asrwt>
<pdfrwt beam="1">  1        2 0.40323917E+00 0.15090327E+04</pdfrwt>
<pdfrwt beam="2">  1       -1 0.33415492E-01 0.15090327E+04</pdfrwt>
<totfact> 0.27516308E+01</totfact>
</mgrwt>
</event>
<event>
12    6  0.1494052E-007  0.1809656E+04  0.7818608E-02  0.8701181E-01
         -1   -1    0    0    0  501 -0.00000000000E+00  0.00000000000E+00  0.26457232633E+03  0.26457232633E+03  0.00000000000E+00 0.  1.
          2   -1    0    0  501    0  0.00000000000E+00 -0.00000000000E+00 -0.30944807628E+04  0.30944807628E+04  0.00000000000E+00 0. -1.
         24    2    1    2    0    0 -0.24034181366E+03 -0.57832033986E+03 -0.60324872148E+03  0.87414902952E+03  0.89492474278E+02 0.  0.
        254    2    1    2    0    0  0.24034181366E+03  0.57832033986E+03 -0.22266597149E+04  0.24849040596E+04  0.90802868688E+03 0.  0.
         23    2    4    4    0    0 -0.24304741232E+03 -0.86550006476E+02 -0.63504052957E+03  0.69118770820E+03  0.88887712976E+02 0.  0.
         23    2    4    4    0    0  0.48338922598E+03  0.66487034634E+03 -0.15916191854E+04  0.17937163514E+04  0.91918423994E+02 0.  0.
          2    1    3    3  502    0 -0.55853843473E+02 -0.13115716752E+03 -0.19263518824E+03  0.23964592668E+03  0.00000000000E+00 0. -1.
         -1    1    3    3    0  502 -0.18448797019E+03 -0.44716317234E+03 -0.41061353324E+03  0.63450310285E+03  0.00000000000E+00 0.  1.
         11    1    5    5    0    0 -0.22479968965E+03 -0.10393125647E+03 -0.57863319874E+03  0.62940685190E+03  0.00000000000E+00 0. -1.
        -11    1    5    5    0    0 -0.18247722667E+02  0.17381249991E+02 -0.56407330834E+02  0.61780856303E+02  0.00000000000E+00 0.  1.
          1    1    6    6  503    0  0.45808277858E+03  0.65373221943E+03 -0.15539652854E+04  0.17470013609E+04  0.00000000000E+00 0. -1.
         -1    1    6    6    0  503  0.25306447395E+02  0.11138126912E+02 -0.37653899952E+02  0.46714990447E+02  0.00000000000E+00 0.  1.
<mgrwt>
<rscale>  0 0.18096563E+04</rscale>
<asrwt>0</asrwt>
<pdfrwt beam="1">  1        2 0.47607394E+00 0.18096563E+04</pdfrwt>
<pdfrwt beam="2">  1       -1 0.40703437E-01 0.18096563E+04</pdfrwt>
<totfact> 0.96544242E+00</totfact>
</mgrwt>
</event>
<event>
12    6  0.1494052E-007  0.1363267E+04  0.7818608E-02  0.8980845E-01
         -1   -1    0    0    0  501 -0.00000000000E+00  0.00000000000E+00  0.22903570100E+03  0.22903570100E+03  0.00000000000E+00 0.  1.
          2   -1    0    0  501    0  0.00000000000E+00 -0.00000000000E+00 -0.20286118017E+04  0.20286118017E+04  0.00000000000E+00 0. -1.
         24    2    1    2    0    0  0.11075282414E+03  0.18412027314E+03  0.11095855532E+02  0.22826252148E+03  0.76250886333E+02 0.  0.
        254    2    1    2    0    0 -0.11075282414E+03 -0.18412027314E+03 -0.18106719563E+04  0.20293849813E+04  0.89090067118E+03 0.  0.
         23    2    4    4    0    0 -0.70906592115E+02 -0.37261599592E+03 -0.17701384117E+04  0.18125672222E+04  0.90219251387E+02 0.  0.
         23    2    4    4    0    0 -0.39846232024E+02  0.18849572277E+03 -0.40533544595E+02  0.21681775905E+03  0.90821873422E+02 0.  0.
          2    1    3    3  502    0  0.38271189666E+02  0.87355689177E+02 -0.30936874776E+02  0.10026360561E+03  0.00000000000E+00 0. -1.
         -1    1    3    3    0  502  0.72481634473E+02  0.96764583968E+02  0.42032730309E+02  0.12799891587E+03  0.00000000000E+00 0.  1.
         11    1    5    5    0    0 -0.20857458777E+02 -0.28920894801E+03 -0.14112736695E+04  0.14407533514E+04  0.00000000000E+00 0.  1.
        -11    1    5    5    0    0 -0.50049133338E+02 -0.83407047912E+02 -0.35886474217E+03  0.37181387086E+03  0.00000000000E+00 0. -1.
          3    1    6    6  503    0  0.24766801161E+02  0.95039730203E+02 -0.30099025926E+02  0.10272242267E+03  0.00000000000E+00 0. -1.
         -3    1    6    6    0  503 -0.64613033185E+02  0.93455992570E+02 -0.10434518669E+02  0.11409533638E+03  0.00000000000E+00 0.  1.
<mgrwt>
<rscale>  0 0.13632674E+04</rscale>
<asrwt>0</asrwt>
<pdfrwt beam="1">  1        2 0.31209412E+00 0.13632674E+04</pdfrwt>
<pdfrwt beam="2">  1       -1 0.35236262E-01 0.13632674E+04</pdfrwt>
<totfact> 0.54933507E+01</totfact>
</mgrwt>
</event>
<event>
12    6  0.1494052E-007  0.2555353E+04  0.7818608E-02  0.8383527E-01
         -1   -1    0    0    0  501 -0.00000000000E+00  0.00000000000E+00  0.15255791241E+04  0.15255791241E+04  0.00000000000E+00 0.  1.
          2   -1    0    0  501    0  0.00000000000E+00 -0.00000000000E+00 -0.10700574282E+04  0.10700574282E+04  0.00000000000E+00 0. -1.
         24    2    1    2    0    0 -0.79972987263E+03 -0.28972207502E+03  0.94038556786E+03  0.12703495661E+04  0.77176770351E+02 0.  0.
        254    2    1    2    0    0  0.79972987263E+03  0.28972207502E+03 -0.48486387200E+03  0.13252869862E+04  0.89318859795E+03 0.  0.
         23    2    4    4    0    0  0.84241018315E+03  0.35147009314E+03 -0.64835553175E+03  0.11233448308E+04  0.91392397331E+02 0.  0.
         23    2    4    4    0    0 -0.42680310524E+02 -0.61748018112E+02  0.16349165975E+03  0.20194215541E+03  0.91742491100E+02 0.  0.
          4    1    3    3  502    0 -0.12997368031E+03 -0.48870232297E+02  0.11359594304E+03  0.17940316456E+03  0.00000000000E+00 0. -1.
         -3    1    3    3    0  502 -0.66975619231E+03 -0.24085184273E+03  0.82678962483E+03  0.10909464015E+04  0.00000000000E+00 0.  1.
         11    1    5    5    0    0  0.71496874693E+03  0.31533499079E+03 -0.51814682835E+03  0.93759938205E+03  0.00000000000E+00 0. -1.
        -11    1    5    5    0    0  0.12744143622E+03  0.36135102343E+02 -0.13020870341E+03  0.18574544875E+03  0.00000000000E+00 0.  1.
          1    1    6    6  503    0 -0.63912811163E+02 -0.70779206770E+02  0.12829397081E+03  0.15985583033E+03  0.00000000000E+00 0. -1.
         -1    1    6    6    0  503  0.21232500640E+02  0.90311886577E+01  0.35197688940E+02  0.42086325080E+02  0.00000000000E+00 0.  1.
<mgrwt>
<rscale>  0 0.25553530E+04</rscale>
<asrwt>0</asrwt>
<pdfrwt beam="1">  1        2 0.16462422E+00 0.25553530E+04</pdfrwt>
<pdfrwt beam="2">  1       -1 0.23470448E+00 0.25553530E+04</pdfrwt>
<totfact> 0.20218460E+00</totfact>
</mgrwt>
</event>
<event>
12    6  0.1494052E-007  0.1446771E+04  0.7818608E-02  0.8920642E-01
          2   -1    0    0  501    0  0.00000000000E+00  0.00000000000E+00  0.29486076151E+04  0.29486076151E+04  0.00000000000E+00 0. -1.
         -1   -1    0    0    0  501 -0.00000000000E+00 -0.00000000000E+00 -0.17746893344E+03  0.17746893344E+03  0.00000000000E+00 0.  1.
         24    2    1    2    0    0 -0.24049823649E+03  0.34870308256E+03  0.10714188662E+04  0.11548616939E+04  0.79585826001E+02 0.  0.
        254    2    1    2    0    0  0.24049823649E+03 -0.34870308256E+03  0.16997198154E+04  0.19712148546E+04  0.90399519382E+03 0.  0.
         23    2    4    4    0    0  0.16763013198E+03 -0.27169951572E+03  0.17786559858E+04  0.18094607996E+04  0.92794296627E+02 0.  0.
         23    2    4    4    0    0  0.72868104509E+02 -0.77003566843E+02 -0.78936170346E+02  0.16175405501E+03  0.93242401091E+02 0.  0.
          2    1    3    3  502    0 -0.50199990903E+02  0.10342158421E+03  0.37858518099E+03  0.39565490321E+03  0.00000000000E+00 0. -1.
         -1    1    3    3    0  502 -0.19029824559E+03  0.24528149835E+03  0.69283368522E+03  0.75920679073E+03  0.00000000000E+00 0.  1.
         11    1    5    5    0    0  0.33110675898E+02 -0.16255584880E+02  0.11013484159E+03  0.11614751065E+03  0.00000000000E+00 0.  1.
        -11    1    5    5    0    0  0.13451945609E+03 -0.25544393084E+03  0.16685211442E+04  0.16933132889E+04  0.00000000000E+00 0. -1.
          1    1    6    6  503    0  0.11527748130E+02 -0.49610730559E+01  0.20789712611E+02  0.24284014768E+02  0.00000000000E+00 0. -1.
         -1    1    6    6    0  503  0.61340356379E+02 -0.72042493787E+02 -0.99725882957E+02  0.13747004024E+03  0.00000000000E+00 0.  1.
<mgrwt>
<rscale>  0 0.14467705E+04</rscale>
<asrwt>0</asrwt>
<pdfrwt beam="1">  1        2 0.45363190E+00 0.14467705E+04</pdfrwt>
<pdfrwt beam="2">  1       -1 0.27302915E-01 0.14467705E+04</pdfrwt>
<totfact> 0.25102679E+01</totfact>
</mgrwt>
</event>
<event>
12    6  0.1494052E-007  0.2225269E+04  0.7818608E-02  0.8507984E-01
         -1   -1    0    0    0  501 -0.00000000000E+00  0.00000000000E+00  0.11015523830E+04  0.11015523830E+04  0.00000000000E+00 0.  1.
          2   -1    0    0  501    0  0.00000000000E+00 -0.00000000000E+00 -0.11238283165E+04  0.11238283165E+04  0.00000000000E+00 0. -1.
         24    2    1    2    0    0 -0.30457808477E+03 -0.77165489054E+03  0.40807895184E+03  0.92796436854E+03  0.79814525807E+02 0.  0.
        254    2    1    2    0    0  0.30457808477E+03  0.77165489054E+03 -0.43035488533E+03  0.12974163309E+04  0.89992484606E+03 0.  0.
         23    2    4    4    0    0  0.56775946925E+03  0.72474958935E+03 -0.23827777869E+03  0.95563504842E+03  0.94070525483E+02 0.  0.
         23    2    4    4    0    0 -0.26318138449E+03  0.46905301195E+02 -0.19207710664E+03  0.34178128248E+03  0.91958043370E+02 0.  0.
          2    1    3    3  502    0 -0.11351232500E+03 -0.19175217380E+03  0.10622270048E+03  0.24685462560E+03  0.00000000000E+00 0. -1.
         -1    1    3    3    0  502 -0.19106575976E+03 -0.57990271675E+03  0.30185625136E+03  0.68110974294E+03  0.00000000000E+00 0.  1.
         11    1    5    5    0    0  0.45904529133E+03  0.58433107937E+03 -0.15312862745E+03  0.75869214202E+03  0.00000000000E+00 0.  1.
        -11    1    5    5    0    0  0.10871417793E+03  0.14041850997E+03 -0.85149151247E+02  0.19694290641E+03  0.00000000000E+00 0. -1.
          1    1    6    6  503    0 -0.45420873711E+02  0.50396722720E+01  0.38697416831E+01  0.45863154776E+02  0.00000000000E+00 0. -1.
         -1    1    6    6    0  503 -0.21776051078E+03  0.41865628923E+02 -0.19594684832E+03  0.29591812771E+03  0.00000000000E+00 0.  1.
<mgrwt>
<rscale>  0 0.22252692E+04</rscale>
<asrwt>0</asrwt>
<pdfrwt beam="1">  1        2 0.17289666E+00 0.22252692E+04</pdfrwt>
<pdfrwt beam="2">  1       -1 0.16946960E+00 0.22252692E+04</pdfrwt>
<totfact> 0.54388750E+00</totfact>
</mgrwt>
</event>
<event>
12    6  0.1494052E-007  0.1745687E+04  0.7818608E-02  0.8735728E-01
          2   -1    0    0  501    0  0.00000000000E+00  0.00000000000E+00  0.16282746776E+04  0.16282746776E+04  0.00000000000E+00 0. -1.
         -1   -1    0    0    0  501 -0.00000000000E+00 -0.00000000000E+00 -0.46789157803E+03  0.46789157803E+03  0.00000000000E+00 0.  1.
         24    2    1    2    0    0 -0.33067118558E+03  0.30254667965E+03 -0.12173323601E+03  0.47106785402E+03  0.78790963913E+02 0.  0.
        254    2    1    2    0    0  0.33067118558E+03 -0.30254667965E+03  0.12821163355E+04  0.16250984016E+04  0.89232538380E+03 0.  0.
         23    2    4    4    0    0 -0.23637536036E+02  0.18939482071E+03  0.87815562855E+01  0.21192014089E+03  0.91672783097E+02 0.  0.
         23    2    4    4    0    0  0.35430872162E+03 -0.49194150037E+03  0.12733347793E+04  0.14131782607E+04  0.90278604355E+02 0.  0.
          4    1    3    3  502    0 -0.11107954647E+02 -0.34031618565E+01  0.17501610394E+01  0.11748669317E+02  0.00000000000E+00 0. -1.
         -3    1    3    3    0  502 -0.31956323093E+03  0.30594984151E+03 -0.12348339705E+03  0.45931918470E+03  0.00000000000E+00 0.  1.
         11    1    5    5    0    0  0.47888057459E+01  0.21920280054E+01 -0.19744359044E+02  0.20434709720E+02  0.00000000000E+00 0.  1.
        -11    1    5    5    0    0 -0.28426341782E+02  0.18720279271E+03  0.28525915330E+02  0.19148543117E+03  0.00000000000E+00 0. -1.
          3    1    6    6  503    0  0.18659333671E+03 -0.22930277228E+03  0.52422027941E+03  0.60183364481E+03  0.00000000000E+00 0. -1.
         -3    1    6    6    0  503  0.16771538490E+03 -0.26263872809E+03  0.74911449985E+03  0.81134461588E+03  0.00000000000E+00 0.  1.
<mgrwt>
<rscale>  0 0.17456873E+04</rscale>
<asrwt>0</asrwt>
<pdfrwt beam="1">  1        2 0.25050379E+00 0.17456873E+04</pdfrwt>
<pdfrwt beam="2">  1       -1 0.71983320E-01 0.17456873E+04</pdfrwt>
<totfact> 0.22620491E+01</totfact>
</mgrwt>
</event>
<event>
12    6  0.1494052E-007  0.1405180E+04  0.7818608E-02  0.8950077E-01
         -3   -1    0    0    0  501 -0.00000000000E+00  0.00000000000E+00  0.58282994076E+03  0.58282994076E+03  0.00000000000E+00 0.  1.
          2   -1    0    0  501    0  0.00000000000E+00 -0.00000000000E+00 -0.84695855798E+03  0.84695855798E+03  0.00000000000E+00 0. -1.
         24    2    1    2    0    0 -0.26446145104E+02  0.37266081946E+03 -0.20174301604E+03  0.43151801380E+03  0.77019911504E+02 0.  0.
        254    2    1    2    0    0  0.26446145104E+02 -0.37266081946E+03 -0.62385601185E+02  0.99827048494E+03  0.92362141211E+03 0.  0.
         23    2    4    4    0    0  0.24539641968E+03  0.21666386084E+03 -0.12020706401E+03  0.36055479137E+03  0.91582683704E+02 0.  0.
         23    2    4    4    0    0 -0.21895027458E+03 -0.58932468030E+03  0.57821462828E+02  0.63771569356E+03  0.89973233292E+02 0.  0.
          2    1    3    3  502    0 -0.42190035539E+02  0.24612696885E+03 -0.16317666300E+03  0.29830371644E+03  0.00000000000E+00 0. -1.
         -1    1    3    3    0  502  0.15743890435E+02  0.12653385061E+03 -0.38566353038E+02  0.13321429737E+03  0.00000000000E+00 0.  1.
         11    1    5    5    0    0  0.56683331180E+02  0.84768558574E+02 -0.73308409438E+02  0.12558993372E+03  0.00000000000E+00 0. -1.
        -11    1    5    5    0    0  0.18871308850E+03  0.13189530227E+03 -0.46898654576E+02  0.23496485765E+03  0.00000000000E+00 0.  1.
          1    1    6    6  503    0 -0.12802807999E+02 -0.27960564589E+02  0.23517129202E+02  0.38713827384E+02  0.00000000000E+00 0. -1.
         -1    1    6    6    0  503 -0.20614746658E+03 -0.56136411571E+03  0.34304333626E+02  0.59900186618E+03  0.00000000000E+00 0.  1.
<mgrwt>
<rscale>  0 0.14051801E+04</rscale>
<asrwt>0</asrwt>
<pdfrwt beam="1">  1        2 0.13030132E+00 0.14051801E+04</pdfrwt>
<pdfrwt beam="2">  1       -3 0.89666145E-01 0.14051801E+04</pdfrwt>
<totfact> 0.22100889E+01</totfact>
</mgrwt>
</event>
<event>
12    6  0.1494052E-007  0.1833933E+04  0.7818608E-02  0.8688460E-01
         -1   -1    0    0    0  501 -0.00000000000E+00  0.00000000000E+00  0.33325546293E+03  0.33325546293E+03  0.00000000000E+00 0.  1.
          2   -1    0    0  501    0  0.00000000000E+00 -0.00000000000E+00 -0.25230722401E+04  0.25230722401E+04  0.00000000000E+00 0. -1.
         24    2    1    2    0    0  0.80774869199E+02  0.10304100009E+03  0.23024702957E+03  0.27522954641E+03  0.74803618887E+02 0.  0.
        254    2    1    2    0    0 -0.80774869199E+02 -0.10304100009E+03 -0.24200638067E+04  0.25810981566E+04  0.88781576820E+03 0.  0.
         23    2    4    4    0    0  0.21940239789E+03  0.22252989497E+03 -0.41921296277E+03  0.52984296559E+03  0.85656836687E+02 0.  0.
         23    2    4    4    0    0 -0.30017726709E+03 -0.32557089505E+03 -0.20008508440E+04  0.20512551910E+04  0.90227266336E+02 0.  0.
          4    1    3    3  502    0  0.26757745130E+02  0.52637172491E+01  0.99949087455E+02  0.10360262413E+03  0.00000000000E+00 0. -1.
         -3    1    3    3    0  502  0.54017124069E+02  0.97777282837E+02  0.13029794211E+03  0.17162692228E+03  0.00000000000E+00 0.  1.
         11    1    5    5    0    0  0.17938810916E+03  0.18966490411E+03 -0.28762799685E+03  0.38843626779E+03  0.00000000000E+00 0. -1.
        -11    1    5    5    0    0  0.40014288736E+02  0.32864990855E+02 -0.13158496592E+03  0.14140669780E+03  0.00000000000E+00 0.  1.
          1    1    6    6  503    0 -0.27219748030E+03 -0.32271393846E+03 -0.18269933646E+04  0.18751374640E+04  0.00000000000E+00 0. -1.
         -1    1    6    6    0  503 -0.27979786789E+02 -0.28569565895E+01 -0.17385747931E+03  0.17611772705E+03  0.00000000000E+00 0.  1.
<mgrwt>
<rscale>  0 0.18339330E+04</rscale>
<asrwt>0</asrwt>
<pdfrwt beam="1">  1        2 0.38816495E+00 0.18339330E+04</pdfrwt>
<pdfrwt beam="2">  1       -1 0.51270072E-01 0.18339330E+04</pdfrwt>
<totfact> 0.13858661E+01</totfact>
</mgrwt>
</event>
<event>
12    6  0.1494052E-007  0.1871874E+04  0.7818608E-02  0.8668984E-01
         -1   -1    0    0    0  501 -0.00000000000E+00  0.00000000000E+00  0.17228941140E+04  0.17228941140E+04  0.00000000000E+00 0.  1.
          2   -1    0    0  501    0  0.00000000000E+00 -0.00000000000E+00 -0.50843411884E+03  0.50843411884E+03  0.00000000000E+00 0. -1.
         24    2    1    2    0    0 -0.32416556753E+03 -0.56398062047E+03  0.82068959460E+03  0.10499529355E+04  0.75579763656E+02 0.  0.
        254    2    1    2    0    0  0.32416556753E+03  0.56398062047E+03  0.39377040059E+03  0.11813752974E+04  0.90412112541E+03 0.  0.
         23    2    4    4    0    0  0.86675755618E+01 -0.18053687085E+03  0.29931815244E+03  0.36244664977E+03  0.95433374390E+02 0.  0.
         23    2    4    4    0    0  0.31549799196E+03  0.74451749132E+03  0.94452248153E+02  0.81892864760E+03  0.88755984919E+02 0.  0.
          4    1    3    3  502    0 -0.25399156551E+02 -0.22764477830E+02  0.24779716330E+02  0.42158901145E+02  0.00000000000E+00 0. -1.
         -3    1    3    3    0  502 -0.29876641097E+03 -0.54121614264E+03  0.79590987828E+03  0.10077940344E+04  0.00000000000E+00 0.  1.
         11    1    5    5    0    0  0.13100241882E+02  0.24023875618E+01  0.22026625545E+01  0.13499612058E+02  0.00000000000E+00 0. -1.
        -11    1    5    5    0    0 -0.44326663206E+01 -0.18293925841E+03  0.29711548989E+03  0.34894703771E+03  0.00000000000E+00 0.  1.
          3    1    6    6  503    0  0.19356195101E+02  0.18074193809E+02 -0.82720631357E+01  0.27744653524E+02  0.00000000000E+00 0. -1.
         -3    1    6    6    0  503  0.29614179686E+03  0.72644329751E+03  0.10272431129E+03  0.79118399407E+03  0.00000000000E+00 0.  1.
<mgrwt>
<rscale>  0 0.18718741E+04</rscale>
<asrwt>0</asrwt>
<pdfrwt beam="1">  1        2 0.78220635E-01 0.18718741E+04</pdfrwt>
<pdfrwt beam="2">  1       -1 0.26506063E+00 0.18718741E+04</pdfrwt>
<totfact> 0.36038785E+00</totfact>
</mgrwt>
</event>
<event>
12    6  0.1494052E-007  0.1655195E+04  0.7818608E-02  0.8787339E-01
         -1   -1    0    0    0  501 -0.00000000000E+00  0.00000000000E+00  0.59588644593E+03  0.59588644593E+03  0.00000000000E+00 0.  1.
          2   -1    0    0  501    0  0.00000000000E+00 -0.00000000000E+00 -0.11494100806E+04  0.11494100806E+04  0.00000000000E+00 0. -1.
         24    2    1    2    0    0  0.47366150090E+03  0.20597923152E+03 -0.45727477000E+03  0.69419659299E+03  0.77627528560E+02 0.  0.
        254    2    1    2    0    0 -0.47366150090E+03 -0.20597923152E+03 -0.96248864680E+02  0.10510999336E+04  0.91036507243E+03 0.  0.
         23    2    4    4    0    0 -0.10781648494E+03 -0.83224490618E+02 -0.47456235768E+03  0.50310832580E+03  0.96735959718E+02 0.  0.
         23    2    4    4    0    0 -0.36584501596E+03 -0.12275474090E+03  0.37831349300E+03  0.54799160775E+03  0.90897750582E+02 0.  0.
          2    1    3    3  502    0  0.18267868863E+03  0.43359787416E+02 -0.18779018065E+03  0.26554985670E+03  0.00000000000E+00 0. -1.
         -1    1    3    3    0  502  0.29098281227E+03  0.16261944410E+03 -0.26948458935E+03  0.42864673629E+03  0.00000000000E+00 0.  1.
         11    1    5    5    0    0  0.44963286231E+01  0.12065690620E+02 -0.11778749227E+02  0.17450982625E+02  0.00000000000E+00 0.  1.
        -11    1    5    5    0    0 -0.11231281356E+03 -0.95290181237E+02 -0.46278360845E+03  0.48565734318E+03  0.00000000000E+00 0. -1.
          4    1    6    6  503    0 -0.31091581895E+03 -0.12318812517E+03  0.28354371892E+03  0.43845296350E+03  0.00000000000E+00 0. -1.
         -4    1    6    6    0  503 -0.54929197006E+02  0.43338427155E+00  0.94769774079E+02  0.10953864425E+03  0.00000000000E+00 0.  1.
<mgrwt>
<rscale>  0 0.16551953E+04</rscale>
<asrwt>0</asrwt>
<pdfrwt beam="1">  1        2 0.17683232E+00 0.16551953E+04</pdfrwt>
<pdfrwt beam="2">  1       -1 0.91674839E-01 0.16551953E+04</pdfrwt>
<totfact> 0.25661295E+01</totfact>
</mgrwt>
</event>
<event>
12    6  0.1993142E-007  0.1785663E+04  0.7818608E-02  0.8713961E-01
         -1   -1    0    0    0  501 -0.00000000000E+00  0.00000000000E+00  0.41797828198E+03  0.41797828198E+03  0.00000000000E+00 0.  1.
          2   -1    0    0  501    0  0.00000000000E+00 -0.00000000000E+00 -0.19071520481E+04  0.19071520481E+04  0.00000000000E+00 0. -1.
         24    2    1    2    0    0  0.24636918887E+03 -0.37179226271E+03  0.71083950259E+02  0.45907154075E+03  0.82258663445E+02 0.  0.
        254    2    1    2    0    0 -0.24636918887E+03  0.37179226271E+03 -0.15602577164E+04  0.18660587893E+04  0.92132730334E+03 0.  0.
         23    2    4    4    0    0 -0.22316487324E+03  0.62515263117E+03 -0.14002053958E+04  0.15521895348E+04  0.89993492631E+02 0.  0.
         23    2    4    4    0    0 -0.23204315624E+02 -0.25336036846E+03 -0.16005232059E+03  0.31386925450E+03  0.90372822381E+02 0.  0.
          4    1    3    3  502    0  0.15656674837E+02 -0.33659735116E+01  0.12755133225E+02  0.20473267161E+02  0.00000000000E+00 0. -1.
         -3    1    3    3    0  502  0.23071251403E+03 -0.36842628920E+03  0.58328817034E+02  0.43859827359E+03  0.00000000000E+00 0.  1.
         11    1    5    5    0    0 -0.88806099863E+02  0.30945529112E+03 -0.58527930950E+03  0.66798276228E+03  0.00000000000E+00 0.  1.
        -11    1    5    5    0    0 -0.13435877338E+03  0.31569734005E+03 -0.81492608632E+03  0.88420677257E+03  0.00000000000E+00 0. -1.
          3    1    6    6  503    0 -0.26013027013E+01 -0.22560777125E+03 -0.10498319928E+03  0.24885157294E+03  0.00000000000E+00 0. -1.
         -3    1    6    6    0  503 -0.20603012923E+02 -0.27752597207E+02 -0.55069121310E+02  0.65017681557E+02  0.00000000000E+00 0.  1.
<mgrwt>
<rscale>  0 0.17856631E+04</rscale>
<asrwt>0</asrwt>
<pdfrwt beam="1">  1        2 0.29340801E+00 0.17856631E+04</pdfrwt>
<pdfrwt beam="2">  1       -1 0.64304350E-01 0.17856631E+04</pdfrwt>
<totfact> 0.19862112E+01</totfact>
</mgrwt>
</event>
<event>
12    6  0.1494052E-007  0.1621300E+04  0.7818608E-02  0.8807568E-01
         -1   -1    0    0    0  501 -0.00000000000E+00  0.00000000000E+00  0.47358056309E+03  0.47358056309E+03  0.00000000000E+00 0.  1.
          2   -1    0    0  501    0  0.00000000000E+00 -0.00000000000E+00 -0.13876281093E+04  0.13876281093E+04  0.00000000000E+00 0. -1.
         24    2    1    2    0    0 -0.13819871721E+03 -0.21588741425E+03 -0.88714662946E+03  0.92675021411E+03  0.78297867961E+02 0.  0.
        254    2    1    2    0    0  0.13819871721E+03  0.21588741425E+03 -0.26900916755E+02  0.93445845827E+03  0.89821082706E+03 0.  0.
         23    2    4    4    0    0 -0.41416368384E+02  0.38688998552E+03 -0.33957536121E+03  0.52505223881E+03  0.94706130082E+02 0.  0.
         23    2    4    4    0    0  0.17961508559E+03 -0.17100257127E+03  0.31267444445E+03  0.40940621947E+03  0.91349252705E+02 0.  0.
          4    1    3    3  502    0 -0.10167175722E+03 -0.15905814829E+03 -0.75616897151E+03  0.77937677296E+03  0.00000000000E+00 0. -1.
         -3    1    3    3    0  502 -0.36526959990E+02 -0.56829265960E+02 -0.13097765795E+03  0.14737344116E+03  0.00000000000E+00 0.  1.
         11    1    5    5    0    0  0.44899108139E+00 -0.30556473262E+01  0.30062588682E+01  0.43100076515E+01  0.00000000000E+00 0. -1.
        -11    1    5    5    0    0 -0.41865359465E+02  0.38994563284E+03 -0.34258162008E+03  0.52074223116E+03  0.00000000000E+00 0.  1.
          1    1    6    6  503    0  0.84156776428E+00  0.98903842809E+01  0.13048253257E+02  0.16394659209E+02  0.00000000000E+00 0. -1.
         -1    1    6    6    0  503  0.17877351783E+03 -0.18089295555E+03  0.29962619120E+03  0.39301156026E+03  0.00000000000E+00 0.  1.
<mgrwt>
<rscale>  0 0.16213003E+04</rscale>
<asrwt>0</asrwt>
<pdfrwt beam="1">  1        2 0.21348125E+00 0.16213003E+04</pdfrwt>
<pdfrwt beam="2">  1       -1 0.72858549E-01 0.16213003E+04</pdfrwt>
<totfact> 0.30484985E+01</totfact>
</mgrwt>
</event>
<event>
12    6  0.1494052E-007  0.1956971E+04  0.7818608E-02  0.8627006E-01
         -1   -1    0    0    0  501 -0.00000000000E+00  0.00000000000E+00  0.77826291854E+03  0.77826291854E+03  0.00000000000E+00 0.  1.
          2   -1    0    0  501    0  0.00000000000E+00 -0.00000000000E+00 -0.12302193900E+04  0.12302193900E+04  0.00000000000E+00 0. -1.
         24    2    1    2    0    0 -0.68619957826E+03  0.34906479036E+03 -0.11877215885E+03  0.78307642716E+03  0.79911050409E+02 0.  0.
        254    2    1    2    0    0  0.68619957826E+03 -0.34906479036E+03 -0.33318431265E+03  0.12254058814E+04  0.89324783737E+03 0.  0.
         23    2    4    4    0    0  0.88761846473E+03 -0.33082782773E+03 -0.21996086559E+03  0.97674525672E+03  0.91295802698E+02 0.  0.
         23    2    4    4    0    0 -0.20141888647E+03 -0.18236962626E+02 -0.11322344706E+03  0.24866062471E+03  0.90057774139E+02 0.  0.
          4    1    3    3  502    0 -0.14118952210E+03  0.71572725938E+02 -0.57558539011E+02  0.16843432447E+03  0.00000000000E+00 0. -1.
         -3    1    3    3    0  502 -0.54501005616E+03  0.27749206442E+03 -0.61213619842E+02  0.61464210268E+03  0.00000000000E+00 0.  1.
         11    1    5    5    0    0  0.47521595998E+03 -0.20040279866E+03 -0.78613511817E+02  0.52170065610E+03  0.00000000000E+00 0. -1.
        -11    1    5    5    0    0  0.41240250475E+03 -0.13042502907E+03 -0.14134735378E+03  0.45504460062E+03  0.00000000000E+00 0.  1.
          3    1    6    6  503    0 -0.12497140916E+03  0.32383729465E+02 -0.57129928579E+02  0.14117502535E+03  0.00000000000E+00 0. -1.
         -3    1    6    6    0  503 -0.76447477311E+02 -0.50620692091E+02 -0.56093518479E+02  0.10748559936E+03  0.00000000000E+00 0.  1.
<mgrwt>
<rscale>  0 0.19569713E+04</rscale>
<asrwt>0</asrwt>
<pdfrwt beam="1">  1        2 0.18926452E+00 0.19569713E+04</pdfrwt>
<pdfrwt beam="2">  1       -1 0.11973276E+00 0.19569713E+04</pdfrwt>
<totfact> 0.12023826E+01</totfact>
</mgrwt>
</event>
<event>
12    6  0.1494052E-007  0.1162772E+04  0.7818608E-02  0.9146081E-01
         -1   -1    0    0    0  501 -0.00000000000E+00  0.00000000000E+00  0.18485093518E+03  0.18485093518E+03  0.00000000000E+00 0.  1.
          2   -1    0    0  501    0  0.00000000000E+00 -0.00000000000E+00 -0.18285530492E+04  0.18285530492E+04  0.00000000000E+00 0. -1.
         24    2    1    2    0    0  0.11256510708E+03  0.57090473929E+02 -0.23922263040E+02  0.15165617945E+03  0.80604569056E+02 0.  0.
        254    2    1    2    0    0 -0.11256510708E+03 -0.57090473929E+02 -0.16197798510E+04  0.18617478049E+04  0.90911379813E+03 0.  0.
         23    2    4    4    0    0  0.12784647561E+03  0.30479821238E+03 -0.25066439879E+03  0.42246868157E+03  0.80002965546E+02 0.  0.
         23    2    4    4    0    0 -0.24041158268E+03 -0.36188868631E+03 -0.13691154522E+04  0.14392791233E+04  0.91028144632E+02 0.  0.
          4    1    3    3  502    0  0.14682215717E+02 -0.17741281030E+02 -0.16292974324E+02  0.28209599842E+02  0.00000000000E+00 0. -1.
         -3    1    3    3    0  502  0.97882891360E+02  0.74831754960E+02 -0.76292887162E+01  0.12344657961E+03  0.00000000000E+00 0.  1.
         11    1    5    5    0    0  0.60938879064E+02  0.20616910578E+03 -0.12243566719E+03  0.24740602207E+03  0.00000000000E+00 0. -1.
        -11    1    5    5    0    0  0.66907596542E+02  0.98629106605E+02 -0.12822873159E+03  0.17506265950E+03  0.00000000000E+00 0.  1.
          2    1    6    6  503    0 -0.17457627965E+03 -0.32360704360E+03 -0.11422840210E+04  0.12000046586E+04  0.00000000000E+00 0. -1.
         -2    1    6    6    0  503 -0.65835303035E+02 -0.38281642707E+02 -0.22683143115E+03  0.23927446469E+03  0.00000000000E+00 0.  1.
<mgrwt>
<rscale>  0 0.11627721E+04</rscale>
<asrwt>0</asrwt>
<pdfrwt beam="1">  1        2 0.28131585E+00 0.11627721E+04</pdfrwt>
<pdfrwt beam="2">  1       -1 0.28438605E-01 0.11627721E+04</pdfrwt>
<totfact> 0.10509512E+02</totfact>
</mgrwt>
</event>
<event>
12    6  0.1494052E-007  0.1135089E+04  0.7818608E-02  0.9171651E-01
          2   -1    0    0  501    0  0.00000000000E+00  0.00000000000E+00  0.31929526526E+03  0.31929526526E+03  0.00000000000E+00 0. -1.
         -1   -1    0    0    0  501 -0.00000000000E+00 -0.00000000000E+00 -0.10088056561E+04  0.10088056561E+04  0.00000000000E+00 0.  1.
         24    2    1    2    0    0 -0.49086104737E+02  0.14775012487E+03  0.66023202888E+02  0.18788744344E+03  0.81872358003E+02 0.  0.
        254    2    1    2    0    0  0.49086104737E+02 -0.14775012487E+03 -0.75553359376E+03  0.11402134780E+04  0.83965243937E+03 0.  0.
         23    2    4    4    0    0 -0.12331585414E+03  0.52743208323E+02  0.13328921040E+03  0.20858627835E+03  0.88054392283E+02 0.  0.
         23    2    4    4    0    0  0.17240195887E+03 -0.20049333319E+03 -0.88882280416E+03  0.93162719961E+03  0.89460884035E+02 0.  0.
          4    1    3    3  502    0 -0.34031397518E+02  0.15404033965E+03  0.67323528309E+02  0.17151973566E+03  0.00000000000E+00 0. -1.
         -3    1    3    3    0  502 -0.15054707219E+02 -0.62902147882E+01 -0.13003254210E+01  0.16367707773E+02  0.00000000000E+00 0.  1.
         11    1    5    5    0    0  0.40608267824E+01 -0.15399960937E+02  0.11585293781E+02  0.19694368307E+02  0.00000000000E+00 0.  1.
        -11    1    5    5    0    0 -0.12737668092E+03  0.68143169260E+02  0.12170391662E+03  0.18889191004E+03  0.00000000000E+00 0. -1.
          2    1    6    6  503    0  0.15877896006E+03 -0.20655098691E+03 -0.86621896589E+03  0.90454926080E+03  0.00000000000E+00 0. -1.
         -2    1    6    6    0  503  0.13622998817E+02  0.60576537180E+01 -0.22603838275E+02  0.27077938808E+02  0.00000000000E+00 0.  1.
<mgrwt>
<rscale>  0 0.11350892E+04</rscale>
<asrwt>0</asrwt>
<pdfrwt beam="1">  1        2 0.49122349E-01 0.11350892E+04</pdfrwt>
<pdfrwt beam="2">  1       -1 0.15520087E+00 0.11350892E+04</pdfrwt>
<totfact> 0.36966633E+01</totfact>
</mgrwt>
</event>
<event>
12    6  0.1494052E-007  0.1449663E+04  0.7818608E-02  0.8918634E-01
         -1   -1    0    0    0  501 -0.00000000000E+00  0.00000000000E+00  0.22621501061E+03  0.22621501061E+03  0.00000000000E+00 0.  1.
          2   -1    0    0  501    0  0.00000000000E+00 -0.00000000000E+00 -0.23224837578E+04  0.23224837578E+04  0.00000000000E+00 0. -1.
         24    2    1    2    0    0  0.14201769511E+03 -0.24070596019E+03 -0.11592094183E+04  0.11950987655E+04  0.79913695947E+02 0.  0.
        254    2    1    2    0    0 -0.14201769511E+03  0.24070596019E+03 -0.93705932889E+03  0.13536000029E+04  0.93597243393E+03 0.  0.
         23    2    4    4    0    0 -0.66625665317E+02  0.39554007093E+02 -0.10755373777E+04  0.10821420275E+04  0.90814195428E+02 0.  0.
         23    2    4    4    0    0 -0.75392029793E+02  0.20115195309E+03  0.13847804876E+03  0.27145797548E+03  0.91472378734E+02 0.  0.
          2    1    3    3  502    0  0.12188903909E+03 -0.24137477882E+03 -0.10691292606E+04  0.11027946761E+04  0.00000000000E+00 0. -1.
         -1    1    3    3    0  502  0.20128656020E+02  0.66881863608E+00 -0.90080157663E+02  0.92304089379E+02  0.00000000000E+00 0.  1.
         11    1    5    5    0    0 -0.76248006982E+02  0.31526298335E+02 -0.10539985529E+04  0.10572230680E+04  0.00000000000E+00 0. -1.
        -11    1    5    5    0    0  0.96223416643E+01  0.80277087576E+01 -0.21538824755E+02  0.24918959425E+02  0.00000000000E+00 0.  1.
          4    1    6    6  503    0 -0.83266915531E+02  0.16804814047E+03  0.80202957673E+02  0.20397566315E+03  0.00000000000E+00 0. -1.
         -4    1    6    6    0  503  0.78748857379E+01  0.33103812624E+02  0.58275091091E+02  0.67482312329E+02  0.00000000000E+00 0.  1.
<mgrwt>
<rscale>  0 0.14496630E+04</rscale>
<asrwt>0</asrwt>
<pdfrwt beam="1">  1        2 0.35730521E+00 0.14496630E+04</pdfrwt>
<pdfrwt beam="2">  1       -1 0.34802308E-01 0.14496630E+04</pdfrwt>
<totfact> 0.38192534E+01</totfact>
</mgrwt>
</event>
<event>
12    6  0.1494052E-007  0.1717501E+04  0.7818608E-02  0.8751445E-01
          2   -1    0    0  501    0  0.00000000000E+00  0.00000000000E+00  0.86550921900E+03  0.86550921900E+03  0.00000000000E+00 0. -1.
         -1   -1    0    0    0  501 -0.00000000000E+00 -0.00000000000E+00 -0.85204451760E+03  0.85204451760E+03  0.00000000000E+00 0.  1.
         24    2    1    2    0    0 -0.37165735045E+03  0.10675946247E+03  0.49089840493E+03  0.63028331847E+03  0.82152593449E+02 0.  0.
        254    2    1    2    0    0  0.37165735045E+03 -0.10675946247E+03 -0.47743370353E+03  0.10872704181E+04  0.89704361762E+03 0.  0.
         23    2    4    4    0    0  0.28938033959E+03 -0.30431058088E+03  0.12053130148E+03  0.44648245542E+03  0.92048236176E+02 0.  0.
         23    2    4    4    0    0  0.82277010854E+02  0.19755111842E+03 -0.59796500501E+03  0.64078796271E+03  0.85153479306E+02 0.  0.
          4    1    3    3  502    0 -0.29737349943E+03  0.80392301558E+02  0.43751679437E+03  0.53508398001E+03  0.00000000000E+00 0. -1.
         -3    1    3    3    0  502 -0.74283851014E+02  0.26367160908E+02  0.53381610561E+02  0.95199338453E+02  0.00000000000E+00 0.  1.
         11    1    5    5    0    0  0.24684648060E+03 -0.28987289182E+03  0.12643238890E+03  0.40117904651E+03  0.00000000000E+00 0. -1.
        -11    1    5    5    0    0  0.42533858996E+02 -0.14437689066E+02 -0.59010874181E+01  0.45303408915E+02  0.00000000000E+00 0.  1.
          1    1    6    6  503    0  0.91640228376E+02  0.12765562051E+03 -0.36517171622E+03  0.39754782257E+03  0.00000000000E+00 0. -1.
         -1    1    6    6    0  503 -0.93632175220E+01  0.69895497906E+02 -0.23279328879E+03  0.24324014014E+03  0.00000000000E+00 0.  1.
<mgrwt>
<rscale>  0 0.17175010E+04</rscale>
<asrwt>0</asrwt>
<pdfrwt beam="1">  1        2 0.13315526E+00 0.17175010E+04</pdfrwt>
<pdfrwt beam="2">  1       -1 0.13108377E+00 0.17175010E+04</pdfrwt>
<totfact> 0.16677161E+01</totfact>
</mgrwt>
</event>
<event>
12    6  0.1494052E-007  0.1673749E+04  0.7818608E-02  0.8776480E-01
          2   -1    0    0  501    0  0.00000000000E+00  0.00000000000E+00  0.10546308753E+04  0.10546308753E+04  0.00000000000E+00 0. -1.
         -1   -1    0    0    0  501 -0.00000000000E+00 -0.00000000000E+00 -0.66407959536E+03  0.66407959536E+03  0.00000000000E+00 0.  1.
         24    2    1    2    0    0  0.18643227107E+03 -0.32891564286E+03  0.62042810797E+03  0.73073772494E+03  0.78128699458E+02 0.  0.
        254    2    1    2    0    0 -0.18643227107E+03  0.32891564286E+03 -0.22987682806E+03  0.98797274569E+03  0.88334834484E+03 0.  0.
         23    2    4    4    0    0 -0.47257163196E+03 -0.39484065706E+02 -0.79623817684E+02  0.48945641095E+03  0.91349258900E+02 0.  0.
         23    2    4    4    0    0  0.28613936089E+03  0.36839970856E+03 -0.15025301037E+03  0.49851633473E+03  0.91370070319E+02 0.  0.
          4    1    3    3  502    0  0.14413034161E+03 -0.24634755395E+03  0.52548799593E+03  0.59799523959E+03  0.00000000000E+00 0. -1.
         -3    1    3    3    0  502  0.42301929463E+02 -0.82568088906E+02  0.94940112038E+02  0.13274248535E+03  0.00000000000E+00 0.  1.
         11    1    5    5    0    0 -0.41287292490E+03 -0.28534544580E+02 -0.37451663998E+02  0.41554891347E+03  0.00000000000E+00 0. -1.
        -11    1    5    5    0    0 -0.59698707059E+02 -0.10949521126E+02 -0.42172153686E+02  0.73907497481E+02  0.00000000000E+00 0.  1.
          1    1    6    6  503    0  0.28486111885E+03  0.37369469827E+03 -0.14859014408E+03  0.49282107855E+03  0.00000000000E+00 0. -1.
         -1    1    6    6    0  503  0.12782420397E+01 -0.52949897044E+01 -0.16628662885E+01  0.56952561817E+01  0.00000000000E+00 0.  1.
<mgrwt>
<rscale>  0 0.16737489E+04</rscale>
<asrwt>0</asrwt>
<pdfrwt beam="1">  1        2 0.16225090E+00 0.16737489E+04</pdfrwt>
<pdfrwt beam="2">  1       -1 0.10216609E+00 0.16737489E+04</pdfrwt>
<totfact> 0.22948300E+01</totfact>
</mgrwt>
</event>
<event>
12    6  0.1494052E-007  0.1223741E+04  0.7818608E-02  0.9092327E-01
         -1   -1    0    0    0  501 -0.00000000000E+00  0.00000000000E+00  0.89806974864E+03  0.89806974864E+03  0.00000000000E+00 0.  1.
          2   -1    0    0  501    0  0.00000000000E+00 -0.00000000000E+00 -0.41687768980E+03  0.41687768980E+03  0.00000000000E+00 0. -1.
         24    2    1    2    0    0 -0.18567260506E+03  0.51050642365E+02  0.18107506521E+03  0.27675838813E+03  0.82015497326E+02 0.  0.
        254    2    1    2    0    0  0.18567260506E+03 -0.51050642365E+02  0.30011699363E+03  0.10381890503E+04  0.97503118411E+03 0.  0.
         23    2    4    4    0    0 -0.21028633589E+03 -0.39542345241E+03  0.90705513424E+02  0.46601683035E+03  0.91455706373E+02 0.  0.
         23    2    4    4    0    0  0.39595894095E+03  0.34437281005E+03  0.20941148021E+03  0.57217221997E+03  0.90287131089E+02 0.  0.
          2    1    3    3  502    0 -0.93638130182E+02  0.12848622267E+02  0.36824312452E+02  0.10143577528E+03  0.00000000000E+00 0. -1.
         -1    1    3    3    0  502 -0.92034474879E+02  0.38202020098E+02  0.14425075276E+03  0.17532261285E+03  0.00000000000E+00 0.  1.
         11    1    5    5    0    0 -0.16382523404E+03 -0.29380495339E+03  0.27189736939E+02  0.33748976242E+03  0.00000000000E+00 0. -1.
        -11    1    5    5    0    0 -0.46461101847E+02 -0.10161849902E+03  0.63515776485E+02  0.12852706793E+03  0.00000000000E+00 0.  1.
          1    1    6    6  503    0  0.33689344827E+03  0.24818667358E+03  0.18010127749E+03  0.45555492598E+03  0.00000000000E+00 0. -1.
         -1    1    6    6    0  503  0.59065492681E+02  0.96186136461E+02  0.29310202716E+02  0.11661729398E+03  0.00000000000E+00 0.  1.
<mgrwt>
<rscale>  0 0.12237406E+04</rscale>
<asrwt>0</asrwt>
<pdfrwt beam="1">  1        2 0.64135029E-01 0.12237406E+04</pdfrwt>
<pdfrwt beam="2">  1       -1 0.13816458E+00 0.12237406E+04</pdfrwt>
<totfact> 0.37124578E+01</totfact>
</mgrwt>
</event>
<event>
12    6  0.1494052E-007  0.1289726E+04  0.7818608E-02  0.9037753E-01
          2   -1    0    0  501    0  0.00000000000E+00  0.00000000000E+00  0.26849060272E+04  0.26849060272E+04  0.00000000000E+00 0. -1.
         -1   -1    0    0    0  501 -0.00000000000E+00 -0.00000000000E+00 -0.15488370988E+03  0.15488370988E+03  0.00000000000E+00 0.  1.
         24    2    1    2    0    0 -0.19581047748E+03  0.94144425796E+01  0.55927504956E+02  0.21897145107E+03  0.79938950169E+02 0.  0.
        254    2    1    2    0    0  0.19581047748E+03 -0.94144425796E+01  0.24740948124E+04  0.26208182860E+04  0.84208845909E+03 0.  0.
         23    2    4    4    0    0  0.42370486958E+03  0.24320819055E+03  0.16931856182E+04  0.17643836719E+04  0.86580388450E+02 0.  0.
         23    2    4    4    0    0 -0.22789439210E+03 -0.25262263313E+03  0.78090919422E+03  0.85643461414E+03  0.88921481936E+02 0.  0.
          2    1    3    3  502    0 -0.18429547286E+02 -0.74542913664E+01  0.34081717995E+02  0.39456028366E+02  0.00000000000E+00 0. -1.
         -1    1    3    3    0  502 -0.17738093019E+03  0.16868733946E+02  0.21845786961E+02  0.17951542271E+03  0.00000000000E+00 0.  1.
         11    1    5    5    0    0  0.37366554611E+03  0.17883330504E+03  0.14390482412E+04  0.14974869387E+04  0.00000000000E+00 0.  1.
        -11    1    5    5    0    0  0.50039323472E+02  0.64374885503E+02  0.25413737700E+03  0.26689673315E+03  0.00000000000E+00 0. -1.
          1    1    6    6  503    0 -0.11492933502E+02 -0.29905451595E+02  0.14824761239E+03  0.15166996451E+03  0.00000000000E+00 0. -1.
         -1    1    6    6    0  503 -0.21640145860E+03 -0.22271718153E+03  0.63266158183E+03  0.70476464962E+03  0.00000000000E+00 0.  1.
<mgrwt>
<rscale>  0 0.12897259E+04</rscale>
<asrwt>0</asrwt>
<pdfrwt beam="1">  1        2 0.41306243E+00 0.12897259E+04</pdfrwt>
<pdfrwt beam="2">  1       -1 0.23828265E-01 0.12897259E+04</pdfrwt>
<totfact> 0.46387269E+01</totfact>
</mgrwt>
</event>
<event>
12    6  0.1494052E-007  0.2461481E+04  0.7818608E-02  0.8416838E-01
          2   -1    0    0  501    0  0.00000000000E+00  0.00000000000E+00  0.11254682408E+04  0.11254682408E+04  0.00000000000E+00 0. -1.
         -1   -1    0    0    0  501 -0.00000000000E+00 -0.00000000000E+00 -0.13458599690E+04  0.13458599690E+04  0.00000000000E+00 0.  1.
         24    2    1    2    0    0 -0.90763673454E+03  0.18214105140E+03  0.43867289350E+03  0.10275212307E+04  0.79913500971E+02 0.  0.
        254    2    1    2    0    0  0.90763673454E+03 -0.18214105140E+03 -0.65906462165E+03  0.14438069790E+04  0.89063607194E+03 0.  0.
         23    2    4    4    0    0  0.34042830727E+03 -0.31453934676E+03 -0.70931965921E+03  0.85227715023E+03  0.91736191424E+02 0.  0.
         23    2    4    4    0    0  0.56720842727E+03  0.13239829537E+03  0.50255037556E+02  0.59152982878E+03  0.90151322519E+02 0.  0.
          2    1    3    3  502    0 -0.70385252917E+03  0.17461840313E+03  0.34729961959E+03  0.80406280557E+03  0.00000000000E+00 0. -1.
         -1    1    3    3    0  502 -0.20378420536E+03  0.75226482701E+01  0.91373273912E+02  0.22345842517E+03  0.00000000000E+00 0.  1.
         11    1    5    5    0    0  0.15272702282E+03 -0.13798009600E+03 -0.23433367095E+03  0.31189151918E+03  0.00000000000E+00 0. -1.
        -11    1    5    5    0    0  0.18770128445E+03 -0.17655925076E+03 -0.47498598825E+03  0.54038563106E+03  0.00000000000E+00 0.  1.
          3    1    6    6  503    0  0.43482078396E+02 -0.92105106877E+01  0.18267463075E+02  0.48054394763E+02  0.00000000000E+00 0. -1.
         -3    1    6    6    0  503  0.52372634888E+03  0.14160880606E+03  0.31987574481E+02  0.54347543402E+03  0.00000000000E+00 0.  1.
<mgrwt>
<rscale>  0 0.24614814E+04</rscale>
<asrwt>0</asrwt>
<pdfrwt beam="1">  1        2 0.17314896E+00 0.24614814E+04</pdfrwt>
<pdfrwt beam="2">  1       -1 0.20705538E+00 0.24614814E+04</pdfrwt>
<totfact> 0.28852839E+00</totfact>
</mgrwt>
</event>
<event>
12    6  0.1494052E-007  0.1707564E+04  0.7818608E-02  0.8757062E-01
          4   -1    0    0  501    0  0.00000000000E+00  0.00000000000E+00  0.74631602661E+03  0.74631602661E+03  0.00000000000E+00 0. -1.
         -3   -1    0    0    0  501 -0.00000000000E+00 -0.00000000000E+00 -0.97672218696E+03  0.97672218696E+03  0.00000000000E+00 0.  1.
         24    2    1    2    0    0 -0.42209378417E+03 -0.46427940768E+02  0.36171348831E+03  0.56438016179E+03  0.85846392337E+02 0.  0.
        254    2    1    2    0    0  0.42209378417E+03  0.46427940768E+02 -0.59211964866E+03  0.11586580518E+04  0.90086851777E+03 0.  0.
         23    2    4    4    0    0  0.69699998103E+03  0.59518259229E+02 -0.43858441354E+03  0.83059112225E+03  0.90409777287E+02 0.  0.
         23    2    4    4    0    0 -0.27490619686E+03 -0.13090318461E+02 -0.15353523512E+03  0.32806692953E+03  0.91159576103E+02 0.  0.
          2    1    3    3  502    0 -0.35365734057E+03 -0.37752712686E+02  0.34006167671E+03  0.49207796722E+03  0.00000000000E+00 0. -1.
         -1    1    3    3    0  502 -0.68436443594E+02 -0.86752280820E+01  0.21651811606E+02  0.72302194572E+02  0.00000000000E+00 0.  1.
         11    1    5    5    0    0  0.23242440465E+03  0.58487297931E+02 -0.17153037545E+03  0.29472790434E+03  0.00000000000E+00 0. -1.
        -11    1    5    5    0    0  0.46457557638E+03  0.10309612979E+01 -0.26705403809E+03  0.53586321791E+03  0.00000000000E+00 0.  1.
          2    1    6    6  503    0 -0.19108629763E+02  0.33655783285E+01  0.12113873271E+02  0.22873844769E+02  0.00000000000E+00 0. -1.
         -2    1    6    6    0  503 -0.25579756710E+03 -0.16455896790E+02 -0.16564910839E+03  0.30519308476E+03  0.00000000000E+00 0.  1.
<mgrwt>
<rscale>  0 0.17075637E+04</rscale>
<asrwt>0</asrwt>
<pdfrwt beam="1">  1        4 0.11481785E+00 0.17075637E+04</pdfrwt>
<pdfrwt beam="2">  1       -3 0.15026495E+00 0.17075637E+04</pdfrwt>
<totfact> 0.41248354E-01</totfact>
</mgrwt>
</event>
<event>
12    6  0.1494052E-007  0.1413038E+04  0.7818608E-02  0.8944435E-01
         -3   -1    0    0    0  501 -0.00000000000E+00  0.00000000000E+00  0.51123188901E+03  0.51123188901E+03  0.00000000000E+00 0.  1.
          2   -1    0    0  501    0  0.00000000000E+00 -0.00000000000E+00 -0.97640427324E+03  0.97640427324E+03  0.00000000000E+00 0. -1.
         24    2    1    2    0    0  0.41216908726E+03 -0.11444128010E+02 -0.80282689718E+02  0.42771295519E+03  0.80490603223E+02 0.  0.
        254    2    1    2    0    0 -0.41216908726E+03  0.11444128010E+02 -0.38488969450E+03  0.10599232071E+04  0.89737550857E+03 0.  0.
         23    2    4    4    0    0 -0.54688739942E+03 -0.28069491057E+03 -0.11935222891E+03  0.63271601854E+03  0.90604332680E+02 0.  0.
         23    2    4    4    0    0  0.13471831216E+03  0.29213903857E+03 -0.26553746560E+03  0.42720718853E+03  0.92204093201E+02 0.  0.
          2    1    3    3  502    0  0.33605995952E+02  0.20514629258E+02 -0.15528016067E+02  0.42324133311E+02  0.00000000000E+00 0. -1.
         -3    1    3    3    0  502  0.37856309131E+03 -0.31958757268E+02 -0.64754673651E+02  0.38538882188E+03  0.00000000000E+00 0.  1.
         11    1    5    5    0    0 -0.87838543019E+01 -0.23189545394E+02 -0.38793284486E+01  0.25099009964E+02  0.00000000000E+00 0. -1.
        -11    1    5    5    0    0 -0.53810354512E+03 -0.25750536517E+03 -0.11547290046E+03  0.60761700857E+03  0.00000000000E+00 0.  1.
          1    1    6    6  503    0  0.43245305177E+02  0.18657404836E+03 -0.18336533912E+03  0.26514690180E+03  0.00000000000E+00 0. -1.
         -1    1    6    6    0  503  0.91473006984E+02  0.10556499022E+03 -0.82172126475E+02  0.16206028673E+03  0.00000000000E+00 0.  1.
<mgrwt>
<rscale>  0 0.14130379E+04</rscale>
<asrwt>0</asrwt>
<pdfrwt beam="1">  1        2 0.15021604E+00 0.14130379E+04</pdfrwt>
<pdfrwt beam="2">  1       -3 0.78651060E-01 0.14130379E+04</pdfrwt>
<totfact> 0.24332787E+01</totfact>
</mgrwt>
</event>
<event>
12    6  0.1494052E-007  0.3009089E+04  0.7818608E-02  0.8241140E-01
         -1   -1    0    0    0  501 -0.00000000000E+00  0.00000000000E+00  0.62784596078E+03  0.62784596078E+03  0.00000000000E+00 0.  1.
          2   -1    0    0  501    0  0.00000000000E+00 -0.00000000000E+00 -0.36054293945E+04  0.36054293945E+04  0.00000000000E+00 0. -1.
         24    2    1    2    0    0 -0.45242985185E+02 -0.12569238683E+04 -0.59139460385E+03  0.13922124073E+04  0.81260514130E+02 0.  0.
        254    2    1    2    0    0  0.45242985185E+02  0.12569238683E+04 -0.23861888298E+04  0.28410629479E+04  0.89209697016E+03 0.  0.
         23    2    4    4    0    0  0.92909536936E+02  0.13527743873E+04 -0.19100067125E+04  0.23441808302E+04  0.91800861373E+02 0.  0.
         23    2    4    4    0    0 -0.47666551751E+02 -0.95850518985E+02 -0.47618211732E+03  0.49688211769E+03  0.93182658679E+02 0.  0.
          4    1    3    3  502    0 -0.48305938342E+02 -0.97842004494E+03 -0.49427046930E+03  0.10972431567E+04  0.00000000000E+00 0. -1.
         -3    1    3    3    0  502  0.30629531579E+01 -0.27850382336E+03 -0.97124134557E+02  0.29496925064E+03  0.00000000000E+00 0.  1.
         11    1    5    5    0    0  0.65877606410E+02  0.12591202091E+04 -0.17921077630E+04  0.21912037318E+04  0.00000000000E+00 0. -1.
        -11    1    5    5    0    0  0.27031930526E+02  0.93654178230E+02 -0.11789894951E+03  0.15297709849E+03  0.00000000000E+00 0.  1.
          3    1    6    6  503    0 -0.43957426555E+02 -0.10969882272E+02 -0.27170496563E+03  0.27545631598E+03  0.00000000000E+00 0. -1.
         -3    1    6    6    0  503 -0.37091251967E+01 -0.84880636713E+02 -0.20447715169E+03  0.22142580171E+03  0.00000000000E+00 0.  1.
<mgrwt>
<rscale>  0 0.30090891E+04</rscale>
<asrwt>0</asrwt>
<pdfrwt beam="1">  1        2 0.55468144E+00 0.30090891E+04</pdfrwt>
<pdfrwt beam="2">  1       -1 0.96591687E-01 0.30090891E+04</pdfrwt>
<totfact> 0.68515992E-01</totfact>
</mgrwt>
</event>
<event>
12    6  0.1494052E-007  0.2095386E+04  0.7818608E-02  0.8563279E-01
          2   -1    0    0  501    0  0.00000000000E+00  0.00000000000E+00  0.10103458447E+04  0.10103458447E+04  0.00000000000E+00 0. -1.
         -1   -1    0    0    0  501 -0.00000000000E+00 -0.00000000000E+00 -0.10864205041E+04  0.10864205041E+04  0.00000000000E+00 0.  1.
         24    2    1    2    0    0 -0.26669529745E+03  0.77846391176E+03  0.18918908368E+03  0.84851016484E+03  0.83931798812E+02 0.  0.
        254    2    1    2    0    0  0.26669529745E+03 -0.77846391176E+03 -0.26526374303E+03  0.12482561839E+04  0.90035893053E+03 0.  0.
         23    2    4    4    0    0  0.44779990337E+02  0.15147094204E+03  0.11463269188E+03  0.21544313998E+03  0.91249102467E+02 0.  0.
         23    2    4    4    0    0  0.22191530711E+03 -0.92993485381E+03 -0.37989643491E+03  0.10328130440E+04  0.91412508185E+02 0.  0.
          2    1    3    3  502    0 -0.16739388173E+03  0.44945680079E+03  0.69650311781E+02  0.48464759707E+03  0.00000000000E+00 0. -1.
         -3    1    3    3    0  502 -0.99301415725E+02  0.32900711098E+03  0.11953877190E+03  0.36386256777E+03  0.00000000000E+00 0.  1.
         11    1    5    5    0    0  0.57449345892E+02  0.43306908003E+02  0.32004786683E+02  0.78741488396E+02  0.00000000000E+00 0. -1.
        -11    1    5    5    0    0 -0.12669355555E+02  0.10816403404E+03  0.82627905193E+02  0.13670165159E+03  0.00000000000E+00 0.  1.
          3    1    6    6  503    0  0.10184944691E+03 -0.60845029749E+03 -0.23134314860E+03  0.65886624345E+03  0.00000000000E+00 0. -1.
         -3    1    6    6    0  503  0.12006586020E+03 -0.32148455632E+03 -0.14855328631E+03  0.37394680051E+03  0.00000000000E+00 0.  1.
<mgrwt>
<rscale>  0 0.20953858E+04</rscale>
<asrwt>0</asrwt>
<pdfrwt beam="1">  1        2 0.15543782E+00 0.20953858E+04</pdfrwt>
<pdfrwt beam="2">  1       -1 0.16714162E+00 0.20953858E+04</pdfrwt>
<totfact> 0.67381517E+00</totfact>
</mgrwt>
</event>
<event>
12    6  0.1494052E-007  0.1484768E+04  0.7818608E-02  0.8894646E-01
         -1   -1    0    0    0  501 -0.00000000000E+00  0.00000000000E+00  0.24923360478E+03  0.24923360478E+03  0.00000000000E+00 0.  1.
          2   -1    0    0  501    0  0.00000000000E+00 -0.00000000000E+00 -0.22113156557E+04  0.22113156557E+04  0.00000000000E+00 0. -1.
         24    2    1    2    0    0  0.16424013282E+03  0.25548035803E+03 -0.42811914338E+02  0.31628442706E+03  0.77187720690E+02 0.  0.
        254    2    1    2    0    0 -0.16424013282E+03 -0.25548035803E+03 -0.19192701366E+04  0.21442648334E+04  0.90665803042E+03 0.  0.
         23    2    4    4    0    0  0.29983601368E+03 -0.20369805778E+03 -0.13584061078E+04  0.14090062273E+04  0.92934714734E+02 0.  0.
         23    2    4    4    0    0 -0.46407614651E+03 -0.51782300241E+02 -0.56086402881E+03  0.73525860609E+03  0.89379430727E+02 0.  0.
          4    1    3    3  502    0  0.60143242250E+02  0.66330980701E+02  0.19364601530E+02  0.91607840175E+02  0.00000000000E+00 0. -1.
         -3    1    3    3    0  502  0.10409689057E+03  0.18914937732E+03 -0.62176515868E+02  0.22467658688E+03  0.00000000000E+00 0.  1.
         11    1    5    5    0    0  0.10322984863E+02  0.21771219357E+01 -0.98159462692E+01  0.14410297622E+02  0.00000000000E+00 0. -1.
        -11    1    5    5    0    0  0.28951302882E+03 -0.20587517972E+03 -0.13485901615E+04  0.13945959297E+04  0.00000000000E+00 0.  1.
          4    1    6    6  503    0 -0.18256792877E+03 -0.40333737505E+02 -0.28568772140E+03  0.34143130078E+03  0.00000000000E+00 0. -1.
         -4    1    6    6    0  503 -0.28150821774E+03 -0.11448562735E+02 -0.27517630741E+03  0.39382730531E+03  0.00000000000E+00 0.  1.
<mgrwt>
<rscale>  0 0.14847682E+04</rscale>
<asrwt>0</asrwt>
<pdfrwt beam="1">  1        2 0.34020240E+00 0.14847682E+04</pdfrwt>
<pdfrwt beam="2">  1       -1 0.38343632E-01 0.14847682E+04</pdfrwt>
<totfact> 0.36933607E+01</totfact>
</mgrwt>
</event>
<event>
12    6  0.1494052E-007  0.2762610E+04  0.7818608E-02  0.8314971E-01
         -1   -1    0    0    0  501 -0.00000000000E+00  0.00000000000E+00  0.87753241878E+03  0.87753241878E+03  0.00000000000E+00 0.  1.
          2   -1    0    0  501    0  0.00000000000E+00 -0.00000000000E+00 -0.21742829815E+04  0.21742829815E+04  0.00000000000E+00 0. -1.
         24    2    1    2    0    0 -0.66086049330E+03 -0.10173742434E+04 -0.82147901582E+03  0.14673030755E+04  0.79772171339E+02 0.  0.
        254    2    1    2    0    0  0.66086049330E+03  0.10173742434E+04 -0.47527154693E+03  0.15845123248E+04  0.90167029525E+03 0.  0.
         23    2    4    4    0    0  0.41831440808E+03  0.47965875944E+03  0.20915759561E+03  0.67624326427E+03  0.92187760330E+02 0.  0.
         23    2    4    4    0    0  0.24254608523E+03  0.53771548394E+03 -0.68442914254E+03  0.90826906051E+03  0.92427755490E+02 0.  0.
          4    1    3    3  502    0 -0.21391732771E+03 -0.31725089557E+03 -0.21566799530E+03  0.43922823001E+03  0.00000000000E+00 0. -1.
         -3    1    3    3    0  502 -0.44694316559E+03 -0.70012334781E+03 -0.60581102052E+03  0.10280748455E+04  0.00000000000E+00 0.  1.
         11    1    5    5    0    0  0.74499290830E+02  0.53008102131E+02  0.56315250070E+02  0.10738440583E+03  0.00000000000E+00 0. -1.
        -11    1    5    5    0    0  0.34381511724E+03  0.42665065731E+03  0.15284234554E+03  0.56885885844E+03  0.00000000000E+00 0.  1.
          1    1    6    6  503    0  0.13100573129E+02  0.21574481606E+01 -0.25080445804E+02  0.28377955540E+02  0.00000000000E+00 0. -1.
         -1    1    6    6    0  503  0.22944551210E+03  0.53555803578E+03 -0.65934869674E+03  0.87989110497E+03  0.00000000000E+00 0.  1.
<mgrwt>
<rscale>  0 0.27626102E+04</rscale>
<asrwt>0</asrwt>
<pdfrwt beam="1">  1        2 0.33450507E+00 0.27626102E+04</pdfrwt>
<pdfrwt beam="2">  1       -1 0.13500499E+00 0.27626102E+04</pdfrwt>
<totfact> 0.24407799E+00</totfact>
</mgrwt>
</event>
<event>
12    6  0.1494052E-007  0.1237381E+04  0.7818608E-02  0.9080752E-01
         -1   -1    0    0    0  501 -0.00000000000E+00  0.00000000000E+00  0.58928411248E+03  0.58928411248E+03  0.00000000000E+00 0.  1.
          2   -1    0    0  501    0  0.00000000000E+00 -0.00000000000E+00 -0.64956408509E+03  0.64956408509E+03  0.00000000000E+00 0. -1.
         24    2    1    2    0    0  0.88388611468E+02 -0.22667052808E+03 -0.16633829649E+03  0.30343710975E+03  0.72205095108E+02 0.  0.
        254    2    1    2    0    0 -0.88388611468E+02  0.22667052808E+03  0.10605832387E+03  0.93541108781E+03  0.89696904083E+03 0.  0.
         23    2    4    4    0    0 -0.28041390302E+03  0.16239584708E+03 -0.31359204691E+03  0.46049250032E+03  0.93322038176E+02 0.  0.
         23    2    4    4    0    0  0.19202529155E+03  0.64274680994E+02  0.41965037078E+03  0.47491858750E+03  0.91849245176E+02 0.  0.
          4    1    3    3  502    0 -0.91162921228E+01 -0.37080814748E+01 -0.10873751894E+02  0.14666121865E+02  0.00000000000E+00 0. -1.
         -3    1    3    3    0  502  0.97504903591E+02 -0.22296244660E+03 -0.15546454459E+03  0.28877098789E+03  0.00000000000E+00 0.  1.
         11    1    5    5    0    0 -0.19186174808E+03  0.69857911813E+02 -0.22995136315E+03  0.30752022313E+03  0.00000000000E+00 0.  1.
        -11    1    5    5    0    0 -0.88552154933E+02  0.92537935271E+02 -0.83640683754E+02  0.15297227718E+03  0.00000000000E+00 0. -1.
          2    1    6    6  503    0  0.13855063419E+02  0.37936100241E+02  0.10292657444E+03  0.11056667766E+03  0.00000000000E+00 0.  1.
         -2    1    6    6    0  503  0.17817022813E+03  0.26338580753E+02  0.31672379634E+03  0.36435190983E+03  0.00000000000E+00 0. -1.
<mgrwt>
<rscale>  0 0.12373808E+04</rscale>
<asrwt>0</asrwt>
<pdfrwt beam="1">  1        2 0.99932935E-01 0.12373808E+04</pdfrwt>
<pdfrwt beam="2">  1       -1 0.90659095E-01 0.12373808E+04</pdfrwt>
<totfact> 0.60184063E+01</totfact>
</mgrwt>
</event>
<event>
12    6  0.1494052E-007  0.1821379E+04  0.7818608E-02  0.8695012E-01
          2   -1    0    0  501    0  0.00000000000E+00  0.00000000000E+00  0.35997313366E+04  0.35997313366E+04  0.00000000000E+00 0. -1.
         -1   -1    0    0    0  501 -0.00000000000E+00 -0.00000000000E+00 -0.23039375276E+03  0.23039375276E+03  0.00000000000E+00 0.  1.
         24    2    1    2    0    0 -0.38047762372E+03  0.42578733391E+03  0.20486325238E+04  0.21282938909E+04  0.81741009846E+02 0.  0.
        254    2    1    2    0    0  0.38047762372E+03 -0.42578733391E+03  0.13207050601E+04  0.17018311985E+04  0.90879562967E+03 0.  0.
         23    2    4    4    0    0  0.27236061492E+03 -0.28234567260E+03  0.39340069886E+02  0.40469341764E+03  0.91267397148E+02 0.  0.
         23    2    4    4    0    0  0.10811700880E+03 -0.14344166131E+03  0.12813649902E+04  0.12971377808E+04  0.91680895490E+02 0.  0.
          2    1    3    3  502    0 -0.37987490047E+03  0.42157172670E+03  0.19850923154E+04  0.20646111405E+04  0.00000000000E+00 0. -1.
         -1    1    3    3    0  502 -0.60272325419E+00  0.42156072138E+01  0.63540208424E+02  0.63682750459E+02  0.00000000000E+00 0.  1.
         11    1    5    5    0    0  0.21313944149E+03 -0.24425858616E+03  0.63334603050E+02  0.33030584369E+03  0.00000000000E+00 0.  1.
        -11    1    5    5    0    0  0.59221173430E+02 -0.38087086448E+02 -0.23994533164E+02  0.74387573951E+02  0.00000000000E+00 0. -1.
          2    1    6    6  503    0  0.46208038798E+02 -0.52488924044E+02  0.24010939647E+03  0.25008556989E+03  0.00000000000E+00 0. -1.
         -2    1    6    6    0  503  0.61908970002E+02 -0.90952737265E+02  0.10412555937E+04  0.10470522109E+04  0.00000000000E+00 0.  1.
<mgrwt>
<rscale>  0 0.18213793E+04</rscale>
<asrwt>0</asrwt>
<pdfrwt beam="1">  1        2 0.55380478E+00 0.18213793E+04</pdfrwt>
<pdfrwt beam="2">  1       -1 0.35445195E-01 0.18213793E+04</pdfrwt>
<totfact> 0.56720669E+00</totfact>
</mgrwt>
</event>
<event>
12    6  0.1494052E-007  0.1938983E+04  0.7818608E-02  0.8635691E-01
         -1   -1    0    0    0  501 -0.00000000000E+00  0.00000000000E+00  0.30360648189E+03  0.30360648189E+03  0.00000000000E+00 0.  1.
          2   -1    0    0  501    0  0.00000000000E+00 -0.00000000000E+00 -0.30958305560E+04  0.30958305560E+04  0.00000000000E+00 0. -1.
         24    2    1    2    0    0  0.40664478220E+02 -0.40753879838E+03  0.33572051452E+01  0.41626433237E+03  0.74318581810E+02 0.  0.
        254    2    1    2    0    0 -0.40664478220E+02  0.40753879838E+03 -0.27955812792E+04  0.29831727055E+04  0.95723729035E+03 0.  0.
         23    2    4    4    0    0  0.41400492055E+03  0.29039780273E+03 -0.99186628102E+03  0.11171330238E+04  0.91959313289E+02 0.  0.
         23    2    4    4    0    0 -0.45466939877E+03  0.11714099564E+03 -0.18037149982E+04  0.18660396817E+04  0.90939672097E+02 0.  0.
          4    1    3    3  502    0  0.10802246972E+02 -0.45477907896E+01 -0.30751160087E+01  0.12117230673E+02  0.00000000000E+00 0. -1.
         -3    1    3    3    0  502  0.29862231248E+02 -0.40299100759E+03  0.64323211539E+01  0.40414710169E+03  0.00000000000E+00 0.  1.
         11    1    5    5    0    0  0.20469828266E+03  0.14031261329E+03 -0.38727622529E+03  0.45996944578E+03  0.00000000000E+00 0. -1.
        -11    1    5    5    0    0  0.20930663789E+03  0.15008518945E+03 -0.60459005573E+03  0.65716357799E+03  0.00000000000E+00 0.  1.
          1    1    6    6  503    0 -0.39860920664E+03  0.99063593415E+02 -0.14340466675E+04  0.14917079941E+04  0.00000000000E+00 0. -1.
         -1    1    6    6    0  503 -0.56060192129E+02  0.18077402229E+02 -0.36966833070E+03  0.37433168760E+03  0.00000000000E+00 0.  1.
<mgrwt>
<rscale>  0 0.19389835E+04</rscale>
<asrwt>0</asrwt>
<pdfrwt beam="1">  1        2 0.47628164E+00 0.19389835E+04</pdfrwt>
<pdfrwt beam="2">  1       -1 0.46708688E-01 0.19389835E+04</pdfrwt>
<totfact> 0.73730873E+00</totfact>
</mgrwt>
</event>
<event>
12    6  0.1494052E-007  0.1981528E+04  0.7818608E-02  0.8615306E-01
          2   -1    0    0  501    0  0.00000000000E+00  0.00000000000E+00  0.11311733557E+04  0.11311733557E+04  0.00000000000E+00 0. -1.
         -1   -1    0    0    0  501 -0.00000000000E+00 -0.00000000000E+00 -0.86778303129E+03  0.86778303129E+03  0.00000000000E+00 0.  1.
         24    2    1    2    0    0 -0.41700821430E+02 -0.44898977129E+03  0.74118435927E+03  0.87444672480E+03  0.10941684909E+03 0.  0.
        254    2    1    2    0    0  0.41700821430E+02  0.44898977129E+03 -0.47779403481E+03  0.11245096622E+04  0.91263578032E+03 0.  0.
         23    2    4    4    0    0  0.33851534626E+03  0.64431041308E+02 -0.51703303134E+03  0.62771132152E+03  0.89187156727E+02 0.  0.
         23    2    4    4    0    0 -0.29681452483E+03  0.38455872998E+03  0.39238996529E+02  0.49679834071E+03  0.96356699447E+02 0.  0.
          2    1    3    3  502    0 -0.49716719456E+01 -0.12447489458E+03  0.30569434662E+03  0.33010263624E+03  0.00000000000E+00 0. -1.
         -3    1    3    3    0  502 -0.36729149484E+02 -0.32451487672E+03  0.43549001265E+03  0.54434408856E+03  0.00000000000E+00 0.  1.
         11    1    5    5    0    0  0.23824113298E+03  0.28686497955E+02 -0.41975817732E+03  0.48350664942E+03  0.00000000000E+00 0.  1.
        -11    1    5    5    0    0  0.10027421328E+03  0.35744543353E+02 -0.97274854013E+02  0.14420467209E+03  0.00000000000E+00 0. -1.
          4    1    6    6  503    0 -0.17753746911E+03  0.16100468635E+03 -0.42553105950E+01  0.23970850973E+03  0.00000000000E+00 0. -1.
         -4    1    6    6    0  503 -0.11927705572E+03  0.22355404363E+03  0.43494307124E+02  0.25708983099E+03  0.00000000000E+00 0.  1.
<mgrwt>
<rscale>  0 0.19815277E+04</rscale>
<asrwt>0</asrwt>
<pdfrwt beam="1">  1        2 0.17402667E+00 0.19815277E+04</pdfrwt>
<pdfrwt beam="2">  1       -1 0.13350508E+00 0.19815277E+04</pdfrwt>
<totfact> 0.10484431E+01</totfact>
</mgrwt>
</event>
<event>
12    6  0.1494052E-007  0.3624540E+04  0.7818608E-02  0.8084894E-01
          2   -1    0    0  501    0  0.00000000000E+00  0.00000000000E+00  0.15780193335E+04  0.15780193335E+04  0.00000000000E+00 0. -1.
         -1   -1    0    0    0  501 -0.00000000000E+00 -0.00000000000E+00 -0.20812940038E+04  0.20812940038E+04  0.00000000000E+00 0.  1.
         24    2    1    2    0    0  0.44489065109E+03 -0.87250144037E+02 -0.18982897994E+04  0.19533724977E+04  0.81361373070E+02 0.  0.
        254    2    1    2    0    0 -0.44489065109E+03  0.87250144037E+02  0.13950151292E+04  0.17059408396E+04  0.87099176727E+03 0.  0.
         23    2    4    4    0    0 -0.68020249752E+03  0.92950392093E+02  0.79147248434E+03  0.10519115481E+04  0.93669624894E+02 0.  0.
         23    2    4    4    0    0  0.23531184643E+03 -0.57002480557E+01  0.60354264483E+03  0.65402929149E+03  0.89924591191E+02 0.  0.
          2    1    3    3  502    0  0.12160161165E+03 -0.61113612886E+02 -0.58555562221E+03  0.60116321605E+03  0.00000000000E+00 0. -1.
         -1    1    3    3    0  502  0.32328903944E+03 -0.26136531151E+02 -0.13127341772E+04  0.13522092816E+04  0.00000000000E+00 0.  1.
         11    1    5    5    0    0 -0.19597218980E+03  0.10782240967E+02  0.16899056928E+03  0.25899646407E+03  0.00000000000E+00 0. -1.
        -11    1    5    5    0    0 -0.48423030771E+03  0.82168151126E+02  0.62248191505E+03  0.79291508407E+03  0.00000000000E+00 0.  1.
          2    1    6    6  503    0  0.13678750976E+03  0.54120114655E+01  0.23098092614E+03  0.26850009485E+03  0.00000000000E+00 0.  1.
         -2    1    6    6    0  503  0.98524336670E+02 -0.11112259521E+02  0.37256171869E+03  0.38552919664E+03  0.00000000000E+00 0. -1.
<mgrwt>
<rscale>  0 0.36245398E+04</rscale>
<asrwt>0</asrwt>
<pdfrwt beam="1">  1        2 0.24277221E+00 0.36245398E+04</pdfrwt>
<pdfrwt beam="2">  1       -1 0.32019908E+00 0.36245398E+04</pdfrwt>
<totfact> 0.25919019E-01</totfact>
</mgrwt>
</event>
<event>
12    6  0.1494052E-007  0.1165330E+04  0.7818608E-02  0.9143757E-01
          2   -1    0    0  501    0  0.00000000000E+00  0.00000000000E+00  0.31645872374E+03  0.31645872374E+03  0.00000000000E+00 0. -1.
         -1   -1    0    0    0  501 -0.00000000000E+00 -0.00000000000E+00 -0.10728046139E+04  0.10728046139E+04  0.00000000000E+00 0.  1.
         24    2    1    2    0    0  0.24449097644E+01 -0.77797097317E+02 -0.41264903639E+03  0.42729813991E+03  0.79032317447E+02 0.  0.
        254    2    1    2    0    0 -0.24449097644E+01  0.77797097317E+02 -0.34369685381E+03  0.96196519777E+03  0.89509281556E+03 0.  0.
         23    2    4    4    0    0 -0.58369765083E+01 -0.37373604657E+03  0.39564438204E+01  0.38491345036E+03  0.91815075130E+02 0.  0.
         23    2    4    4    0    0  0.33920667439E+01  0.45153314389E+03 -0.34765329763E+03  0.57705174741E+03  0.90731569373E+02 0.  0.
          4    1    3    3  502    0 -0.21509203118E+02  0.47516218522E+01 -0.50618021471E+02  0.55203331663E+02  0.00000000000E+00 0. -1.
         -3    1    3    3    0  502  0.23954112882E+02 -0.82548719169E+02 -0.36203101492E+03  0.37209480825E+03  0.00000000000E+00 0.  1.
         11    1    5    5    0    0  0.35965548099E+02 -0.74247608408E+02  0.12876937208E+01  0.82509915523E+02  0.00000000000E+00 0.  1.
        -11    1    5    5    0    0 -0.41802524608E+02 -0.29948843816E+03  0.26687500996E+01  0.30240353484E+03  0.00000000000E+00 0. -1.
          3    1    6    6  503    0 -0.37245767133E+02  0.28412619625E+03 -0.19248663169E+03  0.34520435389E+03  0.00000000000E+00 0. -1.
         -3    1    6    6    0  503  0.40637833877E+02  0.16740694764E+03 -0.15516666594E+03  0.23184739352E+03  0.00000000000E+00 0.  1.
<mgrwt>
<rscale>  0 0.11653298E+04</rscale>
<asrwt>0</asrwt>
<pdfrwt beam="1">  1        2 0.48685957E-01 0.11653298E+04</pdfrwt>
<pdfrwt beam="2">  1       -1 0.16504687E+00 0.11653298E+04</pdfrwt>
<totfact> 0.31379995E+01</totfact>
</mgrwt>
</event>
<event>
12    6  0.1494052E-007  0.2390164E+04  0.7818608E-02  0.8443195E-01
          2   -1    0    0  501    0  0.00000000000E+00  0.00000000000E+00  0.95205247838E+03  0.95205247838E+03  0.00000000000E+00 0. -1.
         -1   -1    0    0    0  501 -0.00000000000E+00 -0.00000000000E+00 -0.15001499674E+04  0.15001499674E+04  0.00000000000E+00 0.  1.
         24    2    1    2    0    0 -0.17155439840E+03 -0.53313525563E+03  0.64045600454E+03  0.85471116606E+03  0.81750664986E+02 0.  0.
        254    2    1    2    0    0  0.17155439840E+03  0.53313525563E+03 -0.11885534935E+04  0.15974912797E+04  0.90865552840E+03 0.  0.
         23    2    4    4    0    0  0.41209601856E+01  0.38540192851E+02 -0.10418557239E+04  0.10474261819E+04  0.10067734735E+03 0.  0.
         23    2    4    4    0    0  0.16743343821E+03  0.49459506278E+03 -0.14669776960E+03  0.55006509780E+03  0.91614102881E+02 0.  0.
          2    1    3    3  502    0 -0.10540460167E+03 -0.20856582283E+03  0.29092568302E+03  0.37315892800E+03  0.00000000000E+00 0. -1.
         -1    1    3    3    0  502 -0.66149796728E+02 -0.32456943280E+03  0.34953032152E+03  0.48155223806E+03  0.00000000000E+00 0.  1.
         11    1    5    5    0    0  0.15063205634E+02  0.21182630723E+02 -0.10042543996E+04  0.10045907143E+04  0.00000000000E+00 0. -1.
        -11    1    5    5    0    0 -0.10942245449E+02  0.17357562128E+02 -0.37601324285E+02  0.42835467623E+02  0.00000000000E+00 0.  1.
          2    1    6    6  503    0  0.65789302243E+02  0.18297908373E+03 -0.10102268724E+03  0.21912361970E+03  0.00000000000E+00 0.  1.
         -2    1    6    6    0  503  0.10164413597E+03  0.31161597905E+03 -0.45675082365E+02  0.33094147810E+03  0.00000000000E+00 0. -1.
<mgrwt>
<rscale>  0 0.23901644E+04</rscale>
<asrwt>0</asrwt>
<pdfrwt beam="1">  1        2 0.14646961E+00 0.23901644E+04</pdfrwt>
<pdfrwt beam="2">  1       -1 0.23079230E+00 0.23901644E+04</pdfrwt>
<totfact> 0.25901668E+00</totfact>
</mgrwt>
</event>
<event>
12    6  0.1494052E-007  0.2583422E+04  0.7818608E-02  0.8373854E-01
          2   -1    0    0  501    0  0.00000000000E+00  0.00000000000E+00  0.16373251061E+04  0.16373251061E+04  0.00000000000E+00 0. -1.
         -1   -1    0    0    0  501 -0.00000000000E+00 -0.00000000000E+00 -0.10190511008E+04  0.10190511008E+04  0.00000000000E+00 0.  1.
         24    2    1    2    0    0  0.63214720048E+03  0.87284512679E+03  0.62945104491E+03  0.12505841234E+04  0.79267479796E+02 0.  0.
        254    2    1    2    0    0 -0.63214720048E+03 -0.87284512679E+03 -0.11177039660E+02  0.14057920835E+04  0.90258393365E+03 0.  0.
         23    2    4    4    0    0 -0.55182131196E+03 -0.10445760358E+04  0.53204945453E+02  0.11861244711E+04  0.91731346040E+02 0.  0.
         23    2    4    4    0    0 -0.80325888517E+02  0.17173090900E+03 -0.64381985112E+02  0.21966761236E+03  0.90360757191E+02 0.  0.
          4    1    3    3  502    0  0.36924873945E+03  0.53382148326E+03  0.33681771396E+03  0.73127025101E+03  0.00000000000E+00 0. -1.
         -3    1    3    3    0  502  0.26289846103E+03  0.33902364352E+03  0.29263333095E+03  0.51931387240E+03  0.00000000000E+00 0.  1.
         11    1    5    5    0    0 -0.73122743090E+02 -0.11159851972E+03  0.32407381259E+02  0.13730041340E+03  0.00000000000E+00 0. -1.
        -11    1    5    5    0    0 -0.47869856887E+03 -0.93297751607E+03  0.20797564194E+02  0.10488240577E+04  0.00000000000E+00 0.  1.
          3    1    6    6  503    0 -0.10708558868E+02 -0.59538600653E+01  0.90065319214E+01  0.15206554507E+02  0.00000000000E+00 0. -1.
         -3    1    6    6    0  503 -0.69617329648E+02  0.17768476907E+03 -0.73388517034E+02  0.20446105786E+03  0.00000000000E+00 0.  1.
<mgrwt>
<rscale>  0 0.25834225E+04</rscale>
<asrwt>0</asrwt>
<pdfrwt beam="1">  1        2 0.25189617E+00 0.25834225E+04</pdfrwt>
<pdfrwt beam="2">  1       -1 0.15677709E+00 0.25834225E+04</pdfrwt>
<totfact> 0.33150895E+00</totfact>
</mgrwt>
</event>
<event>
12    6  0.1494052E-007  0.1468291E+04  0.7818608E-02  0.8905817E-01
         -1   -1    0    0    0  501 -0.00000000000E+00  0.00000000000E+00  0.34312601750E+03  0.34312601750E+03  0.00000000000E+00 0.  1.
          2   -1    0    0  501    0  0.00000000000E+00 -0.00000000000E+00 -0.15707633691E+04  0.15707633691E+04  0.00000000000E+00 0. -1.
         24    2    1    2    0    0  0.22252059756E+03  0.33921467003E+03 -0.26551110115E+03  0.49119026111E+03  0.78674767703E+02 0.  0.
        254    2    1    2    0    0 -0.22252059756E+03 -0.33921467003E+03 -0.96212625049E+03  0.14226991255E+04  0.96633527888E+03 0.  0.
         23    2    4    4    0    0 -0.17497124455E+03 -0.19827080731E+03 -0.11408455218E+04  0.11745785492E+04  0.90443431384E+02 0.  0.
         23    2    4    4    0    0 -0.47549353006E+02 -0.14094386272E+03  0.17871927126E+03  0.24812057634E+03  0.86585963497E+02 0.  0.
          4    1    3    3  502    0  0.16727839621E+03  0.27371828870E+03 -0.24347219822E+03  0.40271885319E+03  0.00000000000E+00 0. -1.
         -3    1    3    3    0  502  0.55242201344E+02  0.65496381331E+02 -0.22038902930E+02  0.88471407919E+02  0.00000000000E+00 0.  1.
         11    1    5    5    0    0 -0.71907158382E+02 -0.14034618880E+03 -0.55753355420E+03  0.57940603742E+03  0.00000000000E+00 0. -1.
        -11    1    5    5    0    0 -0.10306408617E+03 -0.57924618507E+02 -0.58331196756E+03  0.59517251178E+03  0.00000000000E+00 0.  1.
          3    1    6    6  503    0 -0.12746636840E+02  0.10615099593E+02  0.16057504120E+02  0.23086804211E+02  0.00000000000E+00 0. -1.
         -3    1    6    6    0  503 -0.34802716166E+02 -0.15155896232E+03  0.16266176714E+03  0.22503377213E+03  0.00000000000E+00 0.  1.
<mgrwt>
<rscale>  0 0.14682912E+04</rscale>
<asrwt>0</asrwt>
<pdfrwt beam="1">  1        2 0.24165591E+00 0.14682912E+04</pdfrwt>
<pdfrwt beam="2">  1       -1 0.52788616E-01 0.14682912E+04</pdfrwt>
<totfact> 0.46221613E+01</totfact>
</mgrwt>
</event>
<event>
12    6  0.1494052E-007  0.1415147E+04  0.7818608E-02  0.8942927E-01
          2   -1    0    0  501    0  0.00000000000E+00  0.00000000000E+00  0.46739315462E+03  0.46739315462E+03  0.00000000000E+00 0. -1.
         -1   -1    0    0    0  501 -0.00000000000E+00 -0.00000000000E+00 -0.10711761595E+04  0.10711761595E+04  0.00000000000E+00 0.  1.
         24    2    1    2    0    0  0.32674618705E+03 -0.23270802980E+03 -0.62529598478E+02  0.41349053447E+03  0.78411565014E+02 0.  0.
        254    2    1    2    0    0 -0.32674618705E+03  0.23270802980E+03 -0.54125340640E+03  0.11250787797E+04  0.90107209067E+03 0.  0.
         23    2    4    4    0    0 -0.15817540410E+02  0.50192336364E+03 -0.10677186763E+03  0.52005026078E+03  0.82914320051E+02 0.  0.
         23    2    4    4    0    0 -0.31092864664E+03 -0.26921533384E+03 -0.43448153877E+03  0.60502851887E+03  0.90176392919E+02 0.  0.
          4    1    3    3  502    0  0.15884913907E+03 -0.11776912711E+03 -0.70308306258E+02  0.20987108951E+03  0.00000000000E+00 0. -1.
         -3    1    3    3    0  502  0.16789704798E+03 -0.11493890269E+03  0.77787077797E+01  0.20361944496E+03  0.00000000000E+00 0.  1.
         11    1    5    5    0    0 -0.26245320055E+02  0.18892708142E+03 -0.51706415969E+01  0.19081141070E+03  0.00000000000E+00 0.  1.
        -11    1    5    5    0    0  0.10427779645E+02  0.31299628221E+03 -0.10160122603E+03  0.32923885007E+03  0.00000000000E+00 0. -1.
          3    1    6    6  503    0 -0.23066254536E+03 -0.23049911157E+03 -0.29628432929E+03  0.44058989327E+03  0.00000000000E+00 0. -1.
         -3    1    6    6    0  503 -0.80266101282E+02 -0.38716222262E+02 -0.13819720949E+03  0.16443862561E+03  0.00000000000E+00 0.  1.
<mgrwt>
<rscale>  0 0.14151472E+04</rscale>
<asrwt>0</asrwt>
<pdfrwt beam="1">  1        2 0.71906640E-01 0.14151472E+04</pdfrwt>
<pdfrwt beam="2">  1       -1 0.16479633E+00 0.14151472E+04</pdfrwt>
<totfact> 0.19908845E+01</totfact>
</mgrwt>
</event>
<event>
12    6  0.1494052E-007  0.1219346E+04  0.7818608E-02  0.9096090E-01
         -1   -1    0    0    0  501 -0.00000000000E+00  0.00000000000E+00  0.25654591814E+03  0.25654591814E+03  0.00000000000E+00 0.  1.
          2   -1    0    0  501    0  0.00000000000E+00 -0.00000000000E+00 -0.14488672284E+04  0.14488672284E+04  0.00000000000E+00 0. -1.
         24    2    1    2    0    0 -0.21381999235E+03 -0.10511232009E+03 -0.36961405112E+03  0.44682754450E+03  0.79200497316E+02 0.  0.
        254    2    1    2    0    0  0.21381999235E+03  0.10511232009E+03 -0.82270725912E+03  0.12585856020E+04  0.92218376392E+03 0.  0.
         23    2    4    4    0    0 -0.33735561186E+03  0.13318473194E+03 -0.45666924417E+03  0.59006340539E+03  0.89894616829E+02 0.  0.
         23    2    4    4    0    0  0.55117560422E+03 -0.28072411846E+02 -0.36603801495E+03  0.66852219662E+03  0.91408380367E+02 0.  0.
          4    1    3    3  502    0 -0.10855038009E+03 -0.76361933873E+02 -0.26130219259E+03  0.29307535860E+03  0.00000000000E+00 0. -1.
         -3    1    3    3    0  502 -0.10526961226E+03 -0.28750386220E+02 -0.10831185853E+03  0.15375218591E+03  0.00000000000E+00 0.  1.
         11    1    5    5    0    0 -0.22513432553E+03  0.63698382489E+02 -0.34670331876E+03  0.41826563295E+03  0.00000000000E+00 0.  1.
        -11    1    5    5    0    0 -0.11222128634E+03  0.69486349450E+02 -0.10996592541E+03  0.17179777245E+03  0.00000000000E+00 0. -1.
          1    1    6    6  503    0  0.31056514645E+03 -0.45898548428E+02 -0.24715328795E+03  0.39955241794E+03  0.00000000000E+00 0. -1.
         -1    1    6    6    0  503  0.24061045777E+03  0.17826136582E+02 -0.11888472700E+03  0.26896977869E+03  0.00000000000E+00 0.  1.
<mgrwt>
<rscale>  0 0.12193457E+04</rscale>
<asrwt>0</asrwt>
<pdfrwt beam="1">  1        2 0.22290265E+00 0.12193457E+04</pdfrwt>
<pdfrwt beam="2">  1       -1 0.39468603E-01 0.12193457E+04</pdfrwt>
<totfact> 0.95076221E+01</totfact>
</mgrwt>
</event>
<event>
12    6  0.1494052E-007  0.3040794E+04  0.7818608E-02  0.8232177E-01
          2   -1    0    0  501    0  0.00000000000E+00  0.00000000000E+00  0.25580371986E+04  0.25580371986E+04  0.00000000000E+00 0. -1.
         -1   -1    0    0    0  501 -0.00000000000E+00 -0.00000000000E+00 -0.90366439128E+03  0.90366439128E+03  0.00000000000E+00 0.  1.
         24    2    1    2    0    0  0.15768887123E+03 -0.13409523516E+04  0.40678898223E+03  0.14123965698E+04  0.79798527043E+02 0.  0.
        254    2    1    2    0    0 -0.15768887123E+03  0.13409523516E+04  0.12475838251E+04  0.20493050201E+04  0.90563054030E+03 0.  0.
         23    2    4    4    0    0 -0.80838506229E+02  0.91931672524E+03  0.25126322696E+03  0.96095554830E+03  0.92866846569E+02 0.  0.
         23    2    4    4    0    0 -0.76850364996E+02  0.42163562633E+03  0.99632059813E+03  0.10883494718E+04  0.90372886017E+02 0.  0.
          4    1    3    3  502    0  0.14490343086E+03 -0.10122283285E+04  0.33125080650E+03  0.10748629168E+04  0.00000000000E+00 0. -1.
         -3    1    3    3    0  502  0.12785440365E+02 -0.32872402311E+03  0.75538175738E+02  0.33753365292E+03  0.00000000000E+00 0.  1.
         11    1    5    5    0    0  0.12625465575E+02  0.16105201645E+03  0.68034524572E+02  0.17528790865E+03  0.00000000000E+00 0. -1.
        -11    1    5    5    0    0 -0.93463971805E+02  0.75826470879E+03  0.18322870238E+03  0.78566763966E+03  0.00000000000E+00 0.  1.
          1    1    6    6  503    0  0.10218588058E+02  0.90936208397E+01  0.15087886584E+02  0.20365603439E+02  0.00000000000E+00 0. -1.
         -1    1    6    6    0  503 -0.87068953053E+02  0.41254200549E+03  0.98123271155E+03  0.10679838684E+04  0.00000000000E+00 0.  1.
<mgrwt>
<rscale>  0 0.30407941E+04</rscale>
<asrwt>0</asrwt>
<pdfrwt beam="1">  1        2 0.39354418E+00 0.30407941E+04</pdfrwt>
<pdfrwt beam="2">  1       -1 0.13902529E+00 0.30407941E+04</pdfrwt>
<totfact> 0.13326877E+00</totfact>
</mgrwt>
</event>
<event>
12    6  0.1494052E-007  0.2521316E+04  0.7818608E-02  0.8395431E-01
         -1   -1    0    0    0  501 -0.00000000000E+00  0.00000000000E+00  0.39272780354E+03  0.39272780354E+03  0.00000000000E+00 0.  1.
          2   -1    0    0  501    0  0.00000000000E+00 -0.00000000000E+00 -0.40467176616E+04  0.40467176616E+04  0.00000000000E+00 0. -1.
         24    2    1    2    0    0 -0.84089021935E+03 -0.44031536461E+03 -0.25712339916E+04  0.27420149587E+04  0.80173641404E+02 0.  0.
        254    2    1    2    0    0  0.84089021935E+03  0.44031536461E+03 -0.10827558665E+04  0.16974305065E+04  0.89885264457E+03 0.  0.
         23    2    4    4    0    0 -0.14475378012E+03  0.17464548197E+03 -0.65383400885E+02  0.25328859508E+03  0.91790097799E+02 0.  0.
         23    2    4    4    0    0  0.98564399948E+03  0.26566988264E+03 -0.10173724656E+04  0.14441419114E+04  0.91785327204E+02 0.  0.
          4    1    3    3  502    0 -0.67732402460E+03 -0.32889653351E+03 -0.21001528045E+04  0.22310496557E+04  0.00000000000E+00 0. -1.
         -3    1    3    3    0  502 -0.16356619476E+03 -0.11141883110E+03 -0.47108118707E+03  0.51096530293E+03  0.00000000000E+00 0.  1.
         11    1    5    5    0    0 -0.45034004098E+02  0.18641416376E+01 -0.87664388194E+01  0.45917175422E+02  0.00000000000E+00 0. -1.
        -11    1    5    5    0    0 -0.99719776024E+02  0.17278134033E+03 -0.56616962065E+02  0.20737141966E+03  0.00000000000E+00 0.  1.
          4    1    6    6  503    0  0.20305827104E+03  0.75380740988E+02 -0.17248253294E+03  0.27688470835E+03  0.00000000000E+00 0. -1.
         -4    1    6    6    0  503  0.78258572843E+03  0.19028914166E+03 -0.84488993269E+03  0.11672572031E+04  0.00000000000E+00 0.  1.
<mgrwt>
<rscale>  0 0.25213160E+04</rscale>
<asrwt>0</asrwt>
<pdfrwt beam="1">  1        2 0.62257197E+00 0.25213160E+04</pdfrwt>
<pdfrwt beam="2">  1       -1 0.60419660E-01 0.25213160E+04</pdfrwt>
<totfact> 0.88435995E-01</totfact>
</mgrwt>
</event>
<event>
12    6  0.1494052E-007  0.1508315E+04  0.7818608E-02  0.8878942E-01
          2   -1    0    0  501    0  0.00000000000E+00  0.00000000000E+00  0.30778224170E+04  0.30778224170E+04  0.00000000000E+00 0. -1.
         -1   -1    0    0    0  501 -0.00000000000E+00 -0.00000000000E+00 -0.18479099044E+03  0.18479099044E+03  0.00000000000E+00 0.  1.
         24    2    1    2    0    0 -0.47662001491E+02 -0.15672740498E+03 -0.41322464503E+02  0.18656553603E+03  0.79145481901E+02 0.  0.
        254    2    1    2    0    0  0.47662001491E+02  0.15672740498E+03  0.29343538911E+04  0.30760478714E+04  0.90818643644E+03 0.  0.
         23    2    4    4    0    0 -0.81883520197E+02  0.10934196867E+02 -0.97986132163E+01  0.12407198830E+03  0.92050952846E+02 0.  0.
         23    2    4    4    0    0  0.12954552169E+03  0.14579320811E+03  0.29441525043E+04  0.29519758831E+04  0.89944117371E+02 0.  0.
          4    1    3    3  502    0  0.85007758491E+01 -0.10479635506E+03 -0.18632535203E+02  0.10677879280E+03  0.00000000000E+00 0. -1.
         -3    1    3    3    0  502 -0.56162777340E+02 -0.51931049923E+02 -0.22689929300E+02  0.79786743237E+02  0.00000000000E+00 0.  1.
         11    1    5    5    0    0 -0.52143627574E+02 -0.37607684627E+02  0.71188360759E+01  0.64683642960E+02  0.00000000000E+00 0.  1.
        -11    1    5    5    0    0 -0.29739892623E+02  0.48541881494E+02 -0.16917449292E+02  0.59388345344E+02  0.00000000000E+00 0. -1.
          3    1    6    6  503    0  0.27578210603E+02 -0.65456951587E+01  0.59867587487E+03  0.59934648324E+03  0.00000000000E+00 0. -1.
         -3    1    6    6    0  503  0.10196731108E+03  0.15233890327E+03  0.23454766294E+04  0.23526293999E+04  0.00000000000E+00 0.  1.
<mgrwt>
<rscale>  0 0.15083154E+04</rscale>
<asrwt>0</asrwt>
<pdfrwt beam="1">  1        2 0.47351111E+00 0.15083154E+04</pdfrwt>
<pdfrwt beam="2">  1       -1 0.28429385E-01 0.15083154E+04</pdfrwt>
<totfact> 0.19322639E+01</totfact>
</mgrwt>
</event>
<event>
12    6  0.1494052E-007  0.1385462E+04  0.7818608E-02  0.8964410E-01
         -1   -1    0    0    0  501 -0.00000000000E+00  0.00000000000E+00  0.70489918907E+03  0.70489918907E+03  0.00000000000E+00 0.  1.
          2   -1    0    0  501    0  0.00000000000E+00 -0.00000000000E+00 -0.68077269579E+03  0.68077269579E+03  0.00000000000E+00 0. -1.
         24    2    1    2    0    0  0.37733713112E+03 -0.11771744437E+03 -0.44556553526E+02  0.40547784862E+03  0.78652984871E+02 0.  0.
        254    2    1    2    0    0 -0.37733713112E+03  0.11771744437E+03  0.68683046808E+02  0.98019403624E+03  0.89432783728E+03 0.  0.
         23    2    4    4    0    0 -0.28608647540E+03 -0.36327722325E+03 -0.30568006277E+02  0.47241303010E+03  0.91781564970E+02 0.  0.
         23    2    4    4    0    0 -0.91250655724E+02  0.48099466762E+03  0.99251053085E+02  0.50778100614E+03  0.91149471807E+02 0.  0.
          2    1    3    3  502    0  0.10328546715E+03 -0.23087873435E+02 -0.46359525312E+02  0.11554281982E+03  0.00000000000E+00 0. -1.
         -1    1    3    3    0  502  0.27405166397E+03 -0.94629570935E+02  0.18029717862E+01  0.28993502881E+03  0.00000000000E+00 0.  1.
         11    1    5    5    0    0 -0.89117829243E+02 -0.13873810694E+03  0.30117734105E+02  0.16762257519E+03  0.00000000000E+00 0. -1.
        -11    1    5    5    0    0 -0.19696864615E+03 -0.22453911631E+03 -0.60685740382E+02  0.30479045492E+03  0.00000000000E+00 0.  1.
          1    1    6    6  503    0  0.69349178386E+01  0.10970947302E+03 -0.43161842231E+01  0.11001314013E+03  0.00000000000E+00 0. -1.
         -1    1    6    6    0  503 -0.98185573563E+02  0.37128519460E+03  0.10356723731E+03  0.39776786600E+03  0.00000000000E+00 0.  1.
<mgrwt>
<rscale>  0 0.13854618E+04</rscale>
<asrwt>0</asrwt>
<pdfrwt beam="1">  1        2 0.10473426E+00 0.13854618E+04</pdfrwt>
<pdfrwt beam="2">  1       -1 0.10844603E+00 0.13854618E+04</pdfrwt>
<totfact> 0.37297469E+01</totfact>
</mgrwt>
</event>
<event>
12    6  0.2190119E-007  0.2137443E+04  0.7818608E-02  0.8544927E-01
          2   -1    0    0  501    0  0.00000000000E+00  0.00000000000E+00  0.27774056899E+04  0.27774056899E+04  0.00000000000E+00 0. -1.
         -1   -1    0    0    0  501 -0.00000000000E+00 -0.00000000000E+00 -0.41123465351E+03  0.41123465351E+03  0.00000000000E+00 0.  1.
         24    2    1    2    0    0  0.44350313705E+03  0.32873925253E+03  0.20103068684E+04  0.20862944701E+04  0.80786027899E+02 0.  0.
        254    2    1    2    0    0 -0.44350313705E+03 -0.32873925253E+03  0.35586416804E+03  0.11023458733E+04  0.88530367082E+03 0.  0.
         23    2    4    4    0    0 -0.30378135019E+02 -0.47996255653E+03  0.42427855483E+03  0.64795466669E+03  0.92444963323E+02 0.  0.
         23    2    4    4    0    0 -0.41312500203E+03  0.15122330400E+03 -0.68414386788E+02  0.45439120661E+03  0.90829980464E+02 0.  0.
          4    1    3    3  502    0  0.43588515056E+03  0.33096784941E+03  0.19459245509E+04  0.20214247302E+04  0.00000000000E+00 0. -1.
         -3    1    3    3    0  502  0.76179864904E+01 -0.22285968803E+01  0.64382317465E+02  0.64869739975E+02  0.00000000000E+00 0.  1.
         11    1    5    5    0    0 -0.41227887184E+00 -0.28037475121E+03  0.30149539435E+03  0.41171548903E+03  0.00000000000E+00 0. -1.
        -11    1    5    5    0    0 -0.29965856147E+02 -0.19958780532E+03  0.12278316047E+03  0.23623917766E+03  0.00000000000E+00 0.  1.
          1    1    6    6  503    0 -0.34188863223E+03  0.11449484171E+03 -0.89547286151E+02  0.37150453844E+03  0.00000000000E+00 0. -1.
         -1    1    6    6    0  503 -0.71236369797E+02  0.36728462296E+02  0.21132899363E+02  0.82886668168E+02  0.00000000000E+00 0.  1.
<mgrwt>
<rscale>  0 0.21374428E+04</rscale>
<asrwt>0</asrwt>
<pdfrwt beam="1">  1        2 0.42729317E+00 0.21374428E+04</pdfrwt>
<pdfrwt beam="2">  1       -1 0.63266871E-01 0.21374428E+04</pdfrwt>
<totfact> 0.63272219E+00</totfact>
</mgrwt>
</event>
<event>
12    6  0.1884302E-007  0.2485403E+04  0.7818608E-02  0.8408204E-01
         -3   -1    0    0    0  501 -0.00000000000E+00  0.00000000000E+00  0.11547684604E+04  0.11547684604E+04  0.00000000000E+00 0.  1.
          4   -1    0    0  501    0  0.00000000000E+00 -0.00000000000E+00 -0.13373304180E+04  0.13373304180E+04  0.00000000000E+00 0. -1.
         24    2    1    2    0    0  0.10168528024E+02 -0.78352089693E+03 -0.85348905292E+03  0.11614627817E+04  0.80893974036E+02 0.  0.
        254    2    1    2    0    0 -0.10168528024E+02  0.78352089693E+03  0.67092709529E+03  0.13306360967E+04  0.84050036267E+03 0.  0.
         23    2    4    4    0    0  0.23140708286E+03  0.18521029593E+03  0.60024106888E+03  0.67572394108E+03  0.91985934089E+02 0.  0.
         23    2    4    4    0    0 -0.24157561088E+03  0.59831060099E+03  0.70686026409E+02  0.65491215557E+03  0.87057832222E+02 0.  0.
          4    1    3    3  502    0  0.16916731359E+02 -0.77464207797E+03 -0.82996293800E+03  0.11354272338E+04  0.00000000000E+00 0. -1.
         -3    1    3    3    0  502 -0.67482033355E+01 -0.88788189534E+01 -0.23526114915E+02  0.26035547954E+02  0.00000000000E+00 0.  1.
         11    1    5    5    0    0  0.52244629823E+01  0.39568719922E+02  0.10131378487E+03  0.10889197222E+03  0.00000000000E+00 0. -1.
        -11    1    5    5    0    0  0.22618261987E+03  0.14564157601E+03  0.49892728401E+03  0.56683196886E+03  0.00000000000E+00 0.  1.
          1    1    6    6  503    0 -0.10594900386E+02  0.77659568135E+02  0.29823056853E+02  0.83861046721E+02  0.00000000000E+00 0. -1.
         -1    1    6    6    0  503 -0.23098071049E+03  0.52065103286E+03  0.40862969556E+02  0.57105110885E+03  0.00000000000E+00 0.  1.
<mgrwt>
<rscale>  0 0.24854030E+04</rscale>
<asrwt>0</asrwt>
<pdfrwt beam="1">  1        4 0.20574314E+00 0.24854030E+04</pdfrwt>
<pdfrwt beam="2">  1       -3 0.17765669E+00 0.24854030E+04</pdfrwt>
<totfact> 0.50272957E-02</totfact>
</mgrwt>
</event>
<event>
12    6  0.1494052E-007  0.1355532E+04  0.7818608E-02  0.8986651E-01
         -1   -1    0    0    0  501 -0.00000000000E+00  0.00000000000E+00  0.45896517875E+03  0.45896517875E+03  0.00000000000E+00 0.  1.
          2   -1    0    0  501    0  0.00000000000E+00 -0.00000000000E+00 -0.10008744372E+04  0.10008744372E+04  0.00000000000E+00 0. -1.
         24    2    1    2    0    0 -0.15555759025E+03 -0.19137877033E+03  0.14414666818E+03  0.29697451632E+03  0.81188692468E+02 0.  0.
        254    2    1    2    0    0  0.15555759025E+03  0.19137877033E+03 -0.68605592659E+03  0.11628650996E+04  0.90595723288E+03 0.  0.
         23    2    4    4    0    0 -0.21837477376E+03  0.38873204196E+03 -0.16082072253E+03  0.48266855570E+03  0.91134447929E+02 0.  0.
         23    2    4    4    0    0  0.37393236400E+03 -0.19735327164E+03 -0.52523520405E+03  0.68019654389E+03  0.89563341061E+02 0.  0.
          4    1    3    3  502    0 -0.13479450926E+03 -0.10531803788E+03  0.97885449509E+02  0.19708630104E+03  0.00000000000E+00 0. -1.
         -3    1    3    3    0  502 -0.20763080984E+02 -0.86060732444E+02  0.46261218666E+02  0.99888215287E+02  0.00000000000E+00 0.  1.
         11    1    5    5    0    0 -0.48659761232E+02  0.17790089681E+03 -0.64996851721E+02  0.19555329755E+03  0.00000000000E+00 0. -1.
        -11    1    5    5    0    0 -0.16971501252E+03  0.21083114515E+03 -0.95823870813E+02  0.28711525815E+03  0.00000000000E+00 0.  1.
          3    1    6    6  503    0  0.14638886654E+03 -0.11010621046E+03 -0.17359020294E+03  0.25236211361E+03  0.00000000000E+00 0. -1.
         -3    1    6    6    0  503  0.22754349746E+03 -0.87247061178E+02 -0.35164500111E+03  0.42783443027E+03  0.00000000000E+00 0.  1.
<mgrwt>
<rscale>  0 0.13555317E+04</rscale>
<asrwt>0</asrwt>
<pdfrwt beam="1">  1        2 0.15398068E+00 0.13555317E+04</pdfrwt>
<pdfrwt beam="2">  1       -1 0.70610028E-01 0.13555317E+04</pdfrwt>
<totfact> 0.56801737E+01</totfact>
</mgrwt>
</event>
<event>
12    6  0.1494052E-007  0.1155155E+04  0.7818608E-02  0.9153041E-01
         -1   -1    0    0    0  501 -0.00000000000E+00  0.00000000000E+00  0.37641534791E+03  0.37641534791E+03  0.00000000000E+00 0.  1.
          2   -1    0    0  501    0  0.00000000000E+00 -0.00000000000E+00 -0.88624307711E+03  0.88624307711E+03  0.00000000000E+00 0. -1.
         24    2    1    2    0    0 -0.66766559082E+02 -0.64808157132E+02  0.12018425819E+03  0.17152065280E+03  0.79480864226E+02 0.  0.
        254    2    1    2    0    0  0.66766559082E+02  0.64808157132E+02 -0.63001198739E+03  0.10911377722E+04  0.88600714616E+03 0.  0.
         23    2    4    4    0    0  0.12342765151E+03  0.15171070045E+03  0.17265712183E+03  0.27597644544E+03  0.90011082270E+02 0.  0.
         23    2    4    4    0    0 -0.56661092431E+02 -0.86902543320E+02 -0.80266910923E+03  0.81516132677E+03  0.97199579848E+02 0.  0.
          4    1    3    3  502    0  0.22057684734E+01  0.15544468304E+02  0.22606492480E+02  0.27523615526E+02  0.00000000000E+00 0. -1.
         -3    1    3    3    0  502 -0.68972327555E+02 -0.80352625436E+02  0.97577765714E+02  0.14399703728E+03  0.00000000000E+00 0.  1.
         11    1    5    5    0    0  0.20931037675E+02  0.15342177060E+02  0.75102029703E+02  0.79459458850E+02  0.00000000000E+00 0. -1.
        -11    1    5    5    0    0  0.10249661384E+03  0.13636852339E+03  0.97555092128E+02  0.19651698659E+03  0.00000000000E+00 0.  1.
          2    1    6    6  503    0 -0.63386638834E+02 -0.12693588119E+02 -0.29091248345E+03  0.29800850020E+03  0.00000000000E+00 0. -1.
         -2    1    6    6    0  503  0.67255464034E+01 -0.74208955201E+02 -0.51175662578E+03  0.51715282657E+03  0.00000000000E+00 0.  1.
<mgrwt>
<rscale>  0 0.11551545E+04</rscale>
<asrwt>0</asrwt>
<pdfrwt beam="1">  1        2 0.13634509E+00 0.11551545E+04</pdfrwt>
<pdfrwt beam="2">  1       -1 0.57910055E-01 0.11551545E+04</pdfrwt>
<totfact> 0.10219620E+02</totfact>
</mgrwt>
</event>
<event>
12    6  0.1494052E-007  0.1537205E+04  0.7818608E-02  0.8860082E-01
          2   -1    0    0  501    0  0.00000000000E+00  0.00000000000E+00  0.11165810441E+04  0.11165810441E+04  0.00000000000E+00 0. -1.
         -1   -1    0    0    0  501 -0.00000000000E+00 -0.00000000000E+00 -0.52906998215E+03  0.52906998215E+03  0.00000000000E+00 0.  1.
         24    2    1    2    0    0  0.55892143165E+02  0.18562858783E+02 -0.33562494563E+03  0.34977548447E+03  0.78932084853E+02 0.  0.
        254    2    1    2    0    0 -0.55892143165E+02 -0.18562858783E+02  0.92313600762E+03  0.12958755418E+04  0.90754879754E+03 0.  0.
         23    2    4    4    0    0  0.16958612296E+03 -0.35662169708E+03  0.18032085570E+03  0.44390724628E+03  0.92733728322E+02 0.  0.
         23    2    4    4    0    0 -0.22547826612E+03  0.33805883829E+03  0.74281515191E+03  0.85196829553E+03  0.94611838823E+02 0.  0.
          2    1    3    3  502    0  0.52835731553E+02  0.11234085535E+02 -0.97061653040E+02  0.11108007786E+03  0.00000000000E+00 0. -1.
         -1    1    3    3    0  502  0.30564116116E+01  0.73287732480E+01 -0.23856329259E+03  0.23869540661E+03  0.00000000000E+00 0.  1.
         11    1    5    5    0    0  0.94512449407E+02 -0.24600292517E+03  0.75824687231E+02  0.27422513648E+03  0.00000000000E+00 0.  1.
        -11    1    5    5    0    0  0.75073673552E+02 -0.11061877191E+03  0.10449616847E+03  0.16968210980E+03  0.00000000000E+00 0. -1.
          3    1    6    6  503    0 -0.19677150274E+03  0.32910396452E+03  0.71331230395E+03  0.80984127255E+03  0.00000000000E+00 0. -1.
         -3    1    6    6    0  503 -0.28706763380E+02  0.89548737789E+01  0.29502847960E+02  0.42127022989E+02  0.00000000000E+00 0.  1.
<mgrwt>
<rscale>  0 0.15372046E+04</rscale>
<asrwt>0</asrwt>
<pdfrwt beam="1">  1        2 0.17178170E+00 0.15372046E+04</pdfrwt>
<pdfrwt beam="2">  1       -1 0.81395382E-01 0.15372046E+04</pdfrwt>
<totfact> 0.35158297E+01</totfact>
</mgrwt>
</event>
<event>
12    6  0.1494052E-007  0.2175638E+04  0.7818608E-02  0.8528637E-01
          2   -1    0    0  501    0  0.00000000000E+00  0.00000000000E+00  0.20342363990E+04  0.20342363990E+04  0.00000000000E+00 0. -1.
         -1   -1    0    0    0  501 -0.00000000000E+00 -0.00000000000E+00 -0.58171691764E+03  0.58171691764E+03  0.00000000000E+00 0.  1.
         24    2    1    2    0    0 -0.87453604847E+03 -0.25462208566E+03  0.28372502686E+03  0.95720711603E+03  0.78101635927E+02 0.  0.
        254    2    1    2    0    0  0.87453604847E+03  0.25462208566E+03  0.11687944545E+04  0.16587462006E+04  0.74546145076E+03 0.  0.
         23    2    4    4    0    0 -0.21749759151E+02  0.36801694860E+02 -0.56299566433E+02  0.12256476418E+03  0.10012523893E+03 0.  0.
         23    2    4    4    0    0  0.89628580762E+03  0.21782039080E+03  0.12250940209E+04  0.15361814364E+04  0.90686679762E+02 0.  0.
          2    1    3    3  502    0 -0.46568821992E+03 -0.12972529112E+03  0.19089323161E+03  0.51974454803E+03  0.00000000000E+00 0. -1.
         -1    1    3    3    0  502 -0.40884782855E+03 -0.12489679454E+03  0.92831795249E+02  0.43746256800E+03  0.00000000000E+00 0.  1.
         11    1    5    5    0    0 -0.56509936550E+02  0.43141630982E+02 -0.25003699338E+02  0.75364170753E+02  0.00000000000E+00 0.  1.
        -11    1    5    5    0    0  0.34760177399E+02 -0.63399361225E+01 -0.31295867095E+02  0.47200593430E+02  0.00000000000E+00 0. -1.
          2    1    6    6  503    0  0.23296007623E+02  0.69362676037E+01  0.62763614398E+02  0.67305921521E+02  0.00000000000E+00 0. -1.
         -2    1    6    6    0  503  0.87298980000E+03  0.21088412319E+03  0.11623304065E+04  0.14688755149E+04  0.00000000000E+00 0.  1.
<mgrwt>
<rscale>  0 0.21756376E+04</rscale>
<asrwt>0</asrwt>
<pdfrwt beam="1">  1        2 0.31295944E+00 0.21756376E+04</pdfrwt>
<pdfrwt beam="2">  1       -1 0.89494912E-01 0.21756376E+04</pdfrwt>
<totfact> 0.81520841E+00</totfact>
</mgrwt>
</event>
<event>
12    6  0.1494052E-007  0.2833114E+04  0.7818608E-02  0.8293061E-01
          2   -1    0    0  501    0  0.00000000000E+00  0.00000000000E+00  0.23512861148E+04  0.23512861148E+04  0.00000000000E+00 0. -1.
         -1   -1    0    0    0  501 -0.00000000000E+00 -0.00000000000E+00 -0.85341957473E+03  0.85341957473E+03  0.00000000000E+00 0.  1.
         24    2    1    2    0    0 -0.15562722082E+03  0.96620744761E+03 -0.23720660391E+03  0.10101763555E+04  0.80078914737E+02 0.  0.
        254    2    1    2    0    0  0.15562722082E+03 -0.96620744761E+03  0.17350731440E+04  0.21945293340E+04  0.92070816186E+03 0.  0.
         23    2    4    4    0    0  0.41359392108E+03 -0.93441055220E+03  0.11095371283E+04  0.15110551547E+04  0.89621591903E+02 0.  0.
         23    2    4    4    0    0 -0.25796670026E+03 -0.31796895409E+02  0.62553601565E+03  0.68347417935E+03  0.91015306214E+02 0.  0.
          4    1    3    3  502    0 -0.94550106683E+02  0.35106842752E+03 -0.97453029829E+02  0.37641181769E+03  0.00000000000E+00 0. -1.
         -3    1    3    3    0  502 -0.61077114135E+02  0.61513902009E+03 -0.13975357408E+03  0.63376453780E+03  0.00000000000E+00 0.  1.
         11    1    5    5    0    0  0.31710559185E+03 -0.75644204320E+03  0.84090925678E+03  0.11746867239E+04  0.00000000000E+00 0.  1.
        -11    1    5    5    0    0  0.96488329227E+02 -0.17796850900E+03  0.26862787154E+03  0.33636843080E+03  0.00000000000E+00 0. -1.
          1    1    6    6  503    0 -0.10580337192E+03  0.14800768493E+02  0.16838702541E+03  0.19941817014E+03  0.00000000000E+00 0. -1.
         -1    1    6    6    0  503 -0.15216332834E+03 -0.46597663903E+02  0.45714899024E+03  0.48405600921E+03  0.00000000000E+00 0.  1.
<mgrwt>
<rscale>  0 0.28331139E+04</rscale>
<asrwt>0</asrwt>
<pdfrwt beam="1">  1        2 0.36173632E+00 0.28331139E+04</pdfrwt>
<pdfrwt beam="2">  1       -1 0.13129532E+00 0.28331139E+04</pdfrwt>
<totfact> 0.20681380E+00</totfact>
</mgrwt>
</event>
<event>
12    6  0.1494052E-007  0.1567262E+04  0.7818608E-02  0.8840917E-01
         -1   -1    0    0    0  501 -0.00000000000E+00  0.00000000000E+00  0.30871919837E+03  0.30871919837E+03  0.00000000000E+00 0.  1.
          2   -1    0    0  501    0  0.00000000000E+00 -0.00000000000E+00 -0.19891130350E+04  0.19891130350E+04  0.00000000000E+00 0. -1.
         24    2    1    2    0    0 -0.52361079154E+03 -0.29231666333E+02 -0.56947134755E+03  0.77815138167E+03  0.78735035279E+02 0.  0.
        254    2    1    2    0    0  0.52361079154E+03  0.29231666333E+02 -0.11109224891E+04  0.15196808517E+04  0.89457160860E+03 0.  0.
         23    2    4    4    0    0 -0.23684583456E+02  0.10933064827E+03  0.10690332175E+03  0.17899254364E+03  0.89976998911E+02 0.  0.
         23    2    4    4    0    0  0.54729537500E+03 -0.80098981936E+02 -0.12178258108E+04  0.13406883081E+04  0.91637107073E+02 0.  0.
          4    1    3    3  502    0 -0.21431733786E+03 -0.98151617381E+01 -0.17736198241E+03  0.27836223076E+03  0.00000000000E+00 0. -1.
         -3    1    3    3    0  502 -0.30929345368E+03 -0.19416504595E+02 -0.39210936514E+03  0.49978915091E+03  0.00000000000E+00 0.  1.
         11    1    5    5    0    0 -0.20996661304E+02  0.96700691559E+02  0.33513008343E+02  0.10447490255E+03  0.00000000000E+00 0. -1.
        -11    1    5    5    0    0 -0.26879221523E+01  0.12629956711E+02  0.73390313411E+02  0.74517641096E+02  0.00000000000E+00 0.  1.
          3    1    6    6  503    0  0.25648088872E+03 -0.46769576490E+02 -0.68178042448E+03  0.72992765858E+03  0.00000000000E+00 0.  1.
         -3    1    6    6    0  503  0.29081448628E+03 -0.33329405446E+02 -0.53604538636E+03  0.61076064947E+03  0.00000000000E+00 0. -1.
<mgrwt>
<rscale>  0 0.15672618E+04</rscale>
<asrwt>0</asrwt>
<pdfrwt beam="1">  1        2 0.30601738E+00 0.15672618E+04</pdfrwt>
<pdfrwt beam="2">  1       -1 0.47495263E-01 0.15672618E+04</pdfrwt>
<totfact> 0.32836403E+01</totfact>
</mgrwt>
</event>
<event>
12    6  0.1494052E-007  0.1667782E+04  0.7818608E-02  0.8779956E-01
         -1   -1    0    0    0  501 -0.00000000000E+00  0.00000000000E+00  0.17478901889E+03  0.17478901889E+03  0.00000000000E+00 0.  1.
          2   -1    0    0  501    0  0.00000000000E+00 -0.00000000000E+00 -0.39783646727E+04  0.39783646727E+04  0.00000000000E+00 0. -1.
         24    2    1    2    0    0  0.96365422432E+02  0.44880578232E+03 -0.22452767930E+04  0.22931198170E+04  0.80110505518E+02 0.  0.
        254    2    1    2    0    0 -0.96365422432E+02 -0.44880578232E+03 -0.15582988608E+04  0.18600338745E+04  0.90593473831E+03 0.  0.
         23    2    4    4    0    0  0.37899569559E+03 -0.34269695789E+03 -0.83611372328E+03  0.98421003436E+03  0.92218714237E+02 0.  0.
         23    2    4    4    0    0 -0.47536111802E+03 -0.10610882442E+03 -0.72218513750E+03  0.87582384019E+03  0.91042578327E+02 0.  0.
          2    1    3    3  502    0  0.89457022924E+02  0.42374036593E+03 -0.19932744507E+04  0.20397797657E+04  0.00000000000E+00 0. -1.
         -1    1    3    3    0  502  0.69083995080E+01  0.25065416385E+02 -0.25200234227E+03  0.25334005129E+03  0.00000000000E+00 0.  1.
         11    1    5    5    0    0  0.28783066874E+03 -0.26741057298E+03 -0.70922690700E+03  0.81077599497E+03  0.00000000000E+00 0. -1.
        -11    1    5    5    0    0  0.91165026849E+02 -0.75286384910E+02 -0.12688681628E+03  0.17343403939E+03  0.00000000000E+00 0.  1.
          4    1    6    6  503    0 -0.25724655181E+02 -0.21028697822E+02 -0.85633363052E+02  0.91853344435E+02  0.00000000000E+00 0.  1.
         -4    1    6    6    0  503 -0.44963646284E+03 -0.85080126599E+02 -0.63655177444E+03  0.78397049575E+03  0.00000000000E+00 0. -1.
<mgrwt>
<rscale>  0 0.16677823E+04</rscale>
<asrwt>0</asrwt>
<pdfrwt beam="1">  1        2 0.61205609E+00 0.16677823E+04</pdfrwt>
<pdfrwt beam="2">  1       -1 0.26890619E-01 0.16677823E+04</pdfrwt>
<totfact> 0.48638712E+00</totfact>
</mgrwt>
</event>
<event>
12    6  0.1494052E-007  0.1403953E+04  0.7818608E-02  0.8950962E-01
          2   -1    0    0  501    0  0.00000000000E+00  0.00000000000E+00  0.78654396699E+03  0.78654396699E+03  0.00000000000E+00 0. -1.
         -1   -1    0    0    0  501 -0.00000000000E+00 -0.00000000000E+00 -0.62650142084E+03  0.62650142084E+03  0.00000000000E+00 0.  1.
         24    2    1    2    0    0  0.29217270430E+03  0.97522250774E+02  0.33605752115E+03  0.46281628226E+03  0.79929813400E+02 0.  0.
        254    2    1    2    0    0 -0.29217270430E+03 -0.97522250774E+02 -0.17601497499E+03  0.95022910557E+03  0.88152061980E+03 0.  0.
         23    2    4    4    0    0 -0.33343081504E+03 -0.36471902785E+03  0.14293373914E+03  0.52269925937E+03  0.92673535968E+02 0.  0.
         23    2    4    4    0    0  0.41258110747E+02  0.26719677707E+03 -0.31894871413E+03  0.42752984621E+03  0.89202790167E+02 0.  0.
          4    1    3    3  502    0  0.47044030854E+02  0.38914417416E+02  0.10191098741E+03  0.11879950369E+03  0.00000000000E+00 0. -1.
         -3    1    3    3    0  502  0.24512867344E+03  0.58607833358E+02  0.23414653373E+03  0.34401677856E+03  0.00000000000E+00 0.  1.
         11    1    5    5    0    0 -0.57659706789E+02 -0.50063245662E+02  0.57693359064E+02  0.95705245589E+02  0.00000000000E+00 0. -1.
        -11    1    5    5    0    0 -0.27577110825E+03 -0.31465578218E+03  0.85240380073E+02  0.42699401378E+03  0.00000000000E+00 0.  1.
          4    1    6    6  503    0  0.43100630699E+02  0.63985327489E+02 -0.12323466960E+03  0.14539109426E+03  0.00000000000E+00 0. -1.
         -4    1    6    6    0  503 -0.18425199523E+01  0.20321144958E+03 -0.19571404453E+03  0.28213875194E+03  0.00000000000E+00 0.  1.
<mgrwt>
<rscale>  0 0.14039529E+04</rscale>
<asrwt>0</asrwt>
<pdfrwt beam="1">  1        2 0.12100676E+00 0.14039529E+04</pdfrwt>
<pdfrwt beam="2">  1       -1 0.96384834E-01 0.14039529E+04</pdfrwt>
<totfact> 0.40582782E+01</totfact>
</mgrwt>
</event>
<event>
12    6  0.1494052E-007  0.2933071E+04  0.7818608E-02  0.8263105E-01
         -1   -1    0    0    0  501 -0.00000000000E+00  0.00000000000E+00  0.10133559401E+04  0.10133559401E+04  0.00000000000E+00 0.  1.
          2   -1    0    0  501    0  0.00000000000E+00 -0.00000000000E+00 -0.21223799010E+04  0.21223799010E+04  0.00000000000E+00 0. -1.
         24    2    1    2    0    0  0.22725916745E+03  0.69175873227E+03 -0.16882432395E+04  0.18404422928E+04  0.82980266488E+02 0.  0.
        254    2    1    2    0    0 -0.22725916745E+03 -0.69175873227E+03  0.57921927860E+03  0.12952935484E+04  0.90117341888E+03 0.  0.
         23    2    4    4    0    0  0.10780041152E+03 -0.39287623517E+03 -0.14155504904E+03  0.44094197921E+03  0.91756919254E+02 0.  0.
         23    2    4    4    0    0 -0.33505957897E+03 -0.29888249710E+03  0.72077432764E+03  0.85435156917E+03  0.93836580447E+02 0.  0.
          4    1    3    3  502    0  0.16715336165E+03  0.51529115157E+03 -0.13417377166E+04  0.14469710838E+04  0.00000000000E+00 0. -1.
         -3    1    3    3    0  502  0.60105805799E+02  0.17646758070E+03 -0.34650552284E+03  0.39347120897E+03  0.00000000000E+00 0.  1.
         11    1    5    5    0    0  0.11775352288E+03 -0.27694703890E+03 -0.10960718769E+03  0.32028001827E+03  0.00000000000E+00 0. -1.
        -11    1    5    5    0    0 -0.99531113560E+01 -0.11592919627E+03 -0.31947861350E+02  0.12066196094E+03  0.00000000000E+00 0.  1.
          1    1    6    6  503    0 -0.21900534370E+03 -0.13734398886E+03  0.37545267235E+03  0.45584144285E+03  0.00000000000E+00 0. -1.
         -1    1    6    6    0  503 -0.11605423527E+03 -0.16153850824E+03  0.34532165529E+03  0.39851012632E+03  0.00000000000E+00 0.  1.
<mgrwt>
<rscale>  0 0.29330709E+04</rscale>
<asrwt>0</asrwt>
<pdfrwt beam="1">  1        2 0.32651998E+00 0.29330709E+04</pdfrwt>
<pdfrwt beam="2">  1       -1 0.15590091E+00 0.29330709E+04</pdfrwt>
<totfact> 0.17551100E+00</totfact>
</mgrwt>
</event>
<event>
12    6  0.1494052E-007  0.1784665E+04  0.7818608E-02  0.8714497E-01
         -1   -1    0    0    0  501 -0.00000000000E+00  0.00000000000E+00  0.74820149758E+03  0.74820149758E+03  0.00000000000E+00 0.  1.
          2   -1    0    0  501    0  0.00000000000E+00 -0.00000000000E+00 -0.10642280911E+04  0.10642280911E+04  0.00000000000E+00 0. -1.
         24    2    1    2    0    0  0.50178107338E+03  0.19723667334E+02  0.32380917410E+03  0.60229468269E+03  0.75718128039E+02 0.  0.
        254    2    1    2    0    0 -0.50178107338E+03 -0.19723667334E+02 -0.63983576759E+03  0.12101349060E+04  0.89602645747E+03 0.  0.
         23    2    4    4    0    0  0.22397875713E+03  0.12385708270E+03 -0.24869303210E+03  0.36834236583E+03  0.91218494134E+02 0.  0.
         23    2    4    4    0    0 -0.72575983050E+03 -0.14358075004E+03 -0.39114273549E+03  0.84179254013E+03  0.90990536580E+02 0.  0.
          2    1    3    3  502    0 -0.20103101785E+01  0.28656319502E+00 -0.12851389537E+01  0.24031328737E+01  0.00000000000E+00 0. -1.
         -1    1    3    3    0  502  0.50379138356E+03  0.19437104139E+02  0.32509431305E+03  0.59989154982E+03  0.00000000000E+00 0.  1.
         11    1    5    5    0    0 -0.12095459727E+01  0.26186158970E+02 -0.22131056356E+02  0.34306873633E+02  0.00000000000E+00 0. -1.
        -11    1    5    5    0    0  0.22518830310E+03  0.97670923732E+02 -0.22656197575E+03  0.33403549220E+03  0.00000000000E+00 0.  1.
          2    1    6    6  503    0 -0.40705949910E+03 -0.51980649435E+02 -0.25626237812E+03  0.48380763756E+03  0.00000000000E+00 0. -1.
         -2    1    6    6    0  503 -0.31870033140E+03 -0.91600100601E+02 -0.13488035737E+03  0.35798490257E+03  0.00000000000E+00 0.  1.
<mgrwt>
<rscale>  0 0.17846647E+04</rscale>
<asrwt>0</asrwt>
<pdfrwt beam="1">  1        2 0.16372740E+00 0.17846647E+04</pdfrwt>
<pdfrwt beam="2">  1       -1 0.11510792E+00 0.17846647E+04</pdfrwt>
<totfact> 0.16935139E+01</totfact>
</mgrwt>
</event>
<event>
12    6  0.1494052E-007  0.1343398E+04  0.7818608E-02  0.8995841E-01
         -1   -1    0    0    0  501 -0.00000000000E+00  0.00000000000E+00  0.19401754190E+03  0.19401754190E+03  0.00000000000E+00 0.  1.
          2   -1    0    0  501    0  0.00000000000E+00 -0.00000000000E+00 -0.23254570135E+04  0.23254570135E+04  0.00000000000E+00 0. -1.
         24    2    1    2    0    0 -0.41042402745E+03 -0.69088353974E+02 -0.71675876963E+03  0.83257215400E+03  0.78817350979E+02 0.  0.
        254    2    1    2    0    0  0.41042402745E+03  0.69088353974E+02 -0.14146807019E+04  0.16869024014E+04  0.81920518816E+03 0.  0.
         23    2    4    4    0    0  0.34873099509E+03  0.38887116352E+03 -0.11158374203E+04  0.12354180065E+04  0.91271099579E+02 0.  0.
         23    2    4    4    0    0  0.61693032361E+02 -0.31978280955E+03 -0.29884328167E+03  0.45148439484E+03  0.91998783987E+02 0.  0.
          2    1    3    3  502    0 -0.39217100389E+03 -0.82733849214E+02 -0.67748966170E+03  0.78716912275E+03  0.00000000000E+00 0. -1.
         -1    1    3    3    0  502 -0.18253023561E+02  0.13645495241E+02 -0.39269107930E+02  0.45403031255E+02  0.00000000000E+00 0.  1.
         11    1    5    5    0    0  0.32460211443E+03  0.31642976269E+03 -0.93379374580E+03  0.10380101575E+04  0.00000000000E+00 0. -1.
        -11    1    5    5    0    0  0.24128880656E+02  0.72441400836E+02 -0.18204367446E+03  0.19740784900E+03  0.00000000000E+00 0.  1.
          3    1    6    6  503    0  0.53459243844E+02 -0.20675377495E+03 -0.13633296011E+03  0.25336079061E+03  0.00000000000E+00 0. -1.
         -3    1    6    6    0  503  0.82337885168E+01 -0.11302903460E+03 -0.16251032157E+03  0.19812360423E+03  0.00000000000E+00 0.  1.
<mgrwt>
<rscale>  0 0.13433979E+04</rscale>
<asrwt>0</asrwt>
<pdfrwt beam="1">  1        2 0.35776263E+00 0.13433979E+04</pdfrwt>
<pdfrwt beam="2">  1       -1 0.29848851E-01 0.13433979E+04</pdfrwt>
<totfact> 0.50384800E+01</totfact>
</mgrwt>
</event>
<event>
12    6  0.1494052E-007  0.1375364E+04  0.7818608E-02  0.8971847E-01
         -1   -1    0    0    0  501 -0.00000000000E+00  0.00000000000E+00  0.24547680485E+03  0.24547680485E+03  0.00000000000E+00 0.  1.
          2   -1    0    0  501    0  0.00000000000E+00 -0.00000000000E+00 -0.19264821127E+04  0.19264821127E+04  0.00000000000E+00 0. -1.
         24    2    1    2    0    0  0.32270237147E+03 -0.19131549651E+03 -0.72284022332E+03  0.81818336539E+03  0.78661243295E+02 0.  0.
        254    2    1    2    0    0 -0.32270237147E+03  0.19131549651E+03 -0.95816508455E+03  0.13537755522E+04  0.87970988210E+03 0.  0.
         23    2    4    4    0    0 -0.22087034115E+03  0.25546503190E+03  0.32783321160E+02  0.35129151854E+03  0.91021397090E+02 0.  0.
         23    2    4    4    0    0 -0.10183203032E+03 -0.64149535395E+02 -0.99094840571E+03  0.10024840336E+04  0.92252748580E+02 0.  0.
          2    1    3    3  502    0  0.30957603690E+03 -0.19577357021E+03 -0.71159764247E+03  0.80033481630E+03  0.00000000000E+00 0. -1.
         -1    1    3    3    0  502  0.13126334573E+02  0.44580737022E+01 -0.11242580849E+02  0.17848549090E+02  0.00000000000E+00 0.  1.
         11    1    5    5    0    0 -0.65099345597E+02  0.62599939384E+02 -0.30679891172E+02  0.95383085137E+02  0.00000000000E+00 0. -1.
        -11    1    5    5    0    0 -0.15577099555E+03  0.19286509252E+03  0.63463212332E+02  0.25590843340E+03  0.00000000000E+00 0.  1.
          1    1    6    6  503    0 -0.20891850588E+02 -0.61115196921E+02 -0.30456094952E+03  0.31133407891E+03  0.00000000000E+00 0. -1.
         -1    1    6    6    0  503 -0.80940179733E+02 -0.30343384743E+01 -0.68638745619E+03  0.69114995473E+03  0.00000000000E+00 0.  1.
<mgrwt>
<rscale>  0 0.13753642E+04</rscale>
<asrwt>0</asrwt>
<pdfrwt beam="1">  1        2 0.29638187E+00 0.13753642E+04</pdfrwt>
<pdfrwt beam="2">  1       -1 0.37765661E-01 0.13753642E+04</pdfrwt>
<totfact> 0.55173567E+01</totfact>
</mgrwt>
</event>
<event>
12    6  0.1494052E-007  0.3591144E+04  0.7818608E-02  0.8092523E-01
         -1   -1    0    0    0  501 -0.00000000000E+00  0.00000000000E+00  0.10024292967E+04  0.10024292967E+04  0.00000000000E+00 0.  1.
          2   -1    0    0  501    0  0.00000000000E+00 -0.00000000000E+00 -0.32162657587E+04  0.32162657587E+04  0.00000000000E+00 0. -1.
         24    2    1    2    0    0  0.10336731763E+04  0.12432632830E+04 -0.15833604955E+04  0.22644279352E+04  0.80122337067E+02 0.  0.
        254    2    1    2    0    0 -0.10336731763E+04 -0.12432632830E+04 -0.63047596645E+03  0.19542671202E+04  0.89859679867E+03 0.  0.
         23    2    4    4    0    0 -0.12031782844E+03 -0.66129634517E+03  0.35358380317E+02  0.67939407707E+03  0.92395134714E+02 0.  0.
         23    2    4    4    0    0 -0.91335534786E+03 -0.58196693781E+03 -0.66583434677E+03  0.12748730431E+04  0.95196589156E+02 0.  0.
          4    1    3    3  502    0  0.99741490737E+03  0.12186270849E+04 -0.15341276896E+04  0.21985077297E+04  0.00000000000E+00 0. -1.
         -3    1    3    3    0  502  0.36258268928E+02  0.24636198099E+02 -0.49232805881E+02  0.65920205532E+02  0.00000000000E+00 0.  1.
         11    1    5    5    0    0 -0.13230985431E+03 -0.63553764509E+03  0.26789021269E+02  0.64971659017E+03  0.00000000000E+00 0. -1.
        -11    1    5    5    0    0  0.11992025871E+02 -0.25758700075E+02  0.85693590487E+01  0.29677486897E+02  0.00000000000E+00 0.  1.
          3    1    6    6  503    0 -0.87607351166E+03 -0.57774848266E+03 -0.63786792710E+03  0.12280771961E+04  0.00000000000E+00 0. -1.
         -3    1    6    6    0  503 -0.37281836200E+02 -0.42184551548E+01 -0.27966419662E+02  0.46795847071E+02  0.00000000000E+00 0.  1.
<mgrwt>
<rscale>  0 0.35911441E+04</rscale>
<asrwt>0</asrwt>
<pdfrwt beam="1">  1        2 0.49481011E+00 0.35911441E+04</pdfrwt>
<pdfrwt beam="2">  1       -1 0.15421989E+00 0.35911441E+04</pdfrwt>
<totfact> 0.37872675E-01</totfact>
</mgrwt>
</event>
<event>
12    6  0.1494052E-007  0.2239069E+04  0.7818608E-02  0.8502340E-01
         -1   -1    0    0    0  501 -0.00000000000E+00  0.00000000000E+00  0.65968829585E+03  0.65968829585E+03  0.00000000000E+00 0.  1.
          2   -1    0    0  501    0  0.00000000000E+00 -0.00000000000E+00 -0.18999240118E+04  0.18999240118E+04  0.00000000000E+00 0. -1.
         24    2    1    2    0    0 -0.49071173502E+03 -0.37390785627E+02  0.41608364722E+03  0.64918719719E+03  0.78245369067E+02 0.  0.
        254    2    1    2    0    0  0.49071173502E+03  0.37390785627E+02 -0.16563193632E+04  0.19104251104E+04  0.81494428772E+03 0.  0.
         23    2    4    4    0    0  0.17462144365E+02  0.11828397585E+03  0.31031967078E+02  0.15374221515E+03  0.91529559758E+02 0.  0.
         23    2    4    4    0    0  0.47324959065E+03 -0.80893190220E+02 -0.16873513302E+04  0.17566828953E+04  0.90947235695E+02 0.  0.
          2    1    3    3  502    0 -0.10904639456E+03  0.13841567483E+02  0.62805070629E+02  0.12659850732E+03  0.00000000000E+00 0. -1.
         -1    1    3    3    0  502 -0.38166534045E+03 -0.51232353111E+02  0.35327857659E+03  0.52258868988E+03  0.00000000000E+00 0.  1.
         11    1    5    5    0    0 -0.30316114040E+02  0.45276608541E+02  0.37663806358E+02  0.66238964068E+02  0.00000000000E+00 0. -1.
        -11    1    5    5    0    0  0.47778258404E+02  0.73007367306E+02 -0.66318392805E+01  0.87503251079E+02  0.00000000000E+00 0.  1.
          3    1    6    6  503    0  0.46607693827E+03 -0.69625585337E+02 -0.15883121365E+04  0.16567470771E+04  0.00000000000E+00 0. -1.
         -3    1    6    6    0  503  0.71726523851E+01 -0.11267604883E+02 -0.99039193733E+02  0.99935818191E+02  0.00000000000E+00 0.  1.
<mgrwt>
<rscale>  0 0.22390691E+04</rscale>
<asrwt>0</asrwt>
<pdfrwt beam="1">  1        2 0.29229600E+00 0.22390691E+04</pdfrwt>
<pdfrwt beam="2">  1       -1 0.10149051E+00 0.22390691E+04</pdfrwt>
<totfact> 0.72555726E+00</totfact>
</mgrwt>
</event>
<event>
12    6  0.1494052E-007  0.1454341E+04  0.7818608E-02  0.8915397E-01
         -1   -1    0    0    0  501 -0.00000000000E+00  0.00000000000E+00  0.92119436537E+03  0.92119436537E+03  0.00000000000E+00 0.  1.
          2   -1    0    0  501    0  0.00000000000E+00 -0.00000000000E+00 -0.57401195742E+03  0.57401195742E+03  0.00000000000E+00 0. -1.
         24    2    1    2    0    0 -0.17857173061E+03  0.31493512902E+03 -0.14741726600E+03  0.39958610270E+03  0.82856530790E+02 0.  0.
        254    2    1    2    0    0  0.17857173061E+03 -0.31493512902E+03  0.49459967395E+03  0.10956202201E+04  0.90812049352E+03 0.  0.
         23    2    4    4    0    0  0.45064001507E+02 -0.61781565317E+03  0.39127995678E+03  0.73729154356E+03  0.82291373200E+02 0.  0.
         23    2    4    4    0    0  0.13350772910E+03  0.30288052415E+03  0.10331971717E+03  0.35832867653E+03  0.90352370358E+02 0.  0.
          2    1    3    3  502    0 -0.18186162350E+03  0.30806246866E+03 -0.13008860427E+03  0.38065624868E+03  0.00000000000E+00 0. -1.
         -1    1    3    3    0  502  0.32898928960E+01  0.68726603579E+01 -0.17328661735E+02  0.18929854020E+02  0.00000000000E+00 0.  1.
         11    1    5    5    0    0  0.61466493253E+02 -0.49034274187E+03  0.28468167380E+03  0.57031376425E+03  0.00000000000E+00 0.  1.
        -11    1    5    5    0    0 -0.16402491746E+02 -0.12747291130E+03  0.10659828297E+03  0.16697777931E+03  0.00000000000E+00 0. -1.
          1    1    6    6  503    0  0.58412970124E+02  0.43678902369E+02  0.15785069927E+02  0.74626335991E+02  0.00000000000E+00 0. -1.
         -1    1    6    6    0  503  0.75094758975E+02  0.25920162178E+03  0.87534647243E+02  0.28370234054E+03  0.00000000000E+00 0.  1.
<mgrwt>
<rscale>  0 0.14543405E+04</rscale>
<asrwt>0</asrwt>
<pdfrwt beam="1">  1        2 0.88309532E-01 0.14543405E+04</pdfrwt>
<pdfrwt beam="2">  1       -1 0.14172221E+00 0.14543405E+04</pdfrwt>
<totfact> 0.23532244E+01</totfact>
</mgrwt>
</event>
<event>
12    6  0.1494052E-007  0.1476162E+04  0.7818608E-02  0.8900461E-01
          4   -1    0    0  501    0  0.00000000000E+00  0.00000000000E+00  0.86859260385E+03  0.86859260385E+03  0.00000000000E+00 0. -1.
         -1   -1    0    0    0  501 -0.00000000000E+00 -0.00000000000E+00 -0.62717980669E+03  0.62717980669E+03  0.00000000000E+00 0.  1.
         24    2    1    2    0    0 -0.14434625111E+03  0.20692556932E+03  0.45644002291E+03  0.52734023533E+03  0.78078152173E+02 0.  0.
        254    2    1    2    0    0  0.14434625111E+03 -0.20692556932E+03 -0.21502722575E+03  0.96843217521E+03  0.90992864485E+03 0.  0.
         23    2    4    4    0    0  0.31480078229E+03  0.25306089588E+03 -0.22094879484E+03  0.46959860941E+03  0.92548011702E+02 0.  0.
         23    2    4    4    0    0 -0.17045453118E+03 -0.45998646520E+03  0.59215690918E+01  0.49883356580E+03  0.90319245013E+02 0.  0.
          2    1    3    3  502    0 -0.38630068544E+02  0.11415221441E+03  0.25012802028E+03  0.27764552361E+03  0.00000000000E+00 0. -1.
         -1    1    3    3    0  502 -0.10571618256E+03  0.92773354902E+02  0.20631200262E+03  0.24969471172E+03  0.00000000000E+00 0.  1.
         11    1    5    5    0    0  0.15398036447E+03  0.12334419335E+03 -0.16047798962E+03  0.25431658976E+03  0.00000000000E+00 0. -1.
        -11    1    5    5    0    0  0.16082041782E+03  0.12971670253E+03 -0.60470805222E+02  0.21528201965E+03  0.00000000000E+00 0.  1.
          3    1    6    6  503    0 -0.31808183140E+02 -0.11035465689E+03 -0.36069421976E+02  0.12037821237E+03  0.00000000000E+00 0. -1.
         -3    1    6    6    0  503 -0.13864634804E+03 -0.34963180831E+03  0.41990991068E+02  0.37845535343E+03  0.00000000000E+00 0.  1.
<mgrwt>
<rscale>  0 0.14761622E+04</rscale>
<asrwt>0</asrwt>
<pdfrwt beam="1">  1        4 0.13362963E+00 0.14761622E+04</pdfrwt>
<pdfrwt beam="2">  1       -1 0.96489201E-01 0.14761622E+04</pdfrwt>
<totfact> 0.16634207E+00</totfact>
</mgrwt>
</event>
<event>
12    6  0.1494052E-007  0.2256642E+04  0.7818608E-02  0.8495216E-01
          2   -1    0    0  501    0  0.00000000000E+00  0.00000000000E+00  0.30994680801E+04  0.30994680801E+04  0.00000000000E+00 0. -1.
         -1   -1    0    0    0  501 -0.00000000000E+00 -0.00000000000E+00 -0.41075042126E+03  0.41075042126E+03  0.00000000000E+00 0.  1.
         24    2    1    2    0    0  0.25512693121E+02 -0.27637123381E+03 -0.27157564119E+03  0.39649898079E+03  0.80163311392E+02 0.  0.
        254    2    1    2    0    0 -0.25512693121E+02  0.27637123381E+03  0.29602933000E+04  0.31137195206E+04  0.92459768238E+03 0.  0.
         23    2    4    4    0    0 -0.13044981661E+03 -0.27403575940E+03  0.17330290239E+04  0.17617213099E+04  0.90330635391E+02 0.  0.
         23    2    4    4    0    0  0.10493712349E+03  0.55040699321E+03  0.12272642761E+04  0.13519982107E+04  0.88101648038E+02 0.  0.
          2    1    3    3  502    0  0.45464551329E+02 -0.10462898617E+03 -0.86020044983E+02  0.14287651421E+03  0.00000000000E+00 0. -1.
         -1    1    3    3    0  502 -0.19951858208E+02 -0.17174224764E+03 -0.18555559620E+03  0.25362246657E+03  0.00000000000E+00 0.  1.
         11    1    5    5    0    0 -0.68035235913E+02 -0.14528519325E+03  0.11628418962E+04  0.11738559776E+04  0.00000000000E+00 0. -1.
        -11    1    5    5    0    0 -0.62414580700E+02 -0.12875056615E+03  0.57018712774E+03  0.58786533221E+03  0.00000000000E+00 0.  1.
          3    1    6    6  503    0  0.83348280715E+02  0.33471970183E+03  0.65948059453E+03  0.74424382379E+03  0.00000000000E+00 0. -1.
         -3    1    6    6    0  503  0.21588842778E+02  0.21568729138E+03  0.56778368157E+03  0.60775438695E+03  0.00000000000E+00 0.  1.
<mgrwt>
<rscale>  0 0.22566416E+04</rscale>
<asrwt>0</asrwt>
<pdfrwt beam="1">  1        2 0.47684123E+00 0.22566416E+04</pdfrwt>
<pdfrwt beam="2">  1       -1 0.63192375E-01 0.22566416E+04</pdfrwt>
<totfact> 0.39647123E+00</totfact>
</mgrwt>
</event>
<event>
12    6  0.1494052E-007  0.1050088E+04  0.7818608E-02  0.9255253E-01
          2   -1    0    0  501    0  0.00000000000E+00  0.00000000000E+00  0.41932883954E+03  0.41932883954E+03  0.00000000000E+00 0. -1.
         -1   -1    0    0    0  501 -0.00000000000E+00 -0.00000000000E+00 -0.65741049699E+03  0.65741049699E+03  0.00000000000E+00 0.  1.
         24    2    1    2    0    0  0.10288134097E+03  0.16017250880E+02 -0.69772161094E+02  0.14839187049E+03  0.79440985136E+02 0.  0.
        254    2    1    2    0    0 -0.10288134097E+03 -0.16017250880E+02 -0.16830949636E+03  0.92834746603E+03  0.90700595835E+03 0.  0.
         23    2    4    4    0    0  0.97911622077E+02 -0.30756960375E+03  0.21531235405E+03  0.39852665105E+03  0.90985355413E+02 0.  0.
         23    2    4    4    0    0 -0.20079296304E+03  0.29155235287E+03 -0.38362185041E+03  0.52982081498E+03  0.90685078194E+02 0.  0.
          4    1    3    3  502    0  0.20005178492E+02  0.25109234359E+02  0.93632153997E+01  0.33441749643E+02  0.00000000000E+00 0. -1.
         -3    1    3    3    0  502  0.82876162475E+02 -0.90919834790E+01 -0.79135376494E+02  0.11495012085E+03  0.00000000000E+00 0.  1.
         11    1    5    5    0    0  0.21361010071E+02 -0.13187098403E+03  0.13741917288E+03  0.19165144992E+03  0.00000000000E+00 0.  1.
        -11    1    5    5    0    0  0.76550612006E+02 -0.17569861972E+03  0.77893181170E+02  0.20687520113E+03  0.00000000000E+00 0. -1.
          4    1    6    6  503    0 -0.21828309675E+02  0.10316765279E+03 -0.11757113193E+03  0.15793356435E+03  0.00000000000E+00 0.  1.
         -4    1    6    6    0  503 -0.17896465337E+03  0.18838470008E+03 -0.26605071848E+03  0.37188725063E+03  0.00000000000E+00 0. -1.
<mgrwt>
<rscale>  0 0.10500880E+04</rscale>
<asrwt>0</asrwt>
<pdfrwt beam="1">  1        2 0.64512129E-01 0.10500880E+04</pdfrwt>
<pdfrwt beam="2">  1       -1 0.10114008E+00 0.10500880E+04</pdfrwt>
<totfact> 0.79808461E+01</totfact>
</mgrwt>
</event>
<event>
12    6  0.1494052E-007  0.2328151E+04  0.7818608E-02  0.8466904E-01
         -1   -1    0    0    0  501 -0.00000000000E+00  0.00000000000E+00  0.96272983638E+03  0.96272983638E+03  0.00000000000E+00 0.  1.
          2   -1    0    0  501    0  0.00000000000E+00 -0.00000000000E+00 -0.14075301322E+04  0.14075301322E+04  0.00000000000E+00 0. -1.
         24    2    1    2    0    0 -0.10591025594E+03  0.53873588648E+03  0.64359885807E+03  0.84980685699E+03  0.80615546811E+02 0.  0.
        254    2    1    2    0    0  0.10591025594E+03 -0.53873588648E+03 -0.10883991539E+04  0.15204531116E+04  0.90868674947E+03 0.  0.
         23    2    4    4    0    0 -0.27604788701E+02 -0.51627096454E+03 -0.12092735680E+04  0.13183172503E+04  0.91214456504E+02 0.  0.
         23    2    4    4    0    0  0.13351504464E+03 -0.22464921932E+02  0.12087441411E+03  0.20213586127E+03  0.88979450225E+02 0.  0.
          4    1    3    3  502    0  0.12319114094E+02  0.91191366497E+02  0.10921328536E+03  0.14281165077E+03  0.00000000000E+00 0. -1.
         -3    1    3    3    0  502 -0.11822937003E+03  0.44754451998E+03  0.53438557270E+03  0.70699520622E+03  0.00000000000E+00 0.  1.
         11    1    5    5    0    0 -0.53685624730E+02 -0.30645295218E+03 -0.65658366251E+03  0.72656566398E+03  0.00000000000E+00 0.  1.
        -11    1    5    5    0    0  0.26080836029E+02 -0.20981801236E+03 -0.55268990546E+03  0.59175158632E+03  0.00000000000E+00 0. -1.
          3    1    6    6  503    0 -0.46158982516E+01 -0.14989119610E+02  0.37432218641E+02  0.40585110764E+02  0.00000000000E+00 0. -1.
         -3    1    6    6    0  503  0.13813094289E+03 -0.74758023228E+01  0.83442195465E+02  0.16155075050E+03  0.00000000000E+00 0.  1.
<mgrwt>
<rscale>  0 0.23281506E+04</rscale>
<asrwt>0</asrwt>
<pdfrwt beam="1">  1        2 0.21654310E+00 0.23281506E+04</pdfrwt>
<pdfrwt beam="2">  1       -1 0.14811228E+00 0.23281506E+04</pdfrwt>
<totfact> 0.53307760E+00</totfact>
</mgrwt>
</event>
<event>
12    6  0.1494052E-007  0.1121112E+04  0.7818608E-02  0.9184856E-01
          2   -1    0    0  501    0  0.00000000000E+00  0.00000000000E+00  0.23037888937E+04  0.23037888937E+04  0.00000000000E+00 0. -1.
         -1   -1    0    0    0  501 -0.00000000000E+00 -0.00000000000E+00 -0.13639390791E+03  0.13639390791E+03  0.00000000000E+00 0.  1.
         24    2    1    2    0    0 -0.35824515634E+02 -0.14626603638E+03  0.65481885188E+03  0.67525703321E+03  0.67135555379E+02 0.  0.
        254    2    1    2    0    0  0.35824515634E+02  0.14626603638E+03  0.15125761339E+04  0.17649257684E+04  0.89688307921E+03 0.  0.
         23    2    4    4    0    0 -0.16325384494E+03  0.17652163312E+03  0.21053168328E+02  0.25689372344E+03  0.87974112108E+02 0.  0.
         23    2    4    4    0    0  0.19907836057E+03 -0.30255596731E+02  0.14915229655E+04  0.15080320449E+04  0.94722209690E+02 0.  0.
          4    1    3    3  502    0 -0.28512254744E+02 -0.15003106189E+03  0.57216952249E+03  0.59219948554E+03  0.00000000000E+00 0. -1.
         -3    1    3    3    0  502 -0.73122608901E+01  0.37650255041E+01  0.82649329388E+02  0.83057547668E+02  0.00000000000E+00 0.  1.
         11    1    5    5    0    0 -0.14143472530E+03  0.14645404178E+03  0.50174144326E+02  0.20969027787E+03  0.00000000000E+00 0.  1.
        -11    1    5    5    0    0 -0.21819119638E+02  0.30067591331E+02 -0.29120975999E+02  0.47203445566E+02  0.00000000000E+00 0. -1.
          3    1    6    6  503    0  0.82313496107E+02 -0.51195287556E+01  0.94592521913E+03  0.94951368679E+03  0.00000000000E+00 0. -1.
         -3    1    6    6    0  503  0.11676486446E+03 -0.25136067976E+02  0.54559774640E+03  0.55851835813E+03  0.00000000000E+00 0.  1.
<mgrwt>
<rscale>  0 0.11211115E+04</rscale>
<asrwt>0</asrwt>
<pdfrwt beam="1">  1        2 0.35442903E+00 0.11211115E+04</pdfrwt>
<pdfrwt beam="2">  1       -1 0.20983680E-01 0.11211115E+04</pdfrwt>
<totfact> 0.96663389E+01</totfact>
</mgrwt>
</event>
<event>
12    6  0.1494052E-007  0.2341595E+04  0.7818608E-02  0.8461699E-01
         -1   -1    0    0    0  501 -0.00000000000E+00  0.00000000000E+00  0.60142679618E+03  0.60142679618E+03  0.00000000000E+00 0.  1.
          2   -1    0    0  501    0  0.00000000000E+00 -0.00000000000E+00 -0.22791907956E+04  0.22791907956E+04  0.00000000000E+00 0. -1.
         24    2    1    2    0    0 -0.52349102876E+03 -0.15281002193E+03 -0.17332165018E+04  0.18189157932E+04  0.83794156282E+02 0.  0.
        254    2    1    2    0    0  0.52349102876E+03  0.15281002193E+03  0.55452502397E+02  0.10617017986E+04  0.90925352299E+03 0.  0.
         23    2    4    4    0    0  0.90331631845E+02 -0.36002767605E+03  0.20721424223E+01  0.38251729197E+03  0.92387518883E+02 0.  0.
         23    2    4    4    0    0  0.43315939691E+03  0.51283769798E+03  0.53380359975E+02  0.67918450660E+03  0.88388707272E+02 0.  0.
          4    1    3    3  502    0 -0.45348655164E+03 -0.10815656197E+03 -0.15279363420E+04  0.15974784379E+04  0.00000000000E+00 0. -1.
         -3    1    3    3    0  502 -0.70004477116E+02 -0.44653459955E+02 -0.20528015975E+03  0.22143735523E+03  0.00000000000E+00 0.  1.
         11    1    5    5    0    0  0.47949857465E+02 -0.13602963912E+03  0.43843435143E+02  0.15074978725E+03  0.00000000000E+00 0. -1.
        -11    1    5    5    0    0  0.42381774380E+02 -0.22399803693E+03 -0.41771292720E+02  0.23176750472E+03  0.00000000000E+00 0.  1.
          3    1    6    6  503    0  0.19741089087E+03  0.20127758637E+03 -0.15952875045E+02  0.28237956872E+03  0.00000000000E+00 0. -1.
         -3    1    6    6    0  503  0.23574850604E+03  0.31156011161E+03  0.69333235020E+02  0.39680493788E+03  0.00000000000E+00 0.  1.
<mgrwt>
<rscale>  0 0.23415947E+04</rscale>
<asrwt>0</asrwt>
<pdfrwt beam="1">  1        2 0.35064474E+00 0.23415947E+04</pdfrwt>
<pdfrwt beam="2">  1       -1 0.92527200E-01 0.23415947E+04</pdfrwt>
<totfact> 0.54393194E+00</totfact>
</mgrwt>
</event>
<event>
12    6  0.2245556E-007  0.2468382E+04  0.7818608E-02  0.8414337E-01
          2   -1    0    0  501    0  0.00000000000E+00  0.00000000000E+00  0.23493902787E+04  0.23493902787E+04  0.00000000000E+00 0. -1.
         -1   -1    0    0    0  501 -0.00000000000E+00 -0.00000000000E+00 -0.64835009310E+03  0.64835009310E+03  0.00000000000E+00 0.  1.
         24    2    1    2    0    0 -0.14901059188E+03 -0.40447942877E+02  0.20231455573E+04  0.20306014569E+04  0.79900802908E+02 0.  0.
        254    2    1    2    0    0  0.14901059188E+03  0.40447942877E+02 -0.32210537164E+03  0.96713891494E+03  0.89875781931E+03 0.  0.
         23    2    4    4    0    0 -0.29007695890E+03  0.23589338636E+03 -0.28127275965E+03  0.47653979274E+03  0.90473625602E+02 0.  0.
         23    2    4    4    0    0  0.43908755078E+03 -0.19544544348E+03 -0.40832611984E+02  0.49059912220E+03  0.89573421662E+02 0.  0.
          4    1    3    3  502    0 -0.88431496591E+02 -0.20113231923E+02  0.16091254437E+04  0.16116790515E+04  0.00000000000E+00 0. -1.
         -3    1    3    3    0  502 -0.60579095292E+02 -0.20334710954E+02  0.41402011359E+03  0.41892240536E+03  0.00000000000E+00 0.  1.
         11    1    5    5    0    0 -0.16143116906E+02  0.46108536346E+02 -0.18841274751E+02  0.52360204179E+02  0.00000000000E+00 0.  1.
        -11    1    5    5    0    0 -0.27393384199E+03  0.18978485001E+03 -0.26243148490E+03  0.42417958856E+03  0.00000000000E+00 0. -1.
          4    1    6    6  503    0  0.44227320919E+03 -0.19260557171E+03 -0.35398526345E+02  0.48368952179E+03  0.00000000000E+00 0. -1.
         -4    1    6    6    0  503 -0.31856584017E+01 -0.28398717646E+01 -0.54340856388E+01  0.69096004097E+01  0.00000000000E+00 0.  1.
<mgrwt>
<rscale>  0 0.24683820E+04</rscale>
<asrwt>0</asrwt>
<pdfrwt beam="1">  1        2 0.36144465E+00 0.24683820E+04</pdfrwt>
<pdfrwt beam="2">  1       -1 0.99746169E-01 0.24683820E+04</pdfrwt>
<totfact> 0.41432114E+00</totfact>
</mgrwt>
</event>
<event>
12    6  0.1494052E-007  0.1971330E+04  0.7818608E-02  0.8620143E-01
         -1   -1    0    0    0  501 -0.00000000000E+00  0.00000000000E+00  0.55870909891E+03  0.55870909891E+03  0.00000000000E+00 0.  1.
          2   -1    0    0  501    0  0.00000000000E+00 -0.00000000000E+00 -0.17388939096E+04  0.17388939096E+04  0.00000000000E+00 0. -1.
         24    2    1    2    0    0  0.29861307898E+03 -0.27829645050E+03 -0.12406246451E+04  0.13084637891E+04  0.79431053421E+02 0.  0.
        254    2    1    2    0    0 -0.29861307898E+03  0.27829645050E+03  0.60439834409E+02  0.98913921933E+03  0.89895758316E+03 0.  0.
         23    2    4    4    0    0  0.17077048272E+03  0.27646360401E+03  0.30240127230E+03  0.45296182245E+03  0.90184261337E+02 0.  0.
         23    2    4    4    0    0 -0.46938356170E+03  0.18328464942E+01 -0.24196143790E+03  0.53617739688E+03  0.92825514669E+02 0.  0.
          2    1    3    3  502    0  0.20133071759E+03 -0.22949725175E+03 -0.85978253705E+03  0.91237550242E+03  0.00000000000E+00 0. -1.
         -1    1    3    3    0  502  0.97282361390E+02 -0.48799198749E+02 -0.38084210801E+03  0.39608828672E+03  0.00000000000E+00 0.  1.
         11    1    5    5    0    0  0.14054711283E+03  0.17501458287E+03  0.24600873815E+03  0.33302236319E+03  0.00000000000E+00 0.  1.
        -11    1    5    5    0    0  0.30223369890E+02  0.10144902114E+03  0.56392534158E+02  0.11993945925E+03  0.00000000000E+00 0. -1.
          3    1    6    6  503    0 -0.16430272070E+03 -0.43484930862E+02 -0.90941475459E+02  0.19276066819E+03  0.00000000000E+00 0. -1.
         -3    1    6    6    0  503 -0.30508084100E+03  0.45317777356E+02 -0.15101996244E+03  0.34341672869E+03  0.00000000000E+00 0.  1.
<mgrwt>
<rscale>  0 0.19713304E+04</rscale>
<asrwt>0</asrwt>
<pdfrwt beam="1">  1        2 0.26752214E+00 0.19713304E+04</pdfrwt>
<pdfrwt beam="2">  1       -1 0.85955246E-01 0.19713304E+04</pdfrwt>
<totfact> 0.13221744E+01</totfact>
</mgrwt>
</event>
<event>
12    6  0.1494052E-007  0.3812873E+04  0.7818608E-02  0.8043398E-01
          2   -1    0    0  501    0  0.00000000000E+00  0.00000000000E+00  0.32583593209E+04  0.32583593209E+04  0.00000000000E+00 0. -1.
         -1   -1    0    0    0  501 -0.00000000000E+00 -0.00000000000E+00 -0.11154387376E+04  0.11154387376E+04  0.00000000000E+00 0.  1.
         24    2    1    2    0    0  0.12997392284E+04 -0.43860465208E+03 -0.26445387658E+03  0.13993806257E+04  0.81450476224E+02 0.  0.
        254    2    1    2    0    0 -0.12997392284E+04  0.43860465208E+03  0.24073744599E+04  0.29744174328E+04  0.10816705468E+04 0.  0.
         23    2    4    4    0    0 -0.12675170248E+04  0.68856178549E+03  0.17859350111E+04  0.22976739557E+04  0.95000012921E+02 0.  0.
         23    2    4    4    0    0 -0.32222203576E+02 -0.24995713341E+03  0.62143944883E+03  0.67674347707E+03  0.90982999779E+02 0.  0.
          4    1    3    3  502    0  0.33255792446E+03 -0.11593715781E+03 -0.10419452205E+03  0.36727741029E+03  0.00000000000E+00 0. -1.
         -3    1    3    3    0  502  0.96718130396E+03 -0.32266749427E+03 -0.16025935453E+03  0.10321032154E+04  0.00000000000E+00 0.  1.
         11    1    5    5    0    0 -0.47338194405E+03  0.30971349445E+03  0.70536523703E+03  0.90418639185E+03  0.00000000000E+00 0.  1.
        -11    1    5    5    0    0 -0.79413508078E+03  0.37884829104E+03  0.10805697740E+04  0.13934875639E+04  0.00000000000E+00 0. -1.
          2    1    6    6  503    0 -0.13974136820E+02 -0.19551693293E+03  0.55675041845E+03  0.59024840195E+03  0.00000000000E+00 0. -1.
         -2    1    6    6    0  503 -0.18248066756E+02 -0.54440200474E+02  0.64689030384E+02  0.86495075120E+02  0.00000000000E+00 0.  1.
<mgrwt>
<rscale>  0 0.38128730E+04</rscale>
<asrwt>0</asrwt>
<pdfrwt beam="1">  1        2 0.50128604E+00 0.38128730E+04</pdfrwt>
<pdfrwt beam="2">  1       -1 0.17160596E+00 0.38128730E+04</pdfrwt>
<totfact> 0.25819028E-01</totfact>
</mgrwt>
</event>
<event>
12    6  0.1494052E-007  0.2306712E+04  0.7818608E-02  0.8475279E-01
         -1   -1    0    0    0  501 -0.00000000000E+00  0.00000000000E+00  0.53840284486E+03  0.53840284486E+03  0.00000000000E+00 0.  1.
          2   -1    0    0  501    0  0.00000000000E+00 -0.00000000000E+00 -0.24706966733E+04  0.24706966733E+04  0.00000000000E+00 0. -1.
         24    2    1    2    0    0 -0.66856215978E+02  0.41145259572E+03 -0.19620059863E+04  0.20073345605E+04  0.78495576217E+02 0.  0.
        254    2    1    2    0    0  0.66856215978E+02 -0.41145259572E+03  0.29712157858E+02  0.10017649576E+04  0.91043243894E+03 0.  0.
         23    2    4    4    0    0 -0.12833204779E+03 -0.15239829958E+03  0.42766776366E+03  0.48026028080E+03  0.89754470837E+02 0.  0.
         23    2    4    4    0    0  0.19518826376E+03 -0.25905429614E+03 -0.39795560580E+03  0.52150467684E+03  0.91601730938E+02 0.  0.
          4    1    3    3  502    0 -0.41650985208E+02  0.29455966409E+03 -0.15516410913E+04  0.15799019832E+04  0.00000000000E+00 0. -1.
         -3    1    3    3    0  502 -0.25205230770E+02  0.11689293163E+03 -0.41036489495E+03  0.42743257729E+03  0.00000000000E+00 0.  1.
         11    1    5    5    0    0 -0.15806878921E+02 -0.45878028600E+02  0.19334308733E+03  0.19933940992E+03  0.00000000000E+00 0. -1.
        -11    1    5    5    0    0 -0.11252516887E+03 -0.10652027098E+03  0.23432467633E+03  0.28092087088E+03  0.00000000000E+00 0.  1.
          1    1    6    6  503    0  0.75509199676E+02 -0.43256064860E+02 -0.13743872766E+03  0.16267184835E+03  0.00000000000E+00 0. -1.
         -1    1    6    6    0  503  0.11967906409E+03 -0.21579823128E+03 -0.26051687814E+03  0.35883282849E+03  0.00000000000E+00 0.  1.
<mgrwt>
<rscale>  0 0.23067120E+04</rscale>
<asrwt>0</asrwt>
<pdfrwt beam="1">  1        2 0.38010718E+00 0.23067120E+04</pdfrwt>
<pdfrwt beam="2">  1       -1 0.82831207E-01 0.23067120E+04</pdfrwt>
<totfact> 0.54028140E+00</totfact>
</mgrwt>
</event>
<event>
12    6  0.1494052E-007  0.2983096E+04  0.7818608E-02  0.8248574E-01
          2   -1    0    0  501    0  0.00000000000E+00  0.00000000000E+00  0.23869932692E+04  0.23869932692E+04  0.00000000000E+00 0. -1.
         -1   -1    0    0    0  501 -0.00000000000E+00 -0.00000000000E+00 -0.93201581365E+03  0.93201581365E+03  0.00000000000E+00 0.  1.
         24    2    1    2    0    0 -0.95578640564E+03  0.21066819859E+01 -0.42118093586E+03  0.10473958661E+04  0.78183299112E+02 0.  0.
        254    2    1    2    0    0  0.95578640564E+03 -0.21066819859E+01  0.18761583915E+04  0.22716132168E+04  0.85248120544E+03 0.  0.
         23    2    4    4    0    0  0.68153793699E+03  0.21358944012E+03  0.17456740043E+04  0.18883437013E+04  0.91377219388E+02 0.  0.
         23    2    4    4    0    0  0.27424846865E+03 -0.21569612210E+03  0.13048438712E+03  0.38326951553E+03  0.90179302566E+02 0.  0.
          4    1    3    3  502    0 -0.31784534894E+03 -0.36115977786E+02 -0.14214321787E+03  0.35004960231E+03  0.00000000000E+00 0. -1.
         -3    1    3    3    0  502 -0.63794105670E+03  0.38222659772E+02 -0.27903771799E+03  0.69734626378E+03  0.00000000000E+00 0.  1.
         11    1    5    5    0    0  0.25688517669E+03  0.58755403779E+02  0.54378375176E+03  0.60427060176E+03  0.00000000000E+00 0. -1.
        -11    1    5    5    0    0  0.42465276030E+03  0.15483403634E+03  0.12018902526E+04  0.12840730995E+04  0.00000000000E+00 0.  1.
          2    1    6    6  503    0  0.17176465336E+03 -0.14734445248E+03  0.38560586604E+02  0.22956568268E+03  0.00000000000E+00 0. -1.
         -2    1    6    6    0  503  0.10248381528E+03 -0.68351669620E+02  0.91923800515E+02  0.15370383286E+03  0.00000000000E+00 0.  1.
<mgrwt>
<rscale>  0 0.29830960E+04</rscale>
<asrwt>0</asrwt>
<pdfrwt beam="1">  1        2 0.36722973E+00 0.29830960E+04</pdfrwt>
<pdfrwt beam="2">  1       -1 0.14338705E+00 0.29830960E+04</pdfrwt>
<totfact> 0.15509113E+00</totfact>
</mgrwt>
</event>
<event>
12    6  0.1494052E-007  0.1505545E+04  0.7818608E-02  0.8880774E-01
          2   -1    0    0  501    0  0.00000000000E+00  0.00000000000E+00  0.13550075251E+04  0.13550075251E+04  0.00000000000E+00 0. -1.
         -1   -1    0    0    0  501 -0.00000000000E+00 -0.00000000000E+00 -0.41820194192E+03  0.41820194192E+03  0.00000000000E+00 0.  1.
         24    2    1    2    0    0 -0.13822150112E+03  0.22652963038E+02 -0.24421267271E+03  0.29254647272E+03  0.79531560293E+02 0.  0.
        254    2    1    2    0    0  0.13822150112E+03 -0.22652963038E+02  0.11810182559E+04  0.14806629943E+04  0.88200932070E+03 0.  0.
         23    2    4    4    0    0 -0.22628074671E+02  0.30726162382E+03  0.10203568544E+04  0.10696469528E+04  0.89970873292E+02 0.  0.
         23    2    4    4    0    0  0.16084957579E+03 -0.32991458685E+03  0.16066140140E+03  0.41101604143E+03  0.91683585016E+02 0.  0.
          4    1    3    3  502    0  0.40441956384E+00  0.12633050045E+02 -0.62544747179E+02  0.63809113051E+02  0.00000000000E+00 0. -1.
         -3    1    3    3    0  502 -0.13862592068E+03  0.10019912992E+02 -0.18166792553E+03  0.22873735967E+03  0.00000000000E+00 0.  1.
         11    1    5    5    0    0  0.15401565611E+02  0.68829123250E+02  0.13975098144E+03  0.15654070794E+03  0.00000000000E+00 0.  1.
        -11    1    5    5    0    0 -0.38029640283E+02  0.23843250057E+03  0.88060587301E+03  0.91310624488E+03  0.00000000000E+00 0. -1.
          2    1    6    6  503    0  0.18092425983E+02 -0.53114742579E+02 -0.82511676413E+01  0.56715020274E+02  0.00000000000E+00 0.  1.
         -2    1    6    6    0  503  0.14275714981E+03 -0.27679984427E+03  0.16891256904E+03  0.35430102116E+03  0.00000000000E+00 0. -1.
<mgrwt>
<rscale>  0 0.15055455E+04</rscale>
<asrwt>0</asrwt>
<pdfrwt beam="1">  1        2 0.20846269E+00 0.15055455E+04</pdfrwt>
<pdfrwt beam="2">  1       -1 0.64338761E-01 0.15055455E+04</pdfrwt>
<totfact> 0.41418817E+01</totfact>
</mgrwt>
</event>
<event>
12    6  0.1494052E-007  0.3623815E+04  0.7818608E-02  0.8085058E-01
          2   -1    0    0  501    0  0.00000000000E+00  0.00000000000E+00  0.20738799405E+04  0.20738799405E+04  0.00000000000E+00 0. -1.
         -1   -1    0    0    0  501 -0.00000000000E+00 -0.00000000000E+00 -0.15830276633E+04  0.15830276633E+04  0.00000000000E+00 0.  1.
         24    2    1    2    0    0  0.45465393406E+03 -0.91905131977E+03 -0.11370879660E+04  0.15333624669E+04  0.82860632348E+02 0.  0.
        254    2    1    2    0    0 -0.45465393406E+03  0.91905131977E+03  0.16279402431E+04  0.21235451369E+04  0.89882644880E+03 0.  0.
         23    2    4    4    0    0 -0.29492354499E+03  0.10653171148E+04  0.14649471900E+04  0.18376060325E+04  0.94048968603E+02 0.  0.
         23    2    4    4    0    0 -0.15973038907E+03 -0.14626579503E+03  0.16299305308E+03  0.28593910441E+03  0.91032719876E+02 0.  0.
          2    1    3    3  502    0  0.19580241266E+03 -0.45293949330E+03 -0.49783531176E+03  0.70095133000E+03  0.00000000000E+00 0. -1.
         -1    1    3    3    0  502  0.25885152141E+03 -0.46611182647E+03 -0.63925265422E+03  0.83241113690E+03  0.00000000000E+00 0.  1.
         11    1    5    5    0    0 -0.13023710698E+03  0.31889590007E+03  0.42877239482E+03  0.55000187788E+03  0.00000000000E+00 0.  1.
        -11    1    5    5    0    0 -0.16468643801E+03  0.74642121473E+03  0.10361747952E+04  0.12876041546E+04  0.00000000000E+00 0. -1.
          2    1    6    6  503    0 -0.11378846816E+03 -0.46255742502E+02  0.10469096026E+03  0.16139270851E+03  0.00000000000E+00 0. -1.
         -2    1    6    6    0  503 -0.45941920917E+02 -0.10001005253E+03  0.58302092825E+02  0.12454639590E+03  0.00000000000E+00 0.  1.
<mgrwt>
<rscale>  0 0.36238153E+04</rscale>
<asrwt>0</asrwt>
<pdfrwt beam="1">  1        2 0.31905845E+00 0.36238153E+04</pdfrwt>
<pdfrwt beam="2">  1       -1 0.24354272E+00 0.36238153E+04</pdfrwt>
<totfact> 0.43204052E-01</totfact>
</mgrwt>
</event>
<event>
12    6  0.1494052E-007  0.1783650E+04  0.7818608E-02  0.8715043E-01
          4   -1    0    0  501    0  0.00000000000E+00  0.00000000000E+00  0.16347709783E+04  0.16347709783E+04  0.00000000000E+00 0. -1.
         -3   -1    0    0    0  501 -0.00000000000E+00 -0.00000000000E+00 -0.48652188467E+03  0.48652188467E+03  0.00000000000E+00 0.  1.
         24    2    1    2    0    0 -0.43825668855E+03  0.33601820665E+03  0.85538754410E+03  0.10212477514E+04  0.79258809935E+02 0.  0.
        254    2    1    2    0    0  0.43825668855E+03 -0.33601820665E+03  0.29286154949E+03  0.11000451115E+04  0.90518186012E+03 0.  0.
         23    2    4    4    0    0  0.20246188382E+03  0.10683924101E+03 -0.25188731635E+03  0.35337042311E+03  0.94963140047E+02 0.  0.
         23    2    4    4    0    0  0.23579480473E+03 -0.44285744766E+03  0.54474886584E+03  0.74667468838E+03  0.95130723464E+02 0.  0.
          2    1    3    3  502    0 -0.15371578851E+03  0.10345990036E+03  0.35459338477E+03  0.40008619464E+03  0.00000000000E+00 0. -1.
         -1    1    3    3    0  502 -0.28454090004E+03  0.23255830629E+03  0.50079415933E+03  0.62116155680E+03  0.00000000000E+00 0.  1.
         11    1    5    5    0    0  0.84600119136E+02  0.95291413857E+02 -0.10818173944E+03  0.16715538418E+03  0.00000000000E+00 0. -1.
        -11    1    5    5    0    0  0.11786176468E+03  0.11547827158E+02 -0.14370557692E+03  0.18621503893E+03  0.00000000000E+00 0.  1.
          3    1    6    6  503    0  0.13041234108E+03 -0.19464654900E+03  0.19359960923E+03  0.30393332565E+03  0.00000000000E+00 0. -1.
         -3    1    6    6    0  503  0.10538246366E+03 -0.24821089866E+03  0.35114925661E+03  0.44274136274E+03  0.00000000000E+00 0.  1.
<mgrwt>
<rscale>  0 0.17836500E+04</rscale>
<asrwt>0</asrwt>
<pdfrwt beam="1">  1        4 0.25150322E+00 0.17836500E+04</pdfrwt>
<pdfrwt beam="2">  1       -3 0.74849521E-01 0.17836500E+04</pdfrwt>
<totfact> 0.22505953E-01</totfact>
</mgrwt>
</event>
<event>
12    6  0.1494052E-007  0.2225320E+04  0.7818608E-02  0.8507963E-01
         -1   -1    0    0    0  501 -0.00000000000E+00  0.00000000000E+00  0.29686565590E+03  0.29686565590E+03  0.00000000000E+00 0.  1.
          2   -1    0    0  501    0  0.00000000000E+00 -0.00000000000E+00 -0.41702784636E+04  0.41702784636E+04  0.00000000000E+00 0. -1.
         24    2    1    2    0    0 -0.34086889591E+03  0.60202270633E+03 -0.38511450793E+03  0.79588201570E+03  0.80573293097E+02 0.  0.
        254    2    1    2    0    0  0.34086889591E+03 -0.60202270633E+03 -0.34882982997E+04  0.36712621038E+04  0.91176612323E+03 0.  0.
         23    2    4    4    0    0  0.31543259730E+03 -0.75074650660E+03 -0.18475544125E+04  0.20211032137E+04  0.91010178922E+02 0.  0.
         23    2    4    4    0    0  0.25436298608E+02  0.14872380027E+03 -0.16407438873E+04  0.16501588901E+04  0.90653653526E+02 0.  0.
          4    1    3    3  502    0 -0.42049998930E+02  0.32398382223E+02 -0.34151237754E+02  0.63120239392E+02  0.00000000000E+00 0. -1.
         -3    1    3    3    0  502 -0.29881889698E+03  0.56962432410E+03 -0.35096327018E+03  0.73276177631E+03  0.00000000000E+00 0.  1.
         11    1    5    5    0    0  0.28456344404E+03 -0.58272020275E+03 -0.14521152188E+04  0.15903388938E+04  0.00000000000E+00 0.  1.
        -11    1    5    5    0    0  0.30869153268E+02 -0.16802630385E+03 -0.39543919364E+03  0.43076431987E+03  0.00000000000E+00 0. -1.
          2    1    6    6  503    0 -0.31742885697E+02  0.55523347923E+02 -0.75180012989E+03  0.75451566469E+03  0.00000000000E+00 0. -1.
         -2    1    6    6    0  503  0.57179184305E+02  0.93200452349E+02 -0.88894375736E+03  0.89564322539E+03  0.00000000000E+00 0.  1.
<mgrwt>
<rscale>  0 0.22253202E+04</rscale>
<asrwt>0</asrwt>
<pdfrwt beam="1">  1        2 0.64158129E+00 0.22253202E+04</pdfrwt>
<pdfrwt beam="2">  1       -1 0.45671640E-01 0.22253202E+04</pdfrwt>
<totfact> 0.12295863E+00</totfact>
</mgrwt>
</event>
<event>
12    6  0.1494052E-007  0.2709165E+04  0.7818608E-02  0.8332037E-01
          2   -1    0    0  501    0  0.00000000000E+00  0.00000000000E+00  0.12880220290E+04  0.12880220290E+04  0.00000000000E+00 0. -1.
         -1   -1    0    0    0  501 -0.00000000000E+00 -0.00000000000E+00 -0.14245830211E+04  0.14245830211E+04  0.00000000000E+00 0.  1.
         24    2    1    2    0    0 -0.29539481268E+03  0.76394802676E+02 -0.12259265116E+04  0.12661259122E+04  0.84170970894E+02 0.  0.
        254    2    1    2    0    0  0.29539481268E+03 -0.76394802676E+02  0.10893655196E+04  0.14464791379E+04  0.90138249376E+03 0.  0.
         23    2    4    4    0    0  0.11735613966E+03 -0.45270199235E+03  0.34219025574E+03  0.58680454990E+03  0.92378846383E+02 0.  0.
         23    2    4    4    0    0  0.17803867302E+03  0.37630718968E+03  0.74717526382E+03  0.85967458804E+03  0.86398219698E+02 0.  0.
          2    1    3    3  502    0 -0.25017870125E+02  0.11254604009E+02 -0.24515336108E+03  0.24668346192E+03  0.00000000000E+00 0. -1.
         -1    1    3    3    0  502 -0.27037694255E+03  0.65140198666E+02 -0.98077315057E+03  0.10194424503E+04  0.00000000000E+00 0.  1.
         11    1    5    5    0    0  0.28006160490E+00 -0.10142983963E+03  0.40604634462E+02  0.10925578768E+03  0.00000000000E+00 0. -1.
        -11    1    5    5    0    0  0.11707607806E+03 -0.35127215272E+03  0.30158562128E+03  0.47754876221E+03  0.00000000000E+00 0.  1.
          2    1    6    6  503    0  0.51659860074E+02  0.40054655416E+02  0.13200896231E+03  0.14730744276E+03  0.00000000000E+00 0. -1.
         -2    1    6    6    0  503  0.12637881294E+03  0.33625253426E+03  0.61516630151E+03  0.71236714528E+03  0.00000000000E+00 0.  1.
<mgrwt>
<rscale>  0 0.27091654E+04</rscale>
<asrwt>0</asrwt>
<pdfrwt beam="1">  1        2 0.19815724E+00 0.27091654E+04</pdfrwt>
<pdfrwt beam="2">  1       -1 0.21916662E+00 0.27091654E+04</pdfrwt>
<totfact> 0.18705016E+00</totfact>
</mgrwt>
</event>
<event>
12    6  0.1494052E-007  0.1495661E+04  0.7818608E-02  0.8887344E-01
         -1   -1    0    0    0  501 -0.00000000000E+00  0.00000000000E+00  0.39745542471E+03  0.39745542471E+03  0.00000000000E+00 0.  1.
          2   -1    0    0  501    0  0.00000000000E+00 -0.00000000000E+00 -0.14070768929E+04  0.14070768929E+04  0.00000000000E+00 0. -1.
         24    2    1    2    0    0  0.30574123237E+03  0.31419430165E+03 -0.12414355470E+03  0.46279895247E+03  0.81089381977E+02 0.  0.
        254    2    1    2    0    0 -0.30574123237E+03 -0.31419430165E+03 -0.88547791354E+03  0.13417333652E+04  0.90773428245E+03 0.  0.
         23    2    4    4    0    0 -0.44124399748E+03 -0.67438981305E+02 -0.93656978662E+03  0.10414504186E+04  0.90618583804E+02 0.  0.
         23    2    4    4    0    0  0.13550276510E+03 -0.24675532035E+03  0.51091873074E+02  0.30028294657E+03  0.91160742853E+02 0.  0.
          4    1    3    3  502    0  0.19667820987E+02  0.57991463821E+02 -0.25280786632E+02  0.66249160231E+02  0.00000000000E+00 0. -1.
         -3    1    3    3    0  502  0.28607341139E+03  0.25620283783E+03 -0.98862768064E+02  0.39654979224E+03  0.00000000000E+00 0.  1.
         11    1    5    5    0    0 -0.35196224336E+03 -0.48513421216E+02 -0.65086769702E+03  0.74152527389E+03  0.00000000000E+00 0.  1.
        -11    1    5    5    0    0 -0.89281754115E+02 -0.18925560089E+02 -0.28570208959E+03  0.29992514473E+03  0.00000000000E+00 0. -1.
          4    1    6    6  503    0  0.25592820081E+02 -0.28890667429E+01 -0.67182432509E+01  0.26617173755E+02  0.00000000000E+00 0. -1.
         -4    1    6    6    0  503  0.10990994502E+03 -0.24386625361E+03  0.57810116325E+02  0.27366577282E+03  0.00000000000E+00 0.  1.
<mgrwt>
<rscale>  0 0.14956608E+04</rscale>
<asrwt>0</asrwt>
<pdfrwt beam="1">  1        2 0.21647337E+00 0.14956608E+04</pdfrwt>
<pdfrwt beam="2">  1       -1 0.61146989E-01 0.14956608E+04</pdfrwt>
<totfact> 0.42833544E+01</totfact>
</mgrwt>
</event>
<event>
12    6  0.1494052E-007  0.1780430E+04  0.7818608E-02  0.8716776E-01
         -1   -1    0    0    0  501 -0.00000000000E+00  0.00000000000E+00  0.14792022363E+04  0.14792022363E+04  0.00000000000E+00 0.  1.
          2   -1    0    0  501    0  0.00000000000E+00 -0.00000000000E+00 -0.53574994650E+03  0.53574994650E+03  0.00000000000E+00 0. -1.
         24    2    1    2    0    0 -0.18108506890E+03  0.26152301054E+02  0.10728389657E+04  0.10910927653E+04  0.77615920418E+02 0.  0.
        254    2    1    2    0    0  0.18108506890E+03 -0.26152301054E+02 -0.12938667595E+03  0.92385941746E+03  0.89626980664E+03 0.  0.
         23    2    4    4    0    0  0.16378469943E+03  0.35814191084E+03 -0.28925150351E+03  0.49765841894E+03  0.94373797166E+02 0.  0.
         23    2    4    4    0    0  0.17300369468E+02 -0.38429421189E+03  0.15986482756E+03  0.42620099853E+03  0.90051007638E+02 0.  0.
          4    1    3    3  502    0 -0.53019224872E+02 -0.12944406698E+02  0.17467776164E+03  0.18300523567E+03  0.00000000000E+00 0. -1.
         -3    1    3    3    0  502 -0.12806584403E+03  0.39096707751E+02  0.89816120409E+03  0.90808752965E+03  0.00000000000E+00 0.  1.
         11    1    5    5    0    0  0.55134795548E+01  0.11265770617E+03 -0.85335125626E+02  0.14143634922E+03  0.00000000000E+00 0.  1.
        -11    1    5    5    0    0  0.15827121987E+03  0.24548420467E+03 -0.20391637788E+03  0.35622206971E+03  0.00000000000E+00 0. -1.
          1    1    6    6  503    0 -0.33754839934E+02 -0.10504919764E+03  0.32203522212E+02  0.11494255081E+03  0.00000000000E+00 0. -1.
         -1    1    6    6    0  503  0.51055209403E+02 -0.27924501425E+03  0.12766130535E+03  0.31125844771E+03  0.00000000000E+00 0.  1.
<mgrwt>
<rscale>  0 0.17804297E+04</rscale>
<asrwt>0</asrwt>
<pdfrwt beam="1">  1        2 0.82423069E-01 0.17804297E+04</pdfrwt>
<pdfrwt beam="2">  1       -1 0.22756957E+00 0.17804297E+04</pdfrwt>
<totfact> 0.60100649E+00</totfact>
</mgrwt>
</event>
<event>
12    6  0.1494052E-007  0.1683674E+04  0.7818608E-02  0.8770731E-01
          2   -1    0    0  501    0  0.00000000000E+00  0.00000000000E+00  0.16917782626E+04  0.16917782626E+04  0.00000000000E+00 0. -1.
         -1   -1    0    0    0  501 -0.00000000000E+00 -0.00000000000E+00 -0.41890213384E+03  0.41890213384E+03  0.00000000000E+00 0.  1.
         24    2    1    2    0    0 -0.52510044372E+03  0.19216218159E+01  0.10138046382E+03  0.54078785487E+03  0.80245479075E+02 0.  0.
        254    2    1    2    0    0  0.52510044372E+03 -0.19216218159E+01  0.11714956650E+04  0.15698925416E+04  0.90356313033E+03 0.  0.
         23    2    4    4    0    0  0.24152733106E+02  0.35301669243E+03  0.70326693457E+03  0.79234492719E+03  0.89565410338E+02 0.  0.
         23    2    4    4    0    0  0.50094771061E+03 -0.35493831425E+03  0.46822873039E+03  0.77754761440E+03  0.91718771319E+02 0.  0.
          4    1    3    3  502    0 -0.33205699584E+03 -0.17356196275E+02  0.98388059930E+02  0.34676115177E+03  0.00000000000E+00 0. -1.
         -3    1    3    3    0  502 -0.19304344787E+03  0.19277818091E+02  0.29924038877E+01  0.19402670311E+03  0.00000000000E+00 0.  1.
         11    1    5    5    0    0  0.29280276926E+02  0.33192846668E+03  0.69164059657E+03  0.76772427109E+03  0.00000000000E+00 0. -1.
        -11    1    5    5    0    0 -0.51275438200E+01  0.21088225754E+02  0.11626338001E+02  0.24620656092E+02  0.00000000000E+00 0.  1.
          1    1    6    6  503    0  0.41279698573E+03 -0.25252599102E+03  0.34135218742E+03  0.59219257292E+03  0.00000000000E+00 0. -1.
         -1    1    6    6    0  503  0.88150724883E+02 -0.10241232323E+03  0.12687654297E+03  0.18535504148E+03  0.00000000000E+00 0.  1.
<mgrwt>
<rscale>  0 0.16836740E+04</rscale>
<asrwt>0</asrwt>
<pdfrwt beam="1">  1        2 0.26027358E+00 0.16836740E+04</pdfrwt>
<pdfrwt beam="2">  1       -1 0.64446483E-01 0.16836740E+04</pdfrwt>
<totfact> 0.26261648E+01</totfact>
</mgrwt>
</event>
<event>
12    6  0.1494052E-007  0.2458191E+04  0.7818608E-02  0.8418033E-01
          2   -1    0    0  501    0  0.00000000000E+00  0.00000000000E+00  0.30773179746E+04  0.30773179746E+04  0.00000000000E+00 0. -1.
         -1   -1    0    0    0  501 -0.00000000000E+00 -0.00000000000E+00 -0.49090675362E+03  0.49090675362E+03  0.00000000000E+00 0.  1.
         24    2    1    2    0    0  0.60121536287E+03 -0.38680032095E+03  0.22629791464E+04  0.23745966272E+04  0.80994592955E+02 0.  0.
        254    2    1    2    0    0 -0.60121536287E+03  0.38680032095E+03  0.32343207464E+03  0.11936281011E+04  0.89948059230E+03 0.  0.
         23    2    4    4    0    0 -0.33864825890E+03  0.20245629871E+03  0.62455691712E+03  0.74427459700E+03  0.90565649524E+02 0.  0.
         23    2    4    4    0    0 -0.26256710397E+03  0.18434402224E+03 -0.30112484249E+03  0.44935350407E+03  0.91204156894E+02 0.  0.
          2    1    3    3  502    0  0.49472891078E+03 -0.35272074147E+03  0.19230273298E+04  0.20167307029E+04  0.00000000000E+00 0. -1.
         -1    1    3    3    0  502  0.10648645209E+03 -0.34079579483E+02  0.33995181653E+03  0.35786592430E+03  0.00000000000E+00 0.  1.
         11    1    5    5    0    0 -0.11608447206E+03  0.48289095277E+02  0.13254841984E+03  0.18269243274E+03  0.00000000000E+00 0. -1.
        -11    1    5    5    0    0 -0.22256378684E+03  0.15416720343E+03  0.49200849728E+03  0.56158216427E+03  0.00000000000E+00 0.  1.
          2    1    6    6  503    0 -0.62907548550E+01  0.24880297625E+00 -0.37938529054E+02  0.38457346325E+02  0.00000000000E+00 0. -1.
         -2    1    6    6    0  503 -0.25627634911E+03  0.18409521927E+03 -0.26318631343E+03  0.41089615774E+03  0.00000000000E+00 0.  1.
<mgrwt>
<rscale>  0 0.24581913E+04</rscale>
<asrwt>0</asrwt>
<pdfrwt beam="1">  1        2 0.47343352E+00 0.24581913E+04</pdfrwt>
<pdfrwt beam="2">  1       -1 0.75524118E-01 0.24581913E+04</pdfrwt>
<totfact> 0.27915029E+00</totfact>
</mgrwt>
</event>
<event>
12    6  0.1494052E-007  0.1466191E+04  0.7818608E-02  0.8907252E-01
         -1   -1    0    0    0  501 -0.00000000000E+00  0.00000000000E+00  0.19462973123E+03  0.19462973123E+03  0.00000000000E+00 0.  1.
          2   -1    0    0  501    0  0.00000000000E+00 -0.00000000000E+00 -0.27612885619E+04  0.27612885619E+04  0.00000000000E+00 0. -1.
         24    2    1    2    0    0 -0.15326270677E+02 -0.21009564161E+03 -0.15564392695E+04  0.15731546044E+04  0.89090608275E+02 0.  0.
        254    2    1    2    0    0  0.15326270677E+02  0.21009564161E+03 -0.10102195611E+04  0.13827636887E+04  0.92038947401E+03 0.  0.
         23    2    4    4    0    0  0.18917367455E+03  0.92614843027E+02 -0.11093358507E+04  0.11327525698E+04  0.90211787222E+02 0.  0.
         23    2    4    4    0    0 -0.17384740387E+03  0.11748079858E+03  0.99116289588E+02  0.25001111883E+03  0.93042263567E+02 0.  0.
          4    1    3    3  502    0  0.22346559883E+02 -0.13540220697E+03 -0.11526349300E+04  0.11607757786E+04  0.00000000000E+00 0. -1.
         -3    1    3    3    0  502 -0.37672830560E+02 -0.74693434640E+02 -0.40380433952E+03  0.41237882579E+03  0.00000000000E+00 0.  1.
         11    1    5    5    0    0  0.74176595568E+01 -0.13658581807E+02 -0.40566503382E+02  0.43442142292E+02  0.00000000000E+00 0. -1.
        -11    1    5    5    0    0  0.18175601499E+03  0.10627342483E+03 -0.10687693473E+04  0.10893104276E+04  0.00000000000E+00 0.  1.
          1    1    6    6  503    0 -0.16690662907E+02  0.20670180114E+02 -0.17373892400E+02  0.31744081517E+02  0.00000000000E+00 0. -1.
         -1    1    6    6    0  503 -0.15715674096E+03  0.96810618468E+02  0.11649018199E+03  0.21826703731E+03  0.00000000000E+00 0.  1.
<mgrwt>
<rscale>  0 0.14661908E+04</rscale>
<asrwt>0</asrwt>
<pdfrwt beam="1">  1        2 0.42481362E+00 0.14661908E+04</pdfrwt>
<pdfrwt beam="2">  1       -1 0.29943036E-01 0.14661908E+04</pdfrwt>
<totfact> 0.27705851E+01</totfact>
</mgrwt>
</event>
<event>
12    6  0.1494052E-007  0.1716982E+04  0.7818608E-02  0.8751738E-01
         -1   -1    0    0    0  501 -0.00000000000E+00  0.00000000000E+00  0.34358485833E+03  0.34358485833E+03  0.00000000000E+00 0.  1.
          2   -1    0    0  501    0  0.00000000000E+00 -0.00000000000E+00 -0.21450500782E+04  0.21450500782E+04  0.00000000000E+00 0. -1.
         24    2    1    2    0    0  0.18699324414E+03 -0.30227461561E+03  0.78463644736E+02  0.37277938779E+03  0.80445707294E+02 0.  0.
        254    2    1    2    0    0 -0.18699324414E+03  0.30227461561E+03 -0.18799288646E+04  0.21158555487E+04  0.90353514071E+03 0.  0.
         23    2    4    4    0    0 -0.34484367668E+03 -0.21881147111E+03 -0.79565633813E+03  0.89886624235E+03  0.89977174827E+02 0.  0.
         23    2    4    4    0    0  0.15785043254E+03  0.52108608672E+03 -0.10842725264E+04  0.12169893063E+04  0.94702646912E+02 0.  0.
          4    1    3    3  502    0  0.16201901018E+02 -0.41520674699E+01 -0.79217779836E+01  0.18506642788E+02  0.00000000000E+00 0. -1.
         -3    1    3    3    0  502  0.17079134312E+03 -0.29812254814E+03  0.86385422719E+02  0.35427274501E+03  0.00000000000E+00 0.  1.
         11    1    5    5    0    0 -0.12141149070E+02 -0.37124654810E+02 -0.69930840461E+02  0.80099749956E+02  0.00000000000E+00 0. -1.
        -11    1    5    5    0    0 -0.33270252761E+03 -0.18168681630E+03 -0.72572549767E+03  0.81876649239E+03  0.00000000000E+00 0.  1.
          3    1    6    6  503    0  0.92421404479E+02  0.35171074169E+03 -0.81218177943E+03  0.88987718516E+03  0.00000000000E+00 0. -1.
         -3    1    6    6    0  503  0.65429028062E+02  0.16937534503E+03 -0.27209074701E+03  0.32711212119E+03  0.00000000000E+00 0.  1.
<mgrwt>
<rscale>  0 0.17169819E+04</rscale>
<asrwt>0</asrwt>
<pdfrwt beam="1">  1        2 0.33000771E+00 0.17169819E+04</pdfrwt>
<pdfrwt beam="2">  1       -1 0.52859208E-01 0.17169819E+04</pdfrwt>
<totfact> 0.21655895E+01</totfact>
</mgrwt>
</event>
<event>
12    6  0.1494052E-007  0.1729281E+04  0.7818608E-02  0.8744838E-01
          2   -1    0    0  501    0  0.00000000000E+00  0.00000000000E+00  0.12733458354E+04  0.12733458354E+04  0.00000000000E+00 0. -1.
         -1   -1    0    0    0  501 -0.00000000000E+00 -0.00000000000E+00 -0.58711712397E+03  0.58711712397E+03  0.00000000000E+00 0.  1.
         24    2    1    2    0    0 -0.44547959114E+03  0.55363308330E+01  0.74530491786E+03  0.87120118528E+03  0.70918034074E+02 0.  0.
        254    2    1    2    0    0  0.44547959114E+03 -0.55363308330E+01 -0.59076206447E+02  0.98926177408E+03  0.88128664032E+03 0.  0.
         23    2    4    4    0    0  0.16864232823E+03  0.37317505342E+02 -0.45519376755E+03  0.49546484973E+03  0.91930518501E+02 0.  0.
         23    2    4    4    0    0  0.27683726292E+03 -0.42853836175E+02  0.39611756110E+03  0.49379692435E+03  0.91929096975E+02 0.  0.
          4    1    3    3  502    0 -0.38333225401E+03 -0.10106878714E+02  0.67302477797E+03  0.77460190919E+03  0.00000000000E+00 0. -1.
         -3    1    3    3    0  502 -0.62147337132E+02  0.15643209547E+02  0.72280139891E+02  0.96599276085E+02  0.00000000000E+00 0.  1.
         11    1    5    5    0    0  0.15851713025E+03  0.16624248035E+02 -0.43971350938E+03  0.46770932911E+03  0.00000000000E+00 0.  1.
        -11    1    5    5    0    0  0.10125197979E+02  0.20693257307E+02 -0.15480258164E+02  0.27755520620E+02  0.00000000000E+00 0. -1.
          2    1    6    6  503    0  0.10166366022E+03 -0.24582189586E+02  0.79083087234E+02  0.13112558309E+03  0.00000000000E+00 0. -1.
         -2    1    6    6    0  503  0.17517360269E+03 -0.18271646589E+02  0.31703447387E+03  0.36267134126E+03  0.00000000000E+00 0.  1.
<mgrwt>
<rscale>  0 0.17292809E+04</rscale>
<asrwt>0</asrwt>
<pdfrwt beam="1">  1        2 0.19589936E+00 0.17292809E+04</pdfrwt>
<pdfrwt beam="2">  1       -1 0.90325712E-01 0.17292809E+04</pdfrwt>
<totfact> 0.22227781E+01</totfact>
</mgrwt>
</event>
<event>
12    6  0.1494052E-007  0.1569923E+04  0.7818608E-02  0.8839242E-01
         -1   -1    0    0    0  501 -0.00000000000E+00  0.00000000000E+00  0.34270285028E+03  0.34270285028E+03  0.00000000000E+00 0.  1.
          2   -1    0    0  501    0  0.00000000000E+00 -0.00000000000E+00 -0.17979547387E+04  0.17979547387E+04  0.00000000000E+00 0. -1.
         24    2    1    2    0    0  0.72711770849E+02 -0.46318013271E+03 -0.73742793264E+03  0.87745960219E+03  0.79451624826E+02 0.  0.
        254    2    1    2    0    0 -0.72711770849E+02  0.46318013271E+03 -0.71782395580E+03  0.12631979868E+04  0.92767186300E+03 0.  0.
         23    2    4    4    0    0 -0.36175757168E+03  0.26917766484E+03 -0.25042425193E+00  0.46053597423E+03  0.93638479950E+02 0.  0.
         23    2    4    4    0    0  0.28904580084E+03  0.19400246787E+03 -0.71757353155E+03  0.80266201258E+03  0.90388609544E+02 0.  0.
          4    1    3    3  502    0  0.76423942650E+02 -0.37437277732E+03 -0.54616753013E+03  0.66655424864E+03  0.00000000000E+00 0. -1.
         -3    1    3    3    0  502 -0.37121718003E+01 -0.88807355394E+02 -0.19126040251E+03  0.21090535355E+03  0.00000000000E+00 0.  1.
         11    1    5    5    0    0 -0.33399443069E+03  0.27397320355E+03  0.42240957374E+01  0.43200860985E+03  0.00000000000E+00 0. -1.
        -11    1    5    5    0    0 -0.27763140991E+02 -0.47955387152E+01 -0.44745199893E+01  0.28527364379E+02  0.00000000000E+00 0.  1.
          1    1    6    6  503    0  0.25976772292E+03  0.15084961250E+03 -0.65902394961E+03  0.72425647503E+03  0.00000000000E+00 0. -1.
         -1    1    6    6    0  503  0.29278077913E+02  0.43152855372E+02 -0.58549581942E+02  0.78405537551E+02  0.00000000000E+00 0.  1.
<mgrwt>
<rscale>  0 0.15699226E+04</rscale>
<asrwt>0</asrwt>
<pdfrwt beam="1">  1        2 0.27660842E+00 0.15699226E+04</pdfrwt>
<pdfrwt beam="2">  1       -1 0.52723516E-01 0.15699226E+04</pdfrwt>
<totfact> 0.34344889E+01</totfact>
</mgrwt>
</event>
<event>
12    6  0.1494052E-007  0.2022547E+04  0.7818608E-02  0.8596151E-01
         -1   -1    0    0    0  501 -0.00000000000E+00  0.00000000000E+00  0.34915003415E+03  0.34915003415E+03  0.00000000000E+00 0.  1.
          2   -1    0    0  501    0  0.00000000000E+00 -0.00000000000E+00 -0.29290398229E+04  0.29290398229E+04  0.00000000000E+00 0. -1.
         24    2    1    2    0    0 -0.21404667652E+03 -0.46917403167E+03 -0.20381202373E+04  0.21039362356E+04  0.81690451355E+02 0.  0.
        254    2    1    2    0    0  0.21404667652E+03  0.46917403167E+03 -0.54176955145E+03  0.11742536215E+04  0.90521658680E+03 0.  0.
         23    2    4    4    0    0 -0.24799843192E+03 -0.93219182696E+02 -0.27976745650E+02  0.27890464730E+03  0.82535239314E+02 0.  0.
         23    2    4    4    0    0  0.46204510845E+03  0.56239321437E+03 -0.51379280580E+03  0.89534897421E+03  0.88853410257E+02 0.  0.
          2    1    3    3  502    0 -0.13550973728E+03 -0.33276313165E+03 -0.15484794394E+04  0.15896171756E+04  0.00000000000E+00 0. -1.
         -1    1    3    3    0  502 -0.78536939244E+02 -0.13641090002E+03 -0.48964079788E+03  0.51431905995E+03  0.00000000000E+00 0.  1.
         11    1    5    5    0    0 -0.10367546572E+03  0.28138704050E+01 -0.18001419673E+02  0.10526429200E+03  0.00000000000E+00 0.  1.
        -11    1    5    5    0    0 -0.14432296620E+03 -0.96033053101E+02 -0.99753259768E+01  0.17364035530E+03  0.00000000000E+00 0. -1.
          1    1    6    6  503    0  0.38767053385E+03  0.50824633814E+03 -0.42586983895E+03  0.76809368099E+03  0.00000000000E+00 0. -1.
         -1    1    6    6    0  503  0.74374574596E+02  0.54146876223E+02 -0.87922966856E+02  0.12725529322E+03  0.00000000000E+00 0.  1.
<mgrwt>
<rscale>  0 0.20225473E+04</rscale>
<asrwt>0</asrwt>
<pdfrwt beam="1">  1        2 0.45062151E+00 0.20225473E+04</pdfrwt>
<pdfrwt beam="2">  1       -1 0.53715390E-01 0.20225473E+04</pdfrwt>
<totfact> 0.71309997E+00</totfact>
</mgrwt>
</event>
<event>
12    6  0.1494052E-007  0.1547192E+04  0.7818608E-02  0.8853663E-01
          2   -1    0    0  501    0  0.00000000000E+00  0.00000000000E+00  0.13414739334E+04  0.13414739334E+04  0.00000000000E+00 0. -1.
         -1   -1    0    0    0  501 -0.00000000000E+00 -0.00000000000E+00 -0.44611430931E+03  0.44611430931E+03  0.00000000000E+00 0.  1.
         24    2    1    2    0    0 -0.33979677080E+02  0.41760768353E+03 -0.31897345422E+02  0.42772845528E+03  0.79896151440E+02 0.  0.
        254    2    1    2    0    0  0.33979677080E+02 -0.41760768353E+03  0.92725696953E+03  0.13598597875E+04  0.90214320271E+03 0.  0.
         23    2    4    4    0    0 -0.32868490675E+03  0.78128024947E+02  0.48992564774E+03  0.60043457545E+03  0.79729435479E+02 0.  0.
         23    2    4    4    0    0  0.36266458383E+03 -0.49573570848E+03  0.43733132180E+03  0.75942521200E+03  0.90490190491E+02 0.  0.
          4    1    3    3  502    0  0.10880996477E+02  0.16599096174E+03  0.18001779336E+02  0.16731843749E+03  0.00000000000E+00 0. -1.
         -3    1    3    3    0  502 -0.44860673558E+02  0.25161672178E+03 -0.49899124758E+02  0.26041001779E+03  0.00000000000E+00 0.  1.
         11    1    5    5    0    0 -0.21576180238E+03  0.15029205990E+02  0.27921487092E+03  0.35318547046E+03  0.00000000000E+00 0. -1.
        -11    1    5    5    0    0 -0.11292310437E+03  0.63098818957E+02  0.21071077682E+03  0.24724910500E+03  0.00000000000E+00 0.  1.
          3    1    6    6  503    0  0.12519201500E+03 -0.13178088238E+03  0.17203575640E+03  0.25027093931E+03  0.00000000000E+00 0. -1.
         -3    1    6    6    0  503  0.23747256883E+03 -0.36395482609E+03  0.26529556540E+03  0.50915427269E+03  0.00000000000E+00 0.  1.
<mgrwt>
<rscale>  0 0.15471919E+04</rscale>
<asrwt>0</asrwt>
<pdfrwt beam="1">  1        2 0.20638060E+00 0.15471919E+04</pdfrwt>
<pdfrwt beam="2">  1       -1 0.68632972E-01 0.15471919E+04</pdfrwt>
<totfact> 0.36872969E+01</totfact>
</mgrwt>
</event>
<event>
12    6  0.1494052E-007  0.2164880E+04  0.7818608E-02  0.8533190E-01
         -1   -1    0    0    0  501 -0.00000000000E+00  0.00000000000E+00  0.12036858354E+04  0.12036858354E+04  0.00000000000E+00 0.  1.
          2   -1    0    0  501    0  0.00000000000E+00 -0.00000000000E+00 -0.97340707519E+03  0.97340707519E+03  0.00000000000E+00 0. -1.
         24    2    1    2    0    0 -0.34257375481E+03  0.45033013071E+03 -0.60402016448E+03  0.83145499472E+03  0.79517576905E+02 0.  0.
        254    2    1    2    0    0  0.34257375481E+03 -0.45033013071E+03  0.83429892472E+03  0.13456379159E+04  0.89136563811E+03 0.  0.
         23    2    4    4    0    0  0.36092111507E+03 -0.65803843406E+03  0.81739513003E+03  0.11132490062E+04  0.88937726334E+02 0.  0.
         23    2    4    4    0    0 -0.18347360262E+02  0.20770830335E+03  0.16903794695E+02  0.23238890971E+03  0.10119042531E+03 0.  0.
          4    1    3    3  502    0 -0.25320335676E+03  0.30182733150E+03 -0.37199070313E+03  0.54183831641E+03  0.00000000000E+00 0. -1.
         -3    1    3    3    0  502 -0.89370398042E+02  0.14850279922E+03 -0.23202946135E+03  0.28961667831E+03  0.00000000000E+00 0.  1.
         11    1    5    5    0    0  0.30311454147E+03 -0.53877401874E+03  0.62036192555E+03  0.87578809491E+03  0.00000000000E+00 0.  1.
        -11    1    5    5    0    0  0.57806573594E+02 -0.11926441533E+03  0.19703320448E+03  0.23746091127E+03  0.00000000000E+00 0. -1.
          1    1    6    6  503    0  0.40708656257E+02  0.10382385663E+03 -0.12135624111E+01  0.11152605361E+03  0.00000000000E+00 0. -1.
         -1    1    6    6    0  503 -0.59056016518E+02  0.10388444672E+03  0.18117357106E+02  0.12086285611E+03  0.00000000000E+00 0.  1.
<mgrwt>
<rscale>  0 0.21648800E+04</rscale>
<asrwt>0</asrwt>
<pdfrwt beam="1">  1        2 0.14975493E+00 0.21648800E+04</pdfrwt>
<pdfrwt beam="2">  1       -1 0.18518244E+00 0.21648800E+04</pdfrwt>
<totfact> 0.52362120E+00</totfact>
</mgrwt>
</event>
<event>
12    6  0.1494052E-007  0.1567873E+04  0.7818608E-02  0.8840531E-01
          2   -1    0    0  501    0  0.00000000000E+00  0.00000000000E+00  0.22775446023E+04  0.22775446023E+04  0.00000000000E+00 0. -1.
         -1   -1    0    0    0  501 -0.00000000000E+00 -0.00000000000E+00 -0.26983294138E+03  0.26983294138E+03  0.00000000000E+00 0.  1.
         24    2    1    2    0    0 -0.26710418790E+03  0.46016008775E+03  0.61676492670E+03  0.81835374158E+03  0.78815721856E+02 0.  0.
        254    2    1    2    0    0  0.26710418790E+03 -0.46016008775E+03  0.13909467342E+04  0.17290238021E+04  0.87846373701E+03 0.  0.
         23    2    4    4    0    0 -0.12330096198E+03  0.20352389935E+03  0.35834522309E+03  0.43771593827E+03  0.80986658602E+02 0.  0.
         23    2    4    4    0    0  0.39040514988E+03 -0.66368398710E+03  0.10326015111E+04  0.12913078638E+04  0.91200343328E+02 0.  0.
          2    1    3    3  502    0 -0.23960822136E+03  0.37417954928E+03  0.47618657091E+03  0.65128802013E+03  0.00000000000E+00 0. -1.
         -1    1    3    3    0  502 -0.27495966542E+02  0.85980538463E+02  0.14057835579E+03  0.16706572146E+03  0.00000000000E+00 0.  1.
         11    1    5    5    0    0 -0.10483867094E+03  0.20725011642E+03  0.33651045036E+03  0.40888022804E+03  0.00000000000E+00 0. -1.
        -11    1    5    5    0    0 -0.18462291043E+02 -0.37262170715E+01  0.21834772725E+02  0.28835710225E+02  0.00000000000E+00 0.  1.
          2    1    6    6  503    0  0.28581771806E+03 -0.53756458732E+03  0.85572895234E+03  0.10502092617E+04  0.00000000000E+00 0. -1.
         -2    1    6    6    0  503  0.10458743182E+03 -0.12611939977E+03  0.17687255879E+03  0.24109860213E+03  0.00000000000E+00 0.  1.
<mgrwt>
<rscale>  0 0.15678732E+04</rscale>
<asrwt>0</asrwt>
<pdfrwt beam="1">  1        2 0.35039146E+00 0.15678732E+04</pdfrwt>
<pdfrwt beam="2">  1       -1 0.41512762E-01 0.15678732E+04</pdfrwt>
<totfact> 0.29110979E+01</totfact>
</mgrwt>
</event>
<event>
12    6  0.1494052E-007  0.2235594E+04  0.7818608E-02  0.8503757E-01
         -3   -1    0    0    0  501 -0.00000000000E+00  0.00000000000E+00  0.21359118724E+04  0.21359118724E+04  0.00000000000E+00 0.  1.
          2   -1    0    0  501    0  0.00000000000E+00 -0.00000000000E+00 -0.58498219716E+03  0.58498219716E+03  0.00000000000E+00 0. -1.
         24    2    1    2    0    0 -0.26172895894E+03  0.21896550145E+03 -0.40232925751E+03  0.53321836495E+03  0.77492286678E+02 0.  0.
        254    2    1    2    0    0  0.26172895894E+03 -0.21896550145E+03  0.19532589328E+04  0.21876757046E+04  0.92426002372E+03 0.  0.
         23    2    4    4    0    0  0.23177315158E+03 -0.55565440830E+03  0.98221381852E+03  0.11556700059E+04  0.91425171499E+02 0.  0.
         23    2    4    4    0    0  0.29955807363E+02  0.33668890686E+03  0.97104511423E+03  0.10320056987E+04  0.88602358478E+02 0.  0.
          2    1    3    3  502    0 -0.23289179048E+03  0.19962429612E+03 -0.31706992682E+03  0.44115959035E+03  0.00000000000E+00 0. -1.
         -1    1    3    3    0  502 -0.28837168465E+02  0.19341205332E+02 -0.85259330697E+02  0.92058774593E+02  0.00000000000E+00 0.  1.
         11    1    5    5    0    0  0.38464258750E+01 -0.42966545940E+02  0.38786310905E+02  0.58011179748E+02  0.00000000000E+00 0.  1.
        -11    1    5    5    0    0  0.22792672570E+03 -0.51268786236E+03  0.94342750761E+03  0.10976588262E+04  0.00000000000E+00 0. -1.
          3    1    6    6  503    0  0.13675608036E+02  0.32316396234E+03  0.85689421776E+03  0.91590920360E+03  0.00000000000E+00 0. -1.
         -3    1    6    6    0  503  0.16280199327E+02  0.13524944517E+02  0.11415089647E+03  0.11609649512E+03  0.00000000000E+00 0.  1.
<mgrwt>
<rscale>  0 0.22355943E+04</rscale>
<asrwt>0</asrwt>
<pdfrwt beam="1">  1        2 0.89997262E-01 0.22355943E+04</pdfrwt>
<pdfrwt beam="2">  1       -3 0.32860182E+00 0.22355943E+04</pdfrwt>
<totfact> 0.76467999E-01</totfact>
</mgrwt>
</event>
<event>
12    6  0.1494052E-007  0.2918798E+04  0.7818608E-02  0.8267306E-01
         -1   -1    0    0    0  501 -0.00000000000E+00  0.00000000000E+00  0.68995272304E+03  0.68995272304E+03  0.00000000000E+00 0.  1.
          2   -1    0    0  501    0  0.00000000000E+00 -0.00000000000E+00 -0.30869450892E+04  0.30869450892E+04  0.00000000000E+00 0. -1.
         24    2    1    2    0    0 -0.44227561993E+03 -0.49425889946E+02  0.51721498593E+03  0.68681825222E+03  0.78468639219E+02 0.  0.
        254    2    1    2    0    0  0.44227561993E+03  0.49425889946E+02 -0.29142073521E+04  0.30900795600E+04  0.92624864573E+03 0.  0.
         23    2    4    4    0    0  0.47180606158E+03  0.70847601032E+02 -0.59211057973E+03  0.76604488279E+03  0.92787291711E+02 0.  0.
         23    2    4    4    0    0 -0.29530441650E+02 -0.21421711087E+02 -0.23220967723E+04  0.23240346772E+04  0.87594658016E+02 0.  0.
          2    1    3    3  502    0 -0.13411237070E+03 -0.51420076092E+02  0.17092132551E+03  0.22325826236E+03  0.00000000000E+00 0. -1.
         -1    1    3    3    0  502 -0.30816324923E+03  0.19941861460E+01  0.34629366042E+03  0.46355998986E+03  0.00000000000E+00 0.  1.
         11    1    5    5    0    0  0.17508845877E+03  0.39469889549E+02 -0.15700326077E+03  0.23846145279E+03  0.00000000000E+00 0.  1.
        -11    1    5    5    0    0  0.29671760281E+03  0.31377711483E+02 -0.43510731896E+03  0.52758343000E+03  0.00000000000E+00 0. -1.
          1    1    6    6  503    0 -0.31326142134E+02 -0.64678669444E+01 -0.27079810593E+03  0.27268071927E+03  0.00000000000E+00 0. -1.
         -1    1    6    6    0  503  0.17957004847E+01 -0.14953844142E+02 -0.20512986664E+04  0.20513539579E+04  0.00000000000E+00 0.  1.
<mgrwt>
<rscale>  0 0.29187985E+04</rscale>
<asrwt>0</asrwt>
<pdfrwt beam="1">  1        2 0.47491463E+00 0.29187985E+04</pdfrwt>
<pdfrwt beam="2">  1       -1 0.10614657E+00 0.29187985E+04</pdfrwt>
<totfact> 0.12460613E+00</totfact>
</mgrwt>
</event>
<event>
12    6  0.1494052E-007  0.3100737E+04  0.7818608E-02  0.8215536E-01
         -1   -1    0    0    0  501 -0.00000000000E+00  0.00000000000E+00  0.17368026950E+04  0.17368026950E+04  0.00000000000E+00 0.  1.
          2   -1    0    0  501    0  0.00000000000E+00 -0.00000000000E+00 -0.13839467430E+04  0.13839467430E+04  0.00000000000E+00 0. -1.
         24    2    1    2    0    0  0.81223145068E+03 -0.11086479697E+04  0.51647117502E+03  0.14704427095E+04  0.81480287589E+02 0.  0.
        254    2    1    2    0    0 -0.81223145068E+03  0.11086479697E+04 -0.16361522305E+03  0.16503067284E+04  0.89884487349E+03 0.  0.
         23    2    4    4    0    0 -0.17017059193E+02  0.67338113238E+03  0.13226511608E+03  0.69242841277E+03  0.90726601037E+02 0.  0.
         23    2    4    4    0    0 -0.79521439149E+03  0.43526683731E+03 -0.29588033913E+03  0.95787831568E+03  0.90346801165E+02 0.  0.
          4    1    3    3  502    0  0.61594900062E+03 -0.89133519479E+03  0.39076321643E+03  0.11517671172E+04  0.00000000000E+00 0. -1.
         -3    1    3    3    0  502  0.19628245006E+03 -0.21731277489E+03  0.12570795859E+03  0.31867559239E+03  0.00000000000E+00 0.  1.
         11    1    5    5    0    0  0.26498223117E+02  0.77811563613E+02  0.90993207914E+01  0.82701831292E+02  0.00000000000E+00 0. -1.
        -11    1    5    5    0    0 -0.43515282310E+02  0.59556956876E+03  0.12316579529E+03  0.60972658148E+03  0.00000000000E+00 0.  1.
          1    1    6    6  503    0 -0.26787229834E+03  0.12972449113E+03 -0.13933538996E+03  0.32863104344E+03  0.00000000000E+00 0. -1.
         -1    1    6    6    0  503 -0.52734209314E+03  0.30554234618E+03 -0.15654494917E+03  0.62924727224E+03  0.00000000000E+00 0.  1.
<mgrwt>
<rscale>  0 0.31007370E+04</rscale>
<asrwt>0</asrwt>
<pdfrwt beam="1">  1        2 0.21291488E+00 0.31007370E+04</pdfrwt>
<pdfrwt beam="2">  1       -1 0.26720041E+00 0.31007370E+04</pdfrwt>
<totfact> 0.76988686E-01</totfact>
</mgrwt>
</event>
<event>
12    6  0.1494052E-007  0.2214273E+04  0.7818608E-02  0.8512511E-01
         -1   -1    0    0    0  501 -0.00000000000E+00  0.00000000000E+00  0.57500311388E+03  0.57500311388E+03  0.00000000000E+00 0.  1.
          2   -1    0    0  501    0  0.00000000000E+00 -0.00000000000E+00 -0.21317303887E+04  0.21317303887E+04  0.00000000000E+00 0. -1.
         24    2    1    2    0    0 -0.55534703867E+02  0.74327695191E+03  0.18433153878E+02  0.74972917119E+03  0.78799228432E+02 0.  0.
        254    2    1    2    0    0  0.55534703867E+02 -0.74327695191E+03 -0.15751604287E+04  0.19570043314E+04  0.89061262421E+03 0.  0.
         23    2    4    4    0    0  0.28248006287E+03 -0.43767237603E+03 -0.26998370587E+03  0.59435355476E+03  0.94936041441E+02 0.  0.
         23    2    4    4    0    0 -0.22694535900E+03 -0.30560457588E+03 -0.13051767229E+04  0.13626507767E+04  0.91828690898E+02 0.  0.
          2    1    3    3  502    0 -0.36589584930E+02  0.15525657092E+03  0.24450258559E+02  0.16137290876E+03  0.00000000000E+00 0. -1.
         -1    1    3    3    0  502 -0.18945118937E+02  0.58802038099E+03 -0.60171046817E+01  0.58835626243E+03  0.00000000000E+00 0.  1.
         11    1    5    5    0    0  0.70226434921E+02 -0.11044778762E+03 -0.11644629008E+03  0.17518619930E+03  0.00000000000E+00 0.  1.
        -11    1    5    5    0    0  0.21225362795E+03 -0.32722458841E+03 -0.15353741579E+03  0.41916735546E+03  0.00000000000E+00 0. -1.
          4    1    6    6  503    0 -0.13150637453E+03 -0.15756084516E+03 -0.85390396897E+03  0.87822055014E+03  0.00000000000E+00 0. -1.
         -4    1    6    6    0  503 -0.95438984472E+02 -0.14804373072E+03 -0.45127275389E+03  0.48443022652E+03  0.00000000000E+00 0.  1.
<mgrwt>
<rscale>  0 0.22142733E+04</rscale>
<asrwt>0</asrwt>
<pdfrwt beam="1">  1        2 0.32795852E+00 0.22142733E+04</pdfrwt>
<pdfrwt beam="2">  1       -1 0.88462018E-01 0.22142733E+04</pdfrwt>
<totfact> 0.73528174E+00</totfact>
</mgrwt>
</event>
<event>
12    6  0.1494052E-007  0.2154173E+04  0.7818608E-02  0.8537748E-01
         -1   -1    0    0    0  501 -0.00000000000E+00  0.00000000000E+00  0.61981525864E+03  0.61981525864E+03  0.00000000000E+00 0.  1.
          2   -1    0    0  501    0  0.00000000000E+00 -0.00000000000E+00 -0.18717122557E+04  0.18717122557E+04  0.00000000000E+00 0. -1.
         24    2    1    2    0    0  0.74975261919E+03  0.31386421401E+03 -0.88003680450E+03  0.12015987561E+04  0.93461534961E+02 0.  0.
        254    2    1    2    0    0 -0.74975261919E+03 -0.31386421401E+03 -0.37186019256E+03  0.12899287583E+04  0.93005186079E+03 0.  0.
         23    2    4    4    0    0 -0.88799214601E+02 -0.11185328070E+03  0.28539904903E+03  0.33183325296E+03  0.90907830628E+02 0.  0.
         23    2    4    4    0    0 -0.66095340459E+03 -0.20201093331E+03 -0.65725924158E+03  0.95809550530E+03  0.91046506885E+02 0.  0.
          2    1    3    3  502    0  0.12422407093E+03  0.47660629686E+02 -0.97146017079E+02  0.16474375270E+03  0.00000000000E+00 0. -1.
         -1    1    3    3    0  502  0.62552854826E+03  0.26620358432E+03 -0.78289078743E+03  0.10368550034E+04  0.00000000000E+00 0.  1.
         11    1    5    5    0    0 -0.24476742227E+02  0.19253615700E+01  0.91087129435E+01  0.26187527159E+02  0.00000000000E+00 0.  1.
        -11    1    5    5    0    0 -0.64322472373E+02 -0.11377864227E+03  0.27629033608E+03  0.30564572580E+03  0.00000000000E+00 0. -1.
          1    1    6    6  503    0 -0.37140091921E+03 -0.66091903959E+02 -0.35730820180E+03  0.51959208388E+03  0.00000000000E+00 0. -1.
         -1    1    6    6    0  503 -0.28955248538E+03 -0.13591902935E+03 -0.29995103978E+03  0.43850342142E+03  0.00000000000E+00 0.  1.
<mgrwt>
<rscale>  0 0.21541735E+04</rscale>
<asrwt>0</asrwt>
<pdfrwt beam="1">  1        2 0.28795573E+00 0.21541735E+04</pdfrwt>
<pdfrwt beam="2">  1       -1 0.95356195E-01 0.21541735E+04</pdfrwt>
<totfact> 0.87313464E+00</totfact>
</mgrwt>
</event>
<event>
12    6  0.1494052E-007  0.1864220E+04  0.7818608E-02  0.8672874E-01
          2   -1    0    0  501    0  0.00000000000E+00  0.00000000000E+00  0.62892062383E+03  0.62892062383E+03  0.00000000000E+00 0. -1.
         -1   -1    0    0    0  501 -0.00000000000E+00 -0.00000000000E+00 -0.13814602028E+04  0.13814602028E+04  0.00000000000E+00 0.  1.
         24    2    1    2    0    0 -0.89794356246E+02  0.88944312678E+02  0.46786315111E+03  0.49116929292E+03  0.79857554262E+02 0.  0.
        254    2    1    2    0    0  0.89794356246E+02 -0.88944312678E+02 -0.12204027301E+04  0.15192115337E+04  0.89590554381E+03 0.  0.
         23    2    4    4    0    0  0.33756225042E+03 -0.14444331881E+03 -0.13701843240E+03  0.40221442645E+03  0.90499993178E+02 0.  0.
         23    2    4    4    0    0 -0.24776789418E+03  0.55499006135E+02 -0.10833842977E+04  0.11169971073E+04  0.97426547268E+02 0.  0.
          2    1    3    3  502    0  0.39478110604E+01  0.42596229129E+02  0.17642572225E+03  0.18153803849E+03  0.00000000000E+00 0. -1.
         -1    1    3    3    0  502 -0.93742167306E+02  0.46348083549E+02  0.29143742886E+03  0.30963125443E+03  0.00000000000E+00 0.  1.
         11    1    5    5    0    0  0.32037791507E+03 -0.14400001383E+03 -0.10625082111E+03  0.36697036588E+03  0.00000000000E+00 0. -1.
        -11    1    5    5    0    0  0.17184335350E+02 -0.44330498643E+00 -0.30767611290E+02  0.35244060566E+02  0.00000000000E+00 0.  1.
          1    1    6    6  503    0 -0.24164954811E+03  0.34170652178E+02 -0.90844977829E+03  0.94066101080E+03  0.00000000000E+00 0. -1.
         -1    1    6    6    0  503 -0.61183460725E+01  0.21328353956E+02 -0.17493451942E+03  0.17633609649E+03  0.00000000000E+00 0.  1.
<mgrwt>
<rscale>  0 0.18642197E+04</rscale>
<asrwt>0</asrwt>
<pdfrwt beam="1">  1        2 0.96757020E-01 0.18642197E+04</pdfrwt>
<pdfrwt beam="2">  1       -1 0.21253234E+00 0.18642197E+04</pdfrwt>
<totfact> 0.62060822E+00</totfact>
</mgrwt>
</event>
<event>
12    6  0.1494052E-007  0.1535143E+04  0.7818608E-02  0.8861413E-01
          2   -1    0    0  501    0  0.00000000000E+00  0.00000000000E+00  0.94921543600E+03  0.94921543600E+03  0.00000000000E+00 0. -1.
         -1   -1    0    0    0  501 -0.00000000000E+00 -0.00000000000E+00 -0.62068770218E+03  0.62068770218E+03  0.00000000000E+00 0.  1.
         24    2    1    2    0    0 -0.27033430585E+03  0.20584587809E+03 -0.27225977533E+03  0.44252677814E+03  0.79065805899E+02 0.  0.
        254    2    1    2    0    0  0.27033430585E+03 -0.20584587809E+03  0.60078750915E+03  0.11273763600E+04  0.89139141995E+03 0.  0.
         23    2    4    4    0    0  0.22500476714E+03  0.28233141267E+03  0.49181152900E+03  0.61680424924E+03  0.90723370806E+02 0.  0.
         23    2    4    4    0    0  0.45329538713E+02 -0.48817729076E+03  0.10897598015E+03  0.51057211079E+03  0.91849233937E+02 0.  0.
          2    1    3    3  502    0 -0.14000861072E+03  0.77131264360E+02 -0.16740796665E+03  0.23146721218E+03  0.00000000000E+00 0. -1.
         -3    1    3    3    0  502 -0.13032569513E+03  0.12871461373E+03 -0.10485180868E+03  0.21105956596E+03  0.00000000000E+00 0.  1.
         11    1    5    5    0    0  0.20117405402E+03  0.24699921376E+03  0.47287946291E+03  0.57017067449E+03  0.00000000000E+00 0. -1.
        -11    1    5    5    0    0  0.23830713116E+02  0.35332198915E+02  0.18932066094E+02  0.46633574754E+02  0.00000000000E+00 0.  1.
          3    1    6    6  503    0  0.71094399900E+02 -0.27432024623E+03  0.59646049010E+02  0.28959223462E+03  0.00000000000E+00 0. -1.
         -3    1    6    6    0  503 -0.25764861187E+02 -0.21385704453E+03  0.49329931143E+02  0.22097987617E+03  0.00000000000E+00 0.  1.
<mgrwt>
<rscale>  0 0.15351434E+04</rscale>
<asrwt>0</asrwt>
<pdfrwt beam="1">  1        2 0.14603314E+00 0.15351434E+04</pdfrwt>
<pdfrwt beam="2">  1       -1 0.95490416E-01 0.15351434E+04</pdfrwt>
<totfact> 0.31645218E+01</totfact>
</mgrwt>
</event>
<event>
12    6  0.1494052E-007  0.1882612E+04  0.7818608E-02  0.8663560E-01
         -1   -1    0    0    0  501 -0.00000000000E+00  0.00000000000E+00  0.18646137945E+04  0.18646137945E+04  0.00000000000E+00 0.  1.
          2   -1    0    0  501    0  0.00000000000E+00 -0.00000000000E+00 -0.47519589495E+03  0.47519589495E+03  0.00000000000E+00 0. -1.
         24    2    1    2    0    0  0.25728683393E+03  0.66827560550E+03  0.66841609152E+03  0.98283167601E+03  0.79932672645E+02 0.  0.
        254    2    1    2    0    0 -0.25728683393E+03 -0.66827560550E+03  0.72100180802E+03  0.13569780134E+04  0.89930913590E+03 0.  0.
         23    2    4    4    0    0  0.23183799862E+00 -0.77287623499E+03  0.72827243985E+03  0.10658194543E+04  0.90844010570E+02 0.  0.
         23    2    4    4    0    0 -0.25751867193E+03  0.10460062949E+03 -0.72706318351E+01  0.29115855907E+03  0.86390313955E+02 0.  0.
          4    1    3    3  502    0  0.24293905985E+02  0.84422009179E+02  0.11924614848E+03  0.14811115228E+03  0.00000000000E+00 0. -1.
         -3    1    3    3    0  502  0.23299292795E+03  0.58385359632E+03  0.54916994304E+03  0.83472052373E+03  0.00000000000E+00 0.  1.
         11    1    5    5    0    0 -0.68576636800E+01 -0.69837643371E+03  0.61816092955E+03  0.93268408667E+03  0.00000000000E+00 0. -1.
        -11    1    5    5    0    0  0.70895016787E+01 -0.74499801285E+02  0.11011151030E+03  0.13313536768E+03  0.00000000000E+00 0.  1.
          1    1    6    6  503    0 -0.52293410258E+01  0.26336213987E+02  0.11417875034E+01  0.26874632155E+02  0.00000000000E+00 0. -1.
         -1    1    6    6    0  503 -0.25228933091E+03  0.78264415506E+02 -0.84124193385E+01  0.26428392691E+03  0.00000000000E+00 0.  1.
<mgrwt>
<rscale>  0 0.18826118E+04</rscale>
<asrwt>0</asrwt>
<pdfrwt beam="1">  1        2 0.73107062E-01 0.18826118E+04</pdfrwt>
<pdfrwt beam="2">  1       -1 0.28686366E+00 0.18826118E+04</pdfrwt>
<totfact> 0.28145973E+00</totfact>
</mgrwt>
</event>
<event>
12    6  0.1494052E-007  0.2438045E+04  0.7818608E-02  0.8425396E-01
         -3   -1    0    0    0  501 -0.00000000000E+00  0.00000000000E+00  0.74150222799E+03  0.74150222799E+03  0.00000000000E+00 0.  1.
          2   -1    0    0  501    0  0.00000000000E+00 -0.00000000000E+00 -0.20040616408E+04  0.20040616408E+04  0.00000000000E+00 0. -1.
         24    2    1    2    0    0 -0.67243340939E+03 -0.12993637627E+03 -0.14450579059E+04  0.16011208159E+04  0.79657792933E+02 0.  0.
        254    2    1    2    0    0  0.67243340939E+03  0.12993637627E+03  0.18249849304E+03  0.11444430529E+04  0.89855108334E+03 0.  0.
         23    2    4    4    0    0  0.71743068009E+03  0.24746214961E+03 -0.14871755691E+03  0.77862428151E+03  0.90523829959E+02 0.  0.
         23    2    4    4    0    0 -0.44997270706E+02 -0.11752577334E+03  0.33121604995E+03  0.36581877137E+03  0.91006812783E+02 0.  0.
          4    1    3    3  502    0 -0.35057988238E+03 -0.10656045228E+03 -0.74210655486E+03  0.82763731349E+03  0.00000000000E+00 0. -1.
         -3    1    3    3    0  502 -0.32185352701E+03 -0.23375923999E+02 -0.70295135099E+03  0.77348350243E+03  0.00000000000E+00 0.  1.
         11    1    5    5    0    0  0.67337084232E+03  0.22777804558E+03 -0.16094015500E+03  0.72884351052E+03  0.00000000000E+00 0.  1.
        -11    1    5    5    0    0  0.44059837770E+02  0.19684104033E+02  0.12222598089E+02  0.49780770985E+02  0.00000000000E+00 0. -1.
          3    1    6    6  503    0 -0.62169152608E+02 -0.52089818764E+02  0.12700804167E+03  0.15069636825E+03  0.00000000000E+00 0. -1.
         -3    1    6    6    0  503  0.17171881902E+02 -0.65435954576E+02  0.20420800827E+03  0.21512240312E+03  0.00000000000E+00 0.  1.
<mgrwt>
<rscale>  0 0.24380453E+04</rscale>
<asrwt>0</asrwt>
<pdfrwt beam="1">  1        2 0.30831717E+00 0.24380453E+04</pdfrwt>
<pdfrwt beam="2">  1       -3 0.11407727E+00 0.24380453E+04</pdfrwt>
<totfact> 0.24252229E+00</totfact>
</mgrwt>
</event>
<event>
12    6  0.1494052E-007  0.1252713E+04  0.7818608E-02  0.9067929E-01
         -1   -1    0    0    0  501 -0.00000000000E+00  0.00000000000E+00  0.48073283306E+03  0.48073283306E+03  0.00000000000E+00 0.  1.
          2   -1    0    0  501    0  0.00000000000E+00 -0.00000000000E+00 -0.81609196185E+03  0.81609196185E+03  0.00000000000E+00 0. -1.
         24    2    1    2    0    0 -0.12943453820E+02 -0.18659172278E+03 -0.32724058980E+03  0.38532644347E+03  0.80037868611E+02 0.  0.
        254    2    1    2    0    0  0.12943453820E+02  0.18659172278E+03 -0.81185389829E+01  0.91149835144E+03  0.89206464452E+03 0.  0.
         23    2    4    4    0    0 -0.33162329677E+03 -0.18584876409E+03  0.46302671977E+02  0.39271275108E+03  0.86980419381E+02 0.  0.
         23    2    4    4    0    0  0.34456675058E+03  0.37244048687E+03 -0.54421210960E+02  0.51878560037E+03  0.93480848709E+02 0.  0.
          2    1    3    3  502    0 -0.25928906849E+02 -0.17186878576E+03 -0.32045036897E+03  0.36455401068E+03  0.00000000000E+00 0. -1.
         -1    1    3    3    0  502  0.12985453029E+02 -0.14722937023E+02 -0.67902208334E+01  0.20772432788E+02  0.00000000000E+00 0.  1.
         11    1    5    5    0    0 -0.19853106691E+03 -0.71497595859E+02 -0.86114604515E+00  0.21101476800E+03  0.00000000000E+00 0.  1.
        -11    1    5    5    0    0 -0.13309222985E+03 -0.11435116823E+03  0.47163818022E+02  0.18169798308E+03  0.00000000000E+00 0. -1.
          2    1    6    6  503    0 -0.41332239102E+01  0.12884101574E+02  0.49489446035E+01  0.14407486455E+02  0.00000000000E+00 0. -1.
         -2    1    6    6    0  503  0.34869997450E+03  0.35955638530E+03 -0.59370155564E+02  0.50437811391E+03  0.00000000000E+00 0.  1.
<mgrwt>
<rscale>  0 0.12527126E+04</rscale>
<asrwt>0</asrwt>
<pdfrwt beam="1">  1        2 0.12555261E+00 0.12527126E+04</pdfrwt>
<pdfrwt beam="2">  1       -1 0.73958897E-01 0.12527126E+04</pdfrwt>
<totfact> 0.69335905E+01</totfact>
</mgrwt>
</event>
<event>
12    6  0.1494052E-007  0.1896402E+04  0.7818608E-02  0.8656650E-01
          2   -1    0    0  501    0  0.00000000000E+00  0.00000000000E+00  0.23018338001E+04  0.23018338001E+04  0.00000000000E+00 0. -1.
         -1   -1    0    0    0  501 -0.00000000000E+00 -0.00000000000E+00 -0.39059500312E+03  0.39059500312E+03  0.00000000000E+00 0.  1.
         24    2    1    2    0    0  0.57046055530E+03  0.59052496581E+02  0.18830004506E+03  0.60870406339E+03  0.78430142917E+02 0.  0.
        254    2    1    2    0    0 -0.57046055530E+03 -0.59052496581E+02  0.17229387519E+04  0.20837247398E+04  0.10219972632E+04 0.  0.
         23    2    4    4    0    0  0.11242234462E+03 -0.35383071297E+02  0.12232140493E+04  0.12321839234E+04  0.90187944623E+02 0.  0.
         23    2    4    4    0    0 -0.68288289992E+03 -0.23669425284E+02  0.49972470257E+03  0.85154081639E+03  0.92237123342E+02 0.  0.
          2    1    3    3  502    0  0.71985963203E+02  0.30283834444E+02  0.11063608408E+02  0.78876441083E+02  0.00000000000E+00 0. -1.
         -1    1    3    3    0  502  0.49847459209E+03  0.28768662137E+02  0.17723643665E+03  0.52982762231E+03  0.00000000000E+00 0.  1.
         11    1    5    5    0    0  0.11579799829E+03 -0.49660731864E+02  0.11763140489E+04  0.11830427323E+04  0.00000000000E+00 0. -1.
        -11    1    5    5    0    0 -0.33756536630E+01  0.14277660567E+02  0.46900000366E+02  0.49141191105E+02  0.00000000000E+00 0.  1.
          1    1    6    6  503    0 -0.55212116045E+03  0.13175136935E+02  0.42176446394E+03  0.69490763637E+03  0.00000000000E+00 0. -1.
         -1    1    6    6    0  503 -0.13076173947E+03 -0.36844562219E+02  0.77960238634E+02  0.15663318002E+03  0.00000000000E+00 0.  1.
<mgrwt>
<rscale>  0 0.18964016E+04</rscale>
<asrwt>0</asrwt>
<pdfrwt beam="1">  1        2 0.35412827E+00 0.18964016E+04</pdfrwt>
<pdfrwt beam="2">  1       -1 0.60091540E-01 0.18964016E+04</pdfrwt>
<totfact> 0.13550677E+01</totfact>
</mgrwt>
</event>
<event>
12    6  0.1494052E-007  0.1068944E+04  0.7818608E-02  0.9236001E-01
          2   -1    0    0  501    0  0.00000000000E+00  0.00000000000E+00  0.46539212757E+03  0.46539212757E+03  0.00000000000E+00 0. -1.
         -3   -1    0    0    0  501 -0.00000000000E+00 -0.00000000000E+00 -0.61380605717E+03  0.61380605717E+03  0.00000000000E+00 0.  1.
         24    2    1    2    0    0  0.18255983235E+02  0.21434857648E+01 -0.16501260684E+03  0.18341737348E+03  0.77941625735E+02 0.  0.
        254    2    1    2    0    0 -0.18255983235E+02 -0.21434857648E+01  0.16598677240E+02  0.89578081127E+03  0.89543836767E+03 0.  0.
         23    2    4    4    0    0  0.24190388841E+03 -0.15651272998E+03 -0.31568654520E+03  0.43701397676E+03  0.91156432539E+02 0.  0.
         23    2    4    4    0    0 -0.26015987164E+03  0.15436924422E+03  0.33228522244E+03  0.45876683451E+03  0.92414917728E+02 0.  0.
          4    1    3    3  502    0  0.44010402759E+02 -0.45003597448E+01 -0.56865420324E+02  0.72047517775E+02  0.00000000000E+00 0. -1.
         -3    1    3    3    0  502 -0.25754419523E+02  0.66438455096E+01 -0.10814718651E+03  0.11136985570E+03  0.00000000000E+00 0.  1.
         11    1    5    5    0    0  0.21139165042E+03 -0.98415371070E+02 -0.21718863133E+03  0.31865799332E+03  0.00000000000E+00 0.  1.
        -11    1    5    5    0    0  0.30512237990E+02 -0.58097358914E+02 -0.98497913866E+02  0.11835598344E+03  0.00000000000E+00 0. -1.
          1    1    6    6  503    0 -0.64972443899E+02  0.87699764088E+02  0.98752387302E+02  0.14718933754E+03  0.00000000000E+00 0. -1.
         -1    1    6    6    0  503 -0.19518742774E+03  0.66669480131E+02  0.23353283514E+03  0.31157749697E+03  0.00000000000E+00 0.  1.
<mgrwt>
<rscale>  0 0.10689444E+04</rscale>
<asrwt>0</asrwt>
<pdfrwt beam="1">  1        2 0.71598788E-01 0.10689444E+04</pdfrwt>
<pdfrwt beam="2">  1       -3 0.94431702E-01 0.10689444E+04</pdfrwt>
<totfact> 0.41817939E+01</totfact>
</mgrwt>
</event>
<event>
12    6  0.1494052E-007  0.1354052E+04  0.7818608E-02  0.8987766E-01
          2   -1    0    0  501    0  0.00000000000E+00  0.00000000000E+00  0.24387073725E+03  0.24387073725E+03  0.00000000000E+00 0. -1.
         -3   -1    0    0    0  501 -0.00000000000E+00 -0.00000000000E+00 -0.18795383046E+04  0.18795383046E+04  0.00000000000E+00 0.  1.
         24    2    1    2    0    0 -0.27366621988E+03  0.38106952765E+01 -0.30549538825E+02  0.28585458415E+03  0.76627982174E+02 0.  0.
        254    2    1    2    0    0  0.27366621988E+03 -0.38106952765E+01 -0.16051180285E+04  0.18375544577E+04  0.85164240044E+03 0.  0.
         23    2    4    4    0    0 -0.28320686115E+03  0.10285340858E+03 -0.66719041869E+03  0.73774199652E+03  0.91297583694E+02 0.  0.
         23    2    4    4    0    0  0.55687308103E+03 -0.10666410386E+03 -0.93792760986E+03  0.10998124612E+04  0.91620898503E+02 0.  0.
          4    1    3    3  502    0 -0.24235378015E+03  0.28236294783E+02 -0.20272226353E+02  0.24483383397E+03  0.00000000000E+00 0. -1.
         -3    1    3    3    0  502 -0.31312439732E+02 -0.24425599506E+02 -0.10277312472E+02  0.41020750174E+02  0.00000000000E+00 0.  1.
         11    1    5    5    0    0 -0.21924387091E+03  0.98919273722E+02 -0.43726139448E+03  0.49904952134E+03  0.00000000000E+00 0. -1.
        -11    1    5    5    0    0 -0.63962990238E+02  0.39341348590E+01 -0.22992902420E+03  0.23869247518E+03  0.00000000000E+00 0.  1.
          4    1    6    6  503    0  0.40835416310E+03 -0.41311562526E+02 -0.63344473452E+03  0.75479268638E+03  0.00000000000E+00 0. -1.
         -4    1    6    6    0  503  0.14851891793E+03 -0.65352541332E+02 -0.30448287534E+03  0.34501977482E+03  0.00000000000E+00 0.  1.
<mgrwt>
<rscale>  0 0.13540523E+04</rscale>
<asrwt>0</asrwt>
<pdfrwt beam="1">  1        2 0.37518575E-01 0.13540523E+04</pdfrwt>
<pdfrwt beam="2">  1       -3 0.28915974E+00 0.13540523E+04</pdfrwt>
<totfact> 0.36808327E+00</totfact>
</mgrwt>
</event>
<event>
12    6  0.1494052E-007  0.2118048E+04  0.7818608E-02  0.8553334E-01
          2   -1    0    0  501    0  0.00000000000E+00  0.00000000000E+00  0.11193452496E+04  0.11193452496E+04  0.00000000000E+00 0. -1.
         -1   -1    0    0    0  501 -0.00000000000E+00 -0.00000000000E+00 -0.10019534608E+04  0.10019534608E+04  0.00000000000E+00 0.  1.
         24    2    1    2    0    0 -0.61828248541E+03  0.44741815232E+03  0.44012206901E+03  0.88457404813E+03  0.79420250583E+02 0.  0.
        254    2    1    2    0    0  0.61828248541E+03 -0.44741815232E+03 -0.32273028023E+03  0.12367246623E+04  0.91808323251E+03 0.  0.
         23    2    4    4    0    0 -0.23204285502E+03 -0.73015119173E+02 -0.65943291228E+02  0.26853955716E+03  0.92681615814E+02 0.  0.
         23    2    4    4    0    0  0.85032534043E+03 -0.37440303314E+03 -0.25678698900E+03  0.96818510515E+03  0.90620220166E+02 0.  0.
          4    1    3    3  502    0 -0.44845232625E+03  0.33703015461E+03  0.28360109457E+03  0.62859239168E+03  0.00000000000E+00 0. -1.
         -3    1    3    3    0  502 -0.16983015916E+03  0.11038799771E+03  0.15652097445E+03  0.25598165646E+03  0.00000000000E+00 0.  1.
         11    1    5    5    0    0 -0.39635178096E+01  0.14339495798E+02  0.20461059452E+01  0.15017228863E+02  0.00000000000E+00 0. -1.
        -11    1    5    5    0    0 -0.22807933721E+03 -0.87354614971E+02 -0.67989397173E+02  0.25352232830E+03  0.00000000000E+00 0.  1.
          4    1    6    6  503    0  0.17798292172E+03 -0.10862033117E+03 -0.31152101458E+02  0.21082397917E+03  0.00000000000E+00 0. -1.
         -4    1    6    6    0  503  0.67234241872E+03 -0.26578270198E+03 -0.22563488755E+03  0.75736112599E+03  0.00000000000E+00 0.  1.
<mgrwt>
<rscale>  0 0.21180480E+04</rscale>
<asrwt>0</asrwt>
<pdfrwt beam="1">  1        2 0.17220696E+00 0.21180480E+04</pdfrwt>
<pdfrwt beam="2">  1       -1 0.15414669E+00 0.21180480E+04</pdfrwt>
<totfact> 0.72061601E+00</totfact>
</mgrwt>
</event>
<event>
12    6  0.1494052E-007  0.2430838E+04  0.7818608E-02  0.8428048E-01
          2   -1    0    0  501    0  0.00000000000E+00  0.00000000000E+00  0.35473338260E+04  0.35473338260E+04  0.00000000000E+00 0. -1.
         -1   -1    0    0    0  501 -0.00000000000E+00 -0.00000000000E+00 -0.41643751694E+03  0.41643751694E+03  0.00000000000E+00 0.  1.
         24    2    1    2    0    0 -0.90976643314E+03 -0.47582608410E+03  0.16811458775E+04  0.19725503392E+04  0.10304345684E+03 0.  0.
        254    2    1    2    0    0  0.90976643314E+03  0.47582608410E+03  0.14497504315E+04  0.19912210038E+04  0.89949949796E+03 0.  0.
         23    2    4    4    0    0  0.96101415674E+03  0.12585518818E+03  0.12154244239E+04  0.15572017264E+04  0.90735597832E+02 0.  0.
         23    2    4    4    0    0 -0.51247723608E+02  0.34997089592E+03  0.23432600767E+03  0.43401927734E+03  0.91422634321E+02 0.  0.
          4    1    3    3  502    0 -0.63950498943E+03 -0.29369740362E+03  0.12078735590E+04  0.13979210746E+04  0.00000000000E+00 0. -1.
         -3    1    3    3    0  502 -0.27026144371E+03 -0.18212868048E+03  0.47327231857E+03  0.57462926460E+03  0.00000000000E+00 0.  1.
         11    1    5    5    0    0  0.94525669090E+03  0.11168814385E+03  0.11952713999E+04  0.15279588256E+04  0.00000000000E+00 0. -1.
        -11    1    5    5    0    0  0.15757465847E+02  0.14167044330E+02  0.20153023970E+02  0.29242900850E+02  0.00000000000E+00 0.  1.
          3    1    6    6  503    0  0.16020099181E+02  0.14110680624E+03  0.12344569159E+03  0.18816645056E+03  0.00000000000E+00 0. -1.
         -3    1    6    6    0  503 -0.67267822789E+02  0.20886408968E+03  0.11088031608E+03  0.24585282678E+03  0.00000000000E+00 0.  1.
<mgrwt>
<rscale>  0 0.24308376E+04</rscale>
<asrwt>0</asrwt>
<pdfrwt beam="1">  1        2 0.54574364E+00 0.24308376E+04</pdfrwt>
<pdfrwt beam="2">  1       -1 0.64067313E-01 0.24308376E+04</pdfrwt>
<totfact> 0.19012859E+00</totfact>
</mgrwt>
</event>
<event>
12    6  0.1494052E-007  0.2168558E+04  0.7818608E-02  0.8531630E-01
         -1   -1    0    0    0  501 -0.00000000000E+00  0.00000000000E+00  0.61591116222E+03  0.61591116222E+03  0.00000000000E+00 0.  1.
          2   -1    0    0  501    0  0.00000000000E+00 -0.00000000000E+00 -0.19088149589E+04  0.19088149589E+04  0.00000000000E+00 0. -1.
         24    2    1    2    0    0  0.29651680580E+03  0.77977598712E+03 -0.89539710731E+03  0.12263776514E+04  0.79330687437E+02 0.  0.
        254    2    1    2    0    0 -0.29651680580E+03 -0.77977598712E+03 -0.39750668937E+03  0.12983484697E+04  0.91198924028E+03 0.  0.
         23    2    4    4    0    0  0.62880249304E+02  0.13267935213E+03  0.94680375537E+02  0.19715007779E+03  0.91356682452E+02 0.  0.
         23    2    4    4    0    0 -0.35939705511E+03 -0.91245533925E+03 -0.49218706491E+03  0.11011983919E+04  0.92998935847E+02 0.  0.
          4    1    3    3  502    0  0.65907549167E+01  0.60870445572E+02 -0.86984262150E+02  0.10637157071E+03  0.00000000000E+00 0. -1.
         -3    1    3    3    0  502  0.28992605089E+03  0.71890554155E+03 -0.80841284516E+03  0.11200060807E+04  0.00000000000E+00 0.  1.
         11    1    5    5    0    0  0.70443797475E+02  0.44479352860E+02  0.34865358179E+02  0.90312427907E+02  0.00000000000E+00 0. -1.
        -11    1    5    5    0    0 -0.75635481713E+01  0.88199999267E+02  0.59815017358E+02  0.10683764989E+03  0.00000000000E+00 0.  1.
          3    1    6    6  503    0 -0.27091038800E+03 -0.59230672322E+03 -0.29592860572E+03  0.71539739473E+03  0.00000000000E+00 0. -1.
         -3    1    6    6    0  503 -0.88486667109E+02 -0.32014861602E+03 -0.19625845918E+03  0.38580099715E+03  0.00000000000E+00 0.  1.
<mgrwt>
<rscale>  0 0.21685575E+04</rscale>
<asrwt>0</asrwt>
<pdfrwt beam="1">  1        2 0.29366384E+00 0.21685575E+04</pdfrwt>
<pdfrwt beam="2">  1       -1 0.94755565E-01 0.21685575E+04</pdfrwt>
<totfact> 0.84355518E+00</totfact>
</mgrwt>
</event>
<event>
12    6  0.1494052E-007  0.1765540E+04  0.7818608E-02  0.8724843E-01
         -1   -1    0    0    0  501 -0.00000000000E+00  0.00000000000E+00  0.40283764056E+03  0.40283764056E+03  0.00000000000E+00 0.  1.
          2   -1    0    0  501    0  0.00000000000E+00 -0.00000000000E+00 -0.19344830767E+04  0.19344830767E+04  0.00000000000E+00 0. -1.
         24    2    1    2    0    0  0.37122517709E+03  0.33296021667E+03 -0.18540944341E+02  0.50563915396E+03  0.81587679280E+02 0.  0.
        254    2    1    2    0    0 -0.37122517709E+03 -0.33296021667E+03 -0.15131044918E+04  0.18316815633E+04  0.90382603868E+03 0.  0.
         23    2    4    4    0    0 -0.61291251012E+03 -0.28393470375E+03 -0.13748196898E+04  0.15345204538E+04  0.91341023767E+02 0.  0.
         23    2    4    4    0    0  0.24168733304E+03 -0.49025512927E+02 -0.13828480204E+03  0.29716110952E+03  0.91464586974E+02 0.  0.
          2    1    3    3  502    0  0.18290502664E+03  0.16087941313E+03  0.31680157939E+02  0.24564215181E+03  0.00000000000E+00 0. -1.
         -1    1    3    3    0  502  0.18832015045E+03  0.17208080354E+03 -0.50221102280E+02  0.25999700215E+03  0.00000000000E+00 0.  1.
         11    1    5    5    0    0 -0.52786602052E+03 -0.20730374084E+03 -0.11502236952E+04  0.12824320355E+04  0.00000000000E+00 0.  1.
        -11    1    5    5    0    0 -0.85046489601E+02 -0.76630962911E+02 -0.22459599453E+03  0.25208841828E+03  0.00000000000E+00 0. -1.
          3    1    6    6  503    0  0.20246097445E+02  0.18428345510E+02 -0.32938296365E+02  0.42830360112E+02  0.00000000000E+00 0. -1.
         -3    1    6    6    0  503  0.22144123559E+03 -0.67453858437E+02 -0.10534650568E+03  0.25433074941E+03  0.00000000000E+00 0.  1.
<mgrwt>
<rscale>  0 0.17655397E+04</rscale>
<asrwt>0</asrwt>
<pdfrwt beam="1">  1        2 0.29761278E+00 0.17655397E+04</pdfrwt>
<pdfrwt beam="2">  1       -1 0.61975023E-01 0.17655397E+04</pdfrwt>
<totfact> 0.20686841E+01</totfact>
</mgrwt>
</event>
<event>
12    6  0.1494052E-007  0.1810019E+04  0.7818608E-02  0.8700990E-01
          2   -1    0    0  501    0  0.00000000000E+00  0.00000000000E+00  0.14093656612E+04  0.14093656612E+04  0.00000000000E+00 0. -1.
         -1   -1    0    0    0  501 -0.00000000000E+00 -0.00000000000E+00 -0.58114225218E+03  0.58114225218E+03  0.00000000000E+00 0.  1.
         24    2    1    2    0    0  0.40952747740E+03 -0.10134889111E+02  0.91621470342E+03  0.10067736790E+04  0.79551161098E+02 0.  0.
        254    2    1    2    0    0 -0.40952747740E+03  0.10134889111E+02 -0.87991294404E+02  0.98373423437E+03  0.89004219297E+03 0.  0.
         23    2    4    4    0    0 -0.32293928634E+03  0.15465919917E+03 -0.44497236571E+03  0.57844806443E+03  0.91610624088E+02 0.  0.
         23    2    4    4    0    0 -0.86588191052E+02 -0.14452431006E+03  0.35698107130E+03  0.40528616994E+03  0.91850983945E+02 0.  0.
          2    1    3    3  502    0  0.39513775648E+03 -0.23611034410E+02  0.84934413732E+03  0.93705751752E+03  0.00000000000E+00 0. -1.
         -1    1    3    3    0  502  0.14389720918E+02  0.13476145298E+02  0.66870566092E+02  0.69716161467E+02  0.00000000000E+00 0.  1.
         11    1    5    5    0    0 -0.22385916880E+03  0.13911803474E+03 -0.27369520560E+03  0.37996818368E+03  0.00000000000E+00 0. -1.
        -11    1    5    5    0    0 -0.99080117546E+02  0.15541164427E+02 -0.17127716011E+03  0.19847988074E+03  0.00000000000E+00 0.  1.
          2    1    6    6  503    0 -0.31760071423E+02  0.54135564813E+01  0.62311273405E+02  0.70147726435E+02  0.00000000000E+00 0. -1.
         -2    1    6    6    0  503 -0.54828119629E+02 -0.14993786654E+03  0.29466979790E+03  0.33513844351E+03  0.00000000000E+00 0.  1.
<mgrwt>
<rscale>  0 0.18100187E+04</rscale>
<asrwt>0</asrwt>
<pdfrwt beam="1">  1        2 0.21682549E+00 0.18100187E+04</pdfrwt>
<pdfrwt beam="2">  1       -1 0.89406501E-01 0.18100187E+04</pdfrwt>
<totfact> 0.18835102E+01</totfact>
</mgrwt>
</event>
<event>
12    6  0.1494052E-007  0.3461779E+04  0.7818608E-02  0.8122908E-01
          2   -1    0    0  501    0  0.00000000000E+00  0.00000000000E+00  0.22944423254E+04  0.22944423254E+04  0.00000000000E+00 0. -1.
         -1   -1    0    0    0  501 -0.00000000000E+00 -0.00000000000E+00 -0.13057544468E+04  0.13057544468E+04  0.00000000000E+00 0.  1.
         24    2    1    2    0    0 -0.39829941247E+03  0.80374092233E+03  0.18588526061E+04  0.20655387348E+04  0.80469630325E+02 0.  0.
        254    2    1    2    0    0  0.39829941247E+03 -0.80374092233E+03 -0.87016472754E+03  0.15346580374E+04  0.89070014391E+03 0.  0.
         23    2    4    4    0    0 -0.24041294011E+03 -0.63956324110E+02 -0.29520039771E+03  0.39724646171E+03  0.93662603886E+02 0.  0.
         23    2    4    4    0    0  0.63871235258E+03 -0.73978459822E+03 -0.57496432983E+03  0.11374115756E+04  0.88805353025E+02 0.  0.
          2    1    3    3  502    0 -0.37644480658E+03  0.78109478762E+03  0.18158989997E+04  0.20122894764E+04  0.00000000000E+00 0. -1.
         -1    1    3    3    0  502 -0.21854605885E+02  0.22646134712E+02  0.42953606436E+02  0.53249258414E+02  0.00000000000E+00 0.  1.
         11    1    5    5    0    0 -0.14396839367E+03 -0.51904002282E+02 -0.11126751527E+03  0.18921253601E+03  0.00000000000E+00 0. -1.
        -11    1    5    5    0    0 -0.96444546442E+02 -0.12052321828E+02 -0.18393288244E+03  0.20803392570E+03  0.00000000000E+00 0.  1.
          4    1    6    6  503    0  0.46391474334E+03 -0.52930176191E+03 -0.36715186203E+03  0.79383734734E+03  0.00000000000E+00 0. -1.
         -4    1    6    6    0  503  0.17479760925E+03 -0.21048283632E+03 -0.20781246779E+03  0.34357422830E+03  0.00000000000E+00 0.  1.
<mgrwt>
<rscale>  0 0.34617789E+04</rscale>
<asrwt>0</asrwt>
<pdfrwt beam="1">  1        2 0.35299113E+00 0.34617789E+04</pdfrwt>
<pdfrwt beam="2">  1       -1 0.20088530E+00 0.34617789E+04</pdfrwt>
<totfact> 0.63502451E-01</totfact>
</mgrwt>
</event>
<event>
12    6  0.1494052E-007  0.1655621E+04  0.7818608E-02  0.8787088E-01
          2   -1    0    0  501    0  0.00000000000E+00  0.00000000000E+00  0.65853840325E+03  0.65853840325E+03  0.00000000000E+00 0. -1.
         -1   -1    0    0    0  501 -0.00000000000E+00 -0.00000000000E+00 -0.10405932073E+04  0.10405932073E+04  0.00000000000E+00 0.  1.
         24    2    1    2    0    0 -0.39639159209E+03 -0.27749115137E+03 -0.46246218098E+03  0.67415408231E+03  0.80528407997E+02 0.  0.
        254    2    1    2    0    0  0.39639159209E+03  0.27749115137E+03  0.80407376912E+02  0.10249775283E+04  0.89999219652E+03 0.  0.
         23    2    4    4    0    0 -0.20454819790E+03 -0.11182247857E+03  0.16595380136E+03  0.29763512387E+03  0.81864343883E+02 0.  0.
         23    2    4    4    0    0  0.60093978999E+03  0.38931362994E+03 -0.85546424445E+02  0.72734240438E+03  0.94947610951E+02 0.  0.
          2    1    3    3  502    0 -0.19300271867E+03 -0.10415081228E+03 -0.16618959658E+03  0.27516617365E+03  0.00000000000E+00 0. -1.
         -1    1    3    3    0  502 -0.20338887341E+03 -0.17334033909E+03 -0.29627258441E+03  0.39898790866E+03  0.00000000000E+00 0.  1.
         11    1    5    5    0    0 -0.91152253275E+02 -0.87385041591E+02  0.57186111130E+02  0.13861864982E+03  0.00000000000E+00 0.  1.
        -11    1    5    5    0    0 -0.11339594463E+03 -0.24437436982E+02  0.10876769023E+03  0.15901647406E+03  0.00000000000E+00 0. -1.
          3    1    6    6  503    0  0.59694684714E+03  0.38992726589E+03 -0.76093934301E+02  0.71706282698E+03  0.00000000000E+00 0. -1.
         -3    1    6    6    0  503  0.39929428492E+01 -0.61363595010E+00 -0.94524901437E+01  0.10279577403E+02  0.00000000000E+00 0.  1.
<mgrwt>
<rscale>  0 0.16556214E+04</rscale>
<asrwt>0</asrwt>
<pdfrwt beam="1">  1        2 0.10131360E+00 0.16556214E+04</pdfrwt>
<pdfrwt beam="2">  1       -1 0.16009126E+00 0.16556214E+04</pdfrwt>
<totfact> 0.14077745E+01</totfact>
</mgrwt>
</event>
<event>
12    6  0.1494052E-007  0.1314919E+04  0.7818608E-02  0.9017817E-01
          2   -1    0    0  501    0  0.00000000000E+00  0.00000000000E+00  0.59209933502E+03  0.59209933502E+03  0.00000000000E+00 0. -1.
         -1   -1    0    0    0  501 -0.00000000000E+00 -0.00000000000E+00 -0.73003442793E+03  0.73003442793E+03  0.00000000000E+00 0.  1.
         24    2    1    2    0    0 -0.98777793675E+00 -0.34965114057E+03 -0.14752753774E+02  0.35888259659E+03  0.79512128553E+02 0.  0.
        254    2    1    2    0    0  0.98777793675E+00  0.34965114057E+03 -0.12318233914E+03  0.96325116635E+03  0.88905681765E+03 0.  0.
         23    2    4    4    0    0 -0.27283135819E+03  0.76856830743E+02 -0.38511484656E+03  0.48723326393E+03  0.93482008966E+02 0.  0.
         23    2    4    4    0    0  0.27381913612E+03  0.27279430982E+03  0.26193250742E+03  0.47601790242E+03  0.92686299976E+02 0.  0.
          4    1    3    3  502    0 -0.40680156669E+01 -0.13524019673E+03  0.32843818351E+02  0.13923065743E+03  0.00000000000E+00 0. -1.
         -3    1    3    3    0  502  0.30802377301E+01 -0.21441094383E+03 -0.47596572125E+02  0.21965193916E+03  0.00000000000E+00 0.  1.
         11    1    5    5    0    0 -0.16286588461E+02 -0.11823230738E+02 -0.62270602057E+02  0.65442108992E+02  0.00000000000E+00 0. -1.
        -11    1    5    5    0    0 -0.25654476973E+03  0.88680061481E+02 -0.32284424450E+03  0.42179115494E+03  0.00000000000E+00 0.  1.
          1    1    6    6  503    0  0.21551978328E+03  0.18047137207E+03  0.14598234201E+03  0.31674838169E+03  0.00000000000E+00 0.  1.
         -1    1    6    6    0  503  0.58299352847E+02  0.92322937749E+02  0.11595016541E+03  0.15926952073E+03  0.00000000000E+00 0. -1.
<mgrwt>
<rscale>  0 0.13149189E+04</rscale>
<asrwt>0</asrwt>
<pdfrwt beam="1">  1        2 0.91092206E-01 0.13149189E+04</pdfrwt>
<pdfrwt beam="2">  1       -1 0.11231299E+00 0.13149189E+04</pdfrwt>
<totfact> 0.40984611E+01</totfact>
</mgrwt>
</event>
<event>
12    6  0.1494052E-007  0.1099560E+04  0.7818608E-02  0.9205621E-01
         -1   -1    0    0    0  501 -0.00000000000E+00  0.00000000000E+00  0.35194765095E+03  0.35194765095E+03  0.00000000000E+00 0.  1.
          2   -1    0    0  501    0  0.00000000000E+00 -0.00000000000E+00 -0.85881510741E+03  0.85881510741E+03  0.00000000000E+00 0. -1.
         24    2    1    2    0    0 -0.53627770717E+01 -0.70123102433E+02  0.78383756847E+02  0.13260289191E+03  0.80582285485E+02 0.  0.
        254    2    1    2    0    0  0.53627770717E+01  0.70123102433E+02 -0.58525121330E+03  0.10781598664E+04  0.90275340268E+03 0.  0.
         23    2    4    4    0    0  0.20278413298E+03  0.39635767845E+03 -0.12089048249E+03  0.47006999646E+03  0.90169168548E+02 0.  0.
         23    2    4    4    0    0 -0.19742135591E+03 -0.32623457601E+03 -0.46436073081E+03  0.60808986999E+03  0.93478400189E+02 0.  0.
          2    1    3    3  502    0  0.23025472316E+02 -0.28844370903E+02 -0.30065432114E+01  0.37029844859E+02  0.00000000000E+00 0. -1.
         -1    1    3    3    0  502 -0.28388249387E+02 -0.41278731530E+02  0.81390300059E+02  0.95573047056E+02  0.00000000000E+00 0.  1.
         11    1    5    5    0    0  0.11026127526E+03  0.20425471900E+03 -0.16599434025E+02  0.23270814396E+03  0.00000000000E+00 0.  1.
        -11    1    5    5    0    0  0.92522857728E+02  0.19210295945E+03 -0.10429104847E+03  0.23736185250E+03  0.00000000000E+00 0. -1.
          4    1    6    6  503    0 -0.13756087598E+03 -0.19385259424E+03 -0.22047296873E+03  0.32420695988E+03  0.00000000000E+00 0. -1.
         -4    1    6    6    0  503 -0.59860479928E+02 -0.13238198177E+03 -0.24388776208E+03  0.28388291010E+03  0.00000000000E+00 0.  1.
<mgrwt>
<rscale>  0 0.10995598E+04</rscale>
<asrwt>0</asrwt>
<pdfrwt beam="1">  1        2 0.13212540E+00 0.10995598E+04</pdfrwt>
<pdfrwt beam="2">  1       -1 0.54145792E-01 0.10995598E+04</pdfrwt>
<totfact> 0.12209806E+02</totfact>
</mgrwt>
</event>
<event>
12    6  0.1494052E-007  0.1855881E+04  0.7818608E-02  0.8677134E-01
          2   -1    0    0  501    0  0.00000000000E+00  0.00000000000E+00  0.10736251422E+04  0.10736251422E+04  0.00000000000E+00 0. -1.
         -1   -1    0    0    0  501 -0.00000000000E+00 -0.00000000000E+00 -0.80202481836E+03  0.80202481836E+03  0.00000000000E+00 0.  1.
         24    2    1    2    0    0 -0.76745604229E+01  0.98391606685E+02  0.80868115686E+03  0.81848284934E+03  0.78798185686E+02 0.  0.
        254    2    1    2    0    0  0.76745604229E+01 -0.98391606685E+02 -0.53708083299E+03  0.10571671113E+04  0.90521084440E+03 0.  0.
         23    2    4    4    0    0  0.25178372139E+03  0.30785379532E+03 -0.13604033344E+03  0.43024827841E+03  0.91856448373E+02 0.  0.
         23    2    4    4    0    0 -0.24410916097E+03 -0.40624540200E+03 -0.40104049955E+03  0.62691883284E+03  0.87000756202E+02 0.  0.
          2    1    3    3  502    0 -0.38555366533E+02  0.48024128444E+02  0.53273373297E+03  0.53628170158E+03  0.00000000000E+00 0. -1.
         -1    1    3    3    0  502  0.30880806110E+02  0.50367478241E+02  0.27594742389E+03  0.28220114777E+03  0.00000000000E+00 0.  1.
         11    1    5    5    0    0  0.95767835034E+02  0.18118403544E+03 -0.46000133175E+02  0.21003605685E+03  0.00000000000E+00 0.  1.
        -11    1    5    5    0    0  0.15601588635E+03  0.12666975988E+03 -0.90040200261E+02  0.22021222156E+03  0.00000000000E+00 0. -1.
          4    1    6    6  503    0 -0.18745344338E+03 -0.23940849826E+03 -0.22889938830E+03  0.38059184494E+03  0.00000000000E+00 0. -1.
         -4    1    6    6    0  503 -0.56655717588E+02 -0.16683690374E+03 -0.17214111125E+03  0.24632698790E+03  0.00000000000E+00 0.  1.
<mgrwt>
<rscale>  0 0.18558815E+04</rscale>
<asrwt>0</asrwt>
<pdfrwt beam="1">  1        2 0.16517310E+00 0.18558815E+04</pdfrwt>
<pdfrwt beam="2">  1       -1 0.12338843E+00 0.18558815E+04</pdfrwt>
<totfact> 0.14019175E+01</totfact>
</mgrwt>
</event>
<event>
12    6  0.1494052E-007  0.1648874E+04  0.7818608E-02  0.8791073E-01
         -1   -1    0    0    0  501 -0.00000000000E+00  0.00000000000E+00  0.51325310472E+03  0.51325310472E+03  0.00000000000E+00 0.  1.
          2   -1    0    0  501    0  0.00000000000E+00 -0.00000000000E+00 -0.13242909222E+04  0.13242909222E+04  0.00000000000E+00 0. -1.
         24    2    1    2    0    0 -0.16519659087E+03  0.41978723664E+03 -0.61373029821E+03  0.76592018557E+03  0.80359280958E+02 0.  0.
        254    2    1    2    0    0  0.16519659087E+03 -0.41978723664E+03 -0.19730751930E+03  0.10716238414E+04  0.95180678848E+03 0.  0.
         23    2    4    4    0    0 -0.45876153722E+02 -0.15833581306E+03 -0.54684954920E+03  0.57790846606E+03  0.88084700719E+02 0.  0.
         23    2    4    4    0    0  0.21107274459E+03 -0.26145142358E+03  0.34954202990E+03  0.49371537534E+03  0.93095063102E+02 0.  0.
          4    1    3    3  502    0 -0.15126998450E+03  0.39933803729E+03 -0.60314199530E+03  0.73900862156E+03  0.00000000000E+00 0. -1.
         -3    1    3    3    0  502 -0.13926606371E+02  0.20449199345E+02 -0.10588302908E+02  0.26911564008E+02  0.00000000000E+00 0.  1.
         11    1    5    5    0    0 -0.65960541960E+02 -0.83876114690E+02 -0.26441056323E+03  0.28512969270E+03  0.00000000000E+00 0.  1.
        -11    1    5    5    0    0  0.20084388238E+02 -0.74459698369E+02 -0.28243898598E+03  0.29277877336E+03  0.00000000000E+00 0. -1.
          2    1    6    6  503    0  0.41966631332E+02 -0.10128602674E+03  0.15715283628E+03  0.19161699118E+03  0.00000000000E+00 0. -1.
         -2    1    6    6    0  503  0.16910611326E+03 -0.16016539684E+03  0.19238919362E+03  0.30209838415E+03  0.00000000000E+00 0.  1.
<mgrwt>
<rscale>  0 0.16488741E+04</rscale>
<asrwt>0</asrwt>
<pdfrwt beam="1">  1        2 0.20373706E+00 0.16488741E+04</pdfrwt>
<pdfrwt beam="2">  1       -1 0.78962017E-01 0.16488741E+04</pdfrwt>
<totfact> 0.27950632E+01</totfact>
</mgrwt>
</event>
<event>
12    6  0.1494052E-007  0.1223408E+04  0.7818608E-02  0.9092611E-01
         -1   -1    0    0    0  501 -0.00000000000E+00  0.00000000000E+00  0.10510163389E+04  0.10510163389E+04  0.00000000000E+00 0.  1.
          2   -1    0    0  501    0  0.00000000000E+00 -0.00000000000E+00 -0.35601888304E+03  0.35601888304E+03  0.00000000000E+00 0. -1.
         24    2    1    2    0    0  0.22905625914E+03 -0.19986891341E+02  0.18418582671E+02  0.24228443534E+03  0.74136750313E+02 0.  0.
        254    2    1    2    0    0 -0.22905625914E+03  0.19986891341E+02  0.67657887318E+03  0.11647507866E+04  0.91979300800E+03 0.  0.
         23    2    4    4    0    0  0.78623587114E+02  0.39623166595E+03  0.14473607642E+03  0.43860465211E+03  0.90798168931E+02 0.  0.
         23    2    4    4    0    0 -0.30767984625E+03 -0.37624477461E+03  0.53184279676E+03  0.72614613449E+03  0.90578308367E+02 0.  0.
          4    1    3    3  502    0  0.20034916574E+03 -0.31403761403E+02 -0.60326517601E+01  0.20288513334E+03  0.00000000000E+00 0. -1.
         -3    1    3    3    0  502  0.28707093401E+02  0.11416870061E+02  0.24451234431E+02  0.39399302008E+02  0.00000000000E+00 0.  1.
         11    1    5    5    0    0  0.60020000859E+02  0.38690154855E+03  0.14572497400E+03  0.41776904723E+03  0.00000000000E+00 0.  1.
        -11    1    5    5    0    0  0.18603586254E+02  0.93301173975E+01 -0.98889758447E+00  0.20835604877E+02  0.00000000000E+00 0. -1.
          1    1    6    6  503    0 -0.20649911714E+03 -0.18377619063E+03  0.28104220316E+03  0.39420843925E+03  0.00000000000E+00 0. -1.
         -1    1    6    6    0  503 -0.10118072911E+03 -0.19246858398E+03  0.25080059361E+03  0.33193769523E+03  0.00000000000E+00 0.  1.
<mgrwt>
<rscale>  0 0.12234078E+04</rscale>
<asrwt>0</asrwt>
<pdfrwt beam="1">  1        2 0.54772136E-01 0.12234078E+04</pdfrwt>
<pdfrwt beam="2">  1       -1 0.16169482E+00 0.12234078E+04</pdfrwt>
<totfact> 0.29019054E+01</totfact>
</mgrwt>
</event>
<event>
12    6  0.1494052E-007  0.1328428E+04  0.7818608E-02  0.9007320E-01
          2   -1    0    0  501    0  0.00000000000E+00  0.00000000000E+00  0.10576928226E+04  0.10576928226E+04  0.00000000000E+00 0. -1.
         -1   -1    0    0    0  501 -0.00000000000E+00 -0.00000000000E+00 -0.41711563589E+03  0.41711563589E+03  0.00000000000E+00 0.  1.
         24    2    1    2    0    0 -0.36161141596E+02 -0.28214179364E+01  0.55965143222E+03  0.56658420904E+03  0.80575131314E+02 0.  0.
        254    2    1    2    0    0  0.36161141596E+02  0.28214179364E+01  0.80925754528E+02  0.90822424949E+03  0.90388424096E+03 0.  0.
         23    2    4    4    0    0  0.34932928415E+03  0.16374816969E+03 -0.20438197359E+03  0.44608441377E+03  0.91514486463E+02 0.  0.
         23    2    4    4    0    0 -0.31316814256E+03 -0.16092675176E+03  0.28530772811E+03  0.46213983573E+03  0.90559500330E+02 0.  0.
          2    1    3    3  502    0 -0.18916945207E+02 -0.21195495565E+02  0.51104713972E+03  0.51183618362E+03  0.00000000000E+00 0. -1.
         -1    1    3    3    0  502 -0.17244196389E+02  0.18374077629E+02  0.48604292506E+02  0.54748025424E+02  0.00000000000E+00 0.  1.
         11    1    5    5    0    0  0.19750032792E+02  0.24165141175E+02  0.47153884669E+01  0.31563471477E+02  0.00000000000E+00 0.  1.
        -11    1    5    5    0    0  0.32957925136E+03  0.13958302852E+03 -0.20909736205E+03  0.41452094229E+03  0.00000000000E+00 0. -1.
          2    1    6    6  503    0 -0.29678547205E+03 -0.12889505003E+03  0.27519380797E+03  0.42476720952E+03  0.00000000000E+00 0. -1.
         -2    1    6    6    0  503 -0.16382670511E+02 -0.32031701730E+02  0.10113920143E+02  0.37372626205E+02  0.00000000000E+00 0.  1.
<mgrwt>
<rscale>  0 0.13284280E+04</rscale>
<asrwt>0</asrwt>
<pdfrwt beam="1">  1        2 0.16272197E+00 0.13284280E+04</pdfrwt>
<pdfrwt beam="2">  1       -1 0.64171637E-01 0.13284280E+04</pdfrwt>
<totfact> 0.63612976E+01</totfact>
</mgrwt>
</event>
<event>
12    6  0.1494052E-007  0.3050361E+04  0.7818608E-02  0.8229494E-01
          2   -1    0    0  501    0  0.00000000000E+00  0.00000000000E+00  0.22709964685E+04  0.22709964685E+04  0.00000000000E+00 0. -1.
         -1   -1    0    0    0  501 -0.00000000000E+00 -0.00000000000E+00 -0.10242975979E+04  0.10242975979E+04  0.00000000000E+00 0.  1.
         24    2    1    2    0    0 -0.13115054547E+04  0.45414440526E+03  0.42766215609E+03  0.14545496713E+04  0.80784453282E+02 0.  0.
        254    2    1    2    0    0  0.13115054547E+04 -0.45414440526E+03  0.81903671442E+03  0.18407443951E+04  0.88950834180E+03 0.  0.
         23    2    4    4    0    0  0.30066318984E+03 -0.54355271402E+03  0.35933411184E+03  0.72312227240E+03  0.89089338632E+02 0.  0.
         23    2    4    4    0    0  0.10108422649E+04  0.89408308759E+02  0.45970260258E+03  0.11176221227E+04  0.89200876236E+02 0.  0.
          2    1    3    3  502    0 -0.95864740971E+03  0.31459943514E+03  0.34406373999E+03  0.10660007120E+04  0.00000000000E+00 0. -1.
         -1    1    3    3    0  502 -0.35285804499E+03  0.13954497012E+03  0.83598416106E+02  0.38854895930E+03  0.00000000000E+00 0.  1.
         11    1    5    5    0    0  0.27124971738E+03 -0.44697994996E+03  0.27062526130E+03  0.58873212661E+03  0.00000000000E+00 0. -1.
        -11    1    5    5    0    0  0.29413472457E+02 -0.96572764064E+02  0.88708850547E+02  0.13439014579E+03  0.00000000000E+00 0.  1.
          1    1    6    6  503    0  0.70820502812E+03  0.93659981891E+02  0.35178727193E+03  0.79629193061E+03  0.00000000000E+00 0. -1.
         -1    1    6    6    0  503  0.30263723674E+03 -0.42516731315E+01  0.10791533064E+03  0.32133019213E+03  0.00000000000E+00 0.  1.
<mgrwt>
<rscale>  0 0.30503614E+04</rscale>
<asrwt>0</asrwt>
<pdfrwt beam="1">  1        2 0.34938407E+00 0.30503614E+04</pdfrwt>
<pdfrwt beam="2">  1       -1 0.15758425E+00 0.30503614E+04</pdfrwt>
<totfact> 0.13912620E+00</totfact>
</mgrwt>
</event>
<event>
12    6  0.1494052E-007  0.1309476E+04  0.7818608E-02  0.9022084E-01
          2   -1    0    0  501    0  0.00000000000E+00  0.00000000000E+00  0.10520710437E+04  0.10520710437E+04  0.00000000000E+00 0. -1.
         -1   -1    0    0    0  501 -0.00000000000E+00 -0.00000000000E+00 -0.40746458167E+03  0.40746458167E+03  0.00000000000E+00 0.  1.
         24    2    1    2    0    0 -0.65037085899E+02 -0.29954708278E+01 -0.15441382362E+03  0.18551766894E+03  0.79588825700E+02 0.  0.
        254    2    1    2    0    0  0.65037085899E+02  0.29954708278E+01  0.79902028567E+03  0.12740179564E+04  0.99017652013E+03 0.  0.
         23    2    4    4    0    0  0.22732888219E+01  0.47149740876E+03  0.55607543207E+03  0.73492076261E+03  0.92594097277E+02 0.  0.
         23    2    4    4    0    0  0.62763797077E+02 -0.46850193793E+03  0.24294485360E+03  0.53909719382E+03  0.90389282704E+02 0.  0.
          2    1    3    3  502    0 -0.14159523689E+02 -0.10433070599E+02  0.47799083745E+01  0.18226041734E+02  0.00000000000E+00 0. -1.
         -1    1    3    3    0  502 -0.50877562210E+02  0.74375997712E+01 -0.15919373200E+03  0.16729162721E+03  0.00000000000E+00 0.  1.
         11    1    5    5    0    0 -0.42447466945E+02  0.14917350542E+03  0.18048585062E+03  0.23796988138E+03  0.00000000000E+00 0. -1.
        -11    1    5    5    0    0  0.44720755767E+02  0.32232390334E+03  0.37558958146E+03  0.49695088123E+03  0.00000000000E+00 0.  1.
          4    1    6    6  503    0  0.76857889305E+01 -0.11133397150E+03  0.16993582627E+02  0.11288536846E+03  0.00000000000E+00 0. -1.
         -4    1    6    6    0  503  0.55078008147E+02 -0.35716796643E+03  0.22595127097E+03  0.42621182536E+03  0.00000000000E+00 0.  1.
<mgrwt>
<rscale>  0 0.13094758E+04</rscale>
<asrwt>0</asrwt>
<pdfrwt beam="1">  1        2 0.16185708E+00 0.13094758E+04</pdfrwt>
<pdfrwt beam="2">  1       -1 0.62686859E-01 0.13094758E+04</pdfrwt>
<totfact> 0.67306574E+01</totfact>
</mgrwt>
</event>
<event>
12    6  0.1494052E-007  0.1196622E+04  0.7818608E-02  0.9115818E-01
         -1   -1    0    0    0  501 -0.00000000000E+00  0.00000000000E+00  0.32365493254E+03  0.32365493254E+03  0.00000000000E+00 0.  1.
          2   -1    0    0  501    0  0.00000000000E+00 -0.00000000000E+00 -0.11060422187E+04  0.11060422187E+04  0.00000000000E+00 0. -1.
         24    2    1    2    0    0 -0.23664843124E+03  0.45445083824E+02 -0.22700138112E+03  0.34224798485E+03  0.86811983367E+02 0.  0.
        254    2    1    2    0    0  0.23664843124E+03 -0.45445083824E+02 -0.55538590504E+03  0.10874491664E+04  0.90334071661E+03 0.  0.
         23    2    4    4    0    0  0.38720482971E+03  0.11388095587E+03 -0.69724755207E+03  0.81083315274E+03  0.91650425249E+02 0.  0.
         23    2    4    4    0    0 -0.15055639847E+03 -0.15932603970E+03  0.14186164703E+03  0.27661601364E+03  0.91321826864E+02 0.  0.
          4    1    3    3  502    0 -0.22143299847E+03  0.35374189589E+02 -0.23267161681E+03  0.32314081662E+03  0.00000000000E+00 0. -1.
         -3    1    3    3    0  502 -0.15215432769E+02  0.10070894234E+02  0.56702356899E+01  0.19107168231E+02  0.00000000000E+00 0.  1.
         11    1    5    5    0    0  0.17394394595E+02 -0.12379397961E+02 -0.21934861354E+02  0.30609681472E+02  0.00000000000E+00 0.  1.
        -11    1    5    5    0    0  0.36981043512E+03  0.12626035383E+03 -0.67531269071E+03  0.78022347126E+03  0.00000000000E+00 0. -1.
          4    1    6    6  503    0 -0.15048317574E+03 -0.16008771459E+03  0.15154234391E+03  0.26690512273E+03  0.00000000000E+00 0. -1.
         -4    1    6    6    0  503 -0.73222731103E-01  0.76167489363E+00 -0.96806968814E+01  0.97108909129E+01  0.00000000000E+00 0.  1.
<mgrwt>
<rscale>  0 0.11966219E+04</rscale>
<asrwt>0</asrwt>
<pdfrwt beam="1">  1        2 0.17016034E+00 0.11966219E+04</pdfrwt>
<pdfrwt beam="2">  1       -1 0.49793067E-01 0.11966219E+04</pdfrwt>
<totfact> 0.98316374E+01</totfact>
</mgrwt>
</event>
<event>
12    6  0.1494052E-007  0.1682495E+04  0.7818608E-02  0.8771412E-01
         -1   -1    0    0    0  501 -0.00000000000E+00  0.00000000000E+00  0.11292155041E+04  0.11292155041E+04  0.00000000000E+00 0.  1.
          2   -1    0    0  501    0  0.00000000000E+00 -0.00000000000E+00 -0.62671589799E+03  0.62671589799E+03  0.00000000000E+00 0. -1.
         24    2    1    2    0    0  0.53047971190E+03  0.12305016221E+03  0.40131878599E+03  0.68381652857E+03  0.99991047615E+02 0.  0.
        254    2    1    2    0    0 -0.53047971190E+03 -0.12305016221E+03  0.10118082013E+03  0.10721148735E+04  0.91795570510E+03 0.  0.
         23    2    4    4    0    0 -0.56872092360E+03  0.27022578103E+03 -0.53392049821E+02  0.63887060345E+03  0.94018483774E+02 0.  0.
         23    2    4    4    0    0  0.38241211707E+02 -0.39327594324E+03  0.15457286995E+03  0.43324427008E+03  0.87632571695E+02 0.  0.
          2    1    3    3  502    0  0.10523271720E+03  0.31207302586E+01  0.12177889360E+03  0.16097752220E+03  0.00000000000E+00 0. -1.
         -1    1    3    3    0  502  0.42524699470E+03  0.11992943195E+03  0.27953989239E+03  0.52283900637E+03  0.00000000000E+00 0.  1.
         11    1    5    5    0    0 -0.69238270511E+02  0.13382828863E+02 -0.30277266297E+02  0.76744713604E+02  0.00000000000E+00 0.  1.
        -11    1    5    5    0    0 -0.49948265309E+03  0.25684295217E+03 -0.23114783524E+02  0.56212588985E+03  0.00000000000E+00 0. -1.
          4    1    6    6  503    0  0.91583037167E+01 -0.30515243015E+02  0.41174539397E+02  0.52061475947E+02  0.00000000000E+00 0.  1.
         -4    1    6    6    0  503  0.29082907990E+02 -0.36276070023E+03  0.11339833055E+03  0.38118279413E+03  0.00000000000E+00 0. -1.
<mgrwt>
<rscale>  0 0.16824949E+04</rscale>
<asrwt>0</asrwt>
<pdfrwt beam="1">  1        2 0.96417831E-01 0.16824949E+04</pdfrwt>
<pdfrwt beam="2">  1       -1 0.17372546E+00 0.16824949E+04</pdfrwt>
<totfact> 0.11828192E+01</totfact>
</mgrwt>
</event>
<event>
12    6  0.1494052E-007  0.1001713E+04  0.7818608E-02  0.9306668E-01
         -1   -1    0    0    0  501 -0.00000000000E+00  0.00000000000E+00  0.32962853632E+03  0.32962853632E+03  0.00000000000E+00 0.  1.
          2   -1    0    0  501    0  0.00000000000E+00 -0.00000000000E+00 -0.76103061582E+03  0.76103061582E+03  0.00000000000E+00 0. -1.
         24    2    1    2    0    0  0.59326804371E+02  0.37927747389E+02 -0.58761277115E+02  0.12891553334E+03  0.90598804126E+02 0.  0.
        254    2    1    2    0    0 -0.59326804371E+02 -0.37927747389E+02 -0.37264080239E+03  0.96174361880E+03  0.88381640455E+03 0.  0.
         23    2    4    4    0    0 -0.28804102682E+03  0.14737827277E+03 -0.51937091718E+03  0.62029735464E+03  0.10165957968E+03 0.  0.
         23    2    4    4    0    0  0.22871422245E+03 -0.18530602016E+03  0.14673011479E+03  0.34144626416E+03  0.91691373983E+02 0.  0.
          4    1    3    3  502    0 -0.23624210073E+02  0.11486098783E+02 -0.22557566090E+02  0.34624811259E+02  0.00000000000E+00 0. -1.
         -3    1    3    3    0  502  0.82951014444E+02  0.26441648607E+02 -0.36203711024E+02  0.94290722080E+02  0.00000000000E+00 0.  1.
         11    1    5    5    0    0 -0.27313457502E+03  0.10521688695E+03 -0.46994486770E+03  0.55364362911E+03  0.00000000000E+00 0. -1.
        -11    1    5    5    0    0 -0.14906451794E+02  0.42161385825E+02 -0.49426049485E+02  0.66653725533E+02  0.00000000000E+00 0.  1.
          2    1    6    6  503    0  0.11299712417E+03 -0.12169716489E+03  0.37917065858E+02  0.17034158006E+03  0.00000000000E+00 0. -1.
         -2    1    6    6    0  503  0.11571709828E+03 -0.63608855269E+02  0.10881304894E+03  0.17110468410E+03  0.00000000000E+00 0.  1.
<mgrwt>
<rscale>  0 0.10017133E+04</rscale>
<asrwt>0</asrwt>
<pdfrwt beam="1">  1        2 0.11708163E+00 0.10017133E+04</pdfrwt>
<pdfrwt beam="2">  1       -1 0.50712083E-01 0.10017133E+04</pdfrwt>
<totfact> 0.16375648E+02</totfact>
</mgrwt>
</event>
<event>
12    6  0.1494052E-007  0.1435999E+04  0.7818608E-02  0.8928165E-01
         -1   -1    0    0    0  501 -0.00000000000E+00  0.00000000000E+00  0.50682257298E+03  0.50682257298E+03  0.00000000000E+00 0.  1.
          2   -1    0    0  501    0  0.00000000000E+00 -0.00000000000E+00 -0.10171673430E+04  0.10171673430E+04  0.00000000000E+00 0. -1.
         24    2    1    2    0    0  0.21782924888E+03 -0.20413949694E+03  0.17073550907E+03  0.35326955256E+03  0.80785189402E+02 0.  0.
        254    2    1    2    0    0 -0.21782924888E+03  0.20413949694E+03 -0.68108027910E+03  0.11707203634E+04  0.90420866337E+03 0.  0.
         23    2    4    4    0    0 -0.61469677031E+02  0.30968026384E+03 -0.84500590841E+03  0.90654604336E+03  0.90057517588E+02 0.  0.
         23    2    4    4    0    0 -0.15635957185E+03 -0.10554076689E+03  0.16392562931E+03  0.26417432008E+03  0.85611274155E+02 0.  0.
          4    1    3    3  502    0  0.72462640920E+02 -0.58284686435E+02  0.13050330994E+02  0.93905538393E+02  0.00000000000E+00 0. -1.
         -3    1    3    3    0  502  0.14536660796E+03 -0.14585481051E+03  0.15768517807E+03  0.25936401416E+03  0.00000000000E+00 0.  1.
         11    1    5    5    0    0  0.32902935076E+01  0.20525268528E+03 -0.51487884616E+03  0.55429208642E+03  0.00000000000E+00 0. -1.
        -11    1    5    5    0    0 -0.64759970539E+02  0.10442757856E+03 -0.33012706225E+03  0.35225395694E+03  0.00000000000E+00 0.  1.
          4    1    6    6  503    0 -0.90602412553E+02 -0.85087614881E+02  0.56408593023E+02  0.13649406117E+03  0.00000000000E+00 0. -1.
         -4    1    6    6    0  503 -0.65757159293E+02 -0.20453152013E+02  0.10751703629E+03  0.12768025892E+03  0.00000000000E+00 0.  1.
<mgrwt>
<rscale>  0 0.14359991E+04</rscale>
<asrwt>0</asrwt>
<pdfrwt beam="1">  1        2 0.15648728E+00 0.14359991E+04</pdfrwt>
<pdfrwt beam="2">  1       -1 0.77972705E-01 0.14359991E+04</pdfrwt>
<totfact> 0.44814628E+01</totfact>
</mgrwt>
</event>
<event>
12    6  0.1494052E-007  0.1391790E+04  0.7818608E-02  0.8959783E-01
          2   -1    0    0  501    0  0.00000000000E+00  0.00000000000E+00  0.23444696738E+04  0.23444696738E+04  0.00000000000E+00 0. -1.
         -1   -1    0    0    0  501 -0.00000000000E+00 -0.00000000000E+00 -0.20655850578E+03  0.20655850578E+03  0.00000000000E+00 0.  1.
         24    2    1    2    0    0  0.58986411160E+02 -0.36199832116E+03  0.94048211183E+03  0.10125932872E+04  0.79475665520E+02 0.  0.
        254    2    1    2    0    0 -0.58986411160E+02  0.36199832116E+03  0.11974290561E+04  0.15384348923E+04  0.89354540578E+03 0.  0.
         23    2    4    4    0    0 -0.27762331476E+03 -0.17573644527E+03  0.65643413035E+03  0.73968030577E+03  0.90902058064E+02 0.  0.
         23    2    4    4    0    0  0.21863690360E+03  0.53773476643E+03  0.54099492579E+03  0.79875458655E+03  0.91501940727E+02 0.  0.
          2    1    3    3  502    0  0.89002012304E+01 -0.27288385263E+03  0.68997945954E+03  0.74203535307E+03  0.00000000000E+00 0. -1.
         -3    1    3    3    0  502  0.50086209930E+02 -0.89114468529E+02  0.25050265228E+03  0.27055793414E+03  0.00000000000E+00 0.  1.
         11    1    5    5    0    0 -0.94042621010E+02 -0.61605604832E+02  0.32580963320E+03  0.34466096703E+03  0.00000000000E+00 0. -1.
        -11    1    5    5    0    0 -0.18358069375E+03 -0.11413084044E+03  0.33062449716E+03  0.39501933874E+03  0.00000000000E+00 0.  1.
          1    1    6    6  503    0  0.40548515556E+02  0.12940596522E+03  0.18004438113E+03  0.22540200781E+03  0.00000000000E+00 0.  1.
         -1    1    6    6    0  503  0.17808838805E+03  0.40832880121E+03  0.36095054466E+03  0.57335257874E+03  0.00000000000E+00 0. -1.
<mgrwt>
<rscale>  0 0.13917904E+04</rscale>
<asrwt>0</asrwt>
<pdfrwt beam="1">  1        2 0.36068762E+00 0.13917904E+04</pdfrwt>
<pdfrwt beam="2">  1       -1 0.31778233E-01 0.13917904E+04</pdfrwt>
<totfact> 0.43841679E+01</totfact>
</mgrwt>
</event>
<event>
12    6  0.1494052E-007  0.2128956E+04  0.7818608E-02  0.8548594E-01
         -1   -1    0    0    0  501 -0.00000000000E+00  0.00000000000E+00  0.35451982499E+03  0.35451982499E+03  0.00000000000E+00 0.  1.
          2   -1    0    0  501    0  0.00000000000E+00 -0.00000000000E+00 -0.31961929840E+04  0.31961929840E+04  0.00000000000E+00 0. -1.
         24    2    1    2    0    0  0.72939893854E+03 -0.18776054223E+03 -0.43625203598E+03  0.87377436410E+03  0.76739609685E+02 0.  0.
        254    2    1    2    0    0 -0.72939893854E+03  0.18776054223E+03 -0.24054211230E+04  0.26769384448E+04  0.90148312567E+03 0.  0.
         23    2    4    4    0    0 -0.90757427092E+03  0.78755537519E+02 -0.16407766735E+04  0.18789933722E+04  0.92598642558E+02 0.  0.
         23    2    4    4    0    0  0.17817533238E+03  0.10900500471E+03 -0.76464444946E+03  0.79794507261E+03  0.91687865590E+02 0.  0.
          2    1    3    3  502    0  0.22308841497E+03 -0.21291312248E+02 -0.12922944358E+03  0.25869288734E+03  0.00000000000E+00 0. -1.
         -1    1    3    3    0  502  0.50631052357E+03 -0.16646922998E+03 -0.30702259240E+03  0.61508147676E+03  0.00000000000E+00 0.  1.
         11    1    5    5    0    0 -0.62547611061E+03  0.90177092318E+02 -0.11812466378E+04  0.13396626038E+04  0.00000000000E+00 0.  1.
        -11    1    5    5    0    0 -0.28209816032E+03 -0.11421554800E+02 -0.45953003578E+03  0.53933076840E+03  0.00000000000E+00 0. -1.
          3    1    6    6  503    0 -0.78034815378E+01 -0.56148889907E+01 -0.35201024857E+02  0.36490182974E+02  0.00000000000E+00 0. -1.
         -3    1    6    6    0  503  0.18597881392E+03  0.11461989370E+03 -0.72944342460E+03  0.76145488964E+03  0.00000000000E+00 0.  1.
<mgrwt>
<rscale>  0 0.21289563E+04</rscale>
<asrwt>0</asrwt>
<pdfrwt beam="1">  1        2 0.49172200E+00 0.21289563E+04</pdfrwt>
<pdfrwt beam="2">  1       -1 0.54541512E-01 0.21289563E+04</pdfrwt>
<totfact> 0.46451817E+00</totfact>
</mgrwt>
</event>
<event>
12    6  0.1494052E-007  0.1643156E+04  0.7818608E-02  0.8794466E-01
          2   -1    0    0  501    0  0.00000000000E+00  0.00000000000E+00  0.19099245339E+04  0.19099245339E+04  0.00000000000E+00 0. -1.
         -1   -1    0    0    0  501 -0.00000000000E+00 -0.00000000000E+00 -0.35341205767E+03  0.35341205767E+03  0.00000000000E+00 0.  1.
         24    2    1    2    0    0 -0.28558982585E+03  0.41754186298E+02 -0.13833435574E+03  0.32982664754E+03  0.79650880383E+02 0.  0.
        254    2    1    2    0    0  0.28558982585E+03 -0.41754186298E+02  0.16948468320E+04  0.19335099441E+04  0.88467505851E+03 0.  0.
         23    2    4    4    0    0 -0.94429297416E+02  0.33839145299E+03  0.47983228119E+03  0.60174920925E+03  0.91855457620E+02 0.  0.
         23    2    4    4    0    0  0.38001912327E+03 -0.38014563929E+03  0.12150145508E+04  0.13317607348E+04  0.91657269143E+02 0.  0.
          4    1    3    3  502    0 -0.14230140630E+02 -0.16182994939E+02 -0.14487249513E+02  0.25966644489E+02  0.00000000000E+00 0. -1.
         -3    1    3    3    0  502 -0.27135968522E+03  0.57937181237E+02 -0.12384710623E+03  0.30386000305E+03  0.00000000000E+00 0.  1.
         11    1    5    5    0    0 -0.10734790000E+03  0.28827299510E+03  0.37655532270E+03  0.48622916654E+03  0.00000000000E+00 0. -1.
        -11    1    5    5    0    0  0.12918602580E+02  0.50118457897E+02  0.10327695849E+03  0.11552004272E+03  0.00000000000E+00 0.  1.
          1    1    6    6  503    0  0.33621345863E+03 -0.28604679673E+03  0.97665679305E+03  0.10717839106E+04  0.00000000000E+00 0. -1.
         -1    1    6    6    0  503  0.43805664639E+02 -0.94098842558E+02  0.23835775775E+03  0.25997682417E+03  0.00000000000E+00 0.  1.
<mgrwt>
<rscale>  0 0.16431559E+04</rscale>
<asrwt>0</asrwt>
<pdfrwt beam="1">  1        2 0.29383454E+00 0.16431559E+04</pdfrwt>
<pdfrwt beam="2">  1       -1 0.54371087E-01 0.16431559E+04</pdfrwt>
<totfact> 0.27888649E+01</totfact>
</mgrwt>
</event>
<event>
12    6  0.1494052E-007  0.1702214E+04  0.7818608E-02  0.8760103E-01
          2   -1    0    0  501    0  0.00000000000E+00  0.00000000000E+00  0.31688828409E+04  0.31688828409E+04  0.00000000000E+00 0. -1.
         -1   -1    0    0    0  501 -0.00000000000E+00 -0.00000000000E+00 -0.22859255528E+03  0.22859255528E+03  0.00000000000E+00 0.  1.
         24    2    1    2    0    0  0.20026552051E+03  0.32353328158E+03  0.20721368075E+03  0.44069509589E+03  0.80589050481E+02 0.  0.
        254    2    1    2    0    0 -0.20026552051E+03 -0.32353328158E+03  0.27330766049E+04  0.29567803003E+04  0.10621026095E+04 0.  0.
         23    2    4    4    0    0  0.42636794249E+03 -0.97346898837E+02  0.12771223711E+04  0.13531439417E+04  0.93225184564E+02 0.  0.
         23    2    4    4    0    0 -0.62663346299E+03 -0.22618638274E+03  0.14559542338E+04  0.16036363586E+04  0.89538054226E+02 0.  0.
          2    1    3    3  502    0  0.61600690663E+02  0.40472482015E+02  0.41543175586E+02  0.84607933011E+02  0.00000000000E+00 0. -1.
         -1    1    3    3    0  502  0.13866482985E+03  0.28306079956E+03  0.16567050517E+03  0.35608716288E+03  0.00000000000E+00 0.  1.
         11    1    5    5    0    0  0.52760002390E+00  0.54690094292E+01  0.47476732949E+02  0.47793604148E+02  0.00000000000E+00 0.  1.
        -11    1    5    5    0    0  0.42584034246E+03 -0.10281590827E+03  0.12296456381E+04  0.13053503375E+04  0.00000000000E+00 0. -1.
          4    1    6    6  503    0 -0.89197390951E+02 -0.15177998464E+01  0.21468505999E+03  0.23248258699E+03  0.00000000000E+00 0.  1.
         -4    1    6    6    0  503 -0.53743607204E+03 -0.22466858289E+03  0.12412691738E+04  0.13711537716E+04  0.00000000000E+00 0. -1.
<mgrwt>
<rscale>  0 0.17022139E+04</rscale>
<asrwt>0</asrwt>
<pdfrwt beam="1">  1        2 0.48752040E+00 0.17022139E+04</pdfrwt>
<pdfrwt beam="2">  1       -1 0.35168088E-01 0.17022139E+04</pdfrwt>
<totfact> 0.11394385E+01</totfact>
</mgrwt>
</event>
<event>
12    6  0.1494052E-007  0.1805200E+04  0.7818608E-02  0.8703539E-01
          2   -1    0    0  501    0  0.00000000000E+00  0.00000000000E+00  0.15149579454E+04  0.15149579454E+04  0.00000000000E+00 0. -1.
         -1   -1    0    0    0  501 -0.00000000000E+00 -0.00000000000E+00 -0.53776180101E+03  0.53776180101E+03  0.00000000000E+00 0.  1.
         24    2    1    2    0    0  0.48116040022E+03  0.26892275089E+03  0.80766618719E+03  0.98100445621E+03  0.78805434367E+02 0.  0.
        254    2    1    2    0    0 -0.48116040022E+03 -0.26892275089E+03  0.16952995718E+03  0.10717152902E+04  0.90332634199E+03 0.  0.
         23    2    4    4    0    0 -0.39992963773E+03  0.76759019487E+02 -0.27144839175E+03  0.49819031625E+03  0.93132698957E+02 0.  0.
         23    2    4    4    0    0 -0.81230762492E+02 -0.34568177038E+03  0.44097834893E+03  0.57352497393E+03  0.91513214061E+02 0.  0.
          2    1    3    3  502    0  0.17881714135E+03  0.66468393813E+02  0.23758465534E+03  0.30469671129E+03  0.00000000000E+00 0. -1.
         -1    1    3    3    0  502  0.30234325887E+03  0.20245435708E+03  0.57008153185E+03  0.67630774492E+03  0.00000000000E+00 0.  1.
         11    1    5    5    0    0 -0.32199913576E+03  0.97752722940E+02 -0.22859351505E+03  0.40680957879E+03  0.00000000000E+00 0. -1.
        -11    1    5    5    0    0 -0.77930501972E+02 -0.20993703453E+02 -0.42854876705E+02  0.91380737465E+02  0.00000000000E+00 0.  1.
          1    1    6    6  503    0 -0.99530729464E+02 -0.31929702642E+03  0.40669498404E+03  0.52655272028E+03  0.00000000000E+00 0. -1.
         -1    1    6    6    0  503  0.18299966971E+02 -0.26384743957E+02  0.34283364893E+02  0.46972253653E+02  0.00000000000E+00 0.  1.
<mgrwt>
<rscale>  0 0.18051997E+04</rscale>
<asrwt>0</asrwt>
<pdfrwt beam="1">  1        2 0.23307045E+00 0.18051997E+04</pdfrwt>
<pdfrwt beam="2">  1       -1 0.82732586E-01 0.18051997E+04</pdfrwt>
<totfact> 0.19430549E+01</totfact>
</mgrwt>
</event>
<event>
12    6  0.1494052E-007  0.1569746E+04  0.7818608E-02  0.8839353E-01
         -1   -1    0    0    0  501 -0.00000000000E+00  0.00000000000E+00  0.47032193212E+03  0.47032193212E+03  0.00000000000E+00 0.  1.
          2   -1    0    0  501    0  0.00000000000E+00 -0.00000000000E+00 -0.13097958874E+04  0.13097958874E+04  0.00000000000E+00 0. -1.
         24    2    1    2    0    0 -0.44791200957E+03 -0.29731194029E+03 -0.29831788129E+03  0.62024018125E+03  0.81760418147E+02 0.  0.
        254    2    1    2    0    0  0.44791200957E+03  0.29731194029E+03 -0.54115607404E+03  0.11598776383E+04  0.87375435980E+03 0.  0.
         23    2    4    4    0    0 -0.25412610578E+03  0.11297122602E+03 -0.12577187983E+03  0.31853194497E+03  0.91112340908E+02 0.  0.
         23    2    4    4    0    0  0.70203811535E+03  0.18434071427E+03 -0.41538419421E+03  0.84134569336E+03  0.92084377553E+02 0.  0.
          2    1    3    3  502    0 -0.33092863166E+03 -0.18957523157E+03 -0.24122475492E+03  0.45126700529E+03  0.00000000000E+00 0. -1.
         -1    1    3    3    0  502 -0.11698337792E+03 -0.10773670872E+03 -0.57093126365E+02  0.16897317595E+03  0.00000000000E+00 0.  1.
         11    1    5    5    0    0 -0.24861015241E+03  0.12557518104E+03 -0.11631208300E+03  0.30183544296E+03  0.00000000000E+00 0. -1.
        -11    1    5    5    0    0 -0.55159533673E+01 -0.12603955013E+02 -0.94597968259E+01  0.16696502014E+02  0.00000000000E+00 0.  1.
          4    1    6    6  503    0  0.33249939411E+03  0.59393353880E+02 -0.15019672739E+03  0.36965182874E+03  0.00000000000E+00 0.  1.
         -4    1    6    6    0  503  0.36953872124E+03  0.12494736039E+03 -0.26518746681E+03  0.47169386462E+03  0.00000000000E+00 0. -1.
<mgrwt>
<rscale>  0 0.15697461E+04</rscale>
<asrwt>0</asrwt>
<pdfrwt beam="1">  1        2 0.20150706E+00 0.15697461E+04</pdfrwt>
<pdfrwt beam="2">  1       -1 0.72357220E-01 0.15697461E+04</pdfrwt>
<totfact> 0.34444213E+01</totfact>
</mgrwt>
</event>
<event>
12    6  0.1494052E-007  0.1430042E+04  0.7818608E-02  0.8932355E-01
          2   -1    0    0  501    0  0.00000000000E+00  0.00000000000E+00  0.82375093602E+03  0.82375093602E+03  0.00000000000E+00 0. -1.
         -1   -1    0    0    0  501 -0.00000000000E+00 -0.00000000000E+00 -0.62064297357E+03  0.62064297357E+03  0.00000000000E+00 0.  1.
         24    2    1    2    0    0  0.15074140080E+03  0.81608453883E+02  0.42371538677E+03  0.46431041136E+03  0.81648756597E+02 0.  0.
        254    2    1    2    0    0 -0.15074140080E+03 -0.81608453883E+02 -0.22060742432E+03  0.98008349824E+03  0.93942169349E+03 0.  0.
         23    2    4    4    0    0 -0.49635736210E+03  0.27805162278E+02 -0.31080204224E+03  0.59346659190E+03  0.91983304370E+02 0.  0.
         23    2    4    4    0    0  0.34561596130E+03 -0.10941361616E+03  0.90194617919E+02  0.38661690634E+03  0.99578265981E+02 0.  0.
          2    1    3    3  502    0  0.12038181056E+03  0.77556161909E+02  0.25166388228E+03  0.28955387790E+03  0.00000000000E+00 0. -1.
         -1    1    3    3    0  502  0.30359590238E+02  0.40522919746E+01  0.17205150449E+03  0.17475653346E+03  0.00000000000E+00 0.  1.
         11    1    5    5    0    0 -0.48296301615E+02 -0.83718146858E+01 -0.38983571217E+01  0.49171304834E+02  0.00000000000E+00 0. -1.
        -11    1    5    5    0    0 -0.44806106048E+03  0.36176976964E+02 -0.30690368512E+03  0.54429528707E+03  0.00000000000E+00 0.  1.
          3    1    6    6  503    0  0.76195027418E+02  0.13377150326E+02  0.37156189662E+02  0.85820817896E+02  0.00000000000E+00 0. -1.
         -3    1    6    6    0  503  0.26942093388E+03 -0.12279076649E+03  0.53038428256E+02  0.30079608844E+03  0.00000000000E+00 0.  1.
<mgrwt>
<rscale>  0 0.14300423E+04</rscale>
<asrwt>0</asrwt>
<pdfrwt beam="1">  1        2 0.12673091E+00 0.14300423E+04</pdfrwt>
<pdfrwt beam="2">  1       -1 0.95483535E-01 0.14300423E+04</pdfrwt>
<totfact> 0.38888446E+01</totfact>
</mgrwt>
</event>
<event>
12    6  0.1494052E-007  0.1867342E+04  0.7818608E-02  0.8671285E-01
          2   -1    0    0  501    0  0.00000000000E+00  0.00000000000E+00  0.31581927334E+04  0.31581927334E+04  0.00000000000E+00 0. -1.
         -1   -1    0    0    0  501 -0.00000000000E+00 -0.00000000000E+00 -0.27602534830E+03  0.27602534830E+03  0.00000000000E+00 0.  1.
         24    2    1    2    0    0  0.30243444981E+03  0.59385505178E+03  0.98309662310E+03  0.11902801291E+04  0.78469079963E+02 0.  0.
        254    2    1    2    0    0 -0.30243444981E+03 -0.59385505178E+03  0.18990707620E+04  0.22439379526E+04  0.99229902598E+03 0.  0.
         23    2    4    4    0    0  0.88184180093E+02 -0.24989205166E+03  0.16239935084E+04  0.16480995870E+04  0.93031424914E+02 0.  0.
         23    2    4    4    0    0 -0.39061862991E+03 -0.34396300012E+03  0.27507725361E+03  0.59583836564E+03  0.91991320441E+02 0.  0.
          4    1    3    3  502    0  0.12483510915E+03  0.27645517465E+03  0.51214502971E+03  0.59523423921E+03  0.00000000000E+00 0. -1.
         -3    1    3    3    0  502  0.17759934066E+03  0.31739987714E+03  0.47095159339E+03  0.59504588993E+03  0.00000000000E+00 0.  1.
         11    1    5    5    0    0  0.10189087606E+03 -0.23140720625E+03  0.15535843366E+04  0.15740252020E+04  0.00000000000E+00 0. -1.
        -11    1    5    5    0    0 -0.13706695965E+02 -0.18484845407E+02  0.70409171869E+02  0.74074384960E+02  0.00000000000E+00 0.  1.
          3    1    6    6  503    0 -0.38265931599E+03 -0.31518996915E+03  0.27290370789E+03  0.56590573645E+03  0.00000000000E+00 0. -1.
         -3    1    6    6    0  503 -0.79593139139E+01 -0.28773030975E+02  0.21735457205E+01  0.29932629194E+02  0.00000000000E+00 0.  1.
<mgrwt>
<rscale>  0 0.18673417E+04</rscale>
<asrwt>0</asrwt>
<pdfrwt beam="1">  1        2 0.48587578E+00 0.18673417E+04</pdfrwt>
<pdfrwt beam="2">  1       -1 0.42465440E-01 0.18673417E+04</pdfrwt>
<totfact> 0.80857868E+00</totfact>
</mgrwt>
</event>
<event>
12    6  0.1494052E-007  0.3883624E+04  0.7818608E-02  0.8028444E-01
          2   -1    0    0  501    0  0.00000000000E+00  0.00000000000E+00  0.27467629783E+04  0.27467629783E+04  0.00000000000E+00 0. -1.
         -1   -1    0    0    0  501 -0.00000000000E+00 -0.00000000000E+00 -0.13727556698E+04  0.13727556698E+04  0.00000000000E+00 0.  1.
         24    2    1    2    0    0 -0.45015299817E+03  0.16577685367E+04  0.13367092323E+04  0.21780698673E+04  0.79765482299E+02 0.  0.
        254    2    1    2    0    0  0.45015299817E+03 -0.16577685367E+04  0.37298076257E+02  0.19414487807E+04  0.90387940494E+03 0.  0.
         23    2    4    4    0    0  0.54557442057E+02 -0.49543481146E+02 -0.23319943720E+03  0.26075519886E+03  0.90444597470E+02 0.  0.
         23    2    4    4    0    0  0.39559555612E+03 -0.16082250556E+04  0.27049751346E+03  0.16806935819E+04  0.93157597816E+02 0.  0.
          4    1    3    3  502    0 -0.28940499778E+03  0.10538212095E+04  0.80155239613E+03  0.13552788046E+04  0.00000000000E+00 0. -1.
         -3    1    3    3    0  502 -0.16074800039E+03  0.60394732719E+03  0.53515683618E+03  0.82279106276E+03  0.00000000000E+00 0.  1.
         11    1    5    5    0    0  0.65054107548E+02 -0.52798804303E+02 -0.23511709778E+03  0.24959927947E+03  0.00000000000E+00 0. -1.
        -11    1    5    5    0    0 -0.10496665491E+02  0.32553231573E+01  0.19176605747E+01  0.11155919387E+02  0.00000000000E+00 0.  1.
          3    1    6    6  503    0  0.29344571163E+03 -0.13357240187E+04  0.23263127494E+03  0.13872225307E+04  0.00000000000E+00 0. -1.
         -3    1    6    6    0  503  0.10214984448E+03 -0.27250103691E+03  0.37866238518E+02  0.29347105115E+03  0.00000000000E+00 0.  1.
<mgrwt>
<rscale>  0 0.38836243E+04</rscale>
<asrwt>0</asrwt>
<pdfrwt beam="1">  1        2 0.42257892E+00 0.38836243E+04</pdfrwt>
<pdfrwt beam="2">  1       -1 0.21119318E+00 0.38836243E+04</pdfrwt>
<totfact> 0.28415937E-01</totfact>
</mgrwt>
</event>
<event>
12    6  0.1494052E-007  0.2261278E+04  0.7818608E-02  0.8493347E-01
          2   -1    0    0  501    0  0.00000000000E+00  0.00000000000E+00  0.30045734362E+04  0.30045734362E+04  0.00000000000E+00 0. -1.
         -1   -1    0    0    0  501 -0.00000000000E+00 -0.00000000000E+00 -0.42546605608E+03  0.42546605608E+03  0.00000000000E+00 0.  1.
         24    2    1    2    0    0 -0.38429374740E+03 -0.17270079075E+03  0.23761596179E+04  0.24145768174E+04  0.80866743101E+02 0.  0.
        254    2    1    2    0    0  0.38429374740E+03  0.17270079075E+03  0.20294776225E+03  0.10154626749E+04  0.90137084623E+03 0.  0.
         23    2    4    4    0    0  0.66151248485E+03  0.75588550159E+02  0.22491177317E+03  0.70890760754E+03  0.93017706842E+02 0.  0.
         23    2    4    4    0    0 -0.27721873745E+03  0.97112240591E+02 -0.21964010921E+02  0.30655506733E+03  0.84926885388E+02 0.  0.
          4    1    3    3  502    0 -0.33532818419E+03 -0.12098881500E+03  0.20459256996E+04  0.20767511292E+04  0.00000000000E+00 0. -1.
         -3    1    3    3    0  502 -0.48965563214E+02 -0.51711975755E+02  0.33023391832E+03  0.33782568823E+03  0.00000000000E+00 0.  1.
         11    1    5    5    0    0  0.64942738591E+03  0.63419276223E+02  0.20811339599E+03  0.68490081016E+03  0.00000000000E+00 0. -1.
        -11    1    5    5    0    0  0.12085098942E+02  0.12169273936E+02  0.16798377179E+02  0.24006797379E+02  0.00000000000E+00 0.  1.
          4    1    6    6  503    0 -0.21412382471E+03  0.95860592259E+02 -0.45919223594E+02  0.23905405362E+03  0.00000000000E+00 0. -1.
         -4    1    6    6    0  503 -0.63094912738E+02  0.12516483330E+01  0.23955212673E+02  0.67501013705E+02  0.00000000000E+00 0.  1.
<mgrwt>
<rscale>  0 0.22612775E+04</rscale>
<asrwt>0</asrwt>
<pdfrwt beam="1">  1        2 0.46224205E+00 0.22612775E+04</pdfrwt>
<pdfrwt beam="2">  1       -1 0.65456318E-01 0.22612775E+04</pdfrwt>
<totfact> 0.42387710E+00</totfact>
</mgrwt>
</event>
<event>
12    6  0.1494052E-007  0.2668694E+04  0.7818608E-02  0.8345235E-01
         -1   -1    0    0    0  501 -0.00000000000E+00  0.00000000000E+00  0.77672585367E+03  0.77672585367E+03  0.00000000000E+00 0.  1.
          2   -1    0    0  501    0  0.00000000000E+00 -0.00000000000E+00 -0.22922905961E+04  0.22922905961E+04  0.00000000000E+00 0. -1.
         24    2    1    2    0    0 -0.53116001963E+03  0.16900756612E+03 -0.18733516231E+04  0.19561352753E+04  0.79526018705E+02 0.  0.
        254    2    1    2    0    0  0.53116001963E+03 -0.16900756612E+03  0.35778688067E+03  0.11128811745E+04  0.89431456023E+03 0.  0.
         23    2    4    4    0    0 -0.13115191681E+03  0.53759602287E+02 -0.16490481027E+03  0.23560440682E+03  0.90691344346E+02 0.  0.
         23    2    4    4    0    0  0.66231193645E+03 -0.22276716841E+03  0.52269169094E+03  0.87727676765E+03  0.90142169977E+02 0.  0.
          2    1    3    3  502    0 -0.51045375890E+03  0.15958608566E+03 -0.17236807657E+04  0.18047454504E+04  0.00000000000E+00 0. -1.
         -1    1    3    3    0  502 -0.20706260730E+02  0.94214804629E+01 -0.14967085743E+03  0.15138982492E+03  0.00000000000E+00 0.  1.
         11    1    5    5    0    0 -0.80894865944E+02  0.14914853922E+02 -0.14888292763E+03  0.17009573288E+03  0.00000000000E+00 0.  1.
        -11    1    5    5    0    0 -0.50257050869E+02  0.38844748365E+02 -0.16021882638E+02  0.65508673936E+02  0.00000000000E+00 0. -1.
          3    1    6    6  503    0  0.11536871247E+03 -0.48218890586E+02  0.54270380959E+02  0.13630948417E+03  0.00000000000E+00 0. -1.
         -3    1    6    6    0  503  0.54694322398E+03 -0.17454827782E+03  0.46842130998E+03  0.74096728348E+03  0.00000000000E+00 0.  1.
<mgrwt>
<rscale>  0 0.26686936E+04</rscale>
<asrwt>0</asrwt>
<pdfrwt beam="1">  1        2 0.35266009E+00 0.26686936E+04</pdfrwt>
<pdfrwt beam="2">  1       -1 0.11949628E+00 0.26686936E+04</pdfrwt>
<totfact> 0.28648409E+00</totfact>
</mgrwt>
</event>
<event>
12    6  0.1494052E-007  0.1370387E+04  0.7818608E-02  0.8975537E-01
          2   -1    0    0  501    0  0.00000000000E+00  0.00000000000E+00  0.44503222863E+03  0.44503222863E+03  0.00000000000E+00 0. -1.
         -1   -1    0    0    0  501 -0.00000000000E+00 -0.00000000000E+00 -0.10549572253E+04  0.10549572253E+04  0.00000000000E+00 0.  1.
         24    2    1    2    0    0 -0.72883668012E+02  0.11581164529E+03 -0.56030688738E+03  0.58218301509E+03  0.79176314420E+02 0.  0.
        254    2    1    2    0    0  0.72883668012E+02 -0.11581164529E+03 -0.49618109266E+02  0.91780643881E+03  0.90619111456E+03 0.  0.
         23    2    4    4    0    0 -0.31372175663E+03 -0.30927054860E+03  0.80330914903E+02  0.45731011929E+03  0.92789420201E+02 0.  0.
         23    2    4    4    0    0  0.38660542464E+03  0.19345890331E+03 -0.12994902417E+03  0.46049631952E+03  0.90994559036E+02 0.  0.
          2    1    3    3  502    0 -0.57828132142E+01  0.61468312190E+02 -0.13863416013E+03  0.15176041871E+03  0.00000000000E+00 0. -1.
         -1    1    3    3    0  502 -0.67100854798E+02  0.54343333099E+02 -0.42167272725E+03  0.43042259638E+03  0.00000000000E+00 0.  1.
         11    1    5    5    0    0 -0.27759025653E+02 -0.61292734164E+02 -0.10388906912E+02  0.68082979909E+02  0.00000000000E+00 0.  1.
        -11    1    5    5    0    0 -0.28596273098E+03 -0.24797781444E+03  0.90719821815E+02  0.38922713938E+03  0.00000000000E+00 0. -1.
          2    1    6    6  503    0  0.26099818713E+03  0.81565367232E+02 -0.75322082826E+02  0.28363070881E+03  0.00000000000E+00 0. -1.
         -2    1    6    6    0  503  0.12560723751E+03  0.11189353608E+03 -0.54626941344E+02  0.17686561071E+03  0.00000000000E+00 0.  1.
<mgrwt>
<rscale>  0 0.13703868E+04</rscale>
<asrwt>0</asrwt>
<pdfrwt beam="1">  1        2 0.68466498E-01 0.13703868E+04</pdfrwt>
<pdfrwt beam="2">  1       -1 0.16230111E+00 0.13703868E+04</pdfrwt>
<totfact> 0.22064797E+01</totfact>
</mgrwt>
</event>
<event>
12    6  0.1494052E-007  0.2066903E+04  0.7818608E-02  0.8575965E-01
          2   -1    0    0  501    0  0.00000000000E+00  0.00000000000E+00  0.14875127850E+04  0.14875127850E+04  0.00000000000E+00 0. -1.
         -1   -1    0    0    0  501 -0.00000000000E+00 -0.00000000000E+00 -0.71799154757E+03  0.71799154757E+03  0.00000000000E+00 0.  1.
         24    2    1    2    0    0 -0.38610031886E+03  0.44411764515E+03  0.93564349180E+03  0.11081435122E+04  0.78989625328E+02 0.  0.
        254    2    1    2    0    0  0.38610031886E+03 -0.44411764515E+03 -0.16612225441E+03  0.10973608203E+04  0.91120262711E+03 0.  0.
         23    2    4    4    0    0  0.60821746350E+02  0.19193725926E+03  0.19237767340E+03  0.29240920833E+03  0.89189570985E+02 0.  0.
         23    2    4    4    0    0  0.32527857251E+03 -0.63605490441E+03 -0.35849992781E+03  0.80495161202E+03  0.95146772390E+02 0.  0.
          4    1    3    3  502    0 -0.38296488459E+03  0.44735425280E+03  0.93142277107E+03  0.11019692867E+04  0.00000000000E+00 0. -1.
         -3    1    3    3    0  502 -0.31354342668E+01 -0.32366076506E+01  0.42207207262E+01  0.61742255040E+01  0.00000000000E+00 0.  1.
         11    1    5    5    0    0  0.34426948997E+02  0.97003901167E+01  0.25763118464E+02  0.44080048306E+02  0.00000000000E+00 0. -1.
        -11    1    5    5    0    0  0.26394797353E+02  0.18223686914E+03  0.16661455493E+03  0.24832916002E+03  0.00000000000E+00 0.  1.
          1    1    6    6  503    0  0.29612897755E+03 -0.61223981889E+03 -0.32182232037E+03  0.75239588852E+03  0.00000000000E+00 0.  1.
         -1    1    6    6    0  503  0.29149594960E+02 -0.23815085517E+02 -0.36677607438E+02  0.52555723493E+02  0.00000000000E+00 0. -1.
<mgrwt>
<rscale>  0 0.20669026E+04</rscale>
<asrwt>0</asrwt>
<pdfrwt beam="1">  1        2 0.22884812E+00 0.20669026E+04</pdfrwt>
<pdfrwt beam="2">  1       -1 0.11046024E+00 0.20669026E+04</pdfrwt>
<totfact> 0.10264694E+01</totfact>
</mgrwt>
</event>
<event>
12    6  0.1494052E-007  0.1344770E+04  0.7818608E-02  0.8994797E-01
         -1   -1    0    0    0  501 -0.00000000000E+00  0.00000000000E+00  0.26327717046E+03  0.26327717046E+03  0.00000000000E+00 0.  1.
          2   -1    0    0  501    0  0.00000000000E+00 -0.00000000000E+00 -0.17172076077E+04  0.17172076077E+04  0.00000000000E+00 0. -1.
         24    2    1    2    0    0  0.14195074414E+03  0.20334925315E+02  0.91554590942E+02  0.18878590337E+03  0.81819015155E+02 0.  0.
        254    2    1    2    0    0 -0.14195074414E+03 -0.20334925315E+02 -0.15454850282E+04  0.17916988748E+04  0.89504042513E+03 0.  0.
         23    2    4    4    0    0 -0.12996030140E+03 -0.44462113393E+03 -0.78608398586E+03  0.91703161614E+03  0.91876653749E+02 0.  0.
         23    2    4    4    0    0 -0.11990442735E+02  0.42428620862E+03 -0.75940104230E+03  0.87466725863E+03  0.90500346531E+02 0.  0.
          2    1    3    3  502    0  0.86284151227E+02  0.23845094663E+02  0.10130860554E+02  0.90089830880E+02  0.00000000000E+00 0. -1.
         -1    1    3    3    0  502  0.55666592910E+02 -0.35101693480E+01  0.81423730388E+02  0.98696072492E+02  0.00000000000E+00 0.  1.
         11    1    5    5    0    0 -0.93360500456E+02 -0.26009268465E+03 -0.54670405699E+03  0.61257629205E+03  0.00000000000E+00 0. -1.
        -11    1    5    5    0    0 -0.36599800947E+02 -0.18452844928E+03 -0.23937992887E+03  0.30445532409E+03  0.00000000000E+00 0.  1.
          1    1    6    6  503    0  0.24859712505E+02  0.80150747160E+02 -0.10535088410E+03  0.13468836756E+03  0.00000000000E+00 0. -1.
         -1    1    6    6    0  503 -0.36850155239E+02  0.34413546146E+03 -0.65405015821E+03  0.73997889106E+03  0.00000000000E+00 0.  1.
<mgrwt>
<rscale>  0 0.13447700E+04</rscale>
<asrwt>0</asrwt>
<pdfrwt beam="1">  1        2 0.26418579E+00 0.13447700E+04</pdfrwt>
<pdfrwt beam="2">  1       -1 0.40504180E-01 0.13447700E+04</pdfrwt>
<totfact> 0.63564199E+01</totfact>
</mgrwt>
</event>
<event>
12    6  0.1494052E-007  0.1923487E+04  0.7818608E-02  0.8643253E-01
         -1   -1    0    0    0  501 -0.00000000000E+00  0.00000000000E+00  0.40218082008E+03  0.40218082008E+03  0.00000000000E+00 0.  1.
          2   -1    0    0  501    0  0.00000000000E+00 -0.00000000000E+00 -0.22998370944E+04  0.22998370944E+04  0.00000000000E+00 0. -1.
         24    2    1    2    0    0 -0.18970340452E+03 -0.72084418846E+03 -0.81765844716E+03  0.11092696346E+04  0.79435887692E+02 0.  0.
        254    2    1    2    0    0  0.18970340452E+03  0.72084418846E+03 -0.10799978272E+04  0.15927482799E+04  0.90268934343E+03 0.  0.
         23    2    4    4    0    0  0.19670361307E+03  0.66172488641E+03 -0.12258741023E+04  0.14098288406E+04  0.90983010793E+02 0.  0.
         23    2    4    4    0    0 -0.70002085500E+01  0.59119302054E+02  0.14587627518E+03  0.18291943933E+03  0.92927599932E+02 0.  0.
          2    1    3    3  502    0 -0.36133462564E+02 -0.66834443199E+02 -0.10820054620E+03  0.13221130100E+03  0.00000000000E+00 0. -1.
         -1    1    3    3    0  502 -0.15356994195E+03 -0.65400974527E+03 -0.70945790096E+03  0.97705833357E+03  0.00000000000E+00 0.  1.
         11    1    5    5    0    0  0.77156531808E+01  0.40225589348E+02 -0.37670094339E+02  0.55647689529E+02  0.00000000000E+00 0.  1.
        -11    1    5    5    0    0  0.18898795988E+03  0.62149929706E+03 -0.11882040080E+04  0.13541811510E+04  0.00000000000E+00 0. -1.
          1    1    6    6  503    0 -0.35857812813E+02  0.69810666381E+02  0.11579673211E+03  0.13988636477E+03  0.00000000000E+00 0. -1.
         -1    1    6    6    0  503  0.28857604263E+02 -0.10691364327E+02  0.30079543066E+02  0.43033074560E+02  0.00000000000E+00 0.  1.
<mgrwt>
<rscale>  0 0.19234868E+04</rscale>
<asrwt>0</asrwt>
<pdfrwt beam="1">  1        2 0.35382110E+00 0.19234868E+04</pdfrwt>
<pdfrwt beam="2">  1       -1 0.61873971E-01 0.19234868E+04</pdfrwt>
<totfact> 0.12789572E+01</totfact>
</mgrwt>
</event>
<event>
12    6  0.1494052E-007  0.3142208E+04  0.7818608E-02  0.8204249E-01
         -1   -1    0    0    0  501 -0.00000000000E+00  0.00000000000E+00  0.16122518776E+04  0.16122518776E+04  0.00000000000E+00 0.  1.
          2   -1    0    0  501    0  0.00000000000E+00 -0.00000000000E+00 -0.15310067026E+04  0.15310067026E+04  0.00000000000E+00 0. -1.
         24    2    1    2    0    0  0.13153832612E+04  0.58563869493E+03  0.62472130929E+02  0.14434559703E+04  0.80352761121E+02 0.  0.
        254    2    1    2    0    0 -0.13153832612E+04 -0.58563869493E+03  0.18773044037E+02  0.16998026099E+04  0.90320024399E+03 0.  0.
         23    2    4    4    0    0 -0.13677538421E+04 -0.36518901525E+03 -0.10944341749E+03  0.14232146706E+04  0.97203640071E+02 0.  0.
         23    2    4    4    0    0  0.52370580875E+02 -0.22044967968E+03  0.12821646153E+03  0.27658793933E+03  0.93384624888E+02 0.  0.
          2    1    3    3  502    0  0.30718789443E+02  0.12785941739E+01  0.27359178159E+01  0.30866876651E+02  0.00000000000E+00 0. -1.
         -1    1    3    3    0  502  0.12846644717E+04  0.58436010076E+03  0.59736213113E+02  0.14125890936E+04  0.00000000000E+00 0.  1.
         11    1    5    5    0    0 -0.24407379342E+03 -0.73771238072E+02  0.16713537408E+02  0.25552603494E+03  0.00000000000E+00 0. -1.
        -11    1    5    5    0    0 -0.11236800486E+04 -0.29141777718E+03 -0.12615695490E+03  0.11676886356E+04  0.00000000000E+00 0.  1.
          3    1    6    6  503    0  0.78986488102E+02 -0.18102043282E+03  0.10335985569E+03  0.22291371014E+03  0.00000000000E+00 0. -1.
         -3    1    6    6    0  503 -0.26615907227E+02 -0.39429246862E+02  0.24856605839E+02  0.53674229193E+02  0.00000000000E+00 0.  1.
<mgrwt>
<rscale>  0 0.31422084E+04</rscale>
<asrwt>0</asrwt>
<pdfrwt beam="1">  1        2 0.23553949E+00 0.31422084E+04</pdfrwt>
<pdfrwt beam="2">  1       -1 0.24803875E+00 0.31422084E+04</pdfrwt>
<totfact> 0.84336741E-01</totfact>
</mgrwt>
</event>
<event>
12    6  0.1494052E-007  0.4083008E+04  0.7818608E-02  0.7988007E-01
          2   -1    0    0  501    0  0.00000000000E+00  0.00000000000E+00  0.18247085214E+04  0.18247085214E+04  0.00000000000E+00 0. -1.
         -1   -1    0    0    0  501 -0.00000000000E+00 -0.00000000000E+00 -0.22840567849E+04  0.22840567849E+04  0.00000000000E+00 0.  1.
         24    2    1    2    0    0  0.19945483245E+03  0.41421743788E+03  0.16833747433E+04  0.17470953625E+04  0.85049181989E+02 0.  0.
        254    2    1    2    0    0 -0.19945483245E+03 -0.41421743788E+03 -0.21427230068E+04  0.23616699438E+04  0.88026400807E+03 0.  0.
         23    2    4    4    0    0 -0.50124953528E+03 -0.43796421234E+03 -0.15572583297E+04  0.16958928851E+04  0.89080997882E+02 0.  0.
         23    2    4    4    0    0  0.30179470283E+03  0.23746774454E+02 -0.58546467702E+03  0.66577705877E+03  0.94054516064E+02 0.  0.
          4    1    3    3  502    0  0.13744709548E+03  0.33852870344E+03  0.12216208350E+04  0.12750885662E+04  0.00000000000E+00 0. -1.
         -3    1    3    3    0  502  0.62007736964E+02  0.75688734442E+02  0.46175390827E+03  0.47200679631E+03  0.00000000000E+00 0.  1.
         11    1    5    5    0    0 -0.22898408866E+03 -0.18565808462E+03 -0.79911163181E+03  0.85175233333E+03  0.00000000000E+00 0. -1.
        -11    1    5    5    0    0 -0.27226544662E+03 -0.25230612772E+03 -0.75814669794E+03  0.84414055175E+03  0.00000000000E+00 0.  1.
          1    1    6    6  503    0  0.16357028898E+03 -0.13457266504E+02 -0.22982536406E+03  0.28241111065E+03  0.00000000000E+00 0. -1.
         -1    1    6    6    0  503  0.13822441386E+03  0.37204040958E+02 -0.35563931296E+03  0.38336594811E+03  0.00000000000E+00 0.  1.
<mgrwt>
<rscale>  0 0.40830077E+04</rscale>
<asrwt>0</asrwt>
<pdfrwt beam="1">  1        2 0.28072439E+00 0.40830077E+04</pdfrwt>
<pdfrwt beam="2">  1       -1 0.35139335E+00 0.40830077E+04</pdfrwt>
<totfact> 0.11339220E-01</totfact>
</mgrwt>
</event>
<event>
12    6  0.1494052E-007  0.1673363E+04  0.7818608E-02  0.8776704E-01
         -1   -1    0    0    0  501 -0.00000000000E+00  0.00000000000E+00  0.12721842661E+04  0.12721842661E+04  0.00000000000E+00 0.  1.
          2   -1    0    0  501    0  0.00000000000E+00 -0.00000000000E+00 -0.55026320807E+03  0.55026320807E+03  0.00000000000E+00 0. -1.
         24    2    1    2    0    0  0.41368473253E+03 -0.81156433912E+02 -0.19005762992E+03  0.46981866706E+03  0.82983447354E+02 0.  0.
        254    2    1    2    0    0 -0.41368473253E+03  0.81156433912E+02  0.91197868792E+03  0.13526288071E+04  0.90563686864E+03 0.  0.
         23    2    4    4    0    0 -0.10637909033E+03  0.15111031262E+02  0.10016526485E+04  0.10111693588E+04  0.87238694537E+02 0.  0.
         23    2    4    4    0    0 -0.30730564220E+03  0.66045402651E+02 -0.89673960541E+02  0.34145944831E+03  0.98764278477E+02 0.  0.
          2    1    3    3  502    0  0.34458187323E+03 -0.40004965023E+02 -0.13445535429E+03  0.37204207676E+03  0.00000000000E+00 0. -1.
         -1    1    3    3    0  502  0.69102859302E+02 -0.41151468890E+02 -0.55602275627E+02  0.97776590299E+02  0.00000000000E+00 0.  1.
         11    1    5    5    0    0 -0.11768121554E+03  0.15344392562E+02  0.75614449446E+03  0.76540108138E+03  0.00000000000E+00 0. -1.
        -11    1    5    5    0    0  0.11302125207E+02 -0.23336129975E+00  0.24550815401E+03  0.24576827740E+03  0.00000000000E+00 0.  1.
          1    1    6    6  503    0 -0.20413082636E+03  0.76644279651E+02 -0.94470442248E+02  0.23763081520E+03  0.00000000000E+00 0. -1.
         -1    1    6    6    0  503 -0.10317481584E+03 -0.10598877001E+02  0.47964817072E+01  0.10382863311E+03  0.00000000000E+00 0.  1.
<mgrwt>
<rscale>  0 0.16733633E+04</rscale>
<asrwt>0</asrwt>
<pdfrwt beam="1">  1        2 0.84655878E-01 0.16733633E+04</pdfrwt>
<pdfrwt beam="2">  1       -1 0.19572066E+00 0.16733633E+04</pdfrwt>
<totfact> 0.96590006E+00</totfact>
</mgrwt>
</event>
<event>
12    6  0.1494052E-007  0.1571541E+04  0.7818608E-02  0.8838224E-01
          2   -1    0    0  501    0  0.00000000000E+00  0.00000000000E+00  0.21208949712E+04  0.21208949712E+04  0.00000000000E+00 0. -1.
         -1   -1    0    0    0  501 -0.00000000000E+00 -0.00000000000E+00 -0.29112031774E+03  0.29112031774E+03  0.00000000000E+00 0.  1.
         24    2    1    2    0    0  0.91440433072E+02  0.30212779663E+03 -0.17077992585E+02  0.32658309327E+03  0.81989637634E+02 0.  0.
        254    2    1    2    0    0 -0.91440433072E+02 -0.30212779663E+03  0.18468526461E+04  0.20854321957E+04  0.91570747961E+03 0.  0.
         23    2    4    4    0    0  0.20986474967E+03  0.24570119664E+03  0.65337221013E+03  0.73497411822E+03  0.94230665415E+02 0.  0.
         23    2    4    4    0    0 -0.30130518274E+03 -0.54782899327E+03  0.11934804359E+04  0.13504580774E+04  0.91869739367E+02 0.  0.
          2    1    3    3  502    0 -0.15149689101E+02  0.32382750032E+02  0.28056830198E+01  0.35861224696E+02  0.00000000000E+00 0. -1.
         -1    1    3    3    0  502  0.10659012217E+03  0.26974504660E+03 -0.19883675605E+02  0.29072186857E+03  0.00000000000E+00 0.  1.
         11    1    5    5    0    0  0.20239440096E+03  0.19813568360E+03  0.50524729900E+03  0.57922023083E+03  0.00000000000E+00 0. -1.
        -11    1    5    5    0    0  0.74703487034E+01  0.47565513040E+02  0.14812491113E+03  0.15575388739E+03  0.00000000000E+00 0.  1.
          1    1    6    6  503    0 -0.30515841657E+03 -0.54126142525E+03  0.11891415470E+04  0.13416941561E+04  0.00000000000E+00 0. -1.
         -1    1    6    6    0  503  0.38532338321E+01 -0.65675680157E+01  0.43388889197E+01  0.87639213633E+01  0.00000000000E+00 0.  1.
<mgrwt>
<rscale>  0 0.15715414E+04</rscale>
<asrwt>0</asrwt>
<pdfrwt beam="1">  1        2 0.32629152E+00 0.15715414E+04</pdfrwt>
<pdfrwt beam="2">  1       -1 0.44787743E-01 0.15715414E+04</pdfrwt>
<totfact> 0.30951518E+01</totfact>
</mgrwt>
</event>
<event>
12    6  0.1494052E-007  0.1639111E+04  0.7818608E-02  0.8796875E-01
         -1   -1    0    0    0  501 -0.00000000000E+00  0.00000000000E+00  0.77156934251E+03  0.77156934251E+03  0.00000000000E+00 0.  1.
          2   -1    0    0  501    0  0.00000000000E+00 -0.00000000000E+00 -0.87052566631E+03  0.87052566631E+03  0.00000000000E+00 0. -1.
         24    2    1    2    0    0  0.10233362944E+03  0.51782161733E+03  0.14134091929E+03  0.55172005026E+03  0.76199470477E+02 0.  0.
        254    2    1    2    0    0 -0.10233362944E+03 -0.51782161733E+03 -0.24029724308E+03  0.10903749586E+04  0.92334359052E+03 0.  0.
         23    2    4    4    0    0 -0.34932651676E+03  0.85715534467E+02  0.42911546430E+02  0.37345599100E+03  0.90839464080E+02 0.  0.
         23    2    4    4    0    0  0.24699288732E+03 -0.60353715180E+03 -0.28320878951E+03  0.71691896757E+03  0.92211754213E+02 0.  0.
          4    1    3    3  502    0  0.38851480695E+02  0.26787603051E+03  0.35632672547E+02  0.27301408870E+03  0.00000000000E+00 0. -1.
         -3    1    3    3    0  502  0.63482148743E+02  0.24994558682E+03  0.10570824674E+03  0.27870596156E+03  0.00000000000E+00 0.  1.
         11    1    5    5    0    0 -0.37189648666E+02 -0.13446813749E+02 -0.12105632203E+02  0.41357382641E+02  0.00000000000E+00 0.  1.
        -11    1    5    5    0    0 -0.31213686810E+03  0.99162348216E+02  0.55017178634E+02  0.33209860836E+03  0.00000000000E+00 0. -1.
          4    1    6    6  503    0  0.21680157450E+03 -0.57860756116E+03 -0.27752520990E+03  0.67735505805E+03  0.00000000000E+00 0. -1.
         -4    1    6    6    0  503  0.30191312822E+02 -0.24929590638E+02 -0.56835796187E+01  0.39563909521E+02  0.00000000000E+00 0.  1.
<mgrwt>
<rscale>  0 0.16391106E+04</rscale>
<asrwt>0</asrwt>
<pdfrwt beam="1">  1        2 0.13392703E+00 0.16391106E+04</pdfrwt>
<pdfrwt beam="2">  1       -1 0.11870298E+00 0.16391106E+04</pdfrwt>
<totfact> 0.21313544E+01</totfact>
</mgrwt>
</event>
<event>
12    6  0.1494052E-007  0.1620577E+04  0.7818608E-02  0.8808006E-01
          2   -1    0    0  501    0  0.00000000000E+00  0.00000000000E+00  0.13905095315E+04  0.13905095315E+04  0.00000000000E+00 0. -1.
         -1   -1    0    0    0  501 -0.00000000000E+00 -0.00000000000E+00 -0.47217762078E+03  0.47217762078E+03  0.00000000000E+00 0.  1.
         24    2    1    2    0    0  0.27384135640E+03  0.29677542133E+03 -0.12128516494E+03  0.43058183099E+03  0.87326300537E+02 0.  0.
        254    2    1    2    0    0 -0.27384135640E+03 -0.29677542133E+03  0.10396170756E+04  0.14321053213E+04  0.89836365026E+03 0.  0.
         23    2    4    4    0    0  0.12548641732E+03 -0.35678576496E+03  0.92352113739E+03  0.10020622005E+04  0.90523143665E+02 0.  0.
         23    2    4    4    0    0 -0.39932777372E+03  0.60010343638E+02  0.11609593826E+03  0.43004312075E+03  0.91623723005E+02 0.  0.
          2    1    3    3  502    0  0.10509303831E+03  0.89951273911E+02 -0.23481351287E+01  0.13835205860E+03  0.00000000000E+00 0. -1.
         -1    1    3    3    0  502  0.16874831809E+03  0.20682414742E+03 -0.11893702981E+03  0.29222977239E+03  0.00000000000E+00 0.  1.
         11    1    5    5    0    0  0.22210871369E+02 -0.45271521722E+02  0.22076227709E+03  0.22644826444E+03  0.00000000000E+00 0. -1.
        -11    1    5    5    0    0  0.10327554595E+03 -0.31151424324E+03  0.70275886030E+03  0.77561393610E+03  0.00000000000E+00 0.  1.
          2    1    6    6  503    0 -0.95097767819E+01  0.71702289086E+01  0.22838165861E+02  0.25757132156E+02  0.00000000000E+00 0. -1.
         -2    1    6    6    0  503 -0.38981799694E+03  0.52840114729E+02  0.93257772402E+02  0.40428598859E+03  0.00000000000E+00 0.  1.
<mgrwt>
<rscale>  0 0.16205770E+04</rscale>
<asrwt>0</asrwt>
<pdfrwt beam="1">  1        2 0.21392454E+00 0.16205770E+04</pdfrwt>
<pdfrwt beam="2">  1       -1 0.72642712E-01 0.16205770E+04</pdfrwt>
<totfact> 0.30558367E+01</totfact>
</mgrwt>
</event>
<event>
12    6  0.1494052E-007  0.1832640E+04  0.7818608E-02  0.8689132E-01
          2   -1    0    0  501    0  0.00000000000E+00  0.00000000000E+00  0.10223220999E+04  0.10223220999E+04  0.00000000000E+00 0. -1.
         -1   -1    0    0    0  501 -0.00000000000E+00 -0.00000000000E+00 -0.82130938895E+03  0.82130938895E+03  0.00000000000E+00 0.  1.
         24    2    1    2    0    0  0.41226651094E+03 -0.54203382966E+03  0.14646551424E+03  0.70131247749E+03  0.81379946403E+02 0.  0.
        254    2    1    2    0    0 -0.41226651094E+03  0.54203382966E+03  0.54547196749E+02  0.11423190114E+04  0.91550695169E+03 0.  0.
         23    2    4    4    0    0  0.28492218146E+02  0.37556847749E+03 -0.34436979991E+03  0.51837404611E+03  0.90871364083E+02 0.  0.
         23    2    4    4    0    0 -0.44075872909E+03  0.16646535217E+03  0.39891699666E+03  0.62394496528E+03  0.90518388942E+02 0.  0.
          4    1    3    3  502    0  0.22584435243E+03 -0.33075011249E+03  0.12107034206E+03  0.41840092754E+03  0.00000000000E+00 0. -1.
         -3    1    3    3    0  502  0.18642215851E+03 -0.21128371717E+03  0.25395172182E+02  0.28291154995E+03  0.00000000000E+00 0.  1.
         11    1    5    5    0    0  0.87596933763E+01  0.36361420256E+03 -0.33053546434E+03  0.49147300406E+03  0.00000000000E+00 0. -1.
        -11    1    5    5    0    0  0.19732524770E+02  0.11954274934E+02 -0.13834335578E+02  0.26901042059E+02  0.00000000000E+00 0.  1.
          3    1    6    6  503    0 -0.31860851177E+03  0.15782792633E+03  0.31928701093E+03  0.47787575106E+03  0.00000000000E+00 0. -1.
         -3    1    6    6    0  503 -0.12215021732E+03  0.86374258370E+01  0.79629985732E+02  0.14606921423E+03  0.00000000000E+00 0.  1.
<mgrwt>
<rscale>  0 0.18326404E+04</rscale>
<asrwt>0</asrwt>
<pdfrwt beam="1">  1        2 0.15728032E+00 0.18326404E+04</pdfrwt>
<pdfrwt beam="2">  1       -1 0.12635529E+00 0.18326404E+04</pdfrwt>
<totfact> 0.14263688E+01</totfact>
</mgrwt>
</event>
<event>
12    6  0.1494052E-007  0.1305997E+04  0.7818608E-02  0.9024823E-01
         -1   -1    0    0    0  501 -0.00000000000E+00  0.00000000000E+00  0.17741956028E+03  0.17741956028E+03  0.00000000000E+00 0.  1.
          2   -1    0    0  501    0  0.00000000000E+00 -0.00000000000E+00 -0.24033821000E+04  0.24033821000E+04  0.00000000000E+00 0. -1.
         24    2    1    2    0    0 -0.14568699747E+02  0.28644818984E+03 -0.91274737165E+03  0.96004072107E+03  0.79407865949E+02 0.  0.
        254    2    1    2    0    0  0.14568699747E+02 -0.28644818984E+03 -0.13132151681E+04  0.16207609392E+04  0.90557558049E+03 0.  0.
         23    2    4    4    0    0 -0.14791393719E+03 -0.53579720806E+03 -0.11213818199E+04  0.12549231236E+04  0.91529662749E+02 0.  0.
         23    2    4    4    0    0  0.16248263694E+03  0.24934901822E+03 -0.19183334817E+03  0.36583781562E+03  0.91987682183E+02 0.  0.
          4    1    3    3  502    0  0.12321918030E+02  0.20379371899E+03 -0.72409629666E+03  0.75232915429E+03  0.00000000000E+00 0. -1.
         -3    1    3    3    0  502 -0.26890617777E+02  0.82654470849E+02 -0.18865107500E+03  0.20771156678E+03  0.00000000000E+00 0.  1.
         11    1    5    5    0    0  0.93725657032E+01 -0.86500264352E+02 -0.15922335733E+03  0.18144480770E+03  0.00000000000E+00 0.  1.
        -11    1    5    5    0    0 -0.15728650289E+03 -0.44929694371E+03 -0.96215846260E+03  0.10734783159E+04  0.00000000000E+00 0. -1.
          2    1    6    6  503    0 -0.88392273675E+01  0.39821036085E+02 -0.22640383251E+02  0.46652264780E+02  0.00000000000E+00 0.  1.
         -2    1    6    6    0  503  0.17132186430E+03  0.20952798214E+03 -0.16919296492E+03  0.31918555084E+03  0.00000000000E+00 0. -1.
<mgrwt>
<rscale>  0 0.13059969E+04</rscale>
<asrwt>0</asrwt>
<pdfrwt beam="1">  1        2 0.36975106E+00 0.13059969E+04</pdfrwt>
<pdfrwt beam="2">  1       -1 0.27295320E-01 0.13059969E+04</pdfrwt>
<totfact> 0.53356654E+01</totfact>
</mgrwt>
</event>
<event>
12    6  0.1494052E-007  0.1569584E+04  0.7818608E-02  0.8839455E-01
          2   -1    0    0  501    0  0.00000000000E+00  0.00000000000E+00  0.65434444207E+03  0.65434444207E+03  0.00000000000E+00 0. -1.
         -1   -1    0    0    0  501 -0.00000000000E+00 -0.00000000000E+00 -0.94124467414E+03  0.94124467414E+03  0.00000000000E+00 0.  1.
         24    2    1    2    0    0 -0.20377635529E+03 -0.32942387278E+03  0.26639207114E+03  0.47665561395E+03  0.78682576264E+02 0.  0.
        254    2    1    2    0    0  0.20377635529E+03  0.32942387278E+03 -0.55329230321E+03  0.11189335023E+04  0.89209580134E+03 0.  0.
         23    2    4    4    0    0  0.28731503334E+02  0.58449599574E+03 -0.53073285902E+03  0.79544910235E+03  0.92740705554E+02 0.  0.
         23    2    4    4    0    0  0.17504485196E+03 -0.25507212295E+03 -0.22559444194E+02  0.32348439992E+03  0.91819063182E+02 0.  0.
          2    1    3    3  502    0 -0.18795915892E+03 -0.32955124883E+03  0.25400070951E+03  0.45656218794E+03  0.00000000000E+00 0. -1.
         -1    1    3    3    0  502 -0.15817196374E+02  0.12737604303E+00  0.12391361628E+02  0.20093426009E+02  0.00000000000E+00 0.  1.
         11    1    5    5    0    0  0.17147845193E+01  0.10611962841E+03 -0.14848345288E+03  0.18251479885E+03  0.00000000000E+00 0.  1.
        -11    1    5    5    0    0  0.27016718815E+02  0.47837636732E+03 -0.38224940614E+03  0.61293430350E+03  0.00000000000E+00 0. -1.
          4    1    6    6  503    0  0.12885909050E+03 -0.22121552371E+03 -0.48589653400E+02  0.26057998302E+03  0.00000000000E+00 0. -1.
         -4    1    6    6    0  503  0.46185761457E+02 -0.33856599245E+02  0.26030209206E+02  0.62904416896E+02  0.00000000000E+00 0.  1.
<mgrwt>
<rscale>  0 0.15695837E+04</rscale>
<asrwt>0</asrwt>
<pdfrwt beam="1">  1        2 0.10066838E+00 0.15695837E+04</pdfrwt>
<pdfrwt beam="2">  1       -1 0.14480687E+00 0.15695837E+04</pdfrwt>
<totfact> 0.18775155E+01</totfact>
</mgrwt>
</event>
<event>
12    6  0.1494052E-007  0.2786084E+04  0.7818608E-02  0.8307602E-01
          2   -1    0    0  501    0  0.00000000000E+00  0.00000000000E+00  0.25240603536E+04  0.25240603536E+04  0.00000000000E+00 0. -1.
         -1   -1    0    0    0  501 -0.00000000000E+00 -0.00000000000E+00 -0.76882727187E+03  0.76882727187E+03  0.00000000000E+00 0.  1.
         24    2    1    2    0    0  0.88980021628E+03 -0.87126976716E+03  0.81772674734E+03  0.14919090767E+04  0.79121600354E+02 0.  0.
        254    2    1    2    0    0 -0.88980021628E+03  0.87126976716E+03  0.93750633441E+03  0.18009785488E+04  0.90208102422E+03 0.  0.
         23    2    4    4    0    0 -0.92671142921E+03  0.44726982297E+03  0.39617101076E+03  0.11064824519E+04  0.92236538242E+02 0.  0.
         23    2    4    4    0    0  0.36911212931E+02  0.42399994419E+03  0.54133532366E+03  0.69449609696E+03  0.90235834002E+02 0.  0.
          2    1    3    3  502    0  0.12972710461E+03 -0.92121701528E+02  0.11454624001E+03  0.19605195909E+03  0.00000000000E+00 0. -1.
         -1    1    3    3    0  502  0.76007311167E+03 -0.77914806563E+03  0.70318050733E+03  0.12958571176E+04  0.00000000000E+00 0.  1.
         11    1    5    5    0    0 -0.22380662592E+03  0.14930958297E+03  0.86291411829E+02  0.28254020090E+03  0.00000000000E+00 0. -1.
        -11    1    5    5    0    0 -0.70290480329E+03  0.29796024000E+03  0.30987959893E+03  0.82394225098E+03  0.00000000000E+00 0.  1.
          2    1    6    6  503    0 -0.36993692590E+01  0.21387376917E+03  0.33327063163E+03  0.39601134880E+03  0.00000000000E+00 0. -1.
         -2    1    6    6    0  503  0.40610582190E+02  0.21012617502E+03  0.20806469203E+03  0.29848474815E+03  0.00000000000E+00 0.  1.
<mgrwt>
<rscale>  0 0.27860843E+04</rscale>
<asrwt>0</asrwt>
<pdfrwt beam="1">  1        2 0.38831697E+00 0.27860843E+04</pdfrwt>
<pdfrwt beam="2">  1       -1 0.11828112E+00 0.27860843E+04</pdfrwt>
<totfact> 0.21404607E+00</totfact>
</mgrwt>
</event>
<event>
12    6  0.1494052E-007  0.1397531E+04  0.7818608E-02  0.8955608E-01
         -1   -1    0    0    0  501 -0.00000000000E+00  0.00000000000E+00  0.34452946725E+03  0.34452946725E+03  0.00000000000E+00 0.  1.
          2   -1    0    0  501    0  0.00000000000E+00 -0.00000000000E+00 -0.14172170295E+04  0.14172170295E+04  0.00000000000E+00 0. -1.
         24    2    1    2    0    0  0.10654769000E+03  0.12548984267E+03  0.15148559826E+03  0.23735797622E+03  0.79314636310E+02 0.  0.
        254    2    1    2    0    0 -0.10654769000E+03 -0.12548984267E+03 -0.12241731605E+04  0.15243885205E+04  0.89334222096E+03 0.  0.
         23    2    4    4    0    0 -0.17890871675E+03 -0.25958342336E+03 -0.44388006780E+02  0.33143714453E+03  0.92132529649E+02 0.  0.
         23    2    4    4    0    0  0.72361026740E+02  0.13409358069E+03 -0.11797851537E+04  0.11929513760E+04  0.89569916585E+02 0.  0.
          2    1    3    3  502    0  0.40110318808E+02  0.10338550537E+03  0.76231469378E+02  0.13456833698E+03  0.00000000000E+00 0. -1.
         -1    1    3    3    0  502  0.66437371197E+02  0.22104337304E+02  0.75254128887E+02  0.10278963923E+03  0.00000000000E+00 0.  1.
         11    1    5    5    0    0 -0.81214725801E+02 -0.12257735157E+03 -0.67125212401E+02  0.16163796876E+03  0.00000000000E+00 0. -1.
        -11    1    5    5    0    0 -0.97693990944E+02 -0.13700607179E+03  0.22737205621E+02  0.16979917577E+03  0.00000000000E+00 0.  1.
          2    1    6    6  503    0  0.40415846688E+02  0.11035709987E+03 -0.10649502462E+04  0.10714154923E+04  0.00000000000E+00 0. -1.
         -2    1    6    6    0  503  0.31945180052E+02  0.23736480814E+02 -0.11483490752E+03  0.12153588374E+03  0.00000000000E+00 0.  1.
<mgrwt>
<rscale>  0 0.13975307E+04</rscale>
<asrwt>0</asrwt>
<pdfrwt beam="1">  1        2 0.21803339E+00 0.13975307E+04</pdfrwt>
<pdfrwt beam="2">  1       -1 0.53004533E-01 0.13975307E+04</pdfrwt>
<totfact> 0.56316861E+01</totfact>
</mgrwt>
</event>
<event>
12    6  0.1494052E-007  0.1343558E+04  0.7818608E-02  0.8995719E-01
         -1   -1    0    0    0  501 -0.00000000000E+00  0.00000000000E+00  0.28103506525E+03  0.28103506525E+03  0.00000000000E+00 0.  1.
          2   -1    0    0  501    0  0.00000000000E+00 -0.00000000000E+00 -0.16058034727E+04  0.16058034727E+04  0.00000000000E+00 0. -1.
         24    2    1    2    0    0 -0.18285898345E+03 -0.28234903563E+03 -0.43769728831E+03  0.55772079475E+03  0.79468125381E+02 0.  0.
        254    2    1    2    0    0  0.18285898345E+03  0.28234903563E+03 -0.88707111910E+03  0.13291177432E+04  0.93086004269E+03 0.  0.
         23    2    4    4    0    0 -0.48128789151E+01  0.16389502542E+03  0.16508354919E+03  0.24980973706E+03  0.90926252289E+02 0.  0.
         23    2    4    4    0    0  0.18767186236E+03  0.11845401021E+03 -0.10521546683E+04  0.10793080061E+04  0.92866816344E+02 0.  0.
          2    1    3    3  502    0 -0.13445291964E+03 -0.18498500420E+03 -0.34972170329E+03  0.41785441140E+03  0.00000000000E+00 0. -1.
         -1    1    3    3    0  502 -0.48406063807E+02 -0.97364031433E+02 -0.87975585022E+02  0.13986638335E+03  0.00000000000E+00 0.  1.
         11    1    5    5    0    0  0.26629236277E+02  0.14929189035E+03  0.12281585509E+03  0.19514332940E+03  0.00000000000E+00 0.  1.
        -11    1    5    5    0    0 -0.31442115192E+02  0.14603135071E+02  0.42267694094E+02  0.54666407653E+02  0.00000000000E+00 0. -1.
          3    1    6    6  503    0  0.13842761785E+03  0.51915359308E+02 -0.51457218324E+03  0.53538952332E+03  0.00000000000E+00 0. -1.
         -3    1    6    6    0  503  0.49244244510E+02  0.66538650901E+02 -0.53758248505E+03  0.54391848278E+03  0.00000000000E+00 0.  1.
<mgrwt>
<rscale>  0 0.13435581E+04</rscale>
<asrwt>0</asrwt>
<pdfrwt beam="1">  1        2 0.24704669E+00 0.13435581E+04</pdfrwt>
<pdfrwt beam="2">  1       -1 0.43236163E-01 0.13435581E+04</pdfrwt>
<totfact> 0.65014434E+01</totfact>
</mgrwt>
</event>
<event>
12    6  0.1494052E-007  0.1808077E+04  0.7818608E-02  0.8702016E-01
         -1   -1    0    0    0  501 -0.00000000000E+00  0.00000000000E+00  0.52925730984E+03  0.52925730984E+03  0.00000000000E+00 0.  1.
          2   -1    0    0  501    0  0.00000000000E+00 -0.00000000000E+00 -0.15442130176E+04  0.15442130176E+04  0.00000000000E+00 0. -1.
         24    2    1    2    0    0 -0.29181114188E+02  0.15668667317E+02  0.38737648941E+03  0.39696604592E+03  0.80152682458E+02 0.  0.
        254    2    1    2    0    0  0.29181114188E+02 -0.15668667317E+02 -0.14023321971E+04  0.16765042815E+04  0.91816881352E+03 0.  0.
         23    2    4    4    0    0 -0.33494230464E+03 -0.19998394215E+03 -0.10695723726E+04  0.11419054747E+04  0.88222039535E+02 0.  0.
         23    2    4    4    0    0  0.36412341883E+03  0.18431527483E+03 -0.33275982449E+03  0.53459880678E+03  0.92243150103E+02 0.  0.
          2    1    3    3  502    0 -0.54614749088E+02 -0.10532146674E+01  0.20951691264E+03  0.21652070747E+03  0.00000000000E+00 0. -1.
         -1    1    3    3    0  502  0.25433634900E+02  0.16721881984E+02  0.17785957677E+03  0.18044533846E+03  0.00000000000E+00 0.  1.
         11    1    5    5    0    0 -0.29580873942E+03 -0.20498533263E+03 -0.98146986932E+03  0.10453730919E+04  0.00000000000E+00 0. -1.
        -11    1    5    5    0    0 -0.39133565220E+02  0.50013904851E+01 -0.88102503322E+02  0.96532382780E+02  0.00000000000E+00 0.  1.
          1    1    6    6  503    0  0.29465097916E+03  0.10507417189E+03 -0.24162828855E+03  0.39527713183E+03  0.00000000000E+00 0. -1.
         -1    1    6    6    0  503  0.69472439665E+02  0.79241102938E+02 -0.91131535941E+02  0.13932167495E+03  0.00000000000E+00 0.  1.
<mgrwt>
<rscale>  0 0.18080775E+04</rscale>
<asrwt>0</asrwt>
<pdfrwt beam="1">  1        2 0.23757123E+00 0.18080775E+04</pdfrwt>
<pdfrwt beam="2">  1       -1 0.81424202E-01 0.18080775E+04</pdfrwt>
<totfact> 0.19353095E+01</totfact>
</mgrwt>
</event>
<event>
12    6  0.1494052E-007  0.2370673E+04  0.7818608E-02  0.8450565E-01
         -1   -1    0    0    0  501 -0.00000000000E+00  0.00000000000E+00  0.60985800507E+03  0.60985800507E+03  0.00000000000E+00 0.  1.
          2   -1    0    0  501    0  0.00000000000E+00 -0.00000000000E+00 -0.23038528106E+04  0.23038528106E+04  0.00000000000E+00 0. -1.
         24    2    1    2    0    0 -0.31382877191E+03 -0.94881473236E+03 -0.50198012184E+03  0.11209822760E+04  0.76676762733E+02 0.  0.
        254    2    1    2    0    0  0.31382877191E+03  0.94881473236E+03 -0.11920146837E+04  0.17927285397E+04  0.89120071616E+03 0.  0.
         23    2    4    4    0    0  0.97283204437E+02  0.94432791926E+03 -0.12314154079E+04  0.15574995232E+04  0.90562780148E+02 0.  0.
         23    2    4    4    0    0  0.21654556747E+03  0.44868131010E+01  0.39400724176E+02  0.23522901647E+03  0.82874355752E+02 0.  0.
          4    1    3    3  502    0 -0.10612916034E+03 -0.24734435030E+03 -0.10745922845E+03  0.28981047613E+03  0.00000000000E+00 0. -1.
         -3    1    3    3    0  502 -0.20769961157E+03 -0.70147038206E+03 -0.39452089338E+03  0.83117179985E+03  0.00000000000E+00 0.  1.
         11    1    5    5    0    0 -0.11328925015E+02  0.28832781129E+03 -0.38562705442E+03  0.48163211729E+03  0.00000000000E+00 0. -1.
        -11    1    5    5    0    0  0.10861212945E+03  0.65600010797E+03 -0.84578835345E+03  0.10758674059E+04  0.00000000000E+00 0.  1.
          3    1    6    6  503    0 -0.31651443785E+01  0.44922080565E+00 -0.95707973715E+01  0.10090594660E+02  0.00000000000E+00 0. -1.
         -3    1    6    6    0  503  0.21971071185E+03  0.40375922954E+01  0.48971521547E+02  0.22513842181E+03  0.00000000000E+00 0.  1.
<mgrwt>
<rscale>  0 0.23706734E+04</rscale>
<asrwt>0</asrwt>
<pdfrwt beam="1">  1        2 0.35443890E+00 0.23706734E+04</pdfrwt>
<pdfrwt beam="2">  1       -1 0.93824307E-01 0.23706734E+04</pdfrwt>
<totfact> 0.50930628E+00</totfact>
</mgrwt>
</event>
<event>
12    6  0.1494052E-007  0.1306436E+04  0.7818608E-02  0.9024477E-01
          2   -1    0    0  501    0  0.00000000000E+00  0.00000000000E+00  0.25399484530E+03  0.25399484530E+03  0.00000000000E+00 0. -1.
         -1   -1    0    0    0  501 -0.00000000000E+00 -0.00000000000E+00 -0.16799318654E+04  0.16799318654E+04  0.00000000000E+00 0.  1.
         24    2    1    2    0    0  0.80710563359E+01  0.20262670922E+03 -0.72871884343E+03  0.76295968667E+03  0.99767757702E+02 0.  0.
        254    2    1    2    0    0 -0.80710563359E+01 -0.20262670922E+03 -0.69721817671E+03  0.11709670241E+04  0.91865546332E+03 0.  0.
         23    2    4    4    0    0  0.16350915054E+03  0.36173832433E+00  0.17422952009E+03  0.25539269388E+03  0.90189407652E+02 0.  0.
         23    2    4    4    0    0 -0.17158020688E+03 -0.20298844754E+03 -0.87144769680E+03  0.91557433020E+03  0.90615609178E+02 0.  0.
          4    1    3    3  502    0 -0.10284128132E+02  0.87336745807E+02 -0.48272725713E+03  0.49067206486E+03  0.00000000000E+00 0. -1.
         -3    1    3    3    0  502  0.18355184468E+02  0.11528996341E+03 -0.24599158630E+03  0.27228762181E+03  0.00000000000E+00 0.  1.
         11    1    5    5    0    0  0.71856187706E+02  0.20302299571E+02  0.24269247692E+02  0.78514275536E+02  0.00000000000E+00 0. -1.
        -11    1    5    5    0    0  0.91652962837E+02 -0.19940561246E+02  0.14996027239E+03  0.17687841834E+03  0.00000000000E+00 0.  1.
          2    1    6    6  503    0 -0.30094975678E+02 -0.28651191290E+02 -0.27771931301E+03  0.28081063930E+03  0.00000000000E+00 0. -1.
         -2    1    6    6    0  503 -0.14148523120E+03 -0.17433725625E+03 -0.59372838379E+03  0.63476369090E+03  0.00000000000E+00 0.  1.
<mgrwt>
<rscale>  0 0.13064364E+04</rscale>
<asrwt>0</asrwt>
<pdfrwt beam="1">  1        2 0.39076129E-01 0.13064364E+04</pdfrwt>
<pdfrwt beam="2">  1       -1 0.25845106E+00 0.13064364E+04</pdfrwt>
<totfact> 0.91362244E+00</totfact>
</mgrwt>
</event>
<event>
12    6  0.1494052E-007  0.1769758E+04  0.7818608E-02  0.8722549E-01
         -1   -1    0    0    0  501 -0.00000000000E+00  0.00000000000E+00  0.20817205342E+03  0.20817205342E+03  0.00000000000E+00 0.  1.
          2   -1    0    0  501    0  0.00000000000E+00 -0.00000000000E+00 -0.37613651295E+04  0.37613651295E+04  0.00000000000E+00 0. -1.
         24    2    1    2    0    0 -0.42985973167E+03 -0.35479106542E+03 -0.20995646209E+04  0.21737243047E+04  0.79054833130E+02 0.  0.
        254    2    1    2    0    0  0.42985973167E+03  0.35479106542E+03 -0.14536284552E+04  0.17958128782E+04  0.89512687300E+03 0.  0.
         23    2    4    4    0    0  0.72045275140E+02  0.46111095230E+03 -0.26094136583E+03  0.54210628755E+03  0.89302847697E+02 0.  0.
         23    2    4    4    0    0  0.35781445653E+03 -0.10631988688E+03 -0.11926870894E+04  0.12537065907E+04  0.99712680464E+02 0.  0.
          4    1    3    3  502    0 -0.75643117188E+02 -0.69940901011E+02 -0.51760009010E+03  0.52775322272E+03  0.00000000000E+00 0. -1.
         -1    1    3    3    0  502 -0.35421661448E+03 -0.28485016441E+03 -0.15819645308E+04  0.16459710820E+04  0.00000000000E+00 0.  1.
         11    1    5    5    0    0  0.60470113854E+01  0.23736593323E+03 -0.16862665992E+03  0.29122860958E+03  0.00000000000E+00 0.  1.
        -11    1    5    5    0    0  0.65998263755E+02  0.22374501907E+03 -0.92314705905E+02  0.25087767797E+03  0.00000000000E+00 0. -1.
          4    1    6    6  503    0  0.14955079502E+03 -0.89150140787E+02 -0.46172128221E+03  0.49345691842E+03  0.00000000000E+00 0.  1.
         -4    1    6    6    0  503  0.20826366151E+03 -0.17169746089E+02 -0.73096580718E+03  0.76024967225E+03  0.00000000000E+00 0. -1.
<mgrwt>
<rscale>  0 0.17697583E+04</rscale>
<asrwt>0</asrwt>
<pdfrwt beam="1">  1        2 0.57867152E+00 0.17697583E+04</pdfrwt>
<pdfrwt beam="2">  1       -1 0.32026472E-01 0.17697583E+04</pdfrwt>
<totfact> 0.52074832E+00</totfact>
</mgrwt>
</event>
<event>
12    6  0.1494052E-007  0.2387563E+04  0.7818608E-02  0.8444175E-01
         -1   -1    0    0    0  501 -0.00000000000E+00  0.00000000000E+00  0.47992469001E+03  0.47992469001E+03  0.00000000000E+00 0.  1.
          2   -1    0    0  501    0  0.00000000000E+00 -0.00000000000E+00 -0.29694531068E+04  0.29694531068E+04  0.00000000000E+00 0. -1.
         24    2    1    2    0    0 -0.30518225722E+03  0.75661388009E+03 -0.19501302995E+04  0.21154235657E+04  0.80049381051E+02 0.  0.
        254    2    1    2    0    0  0.30518225722E+03 -0.75661388009E+03 -0.53939811730E+03  0.13339542312E+04  0.90712887081E+03 0.  0.
         23    2    4    4    0    0  0.42267879791E+03 -0.24829550708E+03  0.95522576850E+02  0.50704981002E+03  0.87560962283E+02 0.  0.
         23    2    4    4    0    0 -0.11749654070E+03 -0.50831837301E+03 -0.63492069415E+03  0.82690442115E+03  0.91943615569E+02 0.  0.
          2    1    3    3  502    0 -0.56893420284E+02  0.14185298895E+03 -0.29030073877E+03  0.32807567828E+03  0.00000000000E+00 0. -1.
         -1    1    3    3    0  502 -0.24828883693E+03  0.61476089114E+03 -0.16598295607E+04  0.17873478874E+04  0.00000000000E+00 0.  1.
         11    1    5    5    0    0  0.29915061102E+03 -0.21954204697E+03  0.67359325144E+02  0.37713005335E+03  0.00000000000E+00 0. -1.
        -11    1    5    5    0    0  0.12352818690E+03 -0.28753460108E+02  0.28163251706E+02  0.12991975667E+03  0.00000000000E+00 0.  1.
          3    1    6    6  503    0 -0.12372712024E+03 -0.45041808113E+03 -0.59433368307E+03  0.75592154019E+03  0.00000000000E+00 0. -1.
         -3    1    6    6    0  503  0.62305795392E+01 -0.57900291883E+02 -0.40587011083E+02  0.70982880966E+02  0.00000000000E+00 0.  1.
<mgrwt>
<rscale>  0 0.23875627E+04</rscale>
<asrwt>0</asrwt>
<pdfrwt beam="1">  1        2 0.45683894E+00 0.23875627E+04</pdfrwt>
<pdfrwt beam="2">  1       -1 0.73834568E-01 0.23875627E+04</pdfrwt>
<totfact> 0.34431981E+00</totfact>
</mgrwt>
</event>
<event>
12    6  0.1494052E-007  0.2292975E+04  0.7818608E-02  0.8480696E-01
         -1   -1    0    0    0  501 -0.00000000000E+00  0.00000000000E+00  0.23540868583E+04  0.23540868583E+04  0.00000000000E+00 0.  1.
          2   -1    0    0  501    0  0.00000000000E+00 -0.00000000000E+00 -0.55836245198E+03  0.55836245198E+03  0.00000000000E+00 0. -1.
         24    2    1    2    0    0 -0.71244062757E+03  0.62072679228E+03  0.11245958577E+04  0.14710076380E+04  0.79210034250E+02 0.  0.
        254    2    1    2    0    0  0.71244062757E+03 -0.62072679228E+03  0.67112854868E+03  0.14414416723E+04  0.85701059929E+03 0.  0.
         23    2    4    4    0    0  0.40106129135E+03 -0.95976052826E+02 -0.11872205334E+03  0.43914193751E+03  0.93215627400E+02 0.  0.
         23    2    4    4    0    0  0.31137933622E+03 -0.52475073946E+03  0.78985060202E+03  0.10022997348E+04  0.91762493705E+02 0.  0.
          2    1    3    3  502    0 -0.49600472304E+03  0.42682182944E+03  0.72087597315E+03  0.97358087904E+03  0.00000000000E+00 0. -1.
         -1    1    3    3    0  502 -0.21643590453E+03  0.19390496284E+03  0.40371988451E+03  0.49742675896E+03  0.00000000000E+00 0.  1.
         11    1    5    5    0    0  0.24709438021E+03 -0.71130867729E+02 -0.11864883161E+03  0.28318329456E+03  0.00000000000E+00 0. -1.
        -11    1    5    5    0    0  0.15396691114E+03 -0.24845185097E+02 -0.73221733826E-01  0.15595864295E+03  0.00000000000E+00 0.  1.
          3    1    6    6  503    0  0.27502028868E+03 -0.42312221464E+03  0.69305590772E+03  0.85731852828E+03  0.00000000000E+00 0. -1.
         -3    1    6    6    0  503  0.36359047536E+02 -0.10162852482E+03  0.96794694304E+02  0.14498120651E+03  0.00000000000E+00 0.  1.
<mgrwt>
<rscale>  0 0.22929751E+04</rscale>
<asrwt>0</asrwt>
<pdfrwt beam="1">  1        2 0.85901917E-01 0.22929751E+04</pdfrwt>
<pdfrwt beam="2">  1       -1 0.36216720E+00 0.22929751E+04</pdfrwt>
<totfact> 0.72249800E-01</totfact>
</mgrwt>
</event>
<event>
12    6  0.1494052E-007  0.1500101E+04  0.7818608E-02  0.8884386E-01
          2   -1    0    0  501    0  0.00000000000E+00  0.00000000000E+00  0.48948252188E+04  0.48948252188E+04  0.00000000000E+00 0. -1.
         -1   -1    0    0    0  501 -0.00000000000E+00 -0.00000000000E+00 -0.11493278260E+03  0.11493278260E+03  0.00000000000E+00 0.  1.
         24    2    1    2    0    0 -0.25863798482E+03  0.31094455662E+03  0.23602613269E+04  0.23960186672E+04  0.80571692769E+02 0.  0.
        254    2    1    2    0    0  0.25863798482E+03 -0.31094455662E+03  0.24196311093E+04  0.26137393343E+04  0.90190824244E+03 0.  0.
         23    2    4    4    0    0  0.68835603332E+02 -0.48196342386E+03  0.22282344995E+04  0.22823461373E+04  0.83951318275E+02 0.  0.
         23    2    4    4    0    0  0.18980238149E+03  0.17101886724E+03  0.19139660990E+03  0.33139319695E+03  0.88974107093E+02 0.  0.
          2    1    3    3  502    0 -0.17282724574E+03  0.23702963968E+03  0.15082009170E+04  0.15364642244E+04  0.00000000000E+00 0. -1.
         -3    1    3    3    0  502 -0.85810739082E+02  0.73914916940E+02  0.85206040991E+03  0.85955444273E+03  0.00000000000E+00 0.  1.
         11    1    5    5    0    0  0.47055468310E+02 -0.35300333937E+03  0.14430735514E+04  0.14863669969E+04  0.00000000000E+00 0. -1.
        -11    1    5    5    0    0  0.21780135022E+02 -0.12896008449E+03  0.78516094808E+03  0.79597914047E+03  0.00000000000E+00 0.  1.
          2    1    6    6  503    0  0.18625871020E+03  0.17627870487E+03  0.19664162944E+03  0.32316314664E+03  0.00000000000E+00 0. -1.
         -2    1    6    6    0  503  0.35436712902E+01 -0.52598376328E+01 -0.52450195414E+01  0.82300503112E+01  0.00000000000E+00 0.  1.
<mgrwt>
<rscale>  0 0.15001012E+04</rscale>
<asrwt>0</asrwt>
<pdfrwt beam="1">  1        2 0.75304987E+00 0.15001012E+04</pdfrwt>
<pdfrwt beam="2">  1       -1 0.17681970E-01 0.15001012E+04</pdfrwt>
<totfact> 0.13393964E+00</totfact>
</mgrwt>
</event>
<event>
12    6  0.1494052E-007  0.1748323E+04  0.7818608E-02  0.8734274E-01
         -1   -1    0    0    0  501 -0.00000000000E+00  0.00000000000E+00  0.46594567048E+03  0.46594567048E+03  0.00000000000E+00 0.  1.
          2   -1    0    0  501    0  0.00000000000E+00 -0.00000000000E+00 -0.16400168449E+04  0.16400168449E+04  0.00000000000E+00 0. -1.
         24    2    1    2    0    0  0.13943531628E+03 -0.33193098783E+03 -0.10683474598E+04  0.11301383320E+04  0.78904794105E+02 0.  0.
        254    2    1    2    0    0 -0.13943531628E+03  0.33193098783E+03 -0.10572371463E+03  0.97582418336E+03  0.90079683885E+03 0.  0.
         23    2    4    4    0    0 -0.29871840131E+03  0.43859702604E+03 -0.35748163465E+03  0.64634262146E+03  0.91463821690E+02 0.  0.
         23    2    4    4    0    0  0.15928308503E+03 -0.10666603821E+03  0.25175792002E+03  0.32948156189E+03  0.91800351031E+02 0.  0.
          2    1    3    3  502    0  0.13350598406E+03 -0.32748980507E+03 -0.10646623170E+04  0.11218641939E+04  0.00000000000E+00 0. -1.
         -3    1    3    3    0  502  0.59293322160E+01 -0.44411827582E+01 -0.36851427812E+01  0.82741381508E+01  0.00000000000E+00 0.  1.
         11    1    5    5    0    0 -0.98043328654E+02  0.13377659067E+03 -0.63064517368E+02  0.17744239588E+03  0.00000000000E+00 0.  1.
        -11    1    5    5    0    0 -0.20067507265E+03  0.30482043537E+03 -0.29441711728E+03  0.46890022558E+03  0.00000000000E+00 0. -1.
          1    1    6    6  503    0  0.14950516507E+03 -0.10818990591E+03  0.25842178916E+03  0.31755105296E+03  0.00000000000E+00 0. -1.
         -1    1    6    6    0  503  0.97779199547E+01  0.15238676990E+01 -0.66638691395E+01  0.11930508929E+02  0.00000000000E+00 0.  1.
<mgrwt>
<rscale>  0 0.17483235E+04</rscale>
<asrwt>0</asrwt>
<pdfrwt beam="1">  1        2 0.25231028E+00 0.17483235E+04</pdfrwt>
<pdfrwt beam="2">  1       -1 0.71683950E-01 0.17483235E+04</pdfrwt>
<totfact> 0.22469457E+01</totfact>
</mgrwt>
</event>
<event>
12    6  0.1494052E-007  0.1578090E+04  0.7818608E-02  0.8834123E-01
          2   -1    0    0  501    0  0.00000000000E+00  0.00000000000E+00  0.19948499410E+04  0.19948499410E+04  0.00000000000E+00 0. -1.
         -1   -1    0    0    0  501 -0.00000000000E+00 -0.00000000000E+00 -0.31209950214E+03  0.31209950214E+03  0.00000000000E+00 0.  1.
         24    2    1    2    0    0  0.43362530359E+03 -0.27416049808E+02  0.10308719231E+03  0.45511200638E+03  0.87848878373E+02 0.  0.
        254    2    1    2    0    0 -0.43362530359E+03  0.27416049808E+02  0.15796632465E+04  0.18518374368E+04  0.86324004541E+03 0.  0.
         23    2    4    4    0    0 -0.51332973669E+03  0.12561868024E+03  0.16056379249E+04  0.16924290749E+04  0.83399977418E+02 0.  0.
         23    2    4    4    0    0  0.79704433095E+02 -0.98202630433E+02 -0.25974678328E+02  0.15940836190E+03  0.93486836783E+02 0.  0.
          2    1    3    3  502    0 -0.64114156939E+00  0.35731334230E+01 -0.53265513001E+01  0.64459672450E+01  0.00000000000E+00 0. -1.
         -1    1    3    3    0  502  0.43426644516E+03 -0.30989183231E+02  0.10841374361E+03  0.44866603913E+03  0.00000000000E+00 0.  1.
         11    1    5    5    0    0 -0.16544061317E+03  0.65236926884E+02  0.64050492216E+03  0.66473529200E+03  0.00000000000E+00 0. -1.
        -11    1    5    5    0    0 -0.34788912352E+03  0.60381753357E+02  0.96513300271E+03  0.10276937829E+04  0.00000000000E+00 0.  1.
          3    1    6    6  503    0  0.95532320520E+02 -0.62708819555E+02 -0.34992664073E+02  0.11951278950E+03  0.00000000000E+00 0. -1.
         -3    1    6    6    0  503 -0.15827887425E+02 -0.35493810878E+02  0.90179857445E+01  0.39895572409E+02  0.00000000000E+00 0.  1.
<mgrwt>
<rscale>  0 0.15780896E+04</rscale>
<asrwt>0</asrwt>
<pdfrwt beam="1">  1        2 0.30689998E+00 0.15780896E+04</pdfrwt>
<pdfrwt beam="2">  1       -1 0.48015309E-01 0.15780896E+04</pdfrwt>
<totfact> 0.31905215E+01</totfact>
</mgrwt>
</event>
<event>
12    6  0.1494052E-007  0.2676230E+04  0.7818608E-02  0.8342759E-01
         -1   -1    0    0    0  501 -0.00000000000E+00  0.00000000000E+00  0.46438596763E+03  0.46438596763E+03  0.00000000000E+00 0.  1.
          2   -1    0    0  501    0  0.00000000000E+00 -0.00000000000E+00 -0.38557408457E+04  0.38557408457E+04  0.00000000000E+00 0. -1.
         24    2    1    2    0    0 -0.30765462302E+03  0.11912889265E+03  0.33628492223E+03  0.47803387336E+03  0.81152788217E+02 0.  0.
        254    2    1    2    0    0  0.30765462302E+03 -0.11912889265E+03 -0.37276398003E+04  0.38420929399E+04  0.87036579576E+03 0.  0.
         23    2    4    4    0    0  0.42111056981E+03 -0.36681910205E+03 -0.16388493772E+04  0.17336269403E+04  0.88004097260E+02 0.  0.
         23    2    4    4    0    0 -0.11345594679E+03  0.24769020940E+03 -0.20887904230E+04  0.21084659996E+04  0.91437129794E+02 0.  0.
          2    1    3    3  502    0 -0.59420733926E+02 -0.94869432114E+01  0.59464865147E+02  0.84598439103E+02  0.00000000000E+00 0. -1.
         -1    1    3    3    0  502 -0.24823388909E+03  0.12861583586E+03  0.27682005708E+03  0.39343543426E+03  0.00000000000E+00 0.  1.
         11    1    5    5    0    0  0.73346906677E+02 -0.44039222073E+02 -0.34727625529E+03  0.35765908249E+03  0.00000000000E+00 0.  1.
        -11    1    5    5    0    0  0.34776366313E+03 -0.32277987997E+03 -0.12915731220E+04  0.13759678578E+04  0.00000000000E+00 0. -1.
          4    1    6    6  503    0 -0.79771225959E+02  0.18204289112E+03 -0.17761925764E+04  0.17872781348E+04  0.00000000000E+00 0. -1.
         -4    1    6    6    0  503 -0.33684720827E+02  0.65647318278E+02 -0.31259784663E+03  0.32118786486E+03  0.00000000000E+00 0.  1.
<mgrwt>
<rscale>  0 0.26762301E+04</rscale>
<asrwt>0</asrwt>
<pdfrwt beam="1">  1        2 0.59319092E+00 0.26762301E+04</pdfrwt>
<pdfrwt beam="2">  1       -1 0.71443993E-01 0.26762301E+04</pdfrwt>
<totfact> 0.88079957E-01</totfact>
</mgrwt>
</event>
<event>
12    6  0.1494052E-007  0.1698071E+04  0.7818608E-02  0.8762465E-01
          2   -1    0    0  501    0  0.00000000000E+00  0.00000000000E+00  0.30254814523E+04  0.30254814523E+04  0.00000000000E+00 0. -1.
         -1   -1    0    0    0  501 -0.00000000000E+00 -0.00000000000E+00 -0.23826334377E+03  0.23826334377E+03  0.00000000000E+00 0.  1.
         24    2    1    2    0    0  0.25637557873E+03  0.28991638028E+03  0.17661067167E+04  0.18099009488E+04  0.82635130101E+02 0.  0.
        254    2    1    2    0    0 -0.25637557873E+03 -0.28991638028E+03  0.10211113918E+04  0.14538438472E+04  0.95979868348E+03 0.  0.
         23    2    4    4    0    0 -0.20162199726E+03  0.20431188533E+02  0.10970352386E+04  0.11189900417E+04  0.87083496523E+02 0.  0.
         23    2    4    4    0    0 -0.54753581469E+02 -0.31034756881E+03 -0.75923846856E+02  0.33485380554E+03  0.83958754250E+02 0.  0.
          2    1    3    3  502    0  0.24231402016E+03  0.28727079004E+03  0.16165318453E+04  0.16596432743E+04  0.00000000000E+00 0. -1.
         -1    1    3    3    0  502  0.14061558568E+02  0.26455902328E+01  0.14957487143E+03  0.15025767448E+03  0.00000000000E+00 0.  1.
         11    1    5    5    0    0 -0.11410146837E+03  0.27615737118E+02  0.41366201707E+03  0.42999771905E+03  0.00000000000E+00 0.  1.
        -11    1    5    5    0    0 -0.87520528886E+02 -0.71845485847E+01  0.68337322157E+03  0.68899232265E+03  0.00000000000E+00 0. -1.
          2    1    6    6  503    0 -0.15198591513E+02 -0.16309502523E+03 -0.80070829824E+02  0.18232477130E+03  0.00000000000E+00 0. -1.
         -2    1    6    6    0  503 -0.39554989957E+02 -0.14725254357E+03  0.41469829681E+01  0.15252903424E+03  0.00000000000E+00 0.  1.
<mgrwt>
<rscale>  0 0.16980711E+04</rscale>
<asrwt>0</asrwt>
<pdfrwt beam="1">  1        2 0.46545866E+00 0.16980711E+04</pdfrwt>
<pdfrwt beam="2">  1       -1 0.36655901E-01 0.16980711E+04</pdfrwt>
<totfact> 0.13048785E+01</totfact>
</mgrwt>
</event>
<event>
12    6  0.1494052E-007  0.1905058E+04  0.7818608E-02  0.8652343E-01
          2   -1    0    0  501    0  0.00000000000E+00  0.00000000000E+00  0.23819574915E+04  0.23819574915E+04  0.00000000000E+00 0. -1.
         -1   -1    0    0    0  501 -0.00000000000E+00 -0.00000000000E+00 -0.38090988694E+03  0.38090988694E+03  0.00000000000E+00 0.  1.
         24    2    1    2    0    0 -0.30892159135E+03  0.67212009725E+03  0.75269289738E+03  0.10586295001E+04  0.83497580472E+02 0.  0.
        254    2    1    2    0    0  0.30892159135E+03 -0.67212009725E+03  0.12483547071E+04  0.17042378783E+04  0.89378929080E+03 0.  0.
         23    2    4    4    0    0  0.35570469010E+03 -0.57644970401E+03  0.13611910974E+04  0.15230340818E+04  0.89283385380E+02 0.  0.
         23    2    4    4    0    0 -0.46783098757E+02 -0.95670393242E+02 -0.11283639025E+03  0.18120379652E+03  0.93601722404E+02 0.  0.
          4    1    3    3  502    0 -0.21166175361E+03  0.38851366207E+03  0.48781049571E+03  0.65856103991E+03  0.00000000000E+00 0. -1.
         -3    1    3    3    0  502 -0.97259837740E+02  0.28360643518E+03  0.26488240167E+03  0.40006846018E+03  0.00000000000E+00 0.  1.
         11    1    5    5    0    0  0.30391815627E+03 -0.46584429635E+03  0.11800606456E+04  0.13045766675E+04  0.00000000000E+00 0. -1.
        -11    1    5    5    0    0  0.51786533836E+02 -0.11060540766E+03  0.18113045185E+03  0.21845741433E+03  0.00000000000E+00 0.  1.
          4    1    6    6  503    0 -0.13912919191E+02 -0.40593220336E+02 -0.10877740095E+03  0.11693546004E+03  0.00000000000E+00 0. -1.
         -4    1    6    6    0  503 -0.32870179565E+02 -0.55077172905E+02 -0.40589893009E+01  0.64268336481E+02  0.00000000000E+00 0.  1.
<mgrwt>
<rscale>  0 0.19050576E+04</rscale>
<asrwt>0</asrwt>
<pdfrwt beam="1">  1        2 0.36645499E+00 0.19050576E+04</pdfrwt>
<pdfrwt beam="2">  1       -1 0.58601522E-01 0.19050576E+04</pdfrwt>
<totfact> 0.12811654E+01</totfact>
</mgrwt>
</event>
<event>
12    6  0.1494052E-007  0.1187185E+04  0.7818608E-02  0.9124148E-01
          2   -1    0    0  501    0  0.00000000000E+00  0.00000000000E+00  0.12753008646E+04  0.12753008646E+04  0.00000000000E+00 0. -1.
         -3   -1    0    0    0  501 -0.00000000000E+00 -0.00000000000E+00 -0.27628945884E+03  0.27628945884E+03  0.00000000000E+00 0.  1.
         24    2    1    2    0    0 -0.16067928104E+03 -0.14095061246E+03  0.36718137840E+03  0.43260591719E+03  0.81491155584E+02 0.  0.
        254    2    1    2    0    0  0.16067928104E+03  0.14095061246E+03  0.63183002732E+03  0.11189844062E+04  0.89846091255E+03 0.  0.
         23    2    4    4    0    0  0.52119034572E+03  0.16453237805E+02  0.37592656502E+03  0.65049105814E+03  0.99537675881E+02 0.  0.
         23    2    4    4    0    0 -0.36051106469E+03  0.12449737466E+03  0.25590346230E+03  0.46849334806E+03  0.92366720737E+02 0.  0.
          2    1    3    3  502    0 -0.92043651299E+02 -0.47282647068E+02  0.23431141628E+03  0.25614355791E+03  0.00000000000E+00 0. -1.
         -1    1    3    3    0  502 -0.68635629736E+02 -0.93667965397E+02  0.13286996212E+03  0.17646235928E+03  0.00000000000E+00 0.  1.
         11    1    5    5    0    0  0.99635412624E+02 -0.30758543655E+02  0.99853626824E+02  0.14437468700E+03  0.00000000000E+00 0.  1.
        -11    1    5    5    0    0  0.42155493310E+03  0.47211781460E+02  0.27607293820E+03  0.50611637114E+03  0.00000000000E+00 0. -1.
          4    1    6    6  503    0 -0.21062849871E+03  0.24609735240E+02  0.13004867478E+03  0.24876225870E+03  0.00000000000E+00 0. -1.
         -4    1    6    6    0  503 -0.14988256597E+03  0.99887639420E+02  0.12585478752E+03  0.21973108936E+03  0.00000000000E+00 0.  1.
<mgrwt>
<rscale>  0 0.11871852E+04</rscale>
<asrwt>0</asrwt>
<pdfrwt beam="1">  1        2 0.19620013E+00 0.11871852E+04</pdfrwt>
<pdfrwt beam="2">  1       -3 0.42506071E-01 0.11871852E+04</pdfrwt>
<totfact> 0.59513115E+01</totfact>
</mgrwt>
</event>
<event>
12    6  0.1494052E-007  0.1902548E+04  0.7818608E-02  0.8653589E-01
         -1   -1    0    0    0  501 -0.00000000000E+00  0.00000000000E+00  0.49638332569E+03  0.49638332569E+03  0.00000000000E+00 0.  1.
          2   -1    0    0  501    0  0.00000000000E+00 -0.00000000000E+00 -0.18230309089E+04  0.18230309089E+04  0.00000000000E+00 0. -1.
         24    2    1    2    0    0 -0.66734564448E+03  0.46692342038E+02 -0.44281288428E+03  0.80607634383E+03  0.78392841434E+02 0.  0.
        254    2    1    2    0    0  0.66734564448E+03 -0.46692342038E+02 -0.88383469897E+03  0.15133378908E+04  0.10302899653E+04 0.  0.
         23    2    4    4    0    0 -0.10765645453E+03 -0.34051662132E+03 -0.13507374668E+03  0.39268797346E+03  0.91746639495E+02 0.  0.
         23    2    4    4    0    0  0.77500209901E+03  0.29382427929E+03 -0.74876095230E+03  0.11206499173E+04  0.90842242338E+02 0.  0.
          4    1    3    3  502    0 -0.61414453722E+03  0.62470509885E+02 -0.39539466546E+03  0.73308459176E+03  0.00000000000E+00 0. -1.
         -3    1    3    3    0  502 -0.53201107261E+02 -0.15778167847E+02 -0.47418218817E+02  0.72991752069E+02  0.00000000000E+00 0.  1.
         11    1    5    5    0    0 -0.11460606746E+03 -0.32457626518E+03 -0.10846369039E+03  0.36089981262E+03  0.00000000000E+00 0.  1.
        -11    1    5    5    0    0  0.69496129297E+01 -0.15940356147E+02 -0.26610056291E+02  0.31788160843E+02  0.00000000000E+00 0. -1.
          3    1    6    6  503    0  0.18525160850E+03  0.32907274705E+02 -0.14957222251E+03  0.24035993204E+03  0.00000000000E+00 0. -1.
         -3    1    6    6    0  503  0.58975049050E+03  0.26091700458E+03 -0.59918872979E+03  0.88028998531E+03  0.00000000000E+00 0.  1.
<mgrwt>
<rscale>  0 0.19025479E+04</rscale>
<asrwt>0</asrwt>
<pdfrwt beam="1">  1        2 0.28046629E+00 0.19025479E+04</pdfrwt>
<pdfrwt beam="2">  1       -1 0.76366666E-01 0.19025479E+04</pdfrwt>
<totfact> 0.15379077E+01</totfact>
</mgrwt>
</event>
<event>
12    6  0.1494052E-007  0.2360770E+04  0.7818608E-02  0.8454339E-01
          2   -1    0    0  501    0  0.00000000000E+00  0.00000000000E+00  0.31887535627E+04  0.31887535627E+04  0.00000000000E+00 0. -1.
         -1   -1    0    0    0  501 -0.00000000000E+00 -0.00000000000E+00 -0.43694447253E+03  0.43694447253E+03  0.00000000000E+00 0.  1.
         24    2    1    2    0    0  0.23719583842E+02  0.81798965804E+03  0.20783128335E+04  0.22349277030E+04  0.76471592735E+02 0.  0.
        254    2    1    2    0    0 -0.23719583842E+02 -0.81798965804E+03  0.67349625668E+03  0.13907703322E+04  0.90054162030E+03 0.  0.
         23    2    4    4    0    0 -0.17471430710E+03  0.46696393494E+02 -0.91934610754E+02  0.22254409028E+03  0.91478178772E+02 0.  0.
         23    2    4    4    0    0  0.15099472326E+03 -0.86468605153E+03  0.76543086743E+03  0.11682262419E+04  0.91579284598E+02 0.  0.
          2    1    3    3  502    0 -0.16272591763E+02  0.60239326858E+03  0.15290608669E+04  0.16435235264E+04  0.00000000000E+00 0. -1.
         -1    1    3    3    0  502  0.39992175605E+02  0.21559638946E+03  0.54925196663E+03  0.59140417660E+03  0.00000000000E+00 0.  1.
         11    1    5    5    0    0 -0.44511987590E+02 -0.26014403023E+02 -0.37657098474E+02  0.63844524192E+02  0.00000000000E+00 0. -1.
        -11    1    5    5    0    0 -0.13020231951E+03  0.72710796517E+02 -0.54277512281E+02  0.15869956608E+03  0.00000000000E+00 0.  1.
          2    1    6    6  503    0  0.44702755342E+02 -0.16188724579E+03  0.19100157456E+03  0.25433721350E+03  0.00000000000E+00 0. -1.
         -2    1    6    6    0  503  0.10629196792E+03 -0.70279880574E+03  0.57442929287E+03  0.91388902844E+03  0.00000000000E+00 0.  1.
<mgrwt>
<rscale>  0 0.23607696E+04</rscale>
<asrwt>0</asrwt>
<pdfrwt beam="1">  1        2 0.49057745E+00 0.23607696E+04</pdfrwt>
<pdfrwt beam="2">  1       -1 0.67222229E-01 0.23607696E+04</pdfrwt>
<totfact> 0.30369997E+00</totfact>
</mgrwt>
</event>
<event>
12    6  0.1494052E-007  0.1111625E+04  0.7818608E-02  0.9193935E-01
          2   -1    0    0  501    0  0.00000000000E+00  0.00000000000E+00  0.11995198073E+04  0.11995198073E+04  0.00000000000E+00 0. -1.
         -1   -1    0    0    0  501 -0.00000000000E+00 -0.00000000000E+00 -0.25754244024E+03  0.25754244024E+03  0.00000000000E+00 0.  1.
         24    2    1    2    0    0  0.52351319237E+02  0.74911339889E+02  0.34896144367E+03  0.36945690368E+03  0.79824463892E+02 0.  0.
        254    2    1    2    0    0 -0.52351319237E+02 -0.74911339889E+02  0.59301592341E+03  0.10876053439E+04  0.90711913725E+03 0.  0.
         23    2    4    4    0    0  0.40573639677E+03 -0.11234950812E+03  0.37884292673E+03  0.57374862344E+03  0.91766465096E+02 0.  0.
         23    2    4    4    0    0 -0.45808771601E+03  0.37438168235E+02  0.21417299668E+03  0.51385672045E+03  0.83262744667E+02 0.  0.
          4    1    3    3  502    0  0.24734813209E+02  0.41671110822E+02  0.30108944239E+03  0.30496416966E+03  0.00000000000E+00 0. -1.
         -3    1    3    3    0  502  0.27616506029E+02  0.33240229067E+02  0.47872001287E+02  0.64492734016E+02  0.00000000000E+00 0.  1.
         11    1    5    5    0    0  0.21967381122E+03 -0.86529492309E+02  0.26125835761E+03  0.35213614668E+03  0.00000000000E+00 0. -1.
        -11    1    5    5    0    0  0.18606258555E+03 -0.25820015816E+02  0.11758456912E+03  0.22161247676E+03  0.00000000000E+00 0.  1.
          3    1    6    6  503    0 -0.26322077869E+03  0.56108409935E+02  0.14843974482E+03  0.30735596601E+03  0.00000000000E+00 0. -1.
         -3    1    6    6    0  503 -0.19486693732E+03 -0.18670241700E+02  0.65733251852E+02  0.20650075444E+03  0.00000000000E+00 0.  1.
<mgrwt>
<rscale>  0 0.11116245E+04</rscale>
<asrwt>0</asrwt>
<pdfrwt beam="1">  1        2 0.18454150E+00 0.11116245E+04</pdfrwt>
<pdfrwt beam="2">  1       -1 0.39621915E-01 0.11116245E+04</pdfrwt>
<totfact> 0.13274897E+02</totfact>
</mgrwt>
</event>
<event>
12    6  0.1494052E-007  0.1577617E+04  0.7818608E-02  0.8834418E-01
         -1   -1    0    0    0  501 -0.00000000000E+00  0.00000000000E+00  0.21373294479E+03  0.21373294479E+03  0.00000000000E+00 0.  1.
          2   -1    0    0  501    0  0.00000000000E+00 -0.00000000000E+00 -0.29111961024E+04  0.29111961024E+04  0.00000000000E+00 0. -1.
         24    2    1    2    0    0 -0.29415194634E+03  0.18813840275E+03 -0.13032575150E+03  0.38115048646E+03  0.79808932432E+02 0.  0.
        254    2    1    2    0    0  0.29415194634E+03 -0.18813840275E+03 -0.25671374062E+04  0.27437785608E+04  0.90344059149E+03 0.  0.
         23    2    4    4    0    0  0.43806482945E+03  0.11816502303E+03 -0.21457501572E+04  0.21953418365E+04  0.97047795272E+02 0.  0.
         23    2    4    4    0    0 -0.14391288311E+03 -0.30630342578E+03 -0.42138724899E+03  0.54843672429E+03  0.93182189139E+02 0.  0.
          4    1    3    3  502    0 -0.11346180973E+03  0.10793414147E+03 -0.85583503613E+02  0.17845979170E+03  0.00000000000E+00 0. -1.
         -3    1    3    3    0  502 -0.18069013661E+03  0.80204261284E+02 -0.44742247883E+02  0.20269069476E+03  0.00000000000E+00 0.  1.
         11    1    5    5    0    0  0.32821392181E+03  0.11055354700E+03 -0.14406058962E+04  0.14816517180E+04  0.00000000000E+00 0. -1.
        -11    1    5    5    0    0  0.10985090763E+03  0.76114760277E+01 -0.70514426096E+03  0.71369011850E+03  0.00000000000E+00 0.  1.
          2    1    6    6  503    0 -0.77772683892E+02 -0.12088394509E+03 -0.24529967872E+03  0.28431224194E+03  0.00000000000E+00 0. -1.
         -2    1    6    6    0  503 -0.66140199214E+02 -0.18541948069E+03 -0.17608757027E+03  0.26412448235E+03  0.00000000000E+00 0.  1.
<mgrwt>
<rscale>  0 0.15776166E+04</rscale>
<asrwt>0</asrwt>
<pdfrwt beam="1">  1        2 0.44787632E+00 0.15776166E+04</pdfrwt>
<pdfrwt beam="2">  1       -1 0.32881992E-01 0.15776166E+04</pdfrwt>
<totfact> 0.18866076E+01</totfact>
</mgrwt>
</event>
<event>
12    6  0.1494052E-007  0.2330504E+04  0.7818608E-02  0.8465990E-01
          2   -1    0    0  501    0  0.00000000000E+00  0.00000000000E+00  0.16178110933E+04  0.16178110933E+04  0.00000000000E+00 0. -1.
         -1   -1    0    0    0  501 -0.00000000000E+00 -0.00000000000E+00 -0.83929006583E+03  0.83929006583E+03  0.00000000000E+00 0.  1.
         24    2    1    2    0    0 -0.29844850088E+03 -0.83372904003E+03 -0.13454669852E+03  0.89939396015E+03  0.81431330648E+02 0.  0.
        254    2    1    2    0    0  0.29844850088E+03  0.83372904003E+03  0.91306772599E+03  0.15577071990E+04  0.89921266988E+03 0.  0.
         23    2    4    4    0    0 -0.15924522824E+03  0.76515722141E+03  0.51318391537E+03  0.93931435035E+03  0.90161530552E+02 0.  0.
         23    2    4    4    0    0  0.45769372912E+03  0.68571818621E+02  0.39988381063E+03  0.61839284864E+03  0.91197638471E+02 0.  0.
          4    1    3    3  502    0 -0.28631702367E+03 -0.74985567660E+03 -0.10427584334E+03  0.80940374677E+03  0.00000000000E+00 0. -1.
         -3    1    3    3    0  502 -0.12131477212E+02 -0.83873363423E+02 -0.30270855184E+02  0.89990213384E+02  0.00000000000E+00 0.  1.
         11    1    5    5    0    0 -0.21678863345E+02  0.31125635738E+03  0.21899628267E+03  0.38119531076E+03  0.00000000000E+00 0. -1.
        -11    1    5    5    0    0 -0.13756636490E+03  0.45390086403E+03  0.29418763270E+03  0.55811903959E+03  0.00000000000E+00 0.  1.
          3    1    6    6  503    0  0.35593657130E+03  0.32995176203E+02  0.34753133153E+03  0.49855546415E+03  0.00000000000E+00 0. -1.
         -3    1    6    6    0  503  0.10175715782E+03  0.35576642418E+02  0.52352479098E+02  0.11983738449E+03  0.00000000000E+00 0.  1.
<mgrwt>
<rscale>  0 0.23305045E+04</rscale>
<asrwt>0</asrwt>
<pdfrwt beam="1">  1        2 0.24889401E+00 0.23305045E+04</pdfrwt>
<pdfrwt beam="2">  1       -1 0.12912155E+00 0.23305045E+04</pdfrwt>
<totfact> 0.57911306E+00</totfact>
</mgrwt>
</event>
<event>
12    6  0.1494052E-007  0.1119425E+04  0.7818608E-02  0.9186463E-01
          2   -1    0    0  501    0  0.00000000000E+00  0.00000000000E+00  0.14702363220E+04  0.14702363220E+04  0.00000000000E+00 0. -1.
         -1   -1    0    0    0  501 -0.00000000000E+00 -0.00000000000E+00 -0.21307992873E+03  0.21307992873E+03  0.00000000000E+00 0.  1.
         24    2    1    2    0    0  0.10243890724E+03 -0.13209818706E+02  0.45495517547E+03  0.47333175701E+03  0.79940674731E+02 0.  0.
        254    2    1    2    0    0 -0.10243890724E+03  0.13209818706E+02  0.80220121776E+03  0.12099844937E+04  0.89992635931E+03 0.  0.
         23    2    4    4    0    0  0.23991408614E+03 -0.32589433857E+03  0.33482216505E+03  0.53292518942E+03  0.90208018858E+02 0.  0.
         23    2    4    4    0    0 -0.34235299338E+03  0.33910415728E+03  0.46737905272E+03  0.67705930428E+03  0.88141483033E+02 0.  0.
          4    1    3    3  502    0  0.53981858602E+02 -0.86914102146E+01  0.38032618655E+03  0.38423637236E+03  0.00000000000E+00 0. -1.
         -3    1    3    3    0  502  0.48457048637E+02 -0.45184084914E+01  0.74628988927E+02  0.89095384652E+02  0.00000000000E+00 0.  1.
         11    1    5    5    0    0  0.45140315869E+01 -0.43749300722E+02  0.17194140030E+02  0.47223047828E+02  0.00000000000E+00 0.  1.
        -11    1    5    5    0    0  0.23540005456E+03 -0.28214503785E+03  0.31762802502E+03  0.48570214159E+03  0.00000000000E+00 0. -1.
          2    1    6    6  503    0 -0.13799503408E+03  0.16003029397E+03  0.14934625386E+03  0.25875978814E+03  0.00000000000E+00 0.  1.
         -2    1    6    6    0  503 -0.20435795931E+03  0.17907386331E+03  0.31803279885E+03  0.41829951614E+03  0.00000000000E+00 0. -1.
<mgrwt>
<rscale>  0 0.11194246E+04</rscale>
<asrwt>0</asrwt>
<pdfrwt beam="1">  1        2 0.22619020E+00 0.11194246E+04</pdfrwt>
<pdfrwt beam="2">  1       -1 0.32781528E-01 0.11194246E+04</pdfrwt>
<totfact> 0.12998051E+02</totfact>
</mgrwt>
</event>
<event>
12    6  0.1494052E-007  0.1842530E+04  0.7818608E-02  0.8684004E-01
          2   -1    0    0  501    0  0.00000000000E+00  0.00000000000E+00  0.15672472986E+04  0.15672472986E+04  0.00000000000E+00 0. -1.
         -1   -1    0    0    0  501 -0.00000000000E+00 -0.00000000000E+00 -0.54154130379E+03  0.54154130379E+03  0.00000000000E+00 0.  1.
         24    2    1    2    0    0 -0.12039325662E+03  0.47683443976E+03  0.91282596367E+03  0.10405001918E+04  0.86739782756E+02 0.  0.
        254    2    1    2    0    0  0.12039325662E+03 -0.47683443976E+03  0.11288003116E+03  0.10682884107E+04  0.94161170752E+03 0.  0.
         23    2    4    4    0    0 -0.23438955948E+03 -0.38449433785E+03 -0.26757171680E+03  0.53194302962E+03  0.92705996048E+02 0.  0.
         23    2    4    4    0    0  0.35478281610E+03 -0.92340101906E+02  0.38045174796E+03  0.53634538104E+03  0.92332519866E+02 0.  0.
          4    1    3    3  502    0 -0.12511104703E+03  0.41654580586E+03  0.83932168071E+03  0.94531691309E+03  0.00000000000E+00 0. -1.
         -3    1    3    3    0  502  0.47177904049E+01  0.60288633900E+02  0.73504282963E+02  0.95183278667E+02  0.00000000000E+00 0.  1.
         11    1    5    5    0    0 -0.80780052137E+02 -0.59964803392E+02 -0.63105832526E+02  0.11875832842E+03  0.00000000000E+00 0. -1.
        -11    1    5    5    0    0 -0.15360950734E+03 -0.32452953446E+03 -0.20446588427E+03  0.41318470121E+03  0.00000000000E+00 0.  1.
          2    1    6    6  503    0  0.35124684593E+02 -0.25449863853E+02  0.87337768929E+02  0.97515767542E+02  0.00000000000E+00 0. -1.
         -2    1    6    6    0  503  0.31965813150E+03 -0.66890238053E+02  0.29311397903E+03  0.43882961350E+03  0.00000000000E+00 0.  1.
<mgrwt>
<rscale>  0 0.18425299E+04</rscale>
<asrwt>0</asrwt>
<pdfrwt beam="1">  1        2 0.24111497E+00 0.18425299E+04</pdfrwt>
<pdfrwt beam="2">  1       -1 0.83314048E-01 0.18425299E+04</pdfrwt>
<totfact> 0.17829691E+01</totfact>
</mgrwt>
</event>
<event>
12    6  0.1494052E-007  0.1023724E+04  0.7818608E-02  0.9282901E-01
         -1   -1    0    0    0  501 -0.00000000000E+00  0.00000000000E+00  0.17449637200E+03  0.17449637200E+03  0.00000000000E+00 0.  1.
          2   -1    0    0  501    0  0.00000000000E+00 -0.00000000000E+00 -0.15014785047E+04  0.15014785047E+04  0.00000000000E+00 0. -1.
         24    2    1    2    0    0  0.98266628792E+02  0.13526561549E+02 -0.20790169064E+03  0.24407374500E+03  0.80681979574E+02 0.  0.
        254    2    1    2    0    0 -0.98266628792E+02 -0.13526561549E+02 -0.11190804421E+04  0.14319011317E+04  0.88778404862E+03 0.  0.
         23    2    4    4    0    0  0.33158034223E+03 -0.19253745987E+03 -0.67823064294E+03  0.78440278448E+03  0.90965523530E+02 0.  0.
         23    2    4    4    0    0 -0.42984697103E+03  0.17901089832E+03 -0.44084979912E+03  0.64749834723E+03  0.89956901094E+02 0.  0.
          4    1    3    3  502    0  0.68540421243E+02  0.40132881567E+02 -0.17565240481E+03  0.19277501094E+03  0.00000000000E+00 0. -1.
         -3    1    3    3    0  502  0.29726207550E+02 -0.26606320018E+02 -0.32249285831E+02  0.51298734067E+02  0.00000000000E+00 0.  1.
         11    1    5    5    0    0  0.27031722552E+03 -0.14753162689E+03 -0.60490712713E+03  0.67878539745E+03  0.00000000000E+00 0.  1.
        -11    1    5    5    0    0  0.61263116709E+02 -0.45005832987E+02 -0.73323515815E+02  0.10561738703E+03  0.00000000000E+00 0. -1.
          4    1    6    6  503    0 -0.26827035578E+03  0.11994788824E+03 -0.33448958891E+03  0.44524124334E+03  0.00000000000E+00 0. -1.
         -4    1    6    6    0  503 -0.16157661525E+03  0.59063010085E+02 -0.10636021021E+03  0.20225710389E+03  0.00000000000E+00 0.  1.
<mgrwt>
<rscale>  0 0.10237237E+04</rscale>
<asrwt>0</asrwt>
<pdfrwt beam="1">  1        2 0.23099670E+00 0.10237237E+04</pdfrwt>
<pdfrwt beam="2">  1       -1 0.26845595E-01 0.10237237E+04</pdfrwt>
<totfact> 0.17815858E+02</totfact>
</mgrwt>
</event>
<event>
12    6  0.1494052E-007  0.2338020E+04  0.7818608E-02  0.8463080E-01
          2   -1    0    0  501    0  0.00000000000E+00  0.00000000000E+00  0.61913158300E+03  0.61913158300E+03  0.00000000000E+00 0. -1.
         -1   -1    0    0    0  501 -0.00000000000E+00 -0.00000000000E+00 -0.22072593167E+04  0.22072593167E+04  0.00000000000E+00 0.  1.
         24    2    1    2    0    0  0.52633217862E+03  0.22559777755E+03 -0.16583294943E+04  0.17562224034E+04  0.79627250968E+02 0.  0.
        254    2    1    2    0    0 -0.52633217862E+03 -0.22559777755E+03  0.70201760580E+02  0.10701684963E+04  0.90133922795E+03 0.  0.
         23    2    4    4    0    0 -0.11324814736E+03 -0.51809595585E+03 -0.55700779015E+02  0.54089042660E+03  0.90616303495E+02 0.  0.
         23    2    4    4    0    0 -0.41308403126E+03  0.29249817830E+03  0.12590253960E+03  0.52927806971E+03  0.89945674775E+02 0.  0.
          4    1    3    3  502    0  0.22721621243E+02  0.24967342743E+01 -0.33394262457E+02  0.40468290290E+02  0.00000000000E+00 0. -1.
         -3    1    3    3    0  502  0.50361055737E+03  0.22310104327E+03 -0.16249352318E+04  0.17157541131E+04  0.00000000000E+00 0.  1.
         11    1    5    5    0    0 -0.73833590199E+02 -0.19918562570E+03  0.10960321780E+02  0.21271210868E+03  0.00000000000E+00 0. -1.
        -11    1    5    5    0    0 -0.39414557157E+02 -0.31891033015E+03 -0.66661100795E+02  0.32817831792E+03  0.00000000000E+00 0.  1.
          3    1    6    6  503    0 -0.28316918171E+03  0.23476863004E+03  0.12029421533E+03  0.38700360898E+03  0.00000000000E+00 0. -1.
         -3    1    6    6    0  503 -0.12991484955E+03  0.57729548266E+02  0.56083242641E+01  0.14227446074E+03  0.00000000000E+00 0.  1.
<mgrwt>
<rscale>  0 0.23380196E+04</rscale>
<asrwt>0</asrwt>
<pdfrwt beam="1">  1        2 0.95251013E-01 0.23380196E+04</pdfrwt>
<pdfrwt beam="2">  1       -1 0.33957836E+00 0.23380196E+04</pdfrwt>
<totfact> 0.89713746E-01</totfact>
</mgrwt>
</event>
<event>
12    6  0.1494052E-007  0.1533889E+04  0.7818608E-02  0.8862225E-01
          2   -1    0    0  501    0  0.00000000000E+00  0.00000000000E+00  0.14372930532E+04  0.14372930532E+04  0.00000000000E+00 0. -1.
         -1   -1    0    0    0  501 -0.00000000000E+00 -0.00000000000E+00 -0.40924431424E+03  0.40924431424E+03  0.00000000000E+00 0.  1.
         24    2    1    2    0    0  0.31588443746E+03  0.45411106636E+02  0.80524661556E+03  0.86995558841E+03  0.80965841562E+02 0.  0.
        254    2    1    2    0    0 -0.31588443746E+03 -0.45411106636E+02  0.22280212340E+03  0.97658177902E+03  0.89567071990E+03 0.  0.
         23    2    4    4    0    0 -0.16422180388E+03  0.18418303226E+03 -0.28714605866E+03  0.38979640468E+03  0.92715628987E+02 0.  0.
         23    2    4    4    0    0 -0.15166263358E+03 -0.22959413889E+03  0.50994818206E+03  0.58678537433E+03  0.92492724643E+02 0.  0.
          4    1    3    3  502    0  0.14241762825E+03  0.43802505076E+02  0.28581926052E+03  0.32232606158E+03  0.00000000000E+00 0. -1.
         -3    1    3    3    0  502  0.17346680921E+03  0.16086015592E+01  0.51942735504E+03  0.54762952684E+03  0.00000000000E+00 0.  1.
         11    1    5    5    0    0 -0.82934725288E+02  0.15163664212E+03 -0.16075399799E+03  0.23603747110E+03  0.00000000000E+00 0. -1.
        -11    1    5    5    0    0 -0.81287078596E+02  0.32546390137E+02 -0.12639206067E+03  0.15375893358E+03  0.00000000000E+00 0.  1.
          2    1    6    6  503    0 -0.11684507831E+03 -0.22630919859E+03  0.43494533984E+03  0.50402983478E+03  0.00000000000E+00 0. -1.
         -2    1    6    6    0  503 -0.34817555263E+02 -0.32849403000E+01  0.75002842213E+02  0.82755539557E+02  0.00000000000E+00 0.  1.
<mgrwt>
<rscale>  0 0.15338892E+04</rscale>
<asrwt>0</asrwt>
<pdfrwt beam="1">  1        2 0.22112201E+00 0.15338892E+04</pdfrwt>
<pdfrwt beam="2">  1       -1 0.62960664E-01 0.15338892E+04</pdfrwt>
<totfact> 0.38716866E+01</totfact>
</mgrwt>
</event>
<event>
12    6  0.1494052E-007  0.1851364E+04  0.7818608E-02  0.8679452E-01
          2   -1    0    0  501    0  0.00000000000E+00  0.00000000000E+00  0.23284680166E+04  0.23284680166E+04  0.00000000000E+00 0. -1.
         -1   -1    0    0    0  501 -0.00000000000E+00 -0.00000000000E+00 -0.36800450578E+03  0.36800450578E+03  0.00000000000E+00 0.  1.
         24    2    1    2    0    0 -0.40092590510E+03  0.40742442931E+03  0.15164237032E+03  0.59672650030E+03  0.79692287654E+02 0.  0.
        254    2    1    2    0    0  0.40092590510E+03 -0.40742442931E+03  0.18088211405E+04  0.20997460221E+04  0.90020175071E+03 0.  0.
         23    2    4    4    0    0  0.36647125321E+03 -0.31785111665E+03  0.28446147998E+03  0.56962910802E+03  0.90710943817E+02 0.  0.
         23    2    4    4    0    0  0.34454651888E+02 -0.89573312661E+02  0.15243596606E+04  0.15301169141E+04  0.91514450821E+02 0.  0.
          2    1    3    3  502    0 -0.37031181233E+02  0.64443218966E+02  0.49372149144E+00  0.74326849894E+02  0.00000000000E+00 0. -1.
         -1    1    3    3    0  502 -0.36389472387E+03  0.34298121034E+03  0.15114864883E+03  0.52239965041E+03  0.00000000000E+00 0.  1.
         11    1    5    5    0    0  0.74752336428E+02 -0.50326969887E+02  0.94540032303E+02  0.13060832059E+03  0.00000000000E+00 0.  1.
        -11    1    5    5    0    0  0.29171891678E+03 -0.26752414676E+03  0.18992144768E+03  0.43902078743E+03  0.00000000000E+00 0. -1.
          1    1    6    6  503    0  0.59755008980E+02 -0.28537515040E+02  0.81601823143E+03  0.81870068089E+03  0.00000000000E+00 0. -1.
         -1    1    6    6    0  503 -0.25300357092E+02 -0.61035797622E+02  0.70834142913E+03  0.71141623321E+03  0.00000000000E+00 0.  1.
<mgrwt>
<rscale>  0 0.18513635E+04</rscale>
<asrwt>0</asrwt>
<pdfrwt beam="1">  1        2 0.35822584E+00 0.18513635E+04</pdfrwt>
<pdfrwt beam="2">  1       -1 0.56616079E-01 0.18513635E+04</pdfrwt>
<totfact> 0.14771504E+01</totfact>
</mgrwt>
</event>
<event>
12    6  0.1494052E-007  0.1264397E+04  0.7818608E-02  0.9058285E-01
          2   -1    0    0  501    0  0.00000000000E+00  0.00000000000E+00  0.13199173087E+04  0.13199173087E+04  0.00000000000E+00 0. -1.
         -1   -1    0    0    0  501 -0.00000000000E+00 -0.00000000000E+00 -0.30280323963E+03  0.30280323963E+03  0.00000000000E+00 0.  1.
         24    2    1    2    0    0 -0.22838168654E+03 -0.47469117044E+02  0.50347396473E+03  0.56032093431E+03  0.77858875181E+02 0.  0.
        254    2    1    2    0    0  0.22838168654E+03  0.47469117044E+02  0.51364010438E+03  0.10623996141E+04  0.90025289297E+03 0.  0.
         23    2    4    4    0    0  0.42372278411E+03  0.89817675753E+02  0.66251840780E+03  0.79689939314E+03  0.92248520126E+02 0.  0.
         23    2    4    4    0    0 -0.19534109757E+03 -0.42348558709E+02 -0.14887830342E+03  0.26550022091E+03  0.91509962567E+02 0.  0.
          4    1    3    3  502    0 -0.78711061612E+02  0.48799957416E+01  0.24200801574E+03  0.25453315160E+03  0.00000000000E+00 0. -1.
         -3    1    3    3    0  502 -0.14967062493E+03 -0.52349112786E+02  0.26146594899E+03  0.30578778271E+03  0.00000000000E+00 0.  1.
         11    1    5    5    0    0  0.42253317804E+03  0.95068337084E+02  0.63355608170E+03  0.76744093188E+03  0.00000000000E+00 0. -1.
        -11    1    5    5    0    0  0.11896060698E+01 -0.52506613316E+01  0.28962326100E+02  0.29458461266E+02  0.00000000000E+00 0.  1.
          1    1    6    6  503    0 -0.20008198648E+03 -0.29301452717E+02 -0.14969441107E+03  0.25159450144E+03  0.00000000000E+00 0. -1.
         -1    1    6    6    0  503  0.47408889119E+01 -0.13047105992E+02  0.81610764981E+00  0.13905719476E+02  0.00000000000E+00 0.  1.
<mgrwt>
<rscale>  0 0.12643975E+04</rscale>
<asrwt>0</asrwt>
<pdfrwt beam="1">  1        2 0.20306420E+00 0.12643975E+04</pdfrwt>
<pdfrwt beam="2">  1       -1 0.46585114E-01 0.12643975E+04</pdfrwt>
<totfact> 0.82696757E+01</totfact>
</mgrwt>
</event>
<event>
12    6  0.1494052E-007  0.1740576E+04  0.7818608E-02  0.8738555E-01
         -1   -1    0    0    0  501 -0.00000000000E+00  0.00000000000E+00  0.11780144567E+04  0.11780144567E+04  0.00000000000E+00 0.  1.
          2   -1    0    0  501    0  0.00000000000E+00 -0.00000000000E+00 -0.64294717226E+03  0.64294717226E+03  0.00000000000E+00 0. -1.
         24    2    1    2    0    0 -0.48196921495E+03  0.16662065361E+03  0.54979394879E+03  0.75413151739E+03  0.79901145342E+02 0.  0.
        254    2    1    2    0    0  0.48196921495E+03 -0.16662065361E+03 -0.14726664332E+02  0.10668301116E+04  0.93693801609E+03 0.  0.
         23    2    4    4    0    0  0.85863535661E+02 -0.41342046211E+03 -0.28710282606E+03  0.51888764546E+03  0.92343546789E+02 0.  0.
         23    2    4    4    0    0  0.39610567929E+03  0.24679980849E+03  0.27237616172E+03  0.54794246614E+03  0.90787213213E+02 0.  0.
          2    1    3    3  502    0 -0.27104723601E+02 -0.82925206341E+01  0.23113446284E+02  0.36574080153E+02  0.00000000000E+00 0. -1.
         -1    1    3    3    0  502 -0.45486449135E+03  0.17491317425E+03  0.52668050251E+03  0.71755743724E+03  0.00000000000E+00 0.  1.
         11    1    5    5    0    0  0.81122647113E+01 -0.23681605065E+03 -0.18470690090E+03  0.30044016031E+03  0.00000000000E+00 0.  1.
        -11    1    5    5    0    0  0.77751270950E+02 -0.17660441145E+03 -0.10239592515E+03  0.21844748515E+03  0.00000000000E+00 0. -1.
          4    1    6    6  503    0  0.19209213208E+03  0.67396327354E+02  0.10877572658E+03  0.23081120172E+03  0.00000000000E+00 0. -1.
         -4    1    6    6    0  503  0.20401354721E+03  0.17940348114E+03  0.16360043514E+03  0.31713126441E+03  0.00000000000E+00 0.  1.
<mgrwt>
<rscale>  0 0.17405758E+04</rscale>
<asrwt>0</asrwt>
<pdfrwt beam="1">  1        2 0.98914950E-01 0.17405758E+04</pdfrwt>
<pdfrwt beam="2">  1       -1 0.18123299E+00 0.17405758E+04</pdfrwt>
<totfact> 0.10066555E+01</totfact>
</mgrwt>
</event>
<event>
12    6  0.1494052E-007  0.1523281E+04  0.7818608E-02  0.8869117E-01
         -1   -1    0    0    0  501 -0.00000000000E+00  0.00000000000E+00  0.34874780079E+03  0.34874780079E+03  0.00000000000E+00 0.  1.
          2   -1    0    0  501    0  0.00000000000E+00 -0.00000000000E+00 -0.16633681030E+04  0.16633681030E+04  0.00000000000E+00 0. -1.
         24    2    1    2    0    0  0.27305939794E+03 -0.25307808915E+03 -0.67705839048E+03  0.77697678359E+03  0.81700086291E+02 0.  0.
        254    2    1    2    0    0 -0.27305939794E+03  0.25307808915E+03 -0.63756191177E+03  0.12351391202E+04  0.99018861890E+03 0.  0.
         23    2    4    4    0    0 -0.30026552405E+03  0.37525432727E+03  0.83423400798E+02  0.49627645613E+03  0.91409310460E+02 0.  0.
         23    2    4    4    0    0  0.27206126109E+02 -0.12217623812E+03 -0.72098531257E+03  0.73886266411E+03  0.10213231138E+03 0.  0.
          2    1    3    3  502    0  0.27780711905E+03 -0.23999257397E+03 -0.65589265980E+03  0.75164380669E+03  0.00000000000E+00 0. -1.
         -1    1    3    3    0  502 -0.47477211052E+01 -0.13085515184E+02 -0.21165730680E+02  0.25332976899E+02  0.00000000000E+00 0.  1.
         11    1    5    5    0    0 -0.27448076235E+03  0.33200997454E+03  0.10186232384E+03  0.44265815830E+03  0.00000000000E+00 0. -1.
        -11    1    5    5    0    0 -0.25784761703E+02  0.43244352729E+02 -0.18438923039E+02  0.53618297827E+02  0.00000000000E+00 0.  1.
          1    1    6    6  503    0  0.27085980880E+02 -0.80342462121E+02 -0.65678715302E+03  0.66223706175E+03  0.00000000000E+00 0. -1.
         -1    1    6    6    0  503  0.12014522982E+00 -0.41833775995E+02 -0.64198159546E+02  0.76625602366E+02  0.00000000000E+00 0.  1.
<mgrwt>
<rscale>  0 0.15232806E+04</rscale>
<asrwt>0</asrwt>
<pdfrwt beam="1">  1        2 0.25590278E+00 0.15232806E+04</pdfrwt>
<pdfrwt beam="2">  1       -1 0.53653509E-01 0.15232806E+04</pdfrwt>
<totfact> 0.39591904E+01</totfact>
</mgrwt>
</event>
<event>
12    6  0.1494052E-007  0.1723483E+04  0.7818608E-02  0.8748083E-01
          2   -1    0    0  501    0  0.00000000000E+00  0.00000000000E+00  0.12836920413E+04  0.12836920413E+04  0.00000000000E+00 0. -1.
         -1   -1    0    0    0  501 -0.00000000000E+00 -0.00000000000E+00 -0.57848638545E+03  0.57848638545E+03  0.00000000000E+00 0.  1.
         24    2    1    2    0    0 -0.33935621904E+03 -0.50636970969E+03  0.11298922008E+03  0.62525077942E+03  0.81234518678E+02 0.  0.
        254    2    1    2    0    0  0.33935621904E+03  0.50636970969E+03  0.59221643572E+03  0.12369276473E+04  0.89871951775E+03 0.  0.
         23    2    4    4    0    0  0.48072067902E+03  0.93342791260E+02  0.40578083919E+01  0.49880192470E+03  0.94771548225E+02 0.  0.
         23    2    4    4    0    0 -0.14136445999E+03  0.41302691843E+03  0.58815862733E+03  0.73812572258E+03  0.91235220928E+02 0.  0.
          4    1    3    3  502    0 -0.25128992638E+03 -0.39639187017E+03  0.11915830904E+03  0.48422292846E+03  0.00000000000E+00 0. -1.
         -3    1    3    3    0  502 -0.88066292660E+02 -0.10997783952E+03 -0.61690889569E+01  0.14102785096E+03  0.00000000000E+00 0.  1.
         11    1    5    5    0    0  0.40695400132E+03  0.91869864575E+02  0.35284752466E+02  0.41868442169E+03  0.00000000000E+00 0. -1.
        -11    1    5    5    0    0  0.73766677701E+02  0.14729266851E+01 -0.31226944075E+02  0.80117503008E+02  0.00000000000E+00 0.  1.
          4    1    6    6  503    0 -0.65498032461E+02  0.14635231191E+03  0.14969879469E+03  0.21935979712E+03  0.00000000000E+00 0. -1.
         -4    1    6    6    0  503 -0.75866427527E+02  0.26667460652E+03  0.43845983264E+03  0.51876592546E+03  0.00000000000E+00 0.  1.
<mgrwt>
<rscale>  0 0.17234829E+04</rscale>
<asrwt>0</asrwt>
<pdfrwt beam="1">  1        2 0.19749108E+00 0.17234829E+04</pdfrwt>
<pdfrwt beam="2">  1       -1 0.88997906E-01 0.17234829E+04</pdfrwt>
<totfact> 0.22657418E+01</totfact>
</mgrwt>
</event>
<event>
12    6  0.1494052E-007  0.2669903E+04  0.7818608E-02  0.8344837E-01
         -1   -1    0    0    0  501 -0.00000000000E+00  0.00000000000E+00  0.68728675296E+03  0.68728675296E+03  0.00000000000E+00 0.  1.
          2   -1    0    0  501    0  0.00000000000E+00 -0.00000000000E+00 -0.25929428843E+04  0.25929428843E+04  0.00000000000E+00 0. -1.
         24    2    1    2    0    0 -0.89021091202E+03  0.67658842009E+03 -0.37860223599E+03  0.11832539885E+04  0.80641119530E+02 0.  0.
        254    2    1    2    0    0  0.89021091202E+03 -0.67658842009E+03 -0.15270538953E+04  0.20969756487E+04  0.90286539086E+03 0.  0.
         23    2    4    4    0    0  0.75729661225E+03 -0.49841339799E+02 -0.10234269115E+04  0.12774138451E+04  0.91657898806E+02 0.  0.
         23    2    4    4    0    0  0.13291429977E+03 -0.62674708029E+03 -0.50362698384E+03  0.81956180363E+03  0.86967220122E+02 0.  0.
          4    1    3    3  502    0 -0.49168128556E+01  0.11083509435E+02  0.16933442532E+01  0.12242820133E+02  0.00000000000E+00 0. -1.
         -3    1    3    3    0  502 -0.88529409917E+03  0.66550491066E+03 -0.38029558025E+03  0.11710111684E+04  0.00000000000E+00 0.  1.
         11    1    5    5    0    0  0.12887127143E+03  0.25633805332E+02 -0.16776979916E+03  0.21309998143E+03  0.00000000000E+00 0. -1.
        -11    1    5    5    0    0  0.62842534082E+03 -0.75475145131E+02 -0.85565711230E+03  0.10643138636E+04  0.00000000000E+00 0.  1.
          3    1    6    6  503    0 -0.10624604481E+02 -0.16250506549E+02 -0.14792657387E+02  0.24408684849E+02  0.00000000000E+00 0. -1.
         -3    1    6    6    0  503  0.14353890426E+03 -0.61049657374E+03 -0.48883432645E+03  0.79515311878E+03  0.00000000000E+00 0.  1.
<mgrwt>
<rscale>  0 0.26699028E+04</rscale>
<asrwt>0</asrwt>
<pdfrwt beam="1">  1        2 0.39891429E+00 0.26699028E+04</pdfrwt>
<pdfrwt beam="2">  1       -1 0.10573642E+00 0.26699028E+04</pdfrwt>
<totfact> 0.25725335E+00</totfact>
</mgrwt>
</event>
<event>
12    6  0.1494052E-007  0.2482589E+04  0.7818608E-02  0.8409215E-01
         -1   -1    0    0    0  501 -0.00000000000E+00  0.00000000000E+00  0.10166328092E+04  0.10166328092E+04  0.00000000000E+00 0.  1.
          2   -1    0    0  501    0  0.00000000000E+00 -0.00000000000E+00 -0.15156033980E+04  0.15156033980E+04  0.00000000000E+00 0. -1.
         24    2    1    2    0    0  0.10633392693E+04 -0.91487283963E+02 -0.32983707124E+03  0.11203599957E+04  0.85753726039E+02 0.  0.
        254    2    1    2    0    0 -0.10633392693E+04  0.91487283963E+02 -0.16913351749E+03  0.14118762115E+04  0.90869574951E+03 0.  0.
         23    2    4    4    0    0 -0.10626069377E+04  0.31800382721E+03  0.36281925444E+00  0.11129557219E+04  0.91708064309E+02 0.  0.
         23    2    4    4    0    0 -0.73233159971E+00 -0.22651654325E+03 -0.16949633674E+03  0.29892048964E+03  0.96509949139E+02 0.  0.
          2    1    3    3  502    0  0.48443837268E+03 -0.48629955794E+02 -0.19464696545E+03  0.52434039581E+03  0.00000000000E+00 0. -1.
         -1    1    3    3    0  502  0.57890089663E+03 -0.42857328169E+02 -0.13519010580E+03  0.59601959985E+03  0.00000000000E+00 0.  1.
         11    1    5    5    0    0 -0.35620070552E+03  0.14567216561E+03  0.22520370521E+02  0.38549512258E+03  0.00000000000E+00 0. -1.
        -11    1    5    5    0    0 -0.70640623219E+03  0.17233166161E+03 -0.22157551267E+02  0.72746059931E+03  0.00000000000E+00 0.  1.
          3    1    6    6  503    0 -0.24004720505E+02 -0.68640192282E+01 -0.12445003685E+02  0.27896585512E+02  0.00000000000E+00 0. -1.
         -3    1    6    6    0  503  0.23272388905E+02 -0.21965252402E+03 -0.15705133306E+03  0.27102390413E+03  0.00000000000E+00 0.  1.
<mgrwt>
<rscale>  0 0.24825891E+04</rscale>
<asrwt>0</asrwt>
<pdfrwt beam="1">  1        2 0.23316976E+00 0.24825891E+04</pdfrwt>
<pdfrwt beam="2">  1       -1 0.15640505E+00 0.24825891E+04</pdfrwt>
<totfact> 0.39391309E+00</totfact>
</mgrwt>
</event>
<event>
12    6  0.1494052E-007  0.2079050E+04  0.7818608E-02  0.8570529E-01
          2   -1    0    0  501    0  0.00000000000E+00  0.00000000000E+00  0.10364146512E+04  0.10364146512E+04  0.00000000000E+00 0. -1.
         -1   -1    0    0    0  501 -0.00000000000E+00 -0.00000000000E+00 -0.10426447418E+04  0.10426447418E+04  0.00000000000E+00 0.  1.
         24    2    1    2    0    0  0.47728831943E+03 -0.26472138690E+03  0.63999209961E+03  0.84475047357E+03  0.78306592904E+02 0.  0.
        254    2    1    2    0    0 -0.47728831943E+03  0.26472138690E+03 -0.64622219017E+03  0.12343089195E+04  0.89890702360E+03 0.  0.
         23    2    4    4    0    0 -0.46797850598E+03  0.56372282213E+03 -0.46487079602E+03  0.87227516617E+03  0.89284972232E+02 0.  0.
         23    2    4    4    0    0 -0.93098134467E+01 -0.29900143523E+03 -0.18135139415E+03  0.36203375331E+03  0.93228640852E+02 0.  0.
          2    1    3    3  502    0  0.42922891473E+03 -0.21898735092E+03  0.53004493725E+03  0.71633829760E+03  0.00000000000E+00 0. -1.
         -1    1    3    3    0  502  0.48059404697E+02 -0.45734035981E+02  0.10994716236E+03  0.12841217597E+03  0.00000000000E+00 0.  1.
         11    1    5    5    0    0 -0.53803443573E+02  0.10042424541E+03 -0.46086543505E+02  0.12289755530E+03  0.00000000000E+00 0. -1.
        -11    1    5    5    0    0 -0.41417506241E+03  0.46329857672E+03 -0.41878425252E+03  0.74937761087E+03  0.00000000000E+00 0.  1.
          4    1    6    6  503    0  0.16339779532E+02 -0.11166239415E+03 -0.22490172617E+02  0.11507078920E+03  0.00000000000E+00 0.  1.
         -4    1    6    6    0  503 -0.25649592979E+02 -0.18733904108E+03 -0.15886122153E+03  0.24696296411E+03  0.00000000000E+00 0. -1.
<mgrwt>
<rscale>  0 0.20790501E+04</rscale>
<asrwt>0</asrwt>
<pdfrwt beam="1">  1        2 0.15944841E+00 0.20790501E+04</pdfrwt>
<pdfrwt beam="2">  1       -1 0.16040688E+00 0.20790501E+04</pdfrwt>
<totfact> 0.72943772E+00</totfact>
</mgrwt>
</event>
<event>
12    6  0.1494052E-007  0.2099740E+04  0.7818608E-02  0.8561358E-01
          2   -1    0    0  501    0  0.00000000000E+00  0.00000000000E+00  0.12910214245E+04  0.12910214245E+04  0.00000000000E+00 0. -1.
         -1   -1    0    0    0  501 -0.00000000000E+00 -0.00000000000E+00 -0.85376320092E+03  0.85376320092E+03  0.00000000000E+00 0.  1.
         24    2    1    2    0    0  0.68729977233E+03  0.21075703641E+03  0.43836963997E+03  0.84857950121E+03  0.10545009815E+03 0.  0.
        254    2    1    2    0    0 -0.68729977233E+03 -0.21075703641E+03 -0.11114164048E+01  0.12962051242E+04  0.10785856402E+04 0.  0.
         23    2    4    4    0    0  0.25468556642E+03  0.11593383191E+03 -0.19079238056E+02  0.29480295324E+03  0.90770990932E+02 0.  0.
         23    2    4    4    0    0 -0.94198533874E+03 -0.32669086832E+03  0.17967821651E+02  0.10014021710E+04  0.91761449009E+02 0.  0.
          4    1    3    3  502    0  0.68021330836E+03  0.21504581218E+03  0.41858901221E+03  0.82713457632E+03  0.00000000000E+00 0. -1.
         -3    1    3    3    0  502  0.70864639681E+01 -0.42887757681E+01  0.19780627758E+02  0.21444924893E+02  0.00000000000E+00 0.  1.
         11    1    5    5    0    0  0.22743774842E+03  0.12161803903E+03  0.50557119700E+01  0.25796208452E+03  0.00000000000E+00 0.  1.
        -11    1    5    5    0    0  0.27247817990E+02 -0.56842071151E+01 -0.24134950026E+02  0.36840868726E+02  0.00000000000E+00 0. -1.
          1    1    6    6  503    0 -0.59203956166E+03 -0.16957191830E+03  0.40225857576E+02  0.61715767650E+03  0.00000000000E+00 0. -1.
         -1    1    6    6    0  503 -0.34994577708E+03 -0.15711895002E+03 -0.22258035925E+02  0.38424449445E+03  0.00000000000E+00 0.  1.
<mgrwt>
<rscale>  0 0.20997396E+04</rscale>
<asrwt>0</asrwt>
<pdfrwt beam="1">  1        2 0.19861868E+00 0.20997396E+04</pdfrwt>
<pdfrwt beam="2">  1       -1 0.13134819E+00 0.20997396E+04</pdfrwt>
<totfact> 0.86842862E+00</totfact>
</mgrwt>
</event>
<event>
12    6  0.1494052E-007  0.1309687E+04  0.7818608E-02  0.9021919E-01
          2   -1    0    0  501    0  0.00000000000E+00  0.00000000000E+00  0.17635658727E+04  0.17635658727E+04  0.00000000000E+00 0. -1.
         -1   -1    0    0    0  501 -0.00000000000E+00 -0.00000000000E+00 -0.24315491007E+03  0.24315491007E+03  0.00000000000E+00 0.  1.
         24    2    1    2    0    0 -0.17599808195E+03  0.92617261182E+02  0.84969343085E+03  0.87602291851E+03  0.76706879722E+02 0.  0.
        254    2    1    2    0    0  0.17599808195E+03 -0.92617261182E+02  0.67071753182E+03  0.11306978643E+04  0.88829182758E+03 0.  0.
         23    2    4    4    0    0 -0.14270209073E+03 -0.40237377244E+03  0.21098257698E+03  0.48486475767E+03  0.91168229083E+02 0.  0.
         23    2    4    4    0    0  0.31870017268E+03  0.30975651126E+03  0.45973495483E+03  0.64583310664E+03  0.90693310694E+02 0.  0.
          4    1    3    3  502    0 -0.24690094489E+02  0.50170236960E+02  0.23464453597E+03  0.24121507354E+03  0.00000000000E+00 0. -1.
         -3    1    3    3    0  502 -0.15130798747E+03  0.42447024222E+02  0.61504889489E+03  0.63480784497E+03  0.00000000000E+00 0.  1.
         11    1    5    5    0    0 -0.78147762019E+02 -0.13411329103E+03  0.11327208967E+03  0.19215622248E+03  0.00000000000E+00 0. -1.
        -11    1    5    5    0    0 -0.64554328706E+02 -0.26826048141E+03  0.97710487312E+02  0.29270853519E+03  0.00000000000E+00 0.  1.
          2    1    6    6  503    0  0.12901817973E+02  0.34383592073E+02  0.70037487059E+02  0.79081843077E+02  0.00000000000E+00 0. -1.
         -2    1    6    6    0  503  0.30579835471E+03  0.27537291918E+03  0.38969746777E+03  0.56675126356E+03  0.00000000000E+00 0.  1.
<mgrwt>
<rscale>  0 0.13096865E+04</rscale>
<asrwt>0</asrwt>
<pdfrwt beam="1">  1        2 0.27131782E+00 0.13096865E+04</pdfrwt>
<pdfrwt beam="2">  1       -1 0.37408449E-01 0.13096865E+04</pdfrwt>
<totfact> 0.69428409E+01</totfact>
</mgrwt>
</event>
<event>
12    6  0.1494052E-007  0.1524033E+04  0.7818608E-02  0.8868627E-01
         -1   -1    0    0    0  501 -0.00000000000E+00  0.00000000000E+00  0.36537830147E+03  0.36537830147E+03  0.00000000000E+00 0.  1.
          2   -1    0    0  501    0  0.00000000000E+00 -0.00000000000E+00 -0.15892266911E+04  0.15892266911E+04  0.00000000000E+00 0. -1.
         24    2    1    2    0    0 -0.11668336806E+03 -0.18608450336E+02 -0.10295764451E+04  0.10394186847E+04  0.80014142204E+02 0.  0.
        254    2    1    2    0    0  0.11668336806E+03  0.18608450336E+02 -0.19427194446E+03  0.91518630782E+03  0.88648920287E+03 0.  0.
         23    2    4    4    0    0  0.25893857362E+03 -0.20138031316E+02  0.28981434832E+03  0.40014545462E+03  0.93109092684E+02 0.  0.
         23    2    4    4    0    0 -0.14225520556E+03  0.38746481652E+02 -0.48408629278E+03  0.51504085320E+03  0.95862966017E+02 0.  0.
          4    1    3    3  502    0 -0.10965644386E+03 -0.42631619970E+02 -0.84240332329E+03  0.85057942004E+03  0.00000000000E+00 0. -1.
         -3    1    3    3    0  502 -0.70269242054E+01  0.24023169634E+02 -0.18717312185E+03  0.18883926468E+03  0.00000000000E+00 0.  1.
         11    1    5    5    0    0  0.90307469535E+02  0.49655395043E+01  0.42931894691E+02  0.10011614864E+03  0.00000000000E+00 0.  1.
        -11    1    5    5    0    0  0.16863110409E+03 -0.25103570821E+02  0.24688245363E+03  0.30002930598E+03  0.00000000000E+00 0. -1.
          2    1    6    6  503    0 -0.52704128267E+02  0.43956627671E+02 -0.32720594095E+03  0.33432564671E+03  0.00000000000E+00 0. -1.
         -2    1    6    6    0  503 -0.89551077296E+02 -0.52101460190E+01 -0.15688035183E+03  0.18071520649E+03  0.00000000000E+00 0.  1.
<mgrwt>
<rscale>  0 0.15240327E+04</rscale>
<asrwt>0</asrwt>
<pdfrwt beam="1">  1        2 0.24449641E+00 0.15240327E+04</pdfrwt>
<pdfrwt beam="2">  1       -1 0.56212047E-01 0.15240327E+04</pdfrwt>
<totfact> 0.39787268E+01</totfact>
</mgrwt>
</event>
<event>
12    6  0.1494052E-007  0.1319532E+04  0.7818608E-02  0.9014218E-01
          2   -1    0    0  501    0  0.00000000000E+00  0.00000000000E+00  0.25264008279E+04  0.25264008279E+04  0.00000000000E+00 0. -1.
         -1   -1    0    0    0  501 -0.00000000000E+00 -0.00000000000E+00 -0.17229686256E+03  0.17229686256E+03  0.00000000000E+00 0.  1.
         24    2    1    2    0    0  0.12244461150E+03 -0.85056602059E+02  0.12555952683E+04  0.12669203869E+04  0.79627133444E+02 0.  0.
        254    2    1    2    0    0 -0.12244461150E+03  0.85056602059E+02  0.10985086971E+04  0.14317773036E+04  0.90611124110E+03 0.  0.
         23    2    4    4    0    0  0.28746835032E+03  0.15404267287E+03  0.90148091454E+03  0.96292075213E+03  0.90450749570E+02 0.  0.
         23    2    4    4    0    0 -0.40991296182E+03 -0.68986070812E+02  0.19702778252E+03  0.46885655150E+03  0.90657622781E+02 0.  0.
          2    1    3    3  502    0  0.89667117756E+02 -0.26806155295E+02  0.91899415314E+03  0.92374726818E+03  0.00000000000E+00 0. -1.
         -1    1    3    3    0  502  0.32777493741E+02 -0.58250446764E+02  0.33660111520E+03  0.34317311870E+03  0.00000000000E+00 0.  1.
         11    1    5    5    0    0  0.36518783372E+01 -0.67439796860E+00  0.80636331124E+02  0.80721799566E+02  0.00000000000E+00 0. -1.
        -11    1    5    5    0    0  0.28381647199E+03  0.15471707084E+03  0.82084458341E+03  0.88219895256E+03  0.00000000000E+00 0.  1.
          4    1    6    6  503    0 -0.32414923915E+03 -0.35627286270E+02  0.11561498145E+03  0.34598967716E+03  0.00000000000E+00 0. -1.
         -4    1    6    6    0  503 -0.85763722676E+02 -0.33358784542E+02  0.81412801065E+02  0.12286687434E+03  0.00000000000E+00 0.  1.
<mgrwt>
<rscale>  0 0.13195316E+04</rscale>
<asrwt>0</asrwt>
<pdfrwt beam="1">  1        2 0.38867702E+00 0.13195316E+04</pdfrwt>
<pdfrwt beam="2">  1       -1 0.26507211E-01 0.13195316E+04</pdfrwt>
<totfact> 0.47666270E+01</totfact>
</mgrwt>
</event>
<event>
12    6  0.1494052E-007  0.1209549E+04  0.7818608E-02  0.9104539E-01
         -1   -1    0    0    0  501 -0.00000000000E+00  0.00000000000E+00  0.40693977170E+03  0.40693977170E+03  0.00000000000E+00 0.  1.
          2   -1    0    0  501    0  0.00000000000E+00 -0.00000000000E+00 -0.89878666976E+03  0.89878666976E+03  0.00000000000E+00 0. -1.
         24    2    1    2    0    0  0.12591865689E+03  0.23965068918E+03 -0.13737785225E+03  0.31374383367E+03  0.79212107017E+02 0.  0.
        254    2    1    2    0    0 -0.12591865689E+03 -0.23965068918E+03 -0.35446904581E+03  0.99198260780E+03  0.88605486780E+03 0.  0.
         23    2    4    4    0    0 -0.27773467117E+03 -0.40651561517E+02  0.21400640682E+03  0.36428062301E+03  0.90069601510E+02 0.  0.
         23    2    4    4    0    0  0.15181601428E+03 -0.19899912766E+03 -0.56847545263E+03  0.62770198479E+03  0.90535553588E+02 0.  0.
          2    1    3    3  502    0 -0.54953440544E+01  0.81700591186E+01 -0.21077126426E+02  0.23263575190E+02  0.00000000000E+00 0. -1.
         -3    1    3    3    0  502  0.13141400094E+03  0.23148063006E+03 -0.11630072583E+03  0.29048025848E+03  0.00000000000E+00 0.  1.
         11    1    5    5    0    0 -0.22624110099E+03 -0.20519708134E+01  0.19049345199E+03  0.29576511223E+03  0.00000000000E+00 0.  1.
        -11    1    5    5    0    0 -0.51493570182E+02 -0.38599590704E+02  0.23512954827E+02  0.68515510779E+02  0.00000000000E+00 0. -1.
          3    1    6    6  503    0  0.13682475514E+03 -0.20609272096E+03 -0.54874423594E+03  0.60192645708E+03  0.00000000000E+00 0. -1.
         -3    1    6    6    0  503  0.14991259146E+02  0.70935933025E+01 -0.19731216682E+02  0.25775527705E+02  0.00000000000E+00 0.  1.
<mgrwt>
<rscale>  0 0.12095487E+04</rscale>
<asrwt>0</asrwt>
<pdfrwt beam="1">  1        2 0.13827487E+00 0.12095487E+04</pdfrwt>
<pdfrwt beam="2">  1       -1 0.62606120E-01 0.12095487E+04</pdfrwt>
<totfact> 0.85557786E+01</totfact>
</mgrwt>
</event>
<event>
12    6  0.1801177E-007  0.1936037E+04  0.7818608E-02  0.8637123E-01
         -1   -1    0    0    0  501 -0.00000000000E+00  0.00000000000E+00  0.40783924542E+03  0.40783924542E+03  0.00000000000E+00 0.  1.
          2   -1    0    0  501    0  0.00000000000E+00 -0.00000000000E+00 -0.22976206502E+04  0.22976206502E+04  0.00000000000E+00 0. -1.
         24    2    1    2    0    0 -0.40730088542E+03  0.37125341550E+03 -0.14692470929E+04  0.15711573513E+04  0.78264250689E+02 0.  0.
        254    2    1    2    0    0  0.40730088542E+03 -0.37125341550E+03 -0.42053431189E+03  0.11343025443E+04  0.89781403680E+03 0.  0.
         23    2    4    4    0    0  0.16798204970E+03 -0.45189430526E+03  0.14186239620E+03  0.51077331408E+03  0.91312686803E+02 0.  0.
         23    2    4    4    0    0  0.23931883572E+03  0.80640889759E+02 -0.56239670809E+03  0.62352923019E+03  0.93392641033E+02 0.  0.
          2    1    3    3  502    0 -0.33989614221E+03  0.27403533504E+03 -0.11025554956E+04  0.11858555448E+04  0.00000000000E+00 0. -1.
         -3    1    3    3    0  502 -0.67404743209E+02  0.97218080460E+02 -0.36669159733E+03  0.38530180655E+03  0.00000000000E+00 0.  1.
         11    1    5    5    0    0  0.15699820496E+02 -0.12368229362E+03  0.78081766642E+01  0.12491902073E+03  0.00000000000E+00 0. -1.
        -11    1    5    5    0    0  0.15228222921E+03 -0.32821201164E+03  0.13405421954E+03  0.38585429335E+03  0.00000000000E+00 0.  1.
          1    1    6    6  503    0  0.13584619856E+03  0.61879924237E+02 -0.22410823605E+03  0.26927275420E+03  0.00000000000E+00 0. -1.
         -1    1    6    6    0  503  0.10347263716E+03  0.18760965522E+02 -0.33828847204E+03  0.35425647600E+03  0.00000000000E+00 0.  1.
<mgrwt>
<rscale>  0 0.19360371E+04</rscale>
<asrwt>0</asrwt>
<pdfrwt beam="1">  1        2 0.35348011E+00 0.19360371E+04</pdfrwt>
<pdfrwt beam="2">  1       -1 0.62744498E-01 0.19360371E+04</pdfrwt>
<totfact> 0.12460211E+01</totfact>
</mgrwt>
</event>
<event>
12    6  0.1494052E-007  0.1840873E+04  0.7818608E-02  0.8684861E-01
          2   -1    0    0  501    0  0.00000000000E+00  0.00000000000E+00  0.16264255215E+04  0.16264255215E+04  0.00000000000E+00 0. -1.
         -1   -1    0    0    0  501 -0.00000000000E+00 -0.00000000000E+00 -0.52089887818E+03  0.52089887818E+03  0.00000000000E+00 0.  1.
         24    2    1    2    0    0 -0.66572226502E+03  0.14898853283E+03  0.57586015279E+03  0.89637323316E+03  0.80537820278E+02 0.  0.
        254    2    1    2    0    0  0.66572226502E+03 -0.14898853283E+03  0.52966649053E+03  0.12509511665E+04  0.90495774088E+03 0.  0.
         23    2    4    4    0    0  0.22601644597E+03  0.18006885864E+03 -0.17730890545E+03  0.35103326703E+03  0.90981750444E+02 0.  0.
         23    2    4    4    0    0  0.43970581906E+03 -0.32905739147E+03  0.70697539597E+03  0.89991789949E+03  0.91749883430E+02 0.  0.
          2    1    3    3  502    0 -0.25946493467E+03  0.87621742790E+02  0.26581928822E+03  0.38165365991E+03  0.00000000000E+00 0. -1.
         -1    1    3    3    0  502 -0.40625733035E+03  0.61366790043E+02  0.31004086457E+03  0.51471957325E+03  0.00000000000E+00 0.  1.
         11    1    5    5    0    0  0.55689968374E+02  0.95513597031E+02 -0.44983586155E+02  0.11936390920E+03  0.00000000000E+00 0. -1.
        -11    1    5    5    0    0  0.17032647759E+03  0.84555261611E+02 -0.13232531929E+03  0.23166935784E+03  0.00000000000E+00 0.  1.
          2    1    6    6  503    0  0.19146363155E+03 -0.87769211790E+02  0.26888311032E+03  0.34155509623E+03  0.00000000000E+00 0. -1.
         -2    1    6    6    0  503  0.24824218751E+03 -0.24128817968E+03  0.43809228565E+03  0.55836280325E+03  0.00000000000E+00 0.  1.
<mgrwt>
<rscale>  0 0.18408729E+04</rscale>
<asrwt>0</asrwt>
<pdfrwt beam="1">  1        2 0.25021931E+00 0.18408729E+04</pdfrwt>
<pdfrwt beam="2">  1       -1 0.80138290E-01 0.18408729E+04</pdfrwt>
<totfact> 0.17956780E+01</totfact>
</mgrwt>
</event>
<event>
12    6  0.1494052E-007  0.2719048E+04  0.7818608E-02  0.8328851E-01
         -1   -1    0    0    0  501 -0.00000000000E+00  0.00000000000E+00  0.53111711152E+03  0.53111711152E+03  0.00000000000E+00 0.  1.
          2   -1    0    0  501    0  0.00000000000E+00 -0.00000000000E+00 -0.34800335327E+04  0.34800335327E+04  0.00000000000E+00 0. -1.
         24    2    1    2    0    0 -0.53531566540E+03 -0.10812185954E+04 -0.13595770526E+04  0.18194655483E+04  0.80053773665E+02 0.  0.
        254    2    1    2    0    0  0.53531566540E+03  0.10812185954E+04 -0.15893393685E+04  0.21916850959E+04  0.90658006752E+03 0.  0.
         23    2    4    4    0    0  0.16746428786E+03  0.24606800529E+03 -0.11181170935E+04  0.11606832251E+04  0.91684040921E+02 0.  0.
         23    2    4    4    0    0  0.36785137754E+03  0.83515059007E+03 -0.47122227501E+03  0.10310018708E+04  0.90129246629E+02 0.  0.
          2    1    3    3  502    0  0.63515987143E+00 -0.33566181878E+01 -0.12274008395E+02  0.12740549274E+02  0.00000000000E+00 0. -1.
         -1    1    3    3    0  502 -0.53595082527E+03 -0.10778619772E+04 -0.13473030443E+04  0.18067249990E+04  0.00000000000E+00 0.  1.
         11    1    5    5    0    0  0.40607811816E+02  0.22788194261E+02 -0.94561200556E+02  0.10540453894E+03  0.00000000000E+00 0. -1.
        -11    1    5    5    0    0  0.12685647604E+03  0.22327981103E+03 -0.10235558929E+04  0.10552786862E+04  0.00000000000E+00 0.  1.
          4    1    6    6  503    0  0.29778631826E+02  0.29415136408E+02 -0.34030922750E+02  0.53945536113E+02  0.00000000000E+00 0. -1.
         -4    1    6    6    0  503  0.33807274572E+03  0.80573545366E+03 -0.43719135226E+03  0.97705633470E+03  0.00000000000E+00 0.  1.
<mgrwt>
<rscale>  0 0.27190479E+04</rscale>
<asrwt>0</asrwt>
<pdfrwt beam="1">  1        2 0.53538978E+00 0.27190479E+04</pdfrwt>
<pdfrwt beam="2">  1       -1 0.81710323E-01 0.27190479E+04</pdfrwt>
<totfact> 0.12463368E+00</totfact>
</mgrwt>
</event>
<event>
12    6  0.1494052E-007  0.1457277E+04  0.7818608E-02  0.8913371E-01
          2   -1    0    0  501    0  0.00000000000E+00  0.00000000000E+00  0.15571994636E+04  0.15571994636E+04  0.00000000000E+00 0. -1.
         -1   -1    0    0    0  501 -0.00000000000E+00 -0.00000000000E+00 -0.34094157279E+03  0.34094157279E+03  0.00000000000E+00 0.  1.
         24    2    1    2    0    0 -0.25671436132E+03 -0.64087373387E+02  0.83237565730E+03  0.87710614922E+03  0.80352395080E+02 0.  0.
        254    2    1    2    0    0  0.25671436132E+03  0.64087373387E+02  0.38388223353E+03  0.10210348872E+04  0.90837063852E+03 0.  0.
         23    2    4    4    0    0 -0.24548450533E+03 -0.51916274055E+02 -0.12167436638E+03  0.29338124164E+03  0.91158980057E+02 0.  0.
         23    2    4    4    0    0  0.50219886665E+03  0.11600364744E+03  0.50555659991E+03  0.72765364556E+03  0.90729291260E+02 0.  0.
          4    1    3    3  502    0 -0.29598329833E+01 -0.70294414978E+01  0.93114419380E+02  0.93426274439E+02  0.00000000000E+00 0. -1.
         -3    1    3    3    0  502 -0.25375452834E+03 -0.57057931890E+02  0.73926123792E+03  0.78367987478E+03  0.00000000000E+00 0.  1.
         11    1    5    5    0    0 -0.20038038705E+02 -0.18772080979E+02  0.11139421912E+02  0.29631077266E+02  0.00000000000E+00 0.  1.
        -11    1    5    5    0    0 -0.22544646663E+03 -0.33144193075E+02 -0.13281378829E+03  0.26375016438E+03  0.00000000000E+00 0. -1.
          3    1    6    6  503    0  0.34907566362E+03  0.11657205241E+03  0.38650813561E+03  0.53369598202E+03  0.00000000000E+00 0. -1.
         -3    1    6    6    0  503  0.15312320304E+03 -0.56840496507E+00  0.11904846430E+03  0.19395766354E+03  0.00000000000E+00 0.  1.
<mgrwt>
<rscale>  0 0.14572770E+04</rscale>
<asrwt>0</asrwt>
<pdfrwt beam="1">  1        2 0.23956915E+00 0.14572770E+04</pdfrwt>
<pdfrwt beam="2">  1       -1 0.52452550E-01 0.14572770E+04</pdfrwt>
<totfact> 0.47660935E+01</totfact>
</mgrwt>
</event>
<event>
12    6  0.1494052E-007  0.1788782E+04  0.7818608E-02  0.8712288E-01
          2   -1    0    0  501    0  0.00000000000E+00  0.00000000000E+00  0.84780715369E+03  0.84780715369E+03  0.00000000000E+00 0. -1.
         -1   -1    0    0    0  501 -0.00000000000E+00 -0.00000000000E+00 -0.94353477954E+03  0.94353477954E+03  0.00000000000E+00 0.  1.
         24    2    1    2    0    0  0.16114096980E+03 -0.45679799428E+03 -0.48360899498E+03  0.68928861118E+03  0.81303811375E+02 0.  0.
        254    2    1    2    0    0 -0.16114096980E+03  0.45679799428E+03  0.38788136913E+03  0.11020533221E+04  0.91073527899E+03 0.  0.
         23    2    4    4    0    0 -0.14238667207E+03  0.60745297146E+03 -0.47195970859E+02  0.63219863832E+03  0.90413393451E+02 0.  0.
         23    2    4    4    0    0 -0.18754297731E+02 -0.15065497718E+03  0.43507733999E+03  0.46985468373E+03  0.91774104305E+02 0.  0.
          4    1    3    3  502    0  0.95986059805E+02 -0.15493691861E+03 -0.18589390300E+03  0.26033692707E+03  0.00000000000E+00 0. -1.
         -3    1    3    3    0  502  0.65154909995E+02 -0.30186107567E+03 -0.29771509198E+03  0.42895168410E+03  0.00000000000E+00 0.  1.
         11    1    5    5    0    0 -0.79595306713E+02  0.16449390522E+03 -0.22660460816E+02  0.18413895348E+03  0.00000000000E+00 0.  1.
        -11    1    5    5    0    0 -0.62791365355E+02  0.44295906624E+03 -0.24535510043E+02  0.44805968484E+03  0.00000000000E+00 0. -1.
          3    1    6    6  503    0 -0.44144049516E+02 -0.14294966520E+03  0.34728494410E+03  0.37814036585E+03  0.00000000000E+00 0. -1.
         -3    1    6    6    0  503  0.25389751784E+02 -0.77053119809E+01  0.87792395888E+02  0.91714317879E+02  0.00000000000E+00 0.  1.
<mgrwt>
<rscale>  0 0.17887823E+04</rscale>
<asrwt>0</asrwt>
<pdfrwt beam="1">  1        2 0.13043187E+00 0.17887823E+04</pdfrwt>
<pdfrwt beam="2">  1       -1 0.14515920E+00 0.17887823E+04</pdfrwt>
<totfact> 0.13087510E+01</totfact>
</mgrwt>
</event>
<event>
12    6  0.1494052E-007  0.1642927E+04  0.7818608E-02  0.8794602E-01
         -1   -1    0    0    0  501 -0.00000000000E+00  0.00000000000E+00  0.25444992730E+03  0.25444992730E+03  0.00000000000E+00 0.  1.
          2   -1    0    0  501    0  0.00000000000E+00 -0.00000000000E+00 -0.26520056147E+04  0.26520056147E+04  0.00000000000E+00 0. -1.
         24    2    1    2    0    0  0.30918151065E+03  0.13211738878E+03 -0.23742401505E+02  0.34528384962E+03  0.74893419142E+02 0.  0.
        254    2    1    2    0    0 -0.30918151065E+03 -0.13211738878E+03 -0.23738132858E+04  0.25611716923E+04  0.90086775426E+03 0.  0.
         23    2    4    4    0    0 -0.58536339697E+03 -0.51129148989E+02 -0.10860175466E+04  0.12384070336E+04  0.94622264624E+02 0.  0.
         23    2    4    4    0    0  0.27618188632E+03 -0.80988239791E+02 -0.12877957393E+04  0.13227646588E+04  0.91939910068E+02 0.  0.
          2    1    3    3  502    0  0.18449422632E+03  0.42057868569E+02  0.25385078400E+01  0.18924436022E+03  0.00000000000E+00 0. -1.
         -1    1    3    3    0  502  0.12468728433E+03  0.90059520211E+02 -0.26280909345E+02  0.15603948939E+03  0.00000000000E+00 0.  1.
         11    1    5    5    0    0 -0.51360939088E+03 -0.75951007494E+02 -0.95227392009E+03  0.10846145771E+04  0.00000000000E+00 0. -1.
        -11    1    5    5    0    0 -0.71754006099E+02  0.24821858506E+02 -0.13374362647E+03  0.15379245649E+03  0.00000000000E+00 0.  1.
          1    1    6    6  503    0  0.10217308824E+03  0.14904768344E+02 -0.41764781401E+03  0.43022225492E+03  0.00000000000E+00 0. -1.
         -1    1    6    6    0  503  0.17400879808E+03 -0.95893008135E+02 -0.87014792527E+03  0.89254240385E+03  0.00000000000E+00 0.  1.
<mgrwt>
<rscale>  0 0.16429274E+04</rscale>
<asrwt>0</asrwt>
<pdfrwt beam="1">  1        2 0.40800086E+00 0.16429274E+04</pdfrwt>
<pdfrwt beam="2">  1       -1 0.39146143E-01 0.16429274E+04</pdfrwt>
<totfact> 0.19610203E+01</totfact>
</mgrwt>
</event>
<event>
12    6  0.1494052E-007  0.1753639E+04  0.7818608E-02  0.8731350E-01
         -1   -1    0    0    0  501 -0.00000000000E+00  0.00000000000E+00  0.11656313865E+04  0.11656313865E+04  0.00000000000E+00 0.  1.
          2   -1    0    0  501    0  0.00000000000E+00 -0.00000000000E+00 -0.65956722820E+03  0.65956722820E+03  0.00000000000E+00 0. -1.
         24    2    1    2    0    0 -0.22856630131E+03 -0.18548186840E+03  0.78280825862E+03  0.84008483173E+03  0.79420886107E+02 0.  0.
        254    2    1    2    0    0  0.22856630131E+03  0.18548186840E+03 -0.27674410029E+03  0.98511378300E+03  0.89845188564E+03 0.  0.
         23    2    4    4    0    0  0.22097303571E+02  0.52441262560E+03 -0.10173676351E+03  0.54164971337E+03  0.86816762403E+02 0.  0.
         23    2    4    4    0    0  0.20646899774E+03 -0.33893075719E+03 -0.17500733678E+03  0.44346406963E+03  0.92354252335E+02 0.  0.
          2    1    3    3  502    0 -0.78439586609E+02 -0.81197367883E+02  0.20473568112E+03  0.23380008645E+03  0.00000000000E+00 0. -1.
         -1    1    3    3    0  502 -0.15012671470E+03 -0.10428450052E+03  0.57807257749E+03  0.60628474528E+03  0.00000000000E+00 0.  1.
         11    1    5    5    0    0  0.36682796987E+02  0.51057391129E+03 -0.97151319170E+02  0.52102756674E+03  0.00000000000E+00 0. -1.
        -11    1    5    5    0    0 -0.14585493416E+02  0.13838714303E+02 -0.45854443395E+01  0.20622146628E+02  0.00000000000E+00 0.  1.
          3    1    6    6  503    0  0.11224517627E+03 -0.25227880231E+03 -0.14543729847E+03  0.31208265167E+03  0.00000000000E+00 0. -1.
         -3    1    6    6    0  503  0.94223821470E+02 -0.86651954883E+02 -0.29570038316E+02  0.13138141795E+03  0.00000000000E+00 0.  1.
<mgrwt>
<rscale>  0 0.17536388E+04</rscale>
<asrwt>0</asrwt>
<pdfrwt beam="1">  1        2 0.10147188E+00 0.17536388E+04</pdfrwt>
<pdfrwt beam="2">  1       -1 0.17932791E+00 0.17536388E+04</pdfrwt>
<totfact> 0.10054195E+01</totfact>
</mgrwt>
</event>
<event>
12    6  0.1494052E-007  0.2352625E+04  0.7818608E-02  0.8457456E-01
          2   -1    0    0  501    0  0.00000000000E+00  0.00000000000E+00  0.98600900597E+03  0.98600900597E+03  0.00000000000E+00 0. -1.
         -1   -1    0    0    0  501 -0.00000000000E+00 -0.00000000000E+00 -0.14033456050E+04  0.14033456050E+04  0.00000000000E+00 0.  1.
         24    2    1    2    0    0 -0.41679489819E+03 -0.90746701921E+03 -0.11834964445E+03  0.10087349685E+04  0.79531252933E+02 0.  0.
        254    2    1    2    0    0  0.41679489819E+03  0.90746701921E+03 -0.29898695461E+03  0.13806196425E+04  0.90526406099E+03 0.  0.
         23    2    4    4    0    0  0.36842795196E+03  0.78102649226E+02 -0.37602891399E+03  0.54121120786E+03  0.98349619988E+02 0.  0.
         23    2    4    4    0    0  0.48366946234E+02  0.82936436999E+03  0.77041959386E+02  0.83940843465E+03  0.92121859264E+02 0.  0.
          4    1    3    3  502    0 -0.38153372375E+03 -0.86314273619E+03 -0.99018510560E+02  0.94888778621E+03  0.00000000000E+00 0. -1.
         -3    1    3    3    0  502 -0.35261174446E+02 -0.44324283029E+02 -0.19331133893E+02  0.59847182281E+02  0.00000000000E+00 0.  1.
         11    1    5    5    0    0  0.16902969080E+03  0.82541150789E+02 -0.15737455903E+03  0.24525666102E+03  0.00000000000E+00 0.  1.
        -11    1    5    5    0    0  0.19939826116E+03 -0.44385015627E+01 -0.21865435496E+03  0.29595454683E+03  0.00000000000E+00 0. -1.
          1    1    6    6  503    0  0.26953608311E+01  0.63996540406E+03  0.41069161209E+02  0.64128750134E+03  0.00000000000E+00 0. -1.
         -1    1    6    6    0  503  0.45671585403E+02  0.18939896592E+03  0.35972798177E+02  0.19812093331E+03  0.00000000000E+00 0.  1.
<mgrwt>
<rscale>  0 0.23526253E+04</rscale>
<asrwt>0</asrwt>
<pdfrwt beam="1">  1        2 0.15169369E+00 0.23526253E+04</pdfrwt>
<pdfrwt beam="2">  1       -1 0.21589932E+00 0.23526253E+04</pdfrwt>
<totfact> 0.31042470E+00</totfact>
</mgrwt>
</event>
<event>
12    6  0.1494052E-007  0.4318855E+04  0.7818608E-02  0.7943141E-01
         -1   -1    0    0    0  501 -0.00000000000E+00  0.00000000000E+00  0.20539173192E+04  0.20539173192E+04  0.00000000000E+00 0.  1.
          2   -1    0    0  501    0  0.00000000000E+00 -0.00000000000E+00 -0.22703573939E+04  0.22703573939E+04  0.00000000000E+00 0. -1.
         24    2    1    2    0    0 -0.30926857154E+03  0.67791970612E+03 -0.20318542480E+04  0.21655324111E+04  0.76660035305E+02 0.  0.
        254    2    1    2    0    0  0.30926857154E+03 -0.67791970612E+03  0.18154141733E+04  0.21587423020E+04  0.89956518849E+03 0.  0.
         23    2    4    4    0    0  0.15550617318E+03  0.10771874851E+03  0.47132229443E+02  0.21561333410E+03  0.92098665108E+02 0.  0.
         23    2    4    4    0    0  0.15376239836E+03 -0.78563845463E+03  0.17682819439E+04  0.19431289679E+04  0.89769127162E+02 0.  0.
          2    1    3    3  502    0 -0.30609739743E+03  0.67592238523E+03 -0.19955314692E+04  0.21290167994E+04  0.00000000000E+00 0. -1.
         -3    1    3    3    0  502 -0.31711741090E+01  0.19973208873E+01 -0.36322778819E+02  0.36515611690E+02  0.00000000000E+00 0.  1.
         11    1    5    5    0    0  0.29512856953E+02 -0.14386067211E+02  0.18956546475E+02  0.37911981082E+02  0.00000000000E+00 0.  1.
        -11    1    5    5    0    0  0.12599331622E+03  0.12210481572E+03  0.28175682968E+02  0.17770135302E+03  0.00000000000E+00 0. -1.
          1    1    6    6  503    0  0.13917455045E+03 -0.61706242730E+03  0.14673316220E+04  0.15978728622E+04  0.00000000000E+00 0. -1.
         -1    1    6    6    0  503  0.14587847910E+02 -0.16857602733E+03  0.30095032183E+03  0.34525610568E+03  0.00000000000E+00 0.  1.
<mgrwt>
<rscale>  0 0.43188547E+04</rscale>
<asrwt>0</asrwt>
<pdfrwt beam="1">  1        2 0.34928575E+00 0.43188547E+04</pdfrwt>
<pdfrwt beam="2">  1       -1 0.31598728E+00 0.43188547E+04</pdfrwt>
<totfact> 0.10712958E-01</totfact>
</mgrwt>
</event>
<event>
12    6  0.1494052E-007  0.1408448E+04  0.7818608E-02  0.8947726E-01
          2   -1    0    0  501    0  0.00000000000E+00  0.00000000000E+00  0.20871217436E+04  0.20871217436E+04  0.00000000000E+00 0. -1.
         -1   -1    0    0    0  501 -0.00000000000E+00 -0.00000000000E+00 -0.23761494071E+03  0.23761494071E+03  0.00000000000E+00 0.  1.
         24    2    1    2    0    0 -0.51154142348E+02  0.36836530776E+03  0.25691831119E+03  0.45922139035E+03  0.81040239920E+02 0.  0.
        254    2    1    2    0    0  0.51154142348E+02 -0.36836530776E+03  0.15925884917E+04  0.18655152939E+04  0.89749621827E+03 0.  0.
         23    2    4    4    0    0  0.34743789120E+03 -0.36729402293E+03  0.45416381078E+03  0.68557646482E+03  0.90179457633E+02 0.  0.
         23    2    4    4    0    0 -0.29628374885E+03 -0.10712848366E+01  0.11384246809E+04  0.11799388291E+04  0.91976512643E+02 0.  0.
          4    1    3    3  502    0 -0.33766640014E+02  0.12632697563E+03  0.48913792737E+02  0.13961106643E+03  0.00000000000E+00 0. -1.
         -3    1    3    3    0  502 -0.17387502334E+02  0.24203833213E+03  0.20800451845E+03  0.31961032392E+03  0.00000000000E+00 0.  1.
         11    1    5    5    0    0  0.33787809394E+03 -0.36561804702E+03  0.45665844108E+03  0.67555539705E+03  0.00000000000E+00 0.  1.
        -11    1    5    5    0    0  0.95597972564E+01 -0.16759759021E+01 -0.24946303074E+01  0.10021067766E+02  0.00000000000E+00 0. -1.
          4    1    6    6  503    0 -0.10264525636E+03 -0.42435724328E+02  0.45912055343E+03  0.47236481869E+03  0.00000000000E+00 0. -1.
         -4    1    6    6    0  503 -0.19363849248E+03  0.41364439492E+02  0.67930412745E+03  0.70757401040E+03  0.00000000000E+00 0.  1.
<mgrwt>
<rscale>  0 0.14084478E+04</rscale>
<asrwt>0</asrwt>
<pdfrwt beam="1">  1        2 0.32109564E+00 0.14084478E+04</pdfrwt>
<pdfrwt beam="2">  1       -1 0.36556146E-01 0.14084478E+04</pdfrwt>
<totfact> 0.47537875E+01</totfact>
</mgrwt>
</event>
<event>
12    6  0.1494052E-007  0.2343222E+04  0.7818608E-02  0.8461071E-01
         -1   -1    0    0    0  501 -0.00000000000E+00  0.00000000000E+00  0.71543041829E+03  0.71543041829E+03  0.00000000000E+00 0.  1.
          2   -1    0    0  501    0  0.00000000000E+00 -0.00000000000E+00 -0.19186670389E+04  0.19186670389E+04  0.00000000000E+00 0. -1.
         24    2    1    2    0    0  0.38526070436E+03  0.82617481394E+03 -0.59753475381E+02  0.91662759180E+03  0.75133419457E+02 0.  0.
        254    2    1    2    0    0 -0.38526070436E+03 -0.82617481394E+03 -0.11434831452E+04  0.17174698654E+04  0.90064332650E+03 0.  0.
         23    2    4    4    0    0  0.10049694863E+03 -0.40563585582E+03 -0.94757995958E+03  0.10392796514E+04  0.86915647960E+02 0.  0.
         23    2    4    4    0    0 -0.48575765299E+03 -0.42053895812E+03 -0.19590318566E+03  0.67819021397E+03  0.93543548339E+02 0.  0.
          2    1    3    3  502    0  0.26271919606E+02  0.27278725111E+02  0.58730826856E+01  0.38325392415E+02  0.00000000000E+00 0. -1.
         -1    1    3    3    0  502  0.35898878475E+03  0.79889608883E+03 -0.65626558067E+02  0.87830219939E+03  0.00000000000E+00 0.  1.
         11    1    5    5    0    0  0.97319191219E+02 -0.33469008495E+03 -0.84917385087E+03  0.91792412919E+03  0.00000000000E+00 0. -1.
        -11    1    5    5    0    0  0.31777574099E+01 -0.70945770868E+02 -0.98406108711E+02  0.12135552224E+03  0.00000000000E+00 0.  1.
          4    1    6    6  503    0 -0.38112414483E+03 -0.27698395393E+03 -0.15401504129E+03  0.49567767496E+03  0.00000000000E+00 0. -1.
         -4    1    6    6    0  503 -0.10463350816E+03 -0.14355500419E+03 -0.41888144373E+02  0.18251253901E+03  0.00000000000E+00 0.  1.
<mgrwt>
<rscale>  0 0.23432224E+04</rscale>
<asrwt>0</asrwt>
<pdfrwt beam="1">  1        2 0.29517954E+00 0.23432224E+04</pdfrwt>
<pdfrwt beam="2">  1       -1 0.11006622E+00 0.23432224E+04</pdfrwt>
<totfact> 0.58098331E+00</totfact>
</mgrwt>
</event>
<event>
12    6  0.1494052E-007  0.4256902E+04  0.7818608E-02  0.7954636E-01
          2   -1    0    0  501    0  0.00000000000E+00  0.00000000000E+00  0.25084151482E+04  0.25084151482E+04  0.00000000000E+00 0. -1.
         -3   -1    0    0    0  501 -0.00000000000E+00 -0.00000000000E+00 -0.18060418986E+04  0.18060418986E+04  0.00000000000E+00 0.  1.
         24    2    1    2    0    0 -0.18394282773E+03  0.24916296754E+03 -0.16998029773E+04  0.17296265614E+04  0.79754198039E+02 0.  0.
        254    2    1    2    0    0  0.18394282773E+03 -0.24916296754E+03  0.24021762268E+04  0.25848304853E+04  0.90276290621E+03 0.  0.
         23    2    4    4    0    0  0.86367828180E+02 -0.50836932125E+03  0.21007564864E+04  0.21650538625E+04  0.91551320000E+02 0.  0.
         23    2    4    4    0    0  0.97574999549E+02  0.25920635371E+03  0.30141974048E+03  0.41977662279E+03  0.93003971678E+02 0.  0.
          4    1    3    3  502    0  0.28055326710E+01  0.10876599770E+02 -0.21718765372E+02  0.24451507222E+02  0.00000000000E+00 0. -1.
         -3    1    3    3    0  502 -0.18674836040E+03  0.23828636777E+03 -0.16780842119E+04  0.17051750542E+04  0.00000000000E+00 0.  1.
         11    1    5    5    0    0 -0.18560724054E+02 -0.46587018979E+02  0.20621232132E+03  0.21222245941E+03  0.00000000000E+00 0.  1.
        -11    1    5    5    0    0  0.10492855223E+03 -0.46178230227E+03  0.18945441650E+04  0.19528314031E+04  0.00000000000E+00 0. -1.
          3    1    6    6  503    0  0.10078924350E+03  0.26527124745E+03  0.29963493852E+03  0.41268438631E+03  0.00000000000E+00 0. -1.
         -3    1    6    6    0  503 -0.32142439492E+01 -0.60648937364E+01  0.17848019676E+01  0.70922364782E+01  0.00000000000E+00 0.  1.
<mgrwt>
<rscale>  0 0.42569016E+04</rscale>
<asrwt>0</asrwt>
<pdfrwt beam="1">  1        2 0.38591002E+00 0.42569016E+04</pdfrwt>
<pdfrwt beam="2">  1       -3 0.27785260E+00 0.42569016E+04</pdfrwt>
<totfact> 0.84893884E-02</totfact>
</mgrwt>
</event>
<event>
12    6  0.1494052E-007  0.2773866E+04  0.7818608E-02  0.8311428E-01
         -1   -1    0    0    0  501 -0.00000000000E+00  0.00000000000E+00  0.19769936999E+04  0.19769936999E+04  0.00000000000E+00 0.  1.
          2   -1    0    0  501    0  0.00000000000E+00 -0.00000000000E+00 -0.97298416783E+03  0.97298416783E+03  0.00000000000E+00 0. -1.
         24    2    1    2    0    0  0.83391980055E+03 -0.88081426256E+03  0.19162671234E+03  0.12306002271E+04  0.80000770451E+02 0.  0.
        254    2    1    2    0    0 -0.83391980055E+03  0.88081426256E+03  0.81238281977E+03  0.17193776406E+04  0.90831581862E+03 0.  0.
         23    2    4    4    0    0 -0.23462355353E+02  0.43147822932E+03 -0.56743795165E+02  0.44563685456E+03  0.92996792185E+02 0.  0.
         23    2    4    4    0    0 -0.81045744520E+03  0.44933603324E+03  0.86912661494E+03  0.12737407861E+04  0.91051502247E+02 0.  0.
          2    1    3    3  502    0  0.59022906219E+03 -0.66694221210E+03  0.15953605853E+03  0.90478395991E+03  0.00000000000E+00 0. -1.
         -3    1    3    3    0  502  0.24369073836E+03 -0.21387205046E+03  0.32090653812E+02  0.32581626723E+03  0.00000000000E+00 0.  1.
         11    1    5    5    0    0 -0.37093199607E+02  0.21236303682E+03  0.11072461535E+02  0.21586237344E+03  0.00000000000E+00 0.  1.
        -11    1    5    5    0    0  0.13630844254E+02  0.21911519250E+03 -0.67816256700E+02  0.22977448112E+03  0.00000000000E+00 0. -1.
          3    1    6    6  503    0 -0.74896130823E+03  0.38835186006E+03  0.77141979059E+03  0.11431748343E+04  0.00000000000E+00 0. -1.
         -3    1    6    6    0  503 -0.61496136971E+02  0.60984173184E+02  0.97706824350E+02  0.13056595179E+03  0.00000000000E+00 0.  1.
<mgrwt>
<rscale>  0 0.27738663E+04</rscale>
<asrwt>0</asrwt>
<pdfrwt beam="1">  1        2 0.14968987E+00 0.27738663E+04</pdfrwt>
<pdfrwt beam="2">  1       -1 0.30415288E+00 0.27738663E+04</pdfrwt>
<totfact> 0.80900534E-01</totfact>
</mgrwt>
</event>
<event>
12    6  0.1494052E-007  0.1299988E+04  0.7818608E-02  0.9029575E-01
          2   -1    0    0  501    0  0.00000000000E+00  0.00000000000E+00  0.10150989091E+04  0.10150989091E+04  0.00000000000E+00 0. -1.
         -1   -1    0    0    0  501 -0.00000000000E+00 -0.00000000000E+00 -0.41620764915E+03  0.41620764915E+03  0.00000000000E+00 0.  1.
         24    2    1    2    0    0 -0.14686717204E+03  0.24228522866E+03  0.36190540932E+03  0.46653423759E+03  0.80041060058E+02 0.  0.
        254    2    1    2    0    0  0.14686717204E+03 -0.24228522866E+03  0.23698585058E+03  0.96477232061E+03  0.89126384365E+03 0.  0.
         23    2    4    4    0    0  0.82658786361E+02 -0.54363123004E+03 -0.13029926690E+02  0.55768649008E+03  0.92070912808E+02 0.  0.
         23    2    4    4    0    0  0.64208385680E+02  0.30134600138E+03  0.25001577727E+03  0.40708583054E+03  0.90988214613E+02 0.  0.
          4    1    3    3  502    0 -0.13415096638E+03  0.19131983840E+03  0.24602988279E+03  0.33930880562E+03  0.00000000000E+00 0. -1.
         -3    1    3    3    0  502 -0.12716205663E+02  0.50965390266E+02  0.11587552653E+03  0.12722543197E+03  0.00000000000E+00 0.  1.
         11    1    5    5    0    0  0.19533032051E+02 -0.14030756503E+02  0.19308040021E+01  0.24127359434E+02  0.00000000000E+00 0. -1.
        -11    1    5    5    0    0  0.63125754309E+02 -0.52960047354E+03 -0.14960730692E+02  0.53355913064E+03  0.00000000000E+00 0.  1.
          3    1    6    6  503    0  0.35459431994E+02  0.28652925662E+03  0.22910478740E+03  0.36857209583E+03  0.00000000000E+00 0.  1.
         -3    1    6    6    0  503  0.28748953686E+02  0.14816744759E+02  0.20910989873E+02  0.38513734703E+02  0.00000000000E+00 0. -1.
<mgrwt>
<rscale>  0 0.12999876E+04</rscale>
<asrwt>0</asrwt>
<pdfrwt beam="1">  1        2 0.15616906E+00 0.12999876E+04</pdfrwt>
<pdfrwt beam="2">  1       -1 0.64031946E-01 0.12999876E+04</pdfrwt>
<totfact> 0.68130983E+01</totfact>
</mgrwt>
</event>
<event>
12    6  0.1494052E-007  0.1712477E+04  0.7818608E-02  0.8754280E-01
          2   -1    0    0  501    0  0.00000000000E+00  0.00000000000E+00  0.76529150663E+03  0.76529150663E+03  0.00000000000E+00 0. -1.
         -1   -1    0    0    0  501 -0.00000000000E+00 -0.00000000000E+00 -0.95799336598E+03  0.95799336598E+03  0.00000000000E+00 0.  1.
         24    2    1    2    0    0  0.78547287890E+02 -0.52621662337E+03 -0.37786089018E+03  0.65739552721E+03  0.79475881392E+02 0.  0.
        254    2    1    2    0    0 -0.78547287890E+02  0.52621662337E+03  0.18515903082E+03  0.10658893454E+04  0.90485502639E+03 0.  0.
         23    2    4    4    0    0  0.28320377038E+03 -0.79362528008E+02 -0.60616367577E+02  0.31334892680E+03  0.89500946936E+02 0.  0.
         23    2    4    4    0    0 -0.36175105827E+03  0.60557915138E+03  0.24577539840E+03  0.75254041859E+03  0.91222795479E+02 0.  0.
          4    1    3    3  502    0  0.29303645002E+02 -0.21017723035E+03 -0.19905292410E+03  0.29095573264E+03  0.00000000000E+00 0. -1.
         -3    1    3    3    0  502  0.49243642888E+02 -0.31603939303E+03 -0.17880796608E+03  0.36643979457E+03  0.00000000000E+00 0.  1.
         11    1    5    5    0    0  0.15798867739E+03 -0.29402980652E+02 -0.75802889352E+02  0.17768240062E+03  0.00000000000E+00 0. -1.
        -11    1    5    5    0    0  0.12521509299E+03 -0.49959547356E+02  0.15186521775E+02  0.13566652619E+03  0.00000000000E+00 0.  1.
          3    1    6    6  503    0 -0.31192766869E+03  0.44722256105E+03  0.18976645771E+03  0.57733716153E+03  0.00000000000E+00 0. -1.
         -3    1    6    6    0  503 -0.49823389575E+02  0.15835659033E+03  0.56008940692E+02  0.17520325707E+03  0.00000000000E+00 0.  1.
<mgrwt>
<rscale>  0 0.17124768E+04</rscale>
<asrwt>0</asrwt>
<pdfrwt beam="1">  1        2 0.11773715E+00 0.17124768E+04</pdfrwt>
<pdfrwt beam="2">  1       -1 0.14738360E+00 0.17124768E+04</pdfrwt>
<totfact> 0.14502699E+01</totfact>
</mgrwt>
</event>
<event>
12    6  0.1494052E-007  0.1196256E+04  0.7818608E-02  0.9116140E-01
          2   -1    0    0  501    0  0.00000000000E+00  0.00000000000E+00  0.12074264286E+04  0.12074264286E+04  0.00000000000E+00 0. -1.
         -1   -1    0    0    0  501 -0.00000000000E+00 -0.00000000000E+00 -0.29629714225E+03  0.29629714225E+03  0.00000000000E+00 0.  1.
         24    2    1    2    0    0  0.24996195787E+03  0.23070552667E+02  0.18779694116E+03  0.32280350080E+03  0.76949192536E+02 0.  0.
        254    2    1    2    0    0 -0.24996195787E+03 -0.23070552667E+02  0.72333234521E+03  0.11809200701E+04  0.89908247647E+03 0.  0.
         23    2    4    4    0    0  0.10353651459E+03  0.57296277148E+02 -0.16178850777E+03  0.22016061606E+03  0.91063177987E+02 0.  0.
         23    2    4    4    0    0 -0.35349847247E+03 -0.80366829816E+02  0.88512085298E+03  0.96075945402E+03  0.90552784198E+02 0.  0.
          2    1    3    3  502    0  0.14089151234E+03 -0.50145527900E+01  0.14521855677E+03  0.20239563538E+03  0.00000000000E+00 0. -1.
         -1    1    3    3    0  502  0.10907044553E+03  0.28085105457E+02  0.42578384390E+02  0.12040786542E+03  0.00000000000E+00 0.  1.
         11    1    5    5    0    0 -0.49546890268E+01 -0.49811308274E+01 -0.55688815703E+02  0.56130248548E+02  0.00000000000E+00 0.  1.
        -11    1    5    5    0    0  0.10849120362E+03  0.62277407976E+02 -0.10609969207E+03  0.16403036751E+03  0.00000000000E+00 0. -1.
          1    1    6    6  503    0 -0.16185413893E+03 -0.60073698152E+02  0.51984802668E+03  0.54776599232E+03  0.00000000000E+00 0. -1.
         -1    1    6    6    0  503 -0.19164433354E+03 -0.20293131664E+02  0.36527282630E+03  0.41299346170E+03  0.00000000000E+00 0.  1.
<mgrwt>
<rscale>  0 0.11962558E+04</rscale>
<asrwt>0</asrwt>
<pdfrwt beam="1">  1        2 0.18575791E+00 0.11962558E+04</pdfrwt>
<pdfrwt beam="2">  1       -1 0.45584176E-01 0.11962558E+04</pdfrwt>
<totfact> 0.10079700E+02</totfact>
</mgrwt>
</event>
<event>
12    6  0.1494052E-007  0.2844656E+04  0.7818608E-02  0.8289537E-01
          2   -1    0    0  501    0  0.00000000000E+00  0.00000000000E+00  0.17621229787E+04  0.17621229787E+04  0.00000000000E+00 0. -1.
         -1   -1    0    0    0  501 -0.00000000000E+00 -0.00000000000E+00 -0.11480568218E+04  0.11480568218E+04  0.00000000000E+00 0.  1.
         24    2    1    2    0    0 -0.30580125948E+03  0.50305987388E+03  0.14701096059E+04  0.15856245973E+04  0.79996644407E+02 0.  0.
        254    2    1    2    0    0  0.30580125948E+03 -0.50305987388E+03 -0.85604344902E+03  0.13245552033E+04  0.82161575743E+03 0.  0.
         23    2    4    4    0    0 -0.15055874690E+02  0.13375201072E+03 -0.49421535842E+03  0.52032826861E+03  0.91522712395E+02 0.  0.
         23    2    4    4    0    0  0.32085713417E+03 -0.63681188460E+03 -0.36182809061E+03  0.80422693465E+03  0.85922746378E+02 0.  0.
          4    1    3    3  502    0 -0.12478937173E+03  0.14979170283E+03  0.42170827294E+03  0.46459424125E+03  0.00000000000E+00 0. -1.
         -3    1    3    3    0  502 -0.18101188775E+03  0.35326817105E+03  0.10484013330E+04  0.11210303561E+04  0.00000000000E+00 0.  1.
         11    1    5    5    0    0 -0.67732532648E+01  0.96879376780E+02 -0.18621327554E+03  0.21001636744E+03  0.00000000000E+00 0. -1.
        -11    1    5    5    0    0 -0.82826214254E+01  0.36872633942E+02 -0.30800208288E+03  0.31031190117E+03  0.00000000000E+00 0.  1.
          1    1    6    6  503    0  0.80626037946E+02 -0.16633084895E+03 -0.13715731960E+03  0.23017089223E+03  0.00000000000E+00 0. -1.
         -1    1    6    6    0  503  0.24023109622E+03 -0.47048103565E+03 -0.22467077101E+03  0.57405604242E+03  0.00000000000E+00 0.  1.
<mgrwt>
<rscale>  0 0.28446563E+04</rscale>
<asrwt>0</asrwt>
<pdfrwt beam="1">  1        2 0.27109584E+00 0.28446563E+04</pdfrwt>
<pdfrwt beam="2">  1       -1 0.17662413E+00 0.28446563E+04</pdfrwt>
<totfact> 0.19673378E+00</totfact>
</mgrwt>
</event>
<event>
12    6  0.1494052E-007  0.1562599E+04  0.7818608E-02  0.8843860E-01
         -1   -1    0    0    0  501 -0.00000000000E+00  0.00000000000E+00  0.98966136871E+03  0.98966136871E+03  0.00000000000E+00 0.  1.
          2   -1    0    0  501    0  0.00000000000E+00 -0.00000000000E+00 -0.61680603141E+03  0.61680603141E+03  0.00000000000E+00 0. -1.
         24    2    1    2    0    0 -0.51765989548E+03 -0.19606345200E+02  0.14608308065E+03  0.54391463870E+03  0.78400839139E+02 0.  0.
        254    2    1    2    0    0  0.51765989548E+03  0.19606345200E+02  0.22677225665E+03  0.10625527614E+04  0.89957575460E+03 0.  0.
         23    2    4    4    0    0 -0.69277886531E+02 -0.14310260924E+03  0.38532479324E+03  0.42615328235E+03  0.88620773202E+02 0.  0.
         23    2    4    4    0    0  0.58693778202E+03  0.16270895444E+03 -0.15855253659E+03  0.63639947907E+03  0.94314507325E+02 0.  0.
          2    1    3    3  502    0 -0.37107050810E+03 -0.36008680423E+02  0.13301801311E+03  0.39583296839E+03  0.00000000000E+00 0. -1.
         -1    1    3    3    0  502 -0.14658938738E+03  0.16402335223E+02  0.13065067535E+02  0.14808167032E+03  0.00000000000E+00 0.  1.
         11    1    5    5    0    0 -0.61297155781E+01 -0.81933329453E+02  0.26283856255E+03  0.27538110657E+03  0.00000000000E+00 0. -1.
        -11    1    5    5    0    0 -0.63148170953E+02 -0.61169279785E+02  0.12248623069E+03  0.15077217579E+03  0.00000000000E+00 0.  1.
          3    1    6    6  503    0  0.25105858215E+03  0.11798031833E+03 -0.76774071203E+02  0.28782638029E+03  0.00000000000E+00 0. -1.
         -3    1    6    6    0  503  0.33587919987E+03  0.44728636110E+02 -0.81778465384E+02  0.34857309878E+03  0.00000000000E+00 0.  1.
<mgrwt>
<rscale>  0 0.15625992E+04</rscale>
<asrwt>0</asrwt>
<pdfrwt beam="1">  1        2 0.94893235E-01 0.15625992E+04</pdfrwt>
<pdfrwt beam="2">  1       -1 0.15225560E+00 0.15625992E+04</pdfrwt>
<totfact> 0.17656299E+01</totfact>
</mgrwt>
</event>
<event>
12    6  0.1494052E-007  0.2076692E+04  0.7818608E-02  0.8571581E-01
         -1   -1    0    0    0  501 -0.00000000000E+00  0.00000000000E+00  0.61880631908E+03  0.61880631908E+03  0.00000000000E+00 0.  1.
          2   -1    0    0  501    0  0.00000000000E+00 -0.00000000000E+00 -0.17423253990E+04  0.17423253990E+04  0.00000000000E+00 0. -1.
         24    2    1    2    0    0  0.74508718531E+03 -0.37953554562E+03 -0.53759160494E+03  0.99723587088E+03  0.79199143682E+02 0.  0.
        254    2    1    2    0    0 -0.74508718531E+03  0.37953554562E+03 -0.58592747502E+03  0.13638958472E+04  0.90426695839E+03 0.  0.
         23    2    4    4    0    0 -0.50134469155E+03  0.53037332015E+03 -0.72492681571E+03  0.10327342104E+04  0.91535254180E+02 0.  0.
         23    2    4    4    0    0 -0.24374249377E+03 -0.15083777454E+03  0.13899934069E+03  0.33116163683E+03  0.90469749089E+02 0.  0.
          4    1    3    3  502    0  0.67569391688E+03 -0.32374351256E+03 -0.49890302421E+03  0.90015351957E+03  0.00000000000E+00 0. -1.
         -3    1    3    3    0  502  0.69393268429E+02 -0.55792033052E+02 -0.38688580735E+02  0.97082351304E+02  0.00000000000E+00 0.  1.
         11    1    5    5    0    0 -0.22876169871E+03  0.29773852090E+03 -0.33569631249E+03  0.50365876925E+03  0.00000000000E+00 0. -1.
        -11    1    5    5    0    0 -0.27258299283E+03  0.23263479925E+03 -0.38923050322E+03  0.52907544117E+03  0.00000000000E+00 0.  1.
          1    1    6    6  503    0 -0.14860801170E+03 -0.13521719513E+03  0.70628316613E+02  0.21297039726E+03  0.00000000000E+00 0. -1.
         -1    1    6    6    0  503 -0.95134482064E+02 -0.15620579413E+02  0.68371024073E+02  0.11819123957E+03  0.00000000000E+00 0.  1.
<mgrwt>
<rscale>  0 0.20766916E+04</rscale>
<asrwt>0</asrwt>
<pdfrwt beam="1">  1        2 0.26805006E+00 0.20766916E+04</pdfrwt>
<pdfrwt beam="2">  1       -1 0.95200973E-01 0.20766916E+04</pdfrwt>
<totfact> 0.10408558E+01</totfact>
</mgrwt>
</event>
<event>
12    6  0.1494052E-007  0.2985294E+04  0.7818608E-02  0.8247943E-01
          2   -1    0    0  501    0  0.00000000000E+00  0.00000000000E+00  0.16161479040E+04  0.16161479040E+04  0.00000000000E+00 0. -1.
         -1   -1    0    0    0  501 -0.00000000000E+00 -0.00000000000E+00 -0.13785838049E+04  0.13785838049E+04  0.00000000000E+00 0.  1.
         24    2    1    2    0    0  0.55253451774E+03 -0.96248631006E+03 -0.65017834652E+03  0.12884302246E+04  0.75141673109E+02 0.  0.
        254    2    1    2    0    0 -0.55253451774E+03  0.96248631006E+03  0.88774244564E+03  0.17063014843E+04  0.94430070170E+03 0.  0.
         23    2    4    4    0    0  0.58813754980E+02 -0.10895464649E+03  0.30200224666E+03  0.33754946911E+03  0.86047163475E+02 0.  0.
         23    2    4    4    0    0 -0.61134827272E+03  0.10714409565E+04  0.58574019898E+03  0.13687520152E+04  0.93048721092E+02 0.  0.
          2    1    3    3  502    0  0.20770832480E+03 -0.37673958337E+03 -0.21080306057E+03  0.47907556003E+03  0.00000000000E+00 0. -1.
         -1    1    3    3    0  502  0.34482619294E+03 -0.58574672669E+03 -0.43937528596E+03  0.80935466458E+03  0.00000000000E+00 0.  1.
         11    1    5    5    0    0 -0.17040956703E+02 -0.25938414340E+01  0.17898377710E+02  0.24849027011E+02  0.00000000000E+00 0.  1.
        -11    1    5    5    0    0  0.75854711683E+02 -0.10636080505E+03  0.28410386895E+03  0.31270044210E+03  0.00000000000E+00 0. -1.
          4    1    6    6  503    0 -0.47472244996E+03  0.89091875579E+03  0.50132256350E+03  0.11271299599E+04  0.00000000000E+00 0.  1.
         -4    1    6    6    0  503 -0.13662582276E+03  0.18052220076E+03  0.84417635485E+02  0.24162205527E+03  0.00000000000E+00 0. -1.
<mgrwt>
<rscale>  0 0.29852942E+04</rscale>
<asrwt>0</asrwt>
<pdfrwt beam="1">  1        2 0.24863814E+00 0.29852942E+04</pdfrwt>
<pdfrwt beam="2">  1       -1 0.21208982E+00 0.29852942E+04</pdfrwt>
<totfact> 0.13260080E+00</totfact>
</mgrwt>
</event>
<event>
12    6  0.1494052E-007  0.1350990E+04  0.7818608E-02  0.8990079E-01
          4   -1    0    0  501    0  0.00000000000E+00  0.00000000000E+00  0.30782134481E+03  0.30782134481E+03  0.00000000000E+00 0. -1.
         -3   -1    0    0    0  501 -0.00000000000E+00 -0.00000000000E+00 -0.14823311844E+04  0.14823311844E+04  0.00000000000E+00 0.  1.
         24    2    1    2    0    0 -0.11412835160E+03 -0.40268016345E+02 -0.75649133148E+03  0.77015428483E+03  0.78814301142E+02 0.  0.
        254    2    1    2    0    0  0.11412835160E+03  0.40268016345E+02 -0.41801850813E+03  0.10199982444E+04  0.92250211472E+03 0.  0.
         23    2    4    4    0    0  0.32020300445E+03  0.38856290819E+03 -0.27684192332E+03  0.58193896718E+03  0.92197686140E+02 0.  0.
         23    2    4    4    0    0 -0.20607465285E+03 -0.34829489185E+03 -0.14117658481E+03  0.43805927722E+03  0.90493138023E+02 0.  0.
          4    1    3    3  502    0 -0.56290517795E+01 -0.29807491453E+02 -0.94511637218E+02  0.99260376487E+02  0.00000000000E+00 0. -1.
         -3    1    3    3    0  502 -0.10849929982E+03 -0.10460524892E+02 -0.66197969426E+03  0.67089390835E+03  0.00000000000E+00 0.  1.
         11    1    5    5    0    0  0.31789521204E+03  0.37885631057E+03 -0.25177525457E+03  0.55495968206E+03  0.00000000000E+00 0.  1.
        -11    1    5    5    0    0  0.23077924063E+01  0.97065976241E+01 -0.25066668750E+02  0.26979285118E+02  0.00000000000E+00 0. -1.
          3    1    6    6  503    0 -0.20674453804E+02 -0.17510776495E+01 -0.94662571868E+00  0.20770060503E+02  0.00000000000E+00 0. -1.
         -3    1    6    6    0  503 -0.18540019905E+03 -0.34654381420E+03 -0.14022995909E+03  0.41728921672E+03  0.00000000000E+00 0.  1.
<mgrwt>
<rscale>  0 0.13509895E+04</rscale>
<asrwt>0</asrwt>
<pdfrwt beam="1">  1        4 0.47357130E-01 0.13509895E+04</pdfrwt>
<pdfrwt beam="2">  1       -3 0.22805095E+00 0.13509895E+04</pdfrwt>
<totfact> 0.95321449E-01</totfact>
</mgrwt>
</event>
<event>
12    6  0.1494052E-007  0.1189323E+04  0.7818608E-02  0.9122254E-01
          2   -1    0    0  501    0  0.00000000000E+00  0.00000000000E+00  0.79178747966E+03  0.79178747966E+03  0.00000000000E+00 0. -1.
         -1   -1    0    0    0  501 -0.00000000000E+00 -0.00000000000E+00 -0.44661246897E+03  0.44661246897E+03  0.00000000000E+00 0.  1.
         24    2    1    2    0    0  0.20542576170E+03  0.12294469775E+03  0.74693055008E+01  0.25301984280E+03  0.81535931038E+02 0.  0.
        254    2    1    2    0    0 -0.20542576170E+03 -0.12294469775E+03  0.33770570519E+03  0.98538010583E+03  0.89421119841E+03 0.  0.
         23    2    4    4    0    0 -0.45915397625E+03 -0.74778039543E+02 -0.84764741119E+02  0.48160577790E+03  0.91350615039E+02 0.  0.
         23    2    4    4    0    0  0.25372821455E+03 -0.48166658208E+02  0.42247044631E+03  0.50377432792E+03  0.92786106982E+02 0.  0.
          4    1    3    3  502    0  0.12434986767E+03  0.97572688200E+02  0.38317380327E+02  0.16263929632E+03  0.00000000000E+00 0. -1.
         -3    1    3    3    0  502  0.81075894037E+02  0.25372009551E+02 -0.30848074826E+02  0.90380546486E+02  0.00000000000E+00 0.  1.
         11    1    5    5    0    0 -0.68730554986E+02 -0.44174285312E+02 -0.25064294798E+02  0.85460374123E+02  0.00000000000E+00 0. -1.
        -11    1    5    5    0    0 -0.39042342126E+03 -0.30603754231E+02 -0.59700446321E+02  0.39614540378E+03  0.00000000000E+00 0.  1.
          2    1    6    6  503    0  0.10515238581E+03 -0.22408064312E+02  0.95893185128E+02  0.14406473733E+03  0.00000000000E+00 0.  1.
         -2    1    6    6    0  503  0.14857582874E+03 -0.25758593897E+02  0.32657726118E+03  0.35970959059E+03  0.00000000000E+00 0. -1.
<mgrwt>
<rscale>  0 0.11893228E+04</rscale>
<asrwt>0</asrwt>
<pdfrwt beam="1">  1        2 0.12181346E+00 0.11893228E+04</pdfrwt>
<pdfrwt beam="2">  1       -1 0.68709611E-01 0.11893228E+04</pdfrwt>
<totfact> 0.84411639E+01</totfact>
</mgrwt>
</event>
<event>
12    6  0.1494052E-007  0.1726510E+04  0.7818608E-02  0.8746388E-01
         -1   -1    0    0    0  501 -0.00000000000E+00  0.00000000000E+00  0.29189827771E+03  0.29189827771E+03  0.00000000000E+00 0.  1.
          2   -1    0    0  501    0  0.00000000000E+00 -0.00000000000E+00 -0.25529743896E+04  0.25529743896E+04  0.00000000000E+00 0. -1.
         24    2    1    2    0    0  0.22641177146E+03 -0.29202402955E+03  0.60030138877E+01  0.37834164160E+03  0.81031089687E+02 0.  0.
        254    2    1    2    0    0 -0.22641177146E+03  0.29202402955E+03 -0.22670791258E+04  0.24665310257E+04  0.89865856373E+03 0.  0.
         23    2    4    4    0    0 -0.99179275946E+02  0.53295558131E+03 -0.79418070089E+03  0.96569133964E+03  0.89210971042E+02 0.  0.
         23    2    4    4    0    0 -0.12723249552E+03 -0.24093155175E+03 -0.14728984249E+04  0.15008396861E+04  0.94095019626E+02 0.  0.
          4    1    3    3  502    0  0.10615679873E+03 -0.10886837567E+03 -0.33497890817E+02  0.15570387865E+03  0.00000000000E+00 0. -1.
         -3    1    3    3    0  502  0.12025497273E+03 -0.18315565389E+03  0.39500904705E+02  0.22263776295E+03  0.00000000000E+00 0.  1.
         11    1    5    5    0    0 -0.35163879955E+02  0.39640162595E+03 -0.55496618080E+03  0.68290424610E+03  0.00000000000E+00 0.  1.
        -11    1    5    5    0    0 -0.64015395991E+02  0.13655395536E+03 -0.23921452009E+03  0.28278709354E+03  0.00000000000E+00 0. -1.
          3    1    6    6  503    0 -0.19565869838E+02 -0.24045245769E+02 -0.62046190702E+02  0.69359403740E+02  0.00000000000E+00 0. -1.
         -3    1    6    6    0  503 -0.10766662568E+03 -0.21688630599E+03 -0.14108522342E+04  0.14314802823E+04  0.00000000000E+00 0.  1.
<mgrwt>
<rscale>  0 0.17265096E+04</rscale>
<asrwt>0</asrwt>
<pdfrwt beam="1">  1        2 0.39276527E+00 0.17265096E+04</pdfrwt>
<pdfrwt beam="2">  1       -1 0.44907430E-01 0.17265096E+04</pdfrwt>
<totfact> 0.17266817E+01</totfact>
</mgrwt>
</event>
<event>
12    6  0.1494052E-007  0.1377594E+04  0.7818608E-02  0.8970199E-01
          2   -1    0    0  501    0  0.00000000000E+00  0.00000000000E+00  0.65734483275E+03  0.65734483275E+03  0.00000000000E+00 0. -1.
         -1   -1    0    0    0  501 -0.00000000000E+00 -0.00000000000E+00 -0.72175358946E+03  0.72175358946E+03  0.00000000000E+00 0.  1.
         24    2    1    2    0    0  0.28493370714E+03  0.65903659071E+02  0.19230435749E+03  0.35891960442E+03  0.79446880266E+02 0.  0.
        254    2    1    2    0    0 -0.28493370714E+03 -0.65903659071E+02 -0.25671311420E+03  0.10201788178E+04  0.94304437198E+03 0.  0.
         23    2    4    4    0    0 -0.31330692980E+02  0.24666353528E+03 -0.48168002682E+03  0.55008309670E+03  0.93548132436E+02 0.  0.
         23    2    4    4    0    0 -0.25360301416E+03 -0.31256719435E+03  0.22496691262E+03  0.47009572109E+03  0.91472047310E+02 0.  0.
          2    1    3    3  502    0  0.28865732039E+03  0.66716935648E+02  0.18145256945E+03  0.34741795157E+03  0.00000000000E+00 0. -1.
         -1    1    3    3    0  502 -0.37236132516E+01 -0.81327657712E+00  0.10851788042E+02  0.11501652844E+02  0.00000000000E+00 0.  1.
         11    1    5    5    0    0  0.18374628070E+01  0.22676291151E+03 -0.41895041920E+03  0.47638665814E+03  0.00000000000E+00 0.  1.
        -11    1    5    5    0    0 -0.33168155787E+02  0.19900623769E+02 -0.62729607623E+02  0.73696438565E+02  0.00000000000E+00 0. -1.
          2    1    6    6  503    0 -0.53478657553E+01 -0.34164988292E+02  0.16855692134E+00  0.34581418487E+02  0.00000000000E+00 0. -1.
         -2    1    6    6    0  503 -0.24825514840E+03 -0.27840220605E+03  0.22479835570E+03  0.43551430260E+03  0.00000000000E+00 0.  1.
<mgrwt>
<rscale>  0 0.13775935E+04</rscale>
<asrwt>0</asrwt>
<pdfrwt beam="1">  1        2 0.10112997E+00 0.13775935E+04</pdfrwt>
<pdfrwt beam="2">  1       -1 0.11103901E+00 0.13775935E+04</pdfrwt>
<totfact> 0.36872789E+01</totfact>
</mgrwt>
</event>
<event>
12    6  0.1494052E-007  0.1910321E+04  0.7818608E-02  0.8649736E-01
         -1   -1    0    0    0  501 -0.00000000000E+00  0.00000000000E+00  0.40032255719E+03  0.40032255719E+03  0.00000000000E+00 0.  1.
          2   -1    0    0  501    0  0.00000000000E+00 -0.00000000000E+00 -0.22789921565E+04  0.22789921565E+04  0.00000000000E+00 0. -1.
         24    2    1    2    0    0  0.79008162396E+02  0.57390769839E+03 -0.93510782879E+02  0.59216284053E+03  0.79373970495E+02 0.  0.
        254    2    1    2    0    0 -0.79008162396E+02 -0.57390769839E+03 -0.17851588164E+04  0.20871518732E+04  0.91312573382E+03 0.  0.
         23    2    4    4    0    0  0.66879972571E+02 -0.64107234270E+03 -0.59179562567E+03  0.87955597718E+03  0.89162632975E+02 0.  0.
         23    2    4    4    0    0 -0.14588813497E+03  0.67164644317E+02 -0.11933631908E+04  0.12075958960E+04  0.91529806941E+02 0.  0.
          4    1    3    3  502    0  0.32005148740E+02  0.38930144112E+03 -0.93574796562E+02  0.40166675759E+03  0.00000000000E+00 0. -1.
         -3    1    3    3    0  502  0.47003013657E+02  0.18460625727E+03  0.64013683298E-01  0.19049608293E+03  0.00000000000E+00 0.  1.
         11    1    5    5    0    0  0.23376614408E+02 -0.38205242679E+02 -0.57022208104E+02  0.72509577894E+02  0.00000000000E+00 0. -1.
        -11    1    5    5    0    0  0.43503358163E+02 -0.60286710002E+03 -0.53477341757E+03  0.80704639929E+03  0.00000000000E+00 0.  1.
          3    1    6    6  503    0 -0.42391422211E+02 -0.10910642229E+02 -0.15147607160E+03  0.15767395174E+03  0.00000000000E+00 0. -1.
         -3    1    6    6    0  503 -0.10349671276E+03  0.78075286546E+02 -0.10418871192E+04  0.10499219442E+04  0.00000000000E+00 0.  1.
<mgrwt>
<rscale>  0 0.19103214E+04</rscale>
<asrwt>0</asrwt>
<pdfrwt beam="1">  1        2 0.35061418E+00 0.19103214E+04</pdfrwt>
<pdfrwt beam="2">  1       -1 0.61588085E-01 0.19103214E+04</pdfrwt>
<totfact> 0.13278655E+01</totfact>
</mgrwt>
</event>
<event>
12    6  0.1494052E-007  0.1614931E+04  0.7818608E-02  0.8811428E-01
         -1   -1    0    0    0  501 -0.00000000000E+00  0.00000000000E+00  0.33235684013E+03  0.33235684013E+03  0.00000000000E+00 0.  1.
          2   -1    0    0  501    0  0.00000000000E+00 -0.00000000000E+00 -0.19617479318E+04  0.19617479318E+04  0.00000000000E+00 0. -1.
         24    2    1    2    0    0  0.10069195701E+03  0.52871256561E+03 -0.76437675735E+03  0.93820575221E+03  0.79261334043E+02 0.  0.
        254    2    1    2    0    0 -0.10069195701E+03 -0.52871256561E+03 -0.86501433436E+03  0.13558990198E+04  0.89472705665E+03 0.  0.
         23    2    4    4    0    0 -0.33167440449E+03  0.72070604984E+02 -0.13067602112E+03  0.37547574985E+03  0.93293802181E+02 0.  0.
         23    2    4    4    0    0  0.23098244748E+03 -0.60078317059E+03 -0.73433831323E+03  0.98042326992E+03  0.87656835416E+02 0.  0.
          4    1    3    3  502    0  0.32540828427E+02  0.24887009460E+03 -0.41978388407E+03  0.48909481578E+03  0.00000000000E+00 0. -1.
         -3    1    3    3    0  502  0.68151128587E+02  0.27984247101E+03 -0.34459287328E+03  0.44911093643E+03  0.00000000000E+00 0.  1.
         11    1    5    5    0    0 -0.29247247388E+03  0.67394438338E+02 -0.78843310368E+02  0.31031987672E+03  0.00000000000E+00 0. -1.
        -11    1    5    5    0    0 -0.39201930610E+02  0.46761666463E+01 -0.51832710757E+02  0.65155873124E+02  0.00000000000E+00 0.  1.
          3    1    6    6  503    0  0.13902904021E+03 -0.42163645578E+03 -0.55540541112E+03  0.71104257648E+03  0.00000000000E+00 0. -1.
         -3    1    6    6    0  503  0.91953407269E+02 -0.17914671482E+03 -0.17893290211E+03  0.26938069344E+03  0.00000000000E+00 0.  1.
<mgrwt>
<rscale>  0 0.16149308E+04</rscale>
<asrwt>0</asrwt>
<pdfrwt beam="1">  1        2 0.30180737E+00 0.16149308E+04</pdfrwt>
<pdfrwt beam="2">  1       -1 0.51131823E-01 0.16149308E+04</pdfrwt>
<totfact> 0.29445289E+01</totfact>
</mgrwt>
</event>
<event>
12    6  0.1494052E-007  0.1932491E+04  0.7818608E-02  0.8638850E-01
          2   -1    0    0  501    0  0.00000000000E+00  0.00000000000E+00  0.48723909754E+03  0.48723909754E+03  0.00000000000E+00 0. -1.
         -1   -1    0    0    0  501 -0.00000000000E+00 -0.00000000000E+00 -0.19161650996E+04  0.19161650996E+04  0.00000000000E+00 0.  1.
         24    2    1    2    0    0  0.49399161795E+03  0.55070818272E+03 -0.36730662450E+03  0.82970974710E+03  0.78720308167E+02 0.  0.
        254    2    1    2    0    0 -0.49399161795E+03 -0.55070818272E+03 -0.10616193775E+04  0.15736944500E+04  0.89564016107E+03 0.  0.
         23    2    4    4    0    0 -0.52093698565E+03 -0.71824876593E+03 -0.10536114803E+04  0.13804035351E+04  0.90333468425E+02 0.  0.
         23    2    4    4    0    0  0.26945367706E+02  0.16754058321E+03 -0.80078971902E+01  0.19329091487E+03  0.92202773771E+02 0.  0.
          2    1    3    3  502    0  0.20655185799E+02  0.37505066033E+02 -0.49043977777E+01  0.43096633234E+02  0.00000000000E+00 0. -1.
         -1    1    3    3    0  502  0.47333643215E+03  0.51320311668E+03 -0.36240222673E+03  0.78661311387E+03  0.00000000000E+00 0.  1.
         11    1    5    5    0    0 -0.47379207301E+03 -0.68944046670E+03 -0.98419680235E+03  0.12916851131E+04  0.00000000000E+00 0. -1.
        -11    1    5    5    0    0 -0.47144912643E+02 -0.28808299228E+02 -0.69414677962E+02  0.88718422039E+02  0.00000000000E+00 0.  1.
          4    1    6    6  503    0  0.36510321618E+02  0.17334157619E+03  0.35845630494E+01  0.17718113532E+03  0.00000000000E+00 0. -1.
         -4    1    6    6    0  503 -0.95649539117E+01 -0.58009929776E+01 -0.11592460240E+02  0.16109779554E+02  0.00000000000E+00 0.  1.
<mgrwt>
<rscale>  0 0.19324912E+04</rscale>
<asrwt>0</asrwt>
<pdfrwt beam="1">  1        2 0.74959863E-01 0.19324912E+04</pdfrwt>
<pdfrwt beam="2">  1       -1 0.29479462E+00 0.19324912E+04</pdfrwt>
<totfact> 0.24192481E+00</totfact>
</mgrwt>
</event>
<event>
12    6  0.1494052E-007  0.2329592E+04  0.7818608E-02  0.8466344E-01
          2   -1    0    0  501    0  0.00000000000E+00  0.00000000000E+00  0.11311163614E+04  0.11311163614E+04  0.00000000000E+00 0. -1.
         -1   -1    0    0    0  501 -0.00000000000E+00 -0.00000000000E+00 -0.11994782417E+04  0.11994782417E+04  0.00000000000E+00 0.  1.
         24    2    1    2    0    0 -0.29860858292E+03  0.64730573215E+02  0.91231214858E+03  0.96524843503E+03  0.77678516747E+02 0.  0.
        254    2    1    2    0    0  0.29860858292E+03 -0.64730573215E+02 -0.98067402893E+03  0.13653461681E+04  0.89949512211E+03 0.  0.
         23    2    4    4    0    0  0.10798814861E+03  0.34162359010E+03 -0.11541774088E+03  0.38688083426E+03  0.89372296897E+02 0.  0.
         23    2    4    4    0    0  0.19062043431E+03 -0.40635416332E+03 -0.86525628805E+03  0.97846533380E+03  0.85241477094E+02 0.  0.
          4    1    3    3  502    0 -0.20305558657E+03  0.11900729282E+02  0.53146125369E+03  0.56905558847E+03  0.00000000000E+00 0. -1.
         -3    1    3    3    0  502 -0.95552996357E+02  0.52829843932E+02  0.38085089490E+03  0.39619284656E+03  0.00000000000E+00 0.  1.
         11    1    5    5    0    0  0.54786819724E+02  0.76150781198E+02 -0.57414931159E+02  0.10998641467E+03  0.00000000000E+00 0. -1.
        -11    1    5    5    0    0  0.53201328883E+02  0.26547280890E+03 -0.58002809726E+02  0.27689441959E+03  0.00000000000E+00 0.  1.
          3    1    6    6  503    0  0.65431027224E+01 -0.94391929661E+02 -0.18336333867E+03  0.20633652742E+03  0.00000000000E+00 0. -1.
         -3    1    6    6    0  503  0.18407733159E+03 -0.31196223365E+03 -0.68189294937E+03  0.77212880638E+03  0.00000000000E+00 0.  1.
<mgrwt>
<rscale>  0 0.23295918E+04</rscale>
<asrwt>0</asrwt>
<pdfrwt beam="1">  1        2 0.17401790E+00 0.23295918E+04</pdfrwt>
<pdfrwt beam="2">  1       -1 0.18453511E+00 0.23295918E+04</pdfrwt>
<totfact> 0.41515363E+00</totfact>
</mgrwt>
</event>
<event>
12    6  0.1494052E-007  0.1147697E+04  0.7818608E-02  0.9159910E-01
          2   -1    0    0  501    0  0.00000000000E+00  0.00000000000E+00  0.64987200908E+03  0.64987200908E+03  0.00000000000E+00 0. -1.
         -1   -1    0    0    0  501 -0.00000000000E+00 -0.00000000000E+00 -0.50671866787E+03  0.50671866787E+03  0.00000000000E+00 0.  1.
         24    2    1    2    0    0  0.13739407617E+03  0.27481850090E+02  0.17868557560E+03  0.24076586923E+03  0.80045515860E+02 0.  0.
        254    2    1    2    0    0 -0.13739407617E+03 -0.27481850090E+02 -0.35532234392E+02  0.91582480772E+03  0.90434515231E+03 0.  0.
         23    2    4    4    0    0  0.37596676137E+03 -0.17049944424E+02  0.35007535132E+02  0.38838180605E+03  0.89292740444E+02 0.  0.
         23    2    4    4    0    0 -0.51336083754E+03 -0.10431905666E+02 -0.70539769524E+02  0.52744300167E+03  0.97837041781E+02 0.  0.
          2    1    3    3  502    0  0.55541035980E+02  0.22976807671E+02  0.13522368732E+03  0.14798035674E+03  0.00000000000E+00 0. -1.
         -1    1    3    3    0  502  0.81853040190E+02  0.45050424185E+01  0.43461888277E+02  0.92785512491E+02  0.00000000000E+00 0.  1.
         11    1    5    5    0    0  0.33550656641E+02  0.18954419140E+02 -0.13171382769E+02  0.40723480819E+02  0.00000000000E+00 0. -1.
        -11    1    5    5    0    0  0.34241610473E+03 -0.36004363564E+02  0.48178917901E+02  0.34765832523E+03  0.00000000000E+00 0.  1.
          3    1    6    6  503    0 -0.74305483789E+02  0.70349735070E+01  0.23184777163E+02  0.78155803786E+02  0.00000000000E+00 0. -1.
         -3    1    6    6    0  503 -0.43905535375E+03 -0.17466879173E+02 -0.93724546687E+02  0.44928719788E+03  0.00000000000E+00 0.  1.
<mgrwt>
<rscale>  0 0.11476973E+04</rscale>
<asrwt>0</asrwt>
<pdfrwt beam="1">  1        2 0.99980310E-01 0.11476973E+04</pdfrwt>
<pdfrwt beam="2">  1       -1 0.77956718E-01 0.11476973E+04</pdfrwt>
<totfact> 0.83875858E+01</totfact>
</mgrwt>
</event>
<event>
12    6  0.1494052E-007  0.2048006E+04  0.7818608E-02  0.8584499E-01
          2   -1    0    0  501    0  0.00000000000E+00  0.00000000000E+00  0.26234290934E+04  0.26234290934E+04  0.00000000000E+00 0. -1.
         -1   -1    0    0    0  501 -0.00000000000E+00 -0.00000000000E+00 -0.39969921222E+03  0.39969921222E+03  0.00000000000E+00 0.  1.
         24    2    1    2    0    0 -0.27643312144E+03  0.14995327386E+03 -0.22728749637E+03  0.39601854561E+03  0.79182242267E+02 0.  0.
        254    2    1    2    0    0  0.27643312144E+03 -0.14995327386E+03  0.24510173776E+04  0.26271097600E+04  0.89180617351E+03 0.  0.
         23    2    4    4    0    0 -0.85926072556E+02 -0.14714987447E+03  0.54325217473E+02  0.20146079093E+03  0.92729960252E+02 0.  0.
         23    2    4    4    0    0  0.36235919400E+03 -0.28033993939E+01  0.23966921601E+04  0.24256489691E+04  0.91255501172E+02 0.  0.
          2    1    3    3  502    0 -0.51942042731E+02  0.14558290103E+02 -0.86080204251E+01  0.54626162499E+02  0.00000000000E+00 0. -1.
         -1    1    3    3    0  502 -0.22449107871E+03  0.13539498376E+03 -0.21867947594E+03  0.34139238311E+03  0.00000000000E+00 0.  1.
         11    1    5    5    0    0 -0.19261394370E+02 -0.10904081659E+03  0.63361563739E+01  0.11091008914E+03  0.00000000000E+00 0.  1.
        -11    1    5    5    0    0 -0.66664678185E+02 -0.38109057882E+02  0.47989061099E+02  0.90550701793E+02  0.00000000000E+00 0. -1.
          4    1    6    6  503    0  0.27233839500E+03  0.97695473078E+01  0.15178977388E+04  0.15421663953E+04  0.00000000000E+00 0. -1.
         -4    1    6    6    0  503  0.90020799001E+02 -0.12572946702E+02  0.87879442132E+03  0.88348257379E+03  0.00000000000E+00 0.  1.
<mgrwt>
<rscale>  0 0.20480064E+04</rscale>
<asrwt>0</asrwt>
<pdfrwt beam="1">  1        2 0.40360447E+00 0.20480064E+04</pdfrwt>
<pdfrwt beam="2">  1       -1 0.61492188E-01 0.20480064E+04</pdfrwt>
<totfact> 0.83356961E+00</totfact>
</mgrwt>
</event>
<event>
12    6  0.1494052E-007  0.2468098E+04  0.7818608E-02  0.8414440E-01
         -1   -1    0    0    0  501 -0.00000000000E+00  0.00000000000E+00  0.46130155922E+03  0.46130155922E+03  0.00000000000E+00 0.  1.
          2   -1    0    0  501    0  0.00000000000E+00 -0.00000000000E+00 -0.33012604360E+04  0.33012604360E+04  0.00000000000E+00 0. -1.
         24    2    1    2    0    0  0.13046992204E+03  0.29252403693E+03  0.31388959832E+03  0.45878330716E+03  0.96761202250E+02 0.  0.
        254    2    1    2    0    0 -0.13046992204E+03 -0.29252403693E+03 -0.31538484751E+04  0.33037786881E+04  0.93037664579E+03 0.  0.
         23    2    4    4    0    0 -0.24357923365E+03  0.13316973737E+03 -0.24594352796E+04  0.24767548629E+04  0.91802693735E+02 0.  0.
         23    2    4    4    0    0  0.11310931162E+03 -0.42569377430E+03 -0.69441319552E+03  0.82702382513E+03  0.88033035636E+02 0.  0.
          2    1    3    3  502    0  0.27374251002E+02  0.10959603486E+02  0.56009087068E+02  0.63296764219E+02  0.00000000000E+00 0. -1.
         -3    1    3    3    0  502  0.10309567104E+03  0.28156443344E+03  0.25788051125E+03  0.39548654294E+03  0.00000000000E+00 0.  1.
         11    1    5    5    0    0 -0.25123517315E+03  0.12822695725E+03 -0.24133150894E+04  0.24297429875E+04  0.00000000000E+00 0. -1.
        -11    1    5    5    0    0  0.76559394973E+01  0.49427801281E+01 -0.46120190224E+02  0.47011875428E+02  0.00000000000E+00 0.  1.
          2    1    6    6  503    0  0.18703219878E+02 -0.26563467087E+02 -0.97614632308E+02  0.10287878624E+03  0.00000000000E+00 0.  1.
         -2    1    6    6    0  503  0.94406091739E+02 -0.39913030722E+03 -0.59679856322E+03  0.72414503889E+03  0.00000000000E+00 0. -1.
<mgrwt>
<rscale>  0 0.24680977E+04</rscale>
<asrwt>0</asrwt>
<pdfrwt beam="1">  1        2 0.50788619E+00 0.24680977E+04</pdfrwt>
<pdfrwt beam="2">  1       -1 0.70969476E-01 0.24680977E+04</pdfrwt>
<totfact> 0.22695003E+00</totfact>
</mgrwt>
</event>
<event>
12    6  0.1494052E-007  0.1138111E+04  0.7818608E-02  0.9168822E-01
         -1   -1    0    0    0  501 -0.00000000000E+00  0.00000000000E+00  0.52442695783E+03  0.52442695783E+03  0.00000000000E+00 0.  1.
          2   -1    0    0  501    0  0.00000000000E+00 -0.00000000000E+00 -0.61748170535E+03  0.61748170535E+03  0.00000000000E+00 0. -1.
         24    2    1    2    0    0  0.11979202281E+03 -0.80779654550E+02  0.12653379468E+03  0.20749556423E+03  0.78537422034E+02 0.  0.
        254    2    1    2    0    0 -0.11979202281E+03  0.80779654550E+02 -0.21958854221E+03  0.93441309895E+03  0.89667900071E+03 0.  0.
         23    2    4    4    0    0 -0.16338210286E+03  0.45734429491E+03 -0.22620415930E+03  0.54350723255E+03  0.91511062304E+02 0.  0.
         23    2    4    4    0    0  0.43590080052E+02 -0.37656464036E+03  0.66156170925E+01  0.39090586640E+03  0.95197723447E+02 0.  0.
          4    1    3    3  502    0  0.46917010577E+02 -0.72063115536E+01  0.82047172765E+02  0.94788582469E+02  0.00000000000E+00 0. -1.
         -3    1    3    3    0  502  0.72875012235E+02 -0.73573342997E+02  0.44486621914E+02  0.11270698176E+03  0.00000000000E+00 0.  1.
         11    1    5    5    0    0 -0.12279584263E+03  0.22543928481E+03 -0.93218306317E+02  0.27311415697E+03  0.00000000000E+00 0.  1.
        -11    1    5    5    0    0 -0.40586260237E+02  0.23190501010E+03 -0.13298585298E+03  0.27039307558E+03  0.00000000000E+00 0. -1.
          2    1    6    6  503    0  0.68192434239E+02 -0.25238613114E+03 -0.17561995233E+02  0.26202555401E+03  0.00000000000E+00 0.  1.
         -2    1    6    6    0  503 -0.24602354187E+02 -0.12417850922E+03  0.24177612326E+02  0.12888031239E+03  0.00000000000E+00 0. -1.
<mgrwt>
<rscale>  0 0.11381108E+04</rscale>
<asrwt>0</asrwt>
<pdfrwt beam="1">  1        2 0.94997185E-01 0.11381108E+04</pdfrwt>
<pdfrwt beam="2">  1       -1 0.80681071E-01 0.11381108E+04</pdfrwt>
<totfact> 0.83093272E+01</totfact>
</mgrwt>
</event>
<event>
12    6  0.1494052E-007  0.2229495E+04  0.7818608E-02  0.8506251E-01
         -1   -1    0    0    0  501 -0.00000000000E+00  0.00000000000E+00  0.79429322482E+03  0.79429322482E+03  0.00000000000E+00 0.  1.
          2   -1    0    0  501    0  0.00000000000E+00 -0.00000000000E+00 -0.15644881741E+04  0.15644881741E+04  0.00000000000E+00 0. -1.
         24    2    1    2    0    0 -0.86178859356E+03  0.56147460329E+02 -0.70757173787E+03  0.11193221819E+04  0.79951643942E+02 0.  0.
        254    2    1    2    0    0  0.86178859356E+03 -0.56147460329E+02 -0.62623211454E+02  0.12394592171E+04  0.88685137810E+03 0.  0.
         23    2    4    4    0    0  0.40162063380E+03 -0.43593629800E+03  0.11294928194E+03  0.61077595004E+03  0.94605134376E+02 0.  0.
         23    2    4    4    0    0  0.46016795976E+03  0.37978883767E+03 -0.17557249339E+03  0.62868326701E+03  0.91776017429E+02 0.  0.
          2    1    3    3  502    0 -0.56138376798E+03  0.66617892939E+02 -0.43134370648E+03  0.71108865251E+03  0.00000000000E+00 0. -1.
         -1    1    3    3    0  502 -0.30040482558E+03 -0.10470432609E+02 -0.27622803139E+03  0.40823352938E+03  0.00000000000E+00 0.  1.
         11    1    5    5    0    0  0.12131864530E+03 -0.91775736418E+02  0.60943081309E+02  0.16387513128E+03  0.00000000000E+00 0. -1.
        -11    1    5    5    0    0  0.28030198849E+03 -0.34416056158E+03  0.52006200632E+02  0.44690081876E+03  0.00000000000E+00 0.  1.
          3    1    6    6  503    0  0.19703305850E+03  0.10550678076E+03 -0.69751470859E+02  0.23413452247E+03  0.00000000000E+00 0. -1.
         -3    1    6    6    0  503  0.26313490127E+03  0.27428205691E+03 -0.10582102254E+03  0.39454874454E+03  0.00000000000E+00 0.  1.
<mgrwt>
<rscale>  0 0.22294953E+04</rscale>
<asrwt>0</asrwt>
<pdfrwt beam="1">  1        2 0.24069049E+00 0.22294953E+04</pdfrwt>
<pdfrwt beam="2">  1       -1 0.12219896E+00 0.22294953E+04</pdfrwt>
<totfact> 0.71788440E+00</totfact>
</mgrwt>
</event>
<event>
12    6  0.1494052E-007  0.1538754E+04  0.7818608E-02  0.8859083E-01
         -1   -1    0    0    0  501 -0.00000000000E+00  0.00000000000E+00  0.27295976312E+03  0.27295976312E+03  0.00000000000E+00 0.  1.
          2   -1    0    0  501    0  0.00000000000E+00 -0.00000000000E+00 -0.21686006066E+04  0.21686006066E+04  0.00000000000E+00 0. -1.
         24    2    1    2    0    0  0.10934309984E+03  0.18392425299E+03 -0.13635708015E+04  0.13826367659E+04  0.81086690179E+02 0.  0.
        254    2    1    2    0    0 -0.10934309984E+03 -0.18392425299E+03 -0.53207004196E+03  0.10589236038E+04  0.89018909500E+03 0.  0.
         23    2    4    4    0    0  0.87693885281E+02 -0.35279967865E+03 -0.65722217968E+03  0.75674960196E+03  0.92580428987E+02 0.  0.
         23    2    4    4    0    0 -0.19703698512E+03  0.16887542566E+03  0.12515213772E+03  0.30217400186E+03  0.91124019482E+02 0.  0.
          4    1    3    3  502    0  0.10300667440E+03  0.18913963694E+03 -0.12223977699E+04  0.12412253965E+04  0.00000000000E+00 0. -1.
         -3    1    3    3    0  502  0.63364254402E+01 -0.52153839565E+01 -0.14117303164E+03  0.14141136934E+03  0.00000000000E+00 0.  1.
         11    1    5    5    0    0 -0.56776458153E+01 -0.15087508006E+03 -0.30148349530E+03  0.33717624973E+03  0.00000000000E+00 0. -1.
        -11    1    5    5    0    0  0.93371531096E+02 -0.20192459860E+03 -0.35573868438E+03  0.41957335223E+03  0.00000000000E+00 0.  1.
          4    1    6    6  503    0 -0.11938917072E+03  0.97645770120E+02  0.12217519701E+03  0.19676191011E+03  0.00000000000E+00 0. -1.
         -4    1    6    6    0  503 -0.77647814407E+02  0.71229655544E+02  0.29769407076E+01  0.10541209175E+03  0.00000000000E+00 0.  1.
<mgrwt>
<rscale>  0 0.15387537E+04</rscale>
<asrwt>0</asrwt>
<pdfrwt beam="1">  1        2 0.33363088E+00 0.15387537E+04</pdfrwt>
<pdfrwt beam="2">  1       -1 0.41993808E-01 0.15387537E+04</pdfrwt>
<totfact> 0.32892177E+01</totfact>
</mgrwt>
</event>
<event>
12    6  0.1494052E-007  0.1391832E+04  0.7818608E-02  0.8959752E-01
         -1   -1    0    0    0  501 -0.00000000000E+00  0.00000000000E+00  0.15833835476E+03  0.15833835476E+03  0.00000000000E+00 0.  1.
          2   -1    0    0  501    0  0.00000000000E+00 -0.00000000000E+00 -0.30586350278E+04  0.30586350278E+04  0.00000000000E+00 0. -1.
         24    2    1    2    0    0  0.28373768457E+03  0.18386084398E+02 -0.22966684620E+03  0.37982341485E+03  0.10331429951E+03 0.  0.
        254    2    1    2    0    0 -0.28373768457E+03 -0.18386084398E+02 -0.26706298268E+04  0.28371499677E+04  0.91450048962E+03 0.  0.
         23    2    4    4    0    0 -0.31639507585E+03  0.15601952464E+03 -0.34120806114E+03  0.49914725540E+03  0.90978599139E+02 0.  0.
         23    2    4    4    0    0  0.32657391273E+02 -0.17440560904E+03 -0.23294217657E+04  0.23380027123E+04  0.92558622271E+02 0.  0.
          4    1    3    3  502    0  0.17857969698E+03 -0.25102805235E+02 -0.18271823081E+03  0.25672321842E+03  0.00000000000E+00 0. -1.
         -3    1    3    3    0  502  0.10515798759E+03  0.43488889633E+02 -0.46948615382E+02  0.12310019643E+03  0.00000000000E+00 0.  1.
         11    1    5    5    0    0 -0.30589619044E+01 -0.51316025102E-01  0.56031526185E+01  0.63839799916E+01  0.00000000000E+00 0.  1.
        -11    1    5    5    0    0 -0.31333611394E+03  0.15607084066E+03 -0.34681121376E+03  0.49276327541E+03  0.00000000000E+00 0. -1.
          3    1    6    6  503    0  0.54357999726E+02 -0.98722955468E+02 -0.16897111336E+04  0.16934653020E+04  0.00000000000E+00 0. -1.
         -3    1    6    6    0  503 -0.21700608453E+02 -0.75682653569E+02 -0.63971063213E+03  0.64453741034E+03  0.00000000000E+00 0.  1.
<mgrwt>
<rscale>  0 0.13918322E+04</rscale>
<asrwt>0</asrwt>
<pdfrwt beam="1">  1        2 0.47055921E+00 0.13918322E+04</pdfrwt>
<pdfrwt beam="2">  1       -1 0.24359748E-01 0.13918322E+04</pdfrwt>
<totfact> 0.26235842E+01</totfact>
</mgrwt>
</event>
<event>
12    6  0.1494052E-007  0.1550637E+04  0.7818608E-02  0.8851461E-01
         -1   -1    0    0    0  501 -0.00000000000E+00  0.00000000000E+00  0.90444345926E+03  0.90444345926E+03  0.00000000000E+00 0.  1.
          2   -1    0    0  501    0  0.00000000000E+00 -0.00000000000E+00 -0.66462825002E+03  0.66462825002E+03  0.00000000000E+00 0. -1.
         24    2    1    2    0    0 -0.55391422062E+02  0.40481699403E+03 -0.23282235381E+03  0.47739080520E+03  0.82162790605E+02 0.  0.
        254    2    1    2    0    0  0.55391422062E+02 -0.40481699403E+03  0.47263756305E+03  0.10916809041E+04  0.89522953595E+03 0.  0.
         23    2    4    4    0    0  0.76374334607E+02  0.26141616612E+03  0.24803848733E+03  0.38252836970E+03  0.10311843450E+03 0.  0.
         23    2    4    4    0    0 -0.20982912546E+02 -0.66623316015E+03  0.22459907573E+03  0.70915253438E+03  0.90253342847E+02 0.  0.
          2    1    3    3  502    0 -0.21371973506E+02  0.34253996340E+03 -0.21213243963E+03  0.40347312143E+03  0.00000000000E+00 0. -1.
         -1    1    3    3    0  502 -0.34019448555E+02  0.62277030629E+02 -0.20689914184E+02  0.73917683764E+02  0.00000000000E+00 0.  1.
         11    1    5    5    0    0 -0.24856388163E+02  0.51765465971E+02  0.37077066737E+02  0.68353583502E+02  0.00000000000E+00 0.  1.
        -11    1    5    5    0    0  0.10123072277E+03  0.20965070015E+03  0.21096142059E+03  0.31417478620E+03  0.00000000000E+00 0. -1.
          2    1    6    6  503    0 -0.34987986957E+01 -0.63169762641E+03  0.19735817664E+03  0.66181899541E+03  0.00000000000E+00 0. -1.
         -2    1    6    6    0  503 -0.17484113850E+02 -0.34535533743E+02  0.27240899088E+02  0.47333538967E+02  0.00000000000E+00 0.  1.
<mgrwt>
<rscale>  0 0.15506369E+04</rscale>
<asrwt>0</asrwt>
<pdfrwt beam="1">  1        2 0.10225050E+00 0.15506369E+04</pdfrwt>
<pdfrwt beam="2">  1       -1 0.13914515E+00 0.15506369E+04</pdfrwt>
<totfact> 0.20484480E+01</totfact>
</mgrwt>
</event>
<event>
12    6  0.1494052E-007  0.1493825E+04  0.7818608E-02  0.8888570E-01
          2   -1    0    0  501    0  0.00000000000E+00  0.00000000000E+00  0.27496657818E+04  0.27496657818E+04  0.00000000000E+00 0. -1.
         -1   -1    0    0    0  501 -0.00000000000E+00 -0.00000000000E+00 -0.20288950480E+03  0.20288950480E+03  0.00000000000E+00 0.  1.
         24    2    1    2    0    0  0.19243777314E+03  0.21051075526E+03  0.15546039957E+04  0.15825573913E+04  0.79669559529E+02 0.  0.
        254    2    1    2    0    0 -0.19243777314E+03 -0.21051075526E+03  0.99217228128E+03  0.13699978953E+04  0.90063384498E+03 0.  0.
         23    2    4    4    0    0  0.11766844732E+03 -0.42315948068E+03  0.20510042789E+03  0.49316254205E+03  0.90737521339E+02 0.  0.
         23    2    4    4    0    0 -0.31010622045E+03  0.21264872542E+03  0.78707185339E+03  0.87683535323E+03  0.89290457986E+02 0.  0.
          4    1    3    3  502    0  0.62305816097E+02  0.10672206524E+03  0.82519625430E+03  0.83439826943E+03  0.00000000000E+00 0. -1.
         -3    1    3    3    0  502  0.13013195704E+03  0.10378869001E+03  0.72940774139E+03  0.74815912185E+03  0.00000000000E+00 0.  1.
         11    1    5    5    0    0  0.70562394145E+02 -0.35141760697E+03  0.13745634891E+03  0.38388492261E+03  0.00000000000E+00 0. -1.
        -11    1    5    5    0    0  0.47106053172E+02 -0.71741873715E+02  0.67644078979E+02  0.10927761944E+03  0.00000000000E+00 0.  1.
          1    1    6    6  503    0 -0.28466340296E+03  0.20679479369E+03  0.76717188614E+03  0.84400831902E+03  0.00000000000E+00 0. -1.
         -1    1    6    6    0  503 -0.25442817495E+02  0.58539317365E+01  0.19899967247E+02  0.32827034214E+02  0.00000000000E+00 0.  1.
<mgrwt>
<rscale>  0 0.14938251E+04</rscale>
<asrwt>0</asrwt>
<pdfrwt beam="1">  1        2 0.42302548E+00 0.14938251E+04</pdfrwt>
<pdfrwt beam="2">  1       -1 0.31213772E-01 0.14938251E+04</pdfrwt>
<totfact> 0.26100951E+01</totfact>
</mgrwt>
</event>
<event>
12    6  0.1494052E-007  0.9712605E+03  0.7818608E-02  0.9340640E-01
         -1   -1    0    0    0  501 -0.00000000000E+00  0.00000000000E+00  0.20714708838E+03  0.20714708838E+03  0.00000000000E+00 0.  1.
          2   -1    0    0  501    0  0.00000000000E+00 -0.00000000000E+00 -0.11384989804E+04  0.11384989804E+04  0.00000000000E+00 0. -1.
         24    2    1    2    0    0 -0.38844957535E+02 -0.17509938222E+02 -0.20256024986E+03  0.22213152007E+03  0.80599185617E+02 0.  0.
        254    2    1    2    0    0  0.38844957535E+02  0.17509938222E+02 -0.72879164218E+03  0.11235145487E+04  0.85400945827E+03 0.  0.
         23    2    4    4    0    0  0.23861022217E+03 -0.33315546924E+03 -0.49138761604E+03  0.64610233362E+03  0.89772108723E+02 0.  0.
         23    2    4    4    0    0 -0.19976526464E+03  0.35066540747E+03 -0.23740402614E+03  0.47741221510E+03  0.93216750382E+02 0.  0.
          4    1    3    3  502    0 -0.55738576624E+02 -0.28212220193E+02 -0.10206775405E+03  0.11966847835E+03  0.00000000000E+00 0. -1.
         -3    1    3    3    0  502  0.16893619090E+02  0.10702281972E+02 -0.10049249581E+03  0.10246304172E+03  0.00000000000E+00 0.  1.
         11    1    5    5    0    0 -0.70222550519E+01 -0.11735002556E+02 -0.26717171175E+02  0.30013823259E+02  0.00000000000E+00 0.  1.
        -11    1    5    5    0    0  0.24563247722E+03 -0.32142046669E+03 -0.46467044486E+03  0.61608851036E+03  0.00000000000E+00 0. -1.
          2    1    6    6  503    0 -0.19154088028E+03  0.32159004882E+03 -0.18645961649E+03  0.41818089017E+03  0.00000000000E+00 0. -1.
         -2    1    6    6    0  503 -0.82243843526E+01  0.29075358641E+02 -0.50944409655E+02  0.59231324932E+02  0.00000000000E+00 0.  1.
<mgrwt>
<rscale>  0 0.97126052E+03</rscale>
<asrwt>0</asrwt>
<pdfrwt beam="1">  1        2 0.17515369E+00 0.97126052E+03</pdfrwt>
<pdfrwt beam="2">  1       -1 0.31868783E-01 0.97126052E+03</pdfrwt>
<totfact> 0.21531250E+02</totfact>
</mgrwt>
</event>
<event>
12    6  0.1494052E-007  0.1995414E+04  0.7818608E-02  0.8608768E-01
         -1   -1    0    0    0  501 -0.00000000000E+00  0.00000000000E+00  0.13552087059E+04  0.13552087059E+04  0.00000000000E+00 0.  1.
          2   -1    0    0  501    0  0.00000000000E+00 -0.00000000000E+00 -0.73451338693E+03  0.73451338693E+03  0.00000000000E+00 0. -1.
         24    2    1    2    0    0  0.69516082192E+02  0.75123744067E+03  0.52885728124E+03  0.92500693980E+03  0.82204846649E+02 0.  0.
        254    2    1    2    0    0 -0.69516082192E+02 -0.75123744067E+03  0.91838037715E+02  0.11647151530E+04  0.88257406745E+03 0.  0.
         23    2    4    4    0    0 -0.37686617692E+03 -0.11221250485E+03  0.18435776680E+03  0.44376308567E+03  0.91203774458E+02 0.  0.
         23    2    4    4    0    0  0.30735009473E+03 -0.63902493582E+03 -0.92519729089E+02  0.72095206734E+03  0.91624417080E+02 0.  0.
          2    1    3    3  502    0  0.35416367281E+02  0.21039521681E+03  0.10970793790E+03  0.23990893682E+03  0.00000000000E+00 0. -1.
         -1    1    3    3    0  502  0.34099714911E+02  0.54084222386E+03  0.41914934334E+03  0.68509800298E+03  0.00000000000E+00 0.  1.
         11    1    5    5    0    0 -0.27618784626E+03 -0.11147522588E+03  0.10583362136E+03  0.31608101464E+03  0.00000000000E+00 0. -1.
        -11    1    5    5    0    0 -0.10067833066E+03 -0.73727896534E+00  0.78524145447E+02  0.12768207103E+03  0.00000000000E+00 0.  1.
          2    1    6    6  503    0  0.27957489237E+03 -0.49667352279E+03 -0.73095230908E+02  0.57462128525E+03  0.00000000000E+00 0.  1.
         -2    1    6    6    0  503  0.27775202360E+02 -0.14235141302E+03 -0.19424498180E+02  0.14633078208E+03  0.00000000000E+00 0. -1.
<mgrwt>
<rscale>  0 0.19954137E+04</rscale>
<asrwt>0</asrwt>
<pdfrwt beam="1">  1        2 0.11300206E+00 0.19954137E+04</pdfrwt>
<pdfrwt beam="2">  1       -1 0.20849365E+00 0.19954137E+04</pdfrwt>
<totfact> 0.53792056E+00</totfact>
</mgrwt>
</event>
<event>
12    6  0.1494052E-007  0.1348585E+04  0.7818608E-02  0.8991900E-01
          2   -1    0    0  501    0  0.00000000000E+00  0.00000000000E+00  0.72449333886E+03  0.72449333886E+03  0.00000000000E+00 0. -1.
         -1   -1    0    0    0  501 -0.00000000000E+00 -0.00000000000E+00 -0.62757056832E+03  0.62757056832E+03  0.00000000000E+00 0.  1.
         24    2    1    2    0    0 -0.11330968106E+03 -0.50989171383E+02  0.37245702211E+03  0.40045488801E+03  0.78745822706E+02 0.  0.
        254    2    1    2    0    0  0.11330968106E+03  0.50989171383E+02 -0.27553425156E+03  0.95160901917E+03  0.90233121533E+03 0.  0.
         23    2    4    4    0    0 -0.28330326366E+03 -0.24979004959E+03 -0.21033550131E+03  0.44128601400E+03  0.88524092576E+02 0.  0.
         23    2    4    4    0    0  0.39661294472E+03  0.30077922098E+03 -0.65198750248E+02  0.51032300517E+03  0.91699099655E+02 0.  0.
          2    1    3    3  502    0 -0.42034906355E+02 -0.58274185338E+02  0.14242108944E+03  0.15951984436E+03  0.00000000000E+00 0. -1.
         -3    1    3    3    0  502 -0.71274774708E+02  0.72850139555E+01  0.23003593267E+03  0.24093504365E+03  0.00000000000E+00 0.  1.
         11    1    5    5    0    0 -0.66913617585E+01 -0.52784621654E+01  0.85629450561E+01  0.12081411881E+02  0.00000000000E+00 0. -1.
        -11    1    5    5    0    0 -0.27661190190E+03 -0.24451158743E+03 -0.21889844637E+03  0.42920460212E+03  0.00000000000E+00 0.  1.
          4    1    6    6  503    0  0.68145195824E+02  0.89010540790E+02  0.92396906033E+01  0.11248118051E+03  0.00000000000E+00 0. -1.
         -4    1    6    6    0  503  0.32846774889E+03  0.21176868019E+03 -0.74438440851E+02  0.39784182466E+03  0.00000000000E+00 0.  1.
<mgrwt>
<rscale>  0 0.13485855E+04</rscale>
<asrwt>0</asrwt>
<pdfrwt beam="1">  1        2 0.11146051E+00 0.13485855E+04</pdfrwt>
<pdfrwt beam="2">  1       -1 0.96549319E-01 0.13485855E+04</pdfrwt>
<totfact> 0.45188608E+01</totfact>
</mgrwt>
</event>
<event>
12    6  0.1494052E-007  0.2098414E+04  0.7818608E-02  0.8561942E-01
          2   -1    0    0  501    0  0.00000000000E+00  0.00000000000E+00  0.21207514119E+04  0.21207514119E+04  0.00000000000E+00 0. -1.
         -1   -1    0    0    0  501 -0.00000000000E+00 -0.00000000000E+00 -0.51907800760E+03  0.51907800760E+03  0.00000000000E+00 0.  1.
         24    2    1    2    0    0 -0.39371323908E+02  0.84512185501E+03  0.72752211459E+03  0.11186123342E+04  0.78892813400E+02 0.  0.
        254    2    1    2    0    0  0.39371323908E+02 -0.84512185501E+03  0.87415128971E+03  0.15212170853E+04  0.91333449099E+03 0.  0.
         23    2    4    4    0    0 -0.20436700554E+03 -0.69369797531E+03  0.16288735911E+03  0.74781639776E+03  0.98561245396E+02 0.  0.
         23    2    4    4    0    0  0.24373832945E+03 -0.15142387970E+03  0.71126393060E+03  0.77340068757E+03  0.99572486022E+02 0.  0.
          2    1    3    3  502    0 -0.35259452725E+02  0.83569341394E+03  0.72714882540E+03  0.11083195051E+04  0.00000000000E+00 0. -1.
         -1    1    3    3    0  502 -0.41118711827E+01  0.94284410659E+01  0.37328918679E+00  0.10292829075E+02  0.00000000000E+00 0.  1.
         11    1    5    5    0    0 -0.17417564158E+03 -0.47566432469E+03  0.14541640659E+03  0.52701009023E+03  0.00000000000E+00 0. -1.
        -11    1    5    5    0    0 -0.30191363963E+02 -0.21803365062E+03  0.17470952519E+02  0.22080630752E+03  0.00000000000E+00 0.  1.
          2    1    6    6  503    0  0.13377932918E+03 -0.45082766172E+02  0.24592043545E+03  0.28355991482E+03  0.00000000000E+00 0. -1.
         -2    1    6    6    0  503  0.10995900027E+03 -0.10634111353E+03  0.46534349515E+03  0.48984077275E+03  0.00000000000E+00 0.  1.
<mgrwt>
<rscale>  0 0.20984141E+04</rscale>
<asrwt>0</asrwt>
<pdfrwt beam="1">  1        2 0.32626944E+00 0.20984141E+04</pdfrwt>
<pdfrwt beam="2">  1       -1 0.79858156E-01 0.20984141E+04</pdfrwt>
<totfact> 0.93974983E+00</totfact>
</mgrwt>
</event>
<event>
12    6  0.1494052E-007  0.2353078E+04  0.7818608E-02  0.8457282E-01
          2   -1    0    0  501    0  0.00000000000E+00  0.00000000000E+00  0.19123912378E+04  0.19123912378E+04  0.00000000000E+00 0. -1.
         -1   -1    0    0    0  501 -0.00000000000E+00 -0.00000000000E+00 -0.72382877931E+03  0.72382877931E+03  0.00000000000E+00 0.  1.
         24    2    1    2    0    0  0.49219264712E+03 -0.66548244213E+03  0.11148225689E+04  0.13901689343E+04  0.67969280864E+02 0.  0.
        254    2    1    2    0    0 -0.49219264712E+03  0.66548244213E+03  0.73739889610E+02  0.12460510828E+04  0.92848545870E+03 0.  0.
         23    2    4    4    0    0 -0.30554892163E+03  0.16780824792E+03  0.45847106984E+03  0.58359725297E+03  0.94182165011E+02 0.  0.
         23    2    4    4    0    0 -0.18664372548E+03  0.49767419421E+03 -0.38473118023E+03  0.66245382985E+03  0.91167493090E+02 0.  0.
          2    1    3    3  502    0  0.45772839302E+03 -0.58464068947E+03  0.98959318874E+03  0.12371801392E+04  0.00000000000E+00 0. -1.
         -3    1    3    3    0  502  0.34464254098E+02 -0.80841752661E+02  0.12522938015E+03  0.15298879514E+03  0.00000000000E+00 0.  1.
         11    1    5    5    0    0 -0.22316791771E+03  0.97909101483E+02  0.25196993832E+03  0.35054095547E+03  0.00000000000E+00 0.  1.
        -11    1    5    5    0    0 -0.82381003923E+02  0.69899146438E+02  0.20650113153E+03  0.23305629749E+03  0.00000000000E+00 0. -1.
          3    1    6    6  503    0 -0.58503708059E+02  0.22615995663E+03 -0.12224294325E+03  0.26365573579E+03  0.00000000000E+00 0. -1.
         -3    1    6    6    0  503 -0.12814001742E+03  0.27151423758E+03 -0.26248823698E+03  0.39879809406E+03  0.00000000000E+00 0.  1.
<mgrwt>
<rscale>  0 0.23530778E+04</rscale>
<asrwt>0</asrwt>
<pdfrwt beam="1">  1        2 0.29421403E+00 0.23530778E+04</pdfrwt>
<pdfrwt beam="2">  1       -1 0.11135827E+00 0.23530778E+04</pdfrwt>
<totfact> 0.56921141E+00</totfact>
</mgrwt>
</event>
<event>
12    6  0.1494052E-007  0.3115676E+04  0.7818608E-02  0.8211449E-01
         -1   -1    0    0    0  501 -0.00000000000E+00  0.00000000000E+00  0.65415411196E+03  0.65415411196E+03  0.00000000000E+00 0.  1.
          2   -1    0    0  501    0  0.00000000000E+00 -0.00000000000E+00 -0.37099200629E+04  0.37099200629E+04  0.00000000000E+00 0. -1.
         24    2    1    2    0    0  0.11109170684E+04  0.78734581438E+03 -0.19441415052E+04  0.23748891237E+04  0.79762104632E+02 0.  0.
        254    2    1    2    0    0 -0.11109170684E+04 -0.78734581438E+03 -0.11116244457E+04  0.19891850511E+04  0.93118102151E+03 0.  0.
         23    2    4    4    0    0 -0.18510008742E+03  0.11048202951E+03 -0.51379818561E+03  0.56465886272E+03  0.91557274457E+02 0.  0.
         23    2    4    4    0    0 -0.92581698103E+03 -0.89782784390E+03 -0.59782626010E+03  0.14245261884E+04  0.92987657659E+02 0.  0.
          4    1    3    3  502    0  0.84424882001E+03  0.63828664819E+03 -0.15199571005E+04  0.18521434887E+04  0.00000000000E+00 0. -1.
         -3    1    3    3    0  502  0.26666824843E+03  0.14905916619E+03 -0.42418440468E+03  0.52274563501E+03  0.00000000000E+00 0.  1.
         11    1    5    5    0    0 -0.18023288298E+03  0.94202265284E+02 -0.39133722961E+03  0.44102470018E+03  0.00000000000E+00 0. -1.
        -11    1    5    5    0    0 -0.48672044404E+01  0.16279764229E+02 -0.12246095600E+03  0.12363416254E+03  0.00000000000E+00 0.  1.
          2    1    6    6  503    0 -0.85055898276E+03 -0.85603217163E+03 -0.55205325018E+03  0.13270284296E+04  0.00000000000E+00 0. -1.
         -2    1    6    6    0  503 -0.75257998266E+02 -0.41795672267E+02 -0.45773009916E+02  0.97497758743E+02  0.00000000000E+00 0.  1.
<mgrwt>
<rscale>  0 0.31156761E+04</rscale>
<asrwt>0</asrwt>
<pdfrwt beam="1">  1        2 0.57075694E+00 0.31156761E+04</pdfrwt>
<pdfrwt beam="2">  1       -1 0.10063909E+00 0.31156761E+04</pdfrwt>
<totfact> 0.51852255E-01</totfact>
</mgrwt>
</event>
<event>
12    6  0.1575478E-007  0.2416266E+04  0.7818608E-02  0.8433439E-01
          2   -1    0    0  501    0  0.00000000000E+00  0.00000000000E+00  0.22713931016E+04  0.22713931016E+04  0.00000000000E+00 0. -1.
         -1   -1    0    0    0  501 -0.00000000000E+00 -0.00000000000E+00 -0.64259496020E+03  0.64259496020E+03  0.00000000000E+00 0.  1.
         24    2    1    2    0    0  0.36387373041E+03  0.86194050915E+03  0.15343268863E+03  0.95134784224E+03  0.78584947692E+02 0.  0.
        254    2    1    2    0    0 -0.36387373041E+03 -0.86194050915E+03  0.14753654528E+04  0.19626402196E+04  0.89437569242E+03 0.  0.
         23    2    4    4    0    0 -0.65128780597E+03 -0.52341167399E+03  0.93048399002E+03  0.12538943928E+04  0.91187203019E+02 0.  0.
         23    2    4    4    0    0  0.28741407556E+03 -0.33852883516E+03  0.54488146275E+03  0.70874582673E+03  0.90643341726E+02 0.  0.
          4    1    3    3  502    0  0.84689196188E+01  0.52398038163E+02 -0.43543747434E+01  0.53256338423E+02  0.00000000000E+00 0. -1.
         -3    1    3    3    0  502  0.35540481079E+03  0.80954247098E+03  0.15778706337E+03  0.89809150381E+03  0.00000000000E+00 0.  1.
         11    1    5    5    0    0 -0.57827133322E+03 -0.42677477933E+03  0.77798465092E+03  0.10591480369E+04  0.00000000000E+00 0.  1.
        -11    1    5    5    0    0 -0.73016472751E+02 -0.96636894654E+02  0.15249933909E+03  0.19474635587E+03  0.00000000000E+00 0. -1.
          4    1    6    6  503    0  0.46808884898E+02 -0.23549574916E+02  0.35371147272E+02  0.63220030398E+02  0.00000000000E+00 0. -1.
         -4    1    6    6    0  503  0.24060519066E+03 -0.31497926024E+03  0.50951031548E+03  0.64552579634E+03  0.00000000000E+00 0.  1.
<mgrwt>
<rscale>  0 0.24162663E+04</rscale>
<asrwt>0</asrwt>
<pdfrwt beam="1">  1        2 0.34944509E+00 0.24162663E+04</pdfrwt>
<pdfrwt beam="2">  1       -1 0.98860765E-01 0.24162663E+04</pdfrwt>
<totfact> 0.47035657E+00</totfact>
</mgrwt>
</event>
<event>
12    6  0.1494052E-007  0.2373897E+04  0.7818608E-02  0.8449341E-01
          2   -1    0    0  501    0  0.00000000000E+00  0.00000000000E+00  0.17383142155E+04  0.17383142155E+04  0.00000000000E+00 0. -1.
         -1   -1    0    0    0  501 -0.00000000000E+00 -0.00000000000E+00 -0.81046721014E+03  0.81046721014E+03  0.00000000000E+00 0.  1.
         24    2    1    2    0    0  0.72532094383E+03  0.54593134757E+03 -0.75823738443E+02  0.91440131116E+03  0.79050684507E+02 0.  0.
        254    2    1    2    0    0 -0.72532094383E+03 -0.54593134757E+03  0.10036707438E+04  0.16343801145E+04  0.91635794799E+03 0.  0.
         23    2    4    4    0    0 -0.71293837314E+03 -0.28999088605E+03  0.22140661542E+03  0.80610899297E+03  0.91733207221E+02 0.  0.
         23    2    4    4    0    0 -0.12382570688E+02 -0.25594046152E+03  0.78226412841E+03  0.82827112153E+03  0.91853341102E+02 0.  0.
          4    1    3    3  502    0  0.41687632083E+03  0.32434141109E+03 -0.58598043667E+01  0.52822112332E+03  0.00000000000E+00 0. -1.
         -3    1    3    3    0  502  0.30844462299E+03  0.22158993648E+03 -0.69963934076E+02  0.38618018783E+03  0.00000000000E+00 0.  1.
         11    1    5    5    0    0 -0.22784921845E+03 -0.50280840148E+02  0.82408814359E+02  0.24745634346E+03  0.00000000000E+00 0.  1.
        -11    1    5    5    0    0 -0.48508915468E+03 -0.23971004591E+03  0.13899780106E+03  0.55865264950E+03  0.00000000000E+00 0. -1.
          2    1    6    6  503    0  0.36057715279E+01 -0.24658196521E+03  0.65916175343E+03  0.70378255473E+03  0.00000000000E+00 0. -1.
         -2    1    6    6    0  503 -0.15988342216E+02 -0.93584963115E+01  0.12310237497E+03  0.12448856680E+03  0.00000000000E+00 0.  1.
<mgrwt>
<rscale>  0 0.23738969E+04</rscale>
<asrwt>0</asrwt>
<pdfrwt beam="1">  1        2 0.26743296E+00 0.23738969E+04</pdfrwt>
<pdfrwt beam="2">  1       -1 0.12468726E+00 0.23738969E+04</pdfrwt>
<totfact> 0.53947341E+00</totfact>
</mgrwt>
</event>
<event>
12    6  0.1525342E-007  0.1385405E+04  0.7818608E-02  0.8964451E-01
          2   -1    0    0  501    0  0.00000000000E+00  0.00000000000E+00  0.10517957349E+04  0.10517957349E+04  0.00000000000E+00 0. -1.
         -1   -1    0    0    0  501 -0.00000000000E+00 -0.00000000000E+00 -0.45620741486E+03  0.45620741486E+03  0.00000000000E+00 0.  1.
         24    2    1    2    0    0  0.27633385502E+03  0.32742071283E+01 -0.11986565561E+03  0.31152123675E+03  0.79414014427E+02 0.  0.
        254    2    1    2    0    0 -0.27633385502E+03 -0.32742071283E+01  0.71545397567E+03  0.11964819130E+04  0.91832644362E+03 0.  0.
         23    2    4    4    0    0 -0.15526928274E+03 -0.32186122632E+03  0.75596891171E+03  0.84141040881E+03  0.93697819616E+02 0.  0.
         23    2    4    4    0    0 -0.12106457228E+03  0.31858701919E+03 -0.40514936046E+02  0.35507150423E+03  0.90994470225E+02 0.  0.
          4    1    3    3  502    0  0.42298994233E+02 -0.26066185484E+02 -0.74708404951E+01  0.50244048369E+02  0.00000000000E+00 0. -1.
         -3    1    3    3    0  502  0.23403486079E+03  0.29340392613E+02 -0.11239481511E+03  0.26127718838E+03  0.00000000000E+00 0.  1.
         11    1    5    5    0    0 -0.10376201851E+03 -0.20911627631E+03  0.58809322265E+03  0.63273202229E+03  0.00000000000E+00 0. -1.
        -11    1    5    5    0    0 -0.51507264230E+02 -0.11274495001E+03  0.16787568907E+03  0.20867838652E+03  0.00000000000E+00 0.  1.
          3    1    6    6  503    0 -0.97564413995E+02  0.22382685036E+03 -0.68345651364E+02  0.25355157638E+03  0.00000000000E+00 0. -1.
         -3    1    6    6    0  503 -0.23500158287E+02  0.94760168827E+02  0.27830715318E+02  0.10151992785E+03  0.00000000000E+00 0.  1.
<mgrwt>
<rscale>  0 0.13854054E+04</rscale>
<asrwt>0</asrwt>
<pdfrwt beam="1">  1        2 0.16181473E+00 0.13854054E+04</pdfrwt>
<pdfrwt beam="2">  1       -1 0.70185756E-01 0.13854054E+04</pdfrwt>
<totfact> 0.53254435E+01</totfact>
</mgrwt>
</event>
<event>
12    6  0.1494052E-007  0.1523598E+04  0.7818608E-02  0.8868910E-01
         -3   -1    0    0    0  501 -0.00000000000E+00  0.00000000000E+00  0.77073999440E+03  0.77073999440E+03  0.00000000000E+00 0.  1.
          2   -1    0    0  501    0  0.00000000000E+00 -0.00000000000E+00 -0.75296188795E+03  0.75296188795E+03  0.00000000000E+00 0. -1.
         24    2    1    2    0    0 -0.44622356181E+03  0.76903952210E+02 -0.18737449100E+03  0.49655960972E+03  0.80203248981E+02 0.  0.
        254    2    1    2    0    0  0.44622356181E+03 -0.76903952210E+02  0.20515259745E+03  0.10271422726E+04  0.89883478738E+03 0.  0.
         23    2    4    4    0    0  0.16259971858E+03 -0.31899991510E+03  0.44100131765E+03  0.57646088698E+03  0.98109009416E+02 0.  0.
         23    2    4    4    0    0  0.28362384322E+03  0.24209596289E+03 -0.23584872020E+03  0.45068138565E+03  0.91848532146E+02 0.  0.
          4    1    3    3  502    0 -0.44590284029E+03  0.70948831455E+02 -0.19022751179E+03  0.48994855435E+03  0.00000000000E+00 0. -1.
         -3    1    3    3    0  502 -0.32072151782E+00  0.59551207550E+01  0.28530207902E+01  0.66110553717E+01  0.00000000000E+00 0.  1.
         11    1    5    5    0    0  0.15569140675E+02 -0.12503594856E+03  0.17841580718E+03  0.21842295398E+03  0.00000000000E+00 0. -1.
        -11    1    5    5    0    0  0.14703057791E+03 -0.19396396654E+03  0.26258551047E+03  0.35803793300E+03  0.00000000000E+00 0.  1.
          3    1    6    6  503    0  0.23314412412E+03  0.15967722501E+03 -0.14318976127E+03  0.31679063517E+03  0.00000000000E+00 0. -1.
         -3    1    6    6    0  503  0.50479719108E+02  0.82418737872E+02 -0.92658958930E+02  0.13389075048E+03  0.00000000000E+00 0.  1.
<mgrwt>
<rscale>  0 0.15235982E+04</rscale>
<asrwt>0</asrwt>
<pdfrwt beam="1">  1        2 0.11584029E+00 0.15235982E+04</pdfrwt>
<pdfrwt beam="2">  1       -3 0.11857538E+00 0.15235982E+04</pdfrwt>
<totfact> 0.13223743E+01</totfact>
</mgrwt>
</event>
<event>
12    6  0.1494052E-007  0.2634367E+04  0.7818608E-02  0.8356620E-01
         -1   -1    0    0    0  501 -0.00000000000E+00  0.00000000000E+00  0.12626208013E+04  0.12626208013E+04  0.00000000000E+00 0.  1.
          2   -1    0    0  501    0  0.00000000000E+00 -0.00000000000E+00 -0.13741036980E+04  0.13741036980E+04  0.00000000000E+00 0. -1.
         24    2    1    2    0    0 -0.29072612526E+03  0.77831616418E+03 -0.86664444522E+03  0.12032124006E+04  0.79685351798E+02 0.  0.
        254    2    1    2    0    0  0.29072612526E+03 -0.77831616418E+03  0.75516154851E+03  0.14335120987E+04  0.89128572373E+03 0.  0.
         23    2    4    4    0    0  0.54435333854E+03 -0.71321592591E+03  0.72023448594E+03  0.11539447633E+04  0.88618778054E+02 0.  0.
         23    2    4    4    0    0 -0.25362721328E+03 -0.65100238275E+02  0.34927062571E+02  0.27956733538E+03  0.91505141776E+02 0.  0.
          2    1    3    3  502    0 -0.22775437243E+03  0.65132522221E+03 -0.75480679921E+03  0.10226582535E+04  0.00000000000E+00 0. -1.
         -3    1    3    3    0  502 -0.62971752832E+02  0.12699094197E+03 -0.11183764601E+03  0.18055414718E+03  0.00000000000E+00 0.  1.
         11    1    5    5    0    0  0.27300171120E+03 -0.30888727517E+03  0.37228582358E+03  0.55546198567E+03  0.00000000000E+00 0.  1.
        -11    1    5    5    0    0  0.27135162733E+03 -0.40432865074E+03  0.34794866236E+03  0.59848277762E+03  0.00000000000E+00 0. -1.
          4    1    6    6  503    0 -0.19921707225E+03 -0.13036605468E+02  0.87290923228E+01  0.19983391106E+03  0.00000000000E+00 0. -1.
         -4    1    6    6    0  503 -0.54410141027E+02 -0.52063632807E+02  0.26197970248E+02  0.79733424314E+02  0.00000000000E+00 0.  1.
<mgrwt>
<rscale>  0 0.26343667E+04</rscale>
<asrwt>0</asrwt>
<pdfrwt beam="1">  1        2 0.21140057E+00 0.26343667E+04</pdfrwt>
<pdfrwt beam="2">  1       -1 0.19424935E+00 0.26343667E+04</pdfrwt>
<totfact> 0.24827438E+00</totfact>
</mgrwt>
</event>
<event>
12    6  0.1494052E-007  0.1413551E+04  0.7818608E-02  0.8944068E-01
         -1   -1    0    0    0  501 -0.00000000000E+00  0.00000000000E+00  0.54213632603E+03  0.54213632603E+03  0.00000000000E+00 0.  1.
          2   -1    0    0  501    0  0.00000000000E+00 -0.00000000000E+00 -0.92141354262E+03  0.92141354262E+03  0.00000000000E+00 0. -1.
         24    2    1    2    0    0  0.26657607568E+03 -0.29662851903E+03 -0.11257111018E+02  0.40771922568E+03  0.84005726070E+02 0.  0.
        254    2    1    2    0    0 -0.26657607568E+03  0.29662851903E+03 -0.36802010558E+03  0.10558306430E+04  0.90569766816E+03 0.  0.
         23    2    4    4    0    0  0.92305364332E+02  0.41075086858E+03 -0.48773175165E+03  0.65066951936E+03  0.90840550066E+02 0.  0.
         23    2    4    4    0    0 -0.35888144001E+03 -0.11412234954E+03  0.11971164608E+03  0.40516112361E+03  0.89469878889E+02 0.  0.
          4    1    3    3  502    0  0.64460154722E+02 -0.75506551167E+02 -0.39427397903E+02  0.10682167627E+03  0.00000000000E+00 0. -1.
         -3    1    3    3    0  502  0.20211592096E+03 -0.22112196786E+03  0.28170286885E+02  0.30089754941E+03  0.00000000000E+00 0.  1.
         11    1    5    5    0    0  0.13426476728E+02  0.24746564155E+03 -0.30831864945E+03  0.39557540826E+03  0.00000000000E+00 0. -1.
        -11    1    5    5    0    0  0.78878887603E+02  0.16328522703E+03 -0.17941310220E+03  0.25509411110E+03  0.00000000000E+00 0.  1.
          2    1    6    6  503    0 -0.14148797489E+03 -0.75943877497E+02  0.85120477269E+02  0.18174656865E+03  0.00000000000E+00 0. -1.
         -2    1    6    6    0  503 -0.21739346513E+03 -0.38178472047E+02  0.34591168806E+02  0.22341455496E+03  0.00000000000E+00 0.  1.
<mgrwt>
<rscale>  0 0.14135512E+04</rscale>
<asrwt>0</asrwt>
<pdfrwt beam="1">  1        2 0.14175593E+00 0.14135512E+04</pdfrwt>
<pdfrwt beam="2">  1       -1 0.83405589E-01 0.14135512E+04</pdfrwt>
<totfact> 0.44908433E+01</totfact>
</mgrwt>
</event>
<event>
12    6  0.1494052E-007  0.1019646E+04  0.7818608E-02  0.9287256E-01
          2   -1    0    0  501    0  0.00000000000E+00  0.00000000000E+00  0.26699578737E+03  0.26699578737E+03  0.00000000000E+00 0. -1.
         -1   -1    0    0    0  501 -0.00000000000E+00 -0.00000000000E+00 -0.97349695558E+03  0.97349695558E+03  0.00000000000E+00 0.  1.
         24    2    1    2    0    0  0.22211610909E+02 -0.65152991407E+02 -0.14707543390E+03  0.18126950822E+03  0.80555467871E+02 0.  0.
        254    2    1    2    0    0 -0.22211610909E+02  0.65152991407E+02 -0.55942573432E+03  0.10592232347E+04  0.89680457226E+03 0.  0.
         23    2    4    4    0    0 -0.42254316893E+03 -0.11104073081E+03 -0.21762829438E+03  0.49627864979E+03  0.89764415047E+02 0.  0.
         23    2    4    4    0    0  0.40033155802E+03  0.17619372222E+03 -0.34179743993E+03  0.56294458494E+03  0.93656455610E+02 0.  0.
          2    1    3    3  502    0 -0.97958631463E+01  0.10818819347E+02 -0.58387016670E+02  0.60183465358E+02  0.00000000000E+00 0. -1.
         -1    1    3    3    0  502  0.32007474055E+02 -0.75971810754E+02 -0.88688417233E+02  0.12108604286E+03  0.00000000000E+00 0.  1.
         11    1    5    5    0    0 -0.35739541081E+03 -0.12565452462E+03 -0.19246588861E+03  0.42492782623E+03  0.00000000000E+00 0. -1.
        -11    1    5    5    0    0 -0.65147758126E+02  0.14613793813E+02 -0.25162405771E+02  0.71350823559E+02  0.00000000000E+00 0.  1.
          3    1    6    6  503    0  0.29205761684E+03  0.17176266167E+03 -0.25338101640E+03  0.42308628313E+03  0.00000000000E+00 0. -1.
         -3    1    6    6    0  503  0.10827394118E+03  0.44310605416E+01 -0.88416423536E+02  0.13985830182E+03  0.00000000000E+00 0.  1.
<mgrwt>
<rscale>  0 0.10196462E+04</rscale>
<asrwt>0</asrwt>
<pdfrwt beam="1">  1        2 0.41076276E-01 0.10196462E+04</pdfrwt>
<pdfrwt beam="2">  1       -1 0.14976876E+00 0.10196462E+04</pdfrwt>
<totfact> 0.50115357E+01</totfact>
</mgrwt>
</event>
<event>
12    6  0.1494052E-007  0.1496147E+04  0.7818608E-02  0.8887019E-01
         -3   -1    0    0    0  501 -0.00000000000E+00  0.00000000000E+00  0.53169311296E+03  0.53169311296E+03  0.00000000000E+00 0.  1.
          2   -1    0    0  501    0  0.00000000000E+00 -0.00000000000E+00 -0.10525129893E+04  0.10525129893E+04  0.00000000000E+00 0. -1.
         24    2    1    2    0    0  0.17608021566E+03  0.21351651957E+03 -0.57246760160E+03  0.64085706639E+03  0.79906684253E+02 0.  0.
        254    2    1    2    0    0 -0.17608021566E+03 -0.21351651957E+03  0.51647725212E+02  0.94334903591E+03  0.90035902259E+03 0.  0.
         23    2    4    4    0    0  0.35991889289E+03 -0.78622611671E+02 -0.14737669972E+02  0.37940852633E+03  0.89501432422E+02 0.  0.
         23    2    4    4    0    0 -0.53599910855E+03 -0.13489390790E+03  0.66385395184E+02  0.56394050958E+03  0.90169101710E+02 0.  0.
          2    1    3    3  502    0  0.13953462981E+03  0.18348481088E+03 -0.39645395468E+03  0.45859821949E+03  0.00000000000E+00 0. -1.
         -3    1    3    3    0  502  0.36545585848E+02  0.30031708694E+02 -0.17601364692E+03  0.18225884690E+03  0.00000000000E+00 0.  1.
         11    1    5    5    0    0  0.14230731275E+03 -0.76259374108E+02 -0.91810297126E+01  0.16171318656E+03  0.00000000000E+00 0. -1.
        -11    1    5    5    0    0  0.21761158014E+03 -0.23632375630E+01 -0.55566402595E+01  0.21769533976E+03  0.00000000000E+00 0.  1.
          2    1    6    6  503    0 -0.20210400566E+03 -0.12837457825E+02  0.12345573266E+01  0.20251506995E+03  0.00000000000E+00 0. -1.
         -2    1    6    6    0  503 -0.33389510289E+03 -0.12205645007E+03  0.65150837858E+02  0.36142543963E+03  0.00000000000E+00 0.  1.
<mgrwt>
<rscale>  0 0.14961469E+04</rscale>
<asrwt>0</asrwt>
<pdfrwt beam="1">  1        2 0.16192507E+00 0.14961469E+04</pdfrwt>
<pdfrwt beam="2">  1       -3 0.81798941E-01 0.14961469E+04</pdfrwt>
<totfact> 0.19815238E+01</totfact>
</mgrwt>
</event>
<event>
12    6  0.1494052E-007  0.1039228E+04  0.7818608E-02  0.9266536E-01
         -1   -1    0    0    0  501 -0.00000000000E+00  0.00000000000E+00  0.15692172225E+03  0.15692172225E+03  0.00000000000E+00 0.  1.
          2   -1    0    0  501    0  0.00000000000E+00 -0.00000000000E+00 -0.17205955922E+04  0.17205955922E+04  0.00000000000E+00 0. -1.
         24    2    1    2    0    0  0.26094020262E+02  0.79837810716E+02 -0.80636632392E+02  0.14083020929E+03  0.79220625164E+02 0.  0.
        254    2    1    2    0    0 -0.26094020262E+02 -0.79837810716E+02 -0.14830372375E+04  0.17366871051E+04  0.89979313141E+03 0.  0.
         23    2    4    4    0    0  0.28833262911E+03  0.74739382041E+02 -0.12871812327E+04  0.13243262333E+04  0.91009704029E+02 0.  0.
         23    2    4    4    0    0 -0.31442664937E+03 -0.15457719276E+03 -0.19585600481E+03  0.41236087179E+03  0.94465271983E+02 0.  0.
          2    1    3    3  502    0  0.49280991330E+02  0.33301633913E+02 -0.61151779048E+02  0.85306242494E+02  0.00000000000E+00 0. -1.
         -1    1    3    3    0  502 -0.23186971068E+02  0.46536176803E+02 -0.19484853344E+02  0.55523966794E+02  0.00000000000E+00 0.  1.
         11    1    5    5    0    0  0.27410943262E+02  0.38460573297E+02 -0.23199605276E+03  0.23675460715E+03  0.00000000000E+00 0.  1.
        -11    1    5    5    0    0  0.26092168585E+03  0.36278808744E+02 -0.10551851799E+04  0.10875716262E+04  0.00000000000E+00 0. -1.
          3    1    6    6  503    0 -0.25627869262E+03 -0.93932117454E+02 -0.17972782332E+03  0.32680896784E+03  0.00000000000E+00 0. -1.
         -3    1    6    6    0  503 -0.58147956746E+02 -0.60645075304E+02 -0.16128181486E+02  0.85551903956E+02  0.00000000000E+00 0.  1.
<mgrwt>
<rscale>  0 0.10392282E+04</rscale>
<asrwt>0</asrwt>
<pdfrwt beam="1">  1        2 0.26470700E+00 0.10392282E+04</pdfrwt>
<pdfrwt beam="2">  1       -1 0.24141804E-01 0.10392282E+04</pdfrwt>
<totfact> 0.16128587E+02</totfact>
</mgrwt>
</event>
<event>
12    6  0.1494052E-007  0.1438817E+04  0.7818608E-02  0.8926190E-01
         -1   -1    0    0    0  501 -0.00000000000E+00  0.00000000000E+00  0.10291535837E+04  0.10291535837E+04  0.00000000000E+00 0.  1.
          2   -1    0    0  501    0  0.00000000000E+00 -0.00000000000E+00 -0.50288754839E+03  0.50288754839E+03  0.00000000000E+00 0. -1.
         24    2    1    2    0    0  0.35514238867E+02  0.68685984361E+01  0.51817983814E+03  0.52557746140E+03  0.80080487425E+02 0.  0.
        254    2    1    2    0    0 -0.35514238867E+02 -0.68685984361E+01  0.80861971683E+01  0.10064636707E+04  0.10057809379E+04 0.  0.
         23    2    4    4    0    0  0.10273568259E+03 -0.30896467020E+03  0.37367161810E+03  0.50365175214E+03  0.89559038385E+02 0.  0.
         23    2    4    4    0    0 -0.13824992146E+03  0.30209607176E+03 -0.36558542093E+03  0.50281191855E+03  0.93765921783E+02 0.  0.
          2    1    3    3  502    0  0.15097241196E+02  0.28742770385E+02  0.79438297445E+02  0.85816762011E+02  0.00000000000E+00 0. -1.
         -1    1    3    3    0  502  0.20416997672E+02 -0.21874171949E+02  0.43874154070E+03  0.43976069939E+03  0.00000000000E+00 0.  1.
         11    1    5    5    0    0  0.93681440758E+02 -0.28356849767E+03  0.29211542356E+03  0.41775438465E+03  0.00000000000E+00 0.  1.
        -11    1    5    5    0    0  0.90542418304E+01 -0.25396172526E+02  0.81556194539E+02  0.85897367491E+02  0.00000000000E+00 0. -1.
          2    1    6    6  503    0 -0.11195370891E+03  0.14051015081E+03 -0.16531722418E+03  0.24414446549E+03  0.00000000000E+00 0. -1.
         -2    1    6    6    0  503 -0.26296212541E+02  0.16158592096E+03 -0.20026819675E+03  0.25866745306E+03  0.00000000000E+00 0.  1.
<mgrwt>
<rscale>  0 0.14388169E+04</rscale>
<asrwt>0</asrwt>
<pdfrwt beam="1">  1        2 0.77367315E-01 0.14388169E+04</pdfrwt>
<pdfrwt beam="2">  1       -1 0.15833132E+00 0.14388169E+04</pdfrwt>
<totfact> 0.20424948E+01</totfact>
</mgrwt>
</event>
<event>
12    6  0.1494052E-007  0.2020127E+04  0.7818608E-02  0.8597268E-01
          2   -1    0    0  501    0  0.00000000000E+00  0.00000000000E+00  0.12190558459E+04  0.12190558459E+04  0.00000000000E+00 0. -1.
         -1   -1    0    0    0  501 -0.00000000000E+00 -0.00000000000E+00 -0.83690076262E+03  0.83690076262E+03  0.00000000000E+00 0.  1.
         24    2    1    2    0    0  0.21969310191E+03  0.45552857983E+03  0.78769984257E+03  0.93929153076E+03  0.77628549439E+02 0.  0.
        254    2    1    2    0    0 -0.21969310191E+03 -0.45552857983E+03 -0.40554475930E+03  0.11166650778E+04  0.90923209251E+03 0.  0.
         23    2    4    4    0    0  0.24217228178E+03  0.12877622946E+03 -0.75852997704E+02  0.29702679808E+03  0.85091187463E+02 0.  0.
         23    2    4    4    0    0 -0.46186538369E+03 -0.58430480929E+03 -0.32969176159E+03  0.81963827969E+03  0.91534196122E+02 0.  0.
          2    1    3    3  502    0  0.20795095516E+03  0.42158784083E+03  0.68748710151E+03  0.83283757242E+03  0.00000000000E+00 0. -1.
         -1    1    3    3    0  502  0.11742146748E+02  0.33940739004E+02  0.10021274107E+03  0.10645395834E+03  0.00000000000E+00 0.  1.
         11    1    5    5    0    0  0.24680750516E+03  0.12960874797E+03 -0.80753651468E+02  0.29023012314E+03  0.00000000000E+00 0.  1.
        -11    1    5    5    0    0 -0.46352233844E+01 -0.83251851312E+00  0.49006537646E+01  0.67966749384E+01  0.00000000000E+00 0. -1.
          3    1    6    6  503    0 -0.27352951367E+03 -0.38407043460E+03 -0.16702806680E+03  0.50022681724E+03  0.00000000000E+00 0. -1.
         -3    1    6    6    0  503 -0.18833587002E+03 -0.20023437469E+03 -0.16266369479E+03  0.31941146245E+03  0.00000000000E+00 0.  1.
<mgrwt>
<rscale>  0 0.20201275E+04</rscale>
<asrwt>0</asrwt>
<pdfrwt beam="1">  1        2 0.18754705E+00 0.20201275E+04</pdfrwt>
<pdfrwt beam="2">  1       -1 0.12875396E+00 0.20201275E+04</pdfrwt>
<totfact> 0.10139774E+01</totfact>
</mgrwt>
</event>
<event>
12    6  0.1494052E-007  0.2118475E+04  0.7818608E-02  0.8553149E-01
         -1   -1    0    0    0  501 -0.00000000000E+00  0.00000000000E+00  0.77080829412E+03  0.77080829412E+03  0.00000000000E+00 0.  1.
          2   -1    0    0  501    0  0.00000000000E+00 -0.00000000000E+00 -0.14555936120E+04  0.14555936120E+04  0.00000000000E+00 0. -1.
         24    2    1    2    0    0  0.27081817194E+03 -0.16987861372E+03  0.56499865228E+03  0.65373578122E+03  0.77108812216E+02 0.  0.
        254    2    1    2    0    0 -0.27081817194E+03  0.16987861372E+03 -0.12497839702E+04  0.15726661249E+04  0.89950961233E+03 0.  0.
         23    2    4    4    0    0  0.18451990735E+03  0.86762430241E+02  0.13900274185E+02  0.22383456442E+03  0.91287343568E+02 0.  0.
         23    2    4    4    0    0 -0.45533807929E+03  0.83116183475E+02 -0.12636842443E+04  0.13488315605E+04  0.90596041517E+02 0.  0.
          4    1    3    3  502    0  0.20709963364E+02 -0.36089548088E+02  0.44190968886E+02  0.60697609465E+02  0.00000000000E+00 0. -1.
         -1    1    3    3    0  502  0.25010820857E+03 -0.13378906563E+03  0.52080768339E+03  0.59303817175E+03  0.00000000000E+00 0.  1.
         11    1    5    5    0    0  0.15926246002E+03  0.89614455025E+02  0.40356306301E+02  0.18714676908E+03  0.00000000000E+00 0. -1.
        -11    1    5    5    0    0  0.25257447332E+02 -0.28520247839E+01 -0.26456032116E+02  0.36687795334E+02  0.00000000000E+00 0.  1.
          3    1    6    6  503    0 -0.40971450140E+03  0.95756787044E+02 -0.11787553860E+04  0.12515988155E+04  0.00000000000E+00 0. -1.
         -3    1    6    6    0  503 -0.45623577881E+02 -0.12640603569E+02 -0.84928858333E+02  0.97232744974E+02  0.00000000000E+00 0.  1.
<mgrwt>
<rscale>  0 0.21184746E+04</rscale>
<asrwt>0</asrwt>
<pdfrwt beam="1">  1        2 0.22393748E+00 0.21184746E+04</pdfrwt>
<pdfrwt beam="2">  1       -1 0.11858589E+00 0.21184746E+04</pdfrwt>
<totfact> 0.89882415E+00</totfact>
</mgrwt>
</event>
<event>
12    6  0.1494052E-007  0.2149979E+04  0.7818608E-02  0.8539541E-01
         -1   -1    0    0    0  501 -0.00000000000E+00  0.00000000000E+00  0.69199778392E+03  0.69199778392E+03  0.00000000000E+00 0.  1.
          2   -1    0    0  501    0  0.00000000000E+00 -0.00000000000E+00 -0.16699515447E+04  0.16699515447E+04  0.00000000000E+00 0. -1.
         24    2    1    2    0    0  0.16377969685E+03 -0.87635285475E+02 -0.13584586552E+04  0.13734957224E+04  0.81097776034E+02 0.  0.
        254    2    1    2    0    0 -0.16377969685E+03  0.87635285475E+02  0.38050489440E+03  0.98845360622E+03  0.89317009837E+03 0.  0.
         23    2    4    4    0    0 -0.81762001971E+02 -0.28416556146E+03 -0.13835989777E+03  0.33883083013E+03  0.90707104735E+02 0.  0.
         23    2    4    4    0    0 -0.82017694875E+02  0.37180084694E+03  0.51886479218E+03  0.64962277608E+03  0.88466415032E+02 0.  0.
          4    1    3    3  502    0  0.13556945744E+03 -0.57400584254E+02 -0.79462640520E+03  0.80814913766E+03  0.00000000000E+00 0. -1.
         -3    1    3    3    0  502  0.28210239409E+02 -0.30234701222E+02 -0.56383224999E+03  0.56534658475E+03  0.00000000000E+00 0.  1.
         11    1    5    5    0    0 -0.30355543796E+01 -0.23702186465E+02  0.13270255984E+02  0.27333275096E+02  0.00000000000E+00 0. -1.
        -11    1    5    5    0    0 -0.78726447592E+02 -0.26046337500E+03 -0.15163015376E+03  0.31149755504E+03  0.00000000000E+00 0.  1.
          3    1    6    6  503    0  0.17696491730E+02  0.30920722272E+02  0.51433159713E+02  0.62566978539E+02  0.00000000000E+00 0. -1.
         -3    1    6    6    0  503 -0.99714186605E+02  0.34088012467E+03  0.46743163246E+03  0.58705579754E+03  0.00000000000E+00 0.  1.
<mgrwt>
<rscale>  0 0.21499793E+04</rscale>
<asrwt>0</asrwt>
<pdfrwt beam="1">  1        2 0.25691562E+00 0.21499793E+04</pdfrwt>
<pdfrwt beam="2">  1       -1 0.10646120E+00 0.21499793E+04</pdfrwt>
<totfact> 0.87814529E+00</totfact>
</mgrwt>
</event>
<event>
12    6  0.1494052E-007  0.1812680E+04  0.7818608E-02  0.8699586E-01
         -1   -1    0    0    0  501 -0.00000000000E+00  0.00000000000E+00  0.29471049956E+03  0.29471049956E+03  0.00000000000E+00 0.  1.
          2   -1    0    0  501    0  0.00000000000E+00 -0.00000000000E+00 -0.27873179244E+04  0.27873179244E+04  0.00000000000E+00 0. -1.
         24    2    1    2    0    0 -0.23461212630E+03 -0.63694089202E+03 -0.10877328566E+04  0.12841298689E+04  0.71345659456E+02 0.  0.
        254    2    1    2    0    0  0.23461212630E+03  0.63694089202E+03 -0.14048745682E+04  0.17978985551E+04  0.89332531146E+03 0.  0.
         23    2    4    4    0    0  0.32056412082E+03  0.69343808601E+03 -0.14591113914E+04  0.16498823528E+04  0.97406318540E+02 0.  0.
         23    2    4    4    0    0 -0.85951994522E+02 -0.56497193990E+02  0.54236823134E+02  0.14801620229E+03  0.91583212795E+02 0.  0.
          2    1    3    3  502    0 -0.14855776211E+03 -0.44171855198E+03 -0.68717537613E+03  0.83029794978E+03  0.00000000000E+00 0. -1.
         -1    1    3    3    0  502 -0.86054364184E+02 -0.19522234004E+03 -0.40055748049E+03  0.45383191913E+03  0.00000000000E+00 0.  1.
         11    1    5    5    0    0  0.32555862692E+03  0.69219523218E+03 -0.14476684080E+04  0.16373351760E+04  0.00000000000E+00 0.  1.
        -11    1    5    5    0    0 -0.49945061059E+01  0.12428538326E+01 -0.11442983370E+02  0.12547176786E+02  0.00000000000E+00 0. -1.
          2    1    6    6  503    0  0.18515458801E+01 -0.14933865299E+02 -0.20513672941E+02  0.25441291879E+02  0.00000000000E+00 0. -1.
         -2    1    6    6    0  503 -0.87803540402E+02 -0.41563328691E+02  0.74750496076E+02  0.12257491041E+03  0.00000000000E+00 0.  1.
<mgrwt>
<rscale>  0 0.18126796E+04</rscale>
<asrwt>0</asrwt>
<pdfrwt beam="1">  1        2 0.42881812E+00 0.18126796E+04</pdfrwt>
<pdfrwt beam="2">  1       -1 0.45340079E-01 0.18126796E+04</pdfrwt>
<totfact> 0.12233414E+01</totfact>
</mgrwt>
</event>
<event>
12    6  0.1494052E-007  0.1804762E+04  0.7818608E-02  0.8703771E-01
         -1   -1    0    0    0  501 -0.00000000000E+00  0.00000000000E+00  0.89182013370E+03  0.89182013370E+03  0.00000000000E+00 0.  1.
          2   -1    0    0  501    0  0.00000000000E+00 -0.00000000000E+00 -0.91306715043E+03  0.91306715043E+03  0.00000000000E+00 0. -1.
         24    2    1    2    0    0 -0.12830836938E+02  0.46730225338E+03 -0.52606354037E+03  0.70843126705E+03  0.81215671094E+02 0.  0.
        254    2    1    2    0    0  0.12830836938E+02 -0.46730225338E+03  0.50481652364E+03  0.10964560171E+04  0.85372129436E+03 0.  0.
         23    2    4    4    0    0 -0.70532932875E+02 -0.92172216958E+02 -0.22303705378E+03  0.26840111011E+03  0.93930912650E+02 0.  0.
         23    2    4    4    0    0  0.83363769813E+02 -0.37513003643E+03  0.72785357742E+03  0.82805490696E+03  0.90730570568E+02 0.  0.
          2    1    3    3  502    0 -0.71025529965E+00  0.23517966222E+03 -0.20451044462E+03  0.31166408189E+03  0.00000000000E+00 0. -1.
         -1    1    3    3    0  502 -0.12120581638E+02  0.23212259116E+03 -0.32155309575E+03  0.39676718515E+03  0.00000000000E+00 0.  1.
         11    1    5    5    0    0 -0.25842359706E+02 -0.36153601592E+02 -0.17867785598E+03  0.18412139116E+03  0.00000000000E+00 0. -1.
        -11    1    5    5    0    0 -0.44690573169E+02 -0.56018615365E+02 -0.44359197797E+02  0.84279718953E+02  0.00000000000E+00 0.  1.
          4    1    6    6  503    0  0.88432629798E+02 -0.29506088428E+03  0.63190726375E+03  0.70298509616E+03  0.00000000000E+00 0. -1.
         -4    1    6    6    0  503 -0.50688599849E+01 -0.80069152147E+02  0.95946313669E+02  0.12506981080E+03  0.00000000000E+00 0.  1.
<mgrwt>
<rscale>  0 0.18047622E+04</rscale>
<asrwt>0</asrwt>
<pdfrwt beam="1">  1        2 0.14047187E+00 0.18047622E+04</pdfrwt>
<pdfrwt beam="2">  1       -1 0.13720310E+00 0.18047622E+04</pdfrwt>
<totfact> 0.13671574E+01</totfact>
</mgrwt>
</event>
<event>
12    6  0.1494052E-007  0.1755350E+04  0.7818608E-02  0.8730411E-01
          2   -1    0    0  501    0  0.00000000000E+00  0.00000000000E+00  0.13698830135E+04  0.13698830135E+04  0.00000000000E+00 0. -1.
         -1   -1    0    0    0  501 -0.00000000000E+00 -0.00000000000E+00 -0.56232036978E+03  0.56232036978E+03  0.00000000000E+00 0.  1.
         24    2    1    2    0    0  0.48885762032E+03  0.41530560527E+03  0.29052413123E+03  0.70837248361E+03  0.76985622004E+02 0.  0.
        254    2    1    2    0    0 -0.48885762032E+03 -0.41530560527E+03  0.51703851252E+03  0.12238308997E+04  0.90497112048E+03 0.  0.
         23    2    4    4    0    0 -0.11343916918E+03 -0.40426919048E+03  0.68088972233E+03  0.80525396150E+03  0.92309831836E+02 0.  0.
         23    2    4    4    0    0 -0.37541845114E+03 -0.11036414792E+02 -0.16385120981E+03  0.41857693820E+03  0.85431951433E+02 0.  0.
          2    1    3    3  502    0  0.34439798757E+02  0.82874180877E+01  0.23056757340E+02  0.42265767425E+02  0.00000000000E+00 0. -1.
         -3    1    3    3    0  502  0.45441782156E+03  0.40701818719E+03  0.26746737389E+03  0.66610671619E+03  0.00000000000E+00 0.  1.
         11    1    5    5    0    0 -0.43527147768E+02 -0.10036766982E+03  0.11238644777E+03  0.15684066877E+03  0.00000000000E+00 0. -1.
        -11    1    5    5    0    0 -0.69912021408E+02 -0.30390152067E+03  0.56850327456E+03  0.64841329273E+03  0.00000000000E+00 0.  1.
          4    1    6    6  503    0 -0.11541576049E+03 -0.22350106589E+01 -0.94912149243E+02  0.14944600736E+03  0.00000000000E+00 0. -1.
         -4    1    6    6    0  503 -0.26000269066E+03 -0.88014041328E+01 -0.68939060567E+02  0.26913093084E+03  0.00000000000E+00 0.  1.
<mgrwt>
<rscale>  0 0.17553497E+04</rscale>
<asrwt>0</asrwt>
<pdfrwt beam="1">  1        2 0.21075123E+00 0.17553497E+04</pdfrwt>
<pdfrwt beam="2">  1       -1 0.86510827E-01 0.17553497E+04</pdfrwt>
<totfact> 0.21426338E+01</totfact>
</mgrwt>
</event>
<event>
12    6  0.1494052E-007  0.1495045E+04  0.7818608E-02  0.8887755E-01
          2   -1    0    0  501    0  0.00000000000E+00  0.00000000000E+00  0.11987583132E+04  0.11987583132E+04  0.00000000000E+00 0. -1.
         -1   -1    0    0    0  501 -0.00000000000E+00 -0.00000000000E+00 -0.46614052946E+03  0.46614052946E+03  0.00000000000E+00 0.  1.
         24    2    1    2    0    0  0.43914694730E+03  0.89156408538E+02  0.80498738159E+02  0.46224542216E+03  0.79949214857E+02 0.  0.
        254    2    1    2    0    0 -0.43914694730E+03 -0.89156408538E+02  0.65211904560E+03  0.12026534205E+04  0.90571358262E+03 0.  0.
         23    2    4    4    0    0  0.18192395370E+03 -0.27683494067E+03  0.31443670422E+03  0.46607455657E+03  0.92850105095E+02 0.  0.
         23    2    4    4    0    0 -0.62107090100E+03  0.18767853213E+03  0.33768234137E+03  0.73657886395E+03  0.86987146450E+02 0.  0.
          2    1    3    3  502    0  0.14347894928E+03  0.67584983653E+02  0.22832638249E+02  0.16023504071E+03  0.00000000000E+00 0. -1.
         -1    1    3    3    0  502  0.29566799802E+03  0.21571424885E+02  0.57666099911E+02  0.30201038145E+03  0.00000000000E+00 0.  1.
         11    1    5    5    0    0  0.11951178482E+02  0.62499613634E+01  0.16720224329E+02  0.21481587133E+02  0.00000000000E+00 0.  1.
        -11    1    5    5    0    0  0.16997277522E+03 -0.28308490203E+03  0.29771647989E+03  0.44459296944E+03  0.00000000000E+00 0. -1.
          2    1    6    6  503    0 -0.45356619574E+03  0.16453218437E+03  0.21821899339E+03  0.52954004824E+03  0.00000000000E+00 0. -1.
         -2    1    6    6    0  503 -0.16750470526E+03  0.23146347755E+02  0.11946334798E+03  0.20703881570E+03  0.00000000000E+00 0.  1.
<mgrwt>
<rscale>  0 0.14950449E+04</rscale>
<asrwt>0</asrwt>
<pdfrwt beam="1">  1        2 0.18442435E+00 0.14950449E+04</pdfrwt>
<pdfrwt beam="2">  1       -1 0.71713928E-01 0.14950449E+04</pdfrwt>
<totfact> 0.41046058E+01</totfact>
</mgrwt>
</event>
<event>
12    6  0.1494052E-007  0.1432614E+04  0.7818608E-02  0.8930543E-01
          2   -1    0    0  501    0  0.00000000000E+00  0.00000000000E+00  0.36989364107E+03  0.36989364107E+03  0.00000000000E+00 0. -1.
         -1   -1    0    0    0  501 -0.00000000000E+00 -0.00000000000E+00 -0.13871448455E+04  0.13871448455E+04  0.00000000000E+00 0.  1.
         24    2    1    2    0    0  0.21295551908E+03 -0.69060513514E+02 -0.76470885777E+03  0.80066921318E+03  0.78562994736E+02 0.  0.
        254    2    1    2    0    0 -0.21295551908E+03  0.69060513514E+02 -0.25254234669E+03  0.95636927342E+03  0.89484364145E+03 0.  0.
         23    2    4    4    0    0 -0.67708111252E+02 -0.32991452328E+03  0.13496803841E+03  0.37506699050E+03  0.95031021094E+02 0.  0.
         23    2    4    4    0    0 -0.14524740783E+03  0.39897503679E+03 -0.38751038510E+03  0.58130228292E+03  0.86430064816E+02 0.  0.
          4    1    3    3  502    0  0.14662844854E+03 -0.15024829909E+02 -0.40687314398E+03  0.43274865999E+03  0.00000000000E+00 0. -1.
         -3    1    3    3    0  502  0.66327070538E+02 -0.54035683605E+02 -0.35783571379E+03  0.36792055318E+03  0.00000000000E+00 0.  1.
         11    1    5    5    0    0 -0.88002437212E+01 -0.25196286061E+03  0.10162194456E+03  0.27182668565E+03  0.00000000000E+00 0.  1.
        -11    1    5    5    0    0 -0.58907867531E+02 -0.77951662667E+02  0.33346093851E+02  0.10324030485E+03  0.00000000000E+00 0. -1.
          3    1    6    6  503    0  0.11209564655E+02  0.39675481114E+02 -0.32045288198E+02  0.52217800002E+02  0.00000000000E+00 0. -1.
         -3    1    6    6    0  503 -0.15645697248E+03  0.35929955568E+03 -0.35546509691E+03  0.52908448292E+03  0.00000000000E+00 0.  1.
<mgrwt>
<rscale>  0 0.14326145E+04</rscale>
<asrwt>0</asrwt>
<pdfrwt beam="1">  1        2 0.56906715E-01 0.14326145E+04</pdfrwt>
<pdfrwt beam="2">  1       -1 0.21340690E+00 0.14326145E+04</pdfrwt>
<totfact> 0.11765166E+01</totfact>
</mgrwt>
</event>
<event>
12    6  0.1494052E-007  0.1354494E+04  0.7818608E-02  0.8987433E-01
         -1   -1    0    0    0  501 -0.00000000000E+00  0.00000000000E+00  0.42254011211E+03  0.42254011211E+03  0.00000000000E+00 0.  1.
          2   -1    0    0  501    0  0.00000000000E+00 -0.00000000000E+00 -0.10854904030E+04  0.10854904030E+04  0.00000000000E+00 0. -1.
         24    2    1    2    0    0 -0.27872770507E+03  0.71452474568E+02  0.79719443436E+02  0.30900803204E+03  0.79600153971E+02 0.  0.
        254    2    1    2    0    0  0.27872770507E+03 -0.71452474568E+02 -0.74266973430E+03  0.11990224830E+04  0.89627115924E+03 0.  0.
         23    2    4    4    0    0  0.38345804489E+03 -0.13418506251E+03 -0.89295799971E+03  0.98565548973E+03  0.95378467078E+02 0.  0.
         23    2    4    4    0    0 -0.10473033983E+03  0.62732587939E+02  0.15028826541E+03  0.21336699331E+03  0.89638660425E+02 0.  0.
          4    1    3    3  502    0 -0.91510203480E+02  0.60453432687E+02  0.43583516603E+02  0.11801804008E+03  0.00000000000E+00 0. -1.
         -3    1    3    3    0  502 -0.18721750159E+03  0.10999041881E+02  0.36135926833E+02  0.19098999196E+03  0.00000000000E+00 0.  1.
         11    1    5    5    0    0  0.71984277560E+02 -0.16304729918E+02 -0.90144831585E+02  0.11650609896E+03  0.00000000000E+00 0.  1.
        -11    1    5    5    0    0  0.31147376733E+03 -0.11788033259E+03 -0.80281316813E+03  0.86914939077E+03  0.00000000000E+00 0. -1.
          3    1    6    6  503    0 -0.69890434905E+02  0.74730705356E+02  0.14294987187E+03  0.17579538413E+03  0.00000000000E+00 0. -1.
         -3    1    6    6    0  503 -0.34839904921E+02 -0.11998117417E+02  0.73383935463E+01  0.37571609179E+02  0.00000000000E+00 0.  1.
<mgrwt>
<rscale>  0 0.13544936E+04</rscale>
<asrwt>0</asrwt>
<pdfrwt beam="1">  1        2 0.16699852E+00 0.13544936E+04</pdfrwt>
<pdfrwt beam="2">  1       -1 0.65006172E-01 0.13544936E+04</pdfrwt>
<totfact> 0.59435351E+01</totfact>
</mgrwt>
</event>
<event>
12    6  0.1494052E-007  0.1567903E+04  0.7818608E-02  0.8840513E-01
         -1   -1    0    0    0  501 -0.00000000000E+00  0.00000000000E+00  0.10705177551E+04  0.10705177551E+04  0.00000000000E+00 0.  1.
          2   -1    0    0  501    0  0.00000000000E+00 -0.00000000000E+00 -0.57409607885E+03  0.57409607885E+03  0.00000000000E+00 0. -1.
         24    2    1    2    0    0  0.44607952051E+03 -0.11995983082E+03 -0.98979274779E+02  0.47996718032E+03  0.84819206067E+02 0.  0.
        254    2    1    2    0    0 -0.44607952051E+03  0.11995983082E+03  0.59540095100E+03  0.11646466536E+04  0.88798774522E+03 0.  0.
         23    2    4    4    0    0 -0.21518282776E+02  0.43713909312E+03  0.16611293803E+03  0.47694711510E+03  0.91276608141E+02 0.  0.
         23    2    4    4    0    0 -0.42456123774E+03 -0.31717926230E+03  0.42928801298E+03  0.68769953850E+03  0.88246972477E+02 0.  0.
          4    1    3    3  502    0  0.97585712145E+02 -0.27427803998E+01 -0.47948843577E+02  0.10876389870E+03  0.00000000000E+00 0. -1.
         -3    1    3    3    0  502  0.34849380837E+03 -0.11721705042E+03 -0.51030431201E+02  0.37120328163E+03  0.00000000000E+00 0.  1.
         11    1    5    5    0    0 -0.52677837828E+02  0.36061894997E+03  0.13706172359E+03  0.38936730442E+03  0.00000000000E+00 0. -1.
        -11    1    5    5    0    0  0.31159555052E+02  0.76520143153E+02  0.29051214436E+02  0.87579810684E+02  0.00000000000E+00 0.  1.
          3    1    6    6  503    0 -0.51217271985E+02 -0.79831793075E+02  0.74831723248E+02  0.12081436562E+03  0.00000000000E+00 0. -1.
         -3    1    6    6    0  503 -0.37334396575E+03 -0.23734746922E+03  0.35445628973E+03  0.56688517289E+03  0.00000000000E+00 0.  1.
<mgrwt>
<rscale>  0 0.15679031E+04</rscale>
<asrwt>0</asrwt>
<pdfrwt beam="1">  1        2 0.88322474E-01 0.15679031E+04</pdfrwt>
<pdfrwt beam="2">  1       -1 0.16469504E+00 0.15679031E+04</pdfrwt>
<totfact> 0.15478122E+01</totfact>
</mgrwt>
</event>
<event>
12    6  0.1494052E-007  0.2154169E+04  0.7818608E-02  0.8537750E-01
          2   -1    0    0  501    0  0.00000000000E+00  0.00000000000E+00  0.25071351416E+04  0.25071351416E+04  0.00000000000E+00 0. -1.
         -1   -1    0    0    0  501 -0.00000000000E+00 -0.00000000000E+00 -0.46272386587E+03  0.46272386587E+03  0.00000000000E+00 0.  1.
         24    2    1    2    0    0 -0.48399481314E+03 -0.18850550933E+03  0.18365140222E+04  0.19106232525E+04  0.88950285219E+02 0.  0.
        254    2    1    2    0    0  0.48399481314E+03  0.18850550933E+03  0.20789725357E+03  0.10592357550E+04  0.89942971397E+03 0.  0.
         23    2    4    4    0    0  0.69694354589E+03  0.29154634281E+03  0.53711647069E+02  0.76290177097E+03  0.91676578012E+02 0.  0.
         23    2    4    4    0    0 -0.21294873276E+03 -0.10304083348E+03  0.15418560650E+03  0.29633398400E+03  0.89866860823E+02 0.  0.
          4    1    3    3  502    0 -0.33786869917E+03 -0.13103686905E+03  0.14194733170E+04  0.14650018487E+04  0.00000000000E+00 0. -1.
         -3    1    3    3    0  502 -0.14612611397E+03 -0.57468640283E+02  0.41704070519E+03  0.44562140387E+03  0.00000000000E+00 0.  1.
         11    1    5    5    0    0  0.57272684307E+03  0.20380464336E+03  0.27108983760E+02  0.60851233876E+03  0.00000000000E+00 0.  1.
        -11    1    5    5    0    0  0.12421670282E+03  0.87741699453E+02  0.26602663309E+02  0.15438943221E+03  0.00000000000E+00 0. -1.
          3    1    6    6  503    0 -0.34051590421E+02  0.98407595595E+01  0.47932501734E+02  0.59614394917E+02  0.00000000000E+00 0. -1.
         -3    1    6    6    0  503 -0.17889714233E+03 -0.11288159304E+03  0.10625310477E+03  0.23671958908E+03  0.00000000000E+00 0.  1.
<mgrwt>
<rscale>  0 0.21541692E+04</rscale>
<asrwt>0</asrwt>
<pdfrwt beam="1">  1        2 0.38571309E+00 0.21541692E+04</pdfrwt>
<pdfrwt beam="2">  1       -1 0.71188288E-01 0.21541692E+04</pdfrwt>
<totfact> 0.71763023E+00</totfact>
</mgrwt>
</event>
<event>
12    6  0.1494052E-007  0.1453345E+04  0.7818608E-02  0.8916085E-01
          2   -1    0    0  501    0  0.00000000000E+00  0.00000000000E+00  0.13261491943E+04  0.13261491943E+04  0.00000000000E+00 0. -1.
         -1   -1    0    0    0  501 -0.00000000000E+00 -0.00000000000E+00 -0.39818492103E+03  0.39818492103E+03  0.00000000000E+00 0.  1.
         24    2    1    2    0    0 -0.36658288941E+03  0.22567489851E+03  0.17583110247E+03  0.47168908269E+03  0.79131785704E+02 0.  0.
        254    2    1    2    0    0  0.36658288941E+03 -0.22567489851E+03  0.75213317077E+03  0.12526450326E+04  0.90449051766E+03 0.  0.
         23    2    4    4    0    0  0.19235391139E+03  0.23437249731E+03 -0.36361780251E+02  0.31871813828E+03  0.91261042511E+02 0.  0.
         23    2    4    4    0    0  0.17422897802E+03 -0.46004739582E+03  0.78849495102E+03  0.93392689434E+03  0.92172734540E+02 0.  0.
          2    1    3    3  502    0 -0.25588607583E+01  0.18699908934E+02  0.59322037761E+01  0.19784473816E+02  0.00000000000E+00 0. -1.
         -1    1    3    3    0  502 -0.36402402865E+03  0.20697498958E+03  0.16989889870E+03  0.45190460888E+03  0.00000000000E+00 0.  1.
         11    1    5    5    0    0  0.71576299459E+02  0.15870619591E+03 -0.18463924774E+02  0.17507638271E+03  0.00000000000E+00 0. -1.
        -11    1    5    5    0    0  0.12077761193E+03  0.75666301401E+02 -0.17897855476E+02  0.14364175557E+03  0.00000000000E+00 0.  1.
          2    1    6    6  503    0  0.32986443244E+02 -0.43423461154E+02  0.48164033761E+02  0.72756281960E+02  0.00000000000E+00 0. -1.
         -2    1    6    6    0  503  0.14124253477E+03 -0.41662393467E+03  0.74033091726E+03  0.86117061238E+03  0.00000000000E+00 0.  1.
<mgrwt>
<rscale>  0 0.14533446E+04</rscale>
<asrwt>0</asrwt>
<pdfrwt beam="1">  1        2 0.20402295E+00 0.14533446E+04</pdfrwt>
<pdfrwt beam="2">  1       -1 0.61259219E-01 0.14533446E+04</pdfrwt>
<totfact> 0.47674008E+01</totfact>
</mgrwt>
</event>
<event>
12    6  0.1494052E-007  0.1440376E+04  0.7818608E-02  0.8925100E-01
          4   -1    0    0  501    0  0.00000000000E+00  0.00000000000E+00  0.31275352666E+04  0.31275352666E+04  0.00000000000E+00 0. -1.
         -3   -1    0    0    0  501 -0.00000000000E+00 -0.00000000000E+00 -0.16584013245E+03  0.16584013245E+03  0.00000000000E+00 0.  1.
         24    2    1    2    0    0 -0.20174484075E+03  0.32776415561E+02  0.18131781761E+04  0.18264373395E+04  0.80516970630E+02 0.  0.
        254    2    1    2    0    0  0.20174484075E+03 -0.32776415561E+02  0.11485169581E+04  0.14669380596E+04  0.88940474113E+03 0.  0.
         23    2    4    4    0    0  0.52821480467E+03 -0.16066415404E+01  0.49213564310E+03  0.72773565658E+03  0.91587299730E+02 0.  0.
         23    2    4    4    0    0 -0.32646996392E+03 -0.31169774021E+02  0.65638131499E+03  0.73920240304E+03  0.89607867054E+02 0.  0.
          2    1    3    3  502    0 -0.13176003762E+03  0.78792418725E+00  0.13974245761E+04  0.14036227322E+04  0.00000000000E+00 0. -1.
         -1    1    3    3    0  502 -0.69984803127E+02  0.31988491374E+02  0.41575359998E+03  0.42281460730E+03  0.00000000000E+00 0.  1.
         11    1    5    5    0    0  0.36025103118E+03 -0.34419358924E+02  0.36945128961E+03  0.51716511206E+03  0.00000000000E+00 0.  1.
        -11    1    5    5    0    0  0.16796377349E+03  0.32812717383E+02  0.12268435349E+03  0.21057054452E+03  0.00000000000E+00 0. -1.
          2    1    6    6  503    0 -0.19708313106E+02  0.15231705324E+02  0.90345923623E+02  0.93716638692E+02  0.00000000000E+00 0. -1.
         -2    1    6    6    0  503 -0.30676165081E+03 -0.46401479345E+02  0.56603539136E+03  0.64548576434E+03  0.00000000000E+00 0.  1.
<mgrwt>
<rscale>  0 0.14403761E+04</rscale>
<asrwt>0</asrwt>
<pdfrwt beam="1">  1        4 0.48115923E+00 0.14403761E+04</pdfrwt>
<pdfrwt beam="2">  1       -3 0.25513869E-01 0.14403761E+04</pdfrwt>
<totfact> 0.57060477E-02</totfact>
</mgrwt>
</event>
<event>
12    6  0.1494052E-007  0.2369273E+04  0.7818608E-02  0.8451098E-01
          4   -1    0    0  501    0  0.00000000000E+00  0.00000000000E+00  0.93749597664E+03  0.93749597664E+03  0.00000000000E+00 0. -1.
         -3   -1    0    0    0  501 -0.00000000000E+00 -0.00000000000E+00 -0.14969277958E+04  0.14969277958E+04  0.00000000000E+00 0.  1.
         24    2    1    2    0    0 -0.13524306508E+03 -0.42120487060E+03  0.69852430960E+03  0.83064308343E+03  0.79545529562E+02 0.  0.
        254    2    1    2    0    0  0.13524306508E+03  0.42120487060E+03 -0.12579561288E+04  0.16037806890E+04  0.89104132726E+03 0.  0.
         23    2    4    4    0    0 -0.14506899541E+03  0.26827770215E+03 -0.16295535809E+02  0.31827536636E+03  0.89530583828E+02 0.  0.
         23    2    4    4    0    0  0.28031206049E+03  0.15292716844E+03 -0.12416605929E+04  0.12855053226E+04  0.94028380718E+02 0.  0.
          4    1    3    3  502    0 -0.34007557886E+02 -0.16113706512E+03  0.32535742254E+03  0.36466302274E+03  0.00000000000E+00 0. -1.
         -3    1    3    3    0  502 -0.10123550719E+03 -0.26006780547E+03  0.37316688706E+03  0.46598006069E+03  0.00000000000E+00 0.  1.
         11    1    5    5    0    0 -0.13369727698E+03  0.23686957687E+03  0.15124556452E+02  0.27241679561E+03  0.00000000000E+00 0. -1.
        -11    1    5    5    0    0 -0.11371718426E+02  0.31408125282E+02 -0.31420092261E+02  0.45858570752E+02  0.00000000000E+00 0.  1.
          4    1    6    6  503    0  0.47592791114E+01  0.28414641214E+02 -0.14994590347E+03  0.15268862610E+03  0.00000000000E+00 0.  1.
         -4    1    6    6    0  503  0.27555278138E+03  0.12451252723E+03 -0.10917146895E+04  0.11328166965E+04  0.00000000000E+00 0. -1.
<mgrwt>
<rscale>  0 0.23692731E+04</rscale>
<asrwt>0</asrwt>
<pdfrwt beam="1">  1        4 0.14423015E+00 0.23692731E+04</pdfrwt>
<pdfrwt beam="2">  1       -3 0.23029658E+00 0.23692731E+04</pdfrwt>
<totfact> 0.64936517E-02</totfact>
</mgrwt>
</event>
<event>
12    6  0.1494052E-007  0.1443941E+04  0.7818608E-02  0.8922612E-01
          2   -1    0    0  501    0  0.00000000000E+00  0.00000000000E+00  0.91539411555E+03  0.91539411555E+03  0.00000000000E+00 0. -1.
         -1   -1    0    0    0  501 -0.00000000000E+00 -0.00000000000E+00 -0.56941710320E+03  0.56941710320E+03  0.00000000000E+00 0.  1.
         24    2    1    2    0    0  0.13505781902E+03  0.29647124890E+03  0.40395834250E+03  0.53044334897E+03  0.10978154713E+03 0.  0.
        254    2    1    2    0    0 -0.13505781902E+03 -0.29647124890E+03 -0.57981330148E+02  0.95436786979E+03  0.89516500174E+03 0.  0.
         23    2    4    4    0    0 -0.15632580341E+02 -0.38123524491E+02 -0.44979973524E+03  0.46087918250E+03  0.91608069262E+02 0.  0.
         23    2    4    4    0    0 -0.11942523868E+03 -0.25834772441E+03  0.39181840509E+03  0.49348868729E+03  0.94886709180E+02 0.  0.
          2    1    3    3  502    0  0.47570502400E+02  0.10407090269E+03  0.22927049538E+03  0.25623946913E+03  0.00000000000E+00 0. -1.
         -3    1    3    3    0  502  0.87487316621E+02  0.19240034621E+03  0.17468784711E+03  0.27420387984E+03  0.00000000000E+00 0.  1.
         11    1    5    5    0    0 -0.13131824118E+02 -0.16392845443E+02 -0.15686487072E+02  0.26215187641E+02  0.00000000000E+00 0. -1.
        -11    1    5    5    0    0 -0.25007562225E+01 -0.21730679048E+02 -0.43411324816E+03  0.43466399486E+03  0.00000000000E+00 0.  1.
          4    1    6    6  503    0 -0.12343927174E+03 -0.17107085840E+03  0.25232234371E+03  0.32889064678E+03  0.00000000000E+00 0. -1.
         -4    1    6    6    0  503  0.40140330618E+01 -0.87276866006E+02  0.13949606138E+03  0.16459804051E+03  0.00000000000E+00 0.  1.
<mgrwt>
<rscale>  0 0.14439405E+04</rscale>
<asrwt>0</asrwt>
<pdfrwt beam="1">  1        2 0.14082986E+00 0.14439405E+04</pdfrwt>
<pdfrwt beam="2">  1       -1 0.87602631E-01 0.14439405E+04</pdfrwt>
<totfact> 0.40647331E+01</totfact>
</mgrwt>
</event>
<event>
12    6  0.1494052E-007  0.2347515E+04  0.7818608E-02  0.8459419E-01
         -1   -1    0    0    0  501 -0.00000000000E+00  0.00000000000E+00  0.84058523303E+03  0.84058523303E+03  0.00000000000E+00 0.  1.
          2   -1    0    0  501    0  0.00000000000E+00 -0.00000000000E+00 -0.16389857070E+04  0.16389857070E+04  0.00000000000E+00 0. -1.
         24    2    1    2    0    0 -0.91350325944E+03  0.29864077059E+03 -0.67918866608E+02  0.96681812542E+03  0.80310648944E+02 0.  0.
        254    2    1    2    0    0  0.91350325944E+03 -0.29864077059E+03 -0.73048160734E+03  0.15127528146E+04  0.91167054606E+03 0.  0.
         23    2    4    4    0    0  0.47190380440E+03 -0.60723954208E+03 -0.48506459126E+03  0.91396005747E+03  0.92748406408E+02 0.  0.
         23    2    4    4    0    0  0.44159945504E+03  0.30859877150E+03 -0.24541701608E+03  0.59879275712E+03  0.89888674153E+02 0.  0.
          4    1    3    3  502    0 -0.77620181955E+02  0.33581400757E+02  0.15411280097E+02  0.85965752935E+02  0.00000000000E+00 0. -1.
         -3    1    3    3    0  502 -0.83588307748E+03  0.26505936983E+03 -0.83330146706E+02  0.88085237248E+03  0.00000000000E+00 0.  1.
         11    1    5    5    0    0  0.63535539917E+02 -0.42318458556E+02 -0.63794126033E+02  0.99485211381E+02  0.00000000000E+00 0.  1.
        -11    1    5    5    0    0  0.40836826448E+03 -0.56492108353E+03 -0.42127046523E+03  0.81447484609E+03  0.00000000000E+00 0. -1.
          3    1    6    6  503    0  0.20578471943E+03  0.97244431883E+02 -0.78047460140E+02  0.24061428951E+03  0.00000000000E+00 0. -1.
         -3    1    6    6    0  503  0.23581473561E+03  0.21135433961E+03 -0.16736955594E+03  0.35817846761E+03  0.00000000000E+00 0.  1.
<mgrwt>
<rscale>  0 0.23475154E+04</rscale>
<asrwt>0</asrwt>
<pdfrwt beam="1">  1        2 0.25215165E+00 0.23475154E+04</pdfrwt>
<pdfrwt beam="2">  1       -1 0.12932081E+00 0.23475154E+04</pdfrwt>
<totfact> 0.56054614E+00</totfact>
</mgrwt>
</event>
<event>
12    6  0.1494052E-007  0.1157143E+04  0.7818608E-02  0.9151219E-01
          2   -1    0    0  501    0  0.00000000000E+00  0.00000000000E+00  0.58837018841E+03  0.58837018841E+03  0.00000000000E+00 0. -1.
         -1   -1    0    0    0  501 -0.00000000000E+00 -0.00000000000E+00 -0.56893624848E+03  0.56893624848E+03  0.00000000000E+00 0.  1.
         24    2    1    2    0    0 -0.15921015229E+03 -0.85428985927E+02  0.12757766182E+03  0.23811531999E+03  0.88186515908E+02 0.  0.
        254    2    1    2    0    0  0.15921015229E+03  0.85428985927E+02 -0.10814372188E+03  0.91919111690E+03  0.89474647838E+03 0.  0.
         23    2    4    4    0    0 -0.19788774140E+03 -0.26125415173E+02 -0.38627965665E+03  0.44407548797E+03  0.90271647597E+02 0.  0.
         23    2    4    4    0    0  0.35709789370E+03  0.11155440110E+03  0.27813593477E+03  0.47511562893E+03  0.91716806280E+02 0.  0.
          2    1    3    3  502    0 -0.54884469580E+02 -0.52427779887E+02  0.99508503245E+02  0.12515158538E+03  0.00000000000E+00 0. -1.
         -1    1    3    3    0  502 -0.10432568271E+03 -0.33001206040E+02  0.28069158576E+02  0.11296373461E+03  0.00000000000E+00 0.  1.
         11    1    5    5    0    0 -0.38738439909E+02  0.10929728699E+01 -0.16892229676E+03  0.17331071420E+03  0.00000000000E+00 0. -1.
        -11    1    5    5    0    0 -0.15914930150E+03 -0.27218388043E+02 -0.21735735989E+03  0.27076477377E+03  0.00000000000E+00 0.  1.
          3    1    6    6  503    0  0.15819801308E+02 -0.13029785530E+02  0.65439054210E+01  0.21514277179E+02  0.00000000000E+00 0. -1.
         -3    1    6    6    0  503  0.34127809239E+03  0.12458418663E+03  0.27159202935E+03  0.45360135175E+03  0.00000000000E+00 0.  1.
<mgrwt>
<rscale>  0 0.11571433E+04</rscale>
<asrwt>0</asrwt>
<pdfrwt beam="1">  1        2 0.90518491E-01 0.11571433E+04</pdfrwt>
<pdfrwt beam="2">  1       -1 0.87528653E-01 0.11571433E+04</pdfrwt>
<totfact> 0.73796383E+01</totfact>
</mgrwt>
</event>
<event>
12    6  0.1494052E-007  0.2230046E+04  0.7818608E-02  0.8506026E-01
          2   -1    0    0  501    0  0.00000000000E+00  0.00000000000E+00  0.88417775433E+03  0.88417775433E+03  0.00000000000E+00 0. -1.
         -1   -1    0    0    0  501 -0.00000000000E+00 -0.00000000000E+00 -0.14061378943E+04  0.14061378943E+04  0.00000000000E+00 0.  1.
         24    2    1    2    0    0  0.25991245971E+03  0.72424447183E+03  0.31982122412E+03  0.83751787319E+03  0.84059686127E+02 0.  0.
        254    2    1    2    0    0 -0.25991245971E+03 -0.72424447183E+03 -0.84178136413E+03  0.14527977755E+04  0.89996720480E+03 0.  0.
         23    2    4    4    0    0 -0.43094745061E+03 -0.70508519410E+03 -0.31104368433E+03  0.88836384291E+03  0.97884154503E+02 0.  0.
         23    2    4    4    0    0  0.17103499090E+03 -0.19159277724E+02 -0.53073767980E+03  0.56443393255E+03  0.85341276163E+02 0.  0.
          2    1    3    3  502    0  0.25658708785E+03  0.67638180373E+03  0.31589694425E+03  0.78937960288E+03  0.00000000000E+00 0. -1.
         -1    1    3    3    0  502  0.33253718569E+01  0.47862668101E+02  0.39242798770E+01  0.48138270308E+02  0.00000000000E+00 0.  1.
         11    1    5    5    0    0 -0.12830872081E+03 -0.14996850968E+03 -0.45094258399E+02  0.20245289297E+03  0.00000000000E+00 0. -1.
        -11    1    5    5    0    0 -0.30263872981E+03 -0.55511668442E+03 -0.26594942593E+03  0.68591094994E+03  0.00000000000E+00 0.  1.
          3    1    6    6  503    0  0.36104437863E+02 -0.27328121731E+02 -0.23422345645E+03  0.23856023185E+03  0.00000000000E+00 0. -1.
         -3    1    6    6    0  503  0.13493055304E+03  0.81688440068E+01 -0.29651422336E+03  0.32587370070E+03  0.00000000000E+00 0.  1.
<mgrwt>
<rscale>  0 0.22300456E+04</rscale>
<asrwt>0</asrwt>
<pdfrwt beam="1">  1        2 0.13602735E+00 0.22300456E+04</pdfrwt>
<pdfrwt beam="2">  1       -1 0.21632891E+00 0.22300456E+04</pdfrwt>
<totfact> 0.36413585E+00</totfact>
</mgrwt>
</event>
<event>
12    6  0.1494052E-007  0.2141183E+04  0.7818608E-02  0.8543316E-01
          2   -1    0    0  501    0  0.00000000000E+00  0.00000000000E+00  0.48175942731E+04  0.48175942731E+04  0.00000000000E+00 0. -1.
         -1   -1    0    0    0  501 -0.00000000000E+00 -0.00000000000E+00 -0.23791245580E+03  0.23791245580E+03  0.00000000000E+00 0.  1.
         24    2    1    2    0    0 -0.78532780272E+03 -0.28082059892E+02  0.95493766753E+03  0.12388813972E+04  0.73435737442E+02 0.  0.
        254    2    1    2    0    0  0.78532780272E+03  0.28082059892E+02  0.36247441497E+04  0.38166253317E+04  0.90018354335E+03 0.  0.
         23    2    4    4    0    0  0.23846463770E+03 -0.71768214080E+02  0.16989048606E+03  0.31613169936E+03  0.95186207519E+02 0.  0.
         23    2    4    4    0    0  0.54686316503E+03  0.99850273973E+02  0.34548536637E+04  0.35004936323E+04  0.91719322862E+02 0.  0.
          2    1    3    3  502    0 -0.75449851862E+03 -0.34821713205E+02  0.89474586241E+03  0.11709187524E+04  0.00000000000E+00 0. -1.
         -3    1    3    3    0  502 -0.30829284101E+02  0.67396533127E+01  0.60191805118E+02  0.67962644800E+02  0.00000000000E+00 0.  1.
         11    1    5    5    0    0  0.22731991916E+03 -0.77058234380E+02  0.18013064113E+03  0.30009892537E+03  0.00000000000E+00 0.  1.
        -11    1    5    5    0    0  0.11144718535E+02  0.52900203002E+01 -0.10240155069E+02  0.16032773991E+02  0.00000000000E+00 0. -1.
          3    1    6    6  503    0  0.19008883094E+03  0.53694944442E+02  0.14823720251E+04  0.14954744169E+04  0.00000000000E+00 0. -1.
         -3    1    6    6    0  503  0.35677433409E+03  0.46155329530E+02  0.19724816386E+04  0.20050192155E+04  0.00000000000E+00 0.  1.
<mgrwt>
<rscale>  0 0.21411826E+04</rscale>
<asrwt>0</asrwt>
<pdfrwt beam="1">  1        2 0.74116828E+00 0.21411826E+04</pdfrwt>
<pdfrwt beam="2">  1       -1 0.36601920E-01 0.21411826E+04</pdfrwt>
<totfact> 0.43274051E-01</totfact>
</mgrwt>
</event>
<event>
12    6  0.1494052E-007  0.1255308E+04  0.7818608E-02  0.9065777E-01
          2   -1    0    0  501    0  0.00000000000E+00  0.00000000000E+00  0.26347314053E+04  0.26347314053E+04  0.00000000000E+00 0. -1.
         -1   -1    0    0    0  501 -0.00000000000E+00 -0.00000000000E+00 -0.14952176780E+03  0.14952176780E+03  0.00000000000E+00 0.  1.
         24    2    1    2    0    0 -0.95697108981E+02 -0.80712273158E+02  0.12201622038E+04  0.12289474013E+04  0.76442813308E+02 0.  0.
        254    2    1    2    0    0  0.95697108981E+02  0.80712273158E+02  0.12650474337E+04  0.15553057718E+04  0.89607958730E+03 0.  0.
         23    2    4    4    0    0  0.12161536730E+03 -0.21934505446E+03  0.12065005526E+04  0.12355844873E+04  0.90127084613E+02 0.  0.
         23    2    4    4    0    0 -0.25918258316E+02  0.30005732761E+03  0.58546881051E+02  0.31972128451E+03  0.89932232935E+02 0.  0.
          2    1    3    3  502    0 -0.10163488313E+03 -0.85874890151E+02  0.10214827022E+04  0.10301121575E+04  0.00000000000E+00 0. -1.
         -1    1    3    3    0  502  0.59377741465E+01  0.51626169933E+01  0.19867950166E+03  0.19883524375E+03  0.00000000000E+00 0.  1.
         11    1    5    5    0    0  0.62559826115E+02 -0.18956272791E+03  0.86454230874E+03  0.88728865836E+03  0.00000000000E+00 0. -1.
        -11    1    5    5    0    0  0.59055541181E+02 -0.29782326543E+02  0.34195824388E+03  0.34829582896E+03  0.00000000000E+00 0.  1.
          3    1    6    6  503    0 -0.19238312404E+02  0.30203417464E+03  0.65744158114E+02  0.30970477820E+03  0.00000000000E+00 0. -1.
         -3    1    6    6    0  503 -0.66799459112E+01 -0.19768470271E+01 -0.71972770629E+01  0.10016506310E+02  0.00000000000E+00 0.  1.
<mgrwt>
<rscale>  0 0.12553082E+04</rscale>
<asrwt>0</asrwt>
<pdfrwt beam="1">  1        2 0.40534326E+00 0.12553082E+04</pdfrwt>
<pdfrwt beam="2">  1       -1 0.23003351E-01 0.12553082E+04</pdfrwt>
<totfact> 0.52874318E+01</totfact>
</mgrwt>
</event>
<event>
12    6  0.1494052E-007  0.1379451E+04  0.7818608E-02  0.8968829E-01
         -1   -1    0    0    0  501 -0.00000000000E+00  0.00000000000E+00  0.17646236603E+03  0.17646236603E+03  0.00000000000E+00 0.  1.
          2   -1    0    0  501    0  0.00000000000E+00 -0.00000000000E+00 -0.26958795778E+04  0.26958795778E+04  0.00000000000E+00 0. -1.
         24    2    1    2    0    0 -0.18493220959E+03  0.10915492690E+03 -0.15892255235E+03  0.27854264808E+03  0.78834693783E+02 0.  0.
        254    2    1    2    0    0  0.18493220959E+03 -0.10915492690E+03 -0.23604946594E+04  0.25937992958E+04  0.10534443646E+04 0.  0.
         23    2    4    4    0    0  0.36809097200E+03 -0.40895128864E+03 -0.70583855976E+03  0.89965695339E+03  0.91882757828E+02 0.  0.
         23    2    4    4    0    0 -0.18315876241E+03  0.29979636174E+03 -0.16546560997E+04  0.16941423424E+04  0.93842832862E+02 0.  0.
          4    1    3    3  502    0 -0.12025427375E+03  0.59165694466E+02 -0.51547721382E+02  0.14359260892E+03  0.00000000000E+00 0. -1.
         -3    1    3    3    0  502 -0.64677935834E+02  0.49989232432E+02 -0.10737483097E+03  0.13495003915E+03  0.00000000000E+00 0.  1.
         11    1    5    5    0    0  0.35119170377E+03 -0.37360520022E+03 -0.68384275204E+03  0.85472648721E+03  0.00000000000E+00 0. -1.
        -11    1    5    5    0    0  0.16899268226E+02 -0.35346088419E+02 -0.21995807721E+02  0.44930466172E+02  0.00000000000E+00 0.  1.
          2    1    6    6  503    0 -0.13372353728E+03  0.27547318388E+03 -0.13258134555E+04  0.13607162739E+04  0.00000000000E+00 0. -1.
         -2    1    6    6    0  503 -0.49435225127E+02  0.24323177859E+02 -0.32884264422E+03  0.33342606845E+03  0.00000000000E+00 0.  1.
<mgrwt>
<rscale>  0 0.13794510E+04</rscale>
<asrwt>0</asrwt>
<pdfrwt beam="1">  1        2 0.41475066E+00 0.13794510E+04</pdfrwt>
<pdfrwt beam="2">  1       -1 0.27148059E-01 0.13794510E+04</pdfrwt>
<totfact> 0.36227884E+01</totfact>
</mgrwt>
</event>
<event>
12    6  0.1494052E-007  0.1557044E+04  0.7818608E-02  0.8847381E-01
          2   -1    0    0  501    0  0.00000000000E+00  0.00000000000E+00  0.13790962497E+04  0.13790962497E+04  0.00000000000E+00 0. -1.
         -1   -1    0    0    0  501 -0.00000000000E+00 -0.00000000000E+00 -0.43948821864E+03  0.43948821864E+03  0.00000000000E+00 0.  1.
         24    2    1    2    0    0 -0.22671346173E+03  0.69231800664E+02  0.93581385352E+03  0.96867646672E+03  0.79965572500E+02 0.  0.
        254    2    1    2    0    0  0.22671346173E+03 -0.69231800664E+02  0.37941774906E+01  0.84990800158E+03  0.81617227312E+03 0.  0.
         23    2    4    4    0    0 -0.43104615631E+02 -0.48554389961E+02 -0.36762169082E+03  0.38346727723E+03  0.87669313181E+02 0.  0.
         23    2    4    4    0    0  0.26981807736E+03 -0.20677410703E+02  0.37141586831E+03  0.46644072434E+03  0.79924038361E+02 0.  0.
          2    1    3    3  502    0 -0.19685708643E+03  0.81870168002E+02  0.73632591666E+03  0.76657112680E+03  0.00000000000E+00 0. -1.
         -1    1    3    3    0  502 -0.29856375305E+02 -0.12638367338E+02  0.19948793686E+03  0.20210533993E+03  0.00000000000E+00 0.  1.
         11    1    5    5    0    0  0.22671023480E+02 -0.11803108286E+02 -0.17106641273E+03  0.17296533247E+03  0.00000000000E+00 0.  1.
        -11    1    5    5    0    0 -0.65775639111E+02 -0.36751281675E+02 -0.19655527809E+03  0.21050194476E+03  0.00000000000E+00 0. -1.
          3    1    6    6  503    0  0.14195965895E+03 -0.36219687879E+02  0.14607281149E+03  0.20688566122E+03  0.00000000000E+00 0. -1.
         -3    1    6    6    0  503  0.12785841841E+03  0.15542277176E+02  0.22534305682E+03  0.25955506313E+03  0.00000000000E+00 0.  1.
<mgrwt>
<rscale>  0 0.15570441E+04</rscale>
<asrwt>0</asrwt>
<pdfrwt beam="1">  1        2 0.21216865E+00 0.15570441E+04</pdfrwt>
<pdfrwt beam="2">  1       -1 0.67613573E-01 0.15570441E+04</pdfrwt>
<totfact> 0.36133937E+01</totfact>
</mgrwt>
</event>
<event>
12    6  0.1494052E-007  0.3624586E+04  0.7818608E-02  0.8084883E-01
          2   -1    0    0  501    0  0.00000000000E+00  0.00000000000E+00  0.24031261724E+04  0.24031261724E+04  0.00000000000E+00 0. -1.
         -1   -1    0    0    0  501 -0.00000000000E+00 -0.00000000000E+00 -0.13667223042E+04  0.13667223042E+04  0.00000000000E+00 0.  1.
         24    2    1    2    0    0  0.16025821598E+04  0.40965491537E+03 -0.10269299711E+01  0.16560449237E+04  0.79981284798E+02 0.  0.
        254    2    1    2    0    0 -0.16025821598E+04 -0.40965491537E+03  0.10374307982E+04  0.21138035529E+04  0.80982471599E+03 0.  0.
         23    2    4    4    0    0 -0.15424741419E+04 -0.17200775508E+03  0.75278509844E+03  0.17272916039E+04  0.89653411948E+02 0.  0.
         23    2    4    4    0    0 -0.60108017891E+02 -0.23764716029E+03  0.28464569975E+03  0.38651194898E+03  0.90989920919E+02 0.  0.
          4    1    3    3  502    0  0.47921855083E+03  0.97923071006E+02 -0.27963159137E+02  0.48991967257E+03  0.00000000000E+00 0. -1.
         -3    1    3    3    0  502  0.11233636090E+04  0.31173184437E+03  0.26936229166E+02  0.11661252511E+04  0.00000000000E+00 0.  1.
         11    1    5    5    0    0 -0.78454919828E+02  0.10836785333E+02  0.40709706440E+02  0.89049932959E+02  0.00000000000E+00 0. -1.
        -11    1    5    5    0    0 -0.14640192221E+04 -0.18284454042E+03  0.71207539200E+03  0.16382416710E+04  0.00000000000E+00 0.  1.
          2    1    6    6  503    0 -0.23724878357E+02 -0.18432340350E+03  0.15624458831E+03  0.24279694871E+03  0.00000000000E+00 0. -1.
         -2    1    6    6    0  503 -0.36383139534E+02 -0.53323756791E+02  0.12840111145E+03  0.14371500027E+03  0.00000000000E+00 0.  1.
<mgrwt>
<rscale>  0 0.36245861E+04</rscale>
<asrwt>0</asrwt>
<pdfrwt beam="1">  1        2 0.36971172E+00 0.36245861E+04</pdfrwt>
<pdfrwt beam="2">  1       -1 0.21026497E+00 0.36245861E+04</pdfrwt>
<totfact> 0.46860990E-01</totfact>
</mgrwt>
</event>
<event>
12    6  0.1494052E-007  0.1492506E+04  0.7818608E-02  0.8889452E-01
         -1   -1    0    0    0  501 -0.00000000000E+00  0.00000000000E+00  0.84151572306E+03  0.84151572306E+03  0.00000000000E+00 0.  1.
          2   -1    0    0  501    0  0.00000000000E+00 -0.00000000000E+00 -0.66177437071E+03  0.66177437071E+03  0.00000000000E+00 0. -1.
         24    2    1    2    0    0  0.22621418638E+03  0.33475647901E+03 -0.16895122136E+03  0.44594624874E+03  0.84194911974E+02 0.  0.
        254    2    1    2    0    0 -0.22621418638E+03 -0.33475647901E+03  0.34869257371E+03  0.10573438450E+04  0.91277310286E+03 0.  0.
         23    2    4    4    0    0  0.26307639294E+03 -0.16005934087E+03 -0.12840851182E+03  0.34602501636E+03  0.91740857407E+02 0.  0.
         23    2    4    4    0    0 -0.48929057932E+03 -0.17469713815E+03  0.47710108553E+03  0.71131882867E+03  0.91785996338E+02 0.  0.
          4    1    3    3  502    0  0.17458264681E+03  0.26677161230E+03 -0.16843121267E+03  0.36057629858E+03  0.00000000000E+00 0. -1.
         -3    1    3    3    0  502  0.51631539574E+02  0.67984866712E+02 -0.52000868727E+00  0.85369950156E+02  0.00000000000E+00 0.  1.
         11    1    5    5    0    0  0.11221367490E+03 -0.56137045706E+02 -0.10041535760E+03  0.16070631841E+03  0.00000000000E+00 0. -1.
        -11    1    5    5    0    0  0.15086271804E+03 -0.10392229516E+03 -0.27993154218E+02  0.18531869795E+03  0.00000000000E+00 0.  1.
          1    1    6    6  503    0 -0.10716956502E+03 -0.55891765038E+02  0.16125322961E+03  0.20152371852E+03  0.00000000000E+00 0. -1.
         -1    1    6    6    0  503 -0.38212101430E+03 -0.11880537311E+03  0.31584785592E+03  0.50979511016E+03  0.00000000000E+00 0.  1.
<mgrwt>
<rscale>  0 0.14925060E+04</rscale>
<asrwt>0</asrwt>
<pdfrwt beam="1">  1        2 0.10181144E+00 0.14925060E+04</pdfrwt>
<pdfrwt beam="2">  1       -1 0.12946396E+00 0.14925060E+04</pdfrwt>
<totfact> 0.24891072E+01</totfact>
</mgrwt>
</event>
<event>
12    6  0.1494052E-007  0.2042876E+04  0.7818608E-02  0.8586833E-01
         -1   -1    0    0    0  501 -0.00000000000E+00  0.00000000000E+00  0.98693579809E+03  0.98693579809E+03  0.00000000000E+00 0.  1.
          2   -1    0    0  501    0  0.00000000000E+00 -0.00000000000E+00 -0.10571465085E+04  0.10571465085E+04  0.00000000000E+00 0. -1.
         24    2    1    2    0    0 -0.64384021752E+03  0.47335739028E+03 -0.21466696210E+03  0.83050172776E+03  0.71089876717E+02 0.  0.
        254    2    1    2    0    0  0.64384021752E+03 -0.47335739028E+03  0.14445625169E+03  0.12135805788E+04  0.90183854877E+03 0.  0.
         23    2    4    4    0    0  0.38981367016E+03 -0.27153021293E+03  0.51906937333E+03  0.70936786815E+03  0.89924435236E+02 0.  0.
         23    2    4    4    0    0  0.25402654737E+03 -0.20182717734E+03 -0.37461312165E+03  0.50421271069E+03  0.92907321720E+02 0.  0.
          2    1    3    3  502    0 -0.56648780073E+03  0.40983289700E+03 -0.16335684399E+03  0.71802290376E+03  0.00000000000E+00 0. -1.
         -1    1    3    3    0  502 -0.77352416787E+02  0.63524493272E+02 -0.51310118107E+02  0.11247882400E+03  0.00000000000E+00 0.  1.
         11    1    5    5    0    0  0.54979288518E+02 -0.48354606605E+02  0.13244405207E+03  0.15133511514E+03  0.00000000000E+00 0. -1.
        -11    1    5    5    0    0  0.33483438164E+03 -0.22317560633E+03  0.38662532126E+03  0.55803275301E+03  0.00000000000E+00 0.  1.
          2    1    6    6  503    0  0.10782458772E+03 -0.59249639464E+02 -0.83797890976E+02  0.14885814733E+03  0.00000000000E+00 0. -1.
         -2    1    6    6    0  503  0.14620195965E+03 -0.14257753788E+03 -0.29081523067E+03  0.35535456336E+03  0.00000000000E+00 0.  1.
<mgrwt>
<rscale>  0 0.20428761E+04</rscale>
<asrwt>0</asrwt>
<pdfrwt beam="1">  1        2 0.16263793E+00 0.20428761E+04</pdfrwt>
<pdfrwt beam="2">  1       -1 0.15183628E+00 0.20428761E+04</pdfrwt>
<totfact> 0.82590410E+00</totfact>
</mgrwt>
</event>
<event>
12    6  0.1494052E-007  0.1920620E+04  0.7818608E-02  0.8644660E-01
         -1   -1    0    0    0  501 -0.00000000000E+00  0.00000000000E+00  0.11148307409E+04  0.11148307409E+04  0.00000000000E+00 0.  1.
          2   -1    0    0  501    0  0.00000000000E+00 -0.00000000000E+00 -0.82720656957E+03  0.82720656957E+03  0.00000000000E+00 0. -1.
         24    2    1    2    0    0 -0.11755291385E+03 -0.54234167782E+03  0.61266123000E+03  0.83037177094E+03  0.78805533920E+02 0.  0.
        254    2    1    2    0    0  0.11755291385E+03  0.54234167782E+03 -0.32503705864E+03  0.11116655395E+04  0.90675134368E+03 0.  0.
         23    2    4    4    0    0 -0.27733822901E+03  0.12269364793E+03  0.15798991038E+03  0.35410887189E+03  0.91989438861E+02 0.  0.
         23    2    4    4    0    0  0.39489114285E+03  0.41964802989E+03 -0.48302696902E+03  0.75755666765E+03  0.92377314381E+02 0.  0.
          4    1    3    3  502    0 -0.95101623677E+02 -0.43070708650E+03  0.43606326076E+03  0.62024517779E+03  0.00000000000E+00 0. -1.
         -3    1    3    3    0  502 -0.22451290169E+02 -0.11163459132E+03  0.17659796924E+03  0.21012659315E+03  0.00000000000E+00 0.  1.
         11    1    5    5    0    0 -0.11975279739E+03  0.73168954965E+02  0.26128915471E+02  0.14274855053E+03  0.00000000000E+00 0. -1.
        -11    1    5    5    0    0 -0.15758543162E+03  0.49524692961E+02  0.13186099491E+03  0.21136032137E+03  0.00000000000E+00 0.  1.
          2    1    6    6  503    0  0.27934423290E+02  0.72765987850E+02 -0.77522061156E+02  0.10993130108E+03  0.00000000000E+00 0. -1.
         -2    1    6    6    0  503  0.36695671956E+03  0.34688204204E+03 -0.40550490786E+03  0.64762536657E+03  0.00000000000E+00 0.  1.
<mgrwt>
<rscale>  0 0.19206200E+04</rscale>
<asrwt>0</asrwt>
<pdfrwt beam="1">  1        2 0.12726255E+00 0.19206200E+04</pdfrwt>
<pdfrwt beam="2">  1       -1 0.17151242E+00 0.19206200E+04</pdfrwt>
<totfact> 0.84290998E+00</totfact>
</mgrwt>
</event>
<event>
12    6  0.1494052E-007  0.2310445E+04  0.7818608E-02  0.8473814E-01
         -1   -1    0    0    0  501 -0.00000000000E+00  0.00000000000E+00  0.59482121106E+03  0.59482121106E+03  0.00000000000E+00 0.  1.
          2   -1    0    0  501    0  0.00000000000E+00 -0.00000000000E+00 -0.22435960126E+04  0.22435960126E+04  0.00000000000E+00 0. -1.
         24    2    1    2    0    0  0.47537287372E+03 -0.24978762686E+03 -0.16984249259E+04  0.17830975047E+04  0.80101527958E+02 0.  0.
        254    2    1    2    0    0 -0.47537287372E+03  0.24978762686E+03  0.49650124406E+02  0.10553197189E+04  0.90711705234E+03 0.  0.
         23    2    4    4    0    0 -0.66375332425E+03  0.49245335632E+02 -0.16764190685E+03  0.69290486681E+03  0.94972453762E+02 0.  0.
         23    2    4    4    0    0  0.18838045054E+03  0.20054229122E+03  0.21729203126E+03  0.36241485209E+03  0.91783949887E+02 0.  0.
          4    1    3    3  502    0  0.40599268430E+03 -0.24241901826E+03 -0.14589938966E+04  0.15337080004E+04  0.00000000000E+00 0. -1.
         -3    1    3    3    0  502  0.69380189419E+02 -0.73686085923E+01 -0.23943102929E+03  0.24938950432E+03  0.00000000000E+00 0.  1.
         11    1    5    5    0    0 -0.50193603546E+03  0.70662758888E+02 -0.15062401815E+03  0.52879164519E+03  0.00000000000E+00 0. -1.
        -11    1    5    5    0    0 -0.16181728880E+03 -0.21417423256E+02 -0.17017888703E+02  0.16411322162E+03  0.00000000000E+00 0.  1.
          3    1    6    6  503    0  0.93098757810E+02  0.15536265415E+03  0.10964305332E+03  0.21172277192E+03  0.00000000000E+00 0. -1.
         -3    1    6    6    0  503  0.95281692728E+02  0.45179637076E+02  0.10764897794E+03  0.15069208017E+03  0.00000000000E+00 0.  1.
<mgrwt>
<rscale>  0 0.23104445E+04</rscale>
<asrwt>0</asrwt>
<pdfrwt beam="1">  1        2 0.34516862E+00 0.23104445E+04</pdfrwt>
<pdfrwt beam="2">  1       -1 0.91510954E-01 0.23104445E+04</pdfrwt>
<totfact> 0.58546066E+00</totfact>
</mgrwt>
</event>
<event>
12    6  0.1494052E-007  0.1294810E+04  0.7818608E-02  0.9033691E-01
         -1   -1    0    0    0  501 -0.00000000000E+00  0.00000000000E+00  0.31780914161E+03  0.31780914161E+03  0.00000000000E+00 0.  1.
          2   -1    0    0  501    0  0.00000000000E+00 -0.00000000000E+00 -0.13188203705E+04  0.13188203705E+04  0.00000000000E+00 0. -1.
         24    2    1    2    0    0  0.26746938043E+03 -0.11165998022E+03 -0.47200470717E+03  0.55942744330E+03  0.78503503577E+02 0.  0.
        254    2    1    2    0    0 -0.26746938043E+03  0.11165998022E+03 -0.52900652170E+03  0.10772020688E+04  0.89247329168E+03 0.  0.
         23    2    4    4    0    0 -0.25892625771E+03  0.43683135479E+03 -0.91320364262E+02  0.52378650549E+03  0.90268792757E+02 0.  0.
         23    2    4    4    0    0 -0.85431227121E+01 -0.32517137457E+03 -0.43768615744E+03  0.55341556330E+03  0.94287886309E+02 0.  0.
          4    1    3    3  502    0  0.20870646068E+03 -0.96647084879E+02 -0.42287293669E+03  0.48137362447E+03  0.00000000000E+00 0. -1.
         -3    1    3    3    0  502  0.58762919746E+02 -0.15012895340E+02 -0.49131770477E+02  0.78053818829E+02  0.00000000000E+00 0.  1.
         11    1    5    5    0    0 -0.19578000459E+03  0.38043015351E+03 -0.53952760952E+02  0.43123985474E+03  0.00000000000E+00 0. -1.
        -11    1    5    5    0    0 -0.63146253120E+02  0.56401201277E+02 -0.37367603310E+02  0.92546650754E+02  0.00000000000E+00 0.  1.
          3    1    6    6  503    0  0.32418359053E+02 -0.89523246983E+02 -0.16667877506E+03  0.19195618200E+03  0.00000000000E+00 0. -1.
         -3    1    6    6    0  503 -0.40961481765E+02 -0.23564812759E+03 -0.27100738238E+03  0.36145938130E+03  0.00000000000E+00 0.  1.
<mgrwt>
<rscale>  0 0.12948099E+04</rscale>
<asrwt>0</asrwt>
<pdfrwt beam="1">  1        2 0.20289544E+00 0.12948099E+04</pdfrwt>
<pdfrwt beam="2">  1       -1 0.48893714E-01 0.12948099E+04</pdfrwt>
<totfact> 0.75434269E+01</totfact>
</mgrwt>
</event>
<event>
12    6  0.1494052E-007  0.2335770E+04  0.7818608E-02  0.8463950E-01
         -1   -1    0    0    0  501 -0.00000000000E+00  0.00000000000E+00  0.93638928405E+03  0.93638928405E+03  0.00000000000E+00 0.  1.
          2   -1    0    0  501    0  0.00000000000E+00 -0.00000000000E+00 -0.14566109429E+04  0.14566109429E+04  0.00000000000E+00 0. -1.
         24    2    1    2    0    0  0.69301640883E+03 -0.15793906002E+03 -0.92564919694E+03  0.11698365852E+04  0.80465586596E+02 0.  0.
        254    2    1    2    0    0 -0.69301640883E+03  0.15793906002E+03  0.40542753812E+03  0.12231636417E+04  0.90914317696E+03 0.  0.
         23    2    4    4    0    0 -0.37426584376E+03 -0.36646785501E+03  0.22690156212E+03  0.57775456347E+03  0.89120178200E+02 0.  0.
         23    2    4    4    0    0 -0.31875056507E+03  0.52440691503E+03  0.17852597600E+03  0.64540907826E+03  0.89871124022E+02 0.  0.
          4    1    3    3  502    0  0.38410155458E+03 -0.71658560965E+02 -0.44747815938E+03  0.59405863070E+03  0.00000000000E+00 0. -1.
         -3    1    3    3    0  502  0.30891485426E+03 -0.86280499055E+02 -0.47817103756E+03  0.57577795447E+03  0.00000000000E+00 0.  1.
         11    1    5    5    0    0 -0.24167593861E+02 -0.64673766759E+02  0.32690431102E+02  0.76390005796E+02  0.00000000000E+00 0. -1.
        -11    1    5    5    0    0 -0.35009824990E+03 -0.30179408825E+03  0.19421113102E+03  0.50136455768E+03  0.00000000000E+00 0.  1.
          1    1    6    6  503    0 -0.19284847586E+03  0.27888981363E+03  0.13990884281E+03  0.36680314487E+03  0.00000000000E+00 0. -1.
         -1    1    6    6    0  503 -0.12590208921E+03  0.24551710140E+03  0.38617133192E+02  0.27860593340E+03  0.00000000000E+00 0.  1.
<mgrwt>
<rscale>  0 0.23357696E+04</rscale>
<asrwt>0</asrwt>
<pdfrwt beam="1">  1        2 0.22409399E+00 0.23357696E+04</pdfrwt>
<pdfrwt beam="2">  1       -1 0.14405989E+00 0.23357696E+04</pdfrwt>
<totfact> 0.53780651E+00</totfact>
</mgrwt>
</event>
<event>
12    6  0.1494052E-007  0.1884319E+04  0.7818608E-02  0.8662701E-01
         -1   -1    0    0    0  501 -0.00000000000E+00  0.00000000000E+00  0.11944541673E+04  0.11944541673E+04  0.00000000000E+00 0.  1.
          2   -1    0    0  501    0  0.00000000000E+00 -0.00000000000E+00 -0.74315504888E+03  0.74315504888E+03  0.00000000000E+00 0. -1.
         24    2    1    2    0    0 -0.22251970012E+03 -0.43889478976E+03  0.71860988430E+03  0.87457246004E+03  0.79581207638E+02 0.  0.
        254    2    1    2    0    0  0.22251970012E+03  0.43889478976E+03 -0.26731076592E+03  0.10630367561E+04  0.90357536811E+03 0.  0.
         23    2    4    4    0    0  0.12032980098E+03  0.62987661140E+03 -0.42961832896E+03  0.77722857770E+03  0.91041456584E+02 0.  0.
         23    2    4    4    0    0  0.10218989914E+03 -0.19098182163E+03  0.16230756304E+03  0.28580817842E+03  0.91791819621E+02 0.  0.
          2    1    3    3  502    0 -0.33504989571E+02 -0.11402261612E+03  0.12943063295E+03  0.17571576497E+03  0.00000000000E+00 0. -1.
         -1    1    3    3    0  502 -0.18901471055E+03 -0.32487217365E+03  0.58917925136E+03  0.69885669507E+03  0.00000000000E+00 0.  1.
         11    1    5    5    0    0  0.55425916301E+01  0.42819699724E+02 -0.45702791516E+01  0.43418135127E+02  0.00000000000E+00 0.  1.
        -11    1    5    5    0    0  0.11478720935E+03  0.58705691167E+03 -0.42504804981E+03  0.73381044257E+03  0.00000000000E+00 0. -1.
          1    1    6    6  503    0  0.10614797532E+03 -0.19671299189E+03  0.16552080494E+03  0.27813761110E+03  0.00000000000E+00 0. -1.
         -1    1    6    6    0  503 -0.39580761749E+01  0.57311702563E+01 -0.32132418938E+01  0.76705673181E+01  0.00000000000E+00 0.  1.
<mgrwt>
<rscale>  0 0.18843191E+04</rscale>
<asrwt>0</asrwt>
<pdfrwt beam="1">  1        2 0.11433155E+00 0.18843191E+04</pdfrwt>
<pdfrwt beam="2">  1       -1 0.18376218E+00 0.18843191E+04</pdfrwt>
<totfact> 0.79453612E+00</totfact>
</mgrwt>
</event>
<event>
12    6  0.1494052E-007  0.2444856E+04  0.7818608E-02  0.8422899E-01
          2   -1    0    0  501    0  0.00000000000E+00  0.00000000000E+00  0.22328588106E+04  0.22328588106E+04  0.00000000000E+00 0. -1.
         -1   -1    0    0    0  501 -0.00000000000E+00 -0.00000000000E+00 -0.66924503940E+03  0.66924503940E+03  0.00000000000E+00 0.  1.
         24    2    1    2    0    0 -0.36771643064E+02  0.70739502445E+03 -0.25166193830E+03  0.75604616451E+03  0.80698186707E+02 0.  0.
        254    2    1    2    0    0  0.36771643064E+02 -0.70739502445E+03  0.18152757095E+04  0.21460576855E+04  0.89920954932E+03 0.  0.
         23    2    4    4    0    0  0.36957995432E+03 -0.31883249591E+03  0.13866988257E+04  0.14729807435E+04  0.92169053418E+02 0.  0.
         23    2    4    4    0    0 -0.33280831126E+03 -0.38856252854E+03  0.42857688382E+03  0.67307694201E+03  0.87248002257E+02 0.  0.
          2    1    3    3  502    0 -0.21333164506E+02  0.12664810064E+03 -0.75464768380E+02  0.14896233272E+03  0.00000000000E+00 0. -1.
         -1    1    3    3    0  502 -0.15438478558E+02  0.58074692381E+03 -0.17619716992E+03  0.60708383179E+03  0.00000000000E+00 0.  1.
         11    1    5    5    0    0  0.13144538501E+03 -0.17068115552E+03  0.56029158688E+03  0.60028044147E+03  0.00000000000E+00 0. -1.
        -11    1    5    5    0    0  0.23813456932E+03 -0.14815134039E+03  0.82640723882E+03  0.87270030201E+03  0.00000000000E+00 0.  1.
          4    1    6    6  503    0 -0.92989229799E+02 -0.60715942153E+02  0.11548420140E+03  0.16021867327E+03  0.00000000000E+00 0. -1.
         -4    1    6    6    0  503 -0.23981908146E+03 -0.32784658639E+03  0.31309268241E+03  0.51285826874E+03  0.00000000000E+00 0.  1.
<mgrwt>
<rscale>  0 0.24448556E+04</rscale>
<asrwt>0</asrwt>
<pdfrwt beam="1">  1        2 0.34351674E+00 0.24448556E+04</pdfrwt>
<pdfrwt beam="2">  1       -1 0.10296078E+00 0.24448556E+04</pdfrwt>
<totfact> 0.44935610E+00</totfact>
</mgrwt>
</event>
<event>
12    6  0.1494052E-007  0.1178072E+04  0.7818608E-02  0.9132269E-01
          2   -1    0    0  501    0  0.00000000000E+00  0.00000000000E+00  0.43004842300E+04  0.43004842300E+04  0.00000000000E+00 0. -1.
         -1   -1    0    0    0  501 -0.00000000000E+00 -0.00000000000E+00 -0.80680116956E+02  0.80680116956E+02  0.00000000000E+00 0.  1.
         24    2    1    2    0    0 -0.16865935892E+03 -0.83461491435E+02  0.14566948239E+04  0.14710318197E+04  0.81012373530E+02 0.  0.
        254    2    1    2    0    0  0.16865935892E+03  0.83461491435E+02  0.27631092891E+04  0.29101325273E+04  0.89369266674E+03 0.  0.
         23    2    4    4    0    0 -0.39474174606E+02  0.43830078273E+03  0.98800016084E+03  0.10854174078E+04  0.91218663877E+02 0.  0.
         23    2    4    4    0    0  0.20813353353E+03 -0.35483929129E+03  0.17751091283E+04  0.18247151195E+04  0.96655882107E+02 0.  0.
          2    1    3    3  502    0 -0.95891100815E+02 -0.57717577972E+02  0.11211899124E+04  0.11267622827E+04  0.00000000000E+00 0. -1.
         -1    1    3    3    0  502 -0.72768258109E+02 -0.25743913462E+02  0.33550491155E+03  0.34426953705E+03  0.00000000000E+00 0.  1.
         11    1    5    5    0    0 -0.56251066005E+02  0.39046770468E+03  0.91624137098E+03  0.99756075541E+03  0.00000000000E+00 0.  1.
        -11    1    5    5    0    0  0.16776891399E+02  0.47833078046E+02  0.71758789858E+02  0.87856652351E+02  0.00000000000E+00 0. -1.
          2    1    6    6  503    0  0.91731968726E+02 -0.72071058118E+02  0.47006675093E+03  0.48432606974E+03  0.00000000000E+00 0. -1.
         -2    1    6    6    0  503  0.11640156480E+03 -0.28276823317E+03  0.13050423774E+04  0.13403890498E+04  0.00000000000E+00 0.  1.
<mgrwt>
<rscale>  0 0.11780723E+04</rscale>
<asrwt>0</asrwt>
<pdfrwt beam="1">  1        2 0.66161278E+00 0.11780723E+04</pdfrwt>
<pdfrwt beam="2">  1       -1 0.12412329E-01 0.11780723E+04</pdfrwt>
<totfact> 0.10041967E+01</totfact>
</mgrwt>
</event>
<event>
12    6  0.1494052E-007  0.1240754E+04  0.7818608E-02  0.9077914E-01
         -1   -1    0    0    0  501 -0.00000000000E+00  0.00000000000E+00  0.34248857961E+03  0.34248857961E+03  0.00000000000E+00 0.  1.
          2   -1    0    0  501    0  0.00000000000E+00 -0.00000000000E+00 -0.11237392917E+04  0.11237392917E+04  0.00000000000E+00 0. -1.
         24    2    1    2    0    0 -0.16725027467E+03 -0.11540210756E+03  0.34899268931E+02  0.22147059518E+03  0.80876231050E+02 0.  0.
        254    2    1    2    0    0  0.16725027467E+03  0.11540210756E+03 -0.81614998100E+03  0.12447572761E+04  0.91762169991E+03 0.  0.
         23    2    4    4    0    0 -0.80094457100E+02  0.44634363373E+03 -0.63323760543E+03  0.78421723438E+03  0.91482481101E+02 0.  0.
         23    2    4    4    0    0  0.24734473177E+03 -0.33094152617E+03 -0.18291237557E+03  0.46054004173E+03  0.89098163956E+02 0.  0.
          4    1    3    3  502    0 -0.47572282396E+02 -0.37177776863E+02 -0.26416250743E+02  0.65902408515E+02  0.00000000000E+00 0. -1.
         -3    1    3    3    0  502 -0.11967799228E+03 -0.78224330699E+02  0.61315519674E+02  0.15556818666E+03  0.00000000000E+00 0.  1.
         11    1    5    5    0    0 -0.92168163037E+02  0.27898635879E+03 -0.42747450866E+03  0.51871265092E+03  0.00000000000E+00 0.  1.
        -11    1    5    5    0    0  0.12073705936E+02  0.16735727493E+03 -0.20576309677E+03  0.26550458346E+03  0.00000000000E+00 0. -1.
          1    1    6    6  503    0  0.12694083422E+03 -0.23004280559E+03 -0.13989841672E+03  0.29766631451E+03  0.00000000000E+00 0. -1.
         -1    1    6    6    0  503  0.12040389756E+03 -0.10089872058E+03 -0.43013958852E+02  0.16287372722E+03  0.00000000000E+00 0.  1.
<mgrwt>
<rscale>  0 0.12407544E+04</rscale>
<asrwt>0</asrwt>
<pdfrwt beam="1">  1        2 0.17288297E+00 0.12407544E+04</pdfrwt>
<pdfrwt beam="2">  1       -1 0.52690550E-01 0.12407544E+04</pdfrwt>
<totfact> 0.85798053E+01</totfact>
</mgrwt>
</event>
<event>
12    6  0.1494052E-007  0.1226773E+04  0.7818608E-02  0.9089740E-01
         -1   -1    0    0    0  501 -0.00000000000E+00  0.00000000000E+00  0.31599258065E+03  0.31599258065E+03  0.00000000000E+00 0.  1.
          2   -1    0    0  501    0  0.00000000000E+00 -0.00000000000E+00 -0.11906700945E+04  0.11906700945E+04  0.00000000000E+00 0. -1.
         24    2    1    2    0    0  0.55533272932E+02 -0.25910231351E+03 -0.96730745241E+02  0.29215177622E+03  0.76012301679E+02 0.  0.
        254    2    1    2    0    0 -0.55533272932E+02  0.25910231351E+03 -0.77794676864E+03  0.12145108990E+04  0.89421339488E+03 0.  0.
         23    2    4    4    0    0  0.20076498216E+03  0.40520841987E+03 -0.78028803567E+03  0.90537779387E+03  0.79743899045E+02 0.  0.
         23    2    4    4    0    0 -0.25629825509E+03 -0.14610610637E+03  0.23412670225E+01  0.30913310509E+03  0.92314707666E+02 0.  0.
          4    1    3    3  502    0  0.65953089204E+02 -0.23567267429E+03 -0.10337177937E+03  0.26566359208E+03  0.00000000000E+00 0. -1.
         -3    1    3    3    0  502 -0.10419816273E+02 -0.23429639212E+02  0.66410341336E+01  0.26488184142E+02  0.00000000000E+00 0.  1.
         11    1    5    5    0    0  0.17487119865E+03  0.35768161069E+03 -0.72991889003E+03  0.83144311698E+03  0.00000000000E+00 0. -1.
        -11    1    5    5    0    0  0.25893783512E+02  0.47526809183E+02 -0.50369145634E+02  0.73934676895E+02  0.00000000000E+00 0.  1.
          3    1    6    6  503    0 -0.25877576984E+03 -0.12556467522E+03 -0.34367007139E+01  0.28765117352E+03  0.00000000000E+00 0. -1.
         -3    1    6    6    0  503  0.24775147446E+01 -0.20541431141E+02  0.57779677364E+01  0.21481931566E+02  0.00000000000E+00 0.  1.
<mgrwt>
<rscale>  0 0.12267729E+04</rscale>
<asrwt>0</asrwt>
<pdfrwt beam="1">  1        2 0.18318001E+00 0.12267729E+04</pdfrwt>
<pdfrwt beam="2">  1       -1 0.48614244E-01 0.12267729E+04</pdfrwt>
<totfact> 0.91201209E+01</totfact>
</mgrwt>
</event>
<event>
12    6  0.1494052E-007  0.2269150E+04  0.7818608E-02  0.8490185E-01
         -1   -1    0    0    0  501 -0.00000000000E+00  0.00000000000E+00  0.52713571745E+03  0.52713571745E+03  0.00000000000E+00 0.  1.
          2   -1    0    0  501    0  0.00000000000E+00 -0.00000000000E+00 -0.24419903525E+04  0.24419903525E+04  0.00000000000E+00 0. -1.
         24    2    1    2    0    0 -0.32644435242E+03 -0.49176888994E+03 -0.17873412800E+04  0.18840005802E+04  0.80416281939E+02 0.  0.
        254    2    1    2    0    0  0.32644435242E+03  0.49176888994E+03 -0.12751335499E+03  0.10851254898E+04  0.90157368890E+03 0.  0.
         23    2    4    4    0    0  0.23770413252E+03  0.13650558744E+02 -0.43358005279E+03  0.50323161200E+03  0.92524595471E+02 0.  0.
         23    2    4    4    0    0  0.88740219900E+02  0.47811833119E+03  0.30606669780E+03  0.58189387777E+03  0.91933107409E+02 0.  0.
          2    1    3    3  502    0 -0.20823959280E+03 -0.37827018663E+03 -0.13047423288E+04  0.13743378793E+04  0.00000000000E+00 0. -1.
         -1    1    3    3    0  502 -0.11820475962E+03 -0.11349870331E+03 -0.48259895129E+03  0.50966270085E+03  0.00000000000E+00 0.  1.
         11    1    5    5    0    0  0.16456063216E+03 -0.91279022021E+01 -0.36469515529E+03  0.40020754184E+03  0.00000000000E+00 0. -1.
        -11    1    5    5    0    0  0.73143500359E+02  0.22778460946E+02 -0.68884897496E+02  0.10302407015E+03  0.00000000000E+00 0.  1.
          1    1    6    6  503    0  0.98025557131E+02  0.36224475829E+03  0.20366320239E+03  0.42697655061E+03  0.00000000000E+00 0. -1.
         -1    1    6    6    0  503 -0.92853372311E+01  0.11587357290E+03  0.10240349541E+03  0.15491732716E+03  0.00000000000E+00 0.  1.
<mgrwt>
<rscale>  0 0.22691499E+04</rscale>
<asrwt>0</asrwt>
<pdfrwt beam="1">  1        2 0.37569083E+00 0.22691499E+04</pdfrwt>
<pdfrwt beam="2">  1       -1 0.81097802E-01 0.22691499E+04</pdfrwt>
<totfact> 0.58922757E+00</totfact>
</mgrwt>
</event>
<event>
12    6  0.1494052E-007  0.2584406E+04  0.7818608E-02  0.8373517E-01
         -1   -1    0    0    0  501 -0.00000000000E+00  0.00000000000E+00  0.66506394636E+03  0.66506394636E+03  0.00000000000E+00 0.  1.
          2   -1    0    0  501    0  0.00000000000E+00 -0.00000000000E+00 -0.25107198088E+04  0.25107198088E+04  0.00000000000E+00 0. -1.
         24    2    1    2    0    0 -0.42557928388E+03 -0.63392061297E+03  0.21890825572E+03  0.79823123394E+03  0.79241453872E+02 0.  0.
        254    2    1    2    0    0  0.42557928388E+03  0.63392061297E+03 -0.20645641181E+04  0.23775525212E+04  0.89853098041E+03 0.  0.
         23    2    4    4    0    0 -0.25546959077E+03  0.10931078180E+03 -0.73518889838E+03  0.79122052271E+03  0.91179166670E+02 0.  0.
         23    2    4    4    0    0  0.68104887465E+03  0.52460983117E+03 -0.13293752197E+04  0.15863319985E+04  0.10083496366E+03 0.  0.
          2    1    3    3  502    0 -0.25028173746E+03 -0.40534512257E+03  0.17140114750E+03  0.50628447523E+03  0.00000000000E+00 0. -1.
         -1    1    3    3    0  502 -0.17529754642E+03 -0.22857549040E+03  0.47507108214E+02  0.29194675871E+03  0.00000000000E+00 0.  1.
         11    1    5    5    0    0 -0.11759304933E+03  0.88042130860E+02 -0.45667723459E+03  0.47972246002E+03  0.00000000000E+00 0. -1.
        -11    1    5    5    0    0 -0.13787654144E+03  0.21268650935E+02 -0.27851166379E+03  0.31149806269E+03  0.00000000000E+00 0.  1.
          2    1    6    6  503    0  0.22631216427E+03  0.15776015915E+03 -0.34644328678E+03  0.44286387803E+03  0.00000000000E+00 0. -1.
         -2    1    6    6    0  503  0.45473671038E+03  0.36684967202E+03 -0.98293193296E+03  0.11434681204E+04  0.00000000000E+00 0.  1.
<mgrwt>
<rscale>  0 0.25844065E+04</rscale>
<asrwt>0</asrwt>
<pdfrwt beam="1">  1        2 0.38626458E+00 0.25844065E+04</pdfrwt>
<pdfrwt beam="2">  1       -1 0.10231753E+00 0.25844065E+04</pdfrwt>
<totfact> 0.31242638E+00</totfact>
</mgrwt>
</event>
<event>
12    6  0.1494052E-007  0.3231328E+04  0.7818608E-02  0.8180592E-01
         -1   -1    0    0    0  501 -0.00000000000E+00  0.00000000000E+00  0.10565719862E+04  0.10565719862E+04  0.00000000000E+00 0.  1.
          2   -1    0    0  501    0  0.00000000000E+00 -0.00000000000E+00 -0.24706032556E+04  0.24706032556E+04  0.00000000000E+00 0. -1.
         24    2    1    2    0    0 -0.28284199829E+03 -0.10642741131E+03  0.93723929360E+03  0.98819072213E+03  0.82322657601E+02 0.  0.
        254    2    1    2    0    0  0.28284199829E+03  0.10642741131E+03 -0.23512705630E+04  0.25389845196E+04  0.90919895533E+03 0.  0.
         23    2    4    4    0    0  0.42668458622E+03 -0.15201106640E+03 -0.20678899655E+04  0.21190797123E+04  0.95722605643E+02 0.  0.
         23    2    4    4    0    0 -0.14384258793E+03  0.25843847770E+03 -0.28338059750E+03  0.41990480728E+03  0.92381531057E+02 0.  0.
          2    1    3    3  502    0 -0.25070243744E+02 -0.21820124383E+01  0.17539849420E+03  0.17719455428E+03  0.00000000000E+00 0. -1.
         -1    1    3    3    0  502 -0.25777175455E+03 -0.10424539887E+03  0.76184079940E+03  0.81099616784E+03  0.00000000000E+00 0.  1.
         11    1    5    5    0    0  0.39930511266E+03 -0.12194573865E+03 -0.19551184869E+04  0.19992007488E+04  0.00000000000E+00 0. -1.
        -11    1    5    5    0    0  0.27379473560E+02 -0.30065327747E+02 -0.11277147866E+03  0.11987896356E+03  0.00000000000E+00 0.  1.
          4    1    6    6  503    0 -0.89039760250E+02  0.10268005724E+03 -0.79154915948E+02  0.15727928592E+03  0.00000000000E+00 0. -1.
         -4    1    6    6    0  503 -0.54802827679E+02  0.15575842047E+03 -0.20422568155E+03  0.26262552137E+03  0.00000000000E+00 0.  1.
<mgrwt>
<rscale>  0 0.32313280E+04</rscale>
<asrwt>0</asrwt>
<pdfrwt beam="1">  1        2 0.38009281E+00 0.32313280E+04</pdfrwt>
<pdfrwt beam="2">  1       -1 0.16254954E+00 0.32313280E+04</pdfrwt>
<totfact> 0.96591003E-01</totfact>
</mgrwt>
</event>
<event>
12    6  0.1494052E-007  0.2415434E+04  0.7818608E-02  0.8433748E-01
         -1   -1    0    0    0  501 -0.00000000000E+00  0.00000000000E+00  0.92520763581E+03  0.92520763581E+03  0.00000000000E+00 0.  1.
          2   -1    0    0  501    0  0.00000000000E+00 -0.00000000000E+00 -0.15764898323E+04  0.15764898323E+04  0.00000000000E+00 0. -1.
         24    2    1    2    0    0 -0.21021410741E+03  0.78969372883E+03 -0.92465274841E+03  0.12367329439E+04  0.81972635391E+02 0.  0.
        254    2    1    2    0    0  0.21021410741E+03 -0.78969372883E+03  0.27337055197E+03  0.12649645242E+04  0.92606567398E+03 0.  0.
         23    2    4    4    0    0  0.23471607672E+02 -0.12112309800E+03 -0.31510301088E+03  0.35031986014E+03  0.90622159015E+02 0.  0.
         23    2    4    4    0    0  0.18674249974E+03 -0.66857063083E+03  0.58847356285E+03  0.91464466408E+03  0.91729372266E+02 0.  0.
          2    1    3    3  502    0 -0.14543797500E+03  0.47162221118E+03 -0.61006573153E+03  0.78470370933E+03  0.00000000000E+00 0. -1.
         -1    1    3    3    0  502 -0.64776132410E+02  0.31807151765E+03 -0.31458701689E+03  0.45202923453E+03  0.00000000000E+00 0.  1.
         11    1    5    5    0    0  0.30545264784E+02 -0.12888771891E+02 -0.27944106102E+02  0.43359044125E+02  0.00000000000E+00 0.  1.
        -11    1    5    5    0    0 -0.70736571116E+01 -0.10823432611E+03 -0.28715890478E+03  0.30696081601E+03  0.00000000000E+00 0. -1.
          4    1    6    6  503    0  0.93654671281E+02 -0.48861266373E+03  0.42440146980E+03  0.65393435464E+03  0.00000000000E+00 0.  1.
         -4    1    6    6    0  503  0.93087828454E+02 -0.17995796710E+03  0.16407209304E+03  0.26071030943E+03  0.00000000000E+00 0. -1.
<mgrwt>
<rscale>  0 0.24154341E+04</rscale>
<asrwt>0</asrwt>
<pdfrwt beam="1">  1        2 0.24253689E+00 0.24154341E+04</pdfrwt>
<pdfrwt beam="2">  1       -1 0.14233964E+00 0.24154341E+04</pdfrwt>
<totfact> 0.47184195E+00</totfact>
</mgrwt>
</event>
<event>
12    6  0.1494052E-007  0.1403384E+04  0.7818608E-02  0.8951372E-01
          2   -1    0    0  501    0  0.00000000000E+00  0.00000000000E+00  0.71724157091E+03  0.71724157091E+03  0.00000000000E+00 0. -1.
         -1   -1    0    0    0  501 -0.00000000000E+00 -0.00000000000E+00 -0.68647993561E+03  0.68647993561E+03  0.00000000000E+00 0.  1.
         24    2    1    2    0    0  0.19066077659E+02 -0.35588341022E+03 -0.18164353437E+03  0.40741134214E+03  0.77285905209E+02 0.  0.
        254    2    1    2    0    0 -0.19066077659E+02  0.35588341022E+03  0.21240516968E+03  0.99631016437E+03  0.90581536228E+03 0.  0.
         23    2    4    4    0    0  0.35088809344E+02  0.15867349331E+03 -0.34714428872E+03  0.39377647289E+03  0.90234424645E+02 0.  0.
         23    2    4    4    0    0 -0.54154887003E+02  0.19720991691E+03  0.55954945840E+03  0.60253369148E+03  0.90148487831E+02 0.  0.
          4    1    3    3  502    0  0.20156407817E+02 -0.52346515122E+02 -0.52437859415E+01  0.56337693532E+02  0.00000000000E+00 0. -1.
         -3    1    3    3    0  502 -0.10903301583E+01 -0.30353689509E+03 -0.17639974843E+03  0.35107364861E+03  0.00000000000E+00 0.  1.
         11    1    5    5    0    0  0.44139700232E+02  0.16673121452E+03 -0.31058764346E+03  0.35526369826E+03  0.00000000000E+00 0. -1.
        -11    1    5    5    0    0 -0.90508908880E+01 -0.80577212110E+01 -0.36556645265E+02  0.38512774634E+02  0.00000000000E+00 0.  1.
          4    1    6    6  503    0 -0.78994990230E+02  0.15429773992E+03  0.41638087121E+03  0.45102220670E+03  0.00000000000E+00 0. -1.
         -4    1    6    6    0  503  0.24840103227E+02  0.42912176986E+02  0.14316858719E+03  0.15151148478E+03  0.00000000000E+00 0.  1.
<mgrwt>
<rscale>  0 0.14033844E+04</rscale>
<asrwt>0</asrwt>
<pdfrwt beam="1">  1        2 0.11034486E+00 0.14033844E+04</pdfrwt>
<pdfrwt beam="2">  1       -1 0.10561230E+00 0.14033844E+04</pdfrwt>
<totfact> 0.37093464E+01</totfact>
</mgrwt>
</event>
<event>
12    6  0.1494052E-007  0.1884412E+04  0.7818608E-02  0.8662655E-01
          2   -1    0    0  501    0  0.00000000000E+00  0.00000000000E+00  0.26025918846E+04  0.26025918846E+04  0.00000000000E+00 0. -1.
         -1   -1    0    0    0  501 -0.00000000000E+00 -0.00000000000E+00 -0.34110293020E+03  0.34110293020E+03  0.00000000000E+00 0.  1.
         24    2    1    2    0    0  0.14426672792E+03 -0.56198272716E+03  0.19719604128E+03  0.61794585495E+03  0.79582199909E+02 0.  0.
        254    2    1    2    0    0 -0.14426672792E+03  0.56198272716E+03  0.20642929131E+04  0.23257489598E+04  0.90064727757E+03 0.  0.
         23    2    4    4    0    0 -0.44080289071E+02 -0.74637656841E+02  0.13631973007E+04  0.13689300382E+04  0.90270244937E+02 0.  0.
         23    2    4    4    0    0 -0.10018643885E+03  0.63662038401E+03  0.70109561243E+03  0.95681892165E+03  0.92976100184E+02 0.  0.
          2    1    3    3  502    0 -0.35294512319E+01  0.66455608212E+00  0.29175336920E+01  0.46271658311E+01  0.00000000000E+00 0. -1.
         -3    1    3    3    0  502  0.14779617915E+03 -0.56264728325E+03  0.19427850759E+03  0.61331868912E+03  0.00000000000E+00 0.  1.
         11    1    5    5    0    0  0.45499350980E+01 -0.15348905649E+02  0.83910394433E+03  0.83925664740E+03  0.00000000000E+00 0. -1.
        -11    1    5    5    0    0 -0.48630224169E+02 -0.59288751192E+02  0.52409335634E+03  0.52967339076E+03  0.00000000000E+00 0.  1.
          2    1    6    6  503    0 -0.68294896464E+02  0.47648484232E+03  0.46127578865E+03  0.66669134615E+03  0.00000000000E+00 0. -1.
         -2    1    6    6    0  503 -0.31891542384E+02  0.16013554169E+03  0.23981982378E+03  0.29012757550E+03  0.00000000000E+00 0.  1.
<mgrwt>
<rscale>  0 0.18844115E+04</rscale>
<asrwt>0</asrwt>
<pdfrwt beam="1">  1        2 0.40039874E+00 0.18844115E+04</pdfrwt>
<pdfrwt beam="2">  1       -1 0.52477376E-01 0.18844115E+04</pdfrwt>
<totfact> 0.11859622E+01</totfact>
</mgrwt>
</event>
<event>
12    6  0.1494052E-007  0.1983331E+04  0.7818608E-02  0.8614454E-01
         -1   -1    0    0    0  501 -0.00000000000E+00  0.00000000000E+00  0.78113329381E+03  0.78113329381E+03  0.00000000000E+00 0.  1.
          2   -1    0    0  501    0  0.00000000000E+00 -0.00000000000E+00 -0.12589403714E+04  0.12589403714E+04  0.00000000000E+00 0. -1.
         24    2    1    2    0    0  0.25537585749E+03 -0.45157082768E+03 -0.79505586216E+03  0.95265948332E+03  0.79455812857E+02 0.  0.
        254    2    1    2    0    0 -0.25537585749E+03  0.45157082768E+03  0.31724878461E+03  0.10874141819E+04  0.90149307850E+03 0.  0.
         23    2    4    4    0    0 -0.45527013799E+03  0.17044261540E+03  0.48613879119E+03  0.69337567402E+03  0.90096156012E+02 0.  0.
         23    2    4    4    0    0  0.19989428051E+03  0.28112821228E+03 -0.16889000658E+03  0.39403850784E+03  0.88043831227E+02 0.  0.
          2    1    3    3  502    0  0.24996460863E+03 -0.41746542956E+03 -0.76625737069E+03  0.90769490942E+03  0.00000000000E+00 0. -1.
         -1    1    3    3    0  502  0.54112488597E+01 -0.34105398115E+02 -0.28798491473E+02  0.44964573899E+02  0.00000000000E+00 0.  1.
         11    1    5    5    0    0 -0.85335488741E+02  0.47810038968E+02  0.14799573523E+03  0.17739978329E+03  0.00000000000E+00 0. -1.
        -11    1    5    5    0    0 -0.36993464925E+03  0.12263257643E+03  0.33814305596E+03  0.51597589073E+03  0.00000000000E+00 0.  1.
          2    1    6    6  503    0  0.95384934193E+02  0.77587888802E+02 -0.30658166044E+02  0.12672051651E+03  0.00000000000E+00 0.  1.
         -2    1    6    6    0  503  0.10450934631E+03  0.20354032348E+03 -0.13823184054E+03  0.26731799133E+03  0.00000000000E+00 0. -1.
<mgrwt>
<rscale>  0 0.19833308E+04</rscale>
<asrwt>0</asrwt>
<pdfrwt beam="1">  1        2 0.19368313E+00 0.19833308E+04</pdfrwt>
<pdfrwt beam="2">  1       -1 0.12017435E+00 0.19833308E+04</pdfrwt>
<totfact> 0.11433221E+01</totfact>
</mgrwt>
</event>
<event>
12    6  0.1494052E-007  0.1963453E+04  0.7818608E-02  0.8623901E-01
         -1   -1    0    0    0  501 -0.00000000000E+00  0.00000000000E+00  0.47983913258E+03  0.47983913258E+03  0.00000000000E+00 0.  1.
          2   -1    0    0  501    0  0.00000000000E+00 -0.00000000000E+00 -0.20085627074E+04  0.20085627074E+04  0.00000000000E+00 0. -1.
         24    2    1    2    0    0 -0.25210368027E+03  0.24396241544E+03 -0.15003900328E+04  0.15429548785E+04  0.80408834905E+02 0.  0.
        254    2    1    2    0    0  0.25210368027E+03 -0.24396241544E+03 -0.28333541976E+02  0.94544696147E+03  0.87749258777E+03 0.  0.
         23    2    4    4    0    0 -0.15535155073E+03  0.22507960545E+03  0.10047440735E+03  0.30442243269E+03  0.88221187273E+02 0.  0.
         23    2    4    4    0    0  0.40745523101E+03 -0.46904202089E+03 -0.12880794933E+03  0.64102452878E+03  0.91108594867E+02 0.  0.
          2    1    3    3  502    0 -0.10042205022E+03  0.11758901309E+03 -0.82209970382E+03  0.83651639984E+03  0.00000000000E+00 0. -1.
         -3    1    3    3    0  502 -0.15168163006E+03  0.12637340235E+03 -0.67829032899E+03  0.70643847865E+03  0.00000000000E+00 0.  1.
         11    1    5    5    0    0 -0.25281916611E+02  0.22255068426E+02  0.46645480454E+02  0.57534895715E+02  0.00000000000E+00 0.  1.
        -11    1    5    5    0    0 -0.13006963412E+03  0.20282453703E+03  0.53828926899E+02  0.24688753697E+03  0.00000000000E+00 0. -1.
          3    1    6    6  503    0  0.41084441695E+03 -0.46376765254E+03 -0.12146526405E+03  0.63136944878E+03  0.00000000000E+00 0. -1.
         -3    1    6    6    0  503 -0.33891859400E+01 -0.52743683489E+01 -0.73426852808E+01  0.96550800073E+01  0.00000000000E+00 0.  1.
<mgrwt>
<rscale>  0 0.19634531E+04</rscale>
<asrwt>0</asrwt>
<pdfrwt beam="1">  1        2 0.30900965E+00 0.19634531E+04</pdfrwt>
<pdfrwt beam="2">  1       -1 0.73821405E-01 0.19634531E+04</pdfrwt>
<totfact> 0.12956733E+01</totfact>
</mgrwt>
</event>
<event>
12    6  0.1494052E-007  0.1681158E+04  0.7818608E-02  0.8772184E-01
         -1   -1    0    0    0  501 -0.00000000000E+00  0.00000000000E+00  0.43589872292E+03  0.43589872292E+03  0.00000000000E+00 0.  1.
          2   -1    0    0  501    0  0.00000000000E+00 -0.00000000000E+00 -0.16209572511E+04  0.16209572511E+04  0.00000000000E+00 0. -1.
         24    2    1    2    0    0  0.36982147684E+02 -0.18040434475E+03  0.27047947493E+03  0.33674012889E+03  0.79506988337E+02 0.  0.
        254    2    1    2    0    0 -0.36982147684E+02  0.18040434475E+03 -0.14555380031E+04  0.17201158452E+04  0.89793888174E+03 0.  0.
         23    2    4    4    0    0 -0.21584164115E+03  0.47052527904E+03 -0.10891446616E+04  0.12094382169E+04  0.92320388393E+02 0.  0.
         23    2    4    4    0    0  0.17885949347E+03 -0.29012093430E+03 -0.36639334149E+03  0.51067762831E+03  0.10191508447E+03 0.  0.
          4    1    3    3  502    0  0.40424690434E+02 -0.30652366229E+02  0.72130998468E+02  0.88185055946E+02  0.00000000000E+00 0. -1.
         -3    1    3    3    0  502 -0.34425427509E+01 -0.14975197852E+03  0.19834847646E+03  0.24855507294E+03  0.00000000000E+00 0.  1.
         11    1    5    5    0    0 -0.20689687966E+02  0.14110455903E+03 -0.27664203736E+03  0.31123845618E+03  0.00000000000E+00 0. -1.
        -11    1    5    5    0    0 -0.19515195319E+03  0.32942072001E+03 -0.81250262429E+03  0.89819976068E+03  0.00000000000E+00 0.  1.
          2    1    6    6  503    0  0.17428800319E+03 -0.22485380513E+03 -0.33039749564E+03  0.43600234731E+03  0.00000000000E+00 0.  1.
         -2    1    6    6    0  503  0.45714902826E+01 -0.65267129170E+02 -0.35995845856E+02  0.74675281000E+02  0.00000000000E+00 0. -1.
<mgrwt>
<rscale>  0 0.16811582E+04</rscale>
<asrwt>0</asrwt>
<pdfrwt beam="1">  1        2 0.24937804E+00 0.16811582E+04</pdfrwt>
<pdfrwt beam="2">  1       -1 0.67061341E-01 0.16811582E+04</pdfrwt>
<totfact> 0.26544352E+01</totfact>
</mgrwt>
</event>
<event>
12    6  0.1494052E-007  0.2268852E+04  0.7818608E-02  0.8490305E-01
          4   -1    0    0  501    0  0.00000000000E+00  0.00000000000E+00  0.12546215710E+04  0.12546215710E+04  0.00000000000E+00 0. -1.
         -1   -1    0    0    0  501 -0.00000000000E+00 -0.00000000000E+00 -0.10257451219E+04  0.10257451219E+04  0.00000000000E+00 0.  1.
         24    2    1    2    0    0 -0.10184272755E+03  0.55299598099E+03  0.88740842949E+03  0.10533195592E+04  0.76235666455E+02 0.  0.
        254    2    1    2    0    0  0.10184272755E+03 -0.55299598099E+03 -0.65853198048E+03  0.12270471337E+04  0.86936977344E+03 0.  0.
         23    2    4    4    0    0 -0.15810081480E+02 -0.74684881213E+03 -0.62955907732E+03  0.98071567450E+03  0.86171314967E+02 0.  0.
         23    2    4    4    0    0  0.11765280903E+03  0.19385283114E+03 -0.28972903163E+02  0.24633145925E+03  0.91753229277E+02 0.  0.
          4    1    3    3  502    0 -0.71641441155E+02  0.28364860498E+03  0.39922493912E+03  0.49494401624E+03  0.00000000000E+00 0. -1.
         -3    1    3    3    0  502 -0.30201286395E+02  0.26934737601E+03  0.48818349037E+03  0.55837554293E+03  0.00000000000E+00 0.  1.
         11    1    5    5    0    0  0.26241653686E+02 -0.53329432865E+03 -0.46115752897E+03  0.70551947662E+03  0.00000000000E+00 0.  1.
        -11    1    5    5    0    0 -0.42051735166E+02 -0.21355448347E+03 -0.16840154835E+03  0.27519619788E+03  0.00000000000E+00 0. -1.
          4    1    6    6  503    0  0.39359919107E+02  0.33526363505E+02 -0.43155268293E+02  0.67346844494E+02  0.00000000000E+00 0. -1.
         -4    1    6    6    0  503  0.78292889923E+02  0.16032646764E+03  0.14182365130E+02  0.17898461475E+03  0.00000000000E+00 0.  1.
<mgrwt>
<rscale>  0 0.22688517E+04</rscale>
<asrwt>0</asrwt>
<pdfrwt beam="1">  1        4 0.19301870E+00 0.22688517E+04</pdfrwt>
<pdfrwt beam="2">  1       -1 0.15780694E+00 0.22688517E+04</pdfrwt>
<totfact> 0.16620307E-01</totfact>
</mgrwt>
</event>
<event>
12    6  0.1494052E-007  0.1603397E+04  0.7818608E-02  0.8818464E-01
          2   -1    0    0  501    0  0.00000000000E+00  0.00000000000E+00  0.48736497642E+03  0.48736497642E+03  0.00000000000E+00 0. -1.
         -1   -1    0    0    0  501 -0.00000000000E+00 -0.00000000000E+00 -0.13187663740E+04  0.13187663740E+04  0.00000000000E+00 0.  1.
         24    2    1    2    0    0  0.31163135416E+03 -0.33085590756E+03  0.64370509855E+02  0.46586298121E+03  0.79404170317E+02 0.  0.
        254    2    1    2    0    0 -0.31163135416E+03  0.33085590756E+03 -0.89577190742E+03  0.13402683692E+04  0.88731745102E+03 0.  0.
         23    2    4    4    0    0  0.92254387331E+02  0.50967238331E+03 -0.61480365578E+03  0.80878413079E+03  0.88721050297E+02 0.  0.
         23    2    4    4    0    0 -0.40388574149E+03 -0.17881647575E+03 -0.28096825164E+03  0.53148423841E+03  0.91833071767E+02 0.  0.
          2    1    3    3  502    0  0.31198248800E+03 -0.30780897263E+03  0.59300417494E+02  0.44226233840E+03  0.00000000000E+00 0. -1.
         -1    1    3    3    0  502 -0.35113384285E+00 -0.23046934934E+02  0.50700923610E+01  0.23600642817E+02  0.00000000000E+00 0.  1.
         11    1    5    5    0    0  0.17863210857E+01  0.15465750029E+03 -0.23279295881E+03  0.27949006245E+03  0.00000000000E+00 0. -1.
        -11    1    5    5    0    0  0.90468066245E+02  0.35501488302E+03 -0.38201069697E+03  0.52929406833E+03  0.00000000000E+00 0.  1.
          1    1    6    6  503    0 -0.83740073163E+02 -0.70610758130E+02 -0.40762735939E+02  0.11687548784E+03  0.00000000000E+00 0. -1.
         -1    1    6    6    0  503 -0.32014566833E+03 -0.10820571762E+03 -0.24020551571E+03  0.41460875057E+03  0.00000000000E+00 0.  1.
<mgrwt>
<rscale>  0 0.16033971E+04</rscale>
<asrwt>0</asrwt>
<pdfrwt beam="1">  1        2 0.74979227E-01 0.16033971E+04</pdfrwt>
<pdfrwt beam="2">  1       -1 0.20288713E+00 0.16033971E+04</pdfrwt>
<totfact> 0.99941741E+00</totfact>
</mgrwt>
</event>
<event>
12    6  0.1494052E-007  0.2184091E+04  0.7818608E-02  0.8525079E-01
          2   -1    0    0  501    0  0.00000000000E+00  0.00000000000E+00  0.21993463581E+04  0.21993463581E+04  0.00000000000E+00 0. -1.
         -3   -1    0    0    0  501 -0.00000000000E+00 -0.00000000000E+00 -0.54223529113E+03  0.54223529113E+03  0.00000000000E+00 0.  1.
         24    2    1    2    0    0 -0.40450614193E+03  0.22702090171E+03  0.16435592764E+04  0.17097439075E+04  0.82300823570E+02 0.  0.
        254    2    1    2    0    0  0.40450614193E+03 -0.22702090171E+03  0.13551790592E+02  0.10318377417E+04  0.92159739885E+03 0.  0.
         23    2    4    4    0    0  0.63894936593E+03 -0.13820836469E+03 -0.20232202106E+03  0.69045841498E+03  0.91873708478E+02 0.  0.
         23    2    4    4    0    0 -0.23444322400E+03 -0.88812537024E+02  0.21587381165E+03  0.34137932676E+03  0.84184619543E+02 0.  0.
          4    1    3    3  502    0 -0.73002223338E+02  0.80374872623E+02  0.37055304814E+03  0.38613340473E+03  0.00000000000E+00 0. -1.
         -3    1    3    3    0  502 -0.33150391860E+03  0.14664602909E+03  0.12730062282E+04  0.13236105027E+04  0.00000000000E+00 0.  1.
         11    1    5    5    0    0  0.11671300548E+03 -0.16008066474E+02 -0.16891994218E+01  0.11781781374E+03  0.00000000000E+00 0.  1.
        -11    1    5    5    0    0  0.52223636046E+03 -0.12220029821E+03 -0.20063282164E+03  0.57264060124E+03  0.00000000000E+00 0. -1.
          3    1    6    6  503    0 -0.14327535926E+03 -0.56715012095E+02  0.18312065088E+03  0.23932737818E+03  0.00000000000E+00 0. -1.
         -3    1    6    6    0  503 -0.91167864744E+02 -0.32097524929E+02  0.32753160776E+02  0.10205194858E+03  0.00000000000E+00 0.  1.
<mgrwt>
<rscale>  0 0.21840909E+04</rscale>
<asrwt>0</asrwt>
<pdfrwt beam="1">  1        2 0.33836097E+00 0.21840909E+04</pdfrwt>
<pdfrwt beam="2">  1       -3 0.83420815E-01 0.21840909E+04</pdfrwt>
<totfact> 0.40055021E+00</totfact>
</mgrwt>
</event>
<event>
12    6  0.1494052E-007  0.1884127E+04  0.7818608E-02  0.8662798E-01
          2   -1    0    0  501    0  0.00000000000E+00  0.00000000000E+00  0.17178182881E+04  0.17178182881E+04  0.00000000000E+00 0. -1.
         -1   -1    0    0    0  501 -0.00000000000E+00 -0.00000000000E+00 -0.51663410493E+03  0.51663410493E+03  0.00000000000E+00 0.  1.
         24    2    1    2    0    0 -0.46783916290E+02 -0.60293458342E+03 -0.29547360728E+01  0.61027451382E+03  0.81898748791E+02 0.  0.
        254    2    1    2    0    0  0.46783916290E+02  0.60293458342E+03  0.12041389192E+04  0.16241778792E+04  0.90679898531E+03 0.  0.
         23    2    4    4    0    0 -0.25746353117E+03  0.51268748233E+02  0.85389362083E+03  0.89793473281E+03  0.90755243707E+02 0.  0.
         23    2    4    4    0    0  0.30424744746E+03  0.55166583518E+03  0.35024529837E+03  0.72624314637E+03  0.88632023663E+02 0.  0.
          4    1    3    3  502    0 -0.30661331616E+02 -0.11623273216E+03  0.23916239282E+02  0.12256488805E+03  0.00000000000E+00 0. -1.
         -3    1    3    3    0  502 -0.16122584674E+02 -0.48670185126E+03 -0.26870975354E+02  0.48770962577E+03  0.00000000000E+00 0.  1.
         11    1    5    5    0    0 -0.19427219626E+03  0.23055901932E+02  0.73276492379E+03  0.75843107425E+03  0.00000000000E+00 0.  1.
        -11    1    5    5    0    0 -0.63191334907E+02  0.28212846300E+02  0.12112869704E+03  0.13950365856E+03  0.00000000000E+00 0. -1.
          3    1    6    6  503    0  0.23329218331E+03  0.39518763655E+03  0.29591299157E+03  0.54604304725E+03  0.00000000000E+00 0. -1.
         -3    1    6    6    0  503  0.70955264154E+02  0.15647819863E+03  0.54332306808E+02  0.18020009912E+03  0.00000000000E+00 0.  1.
<mgrwt>
<rscale>  0 0.18841269E+04</rscale>
<asrwt>0</asrwt>
<pdfrwt beam="1">  1        2 0.26427973E+00 0.18841269E+04</pdfrwt>
<pdfrwt beam="2">  1       -1 0.79482171E-01 0.18841269E+04</pdfrwt>
<totfact> 0.16192678E+01</totfact>
</mgrwt>
</event>
<event>
12    6  0.1494052E-007  0.1700229E+04  0.7818608E-02  0.8761233E-01
         -1   -1    0    0    0  501 -0.00000000000E+00  0.00000000000E+00  0.39139435872E+03  0.39139435872E+03  0.00000000000E+00 0.  1.
          2   -1    0    0  501    0  0.00000000000E+00 -0.00000000000E+00 -0.18464626272E+04  0.18464626272E+04  0.00000000000E+00 0. -1.
         24    2    1    2    0    0  0.41182999739E+03  0.95143606652E+02  0.49087901148E+02  0.43307123378E+03  0.80528373004E+02 0.  0.
        254    2    1    2    0    0 -0.41182999739E+03 -0.95143606652E+02 -0.15041561697E+04  0.18047857522E+04  0.90338783246E+03 0.  0.
         23    2    4    4    0    0 -0.61105971762E+02 -0.83778974434E+02  0.93017312464E+02  0.16668301242E+03  0.91532234045E+02 0.  0.
         23    2    4    4    0    0 -0.35072402562E+03 -0.11364632217E+02 -0.15971734821E+04  0.16381027398E+04  0.96337723241E+02 0.  0.
          2    1    3    3  502    0  0.13474939681E+03  0.17727136627E+02  0.51577095988E+02  0.14536797496E+03  0.00000000000E+00 0. -1.
         -1    1    3    3    0  502  0.27708060058E+03  0.77416470024E+02 -0.24891948398E+01  0.28770325883E+03  0.00000000000E+00 0.  1.
         11    1    5    5    0    0 -0.50555946906E+02 -0.10327856599E+03  0.85428998805E+02  0.14324971134E+03  0.00000000000E+00 0.  1.
        -11    1    5    5    0    0 -0.10550024855E+02  0.19499591560E+02  0.75883136599E+01  0.23433301083E+02  0.00000000000E+00 0. -1.
          1    1    6    6  503    0 -0.14337689270E+03 -0.25437286165E+02 -0.47396215874E+03  0.49582670038E+03  0.00000000000E+00 0. -1.
         -1    1    6    6    0  503 -0.20734713292E+03  0.14072653947E+02 -0.11232113234E+04  0.11422760394E+04  0.00000000000E+00 0.  1.
<mgrwt>
<rscale>  0 0.17002295E+04</rscale>
<asrwt>0</asrwt>
<pdfrwt beam="1">  1        2 0.28407118E+00 0.17002295E+04</pdfrwt>
<pdfrwt beam="2">  1       -1 0.60214515E-01 0.17002295E+04</pdfrwt>
<totfact> 0.24646350E+01</totfact>
</mgrwt>
</event>
<event>
12    6  0.1494052E-007  0.2315493E+04  0.7818608E-02  0.8471837E-01
         -1   -1    0    0    0  501 -0.00000000000E+00  0.00000000000E+00  0.70690299452E+03  0.70690299452E+03  0.00000000000E+00 0.  1.
          2   -1    0    0  501    0  0.00000000000E+00 -0.00000000000E+00 -0.18961255114E+04  0.18961255114E+04  0.00000000000E+00 0. -1.
         24    2    1    2    0    0 -0.39988862869E+02  0.52456593691E+03 -0.14348559874E+04  0.15304067008E+04  0.81021194604E+02 0.  0.
        254    2    1    2    0    0  0.39988862869E+02 -0.52456593691E+03  0.24563347048E+03  0.10726218052E+04  0.90189423091E+03 0.  0.
         23    2    4    4    0    0 -0.24329571079E+03 -0.33183168156E+03 -0.22921799143E+03  0.48016728093E+03  0.93352355617E+02 0.  0.
         23    2    4    4    0    0  0.28328457366E+03 -0.19273425535E+03  0.47485146191E+03  0.59245452423E+03  0.90121082622E+02 0.  0.
          4    1    3    3  502    0  0.22895582561E+02  0.17643242050E+03 -0.51527675510E+03  0.54512635329E+03  0.00000000000E+00 0. -1.
         -3    1    3    3    0  502 -0.62884445430E+02  0.34813351642E+03 -0.91957923229E+03  0.98528034751E+03  0.00000000000E+00 0.  1.
         11    1    5    5    0    0 -0.12200938156E+02 -0.47347912795E+02 -0.57318416232E+02  0.75339820662E+02  0.00000000000E+00 0. -1.
        -11    1    5    5    0    0 -0.23109477264E+03 -0.28448376877E+03 -0.17189957520E+03  0.40482746027E+03  0.00000000000E+00 0.  1.
          2    1    6    6  503    0  0.64706249944E+02 -0.82339604297E+02  0.10062655905E+03  0.14523227467E+03  0.00000000000E+00 0. -1.
         -2    1    6    6    0  503  0.21857832372E+03 -0.11039465105E+03  0.37422490286E+03  0.44722224956E+03  0.00000000000E+00 0.  1.
<mgrwt>
<rscale>  0 0.23154929E+04</rscale>
<asrwt>0</asrwt>
<pdfrwt beam="1">  1        2 0.29171161E+00 0.23154929E+04</pdfrwt>
<pdfrwt beam="2">  1       -1 0.10875431E+00 0.23154929E+04</pdfrwt>
<totfact> 0.61659876E+00</totfact>
</mgrwt>
</event>
<event>
12    6  0.1494052E-007  0.1538246E+04  0.7818608E-02  0.8859410E-01
         -1   -1    0    0    0  501 -0.00000000000E+00  0.00000000000E+00  0.33181088956E+03  0.33181088956E+03  0.00000000000E+00 0.  1.
          2   -1    0    0  501    0  0.00000000000E+00 -0.00000000000E+00 -0.17827942910E+04  0.17827942910E+04  0.00000000000E+00 0. -1.
         24    2    1    2    0    0  0.18732166083E+03 -0.14198564338E+03  0.73933979048E+02  0.25846394881E+03  0.78025970274E+02 0.  0.
        254    2    1    2    0    0 -0.18732166083E+03  0.14198564338E+03 -0.15249173805E+04  0.18561412317E+04  0.10318129323E+04 0.  0.
         23    2    4    4    0    0  0.19294531974E+03 -0.30177003564E+03 -0.99692654557E+03  0.10631191746E+04  0.89815317667E+02 0.  0.
         23    2    4    4    0    0 -0.38026698057E+03  0.44375567902E+03 -0.52799083492E+03  0.79302205716E+03  0.92669208508E+02 0.  0.
          4    1    3    3  502    0  0.19446554055E+02 -0.54890730806E+02  0.22915116978E+02  0.62580055762E+02  0.00000000000E+00 0. -1.
         -3    1    3    3    0  502  0.16787510677E+03 -0.87094912573E+02  0.51018862070E+02  0.19588389305E+03  0.00000000000E+00 0.  1.
         11    1    5    5    0    0  0.16278770168E+03 -0.20911447111E+03 -0.62984456429E+03  0.68332486637E+03  0.00000000000E+00 0. -1.
        -11    1    5    5    0    0  0.30157618066E+02 -0.92655564528E+02 -0.36708198129E+03  0.37979430821E+03  0.00000000000E+00 0.  1.
          3    1    6    6  503    0 -0.21032982973E+03  0.30858706781E+03 -0.31016577149E+03  0.48545589037E+03  0.00000000000E+00 0. -1.
         -3    1    6    6    0  503 -0.16993715084E+03  0.13516861121E+03 -0.21782506343E+03  0.30756616679E+03  0.00000000000E+00 0.  1.
<mgrwt>
<rscale>  0 0.15382465E+04</rscale>
<asrwt>0</asrwt>
<pdfrwt beam="1">  1        2 0.27427604E+00 0.15382465E+04</pdfrwt>
<pdfrwt beam="2">  1       -1 0.51047829E-01 0.15382465E+04</pdfrwt>
<totfact> 0.37347790E+01</totfact>
</mgrwt>
</event>
<event>
12    6  0.1494052E-007  0.1362966E+04  0.7818608E-02  0.8981070E-01
          2   -1    0    0  501    0  0.00000000000E+00  0.00000000000E+00  0.14388124727E+04  0.14388124727E+04  0.00000000000E+00 0. -1.
         -3   -1    0    0    0  501 -0.00000000000E+00 -0.00000000000E+00 -0.32277953383E+03  0.32277953383E+03  0.00000000000E+00 0.  1.
         24    2    1    2    0    0 -0.27859507470E+03  0.51159404189E+02 -0.84272537716E+01  0.29308464127E+03  0.74800321238E+02 0.  0.
        254    2    1    2    0    0  0.27859507470E+03 -0.51159404189E+02  0.11244601926E+04  0.14685073652E+04  0.90103865437E+03 0.  0.
         23    2    4    4    0    0  0.81266850617E+02  0.40339504049E+03  0.65407327429E+03  0.77910769263E+03  0.99323153767E+02 0.  0.
         23    2    4    4    0    0  0.19732822409E+03 -0.45455444468E+03  0.47038691834E+03  0.68939967261E+03  0.91923253020E+02 0.  0.
          4    1    3    3  502    0  0.17824520219E+01 -0.56645958001E+01 -0.36430294066E+01  0.69668101773E+01  0.00000000000E+00 0. -1.
         -3    1    3    3    0  502 -0.28037752673E+03  0.56823999989E+02 -0.47842243650E+01  0.28611783110E+03  0.00000000000E+00 0.  1.
         11    1    5    5    0    0  0.31864362900E+02  0.35089573791E+02  0.11479103542E+03  0.12419177760E+03  0.00000000000E+00 0.  1.
        -11    1    5    5    0    0  0.49402487717E+02  0.36830546670E+03  0.53928223887E+03  0.65491591503E+03  0.00000000000E+00 0. -1.
          4    1    6    6  503    0  0.15061183297E+03 -0.41842987196E+03  0.42174703852E+03  0.61289317705E+03  0.00000000000E+00 0. -1.
         -4    1    6    6    0  503  0.46716391116E+02 -0.36124572728E+02  0.48639879815E+02  0.76506495555E+02  0.00000000000E+00 0.  1.
<mgrwt>
<rscale>  0 0.13629662E+04</rscale>
<asrwt>0</asrwt>
<pdfrwt beam="1">  1        2 0.22135576E+00 0.13629662E+04</pdfrwt>
<pdfrwt beam="2">  1       -3 0.49658391E-01 0.13629662E+04</pdfrwt>
<totfact> 0.34558563E+01</totfact>
</mgrwt>
</event>
<event>
12    6  0.1494052E-007  0.2021220E+04  0.7818608E-02  0.8596763E-01
         -1   -1    0    0    0  501 -0.00000000000E+00  0.00000000000E+00  0.41613579539E+03  0.41613579539E+03  0.00000000000E+00 0.  1.
          2   -1    0    0  501    0  0.00000000000E+00 -0.00000000000E+00 -0.24543257419E+04  0.24543257419E+04  0.00000000000E+00 0. -1.
         24    2    1    2    0    0 -0.39274028213E+03 -0.64649809553E+03 -0.42864823645E+03  0.87299837555E+03  0.78626562754E+02 0.  0.
        254    2    1    2    0    0  0.39274028213E+03  0.64649809553E+03 -0.16095417100E+04  0.19974631617E+04  0.90941181506E+03 0.  0.
         23    2    4    4    0    0  0.68143305516E+03  0.43551135247E+03 -0.11251082664E+04  0.13886085731E+04  0.91345561021E+02 0.  0.
         23    2    4    4    0    0 -0.28869277303E+03  0.21098674306E+03 -0.48443344364E+03  0.60885458857E+03  0.90383769359E+02 0.  0.
          4    1    3    3  502    0 -0.13264209850E+02 -0.39275276632E+02 -0.42904223147E+02  0.59659525487E+02  0.00000000000E+00 0. -1.
         -3    1    3    3    0  502 -0.37947607228E+03 -0.60722281889E+03 -0.38574401331E+03  0.81333885006E+03  0.00000000000E+00 0.  1.
         11    1    5    5    0    0  0.61041798889E+03  0.40054487798E+03 -0.10542067093E+04  0.12823408698E+04  0.00000000000E+00 0.  1.
        -11    1    5    5    0    0  0.71015066275E+02  0.34966474489E+02 -0.70901557096E+02  0.10626770335E+03  0.00000000000E+00 0. -1.
          2    1    6    6  503    0 -0.11037358156E+03  0.62982070135E+02 -0.10782667291E+03  0.16666031338E+03  0.00000000000E+00 0. -1.
         -2    1    6    6    0  503 -0.17831919147E+03  0.14800467292E+03 -0.37660677074E+03  0.44219427520E+03  0.00000000000E+00 0.  1.
<mgrwt>
<rscale>  0 0.20212202E+04</rscale>
<asrwt>0</asrwt>
<pdfrwt beam="1">  1        2 0.37758858E+00 0.20212202E+04</pdfrwt>
<pdfrwt beam="2">  1       -1 0.64020890E-01 0.20212202E+04</pdfrwt>
<totfact> 0.96675741E+00</totfact>
</mgrwt>
</event>
<event>
12    6  0.1494052E-007  0.1359647E+04  0.7818608E-02  0.8983557E-01
          2   -1    0    0  501    0  0.00000000000E+00  0.00000000000E+00  0.19877432948E+04  0.19877432948E+04  0.00000000000E+00 0. -1.
         -1   -1    0    0    0  501 -0.00000000000E+00 -0.00000000000E+00 -0.23250487354E+03  0.23250487354E+03  0.00000000000E+00 0.  1.
         24    2    1    2    0    0  0.35144300820E+03  0.12358881509E+03  0.39131312458E+03  0.54617353550E+03  0.79957402336E+02 0.  0.
        254    2    1    2    0    0 -0.35144300820E+03 -0.12358881509E+03  0.13639252967E+04  0.16740746329E+04  0.89635220655E+03 0.  0.
         23    2    4    4    0    0  0.92146018605E+02  0.23417262297E+03  0.10088075660E+03  0.28547090187E+03  0.89381221003E+02 0.  0.
         23    2    4    4    0    0 -0.44358902680E+03 -0.35776143806E+03  0.12630445401E+04  0.13886037310E+04  0.90412057712E+02 0.  0.
          2    1    3    3  502    0  0.29260085291E+03  0.11182627031E+03  0.36405292636E+03  0.48026545477E+03  0.00000000000E+00 0. -1.
         -1    1    3    3    0  502  0.58842155293E+02  0.11762544779E+02  0.27260198222E+02  0.65908080736E+02  0.00000000000E+00 0.  1.
         11    1    5    5    0    0 -0.14069481945E+02  0.10396220873E+02  0.15768609566E+02  0.23551661900E+02  0.00000000000E+00 0.  1.
        -11    1    5    5    0    0  0.10621550055E+03  0.22377640210E+03  0.85112147033E+02  0.26191923997E+03  0.00000000000E+00 0. -1.
          2    1    6    6  503    0 -0.37702039282E+03 -0.33817335533E+03  0.10802791849E+04  0.11931088434E+04  0.00000000000E+00 0. -1.
         -2    1    6    6    0  503 -0.66568633984E+02 -0.19588082737E+02  0.18276535517E+03  0.19549488757E+03  0.00000000000E+00 0.  1.
<mgrwt>
<rscale>  0 0.13596470E+04</rscale>
<asrwt>0</asrwt>
<pdfrwt beam="1">  1        2 0.30580665E+00 0.13596470E+04</pdfrwt>
<pdfrwt beam="2">  1       -1 0.35769982E-01 0.13596470E+04</pdfrwt>
<totfact> 0.56350297E+01</totfact>
</mgrwt>
</event>
<event>
12    6  0.1494052E-007  0.2752727E+04  0.7818608E-02  0.8318097E-01
          2   -1    0    0  501    0  0.00000000000E+00  0.00000000000E+00  0.16668881782E+04  0.16668881782E+04  0.00000000000E+00 0. -1.
         -1   -1    0    0    0  501 -0.00000000000E+00 -0.00000000000E+00 -0.11364747984E+04  0.11364747984E+04  0.00000000000E+00 0.  1.
         24    2    1    2    0    0  0.51692621442E+03  0.32976650681E+03  0.13192684501E+04  0.14569185800E+04  0.78637428458E+02 0.  0.
        254    2    1    2    0    0 -0.51692621442E+03 -0.32976650681E+03 -0.78885507031E+03  0.13464443967E+04  0.90258602426E+03 0.  0.
         23    2    4    4    0    0 -0.73504821555E+03 -0.21076107035E+03 -0.37914843860E+03  0.85837615979E+03  0.91323519665E+02 0.  0.
         23    2    4    4    0    0  0.21812200114E+03 -0.11900543645E+03 -0.40970663171E+03  0.48806823687E+03  0.92798590963E+02 0.  0.
          4    1    3    3  502    0  0.28145419896E+03  0.22537002366E+03  0.76201408818E+03  0.84301458129E+03  0.00000000000E+00 0. -1.
         -3    1    3    3    0  502  0.23547201546E+03  0.10439648315E+03  0.55725436192E+03  0.61390399871E+03  0.00000000000E+00 0.  1.
         11    1    5    5    0    0 -0.70082440630E+03 -0.18204713378E+03 -0.36846627499E+03  0.81244286150E+03  0.00000000000E+00 0.  1.
        -11    1    5    5    0    0 -0.34223809251E+02 -0.28713936575E+02 -0.10682163607E+02  0.45933298299E+02  0.00000000000E+00 0. -1.
          3    1    6    6  503    0  0.18423631098E+02 -0.32333549028E+02 -0.21472344131E+02  0.42964521853E+02  0.00000000000E+00 0. -1.
         -3    1    6    6    0  503  0.19969837004E+03 -0.86671887427E+02 -0.38823428758E+03  0.44510371501E+03  0.00000000000E+00 0.  1.
<mgrwt>
<rscale>  0 0.27527269E+04</rscale>
<asrwt>0</asrwt>
<pdfrwt beam="1">  1        2 0.25644433E+00 0.27527269E+04</pdfrwt>
<pdfrwt beam="2">  1       -1 0.17484228E+00 0.27527269E+04</pdfrwt>
<totfact> 0.23077770E+00</totfact>
</mgrwt>
</event>
<event>
12    6  0.1494052E-007  0.2135934E+04  0.7818608E-02  0.8545577E-01
         -1   -1    0    0    0  501 -0.00000000000E+00  0.00000000000E+00  0.64124971465E+03  0.64124971465E+03  0.00000000000E+00 0.  1.
          2   -1    0    0  501    0  0.00000000000E+00 -0.00000000000E+00 -0.17786419157E+04  0.17786419157E+04  0.00000000000E+00 0. -1.
         24    2    1    2    0    0 -0.86881010808E+01 -0.41869936018E+03  0.40410891658E+03  0.58686618420E+03  0.75652259621E+02 0.  0.
        254    2    1    2    0    0  0.86881010808E+01  0.41869936018E+03 -0.15415011177E+04  0.18330254462E+04  0.89909507464E+03 0.  0.
         23    2    4    4    0    0 -0.31335422159E+03  0.51097510402E+02 -0.11611088972E+04  0.12069943530E+04  0.88654798396E+02 0.  0.
         23    2    4    4    0    0  0.32204232267E+03  0.36760184978E+03 -0.38039222052E+03  0.62603109322E+03  0.91511259950E+02 0.  0.
          4    1    3    3  502    0  0.33115913723E+02 -0.17207113926E+03  0.17519564776E+03  0.24778752128E+03  0.00000000000E+00 0. -1.
         -3    1    3    3    0  502 -0.41804014804E+02 -0.24662822091E+03  0.22891326882E+03  0.33907866292E+03  0.00000000000E+00 0.  1.
         11    1    5    5    0    0 -0.11288516857E+03  0.40198612274E+02 -0.30582198226E+03  0.32846015671E+03  0.00000000000E+00 0. -1.
        -11    1    5    5    0    0 -0.20046905301E+03  0.10898898128E+02 -0.85528691490E+03  0.87853419626E+03  0.00000000000E+00 0.  1.
          3    1    6    6  503    0  0.21628080739E+03  0.19775767556E+03 -0.26471393169E+03  0.39491638547E+03  0.00000000000E+00 0. -1.
         -3    1    6    6    0  503  0.10576151528E+03  0.16984417421E+03 -0.11567828884E+03  0.23111470775E+03  0.00000000000E+00 0.  1.
<mgrwt>
<rscale>  0 0.21359341E+04</rscale>
<asrwt>0</asrwt>
<pdfrwt beam="1">  1        2 0.27363722E+00 0.21359341E+04</pdfrwt>
<pdfrwt beam="2">  1       -1 0.98653802E-01 0.21359341E+04</pdfrwt>
<totfact> 0.91207285E+00</totfact>
</mgrwt>
</event>
<event>
12    6  0.1494052E-007  0.1449711E+04  0.7818608E-02  0.8918601E-01
         -1   -1    0    0    0  501 -0.00000000000E+00  0.00000000000E+00  0.44216663439E+04  0.44216663439E+04  0.00000000000E+00 0.  1.
          2   -1    0    0  501    0  0.00000000000E+00 -0.00000000000E+00 -0.11882749137E+03  0.11882749137E+03  0.00000000000E+00 0. -1.
         24    2    1    2    0    0  0.39843757863E+03  0.24108898327E+02  0.22114916969E+04  0.22486761131E+04  0.80715507111E+02 0.  0.
        254    2    1    2    0    0 -0.39843757863E+03 -0.24108898327E+02  0.20913471556E+04  0.22918177222E+04  0.84815199302E+03 0.  0.
         23    2    4    4    0    0  0.22969935910E+03  0.83489044943E+02  0.36211112210E+03  0.44664927559E+03  0.92945653148E+02 0.  0.
         23    2    4    4    0    0 -0.62813693773E+03 -0.10759794327E+03  0.17292360335E+04  0.18451684466E+04  0.90862570231E+02 0.  0.
          2    1    3    3  502    0  0.71898292647E+02 -0.19783781733E+02  0.30938181927E+03  0.31824184608E+03  0.00000000000E+00 0. -1.
         -1    1    3    3    0  502  0.32653928598E+03  0.43892680060E+02  0.19021098776E+04  0.19304342670E+04  0.00000000000E+00 0.  1.
         11    1    5    5    0    0  0.17938661272E+03  0.88980560050E+02  0.22877874159E+03  0.30403422421E+03  0.00000000000E+00 0. -1.
        -11    1    5    5    0    0  0.50312746387E+02 -0.54915151071E+01  0.13333238051E+03  0.14261505138E+03  0.00000000000E+00 0.  1.
          4    1    6    6  503    0 -0.52218303165E+03 -0.59369503202E+02  0.14654071571E+04  0.15567973512E+04  0.00000000000E+00 0. -1.
         -4    1    6    6    0  503 -0.10595390609E+03 -0.48228440069E+02  0.26382887642E+03  0.28837109543E+03  0.00000000000E+00 0.  1.
<mgrwt>
<rscale>  0 0.14497110E+04</rscale>
<asrwt>0</asrwt>
<pdfrwt beam="1">  1        2 0.18281156E-01 0.14497110E+04</pdfrwt>
<pdfrwt beam="2">  1       -1 0.68025623E+00 0.14497110E+04</pdfrwt>
<totfact> 0.81260062E-02</totfact>
</mgrwt>
</event>
<event>
12    6  0.1494052E-007  0.2197177E+04  0.7818608E-02  0.8519604E-01
          2   -1    0    0  501    0  0.00000000000E+00  0.00000000000E+00  0.21960330604E+04  0.21960330604E+04  0.00000000000E+00 0. -1.
         -1   -1    0    0    0  501 -0.00000000000E+00 -0.00000000000E+00 -0.54958015645E+03  0.54958015645E+03  0.00000000000E+00 0.  1.
         24    2    1    2    0    0 -0.79950593217E+03  0.36594666781E+03  0.97151834100E+03  0.13129082510E+04  0.82179616925E+02 0.  0.
        254    2    1    2    0    0  0.79950593217E+03 -0.36594666781E+03  0.67493456299E+03  0.14327049659E+04  0.90773352680E+03 0.  0.
         23    2    4    4    0    0  0.31905886240E+03  0.85506024425E+02 -0.15121400090E+03  0.37209566967E+03  0.80496431186E+02 0.  0.
         23    2    4    4    0    0  0.48044706977E+03 -0.45145269224E+03  0.82614856389E+03  0.10606092962E+04  0.87930139254E+02 0.  0.
          4    1    3    3  502    0 -0.63538185215E+03  0.28615490394E+03  0.81672724356E+03  0.10736098535E+04  0.00000000000E+00 0. -1.
         -3    1    3    3    0  502 -0.16412408002E+03  0.79791763872E+02  0.15479109744E+03  0.23929839755E+03  0.00000000000E+00 0.  1.
         11    1    5    5    0    0  0.20647774026E+03  0.64297156146E+02 -0.13855745884E+03  0.25683720703E+03  0.00000000000E+00 0.  1.
        -11    1    5    5    0    0  0.11258112214E+03  0.21208868279E+02 -0.12656542060E+02  0.11525846265E+03  0.00000000000E+00 0. -1.
          4    1    6    6  503    0  0.36186093999E+03 -0.34914524939E+03  0.56736161132E+03  0.75811934618E+03  0.00000000000E+00 0.  1.
         -4    1    6    6    0  503  0.11858612978E+03 -0.10230744284E+03  0.25878695258E+03  0.30248995002E+03  0.00000000000E+00 0. -1.
<mgrwt>
<rscale>  0 0.21971765E+04</rscale>
<asrwt>0</asrwt>
<pdfrwt beam="1">  1        2 0.33785123E+00 0.21971765E+04</pdfrwt>
<pdfrwt beam="2">  1       -1 0.84550795E-01 0.21971765E+04</pdfrwt>
<totfact> 0.74788201E+00</totfact>
</mgrwt>
</event>
<event>
12    6  0.1494052E-007  0.1627309E+04  0.7818608E-02  0.8803944E-01
         -1   -1    0    0    0  501 -0.00000000000E+00  0.00000000000E+00  0.28287261048E+03  0.28287261048E+03  0.00000000000E+00 0.  1.
          2   -1    0    0  501    0  0.00000000000E+00 -0.00000000000E+00 -0.23403952120E+04  0.23403952120E+04  0.00000000000E+00 0. -1.
         24    2    1    2    0    0  0.87944526379E+02 -0.54992839342E+03 -0.65885582795E+03  0.86640641004E+03  0.80084878324E+02 0.  0.
        254    2    1    2    0    0 -0.87944526379E+02  0.54992839342E+03 -0.13986667736E+04  0.17568614124E+04  0.90561459871E+03 0.  0.
         23    2    4    4    0    0  0.21790515744E+03  0.63537283977E+03 -0.11766974222E+04  0.13585084000E+04  0.98726623438E+02 0.  0.
         23    2    4    4    0    0 -0.30584968382E+03 -0.85444446349E+02 -0.22196935134E+03  0.39835301245E+03  0.92574008748E+02 0.  0.
          4    1    3    3  502    0  0.46667309741E+02 -0.99731407666E+02 -0.14310926666E+03  0.18056703375E+03  0.00000000000E+00 0. -1.
         -1    1    3    3    0  502  0.41277216638E+02 -0.45019698575E+03 -0.51574656129E+03  0.68583937629E+03  0.00000000000E+00 0.  1.
         11    1    5    5    0    0  0.11967703130E+02  0.12343104773E+02 -0.68382800929E+02  0.70510890056E+02  0.00000000000E+00 0. -1.
        -11    1    5    5    0    0  0.20593745431E+03  0.62302973500E+03 -0.11083146213E+04  0.12879975099E+04  0.00000000000E+00 0.  1.
          2    1    6    6  503    0 -0.23615642505E+03 -0.23149397646E+02 -0.15756624405E+03  0.28483832777E+03  0.00000000000E+00 0.  1.
         -2    1    6    6    0  503 -0.69693258769E+02 -0.62295048703E+02 -0.64403107286E+02  0.11351468468E+03  0.00000000000E+00 0. -1.
<mgrwt>
<rscale>  0 0.16273091E+04</rscale>
<asrwt>0</asrwt>
<pdfrwt beam="1">  1        2 0.36006082E+00 0.16273091E+04</pdfrwt>
<pdfrwt beam="2">  1       -1 0.43518861E-01 0.16273091E+04</pdfrwt>
<totfact> 0.24457449E+01</totfact>
</mgrwt>
</event>
<event>
12    6  0.1494052E-007  0.2705893E+04  0.7818608E-02  0.8333096E-01
          2   -1    0    0  501    0  0.00000000000E+00  0.00000000000E+00  0.26390683244E+04  0.26390683244E+04  0.00000000000E+00 0. -1.
         -1   -1    0    0    0  501 -0.00000000000E+00 -0.00000000000E+00 -0.69360219658E+03  0.69360219658E+03  0.00000000000E+00 0.  1.
         24    2    1    2    0    0 -0.74161314942E+03  0.36731446358E+03  0.19435854262E+04  0.21139192934E+04  0.78870093039E+02 0.  0.
        254    2    1    2    0    0  0.74161314942E+03 -0.36731446358E+03  0.18807015962E+01  0.12187512275E+04  0.89467370536E+03 0.  0.
         23    2    4    4    0    0  0.73754614728E+03 -0.16488584245E+03 -0.32128171558E+03  0.82645059845E+03  0.92935410399E+02 0.  0.
         23    2    4    4    0    0  0.40670021433E+01 -0.20242862114E+03  0.32316241717E+03  0.39230062910E+03  0.92043188538E+02 0.  0.
          2    1    3    3  502    0 -0.71188473729E+03  0.36603649825E+03  0.18919886202E+04  0.20543572076E+04  0.00000000000E+00 0. -1.
         -1    1    3    3    0  502 -0.29728412127E+02  0.12779653298E+01  0.51596805999E+02  0.59562085862E+02  0.00000000000E+00 0.  1.
         11    1    5    5    0    0  0.55183983358E+03 -0.12972383369E+03 -0.28304205228E+03  0.63361524470E+03  0.00000000000E+00 0.  1.
        -11    1    5    5    0    0  0.18570631370E+03 -0.35162008754E+02 -0.38239663297E+02  0.19283535375E+03  0.00000000000E+00 0. -1.
          1    1    6    6  503    0 -0.41858520232E+02 -0.98431312677E+02  0.13211239053E+03  0.16998394855E+03  0.00000000000E+00 0. -1.
         -1    1    6    6    0  503  0.45925522375E+02 -0.10399730846E+03  0.19105002664E+03  0.22231668055E+03  0.00000000000E+00 0.  1.
<mgrwt>
<rscale>  0 0.27058925E+04</rscale>
<asrwt>0</asrwt>
<pdfrwt beam="1">  1        2 0.40601051E+00 0.27058925E+04</pdfrwt>
<pdfrwt beam="2">  1       -1 0.10670803E+00 0.27058925E+04</pdfrwt>
<totfact> 0.23581038E+00</totfact>
</mgrwt>
</event>
<event>
12    6  0.1494052E-007  0.2149315E+04  0.7818608E-02  0.8539825E-01
         -1   -1    0    0    0  501 -0.00000000000E+00  0.00000000000E+00  0.43528410426E+03  0.43528410426E+03  0.00000000000E+00 0.  1.
          2   -1    0    0  501    0  0.00000000000E+00 -0.00000000000E+00 -0.26531844838E+04  0.26531844838E+04  0.00000000000E+00 0. -1.
         24    2    1    2    0    0 -0.57749834725E+03 -0.35436239904E+03 -0.16846272113E+04  0.18175088261E+04  0.79324907515E+02 0.  0.
        254    2    1    2    0    0  0.57749834725E+03  0.35436239904E+03 -0.53327316829E+03  0.12709597620E+04  0.93374589353E+03 0.  0.
         23    2    4    4    0    0  0.14774358188E+03  0.81765101843E+00  0.25101059382E+03  0.30513348309E+03  0.90946631324E+02 0.  0.
         23    2    4    4    0    0  0.42975476537E+03  0.35354474802E+03 -0.78428376211E+03  0.96582627892E+03  0.89645604045E+02 0.  0.
          2    1    3    3  502    0 -0.40384659676E+03 -0.23373255748E+03 -0.10628413414E+04  0.11607560894E+04  0.00000000000E+00 0. -1.
         -1    1    3    3    0  502 -0.17365175050E+03 -0.12062984156E+03 -0.62178586984E+03  0.65675273662E+03  0.00000000000E+00 0.  1.
         11    1    5    5    0    0  0.20919120718E+02  0.31734884919E+02  0.29882106172E+02  0.48349279227E+02  0.00000000000E+00 0.  1.
        -11    1    5    5    0    0  0.12682446116E+03 -0.30917233901E+02  0.22112848765E+03  0.25678420386E+03  0.00000000000E+00 0. -1.
          2    1    6    6  503    0  0.72281725967E+02  0.39114832658E+02 -0.73040660048E+02  0.10995251731E+03  0.00000000000E+00 0.  1.
         -2    1    6    6    0  503  0.35747303941E+03  0.31442991536E+03 -0.71124310206E+03  0.85587376161E+03  0.00000000000E+00 0. -1.
<mgrwt>
<rscale>  0 0.21493153E+04</rscale>
<asrwt>0</asrwt>
<pdfrwt beam="1">  1        2 0.40818224E+00 0.21493153E+04</pdfrwt>
<pdfrwt beam="2">  1       -1 0.66966784E-01 0.21493153E+04</pdfrwt>
<totfact> 0.66834880E+00</totfact>
</mgrwt>
</event>
<event>
12    6  0.1494052E-007  0.1385984E+04  0.7818608E-02  0.8964027E-01
         -1   -1    0    0    0  501 -0.00000000000E+00  0.00000000000E+00  0.13979620112E+03  0.13979620112E+03  0.00000000000E+00 0.  1.
          2   -1    0    0  501    0  0.00000000000E+00 -0.00000000000E+00 -0.34352734119E+04  0.34352734119E+04  0.00000000000E+00 0. -1.
         24    2    1    2    0    0  0.25971591302E+03 -0.26217512025E+03 -0.48737773145E+03  0.61645819495E+03  0.79344211258E+02 0.  0.
        254    2    1    2    0    0 -0.25971591302E+03  0.26217512025E+03 -0.28080994794E+04  0.29586114181E+04  0.85543596380E+03 0.  0.
         23    2    4    4    0    0 -0.53085686129E+03  0.74325049328E+01 -0.18387536712E+04  0.19160838334E+04  0.92184293642E+02 0.  0.
         23    2    4    4    0    0  0.27114094827E+03  0.25474261531E+03 -0.96934580813E+03  0.10425275847E+04  0.93921537196E+02 0.  0.
          4    1    3    3  502    0  0.10281091964E+02 -0.23752504068E+02 -0.71684626820E+02  0.76213962132E+02  0.00000000000E+00 0. -1.
         -3    1    3    3    0  502  0.24943482105E+03 -0.23842261618E+03 -0.41569310463E+03  0.54024423282E+03  0.00000000000E+00 0.  1.
         11    1    5    5    0    0 -0.16961134800E+03  0.43217530875E+02 -0.64828567603E+03  0.67149838577E+03  0.00000000000E+00 0. -1.
        -11    1    5    5    0    0 -0.36124551329E+03 -0.35785025943E+02 -0.11904679952E+04  0.12445854477E+04  0.00000000000E+00 0.  1.
          1    1    6    6  503    0  0.12656759835E+02  0.10989330807E+02 -0.10029745543E+02  0.19533426652E+02  0.00000000000E+00 0. -1.
         -1    1    6    6    0  503  0.25848418844E+03  0.24375328451E+03 -0.95931606259E+03  0.10229941580E+04  0.00000000000E+00 0.  1.
<mgrwt>
<rscale>  0 0.13859844E+04</rscale>
<asrwt>0</asrwt>
<pdfrwt beam="1">  1        2 0.52850361E+00 0.13859844E+04</pdfrwt>
<pdfrwt beam="2">  1       -1 0.21507108E-01 0.13859844E+04</pdfrwt>
<totfact> 0.18409875E+01</totfact>
</mgrwt>
</event>
<event>
12    6  0.1494052E-007  0.1661393E+04  0.7818608E-02  0.8783695E-01
          2   -1    0    0  501    0  0.00000000000E+00  0.00000000000E+00  0.60686916448E+03  0.60686916448E+03  0.00000000000E+00 0. -1.
         -1   -1    0    0    0  501 -0.00000000000E+00 -0.00000000000E+00 -0.11370771280E+04  0.11370771280E+04  0.00000000000E+00 0.  1.
         24    2    1    2    0    0 -0.12131832057E+03  0.70856276278E+01  0.41418136440E+03  0.43905953219E+03  0.80366219029E+02 0.  0.
        254    2    1    2    0    0  0.12131832057E+03 -0.70856276278E+01 -0.94438932796E+03  0.13048867603E+04  0.89223870880E+03 0.  0.
         23    2    4    4    0    0 -0.53635083042E+01  0.38594482267E+03 -0.73028066707E+03  0.83122966730E+03  0.93009320660E+02 0.  0.
         23    2    4    4    0    0  0.12668182887E+03 -0.39303045030E+03 -0.21410866089E+03  0.47365709302E+03  0.89371709582E+02 0.  0.
          4    1    3    3  502    0 -0.12828309850E+03  0.21131739999E+02  0.37074129146E+03  0.39287683692E+03  0.00000000000E+00 0. -1.
         -3    1    3    3    0  502  0.69647779389E+01 -0.14046112371E+02  0.43440072943E+02  0.46182695263E+02  0.00000000000E+00 0.  1.
         11    1    5    5    0    0 -0.22457719747E+00  0.87543970220E+02 -0.94108991515E+02  0.12853209498E+03  0.00000000000E+00 0.  1.
        -11    1    5    5    0    0 -0.51389311068E+01  0.29840085245E+03 -0.63617167556E+03  0.70269757232E+03  0.00000000000E+00 0. -1.
          4    1    6    6  503    0 -0.52161633679E+01 -0.71498872240E+02 -0.15393219725E+02  0.73322904371E+02  0.00000000000E+00 0. -1.
         -4    1    6    6    0  503  0.13189799224E+03 -0.32153157806E+03 -0.19871544116E+03  0.40033418865E+03  0.00000000000E+00 0.  1.
<mgrwt>
<rscale>  0 0.16613934E+04</rscale>
<asrwt>0</asrwt>
<pdfrwt beam="1">  1        2 0.93364489E-01 0.16613934E+04</pdfrwt>
<pdfrwt beam="2">  1       -1 0.17493494E+00 0.16613934E+04</pdfrwt>
<totfact> 0.12075828E+01</totfact>
</mgrwt>
</event>
<event>
12    6  0.1494052E-007  0.1603526E+04  0.7818608E-02  0.8818385E-01
         -1   -1    0    0    0  501 -0.00000000000E+00  0.00000000000E+00  0.10015933147E+04  0.10015933147E+04  0.00000000000E+00 0.  1.
          2   -1    0    0  501    0  0.00000000000E+00 -0.00000000000E+00 -0.64180122578E+03  0.64180122578E+03  0.00000000000E+00 0. -1.
         24    2    1    2    0    0 -0.22645410158E+03 -0.45934297026E+02  0.63420286988E+03  0.67978404449E+03  0.80632792398E+02 0.  0.
        254    2    1    2    0    0  0.22645410158E+03  0.45934297026E+02 -0.27441078092E+03  0.96361049604E+03  0.89434472751E+03 0.  0.
         23    2    4    4    0    0 -0.31610284649E+03 -0.45327720925E+02  0.17811027985E+02  0.33416708406E+03  0.96823527642E+02 0.  0.
         23    2    4    4    0    0  0.54255694807E+03  0.91262017952E+02 -0.29222180890E+03  0.62944341198E+03  0.90047906524E+02 0.  0.
          4    1    3    3  502    0 -0.86137054192E+02 -0.57965062595E+02  0.27743642470E+03  0.29622712627E+03  0.00000000000E+00 0. -1.
         -3    1    3    3    0  502 -0.14031704739E+03  0.12030765569E+02  0.35676644518E+03  0.38355691822E+03  0.00000000000E+00 0.  1.
         11    1    5    5    0    0 -0.55770853265E+01 -0.21455368819E+02  0.30301413646E+01  0.22374505327E+02  0.00000000000E+00 0. -1.
        -11    1    5    5    0    0 -0.31052576117E+03 -0.23872352106E+02  0.14780886620E+02  0.31179257873E+03  0.00000000000E+00 0.  1.
          1    1    6    6  503    0  0.21854345240E+03  0.71368403268E+02 -0.89424920670E+02  0.24668098024E+03  0.00000000000E+00 0. -1.
         -1    1    6    6    0  503  0.32401349567E+03  0.19893614684E+02 -0.20279688823E+03  0.38276243175E+03  0.00000000000E+00 0.  1.
<mgrwt>
<rscale>  0 0.16035259E+04</rscale>
<asrwt>0</asrwt>
<pdfrwt beam="1">  1        2 0.98738650E-01 0.16035259E+04</pdfrwt>
<pdfrwt beam="2">  1       -1 0.15409128E+00 0.16035259E+04</pdfrwt>
<totfact> 0.16222097E+01</totfact>
</mgrwt>
</event>
<event>
12    6  0.1589588E-007  0.1940826E+04  0.7818608E-02  0.8634798E-01
          2   -1    0    0  501    0  0.00000000000E+00  0.00000000000E+00  0.18034067175E+04  0.18034067175E+04  0.00000000000E+00 0. -1.
         -1   -1    0    0    0  501 -0.00000000000E+00 -0.00000000000E+00 -0.52217891823E+03  0.52217891823E+03  0.00000000000E+00 0.  1.
         24    2    1    2    0    0  0.31577881791E+03  0.60920787507E+03  0.89630252514E+02  0.69658097198E+03  0.79630217074E+02 0.  0.
        254    2    1    2    0    0 -0.31577881791E+03 -0.60920787507E+03  0.11915975467E+04  0.16290046637E+04  0.87344203253E+03 0.  0.
         23    2    4    4    0    0  0.22637957311E+03 -0.34133177082E+03  0.20253843718E+03  0.46617108858E+03  0.92404417651E+02 0.  0.
         23    2    4    4    0    0 -0.54215839103E+03 -0.26787610425E+03  0.98905910957E+03  0.11628335752E+04  0.90833215920E+02 0.  0.
          4    1    3    3  502    0  0.31438332442E+02  0.31414407319E+02  0.20401435678E+02  0.48902477561E+02  0.00000000000E+00 0. -1.
         -3    1    3    3    0  502  0.28434048547E+03  0.57779346775E+03  0.69228816836E+02  0.64767849442E+03  0.00000000000E+00 0.  1.
         11    1    5    5    0    0  0.27603616492E+01 -0.89048334532E-01 -0.69981252401E+01  0.75233824120E+01  0.00000000000E+00 0. -1.
        -11    1    5    5    0    0  0.22361921147E+03 -0.34124272248E+03  0.20953656242E+03  0.45864770617E+03  0.00000000000E+00 0.  1.
          2    1    6    6  503    0 -0.90967154301E+02 -0.84635143686E+02  0.21543502024E+03  0.24869736358E+03  0.00000000000E+00 0. -1.
         -2    1    6    6    0  503 -0.45119123673E+03 -0.18324096056E+03  0.77362408933E+03  0.91413621158E+03  0.00000000000E+00 0.  1.
<mgrwt>
<rscale>  0 0.19408256E+04</rscale>
<asrwt>0</asrwt>
<pdfrwt beam="1">  1        2 0.27744718E+00 0.19408256E+04</pdfrwt>
<pdfrwt beam="2">  1       -1 0.80335219E-01 0.19408256E+04</pdfrwt>
<totfact> 0.14120018E+01</totfact>
</mgrwt>
</event>
<event>
12    6  0.1494052E-007  0.1736126E+04  0.7818608E-02  0.8741024E-01
         -1   -1    0    0    0  501 -0.00000000000E+00  0.00000000000E+00  0.62130692673E+03  0.62130692673E+03  0.00000000000E+00 0.  1.
          2   -1    0    0  501    0  0.00000000000E+00 -0.00000000000E+00 -0.12128197098E+04  0.12128197098E+04  0.00000000000E+00 0. -1.
         24    2    1    2    0    0  0.21218813257E+03 -0.59314286767E+03 -0.30714220705E+03  0.70528445115E+03  0.79041486670E+02 0.  0.
        254    2    1    2    0    0 -0.21218813257E+03  0.59314286767E+03 -0.28437057600E+03  0.11288421853E+04  0.89251094662E+03 0.  0.
         23    2    4    4    0    0 -0.32849322133E+03  0.32638487584E+03 -0.54991350562E+03  0.72464534214E+03  0.90945723311E+02 0.  0.
         23    2    4    4    0    0  0.11630508875E+03  0.26675799183E+03  0.26554292962E+03  0.40419684320E+03  0.90417590703E+02 0.  0.
          4    1    3    3  502    0  0.16096482336E+02 -0.77451452648E+02 -0.13360762976E+02  0.80226767654E+02  0.00000000000E+00 0. -1.
         -3    1    3    3    0  502  0.19609165024E+03 -0.51569141502E+03 -0.29378144407E+03  0.62505768350E+03  0.00000000000E+00 0.  1.
         11    1    5    5    0    0 -0.13983231239E+03  0.19056930848E+03 -0.23584341000E+03  0.33390395470E+03  0.00000000000E+00 0. -1.
        -11    1    5    5    0    0 -0.18866090894E+03  0.13581556736E+03 -0.31407009562E+03  0.39074138744E+03  0.00000000000E+00 0.  1.
          1    1    6    6  503    0 -0.12526680482E+02  0.39296756737E+02  0.21217750748E+02  0.46382601919E+02  0.00000000000E+00 0. -1.
         -1    1    6    6    0  503  0.12883176924E+03  0.22746123509E+03  0.24432517887E+03  0.35781424128E+03  0.00000000000E+00 0.  1.
<mgrwt>
<rscale>  0 0.17361259E+04</rscale>
<asrwt>0</asrwt>
<pdfrwt beam="1">  1        2 0.18658765E+00 0.17361259E+04</pdfrwt>
<pdfrwt beam="2">  1       -1 0.95585681E-01 0.17361259E+04</pdfrwt>
<totfact> 0.21264938E+01</totfact>
</mgrwt>
</event>
<event>
12    6  0.1494052E-007  0.2050951E+04  0.7818608E-02  0.8583163E-01
          2   -1    0    0  501    0  0.00000000000E+00  0.00000000000E+00  0.81820395887E+03  0.81820395887E+03  0.00000000000E+00 0. -1.
         -1   -1    0    0    0  501 -0.00000000000E+00 -0.00000000000E+00 -0.12852542208E+04  0.12852542208E+04  0.00000000000E+00 0.  1.
         24    2    1    2    0    0  0.14655476181E+03 -0.76337909159E+03  0.72453295472E+02  0.78494093259E+03  0.81589533235E+02 0.  0.
        254    2    1    2    0    0 -0.14655476181E+03  0.76337909159E+03 -0.53950355740E+03  0.13185172471E+04  0.91825797395E+03 0.  0.
         23    2    4    4    0    0  0.10138173657E+03  0.19698191301E+03 -0.64131465357E+03  0.68462960051E+03  0.91395155491E+02 0.  0.
         23    2    4    4    0    0 -0.24793649838E+03  0.56639717858E+03  0.10181109618E+03  0.63388764658E+03  0.95758958023E+02 0.  0.
          4    1    3    3  502    0  0.94384785504E+02 -0.63244608433E+03  0.76012391404E+02  0.64395218841E+03  0.00000000000E+00 0. -1.
         -3    1    3    3    0  502  0.52169976306E+02 -0.13093300726E+03 -0.35590959327E+01  0.14098874417E+03  0.00000000000E+00 0.  1.
         11    1    5    5    0    0  0.10493246872E+03  0.13736284466E+03 -0.54032676406E+03  0.56730272875E+03  0.00000000000E+00 0.  1.
        -11    1    5    5    0    0 -0.35507321516E+01  0.59619068350E+02 -0.10098788951E+03  0.11732687176E+03  0.00000000000E+00 0. -1.
          4    1    6    6  503    0 -0.27358574507E+02  0.13763526768E+02  0.54912540730E+01  0.31113986235E+02  0.00000000000E+00 0. -1.
         -4    1    6    6    0  503 -0.22057792387E+03  0.55263365181E+03  0.96319842103E+02  0.60277366034E+03  0.00000000000E+00 0.  1.
<mgrwt>
<rscale>  0 0.20509511E+04</rscale>
<asrwt>0</asrwt>
<pdfrwt beam="1">  1        2 0.12587753E+00 0.20509511E+04</pdfrwt>
<pdfrwt beam="2">  1       -1 0.19773142E+00 0.20509511E+04</pdfrwt>
<totfact> 0.55061481E+00</totfact>
</mgrwt>
</event>
<event>
12    6  0.1494052E-007  0.2257693E+04  0.7818608E-02  0.8494792E-01
          2   -1    0    0  501    0  0.00000000000E+00  0.00000000000E+00  0.16396545002E+04  0.16396545002E+04  0.00000000000E+00 0. -1.
         -1   -1    0    0    0  501 -0.00000000000E+00 -0.00000000000E+00 -0.77717243215E+03  0.77717243215E+03  0.00000000000E+00 0.  1.
         24    2    1    2    0    0  0.90534415458E+03  0.60967378269E+02  0.32378907702E+02  0.91293255826E+03  0.95038954241E+02 0.  0.
        254    2    1    2    0    0 -0.90534415458E+03 -0.60967378269E+02  0.83010316031E+03  0.15038943740E+04  0.86559919828E+03 0.  0.
         23    2    4    4    0    0 -0.79540861030E+02 -0.34822253353E+03  0.17573962555E+03  0.40812776217E+03  0.89989848461E+02 0.  0.
         23    2    4    4    0    0 -0.82580329355E+03  0.28725515527E+03  0.65436353475E+03  0.10957666119E+04  0.89700770384E+02 0.  0.
          2    1    3    3  502    0  0.45598540100E+02 -0.14133471832E+02 -0.10381197138E+02  0.48854387104E+02  0.00000000000E+00 0. -1.
         -1    1    3    3    0  502  0.85974561448E+03  0.75100850101E+02  0.42760104840E+02  0.86407817116E+03  0.00000000000E+00 0.  1.
         11    1    5    5    0    0 -0.74375458083E+01 -0.21960354610E+03  0.12101060283E+03  0.25084776368E+03  0.00000000000E+00 0.  1.
        -11    1    5    5    0    0 -0.72103315222E+02 -0.12861898743E+03  0.54729022727E+02  0.15727999848E+03  0.00000000000E+00 0. -1.
          4    1    6    6  503    0 -0.54661430307E+03  0.21210205403E+03  0.48319430906E+03  0.75977050348E+03  0.00000000000E+00 0. -1.
         -4    1    6    6    0  503 -0.27918899048E+03  0.75153101239E+02  0.17116922569E+03  0.33599610840E+03  0.00000000000E+00 0.  1.
<mgrwt>
<rscale>  0 0.22576929E+04</rscale>
<asrwt>0</asrwt>
<pdfrwt beam="1">  1        2 0.25225454E+00 0.22576929E+04</pdfrwt>
<pdfrwt beam="2">  1       -1 0.11956499E+00 0.22576929E+04</pdfrwt>
<totfact> 0.68577200E+00</totfact>
</mgrwt>
</event>
<event>
12    6  0.1494052E-007  0.1637854E+04  0.7818608E-02  0.8797625E-01
          2   -1    0    0  501    0  0.00000000000E+00  0.00000000000E+00  0.11070891596E+04  0.11070891596E+04  0.00000000000E+00 0. -1.
         -1   -1    0    0    0  501 -0.00000000000E+00 -0.00000000000E+00 -0.60576974007E+03  0.60576974007E+03  0.00000000000E+00 0.  1.
         24    2    1    2    0    0 -0.10721225255E+03  0.38484629442E+03  0.60060661329E+03  0.72583454258E+03  0.80661898397E+02 0.  0.
        254    2    1    2    0    0  0.10721225255E+03 -0.38484629442E+03 -0.99287193716E+02  0.98702435713E+03  0.89708304928E+03 0.  0.
         23    2    4    4    0    0  0.49445095426E+03 -0.24730478323E+03 -0.27848943249E+02  0.56104212924E+03  0.91385475703E+02 0.  0.
         23    2    4    4    0    0 -0.38723870171E+03 -0.13754151118E+03 -0.71438250467E+02  0.42598222788E+03  0.86521416096E+02 0.  0.
          4    1    3    3  502    0 -0.43704696873E+02  0.27144124783E+03  0.44502962353E+03  0.52310784488E+03  0.00000000000E+00 0. -1.
         -3    1    3    3    0  502 -0.63507555676E+02  0.11340504659E+03  0.15557698976E+03  0.20272669771E+03  0.00000000000E+00 0.  1.
         11    1    5    5    0    0  0.45496117208E+03 -0.20841342461E+03 -0.33329825506E+01  0.50043674169E+03  0.00000000000E+00 0.  1.
        -11    1    5    5    0    0  0.39489782181E+02 -0.38891358620E+02 -0.24515960699E+02  0.60605387557E+02  0.00000000000E+00 0. -1.
          1    1    6    6  503    0 -0.25375260769E+03 -0.56767399280E+02 -0.16417659325E+02  0.26054263196E+03  0.00000000000E+00 0. -1.
         -1    1    6    6    0  503 -0.13348609402E+03 -0.80774111905E+02 -0.55020591142E+02  0.16543959593E+03  0.00000000000E+00 0.  1.
<mgrwt>
<rscale>  0 0.16378536E+04</rscale>
<asrwt>0</asrwt>
<pdfrwt beam="1">  1        2 0.17032141E+00 0.16378536E+04</pdfrwt>
<pdfrwt beam="2">  1       -1 0.93195345E-01 0.16378536E+04</pdfrwt>
<totfact> 0.26296259E+01</totfact>
</mgrwt>
</event>
<event>
12    6  0.1494052E-007  0.3020663E+04  0.7818608E-02  0.8237855E-01
         -1   -1    0    0    0  501 -0.00000000000E+00  0.00000000000E+00  0.19918853334E+04  0.19918853334E+04  0.00000000000E+00 0.  1.
          2   -1    0    0  501    0  0.00000000000E+00 -0.00000000000E+00 -0.11451968159E+04  0.11451968159E+04  0.00000000000E+00 0. -1.
         24    2    1    2    0    0 -0.31837376261E+03  0.12495886714E+04 -0.10979053039E+03  0.12964195926E+04  0.76263352765E+02 0.  0.
        254    2    1    2    0    0  0.31837376261E+03 -0.12495886714E+04  0.95647904796E+03  0.18406625567E+04  0.90019596645E+03 0.  0.
         23    2    4    4    0    0  0.53322557192E+03 -0.65951970269E+03  0.83744556601E+03  0.11949202062E+04  0.84991025059E+02 0.  0.
         23    2    4    4    0    0 -0.21485180931E+03 -0.59006896873E+03  0.11903348195E+03  0.64574235052E+03  0.92040890932E+02 0.  0.
          4    1    3    3  502    0 -0.32183971915E+03  0.12317154025E+04 -0.11242785426E+03  0.12780233409E+04  0.00000000000E+00 0. -1.
         -3    1    3    3    0  502  0.34659565452E+01  0.17873268932E+02  0.26373238754E+01  0.18396251637E+02  0.00000000000E+00 0.  1.
         11    1    5    5    0    0  0.26113845619E+03 -0.28877315771E+03  0.43533860612E+03  0.58404018003E+03  0.00000000000E+00 0.  1.
        -11    1    5    5    0    0  0.27208711573E+03 -0.37074654499E+03  0.40210695988E+03  0.61088002615E+03  0.00000000000E+00 0. -1.
          1    1    6    6  503    0 -0.15423071802E+02 -0.42874388451E+02 -0.15268973714E+02  0.48054405492E+02  0.00000000000E+00 0. -1.
         -1    1    6    6    0  503 -0.19942873751E+03 -0.54719458028E+03  0.13430245567E+03  0.59768794503E+03  0.00000000000E+00 0.  1.
<mgrwt>
<rscale>  0 0.30206627E+04</rscale>
<asrwt>0</asrwt>
<pdfrwt beam="1">  1        2 0.17618413E+00 0.30206627E+04</pdfrwt>
<pdfrwt beam="2">  1       -1 0.30644390E+00 0.30206627E+04</pdfrwt>
<totfact> 0.59678924E-01</totfact>
</mgrwt>
</event>
<event>
12    6  0.1494052E-007  0.1613469E+04  0.7818608E-02  0.8812316E-01
          2   -1    0    0  501    0  0.00000000000E+00  0.00000000000E+00  0.97537494777E+03  0.97537494777E+03  0.00000000000E+00 0. -1.
         -1   -1    0    0    0  501 -0.00000000000E+00 -0.00000000000E+00 -0.66725162747E+03  0.66725162747E+03  0.00000000000E+00 0.  1.
         24    2    1    2    0    0  0.40214156838E+03  0.34160586238E+02 -0.26655109676E+03  0.48990000604E+03  0.77895712716E+02 0.  0.
        254    2    1    2    0    0 -0.40214156838E+03 -0.34160586238E+02  0.57467441706E+03  0.11527265692E+04  0.91413514923E+03 0.  0.
         23    2    4    4    0    0 -0.42341858706E+03 -0.29947578848E+03  0.67308661844E+03  0.85463190238E+03  0.91548046832E+02 0.  0.
         23    2    4    4    0    0  0.21277018681E+02  0.26531520224E+03 -0.98412201386E+02  0.29809466683E+03  0.91272125784E+02 0.  0.
          2    1    3    3  502    0  0.69472173346E+01  0.13198826177E+02 -0.59802882176E+01  0.16069744501E+02  0.00000000000E+00 0. -1.
         -1    1    3    3    0  502  0.39519435104E+03  0.20961760061E+02 -0.26057080855E+03  0.47383026153E+03  0.00000000000E+00 0.  1.
         11    1    5    5    0    0 -0.17677682613E+02 -0.10501234796E+02  0.47869459778E+01  0.21111400867E+02  0.00000000000E+00 0. -1.
        -11    1    5    5    0    0 -0.40574090444E+03 -0.28897455369E+03  0.66829967247E+03  0.83352050151E+03  0.00000000000E+00 0.  1.
          4    1    6    6  503    0 -0.23246027930E+02  0.19466138558E+02 -0.23333149880E+01  0.30409747183E+02  0.00000000000E+00 0. -1.
         -4    1    6    6    0  503  0.44523046611E+02  0.24584906369E+03 -0.96078886398E+02  0.26768491965E+03  0.00000000000E+00 0.  1.
<mgrwt>
<rscale>  0 0.16134690E+04</rscale>
<asrwt>0</asrwt>
<pdfrwt beam="1">  1        2 0.15005768E+00 0.16134690E+04</pdfrwt>
<pdfrwt beam="2">  1       -1 0.10265410E+00 0.16134690E+04</pdfrwt>
<totfact> 0.25632672E+01</totfact>
</mgrwt>
</event>
<event>
12    6  0.1494052E-007  0.2702513E+04  0.7818608E-02  0.8334190E-01
          2   -1    0    0  501    0  0.00000000000E+00  0.00000000000E+00  0.12071377697E+04  0.12071377697E+04  0.00000000000E+00 0. -1.
         -1   -1    0    0    0  501 -0.00000000000E+00 -0.00000000000E+00 -0.15125814003E+04  0.15125814003E+04  0.00000000000E+00 0.  1.
         24    2    1    2    0    0  0.49892430747E+03 -0.28181012233E+03  0.92375588545E+03  0.10900871536E+04  0.81379708060E+02 0.  0.
        254    2    1    2    0    0 -0.49892430747E+03  0.28181012233E+03 -0.12291995160E+04  0.16296320164E+04  0.90356330667E+03 0.  0.
         23    2    4    4    0    0  0.11269616645E+02 -0.12025376827E+03 -0.86710368613E+03  0.88021603601E+03  0.91233187544E+02 0.  0.
         23    2    4    4    0    0 -0.51019392411E+03  0.40206389060E+03 -0.36209582986E+03  0.74941598040E+03  0.92507888008E+02 0.  0.
          2    1    3    3  502    0  0.31432153576E+03 -0.13963041590E+03  0.59243233280E+03  0.68503339323E+03  0.00000000000E+00 0. -1.
         -1    1    3    3    0  502  0.18460277171E+03 -0.14217970643E+03  0.33132355265E+03  0.40505376036E+03  0.00000000000E+00 0.  1.
         11    1    5    5    0    0  0.34189781795E+02 -0.12037768480E+03 -0.65246836370E+03  0.66436036441E+03  0.00000000000E+00 0. -1.
        -11    1    5    5    0    0 -0.22920165150E+02  0.12391652779E+00 -0.21463532243E+03  0.21585567160E+03  0.00000000000E+00 0.  1.
          3    1    6    6  503    0 -0.50691338283E+03  0.40411861315E+03 -0.36553575467E+03  0.74423747495E+03  0.00000000000E+00 0. -1.
         -3    1    6    6    0  503 -0.32805412867E+01 -0.20547225495E+01  0.34399248124E+01  0.51785054412E+01  0.00000000000E+00 0.  1.
<mgrwt>
<rscale>  0 0.27025130E+04</rscale>
<asrwt>0</asrwt>
<pdfrwt beam="1">  1        2 0.18571350E+00 0.27025130E+04</pdfrwt>
<pdfrwt beam="2">  1       -1 0.23270483E+00 0.27025130E+04</pdfrwt>
<totfact> 0.16978258E+00</totfact>
</mgrwt>
</event>
<event>
12    6  0.1494052E-007  0.1657690E+04  0.7818608E-02  0.8785870E-01
          2   -1    0    0  501    0  0.00000000000E+00  0.00000000000E+00  0.14232583154E+04  0.14232583154E+04  0.00000000000E+00 0. -1.
         -1   -1    0    0    0  501 -0.00000000000E+00 -0.00000000000E+00 -0.48268383878E+03  0.48268383878E+03  0.00000000000E+00 0.  1.
         24    2    1    2    0    0 -0.11772265768E+03  0.27802959711E+03  0.86282973805E+03  0.91766537811E+03  0.80470543161E+02 0.  0.
        254    2    1    2    0    0  0.11772265768E+03 -0.27802959711E+03  0.77744738541E+02  0.98827677604E+03  0.93781003443E+03 0.  0.
         23    2    4    4    0    0 -0.31844912540E+03 -0.10491824339E+03 -0.23383909135E+03  0.41904501796E+03  0.92197197196E+02 0.  0.
         23    2    4    4    0    0  0.43617178308E+03 -0.17311135372E+03  0.31158382989E+03  0.56923175807E+03  0.82017962682E+02 0.  0.
          2    1    3    3  502    0 -0.11878157399E+03  0.23368450193E+03  0.79035600997E+03  0.83269450055E+03  0.00000000000E+00 0. -1.
         -1    1    3    3    0  502  0.10589163097E+01  0.44345095182E+02  0.72473728087E+02  0.84970877560E+02  0.00000000000E+00 0.  1.
         11    1    5    5    0    0 -0.22500507407E+03 -0.29562443769E+02 -0.16588042477E+03  0.28110058121E+03  0.00000000000E+00 0.  1.
        -11    1    5    5    0    0 -0.93444051339E+02 -0.75355799622E+02 -0.67958666582E+02  0.13794443675E+03  0.00000000000E+00 0. -1.
          1    1    6    6  503    0  0.15785017770E+03 -0.25512125497E+02  0.12616735953E+03  0.20368050903E+03  0.00000000000E+00 0. -1.
         -1    1    6    6    0  503  0.27832160539E+03 -0.14759922823E+03  0.18541647036E+03  0.36555124904E+03  0.00000000000E+00 0.  1.
<mgrwt>
<rscale>  0 0.16576897E+04</rscale>
<asrwt>0</asrwt>
<pdfrwt beam="1">  1        2 0.21896282E+00 0.16576897E+04</pdfrwt>
<pdfrwt beam="2">  1       -1 0.74259053E-01 0.16576897E+04</pdfrwt>
<totfact> 0.27873840E+01</totfact>
</mgrwt>
</event>
<event>
12    6  0.1494052E-007  0.2978326E+04  0.7818608E-02  0.8249947E-01
          2   -1    0    0  501    0  0.00000000000E+00  0.00000000000E+00  0.52830994057E+04  0.52830994057E+04  0.00000000000E+00 0. -1.
         -1   -1    0    0    0  501 -0.00000000000E+00 -0.00000000000E+00 -0.41975478463E+03  0.41975478463E+03  0.00000000000E+00 0.  1.
         24    2    1    2    0    0  0.43639295924E+03 -0.11779031422E+04  0.12615901306E+04  0.17821331033E+04  0.80586060950E+02 0.  0.
        254    2    1    2    0    0 -0.43639295924E+03  0.11779031422E+04  0.36017544905E+04  0.39207210870E+04  0.90637950391E+03 0.  0.
         23    2    4    4    0    0 -0.35645461949E+03  0.58645835478E+03  0.29588083942E+04  0.30387136560E+04  0.90775944886E+02 0.  0.
         23    2    4    4    0    0 -0.79938339755E+02  0.59144478738E+03  0.64294609630E+03  0.88200743097E+03  0.91434954276E+02 0.  0.
          2    1    3    3  502    0  0.66225426236E+02 -0.11126536650E+03  0.13957016949E+03  0.19038282767E+03  0.00000000000E+00 0. -1.
         -1    1    3    3    0  502  0.37016753301E+03 -0.10666377757E+04  0.11220199611E+04  0.15917502756E+04  0.00000000000E+00 0.  1.
         11    1    5    5    0    0 -0.78013649061E+02  0.72804478299E+02  0.39361176939E+03  0.40781962496E+03  0.00000000000E+00 0. -1.
        -11    1    5    5    0    0 -0.27844097043E+03  0.51365387648E+03  0.25651966248E+04  0.26308940310E+04  0.00000000000E+00 0.  1.
          1    1    6    6  503    0 -0.17757371566E+02  0.81175480886E+02  0.14025560747E+03  0.16302275415E+03  0.00000000000E+00 0. -1.
         -1    1    6    6    0  503 -0.62180968188E+02  0.51026930649E+03  0.50269048883E+03  0.71898467682E+03  0.00000000000E+00 0.  1.
<mgrwt>
<rscale>  0 0.29783259E+04</rscale>
<asrwt>0</asrwt>
<pdfrwt beam="1">  1        2 0.81278448E+00 0.29783259E+04</pdfrwt>
<pdfrwt beam="2">  1       -1 0.64577663E-01 0.29783259E+04</pdfrwt>
<totfact> 0.32842589E-02</totfact>
</mgrwt>
</event>
<event>
12    6  0.1494052E-007  0.1999534E+04  0.7818608E-02  0.8606839E-01
         -1   -1    0    0    0  501 -0.00000000000E+00  0.00000000000E+00  0.47402841776E+03  0.47402841776E+03  0.00000000000E+00 0.  1.
          2   -1    0    0  501    0  0.00000000000E+00 -0.00000000000E+00 -0.21085944061E+04  0.21085944061E+04  0.00000000000E+00 0. -1.
         24    2    1    2    0    0 -0.20186335423E+03 -0.59049106078E+03 -0.12751082260E+04  0.14218649987E+04  0.79815913402E+02 0.  0.
        254    2    1    2    0    0  0.20186335423E+03  0.59049106078E+03 -0.35945776237E+03  0.11607578251E+04  0.91034078182E+03 0.  0.
         23    2    4    4    0    0  0.20155249928E+03 -0.10665301678E+03 -0.38429667648E+03  0.45715730962E+03  0.96491420501E+02 0.  0.
         23    2    4    4    0    0  0.31085494758E+00  0.69714407756E+03  0.24838914113E+02  0.70360051551E+03  0.91797343487E+02 0.  0.
          4    1    3    3  502    0 -0.17589185427E+03 -0.40540911332E+03 -0.91623673338E+03  0.10172434542E+04  0.00000000000E+00 0. -1.
         -3    1    3    3    0  502 -0.25971499951E+02 -0.18508194745E+03 -0.35887149262E+03  0.40462154453E+03  0.00000000000E+00 0.  1.
         11    1    5    5    0    0  0.11218066203E+03 -0.91939553347E+02 -0.16382699142E+03  0.21880737081E+03  0.00000000000E+00 0. -1.
        -11    1    5    5    0    0  0.89371837247E+02 -0.14713463433E+02 -0.22046968506E+03  0.23834993881E+03  0.00000000000E+00 0.  1.
          1    1    6    6  503    0 -0.12590942095E+02  0.59834718787E+03 -0.84848606973E+01  0.59853979142E+03  0.00000000000E+00 0. -1.
         -1    1    6    6    0  503  0.12901797043E+02  0.98796889691E+02  0.33323774810E+02  0.10506072409E+03  0.00000000000E+00 0.  1.
<mgrwt>
<rscale>  0 0.19995336E+04</rscale>
<asrwt>0</asrwt>
<pdfrwt beam="1">  1        2 0.32439914E+00 0.19995336E+04</pdfrwt>
<pdfrwt beam="2">  1       -1 0.72927448E-01 0.19995336E+04</pdfrwt>
<totfact> 0.11651787E+01</totfact>
</mgrwt>
</event>
<event>
12    6  0.1494052E-007  0.2317068E+04  0.7818608E-02  0.8471222E-01
         -1   -1    0    0    0  501 -0.00000000000E+00  0.00000000000E+00  0.61107824675E+03  0.61107824675E+03  0.00000000000E+00 0.  1.
          2   -1    0    0  501    0  0.00000000000E+00 -0.00000000000E+00 -0.21964470080E+04  0.21964470080E+04  0.00000000000E+00 0. -1.
         24    2    1    2    0    0  0.75557811517E+03 -0.16394080838E+03 -0.14214204696E+04  0.16202668593E+04  0.83986112979E+02 0.  0.
        254    2    1    2    0    0 -0.75557811517E+03  0.16394080838E+03 -0.16394829163E+03  0.11872583954E+04  0.88596195087E+03 0.  0.
         23    2    4    4    0    0 -0.22446686408E+03 -0.97723688327E+02 -0.45262382334E+03  0.52235795386E+03  0.89745273811E+02 0.  0.
         23    2    4    4    0    0 -0.53111125110E+03  0.26166449671E+03  0.28867553172E+03  0.66490044156E+03  0.90617684237E+02 0.  0.
          2    1    3    3  502    0  0.60840145373E+03 -0.97448655082E+02 -0.11337124410E+04  0.12903303717E+04  0.00000000000E+00 0. -1.
         -1    1    3    3    0  502  0.14717666144E+03 -0.66492153300E+02 -0.28770802862E+03  0.32993648761E+03  0.00000000000E+00 0.  1.
         11    1    5    5    0    0 -0.15209579660E+03 -0.18202991965E+02 -0.26120146460E+03  0.30280469839E+03  0.00000000000E+00 0.  1.
        -11    1    5    5    0    0 -0.72371067472E+02 -0.79520696363E+02 -0.19142235875E+03  0.21955325546E+03  0.00000000000E+00 0. -1.
          1    1    6    6  503    0 -0.25237615160E+03  0.93091413939E+02  0.91533887086E+02  0.28414465635E+03  0.00000000000E+00 0. -1.
         -1    1    6    6    0  503 -0.27873509950E+03  0.16857308277E+03  0.19714164463E+03  0.38075578521E+03  0.00000000000E+00 0.  1.
<mgrwt>
<rscale>  0 0.23170680E+04</rscale>
<asrwt>0</asrwt>
<pdfrwt beam="1">  1        2 0.33791492E+00 0.23170680E+04</pdfrwt>
<pdfrwt beam="2">  1       -1 0.94012039E-01 0.23170680E+04</pdfrwt>
<totfact> 0.58576288E+00</totfact>
</mgrwt>
</event>
<event>
12    6  0.1494052E-007  0.2002530E+04  0.7818608E-02  0.8605439E-01
          2   -1    0    0  501    0  0.00000000000E+00  0.00000000000E+00  0.41083012975E+03  0.41083012975E+03  0.00000000000E+00 0. -1.
         -1   -1    0    0    0  501 -0.00000000000E+00 -0.00000000000E+00 -0.24402572664E+04  0.24402572664E+04  0.00000000000E+00 0.  1.
         24    2    1    2    0    0 -0.62939289769E+03  0.28916733701E+02 -0.13514982305E+03  0.64951462948E+03  0.81438210198E+02 0.  0.
        254    2    1    2    0    0  0.62939289769E+03 -0.28916733701E+02 -0.18942773136E+04  0.22015727667E+04  0.92825885882E+03 0.  0.
         23    2    4    4    0    0  0.17011905905E+03  0.26689547454E+03 -0.14624919484E+04  0.14991407137E+04  0.91468528997E+02 0.  0.
         23    2    4    4    0    0  0.45927383864E+03 -0.29581220824E+03 -0.43178536517E+03  0.70243205293E+03  0.92384338541E+02 0.  0.
          4    1    3    3  502    0 -0.41483236426E+03  0.38429903629E+02 -0.54764223272E+02  0.42019265591E+03  0.00000000000E+00 0. -1.
         -3    1    3    3    0  502 -0.21456053344E+03 -0.95131699277E+01 -0.80385599777E+02  0.22932197357E+03  0.00000000000E+00 0.  1.
         11    1    5    5    0    0  0.99641916746E+02  0.76306613059E+02 -0.60824914896E+03  0.62106218528E+03  0.00000000000E+00 0.  1.
        -11    1    5    5    0    0  0.70477142304E+02  0.19058886148E+03 -0.85424279945E+03  0.87807852845E+03  0.00000000000E+00 0. -1.
          1    1    6    6  503    0  0.28619084390E+03 -0.15997667458E+03 -0.30868476442E+03  0.45031546646E+03  0.00000000000E+00 0. -1.
         -1    1    6    6    0  503  0.17308299474E+03 -0.13583553365E+03 -0.12310060075E+03  0.25211658648E+03  0.00000000000E+00 0.  1.
<mgrwt>
<rscale>  0 0.20025296E+04</rscale>
<asrwt>0</asrwt>
<pdfrwt beam="1">  1        2 0.63204633E-01 0.20025296E+04</pdfrwt>
<pdfrwt beam="2">  1       -1 0.37542421E+00 0.20025296E+04</pdfrwt>
<totfact> 0.86196444E-01</totfact>
</mgrwt>
</event>
<event>
12    6  0.1494052E-007  0.2828623E+04  0.7818608E-02  0.8294437E-01
         -1   -1    0    0    0  501 -0.00000000000E+00  0.00000000000E+00  0.78199181338E+03  0.78199181338E+03  0.00000000000E+00 0.  1.
          2   -1    0    0  501    0  0.00000000000E+00 -0.00000000000E+00 -0.25579264021E+04  0.25579264021E+04  0.00000000000E+00 0. -1.
         24    2    1    2    0    0 -0.96534969237E+03 -0.71251149226E+03 -0.13030952174E+04  0.17728834905E+04  0.74068008382E+02 0.  0.
        254    2    1    2    0    0  0.96534969237E+03  0.71251149226E+03 -0.47283937123E+03  0.15670347250E+04  0.89019554210E+03 0.  0.
         23    2    4    4    0    0 -0.22640333300E+02  0.44563744607E+03 -0.60044231536E+02  0.45949603321E+03  0.91793119358E+02 0.  0.
         23    2    4    4    0    0  0.98799002567E+03  0.26687404619E+03 -0.41279513969E+03  0.11075386918E+04  0.94319028173E+02 0.  0.
          2    1    3    3  502    0 -0.85385979590E+03 -0.65800995713E+03 -0.11717858087E+04  0.15922109270E+04  0.00000000000E+00 0. -1.
         -1    1    3    3    0  502 -0.11148989646E+03 -0.54501535125E+02 -0.13130940878E+03  0.18067256343E+03  0.00000000000E+00 0.  1.
         11    1    5    5    0    0 -0.44795135925E+02  0.13800726129E+03  0.93798298940E+00  0.14509820186E+03  0.00000000000E+00 0.  1.
        -11    1    5    5    0    0  0.22154802625E+02  0.30763018478E+03 -0.60982214525E+02  0.31439783135E+03  0.00000000000E+00 0. -1.
          2    1    6    6  503    0  0.84462081636E+03  0.19396529854E+03 -0.35760831106E+03  0.93749163441E+03  0.00000000000E+00 0. -1.
         -2    1    6    6    0  503  0.14336920931E+03  0.72908747643E+02 -0.55186828636E+02  0.17004705736E+03  0.00000000000E+00 0.  1.
<mgrwt>
<rscale>  0 0.28286233E+04</rscale>
<asrwt>0</asrwt>
<pdfrwt beam="1">  1        2 0.39352715E+00 0.28286233E+04</pdfrwt>
<pdfrwt beam="2">  1       -1 0.12030643E+00 0.28286233E+04</pdfrwt>
<totfact> 0.19550290E+00</totfact>
</mgrwt>
</event>
<event>
12    6  0.1494052E-007  0.1879330E+04  0.7818608E-02  0.8665214E-01
         -3   -1    0    0    0  501 -0.00000000000E+00  0.00000000000E+00  0.13123841758E+04  0.13123841758E+04  0.00000000000E+00 0.  1.
          2   -1    0    0  501    0  0.00000000000E+00 -0.00000000000E+00 -0.67279835368E+03  0.67279835368E+03  0.00000000000E+00 0. -1.
         24    2    1    2    0    0  0.95272171142E+02 -0.16773767781E+03 -0.49000982640E+03  0.53257119043E+03  0.79433794812E+02 0.  0.
        254    2    1    2    0    0 -0.95272171142E+02  0.16773767781E+03  0.11295956485E+04  0.14526113390E+04  0.89268172268E+03 0.  0.
         23    2    4    4    0    0 -0.48499151434E+03  0.90385032507E+02  0.56248047819E+03  0.75406401522E+03  0.94032056356E+02 0.  0.
         23    2    4    4    0    0  0.38971934320E+03  0.77352645299E+02  0.56711517034E+03  0.69854732383E+03  0.92109440317E+02 0.  0.
          4    1    3    3  502    0  0.53796533731E+02 -0.45002765415E+02 -0.10433437708E+03  0.12571785146E+03  0.00000000000E+00 0. -1.
         -3    1    3    3    0  502  0.41475637411E+02 -0.12273491239E+03 -0.38567544933E+03  0.40685333897E+03  0.00000000000E+00 0.  1.
         11    1    5    5    0    0 -0.15993400741E+03  0.12759621902E+02  0.24664993583E+03  0.29424120297E+03  0.00000000000E+00 0. -1.
        -11    1    5    5    0    0 -0.32505750693E+03  0.77625410605E+02  0.31583054236E+03  0.45982281225E+03  0.00000000000E+00 0.  1.
          1    1    6    6  503    0  0.20788012511E+03  0.29185125634E+02  0.22224567762E+03  0.30571074433E+03  0.00000000000E+00 0. -1.
         -1    1    6    6    0  503  0.18183921809E+03  0.48167519665E+02  0.34486949272E+03  0.39283657950E+03  0.00000000000E+00 0.  1.
<mgrwt>
<rscale>  0 0.18793296E+04</rscale>
<asrwt>0</asrwt>
<pdfrwt beam="1">  1        2 0.10350744E+00 0.18793296E+04</pdfrwt>
<pdfrwt beam="2">  1       -3 0.20190526E+00 0.18793296E+04</pdfrwt>
<totfact> 0.36095907E+00</totfact>
</mgrwt>
</event>
<event>
12    6  0.1494052E-007  0.1407713E+04  0.7818608E-02  0.8948255E-01
         -1   -1    0    0    0  501 -0.00000000000E+00  0.00000000000E+00  0.72074732746E+03  0.72074732746E+03  0.00000000000E+00 0.  1.
          2   -1    0    0  501    0  0.00000000000E+00 -0.00000000000E+00 -0.68736106532E+03  0.68736106532E+03  0.00000000000E+00 0. -1.
         24    2    1    2    0    0 -0.16134730341E+03 -0.25476572927E+03  0.30017414836E+03  0.43252103035E+03  0.77662044942E+02 0.  0.
        254    2    1    2    0    0  0.16134730341E+03  0.25476572927E+03 -0.26678788622E+03  0.97558736243E+03  0.88862612857E+03 0.  0.
         23    2    4    4    0    0  0.28917522056E+03  0.34101174365E+03  0.18256334570E+03  0.49213129475E+03  0.94617749848E+02 0.  0.
         23    2    4    4    0    0 -0.12782791715E+03 -0.86246014383E+02 -0.44935123192E+03  0.48345606768E+03  0.89637538720E+02 0.  0.
          4    1    3    3  502    0 -0.43073758624E+02 -0.13855697008E+03  0.15224048827E+03  0.21031060103E+03  0.00000000000E+00 0. -1.
         -3    1    3    3    0  502 -0.11827354479E+03 -0.11620875919E+03  0.14793366009E+03  0.22221042932E+03  0.00000000000E+00 0.  1.
         11    1    5    5    0    0  0.74058276494E+02  0.81966838911E+02  0.91166216109E+02  0.14322873300E+03  0.00000000000E+00 0. -1.
        -11    1    5    5    0    0  0.21511694406E+03  0.25904490474E+03  0.91397129591E+02  0.34890256175E+03  0.00000000000E+00 0.  1.
          1    1    6    6  503    0 -0.36667368934E+02 -0.71339899513E+02 -0.27075185512E+03  0.28238350564E+03  0.00000000000E+00 0. -1.
         -1    1    6    6    0  503 -0.91160548214E+02 -0.14906114870E+02 -0.17859937681E+03  0.20107256204E+03  0.00000000000E+00 0.  1.
<mgrwt>
<rscale>  0 0.14077125E+04</rscale>
<asrwt>0</asrwt>
<pdfrwt beam="1">  1        2 0.10574786E+00 0.14077125E+04</pdfrwt>
<pdfrwt beam="2">  1       -1 0.11088420E+00 0.14077125E+04</pdfrwt>
<totfact> 0.34901831E+01</totfact>
</mgrwt>
</event>
<event>
12    6  0.1494052E-007  0.3324103E+04  0.7818608E-02  0.8156789E-01
         -3   -1    0    0    0  501 -0.00000000000E+00  0.00000000000E+00  0.14056131962E+04  0.14056131962E+04  0.00000000000E+00 0.  1.
          2   -1    0    0  501    0  0.00000000000E+00 -0.00000000000E+00 -0.19652739929E+04  0.19652739929E+04  0.00000000000E+00 0. -1.
         24    2    1    2    0    0 -0.32817853152E+03  0.12779950167E+04 -0.10562710110E+04  0.16922338305E+04  0.83513335892E+02 0.  0.
        254    2    1    2    0    0  0.32817853152E+03 -0.12779950167E+04  0.49661021434E+03  0.16786533586E+04  0.91119865136E+03 0.  0.
         23    2    4    4    0    0  0.67829620900E+02 -0.11512283575E+04  0.75232973262E+02  0.11593555375E+04  0.92291242949E+02 0.  0.
         23    2    4    4    0    0  0.26034891062E+03 -0.12676665920E+03  0.42137724108E+03  0.51929782113E+03  0.90885128536E+02 0.  0.
          4    1    3    3  502    0 -0.31975037031E+03  0.12411529859E+04 -0.10421034471E+04  0.16518718558E+04  0.00000000000E+00 0. -1.
         -3    1    3    3    0  502 -0.84281612082E+01  0.36842030756E+02 -0.14167563958E+02  0.40361974680E+02  0.00000000000E+00 0.  1.
         11    1    5    5    0    0  0.69662141218E+02 -0.72817821265E+03  0.11994870137E+02  0.73160112097E+03  0.00000000000E+00 0.  1.
        -11    1    5    5    0    0 -0.18325203184E+01 -0.42305014483E+03  0.63238103125E+02  0.42775441653E+03  0.00000000000E+00 0. -1.
          1    1    6    6  503    0  0.55030169566E+02  0.88376758846E+01  0.10072293926E+03  0.11511530989E+03  0.00000000000E+00 0. -1.
         -1    1    6    6    0  503  0.20531874105E+03 -0.13560433508E+03  0.32065430182E+03  0.40418251124E+03  0.00000000000E+00 0.  1.
<mgrwt>
<rscale>  0 0.33241029E+04</rscale>
<asrwt>0</asrwt>
<pdfrwt beam="1">  1        2 0.30234985E+00 0.33241029E+04</pdfrwt>
<pdfrwt beam="2">  1       -3 0.21624818E+00 0.33241029E+04</pdfrwt>
<totfact> 0.42683213E-01</totfact>
</mgrwt>
</event>
<event>
12    6  0.1494052E-007  0.1411512E+04  0.7818608E-02  0.8945528E-01
          2   -1    0    0  501    0  0.00000000000E+00  0.00000000000E+00  0.53428302300E+03  0.53428302300E+03  0.00000000000E+00 0. -1.
         -1   -1    0    0    0  501 -0.00000000000E+00 -0.00000000000E+00 -0.93226119789E+03  0.93226119789E+03  0.00000000000E+00 0.  1.
         24    2    1    2    0    0 -0.23220724802E+03  0.34389703776E+03 -0.10705655475E+03  0.43567397853E+03  0.78519622000E+02 0.  0.
        254    2    1    2    0    0  0.23220724802E+03 -0.34389703776E+03 -0.29092162014E+03  0.10308702424E+04  0.89770412103E+03 0.  0.
         23    2    4    4    0    0  0.10052914111E+03  0.29775421868E+03 -0.93028469867E+02  0.34064998429E+03  0.92867823461E+02 0.  0.
         23    2    4    4    0    0  0.13167810691E+03 -0.64165125644E+03 -0.19789315028E+03  0.69022025807E+03  0.90481196945E+02 0.  0.
          4    1    3    3  502    0 -0.13205604709E+03  0.13432420418E+03 -0.28701264068E+02  0.19054016364E+03  0.00000000000E+00 0. -1.
         -3    1    3    3    0  502 -0.10015120093E+03  0.20957283358E+03 -0.78355290681E+02  0.24513381488E+03  0.00000000000E+00 0.  1.
         11    1    5    5    0    0  0.88912720724E+02  0.24703058446E+03 -0.11176382557E+03  0.28534318683E+03  0.00000000000E+00 0.  1.
        -11    1    5    5    0    0  0.11616420387E+02  0.50723634226E+02  0.18735355706E+02  0.55306797459E+02  0.00000000000E+00 0. -1.
          3    1    6    6  503    0  0.83543357233E+02 -0.20015520739E+03 -0.56227523043E+02  0.22406055862E+03  0.00000000000E+00 0. -1.
         -3    1    6    6    0  503  0.48134749677E+02 -0.44149604905E+03 -0.14166562723E+03  0.46615969946E+03  0.00000000000E+00 0.  1.
<mgrwt>
<rscale>  0 0.14115117E+04</rscale>
<asrwt>0</asrwt>
<pdfrwt beam="1">  1        2 0.82197388E-01 0.14115117E+04</pdfrwt>
<pdfrwt beam="2">  1       -1 0.14342480E+00 0.14115117E+04</pdfrwt>
<totfact> 0.24915987E+01</totfact>
</mgrwt>
</event>
<event>
12    6  0.1494052E-007  0.1141086E+04  0.7818608E-02  0.9166047E-01
          2   -1    0    0  501    0  0.00000000000E+00  0.00000000000E+00  0.41734655513E+03  0.41734655513E+03  0.00000000000E+00 0. -1.
         -1   -1    0    0    0  501 -0.00000000000E+00 -0.00000000000E+00 -0.77997353987E+03  0.77997353987E+03  0.00000000000E+00 0.  1.
         24    2    1    2    0    0 -0.49139229440E+02 -0.95149292489E+02 -0.26947574109E+03  0.30061416361E+03  0.79269468262E+02 0.  0.
        254    2    1    2    0    0  0.49139229440E+02  0.95149292489E+02 -0.93151243658E+02  0.89670593139E+03  0.88540178532E+03 0.  0.
         23    2    4    4    0    0 -0.28506367570E+03  0.18597857601E+03  0.22488129060E+03  0.41764540290E+03  0.89480488160E+02 0.  0.
         23    2    4    4    0    0  0.33420290514E+03 -0.90829283522E+02 -0.31803253426E+03  0.47906052848E+03  0.91721080184E+02 0.  0.
          2    1    3    3  502    0  0.78773597803E+01 -0.17288182356E+02 -0.58480324333E+01  0.19877965933E+02  0.00000000000E+00 0. -1.
         -1    1    3    3    0  502 -0.57016589220E+02 -0.77861110134E+02 -0.26362770865E+03  0.28073619768E+03  0.00000000000E+00 0.  1.
         11    1    5    5    0    0 -0.12282556556E+03  0.13186886974E+03  0.12851733759E+03  0.22134187228E+03  0.00000000000E+00 0.  1.
        -11    1    5    5    0    0 -0.16223811014E+03  0.54109706270E+02  0.96363953016E+02  0.19630353063E+03  0.00000000000E+00 0. -1.
          1    1    6    6  503    0  0.82783280103E+02  0.10759673876E+02 -0.47629191932E+02  0.96111299911E+02  0.00000000000E+00 0. -1.
         -1    1    6    6    0  503  0.25141962504E+03 -0.10158895740E+03 -0.27040334233E+03  0.38294922857E+03  0.00000000000E+00 0.  1.
<mgrwt>
<rscale>  0 0.11410859E+04</rscale>
<asrwt>0</asrwt>
<pdfrwt beam="1">  1        2 0.64207163E-01 0.11410859E+04</pdfrwt>
<pdfrwt beam="2">  1       -1 0.11999593E+00 0.11410859E+04</pdfrwt>
<totfact> 0.53203935E+01</totfact>
</mgrwt>
</event>
<event>
12    6  0.1698318E-007  0.2248177E+04  0.7818608E-02  0.8498639E-01
         -1   -1    0    0    0  501 -0.00000000000E+00  0.00000000000E+00  0.78124844464E+03  0.78124844464E+03  0.00000000000E+00 0.  1.
          2   -1    0    0  501    0  0.00000000000E+00 -0.00000000000E+00 -0.16173793366E+04  0.16173793366E+04  0.00000000000E+00 0. -1.
         24    2    1    2    0    0 -0.41686235833E+03  0.70701042210E+03  0.13659027988E+03  0.83656555147E+03  0.86873785363E+02 0.  0.
        254    2    1    2    0    0  0.41686235833E+03 -0.70701042210E+03 -0.97272117185E+03  0.15620622298E+04  0.90565665059E+03 0.  0.
         23    2    4    4    0    0  0.59597406199E+03 -0.40620324023E+03 -0.95602414441E+03  0.12010833177E+04  0.91830367077E+02 0.  0.
         23    2    4    4    0    0 -0.17911170366E+03 -0.30080718187E+03 -0.16697027439E+02  0.36097891212E+03  0.86377203082E+02 0.  0.
          2    1    3    3  502    0 -0.63829514920E+02  0.14715936363E+03  0.55574830590E+02  0.16976055806E+03  0.00000000000E+00 0. -1.
         -1    1    3    3    0  502 -0.35303284341E+03  0.55985105847E+03  0.81015449290E+02  0.66680499340E+03  0.00000000000E+00 0.  1.
         11    1    5    5    0    0  0.46545010687E+03 -0.30896636107E+03 -0.79888330338E+03  0.97484283178E+03  0.00000000000E+00 0. -1.
        -11    1    5    5    0    0  0.13052395512E+03 -0.97236879157E+02 -0.15714084104E+03  0.22624048588E+03  0.00000000000E+00 0.  1.
          4    1    6    6  503    0  0.78069223804E+01 -0.18920569325E+01 -0.83231887796E+00  0.80759315998E+01  0.00000000000E+00 0.  1.
         -4    1    6    6    0  503 -0.18691862604E+03 -0.29891512494E+03 -0.15864708561E+02  0.35290298052E+03  0.00000000000E+00 0. -1.
<mgrwt>
<rscale>  0 0.22481771E+04</rscale>
<asrwt>0</asrwt>
<pdfrwt beam="1">  1        2 0.24882759E+00 0.22481771E+04</pdfrwt>
<pdfrwt beam="2">  1       -1 0.12019207E+00 0.22481771E+04</pdfrwt>
<totfact> 0.69729198E+00</totfact>
</mgrwt>
</event>
<event>
12    6  0.1494052E-007  0.1499718E+04  0.7818608E-02  0.8884640E-01
         -1   -1    0    0    0  501 -0.00000000000E+00  0.00000000000E+00  0.69709960754E+03  0.69709960754E+03  0.00000000000E+00 0.  1.
          2   -1    0    0  501    0  0.00000000000E+00 -0.00000000000E+00 -0.80661172460E+03  0.80661172460E+03  0.00000000000E+00 0. -1.
         24    2    1    2    0    0 -0.92761723064E+02 -0.15866784701E+03  0.39513223404E+03  0.44302923318E+03  0.79782179307E+02 0.  0.
        254    2    1    2    0    0  0.92761723064E+02  0.15866784701E+03 -0.50464435111E+03  0.10606820990E+04  0.91465860899E+03 0.  0.
         23    2    4    4    0    0  0.11260465848E+03 -0.25896854076E+03  0.10587897667E+03  0.31517181738E+03  0.91533614335E+02 0.  0.
         23    2    4    4    0    0 -0.19842935415E+02  0.41763638777E+03 -0.61052332777E+03  0.74551028158E+03  0.90735614330E+02 0.  0.
          2    1    3    3  502    0  0.27612577603E+01 -0.63326218559E+02  0.98430136129E+02  0.11707402017E+03  0.00000000000E+00 0. -1.
         -1    1    3    3    0  502 -0.95522980824E+02 -0.95341628446E+02  0.29670209792E+03  0.32595521301E+03  0.00000000000E+00 0.  1.
         11    1    5    5    0    0  0.45441199473E+02 -0.22278474704E+02  0.13634822822E+02  0.52413180003E+02  0.00000000000E+00 0.  1.
        -11    1    5    5    0    0  0.67163459006E+02 -0.23669006606E+03  0.92244153843E+02  0.26275863737E+03  0.00000000000E+00 0. -1.
          2    1    6    6  503    0  0.25682406164E+02  0.43355405456E+02 -0.82945809124E+02  0.97052997995E+02  0.00000000000E+00 0. -1.
         -2    1    6    6    0  503 -0.45525341578E+02  0.37428098231E+03 -0.52757751865E+03  0.64845728358E+03  0.00000000000E+00 0.  1.
<mgrwt>
<rscale>  0 0.14997183E+04</rscale>
<asrwt>0</asrwt>
<pdfrwt beam="1">  1        2 0.12409411E+00 0.14997183E+04</pdfrwt>
<pdfrwt beam="2">  1       -1 0.10724609E+00 0.14997183E+04</pdfrwt>
<totfact> 0.30460040E+01</totfact>
</mgrwt>
</event>
<event>
12    6  0.1494052E-007  0.4509737E+04  0.7818608E-02  0.7908934E-01
         -1   -1    0    0    0  501 -0.00000000000E+00  0.00000000000E+00  0.14382656194E+04  0.14382656194E+04  0.00000000000E+00 0.  1.
          2   -1    0    0  501    0  0.00000000000E+00 -0.00000000000E+00 -0.35351131977E+04  0.35351131977E+04  0.00000000000E+00 0. -1.
         24    2    1    2    0    0  0.76171791625E+03 -0.18781676830E+04 -0.24924072133E+03  0.20433525907E+04  0.73762073534E+02 0.  0.
        254    2    1    2    0    0 -0.76171791625E+03  0.18781676830E+04 -0.18476068570E+04  0.29300262263E+04  0.10313459941E+04 0.  0.
         23    2    4    4    0    0 -0.83988359732E+03  0.18759774052E+04 -0.14579095031E+04  0.25215866657E+04  0.90573238612E+02 0.  0.
         23    2    4    4    0    0  0.78165681070E+02  0.21902778139E+01 -0.38969735387E+03  0.40843956064E+03  0.94043479630E+02 0.  0.
          2    1    3    3  502    0  0.20280210162E+02 -0.64071047015E+02 -0.20630275950E+02  0.70299319169E+02  0.00000000000E+00 0. -1.
         -1    1    3    3    0  502  0.74143770609E+03 -0.18140966360E+04 -0.22861044538E+03  0.19730532716E+04  0.00000000000E+00 0.  1.
         11    1    5    5    0    0 -0.69810159598E+03  0.14691935145E+04 -0.11540355534E+04  0.19944105595E+04  0.00000000000E+00 0. -1.
        -11    1    5    5    0    0 -0.14178200134E+03  0.40678389073E+03 -0.30387394972E+03  0.52717610623E+03  0.00000000000E+00 0.  1.
          2    1    6    6  503    0  0.69542111110E+02 -0.18355725464E+02 -0.37479352786E+03  0.38163231834E+03  0.00000000000E+00 0. -1.
         -2    1    6    6    0  503  0.86235699597E+01  0.20546003278E+02 -0.14903826010E+02  0.26807242292E+02  0.00000000000E+00 0.  1.
<mgrwt>
<rscale>  0 0.45097369E+04</rscale>
<asrwt>0</asrwt>
<pdfrwt beam="1">  1        2 0.54386356E+00 0.45097369E+04</pdfrwt>
<pdfrwt beam="2">  1       -1 0.22127164E+00 0.45097369E+04</pdfrwt>
<totfact> 0.71079799E-02</totfact>
</mgrwt>
</event>
<event>
12    6  0.1494052E-007  0.2098703E+04  0.7818608E-02  0.8561815E-01
          2   -1    0    0  501    0  0.00000000000E+00  0.00000000000E+00  0.19808695775E+04  0.19808695775E+04  0.00000000000E+00 0. -1.
         -1   -1    0    0    0  501 -0.00000000000E+00 -0.00000000000E+00 -0.55588650907E+03  0.55588650907E+03  0.00000000000E+00 0.  1.
         24    2    1    2    0    0  0.73825508466E+02 -0.30824849412E+03 -0.37493581611E+03  0.49727885288E+03  0.79006654730E+02 0.  0.
        254    2    1    2    0    0 -0.73825508466E+02  0.30824849412E+03  0.17999188845E+04  0.20394772337E+04  0.90514753274E+03 0.  0.
         23    2    4    4    0    0 -0.27927026467E+03  0.10198546658E+03  0.12444434420E+03  0.33629728025E+03  0.96002863392E+02 0.  0.
         23    2    4    4    0    0  0.20544475620E+03  0.20626302754E+03  0.16754745403E+04  0.17031799534E+04  0.94101190941E+02 0.  0.
          2    1    3    3  502    0  0.21976395419E+02 -0.27815468619E+02 -0.77442903765E+02  0.85170802472E+02  0.00000000000E+00 0. -1.
         -1    1    3    3    0  502  0.51849113047E+02 -0.28043302550E+03 -0.29749291234E+03  0.41210805041E+03  0.00000000000E+00 0.  1.
         11    1    5    5    0    0 -0.19794652091E+03  0.51312894748E+02  0.39546437679E+02  0.20827808104E+03  0.00000000000E+00 0. -1.
        -11    1    5    5    0    0 -0.81323743755E+02  0.50672571836E+02  0.84897906524E+02  0.12801919921E+03  0.00000000000E+00 0.  1.
          1    1    6    6  503    0  0.99707621007E+02  0.44658375030E+02  0.73565550035E+03  0.74372373590E+03  0.00000000000E+00 0. -1.
         -1    1    6    6    0  503  0.10573713519E+03  0.16160465251E+03  0.93981903998E+03  0.95945621754E+03  0.00000000000E+00 0.  1.
<mgrwt>
<rscale>  0 0.20987031E+04</rscale>
<asrwt>0</asrwt>
<pdfrwt beam="1">  1        2 0.30474916E+00 0.20987031E+04</pdfrwt>
<pdfrwt beam="2">  1       -1 0.85521003E-01 0.20987031E+04</pdfrwt>
<totfact> 0.97052375E+00</totfact>
</mgrwt>
</event>
<event>
12    6  0.1494052E-007  0.2512914E+04  0.7818608E-02  0.8398399E-01
          2   -1    0    0  501    0  0.00000000000E+00  0.00000000000E+00  0.18028727644E+04  0.18028727644E+04  0.00000000000E+00 0. -1.
         -1   -1    0    0    0  501 -0.00000000000E+00 -0.00000000000E+00 -0.87564893798E+03  0.87564893798E+03  0.00000000000E+00 0.  1.
         24    2    1    2    0    0 -0.41981893252E+03 -0.28309505204E+03  0.14373706020E+04  0.15264021570E+04  0.86478627485E+02 0.  0.
        254    2    1    2    0    0  0.41981893252E+03  0.28309505204E+03 -0.51014677556E+03  0.11521195453E+04  0.90041044504E+03 0.  0.
         23    2    4    4    0    0 -0.12760029581E+03 -0.10877038372E+03  0.11998711997E+03  0.22560979279E+03  0.91597149408E+02 0.  0.
         23    2    4    4    0    0  0.54741922834E+03  0.39186543576E+03 -0.63013389552E+03  0.92650975254E+03  0.90140246082E+02 0.  0.
          2    1    3    3  502    0 -0.35129666336E+03 -0.26498192951E+03  0.12874887350E+04  0.13606072215E+04  0.00000000000E+00 0. -1.
         -1    1    3    3    0  502 -0.68522269167E+02 -0.18113122532E+02  0.14988186701E+03  0.16579493551E+03  0.00000000000E+00 0.  1.
         11    1    5    5    0    0 -0.28806957539E+02 -0.41945279354E+02  0.88771141718E+02  0.10232088186E+03  0.00000000000E+00 0.  1.
        -11    1    5    5    0    0 -0.98793338272E+02 -0.66825104370E+02  0.31215978250E+02  0.12328891093E+03  0.00000000000E+00 0. -1.
          3    1    6    6  503    0  0.17409330243E+03  0.14419128902E+03 -0.26677941224E+03  0.34967250474E+03  0.00000000000E+00 0. -1.
         -3    1    6    6    0  503  0.37332592591E+03  0.24767414674E+03 -0.36335448329E+03  0.57683724779E+03  0.00000000000E+00 0.  1.
<mgrwt>
<rscale>  0 0.25129135E+04</rscale>
<asrwt>0</asrwt>
<pdfrwt beam="1">  1        2 0.27736504E+00 0.25129135E+04</pdfrwt>
<pdfrwt beam="2">  1       -1 0.13471522E+00 0.25129135E+04</pdfrwt>
<totfact> 0.40379646E+00</totfact>
</mgrwt>
</event>
<event>
12    6  0.1494052E-007  0.1424362E+04  0.7818608E-02  0.8936371E-01
         -1   -1    0    0    0  501 -0.00000000000E+00  0.00000000000E+00  0.20750021922E+03  0.20750021922E+03  0.00000000000E+00 0.  1.
          2   -1    0    0  501    0  0.00000000000E+00 -0.00000000000E+00 -0.24443429283E+04  0.24443429283E+04  0.00000000000E+00 0. -1.
         24    2    1    2    0    0 -0.44594210913E+02 -0.47118725623E+01  0.10761457516E+03  0.14632034977E+03  0.88418903981E+02 0.  0.
        254    2    1    2    0    0  0.44594210913E+02  0.47118725623E+01 -0.23444572842E+04  0.25055227978E+04  0.88269682622E+03 0.  0.
         23    2    4    4    0    0  0.32807456291E+03 -0.27972776769E+03 -0.87485250186E+03  0.97944116884E+03  0.89763914622E+02 0.  0.
         23    2    4    4    0    0 -0.28348035199E+03  0.28443964025E+03 -0.14696047824E+04  0.15260816289E+04  0.88993835611E+02 0.  0.
          4    1    3    3  502    0  0.56770030378E+01 -0.38182053175E+02  0.38149504373E+02  0.54272297096E+02  0.00000000000E+00 0. -1.
         -3    1    3    3    0  502 -0.50271213951E+02  0.33470180613E+02  0.69465070785E+02  0.92048052677E+02  0.00000000000E+00 0.  1.
         11    1    5    5    0    0  0.16922495206E+03 -0.19784487396E+03 -0.48094134648E+03  0.54688596371E+03  0.00000000000E+00 0. -1.
        -11    1    5    5    0    0  0.15884961084E+03 -0.81882893730E+02 -0.39391115538E+03  0.43255520513E+03  0.00000000000E+00 0.  1.
          4    1    6    6  503    0 -0.28828294549E+03  0.27092780025E+03 -0.14370082186E+04  0.14904702445E+04  0.00000000000E+00 0.  1.
         -4    1    6    6    0  503  0.48025934945E+01  0.13511840004E+02 -0.32596563804E+02  0.35611384366E+02  0.00000000000E+00 0. -1.
<mgrwt>
<rscale>  0 0.14243619E+04</rscale>
<asrwt>0</asrwt>
<pdfrwt beam="1">  1        2 0.37605276E+00 0.14243619E+04</pdfrwt>
<pdfrwt beam="2">  1       -1 0.31923111E-01 0.14243619E+04</pdfrwt>
<totfact> 0.38046515E+01</totfact>
</mgrwt>
</event>
<event>
12    6  0.1494052E-007  0.1699058E+04  0.7818608E-02  0.8761902E-01
         -1   -1    0    0    0  501 -0.00000000000E+00  0.00000000000E+00  0.12510377755E+04  0.12510377755E+04  0.00000000000E+00 0.  1.
          2   -1    0    0  501    0  0.00000000000E+00 -0.00000000000E+00 -0.57688084342E+03  0.57688084342E+03  0.00000000000E+00 0. -1.
         24    2    1    2    0    0 -0.14454140260E+03  0.25243260334E+03 -0.32763767055E+03  0.44557445369E+03  0.81090778274E+02 0.  0.
        254    2    1    2    0    0  0.14454140260E+03 -0.25243260334E+03  0.10017946027E+04  0.13823441653E+04  0.90701076565E+03 0.  0.
         23    2    4    4    0    0 -0.87379325632E+02  0.16991365366E+03  0.84066186955E+03  0.86600837085E+03  0.82172521097E+02 0.  0.
         23    2    4    4    0    0  0.23192072823E+03 -0.42234625700E+03  0.16113273311E+03  0.51633579441E+03  0.92061446446E+02 0.  0.
          4    1    3    3  502    0 -0.14714971377E+03  0.25273949378E+03 -0.30416651810E+03  0.42195682328E+03  0.00000000000E+00 0. -1.
         -1    1    3    3    0  502  0.26083111623E+01 -0.30689043883E+00 -0.23471152456E+02  0.23617630416E+02  0.00000000000E+00 0.  1.
         11    1    5    5    0    0 -0.11481763825E+02 -0.50249386640E+01  0.11603840584E+03  0.11671329204E+03  0.00000000000E+00 0.  1.
        -11    1    5    5    0    0 -0.75897561807E+02  0.17493859232E+03  0.72462346370E+03  0.74929507881E+03  0.00000000000E+00 0. -1.
          3    1    6    6  503    0  0.16571466746E+03 -0.25217400830E+03  0.13958565164E+03  0.33247140571E+03  0.00000000000E+00 0. -1.
         -3    1    6    6    0  503  0.66206060777E+02 -0.17017224870E+03  0.21547081472E+02  0.18386438869E+03  0.00000000000E+00 0.  1.
<mgrwt>
<rscale>  0 0.16990582E+04</rscale>
<asrwt>0</asrwt>
<pdfrwt beam="1">  1        2 0.88750899E-01 0.16990582E+04</pdfrwt>
<pdfrwt beam="2">  1       -1 0.19246735E+00 0.16990582E+04</pdfrwt>
<totfact> 0.95989816E+00</totfact>
</mgrwt>
</event>
<event>
12    6  0.1494052E-007  0.2202156E+04  0.7818608E-02  0.8517531E-01
          2   -1    0    0  501    0  0.00000000000E+00  0.00000000000E+00  0.37803211118E+04  0.37803211118E+04  0.00000000000E+00 0. -1.
         -1   -1    0    0    0  501 -0.00000000000E+00 -0.00000000000E+00 -0.32070639883E+03  0.32070639883E+03  0.00000000000E+00 0.  1.
         24    2    1    2    0    0 -0.36700646991E+03  0.18581730400E+03 -0.79091611790E+02  0.42644674511E+03  0.79871922120E+02 0.  0.
        254    2    1    2    0    0  0.36700646991E+03 -0.18581730400E+03  0.35387063247E+04  0.36745807655E+04  0.90048849519E+03 0.  0.
         23    2    4    4    0    0  0.63842351462E+03 -0.22422370697E+03  0.27865277200E+04  0.28688839887E+04  0.88869295978E+02 0.  0.
         23    2    4    4    0    0 -0.27141704471E+03  0.38406402968E+02  0.75217860474E+03  0.80569677675E+03  0.90732456637E+02 0.  0.
          4    1    3    3  502    0 -0.23822582783E+03  0.83266515997E+02 -0.27109402022E+02  0.25381051477E+03  0.00000000000E+00 0. -1.
         -3    1    3    3    0  502 -0.12878064208E+03  0.10255078801E+03 -0.51982209767E+02  0.17263623034E+03  0.00000000000E+00 0.  1.
         11    1    5    5    0    0  0.35094229410E+03 -0.16949282891E+03  0.16147334802E+04  0.16610997938E+04  0.00000000000E+00 0.  1.
        -11    1    5    5    0    0  0.28748122052E+03 -0.54730878063E+02  0.11717942398E+04  0.12077841950E+04  0.00000000000E+00 0. -1.
          3    1    6    6  503    0 -0.27732879238E+03  0.39222112812E+02  0.74704178801E+03  0.79782270352E+03  0.00000000000E+00 0. -1.
         -3    1    6    6    0  503  0.59117476744E+01 -0.81570984382E+00  0.51368167333E+01  0.78740732322E+01  0.00000000000E+00 0.  1.
<mgrwt>
<rscale>  0 0.22021564E+04</rscale>
<asrwt>0</asrwt>
<pdfrwt beam="1">  1        2 0.58158783E+00 0.22021564E+04</pdfrwt>
<pdfrwt beam="2">  1       -1 0.49339449E-01 0.22021564E+04</pdfrwt>
<totfact> 0.21877252E+00</totfact>
</mgrwt>
</event>
<event>
12    6  0.1494052E-007  0.2245022E+04  0.7818608E-02  0.8499919E-01
         -1   -1    0    0    0  501 -0.00000000000E+00  0.00000000000E+00  0.94896815930E+03  0.94896815930E+03  0.00000000000E+00 0.  1.
          2   -1    0    0  501    0  0.00000000000E+00 -0.00000000000E+00 -0.13277909144E+04  0.13277909144E+04  0.00000000000E+00 0. -1.
         24    2    1    2    0    0  0.29511790927E+03  0.89245993222E+03 -0.86007178111E+02  0.94714728421E+03  0.78175650327E+02 0.  0.
        254    2    1    2    0    0 -0.29511790927E+03 -0.89245993222E+03 -0.29281557701E+03  0.13296117895E+04  0.89361470314E+03 0.  0.
         23    2    4    4    0    0  0.13303051145E+03 -0.80415596367E+03 -0.50391733335E+02  0.82160493587E+03  0.90174347627E+02 0.  0.
         23    2    4    4    0    0 -0.42814842072E+03 -0.88303968556E+02 -0.24242384368E+03  0.50800685364E+03  0.90515094531E+02 0.  0.
          4    1    3    3  502    0  0.29689006329E+03  0.86954964201E+03 -0.91912147530E+02  0.92342196880E+03  0.00000000000E+00 0. -1.
         -3    1    3    3    0  502 -0.17721540151E+01  0.22910290214E+02  0.59049694192E+01  0.23725315412E+02  0.00000000000E+00 0.  1.
         11    1    5    5    0    0  0.13949258609E+03 -0.68304599822E+03 -0.61294773925E+02  0.69983359919E+03  0.00000000000E+00 0. -1.
        -11    1    5    5    0    0 -0.64620746346E+01 -0.12110996545E+03  0.10903040590E+02  0.12177133667E+03  0.00000000000E+00 0.  1.
          3    1    6    6  503    0 -0.40108863762E+03 -0.60809249778E+02 -0.20611855021E+03  0.45503265468E+03  0.00000000000E+00 0. -1.
         -3    1    6    6    0  503 -0.27059783106E+02 -0.27494718778E+02 -0.36305293469E+02  0.52974198968E+02  0.00000000000E+00 0.  1.
<mgrwt>
<rscale>  0 0.22450223E+04</rscale>
<asrwt>0</asrwt>
<pdfrwt beam="1">  1        2 0.20427553E+00 0.22450223E+04</pdfrwt>
<pdfrwt beam="2">  1       -1 0.14599510E+00 0.22450223E+04</pdfrwt>
<totfact> 0.62019247E+00</totfact>
</mgrwt>
</event>
<event>
12    6  0.1494052E-007  0.1836385E+04  0.7818608E-02  0.8687186E-01
         -1   -1    0    0    0  501 -0.00000000000E+00  0.00000000000E+00  0.65400657309E+03  0.65400657309E+03  0.00000000000E+00 0.  1.
          2   -1    0    0  501    0  0.00000000000E+00 -0.00000000000E+00 -0.12890962172E+04  0.12890962172E+04  0.00000000000E+00 0. -1.
         24    2    1    2    0    0 -0.59172437955E+03  0.33536609134E+03 -0.39126559633E+03  0.78905870494E+03  0.83166798645E+02 0.  0.
        254    2    1    2    0    0  0.59172437955E+03 -0.33536609134E+03 -0.24382404775E+03  0.11540440853E+04  0.89986633897E+03 0.  0.
         23    2    4    4    0    0  0.41922841419E+03 -0.63718017778E+03 -0.18224675018E+03  0.78962666360E+03  0.92441049882E+02 0.  0.
         23    2    4    4    0    0  0.17249596536E+03  0.30181408643E+03 -0.61577297574E+02  0.36441742172E+03  0.90342087859E+02 0.  0.
          4    1    3    3  502    0 -0.92168621986E+02  0.40470313540E+02 -0.91724725145E+02  0.13618489769E+03  0.00000000000E+00 0. -1.
         -3    1    3    3    0  502 -0.49955575756E+03  0.29489577780E+03 -0.29954087119E+03  0.65287380725E+03  0.00000000000E+00 0.  1.
         11    1    5    5    0    0  0.32996636050E+03 -0.49371412594E+03 -0.10181965805E+03  0.60249371779E+03  0.00000000000E+00 0. -1.
        -11    1    5    5    0    0  0.89262053695E+02 -0.14346605183E+03 -0.80427092130E+02  0.18713294581E+03  0.00000000000E+00 0.  1.
          1    1    6    6  503    0  0.17246422577E+03  0.30126626534E+03 -0.47550915229E+02  0.35038030958E+03  0.00000000000E+00 0. -1.
         -1    1    6    6    0  503  0.31739585087E-01  0.54782109259E+00 -0.14026382345E+02  0.14037112133E+02  0.00000000000E+00 0.  1.
<mgrwt>
<rscale>  0 0.18363849E+04</rscale>
<asrwt>0</asrwt>
<pdfrwt beam="1">  1        2 0.19832249E+00 0.18363849E+04</pdfrwt>
<pdfrwt beam="2">  1       -1 0.10061640E+00 0.18363849E+04</pdfrwt>
<totfact> 0.16919138E+01</totfact>
</mgrwt>
</event>
<event>
12    6  0.1494052E-007  0.2251999E+04  0.7818608E-02  0.8497091E-01
          2   -1    0    0  501    0  0.00000000000E+00  0.00000000000E+00  0.38702927459E+04  0.38702927459E+04  0.00000000000E+00 0. -1.
         -1   -1    0    0    0  501 -0.00000000000E+00 -0.00000000000E+00 -0.32759147593E+03  0.32759147593E+03  0.00000000000E+00 0.  1.
         24    2    1    2    0    0 -0.31536853939E+02  0.81027849668E+03  0.60006268116E+03  0.10121881729E+04  0.83089473695E+02 0.  0.
        254    2    1    2    0    0  0.31536853939E+02 -0.81027849668E+03  0.29426385888E+04  0.31856960489E+04  0.91213575558E+03 0.  0.
         23    2    4    4    0    0 -0.34831342057E+03 -0.83309551988E+02  0.63284330046E+03  0.73295121981E+03  0.92000691711E+02 0.  0.
         23    2    4    4    0    0  0.37985027451E+03 -0.72696894469E+03  0.23097952883E+04  0.24527448291E+04  0.89626141408E+02 0.  0.
          4    1    3    3  502    0 -0.43319712444E+01  0.92835107977E+01 -0.11306539183E+01  0.10306693256E+02  0.00000000000E+00 0. -1.
         -3    1    3    3    0  502 -0.27204882695E+02  0.80099498588E+03  0.60119333508E+03  0.10018814796E+04  0.00000000000E+00 0.  1.
         11    1    5    5    0    0 -0.28336874615E+03 -0.10357035185E+03  0.51266950944E+03  0.59485686512E+03  0.00000000000E+00 0.  1.
        -11    1    5    5    0    0 -0.64944674425E+02  0.20260799860E+02  0.12017379102E+03  0.13809435468E+03  0.00000000000E+00 0. -1.
          3    1    6    6  503    0  0.57963665537E+02 -0.71956005081E+02  0.20081029866E+03  0.22104802473E+03  0.00000000000E+00 0. -1.
         -3    1    6    6    0  503  0.32188660897E+03 -0.65501293961E+03  0.21089849896E+04  0.22316968044E+04  0.00000000000E+00 0.  1.
<mgrwt>
<rscale>  0 0.22519990E+04</rscale>
<asrwt>0</asrwt>
<pdfrwt beam="1">  1        2 0.59542962E+00 0.22519990E+04</pdfrwt>
<pdfrwt beam="2">  1       -1 0.50398691E-01 0.22519990E+04</pdfrwt>
<totfact> 0.17849984E+00</totfact>
</mgrwt>
</event>
<event>
12    6  0.1494052E-007  0.2408870E+04  0.7818608E-02  0.8436190E-01
          2   -1    0    0  501    0  0.00000000000E+00  0.00000000000E+00  0.96461185881E+03  0.96461185881E+03  0.00000000000E+00 0. -1.
         -1   -1    0    0    0  501 -0.00000000000E+00 -0.00000000000E+00 -0.15038834057E+04  0.15038834057E+04  0.00000000000E+00 0.  1.
         24    2    1    2    0    0 -0.16804230188E+01  0.51005947445E+02  0.84702834031E+03  0.85184834214E+03  0.74727225470E+02 0.  0.
        254    2    1    2    0    0  0.16804230188E+01 -0.51005947445E+02 -0.13862998872E+04  0.16166469224E+04  0.83012978738E+03 0.  0.
         23    2    4    4    0    0 -0.35462782440E+03  0.14357536658E+03 -0.48985661383E+03  0.62825172879E+03  0.91465583090E+02 0.  0.
         23    2    4    4    0    0  0.35630824742E+03 -0.19458131402E+03 -0.89644327337E+03  0.98839519358E+03  0.92179506357E+02 0.  0.
          2    1    3    3  502    0 -0.31715941652E+02  0.51461482099E+02  0.56317779898E+03  0.56641276324E+03  0.00000000000E+00 0. -1.
         -1    1    3    3    0  502  0.30035518633E+02 -0.45553465402E+00  0.28385054133E+03  0.28543557890E+03  0.00000000000E+00 0.  1.
         11    1    5    5    0    0 -0.23285641857E+03  0.46464560070E+02 -0.30485005030E+03  0.38641250003E+03  0.00000000000E+00 0.  1.
        -11    1    5    5    0    0 -0.12177140583E+03  0.97110806509E+02 -0.18500656353E+03  0.24183922876E+03  0.00000000000E+00 0. -1.
          2    1    6    6  503    0  0.69493667192E+02 -0.13921034230E+02 -0.97681103569E+02  0.12068455978E+03  0.00000000000E+00 0. -1.
         -2    1    6    6    0  503  0.28681458022E+03 -0.18066027979E+03 -0.79876216980E+03  0.86771063381E+03  0.00000000000E+00 0.  1.
<mgrwt>
<rscale>  0 0.24088701E+04</rscale>
<asrwt>0</asrwt>
<pdfrwt beam="1">  1        2 0.14840183E+00 0.24088701E+04</pdfrwt>
<pdfrwt beam="2">  1       -1 0.23136668E+00 0.24088701E+04</pdfrwt>
<totfact> 0.25152920E+00</totfact>
</mgrwt>
</event>
<event>
12    6  0.1494052E-007  0.1879566E+04  0.7818608E-02  0.8665095E-01
         -1   -1    0    0    0  501 -0.00000000000E+00  0.00000000000E+00  0.53031774914E+03  0.53031774914E+03  0.00000000000E+00 0.  1.
          2   -1    0    0  501    0  0.00000000000E+00 -0.00000000000E+00 -0.16654016277E+04  0.16654016277E+04  0.00000000000E+00 0. -1.
         24    2    1    2    0    0  0.80200461856E+02  0.44846756188E+03 -0.88604023614E+03  0.99945851467E+03  0.79339487997E+02 0.  0.
        254    2    1    2    0    0 -0.80200461856E+02 -0.44846756188E+03 -0.24904364243E+03  0.11962608622E+04  0.10777114857E+04 0.  0.
         23    2    4    4    0    0 -0.12327221367E+03 -0.74379634430E+03  0.53544235935E+02  0.76163282268E+03  0.93747164893E+02 0.  0.
         23    2    4    4    0    0  0.43071751811E+02  0.29532878242E+03 -0.30258787836E+03  0.43462803950E+03  0.90927680361E+02 0.  0.
          4    1    3    3  502    0  0.70550960338E+02  0.17585315940E+03 -0.34966346237E+03  0.39770128061E+03  0.00000000000E+00 0. -1.
         -3    1    3    3    0  502  0.96495015178E+01  0.27261440248E+03 -0.53637677376E+03  0.60175723407E+03  0.00000000000E+00 0.  1.
         11    1    5    5    0    0 -0.12252723999E+03 -0.66784026299E+03  0.73889111273E+02  0.68299571168E+03  0.00000000000E+00 0.  1.
        -11    1    5    5    0    0 -0.74497367617E+00 -0.75956081316E+02 -0.20344875338E+02  0.78637111004E+02  0.00000000000E+00 0. -1.
          2    1    6    6  503    0  0.55113032112E+02  0.89179926738E+02 -0.88731084020E+02  0.13734522530E+03  0.00000000000E+00 0. -1.
         -2    1    6    6    0  503 -0.12041280301E+02  0.20614885568E+03 -0.21385679434E+03  0.29728281420E+03  0.00000000000E+00 0.  1.
<mgrwt>
<rscale>  0 0.18795660E+04</rscale>
<asrwt>0</asrwt>
<pdfrwt beam="1">  1        2 0.25621563E+00 0.18795660E+04</pdfrwt>
<pdfrwt beam="2">  1       -1 0.81587348E-01 0.18795660E+04</pdfrwt>
<totfact> 0.16384936E+01</totfact>
</mgrwt>
</event>
<event>
12    6  0.1494052E-007  0.1689966E+04  0.7818608E-02  0.8767108E-01
          2   -1    0    0  501    0  0.00000000000E+00  0.00000000000E+00  0.11047903571E+04  0.11047903571E+04  0.00000000000E+00 0. -1.
         -1   -1    0    0    0  501 -0.00000000000E+00 -0.00000000000E+00 -0.64627271953E+03  0.64627271953E+03  0.00000000000E+00 0.  1.
         24    2    1    2    0    0  0.18750229476E+02  0.53765082923E+03  0.36243827447E+03  0.65340735265E+03  0.78483631579E+02 0.  0.
        254    2    1    2    0    0 -0.18750229476E+02 -0.53765082923E+03  0.96079363113E+02  0.10976557240E+04  0.95194372688E+03 0.  0.
         23    2    4    4    0    0 -0.44823851750E+03 -0.37501770323E+03  0.18606598871E+03  0.62004196253E+03  0.90969428032E+02 0.  0.
         23    2    4    4    0    0  0.42948828802E+03 -0.16263312599E+03 -0.89986625593E+02  0.47761376147E+03  0.95433689767E+02 0.  0.
          2    1    3    3  502    0  0.22223449652E+02  0.52834434829E+03  0.36570816995E+03  0.64294952963E+03  0.00000000000E+00 0. -1.
         -1    1    3    3    0  502 -0.34732201760E+01  0.93064809381E+01 -0.32698954843E+01  0.10457823020E+02  0.00000000000E+00 0.  1.
         11    1    5    5    0    0 -0.18185845324E+03 -0.18055142201E+03  0.40135229318E+02  0.25938802909E+03  0.00000000000E+00 0.  1.
        -11    1    5    5    0    0 -0.26638006426E+03 -0.19446628122E+03  0.14593075939E+03  0.36065393344E+03  0.00000000000E+00 0. -1.
          4    1    6    6  503    0  0.24086196400E+03 -0.90616850057E+02 -0.98442985780E+02  0.27553025363E+03  0.00000000000E+00 0. -1.
         -4    1    6    6    0  503  0.18862632402E+03 -0.72016275937E+02  0.84563601865E+01  0.20208350784E+03  0.00000000000E+00 0.  1.
<mgrwt>
<rscale>  0 0.16899655E+04</rscale>
<asrwt>0</asrwt>
<pdfrwt beam="1">  1        2 0.16996775E+00 0.16899655E+04</pdfrwt>
<pdfrwt beam="2">  1       -1 0.99426572E-01 0.16899655E+04</pdfrwt>
<totfact> 0.22701167E+01</totfact>
</mgrwt>
</event>
<event>
12    6  0.1494052E-007  0.1242595E+04  0.7818608E-02  0.9076369E-01
         -1   -1    0    0    0  501 -0.00000000000E+00  0.00000000000E+00  0.29543945429E+03  0.29543945429E+03  0.00000000000E+00 0.  1.
          2   -1    0    0  501    0  0.00000000000E+00 -0.00000000000E+00 -0.13065640078E+04  0.13065640078E+04  0.00000000000E+00 0. -1.
         24    2    1    2    0    0 -0.28724283210E+03 -0.24505309970E+03 -0.16903234577E+03  0.42139869255E+03  0.80283609183E+02 0.  0.
        254    2    1    2    0    0  0.28724283210E+03  0.24505309970E+03 -0.84209220773E+03  0.11806047695E+04  0.73630759146E+03 0.  0.
         23    2    4    4    0    0  0.31163936445E+03 -0.18997824270E+03 -0.30473566119E+03  0.48275237552E+03  0.83517702874E+02 0.  0.
         23    2    4    4    0    0 -0.24396532355E+02  0.43503134240E+03 -0.53735654654E+03  0.69785239401E+03  0.91643036037E+02 0.  0.
          2    1    3    3  502    0 -0.16727370701E+02  0.46252205139E+01 -0.12423656616E+02  0.21343496412E+02  0.00000000000E+00 0. -1.
         -1    1    3    3    0  502 -0.27051546139E+03 -0.24967832022E+03 -0.15660868915E+03  0.40005519614E+03  0.00000000000E+00 0.  1.
         11    1    5    5    0    0  0.74000167882E+02 -0.66892726823E+01 -0.60727956371E+02  0.95961741859E+02  0.00000000000E+00 0.  1.
        -11    1    5    5    0    0  0.23763919657E+03 -0.18328897002E+03 -0.24400770482E+03  0.38679063366E+03  0.00000000000E+00 0. -1.
          3    1    6    6  503    0  0.18075038670E+02  0.23492930718E+02 -0.21676637309E+02  0.36721947411E+02  0.00000000000E+00 0.  1.
         -3    1    6    6    0  503 -0.42471571024E+02  0.41153841168E+03 -0.51567990923E+03  0.66113044660E+03  0.00000000000E+00 0. -1.
<mgrwt>
<rscale>  0 0.12425950E+04</rscale>
<asrwt>0</asrwt>
<pdfrwt beam="1">  1        2 0.20100985E+00 0.12425950E+04</pdfrwt>
<pdfrwt beam="2">  1       -1 0.45452223E-01 0.12425950E+04</pdfrwt>
<totfact> 0.88299849E+01</totfact>
</mgrwt>
</event>
<event>
12    6  0.1494052E-007  0.2793382E+04  0.7818608E-02  0.8305326E-01
          2   -1    0    0  501    0  0.00000000000E+00  0.00000000000E+00  0.14191736969E+04  0.14191736969E+04  0.00000000000E+00 0. -1.
         -1   -1    0    0    0  501 -0.00000000000E+00 -0.00000000000E+00 -0.13745646814E+04  0.13745646814E+04  0.00000000000E+00 0.  1.
         24    2    1    2    0    0  0.86525350114E+03 -0.22045940438E+03 -0.84754926887E+03  0.12336371342E+04  0.79087581311E+02 0.  0.
        254    2    1    2    0    0 -0.86525350114E+03  0.22045940438E+03  0.89215828443E+03  0.15601012441E+04  0.91689885876E+03 0.  0.
         23    2    4    4    0    0 -0.43608577258E+03 -0.34519987829E+03  0.36627177420E+03  0.67184154184E+03  0.88782249074E+02 0.  0.
         23    2    4    4    0    0 -0.42916772856E+03  0.56565928268E+03  0.52588651024E+03  0.88825970228E+03  0.91067632710E+02 0.  0.
          4    1    3    3  502    0  0.29813785559E+02 -0.16325310770E+02 -0.51767838304E+02  0.61929691294E+02  0.00000000000E+00 0. -1.
         -3    1    3    3    0  502  0.83543971558E+03 -0.20413409361E+03 -0.79578143056E+03  0.11717074429E+04  0.00000000000E+00 0.  1.
         11    1    5    5    0    0 -0.22648665174E+03 -0.14857790600E+03  0.13335223288E+03  0.30191789544E+03  0.00000000000E+00 0.  1.
        -11    1    5    5    0    0 -0.20959912083E+03 -0.19662197229E+03  0.23291954132E+03  0.36992364640E+03  0.00000000000E+00 0. -1.
          2    1    6    6  503    0 -0.36134993589E+03  0.43293409682E+03  0.38224081254E+03  0.68125894278E+03  0.00000000000E+00 0. -1.
         -2    1    6    6    0  503 -0.67817792676E+02  0.13272518586E+03  0.14364569770E+03  0.20700075950E+03  0.00000000000E+00 0.  1.
<mgrwt>
<rscale>  0 0.27933822E+04</rscale>
<asrwt>0</asrwt>
<pdfrwt beam="1">  1        2 0.21833442E+00 0.27933822E+04</pdfrwt>
<pdfrwt beam="2">  1       -1 0.21147149E+00 0.27933822E+04</pdfrwt>
<totfact> 0.17578320E+00</totfact>
</mgrwt>
</event>
<event>
12    6  0.1494052E-007  0.1673612E+04  0.7818608E-02  0.8776559E-01
         -1   -1    0    0    0  501 -0.00000000000E+00  0.00000000000E+00  0.31131214184E+03  0.31131214184E+03  0.00000000000E+00 0.  1.
          2   -1    0    0  501    0  0.00000000000E+00 -0.00000000000E+00 -0.22493319165E+04  0.22493319165E+04  0.00000000000E+00 0. -1.
         24    2    1    2    0    0  0.93347856497E+02  0.57737952842E+03 -0.55253059971E+03  0.80867689416E+03  0.81162265776E+02 0.  0.
        254    2    1    2    0    0 -0.93347856497E+02 -0.57737952842E+03 -0.13854891749E+04  0.17519671641E+04  0.89873675139E+03 0.  0.
         23    2    4    4    0    0 -0.27686735356E+03 -0.68145104044E+03 -0.66882718180E+03  0.99887248244E+03  0.96878197149E+02 0.  0.
         23    2    4    4    0    0  0.18351949706E+03  0.10407151202E+03 -0.71666199311E+03  0.75309468170E+03  0.95062620522E+02 0.  0.
          4    1    3    3  502    0  0.42603572504E+01  0.81148014354E+02 -0.43246810682E+02  0.92051276535E+02  0.00000000000E+00 0. -1.
         -1    1    3    3    0  502  0.89087499247E+02  0.49623151406E+03 -0.50928378903E+03  0.71662561763E+03  0.00000000000E+00 0.  1.
         11    1    5    5    0    0 -0.86394357765E+02 -0.33185547940E+03 -0.33362903966E+03  0.47843534606E+03  0.00000000000E+00 0. -1.
        -11    1    5    5    0    0 -0.19047299579E+03 -0.34959556104E+03 -0.33519814215E+03  0.52043713638E+03  0.00000000000E+00 0.  1.
          3    1    6    6  503    0  0.47301888679E+02 -0.14049841888E+02 -0.19528989905E+03  0.20142743458E+03  0.00000000000E+00 0. -1.
         -3    1    6    6    0  503  0.13621760838E+03  0.11812135391E+03 -0.52137209406E+03  0.55166724712E+03  0.00000000000E+00 0.  1.
<mgrwt>
<rscale>  0 0.16736121E+04</rscale>
<asrwt>0</asrwt>
<pdfrwt beam="1">  1        2 0.34605107E+00 0.16736121E+04</pdfrwt>
<pdfrwt beam="2">  1       -1 0.47894175E-01 0.16736121E+04</pdfrwt>
<totfact> 0.22924619E+01</totfact>
</mgrwt>
</event>
<event>
12    6  0.1494052E-007  0.2812290E+04  0.7818608E-02  0.8299463E-01
          2   -1    0    0  501    0  0.00000000000E+00  0.00000000000E+00  0.46162495389E+03  0.46162495389E+03  0.00000000000E+00 0. -1.
         -1   -1    0    0    0  501 -0.00000000000E+00 -0.00000000000E+00 -0.42832263842E+04  0.42832263842E+04  0.00000000000E+00 0.  1.
         24    2    1    2    0    0 -0.80906777345E+03 -0.67781878618E+03 -0.55700725971E+03  0.11958868322E+04  0.76545797787E+02 0.  0.
        254    2    1    2    0    0  0.80906777345E+03  0.67781878618E+03 -0.32645941706E+04  0.35489645059E+04  0.90749379963E+03 0.  0.
         23    2    4    4    0    0  0.40066244708E+03  0.83728383960E+03 -0.19872262938E+04  0.21952373864E+04  0.91783525275E+02 0.  0.
         23    2    4    4    0    0  0.40840532637E+03 -0.15946505342E+03 -0.12773678768E+04  0.13537271195E+04  0.93190167716E+02 0.  0.
          4    1    3    3  502    0 -0.53203866673E+01 -0.12815952564E+02 -0.13498746830E+01  0.13941926555E+02  0.00000000000E+00 0. -1.
         -3    1    3    3    0  502 -0.80374738678E+03 -0.66500283362E+03 -0.55565738503E+03  0.11819449057E+04  0.00000000000E+00 0.  1.
         11    1    5    5    0    0  0.93586053407E+02  0.17164467534E+03 -0.33870285321E+03  0.39107526991E+03  0.00000000000E+00 0.  1.
        -11    1    5    5    0    0  0.30707639367E+03  0.66563916426E+03 -0.16485234406E+04  0.18041621165E+04  0.00000000000E+00 0. -1.
          4    1    6    6  503    0  0.27523701193E+03 -0.77869290364E+02 -0.71551715236E+03  0.77057370474E+03  0.00000000000E+00 0. -1.
         -4    1    6    6    0  503  0.13316831443E+03 -0.81595763052E+02 -0.56185072449E+03  0.58315341474E+03  0.00000000000E+00 0.  1.
<mgrwt>
<rscale>  0 0.28122903E+04</rscale>
<asrwt>0</asrwt>
<pdfrwt beam="1">  1        2 0.71019226E-01 0.28122903E+04</pdfrwt>
<pdfrwt beam="2">  1       -1 0.65895789E+00 0.28122903E+04</pdfrwt>
<totfact> 0.18098367E-02</totfact>
</mgrwt>
</event>
<event>
12    6  0.1494052E-007  0.2281824E+04  0.7818608E-02  0.8485122E-01
         -1   -1    0    0    0  501 -0.00000000000E+00  0.00000000000E+00  0.11908732403E+04  0.11908732403E+04  0.00000000000E+00 0.  1.
          2   -1    0    0  501    0  0.00000000000E+00 -0.00000000000E+00 -0.10930465618E+04  0.10930465618E+04  0.00000000000E+00 0. -1.
         24    2    1    2    0    0  0.62421872375E+03 -0.41571258891E+03  0.66101836443E+03  0.10029270028E+04  0.80320129201E+02 0.  0.
        254    2    1    2    0    0 -0.62421872375E+03  0.41571258891E+03 -0.56319168589E+03  0.12809927994E+04  0.87252031800E+03 0.  0.
         23    2    4    4    0    0  0.17422663061E+03  0.88570685145E+02 -0.30891476822E+03  0.37669274525E+03  0.90936270071E+02 0.  0.
         23    2    4    4    0    0 -0.79844535436E+03  0.32714190376E+03 -0.25427691766E+03  0.90430005412E+03  0.92547436089E+02 0.  0.
          2    1    3    3  502    0  0.66979260622E+02 -0.74660708804E+02  0.10243647542E+03  0.14336552685E+03  0.00000000000E+00 0. -1.
         -1    1    3    3    0  502  0.55723946313E+03 -0.34105188010E+03  0.55858188901E+03  0.85956147594E+03  0.00000000000E+00 0.  1.
         11    1    5    5    0    0  0.15844748872E+03  0.10306424067E+03 -0.24601328335E+03  0.31024245353E+03  0.00000000000E+00 0. -1.
        -11    1    5    5    0    0  0.15779141891E+02 -0.14493555522E+02 -0.62901484872E+02  0.66450291720E+02  0.00000000000E+00 0.  1.
          3    1    6    6  503    0 -0.35670453559E+03  0.14276183184E+03 -0.65556455364E+02  0.38976494863E+03  0.00000000000E+00 0. -1.
         -3    1    6    6    0  503 -0.44174081877E+03  0.18438007192E+03 -0.18872046230E+03  0.51453510549E+03  0.00000000000E+00 0.  1.
<mgrwt>
<rscale>  0 0.22818237E+04</rscale>
<asrwt>0</asrwt>
<pdfrwt beam="1">  1        2 0.16816101E+00 0.22818237E+04</pdfrwt>
<pdfrwt beam="2">  1       -1 0.18321127E+00 0.22818237E+04</pdfrwt>
<totfact> 0.44958318E+00</totfact>
</mgrwt>
</event>
<event>
12    6  0.1494052E-007  0.1175473E+04  0.7818608E-02  0.9134600E-01
         -1   -1    0    0    0  501 -0.00000000000E+00  0.00000000000E+00  0.14021512985E+03  0.14021512985E+03  0.00000000000E+00 0.  1.
          2   -1    0    0  501    0  0.00000000000E+00 -0.00000000000E+00 -0.24636021501E+04  0.24636021501E+04  0.00000000000E+00 0. -1.
         24    2    1    2    0    0 -0.20092480323E+03  0.10526931592E+03 -0.73696536057E+03  0.77423864223E+03  0.69822109822E+02 0.  0.
        254    2    1    2    0    0  0.20092480323E+03 -0.10526931592E+03 -0.15864216597E+04  0.18295786377E+04  0.88270714502E+03 0.  0.
         23    2    4    4    0    0 -0.32056562648E+03 -0.14495238119E+03 -0.82180224284E+03  0.89857399355E+03  0.91119601889E+02 0.  0.
         23    2    4    4    0    0  0.52149042971E+03  0.39683065266E+02 -0.76461941687E+03  0.93100464420E+03  0.92735003736E+02 0.  0.
          2    1    3    3  502    0 -0.16613941056E+03  0.10517421519E+03 -0.67632991199E+03  0.70433377680E+03  0.00000000000E+00 0. -1.
         -1    1    3    3    0  502 -0.34785392673E+02  0.95100733200E-01 -0.60635448575E+02  0.69904865435E+02  0.00000000000E+00 0.  1.
         11    1    5    5    0    0 -0.20709668241E+03 -0.10228521150E+03 -0.42556533740E+03  0.48420776197E+03  0.00000000000E+00 0. -1.
        -11    1    5    5    0    0 -0.11346894407E+03 -0.42667169690E+02 -0.39623690544E+03  0.41436623158E+03  0.00000000000E+00 0.  1.
          4    1    6    6  503    0  0.24085861590E+03 -0.37567220034E+01 -0.42288018614E+03  0.48667713902E+03  0.00000000000E+00 0. -1.
         -4    1    6    6    0  503  0.28063181381E+03  0.43439787270E+02 -0.34173923073E+03  0.44432750518E+03  0.00000000000E+00 0.  1.
<mgrwt>
<rscale>  0 0.11754732E+04</rscale>
<asrwt>0</asrwt>
<pdfrwt beam="1">  1        2 0.37901573E+00 0.11754732E+04</pdfrwt>
<pdfrwt beam="2">  1       -1 0.21571558E-01 0.11754732E+04</pdfrwt>
<totfact> 0.74557703E+01</totfact>
</mgrwt>
</event>
<event>
12    6  0.1494052E-007  0.2081715E+04  0.7818608E-02  0.8569341E-01
          2   -1    0    0  501    0  0.00000000000E+00  0.00000000000E+00  0.14748988082E+04  0.14748988082E+04  0.00000000000E+00 0. -1.
         -1   -1    0    0    0  501 -0.00000000000E+00 -0.00000000000E+00 -0.73454803162E+03  0.73454803162E+03  0.00000000000E+00 0.  1.
         24    2    1    2    0    0  0.34503116540E+03  0.36388767131E+03  0.10198434669E+04  0.11392830242E+04  0.80152166188E+02 0.  0.
        254    2    1    2    0    0 -0.34503116540E+03 -0.36388767131E+03 -0.27949269031E+03  0.10701638157E+04  0.90314654736E+03 0.  0.
         23    2    4    4    0    0  0.12711692376E+03 -0.34570340987E+03  0.16593063748E+03  0.41398996808E+03  0.90471859224E+02 0.  0.
         23    2    4    4    0    0 -0.47214808916E+03 -0.18184261439E+02 -0.44542332778E+03  0.65617384759E+03  0.94380569297E+02 0.  0.
          2    1    3    3  502    0  0.33453884867E+03  0.33269177988E+03  0.91628839089E+03  0.10306233439E+04  0.00000000000E+00 0. -1.
         -1    1    3    3    0  502  0.10492316726E+02  0.31195891434E+02  0.10355507600E+03  0.10865968028E+03  0.00000000000E+00 0.  1.
         11    1    5    5    0    0  0.11058529927E+02 -0.92670291677E+02  0.73654867759E+01  0.93617970706E+02  0.00000000000E+00 0.  1.
        -11    1    5    5    0    0  0.11605839384E+03 -0.25303311820E+03  0.15856515070E+03  0.32037199737E+03  0.00000000000E+00 0. -1.
          1    1    6    6  503    0 -0.41255225563E+03  0.16441315244E+02 -0.37921632998E+03  0.56060209186E+03  0.00000000000E+00 0. -1.
         -1    1    6    6    0  503 -0.59595833530E+02 -0.34625576683E+02 -0.66206997805E+02  0.95571755729E+02  0.00000000000E+00 0.  1.
<mgrwt>
<rscale>  0 0.20817147E+04</rscale>
<asrwt>0</asrwt>
<pdfrwt beam="1">  1        2 0.22690751E+00 0.20817147E+04</pdfrwt>
<pdfrwt beam="2">  1       -1 0.11300739E+00 0.20817147E+04</pdfrwt>
<totfact> 0.98722268E+00</totfact>
</mgrwt>
</event>
<event>
12    6  0.1494052E-007  0.2927656E+04  0.7818608E-02  0.8264696E-01
         -1   -1    0    0    0  501 -0.00000000000E+00  0.00000000000E+00  0.10228077577E+04  0.10228077577E+04  0.00000000000E+00 0.  1.
          2   -1    0    0  501    0  0.00000000000E+00 -0.00000000000E+00 -0.20950096180E+04  0.20950096180E+04  0.00000000000E+00 0. -1.
         24    2    1    2    0    0 -0.25232092970E+03 -0.21200535750E+03 -0.18498809846E+04  0.18806217385E+04  0.77886732368E+02 0.  0.
        254    2    1    2    0    0  0.25232092970E+03  0.21200535750E+03  0.77767912419E+03  0.12371956372E+04  0.90402217969E+03 0.  0.
         23    2    4    4    0    0  0.25607064926E+03 -0.17747222946E+03  0.77197719146E+03  0.83723966289E+03  0.89179029676E+02 0.  0.
         23    2    4    4    0    0 -0.37497195542E+01  0.38947758696E+03  0.57019327299E+01  0.39995597433E+03  0.90694091486E+02 0.  0.
          4    1    3    3  502    0 -0.16646473851E+03 -0.90065876702E+02 -0.10697430899E+04  0.10863575147E+04  0.00000000000E+00 0. -1.
         -3    1    3    3    0  502 -0.85856191191E+02 -0.12193948080E+03 -0.78013789466E+03  0.79426422381E+03  0.00000000000E+00 0.  1.
         11    1    5    5    0    0  0.13207276438E+03 -0.72775418477E+02  0.48078082694E+03  0.50387466713E+03  0.00000000000E+00 0.  1.
        -11    1    5    5    0    0  0.12399788488E+03 -0.10469681098E+03  0.29119636452E+03  0.33336499576E+03  0.00000000000E+00 0. -1.
          3    1    6    6  503    0  0.37748149743E+02  0.21353086988E+03  0.24432887308E+02  0.21821393443E+03  0.00000000000E+00 0. -1.
         -3    1    6    6    0  503 -0.41497869297E+02  0.17594671708E+03 -0.18730954578E+02  0.18174203990E+03  0.00000000000E+00 0.  1.
<mgrwt>
<rscale>  0 0.29276558E+04</rscale>
<asrwt>0</asrwt>
<pdfrwt beam="1">  1        2 0.32230917E+00 0.29276558E+04</pdfrwt>
<pdfrwt beam="2">  1       -1 0.15735504E+00 0.29276558E+04</pdfrwt>
<totfact> 0.17729211E+00</totfact>
</mgrwt>
</event>
<event>
12    6  0.1494052E-007  0.1874833E+04  0.7818608E-02  0.8667486E-01
          2   -1    0    0  501    0  0.00000000000E+00  0.00000000000E+00  0.25942353903E+04  0.25942353903E+04  0.00000000000E+00 0. -1.
         -1   -1    0    0    0  501 -0.00000000000E+00 -0.00000000000E+00 -0.33873154870E+03  0.33873154870E+03  0.00000000000E+00 0.  1.
         24    2    1    2    0    0 -0.70683061493E+03 -0.19178454858E+02  0.10665062225E+04  0.12820800035E+04  0.79475035342E+02 0.  0.
        254    2    1    2    0    0  0.70683061493E+03  0.19178454858E+02  0.11889976191E+04  0.16508869355E+04  0.90096337576E+03 0.  0.
         23    2    4    4    0    0  0.73638272815E+03 -0.71495084910E+02  0.12861187300E+04  0.14868544634E+04  0.96248314771E+02 0.  0.
         23    2    4    4    0    0 -0.29552113217E+02  0.90673539768E+02 -0.97121110911E+02  0.16403247219E+03  0.91537552618E+02 0.  0.
          4    1    3    3  502    0 -0.89777469666E+02 -0.43923681593E+01  0.18844141546E+03  0.20878087560E+03  0.00000000000E+00 0. -1.
         -3    1    3    3    0  502 -0.61705314526E+03 -0.14786086699E+02  0.87806480708E+03  0.10732991279E+04  0.00000000000E+00 0.  1.
         11    1    5    5    0    0  0.57655126549E+03 -0.88584881033E+02  0.96124087012E+03  0.11243854558E+04  0.00000000000E+00 0. -1.
        -11    1    5    5    0    0  0.15983146266E+03  0.17089796123E+02  0.32487785987E+03  0.36246900753E+03  0.00000000000E+00 0.  1.
          3    1    6    6  503    0  0.20470251384E+02  0.77401107641E+02 -0.64955466347E+02  0.10309789166E+03  0.00000000000E+00 0. -1.
         -3    1    6    6    0  503 -0.50022364600E+02  0.13272432127E+02 -0.32165644564E+02  0.60934580535E+02  0.00000000000E+00 0.  1.
<mgrwt>
<rscale>  0 0.18748327E+04</rscale>
<asrwt>0</asrwt>
<pdfrwt beam="1">  1        2 0.39911312E+00 0.18748327E+04</pdfrwt>
<pdfrwt beam="2">  1       -1 0.52112548E-01 0.18748327E+04</pdfrwt>
<totfact> 0.12166023E+01</totfact>
</mgrwt>
</event>
<event>
12    6  0.1494052E-007  0.1369680E+04  0.7818608E-02  0.8976063E-01
          2   -1    0    0  501    0  0.00000000000E+00  0.00000000000E+00  0.11450343275E+04  0.11450343275E+04  0.00000000000E+00 0. -1.
         -1   -1    0    0    0  501 -0.00000000000E+00 -0.00000000000E+00 -0.40959968783E+03  0.40959968783E+03  0.00000000000E+00 0.  1.
         24    2    1    2    0    0  0.33498700673E+02 -0.22049147251E+03  0.58337683541E+03  0.62952392819E+03  0.78950564743E+02 0.  0.
        254    2    1    2    0    0 -0.33498700673E+02  0.22049147251E+03  0.15205780429E+03  0.92511008717E+03  0.88485504188E+03 0.  0.
         23    2    4    4    0    0  0.20632907232E+03 -0.26713090390E+03  0.12987751236E+03  0.37356516181E+03  0.93552958253E+02 0.  0.
         23    2    4    4    0    0 -0.23982777299E+03  0.48762237642E+03  0.22180291925E+02  0.55154492536E+03  0.91743646393E+02 0.  0.
          2    1    3    3  502    0  0.29470267051E+02 -0.12522749768E+03  0.43084829370E+03  0.44964505446E+03  0.00000000000E+00 0. -1.
         -1    1    3    3    0  502  0.40284336216E+01 -0.95263974834E+02  0.15252854171E+03  0.17987887373E+03  0.00000000000E+00 0.  1.
         11    1    5    5    0    0  0.15781483221E+03 -0.17284798258E+03  0.46387759918E+02  0.23860798523E+03  0.00000000000E+00 0. -1.
        -11    1    5    5    0    0  0.48514240110E+02 -0.94282921330E+02  0.83489752445E+02  0.13495717658E+03  0.00000000000E+00 0.  1.
          1    1    6    6  503    0 -0.14827576540E+03  0.26599130957E+03  0.55187789198E+02  0.30948791810E+03  0.00000000000E+00 0. -1.
         -1    1    6    6    0  503 -0.91552007591E+02  0.22163106685E+03 -0.33007497273E+02  0.24205700726E+03  0.00000000000E+00 0.  1.
<mgrwt>
<rscale>  0 0.13696798E+04</rscale>
<asrwt>0</asrwt>
<pdfrwt beam="1">  1        2 0.17615913E+00 0.13696798E+04</pdfrwt>
<pdfrwt beam="2">  1       -1 0.63015337E-01 0.13696798E+04</pdfrwt>
<totfact> 0.58085407E+01</totfact>
</mgrwt>
</event>
<event>
12    6  0.1494052E-007  0.1826192E+04  0.7818608E-02  0.8692493E-01
          2   -1    0    0  501    0  0.00000000000E+00  0.00000000000E+00  0.99946596739E+03  0.99946596739E+03  0.00000000000E+00 0. -1.
         -1   -1    0    0    0  501 -0.00000000000E+00 -0.00000000000E+00 -0.83418991888E+03  0.83418991888E+03  0.00000000000E+00 0.  1.
         24    2    1    2    0    0  0.52191024231E+03  0.30948822166E+03 -0.16422020174E+03  0.63357690640E+03  0.79234848974E+02 0.  0.
        254    2    1    2    0    0 -0.52191024231E+03 -0.30948822166E+03  0.32949625025E+03  0.12000789799E+04  0.98155413433E+03 0.  0.
         23    2    4    4    0    0 -0.25955528680E+03 -0.65446290207E+03  0.23579327899E+03  0.74756198221E+03  0.86947166380E+02 0.  0.
         23    2    4    4    0    0 -0.26235495551E+03  0.34497468041E+03  0.93702971256E+02  0.45251699765E+03  0.90298026254E+02 0.  0.
          2    1    3    3  502    0  0.15557635341E+03  0.10413885168E+03 -0.14695587991E+02  0.18778940992E+03  0.00000000000E+00 0. -1.
         -1    1    3    3    0  502  0.36633388889E+03  0.20534936998E+03 -0.14952461375E+03  0.44578749648E+03  0.00000000000E+00 0.  1.
         11    1    5    5    0    0 -0.83403975393E+02 -0.27598218141E+03  0.59423646932E+02  0.29436976302E+03  0.00000000000E+00 0.  1.
        -11    1    5    5    0    0 -0.17615131141E+03 -0.37848072065E+03  0.17636963206E+03  0.45319221919E+03  0.00000000000E+00 0. -1.
          3    1    6    6  503    0 -0.12695301384E+02  0.67371578367E+01 -0.12348716453E+02  0.18948635069E+02  0.00000000000E+00 0. -1.
         -3    1    6    6    0  503 -0.24965965412E+03  0.33823752257E+03  0.10605168771E+03  0.43356836259E+03  0.00000000000E+00 0.  1.
<mgrwt>
<rscale>  0 0.18261921E+04</rscale>
<asrwt>0</asrwt>
<pdfrwt beam="1">  1        2 0.15376399E+00 0.18261921E+04</pdfrwt>
<pdfrwt beam="2">  1       -1 0.12833691E+00 0.18261921E+04</pdfrwt>
<totfact> 0.14195834E+01</totfact>
</mgrwt>
</event>
<event>
12    6  0.1884235E-007  0.2220948E+04  0.7818608E-02  0.8509759E-01
          2   -1    0    0  501    0  0.00000000000E+00  0.00000000000E+00  0.22833704009E+04  0.22833704009E+04  0.00000000000E+00 0. -1.
         -1   -1    0    0    0  501 -0.00000000000E+00 -0.00000000000E+00 -0.54005815257E+03  0.54005815257E+03  0.00000000000E+00 0.  1.
         24    2    1    2    0    0  0.14179295431E+03 -0.19156642072E+03 -0.40809236255E+03  0.47899779913E+03  0.78080597878E+02 0.  0.
        254    2    1    2    0    0 -0.14179295431E+03  0.19156642072E+03  0.21514046109E+04  0.23444307543E+04  0.90056139534E+03 0.  0.
         23    2    4    4    0    0 -0.25622456102E+03  0.41713884317E+03  0.64650832867E+03  0.81578384510E+03  0.88737944198E+02 0.  0.
         23    2    4    4    0    0  0.11443160671E+03 -0.22557242246E+03  0.15048962822E+04  0.15286469092E+04  0.89838981200E+02 0.  0.
          4    1    3    3  502    0  0.19100207288E+02 -0.11490978351E+02 -0.85014904482E+01  0.23856568105E+02  0.00000000000E+00 0. -1.
         -3    1    3    3    0  502  0.12269274702E+03 -0.18007544237E+03 -0.39959087210E+03  0.45514123103E+03  0.00000000000E+00 0.  1.
         11    1    5    5    0    0 -0.25364704495E+03  0.42071549511E+03  0.63115063605E+03  0.79980589935E+03  0.00000000000E+00 0.  1.
        -11    1    5    5    0    0 -0.25775160633E+01 -0.35766519360E+01  0.15357692615E+02  0.15977945757E+02  0.00000000000E+00 0. -1.
          2    1    6    6  503    0  0.24699076675E+02 -0.10608910938E+01  0.20196946374E+03  0.20347686394E+03  0.00000000000E+00 0. -1.
         -2    1    6    6    0  503  0.89732530037E+02 -0.22451153136E+03  0.13029268185E+04  0.13251700453E+04  0.00000000000E+00 0.  1.
<mgrwt>
<rscale>  0 0.22209483E+04</rscale>
<asrwt>0</asrwt>
<pdfrwt beam="1">  1        2 0.35128775E+00 0.22209483E+04</pdfrwt>
<pdfrwt beam="2">  1       -1 0.83085871E-01 0.22209483E+04</pdfrwt>
<totfact> 0.69189940E+00</totfact>
</mgrwt>
</event>
<event>
12    6  0.1494052E-007  0.1193915E+04  0.7818608E-02  0.9118200E-01
          2   -1    0    0  501    0  0.00000000000E+00  0.00000000000E+00  0.31290530206E+04  0.31290530206E+04  0.00000000000E+00 0. -1.
         -1   -1    0    0    0  501 -0.00000000000E+00 -0.00000000000E+00 -0.11388686379E+03  0.11388686379E+03  0.00000000000E+00 0.  1.
         24    2    1    2    0    0 -0.93896308758E+02 -0.23653820641E+03  0.52709750302E+03  0.59069359052E+03  0.79500316397E+02 0.  0.
        254    2    1    2    0    0  0.93896308758E+02  0.23653820641E+03  0.24880686538E+04  0.26522462939E+04  0.88269923384E+03 0.  0.
         23    2    4    4    0    0  0.36035462811E+03  0.35300469544E+03  0.20817057389E+04  0.21439597368E+04  0.92718912423E+02 0.  0.
         23    2    4    4    0    0 -0.26645831935E+03 -0.11646648903E+03  0.40636291494E+03  0.50828655709E+03  0.93058725872E+02 0.  0.
          4    1    3    3  502    0 -0.10544333070E+01  0.20503769591E+01 -0.19087588828E+01  0.29931982470E+01  0.00000000000E+00 0. -1.
         -3    1    3    3    0  502 -0.92841875451E+02 -0.23858858337E+03  0.52900626190E+03  0.58770039228E+03  0.00000000000E+00 0.  1.
         11    1    5    5    0    0  0.28881192346E+03  0.27530396322E+03  0.14693400946E+04  0.15225521052E+04  0.00000000000E+00 0. -1.
        -11    1    5    5    0    0  0.71542704645E+02  0.77700732218E+02  0.61236564423E+03  0.62140763160E+03  0.00000000000E+00 0.  1.
          4    1    6    6  503    0 -0.26132904074E+03 -0.10734196622E+03  0.40937329391E+03  0.49739487232E+03  0.00000000000E+00 0. -1.
         -4    1    6    6    0  503 -0.51292786137E+01 -0.91245228088E+01 -0.30103789683E+01  0.10891684770E+02  0.00000000000E+00 0.  1.
<mgrwt>
<rscale>  0 0.11939146E+04</rscale>
<asrwt>0</asrwt>
<pdfrwt beam="1">  1        2 0.48139271E+00 0.11939146E+04</pdfrwt>
<pdfrwt beam="2">  1       -1 0.17521058E-01 0.11939146E+04</pdfrwt>
<totfact> 0.42050518E+01</totfact>
</mgrwt>
</event>
<event>
12    6  0.1494052E-007  0.2141825E+04  0.7818608E-02  0.8543040E-01
         -1   -1    0    0    0  501 -0.00000000000E+00  0.00000000000E+00  0.63910299709E+03  0.63910299709E+03  0.00000000000E+00 0.  1.
          2   -1    0    0  501    0  0.00000000000E+00 -0.00000000000E+00 -0.17944731982E+04  0.17944731982E+04  0.00000000000E+00 0. -1.
         24    2    1    2    0    0 -0.49263287019E+03  0.46233924040E+03 -0.11244705694E+04  0.13143923972E+04  0.82149828835E+02 0.  0.
        254    2    1    2    0    0  0.49263287019E+03 -0.46233924040E+03 -0.30899631752E+02  0.11191837981E+04  0.89172465971E+03 0.  0.
         23    2    4    4    0    0  0.13371578024E+03 -0.62800214280E+03  0.16583313151E+03  0.66955588260E+03  0.92400493345E+02 0.  0.
         23    2    4    4    0    0  0.35891708995E+03  0.16566290240E+03 -0.19673276327E+03  0.44962791552E+03  0.84828106092E+02 0.  0.
          4    1    3    3  502    0 -0.35171771002E+03  0.29428932690E+03 -0.81361290354E+03  0.93395798208E+03  0.00000000000E+00 0. -1.
         -3    1    3    3    0  502 -0.14091516016E+03  0.16804991349E+03 -0.31085766583E+03  0.38043441511E+03  0.00000000000E+00 0.  1.
         11    1    5    5    0    0  0.33199811562E+02 -0.72538836379E+02 -0.45862045527E+01  0.79907093197E+02  0.00000000000E+00 0. -1.
        -11    1    5    5    0    0  0.10051596867E+03 -0.55546330642E+03  0.17041933607E+03  0.58964878940E+03  0.00000000000E+00 0.  1.
          4    1    6    6  503    0  0.62612805682E+02  0.24995150902E+01 -0.53109958637E+02  0.82141820758E+02  0.00000000000E+00 0.  1.
         -4    1    6    6    0  503  0.29630428427E+03  0.16316338731E+03 -0.14362280463E+03  0.36748609477E+03  0.00000000000E+00 0. -1.
<mgrwt>
<rscale>  0 0.21418246E+04</rscale>
<asrwt>0</asrwt>
<pdfrwt beam="1">  1        2 0.27607279E+00 0.21418246E+04</pdfrwt>
<pdfrwt beam="2">  1       -1 0.98323540E-01 0.21418246E+04</pdfrwt>
<totfact> 0.90018135E+00</totfact>
</mgrwt>
</event>
<event>
12    6  0.1494052E-007  0.1470717E+04  0.7818608E-02  0.8904163E-01
          2   -1    0    0  501    0  0.00000000000E+00  0.00000000000E+00  0.59023851067E+03  0.59023851067E+03  0.00000000000E+00 0. -1.
         -1   -1    0    0    0  501 -0.00000000000E+00 -0.00000000000E+00 -0.91615816481E+03  0.91615816481E+03  0.00000000000E+00 0.  1.
         24    2    1    2    0    0 -0.43093311003E+03  0.66091576764E+02 -0.28165068236E+03  0.52613813668E+03  0.86155615944E+02 0.  0.
        254    2    1    2    0    0  0.43093311003E+03 -0.66091576764E+02 -0.44268971774E+02  0.98025853879E+03  0.87685552925E+03 0.  0.
         23    2    4    4    0    0  0.94520292479E+02  0.93417034971E+02 -0.41621664176E+03  0.44646050196E+03  0.91814262626E+02 0.  0.
         23    2    4    4    0    0  0.33641281755E+03 -0.15950861173E+03  0.37194766998E+03  0.53379803683E+03  0.89323534918E+02 0.  0.
          4    1    3    3  502    0 -0.10829110668E+02 -0.12999120917E+02 -0.10827503964E+02  0.20086852033E+02  0.00000000000E+00 0. -1.
         -3    1    3    3    0  502 -0.42010399936E+03  0.79090697681E+02 -0.27082317840E+03  0.50605128465E+03  0.00000000000E+00 0.  1.
         11    1    5    5    0    0  0.20322058982E+02  0.58434263148E+02 -0.84352882821E+02  0.10460859444E+03  0.00000000000E+00 0. -1.
        -11    1    5    5    0    0  0.74198233497E+02  0.34982771823E+02 -0.33186375894E+03  0.34185190752E+03  0.00000000000E+00 0.  1.
          2    1    6    6  503    0  0.23896802431E+03 -0.88575933170E+02  0.29915164838E+03  0.39299252068E+03  0.00000000000E+00 0. -1.
         -2    1    6    6    0  503  0.97444793244E+02 -0.70932678564E+02  0.72796021597E+02  0.14080551615E+03  0.00000000000E+00 0.  1.
<mgrwt>
<rscale>  0 0.14707166E+04</rscale>
<asrwt>0</asrwt>
<pdfrwt beam="1">  1        2 0.90805925E-01 0.14707166E+04</pdfrwt>
<pdfrwt beam="2">  1       -1 0.14094741E+00 0.14707166E+04</pdfrwt>
<totfact> 0.23056619E+01</totfact>
</mgrwt>
</event>
<event>
12    6  0.1494052E-007  0.1441871E+04  0.7818608E-02  0.8924055E-01
          2   -1    0    0  501    0  0.00000000000E+00  0.00000000000E+00  0.11833048322E+04  0.11833048322E+04  0.00000000000E+00 0. -1.
         -1   -1    0    0    0  501 -0.00000000000E+00 -0.00000000000E+00 -0.43923447333E+03  0.43923447333E+03  0.00000000000E+00 0.  1.
         24    2    1    2    0    0  0.39898603040E+03 -0.11280898202E+03  0.32619648767E+03  0.53342580160E+03  0.78887377741E+02 0.  0.
        254    2    1    2    0    0 -0.39898603040E+03  0.11280898202E+03  0.41787387121E+03  0.10891135040E+04  0.91631541151E+03 0.  0.
         23    2    4    4    0    0  0.15568874030E+03 -0.14155786790E+03  0.41410777151E+03  0.47367621633E+03  0.92770133497E+02 0.  0.
         23    2    4    4    0    0 -0.55467477070E+03  0.25436684992E+03  0.37660997054E+01  0.61543728763E+03  0.79889147626E+02 0.  0.
          4    1    3    3  502    0  0.23348867400E+03 -0.55714996222E+02  0.23542814741E+03  0.33622542183E+03  0.00000000000E+00 0. -1.
         -3    1    3    3    0  502  0.16549735639E+03 -0.57093985798E+02  0.90768340262E+02  0.19720037977E+03  0.00000000000E+00 0.  1.
         11    1    5    5    0    0  0.56165746498E+02 -0.11333867094E+03  0.23138427537E+03  0.26370234792E+03  0.00000000000E+00 0. -1.
        -11    1    5    5    0    0  0.99522993805E+02 -0.28219196959E+02  0.18272349614E+03  0.20997386841E+03  0.00000000000E+00 0.  1.
          1    1    6    6  503    0 -0.47787856246E+03  0.24600248609E+03  0.12996079100E+02  0.53763746307E+03  0.00000000000E+00 0. -1.
         -1    1    6    6    0  503 -0.76796208239E+02  0.83643638295E+01 -0.92299793945E+01  0.77799824562E+02  0.00000000000E+00 0.  1.
<mgrwt>
<rscale>  0 0.14418714E+04</rscale>
<asrwt>0</asrwt>
<pdfrwt beam="1">  1        2 0.18204690E+00 0.14418714E+04</pdfrwt>
<pdfrwt beam="2">  1       -1 0.67574535E-01 0.14418714E+04</pdfrwt>
<totfact> 0.47566700E+01</totfact>
</mgrwt>
</event>
<event>
12    6  0.1494052E-007  0.3067096E+04  0.7818608E-02  0.8224827E-01
         -1   -1    0    0    0  501 -0.00000000000E+00  0.00000000000E+00  0.86838740251E+03  0.86838740251E+03  0.00000000000E+00 0.  1.
          2   -1    0    0  501    0  0.00000000000E+00 -0.00000000000E+00 -0.27082033866E+04  0.27082033866E+04  0.00000000000E+00 0. -1.
         24    2    1    2    0    0 -0.19071797287E+03  0.26867886162E+03  0.74595589811E+03  0.81922357886E+03  0.78200987049E+02 0.  0.
        254    2    1    2    0    0  0.19071797287E+03 -0.26867886162E+03 -0.25857718822E+04  0.27573672102E+04  0.89905285136E+03 0.  0.
         23    2    4    4    0    0  0.81354835597E+02  0.22696756986E+03 -0.22762672315E+03  0.34349747076E+03  0.89686678420E+02 0.  0.
         23    2    4    4    0    0  0.10936313728E+03 -0.49564643147E+03 -0.23581451590E+04  0.24138697395E+04  0.91065071429E+02 0.  0.
          2    1    3    3  502    0 -0.64360606475E+02  0.42094451277E+02  0.21345286679E+03  0.22688401626E+03  0.00000000000E+00 0. -1.
         -1    1    3    3    0  502 -0.12635736640E+03  0.22658441034E+03  0.53250303132E+03  0.59233956260E+03  0.00000000000E+00 0.  1.
         11    1    5    5    0    0  0.61210363886E+02  0.67347201817E+02 -0.11708815696E+03  0.14829696808E+03  0.00000000000E+00 0. -1.
        -11    1    5    5    0    0  0.20144471711E+02  0.15962036804E+03 -0.11053856619E+03  0.19520050269E+03  0.00000000000E+00 0.  1.
          2    1    6    6  503    0  0.17359398973E+02 -0.95333202161E+02 -0.30436480442E+03  0.31941775520E+03  0.00000000000E+00 0. -1.
         -2    1    6    6    0  503  0.92003738304E+02 -0.40031322931E+03 -0.20537803546E+04  0.20944519843E+04  0.00000000000E+00 0.  1.
<mgrwt>
<rscale>  0 0.30670962E+04</rscale>
<asrwt>0</asrwt>
<pdfrwt beam="1">  1        2 0.41664667E+00 0.30670962E+04</pdfrwt>
<pdfrwt beam="2">  1       -1 0.13359806E+00 0.30670962E+04</pdfrwt>
<totfact> 0.12012981E+00</totfact>
</mgrwt>
</event>
<event>
12    6  0.1494052E-007  0.2280881E+04  0.7818608E-02  0.8485498E-01
          2   -1    0    0  501    0  0.00000000000E+00  0.00000000000E+00  0.19316693594E+04  0.19316693594E+04  0.00000000000E+00 0. -1.
         -1   -1    0    0    0  501 -0.00000000000E+00 -0.00000000000E+00 -0.67330599132E+03  0.67330599132E+03  0.00000000000E+00 0.  1.
         24    2    1    2    0    0 -0.13263619265E+03  0.52807930986E+02 -0.55478080980E+03  0.57831016991E+03  0.79245621499E+02 0.  0.
        254    2    1    2    0    0  0.13263619265E+03 -0.52807930986E+02  0.18131441778E+04  0.20266651808E+04  0.89414702826E+03 0.  0.
         23    2    4    4    0    0  0.36647996072E+03  0.66284726218E+02  0.16675408159E+04  0.17111593139E+04  0.93126785711E+02 0.  0.
         23    2    4    4    0    0 -0.23384376807E+03 -0.11909265720E+03  0.14560336190E+03  0.31550586686E+03  0.97353192864E+02 0.  0.
          2    1    3    3  502    0 -0.83769823484E+02 -0.92490877872E+01 -0.28239875746E+03  0.29470661202E+03  0.00000000000E+00 0. -1.
         -1    1    3    3    0  502 -0.48866369167E+02  0.62057018773E+02 -0.27238205233E+03  0.28360355789E+03  0.00000000000E+00 0.  1.
         11    1    5    5    0    0  0.31166697852E+03  0.77272970013E+02  0.15160635896E+04  0.15496955265E+04  0.00000000000E+00 0.  1.
        -11    1    5    5    0    0  0.54812982204E+02 -0.10988243795E+02  0.15147722638E+03  0.16146378737E+03  0.00000000000E+00 0. -1.
          3    1    6    6  503    0 -0.69105880279E+02 -0.41887517751E+02  0.98821943647E+02  0.12765564374E+03  0.00000000000E+00 0. -1.
         -3    1    6    6    0  503 -0.16473788779E+03 -0.77205139453E+02  0.46781418250E+02  0.18785022312E+03  0.00000000000E+00 0.  1.
<mgrwt>
<rscale>  0 0.22808810E+04</rscale>
<asrwt>0</asrwt>
<pdfrwt beam="1">  1        2 0.29717990E+00 0.22808810E+04</pdfrwt>
<pdfrwt beam="2">  1       -1 0.10358554E+00 0.22808810E+04</pdfrwt>
<totfact> 0.66218874E+00</totfact>
</mgrwt>
</event>
<event>
12    6  0.1494052E-007  0.1364948E+04  0.7818608E-02  0.8979589E-01
         -1   -1    0    0    0  501 -0.00000000000E+00  0.00000000000E+00  0.11477895349E+03  0.11477895349E+03  0.00000000000E+00 0.  1.
          2   -1    0    0  501    0  0.00000000000E+00 -0.00000000000E+00 -0.40579830686E+04  0.40579830686E+04  0.00000000000E+00 0. -1.
         24    2    1    2    0    0  0.64038100462E+02 -0.57246683986E+02  0.56222808109E+01  0.11966370529E+03  0.83124792841E+02 0.  0.
        254    2    1    2    0    0 -0.64038100462E+02  0.57246683986E+02 -0.39488263960E+04  0.40530983168E+04  0.90939430353E+03 0.  0.
         23    2    4    4    0    0  0.18110006985E+03 -0.84421674568E+02 -0.35431618368E+04  0.35500303693E+04  0.93784684427E+02 0.  0.
         23    2    4    4    0    0 -0.24513817031E+03  0.14166835855E+03 -0.40566455918E+03  0.50306794751E+03  0.91383690424E+02 0.  0.
          2    1    3    3  502    0  0.62278512682E+02 -0.73684697902E+02 -0.99023990697E+01  0.96985077997E+02  0.00000000000E+00 0. -1.
         -1    1    3    3    0  502  0.17595877800E+01  0.16438013916E+02  0.15524679881E+02  0.22678627296E+02  0.00000000000E+00 0.  1.
         11    1    5    5    0    0  0.76326678543E+01 -0.91424431301E+01 -0.39188823483E+02  0.40958586047E+02  0.00000000000E+00 0.  1.
        -11    1    5    5    0    0  0.17346740200E+03 -0.75279231438E+02 -0.35039730133E+04  0.35090717833E+04  0.00000000000E+00 0. -1.
          1    1    6    6  503    0 -0.21608303140E+03  0.12760843778E+03 -0.29254218644E+03  0.38543056534E+03  0.00000000000E+00 0. -1.
         -1    1    6    6    0  503 -0.29055138917E+02  0.14059920780E+02 -0.11312237274E+03  0.11763738217E+03  0.00000000000E+00 0.  1.
<mgrwt>
<rscale>  0 0.13649484E+04</rscale>
<asrwt>0</asrwt>
<pdfrwt beam="1">  1        2 0.62430496E+00 0.13649484E+04</pdfrwt>
<pdfrwt beam="2">  1       -1 0.17658304E-01 0.13649484E+04</pdfrwt>
<totfact> 0.88530016E+00</totfact>
</mgrwt>
</event>
<event>
12    6  0.1494052E-007  0.2533870E+04  0.7818608E-02  0.8391018E-01
         -1   -1    0    0    0  501 -0.00000000000E+00  0.00000000000E+00  0.54227270915E+03  0.54227270915E+03  0.00000000000E+00 0.  1.
          2   -1    0    0  501    0  0.00000000000E+00 -0.00000000000E+00 -0.29599941496E+04  0.29599941496E+04  0.00000000000E+00 0. -1.
         24    2    1    2    0    0  0.49594791355E+03  0.23481685347E+03 -0.23726873359E+04  0.24366326278E+04  0.80187787211E+02 0.  0.
        254    2    1    2    0    0 -0.49594791355E+03 -0.23481685347E+03 -0.45034104467E+02  0.10656342309E+04  0.91238421502E+03 0.  0.
         23    2    4    4    0    0 -0.75721445373E+02 -0.74121575404E+01 -0.42951393403E+03  0.44556595006E+03  0.90874193026E+02 0.  0.
         23    2    4    4    0    0 -0.42022646818E+03 -0.22740469593E+03  0.38447982956E+03  0.62006828082E+03  0.91415279104E+02 0.  0.
          4    1    3    3  502    0  0.35301110832E+03  0.12706149508E+03 -0.16474608763E+04  0.16896416203E+04  0.00000000000E+00 0. -1.
         -3    1    3    3    0  502  0.14293680523E+03  0.10775535840E+03 -0.72522645966E+03  0.74699100754E+03  0.00000000000E+00 0.  1.
         11    1    5    5    0    0 -0.69413284645E+02  0.64320407644E+01 -0.14751714271E+03  0.16315907154E+03  0.00000000000E+00 0.  1.
        -11    1    5    5    0    0 -0.63081607280E+01 -0.13844198305E+02 -0.28199679132E+03  0.28240687852E+03  0.00000000000E+00 0. -1.
          1    1    6    6  503    0 -0.37005800537E+03 -0.20474469450E+03  0.29729904841E+03  0.51696232111E+03  0.00000000000E+00 0. -1.
         -1    1    6    6    0  503 -0.50168462805E+02 -0.22660001429E+02  0.87180781151E+02  0.10310595971E+03  0.00000000000E+00 0.  1.
<mgrwt>
<rscale>  0 0.25338698E+04</rscale>
<asrwt>0</asrwt>
<pdfrwt beam="1">  1        2 0.45538371E+00 0.25338698E+04</pdfrwt>
<pdfrwt beam="2">  1       -1 0.83426571E-01 0.25338698E+04</pdfrwt>
<totfact> 0.26593589E+00</totfact>
</mgrwt>
</event>
<event>
12    6  0.1564751E-007  0.2489978E+04  0.7818608E-02  0.8406565E-01
         -1   -1    0    0    0  501 -0.00000000000E+00  0.00000000000E+00  0.12108671292E+04  0.12108671292E+04  0.00000000000E+00 0.  1.
          2   -1    0    0  501    0  0.00000000000E+00 -0.00000000000E+00 -0.12800725287E+04  0.12800725287E+04  0.00000000000E+00 0. -1.
         24    2    1    2    0    0 -0.37164624143E+03  0.14975416919E+03 -0.10255896009E+04  0.11041084156E+04  0.81695312419E+02 0.  0.
        254    2    1    2    0    0  0.37164624143E+03 -0.14975416919E+03  0.95638420133E+03  0.13868312423E+04  0.92091417302E+03 0.  0.
         23    2    4    4    0    0  0.16263550643E+03  0.16776005692E+03  0.96382823362E+03  0.99590579921E+03  0.90938178604E+02 0.  0.
         23    2    4    4    0    0  0.20901073500E+03 -0.31751422611E+03 -0.74440322897E+01  0.39092544308E+03  0.90920389896E+02 0.  0.
          4    1    3    3  502    0 -0.36606164229E+03  0.14021791518E+03 -0.10175422699E+04  0.10904377381E+04  0.00000000000E+00 0. -1.
         -3    1    3    3    0  502 -0.55845991470E+01  0.95362540025E+01 -0.80473310294E+01  0.13670677552E+02  0.00000000000E+00 0.  1.
         11    1    5    5    0    0 -0.44830539636E+01  0.10581569190E+02  0.14764851618E+03  0.14809507659E+03  0.00000000000E+00 0. -1.
        -11    1    5    5    0    0  0.16711856040E+03  0.15717848773E+03  0.81617971744E+03  0.84781072263E+03  0.00000000000E+00 0.  1.
          3    1    6    6  503    0  0.11343912485E+03 -0.92471745577E+02 -0.18136263002E+01  0.14636511886E+03  0.00000000000E+00 0. -1.
         -3    1    6    6    0  503  0.95571610151E+02 -0.22504248053E+03 -0.56304059895E+01  0.24456032422E+03  0.00000000000E+00 0.  1.
<mgrwt>
<rscale>  0 0.24899781E+04</rscale>
<asrwt>0</asrwt>
<pdfrwt beam="1">  1        2 0.19693423E+00 0.24899781E+04</pdfrwt>
<pdfrwt beam="2">  1       -1 0.18628725E+00 0.24899781E+04</pdfrwt>
<totfact> 0.32418784E+00</totfact>
</mgrwt>
</event>
<event>
12    6  0.1494052E-007  0.2835333E+04  0.7818608E-02  0.8292382E-01
         -1   -1    0    0    0  501 -0.00000000000E+00  0.00000000000E+00  0.46194135380E+03  0.46194135380E+03  0.00000000000E+00 0.  1.
          2   -1    0    0  501    0  0.00000000000E+00 -0.00000000000E+00 -0.43507206295E+04  0.43507206295E+04  0.00000000000E+00 0. -1.
         24    2    1    2    0    0 -0.74782089572E+03  0.10019955193E+04 -0.18547230733E+04  0.22382301935E+04  0.80284541180E+02 0.  0.
        254    2    1    2    0    0  0.74782089572E+03 -0.10019955193E+04 -0.20340562024E+04  0.25744317898E+04  0.96285164644E+03 0.  0.
         23    2    4    4    0    0 -0.94587309588E+02  0.10266199948E+03 -0.10417195754E+03  0.19481113396E+03  0.87254432017E+02 0.  0.
         23    2    4    4    0    0  0.84240820531E+03 -0.11046575188E+04 -0.19298842449E+04  0.23796206559E+04  0.90672206153E+02 0.  0.
          4    1    3    3  502    0 -0.62617737688E+03  0.85163532188E+03 -0.15152467564E+04  0.18475263359E+04  0.00000000000E+00 0. -1.
         -3    1    3    3    0  502 -0.12164351884E+03  0.15036019747E+03 -0.33947631690E+03  0.39070385766E+03  0.00000000000E+00 0.  1.
         11    1    5    5    0    0 -0.11081691913E+03  0.96582600890E+02 -0.89480239052E+02  0.17209096880E+03  0.00000000000E+00 0.  1.
        -11    1    5    5    0    0  0.16229609542E+02  0.60793985856E+01 -0.14691718489E+02  0.22720165167E+02  0.00000000000E+00 0. -1.
          3    1    6    6  503    0  0.64663206906E+02 -0.60269667571E+02 -0.15265424475E+03  0.17640034466E+03  0.00000000000E+00 0. -1.
         -3    1    6    6    0  503  0.77774499840E+03 -0.10443878512E+04 -0.17772300001E+04  0.22032203112E+04  0.00000000000E+00 0.  1.
<mgrwt>
<rscale>  0 0.28353326E+04</rscale>
<asrwt>0</asrwt>
<pdfrwt beam="1">  1        2 0.66934166E+00 0.28353326E+04</pdfrwt>
<pdfrwt beam="2">  1       -1 0.71067898E-01 0.28353326E+04</pdfrwt>
<totfact> 0.33662304E-01</totfact>
</mgrwt>
</event>
<event>
12    6  0.1494052E-007  0.1449125E+04  0.7818608E-02  0.8919007E-01
         -1   -1    0    0    0  501 -0.00000000000E+00  0.00000000000E+00  0.39377352412E+03  0.39377352412E+03  0.00000000000E+00 0.  1.
          2   -1    0    0  501    0  0.00000000000E+00 -0.00000000000E+00 -0.13332311395E+04  0.13332311395E+04  0.00000000000E+00 0. -1.
         24    2    1    2    0    0  0.35152574396E+03 -0.11408632287E+03  0.48405883392E+00  0.37782826728E+03  0.78536154135E+02 0.  0.
        254    2    1    2    0    0 -0.35152574396E+03  0.11408632287E+03 -0.93994167422E+03  0.13491763964E+04  0.89453930032E+03 0.  0.
         23    2    4    4    0    0  0.17797737182E+03 -0.24794009959E+03 -0.27426100879E+03  0.42025715594E+03  0.90811553829E+02 0.  0.
         23    2    4    4    0    0 -0.52950311578E+03  0.36202642246E+03 -0.66568066543E+03  0.92891924042E+03  0.91233364021E+02 0.  0.
          2    1    3    3  502    0  0.69721247594E+01 -0.19139185952E+02 -0.15212424123E+01  0.20426285542E+02  0.00000000000E+00 0. -1.
         -1    1    3    3    0  502  0.34455361921E+03 -0.94947136917E+02  0.20053012463E+01  0.35740198174E+03  0.00000000000E+00 0.  1.
         11    1    5    5    0    0  0.15700104301E+03 -0.25203922728E+03 -0.25860420465E+03  0.39376291630E+03  0.00000000000E+00 0. -1.
        -11    1    5    5    0    0  0.20976328808E+02  0.40991276819E+01 -0.15656804138E+02  0.26494239635E+02  0.00000000000E+00 0.  1.
          2    1    6    6  503    0 -0.49555419637E+03  0.35493173906E+03 -0.64922866858E+03  0.89053262997E+03  0.00000000000E+00 0. -1.
         -2    1    6    6    0  503 -0.33948919405E+02  0.70946833978E+01 -0.16451996856E+02  0.38386610450E+02  0.00000000000E+00 0.  1.
<mgrwt>
<rscale>  0 0.14491254E+04</rscale>
<asrwt>0</asrwt>
<pdfrwt beam="1">  1        2 0.20511248E+00 0.14491254E+04</pdfrwt>
<pdfrwt beam="2">  1       -1 0.60580544E-01 0.14491254E+04</pdfrwt>
<totfact> 0.48297092E+01</totfact>
</mgrwt>
</event>
<event>
12    6  0.1494052E-007  0.1042451E+04  0.7818608E-02  0.9263173E-01
          2   -1    0    0  501    0  0.00000000000E+00  0.00000000000E+00  0.12026508375E+04  0.12026508375E+04  0.00000000000E+00 0. -1.
         -1   -1    0    0    0  501 -0.00000000000E+00 -0.00000000000E+00 -0.22589776638E+03  0.22589776638E+03  0.00000000000E+00 0.  1.
         24    2    1    2    0    0 -0.85730720214E+02 -0.12723403036E+02  0.38266207624E+02  0.12445399190E+03  0.80702243344E+02 0.  0.
        254    2    1    2    0    0  0.85730720214E+02  0.12723403036E+02  0.93848686349E+03  0.13040946120E+04  0.90132875395E+03 0.  0.
         23    2    4    4    0    0  0.31778834990E+03 -0.47387698597E+02  0.29172852728E+01  0.33398571079E+03  0.91120333335E+02 0.  0.
         23    2    4    4    0    0 -0.23205762968E+03  0.60111101633E+02  0.93556957822E+03  0.97010890120E+03  0.91415296638E+02 0.  0.
          2    1    3    3  502    0 -0.10117366271E+03 -0.12044724624E+02  0.38699488861E+02  0.10899007228E+03  0.00000000000E+00 0. -1.
         -1    1    3    3    0  502  0.15442942497E+02 -0.67867841197E+00 -0.43328123702E+00  0.15463919619E+02  0.00000000000E+00 0.  1.
         11    1    5    5    0    0  0.29017844214E+03 -0.14593868870E+02  0.90167215504E+01  0.29068507110E+03  0.00000000000E+00 0.  1.
        -11    1    5    5    0    0  0.27609907758E+02 -0.32793829727E+02 -0.60994362776E+01  0.43300639689E+02  0.00000000000E+00 0. -1.
          1    1    6    6  503    0 -0.68448685890E+02 -0.18508885063E+02  0.19113599984E+03  0.20386459198E+03  0.00000000000E+00 0. -1.
         -1    1    6    6    0  503 -0.16360894379E+03  0.78619986696E+02  0.74443357838E+03  0.76624430922E+03  0.00000000000E+00 0.  1.
<mgrwt>
<rscale>  0 0.10424512E+04</rscale>
<asrwt>0</asrwt>
<pdfrwt beam="1">  1        2 0.18502320E+00 0.10424512E+04</pdfrwt>
<pdfrwt beam="2">  1       -1 0.34753503E-01 0.10424512E+04</pdfrwt>
<totfact> 0.16818848E+02</totfact>
</mgrwt>
</event>
<event>
12    6  0.1494052E-007  0.2070369E+04  0.7818608E-02  0.8574410E-01
         -1   -1    0    0    0  501 -0.00000000000E+00  0.00000000000E+00  0.14190393719E+04  0.14190393719E+04  0.00000000000E+00 0.  1.
          2   -1    0    0  501    0  0.00000000000E+00 -0.00000000000E+00 -0.75516363655E+03  0.75516363655E+03  0.00000000000E+00 0. -1.
         24    2    1    2    0    0 -0.50781639316E+03 -0.64760237361E+03  0.38144933639E+03  0.91060404139E+03  0.80186036777E+02 0.  0.
        254    2    1    2    0    0  0.50781639316E+03  0.64760237361E+03  0.28242639891E+03  0.12635989670E+04  0.91632491789E+03 0.  0.
         23    2    4    4    0    0  0.16846303518E+03  0.40042759985E+03 -0.30362223674E+03  0.53692526289E+03  0.85908197188E+02 0.  0.
         23    2    4    4    0    0  0.33935335798E+03  0.24717477376E+03  0.58604863565E+03  0.72667370412E+03  0.91354247579E+02 0.  0.
          4    1    3    3  502    0 -0.41013521297E+03 -0.56137830661E+03  0.33966133649E+03  0.77377407527E+03  0.00000000000E+00 0. -1.
         -3    1    3    3    0  502 -0.97681180186E+02 -0.86224067001E+02  0.41787999902E+02  0.13682996612E+03  0.00000000000E+00 0.  1.
         11    1    5    5    0    0  0.31703064844E+02  0.70871142373E+02 -0.98292626081E+02  0.12525671033E+03  0.00000000000E+00 0.  1.
        -11    1    5    5    0    0  0.13675997033E+03  0.32955645748E+03 -0.20532961066E+03  0.41166855256E+03  0.00000000000E+00 0. -1.
          2    1    6    6  503    0  0.14184702748E+03  0.10971249043E+03  0.32811624295E+03  0.37392202215E+03  0.00000000000E+00 0. -1.
         -2    1    6    6    0  503  0.19750633050E+03  0.13746228333E+03  0.25793239270E+03  0.35275168197E+03  0.00000000000E+00 0.  1.
<mgrwt>
<rscale>  0 0.20703690E+04</rscale>
<asrwt>0</asrwt>
<pdfrwt beam="1">  1        2 0.11617902E+00 0.20703690E+04</pdfrwt>
<pdfrwt beam="2">  1       -1 0.21831375E+00 0.20703690E+04</pdfrwt>
<totfact> 0.44256623E+00</totfact>
</mgrwt>
</event>
<event>
12    6  0.1494052E-007  0.1782883E+04  0.7818608E-02  0.8715456E-01
         -1   -1    0    0    0  501 -0.00000000000E+00  0.00000000000E+00  0.72497771556E+03  0.72497771556E+03  0.00000000000E+00 0.  1.
          2   -1    0    0  501    0  0.00000000000E+00 -0.00000000000E+00 -0.10961269537E+04  0.10961269537E+04  0.00000000000E+00 0. -1.
         24    2    1    2    0    0  0.24099306969E+03 -0.60950916295E+03 -0.46945401230E+02  0.66155835634E+03  0.76658390238E+02 0.  0.
        254    2    1    2    0    0 -0.24099306969E+03  0.60950916295E+03 -0.32420383689E+03  0.11595463129E+04  0.89992246585E+03 0.  0.
         23    2    4    4    0    0 -0.26118650387E+03  0.61501864065E+02  0.23763621562E+03  0.36912389878E+03  0.88207780785E+02 0.  0.
         23    2    4    4    0    0  0.20193434189E+02  0.54800729888E+03 -0.56184005250E+03  0.79042241411E+03  0.91561857373E+02 0.  0.
          4    1    3    3  502    0  0.10752911399E+03 -0.24612872382E+03 -0.55865405679E+02  0.27434066887E+03  0.00000000000E+00 0. -1.
         -3    1    3    3    0  502  0.13346395570E+03 -0.36338043912E+03  0.89200044489E+01  0.38721768747E+03  0.00000000000E+00 0.  1.
         11    1    5    5    0    0 -0.16121559244E+03  0.67407599396E+02  0.19029309120E+03  0.25835191553E+03  0.00000000000E+00 0.  1.
        -11    1    5    5    0    0 -0.99970911439E+02 -0.59057353314E+01  0.47343124413E+02  0.11077198325E+03  0.00000000000E+00 0. -1.
          3    1    6    6  503    0  0.22135477957E+02  0.54307526827E+03 -0.53355171553E+03  0.76164175275E+03  0.00000000000E+00 0. -1.
         -3    1    6    6    0  503 -0.19420437672E+01  0.49320306159E+01 -0.28288336967E+02  0.28780661360E+02  0.00000000000E+00 0.  1.
<mgrwt>
<rscale>  0 0.17828826E+04</rscale>
<asrwt>0</asrwt>
<pdfrwt beam="1">  1        2 0.16863492E+00 0.17828826E+04</pdfrwt>
<pdfrwt beam="2">  1       -1 0.11153503E+00 0.17828826E+04</pdfrwt>
<totfact> 0.17446009E+01</totfact>
</mgrwt>
</event>
<event>
12    6  0.1494052E-007  0.2554463E+04  0.7818608E-02  0.8383836E-01
          2   -1    0    0  501    0  0.00000000000E+00  0.00000000000E+00  0.32215334919E+04  0.32215334919E+04  0.00000000000E+00 0. -1.
         -1   -1    0    0    0  501 -0.00000000000E+00 -0.00000000000E+00 -0.50638012358E+03  0.50638012358E+03  0.00000000000E+00 0.  1.
         24    2    1    2    0    0 -0.11202326473E+04 -0.51570013977E+02  0.11717473151E+04  0.16238856680E+04  0.80201258602E+02 0.  0.
        254    2    1    2    0    0  0.11202326473E+04  0.51570013977E+02  0.15434060533E+04  0.21040279475E+04  0.88727149633E+03 0.  0.
         23    2    4    4    0    0  0.76373753125E+03  0.30239471397E+03  0.49186000979E+03  0.96209100605E+03  0.94632209205E+02 0.  0.
         23    2    4    4    0    0  0.35649511607E+03 -0.25082470000E+03  0.10515460435E+04  0.11419369415E+04  0.90934585316E+02 0.  0.
          2    1    3    3  502    0 -0.39528819305E+03  0.93850714436E+01  0.37458661427E+03  0.54466133213E+03  0.00000000000E+00 0. -1.
         -1    1    3    3    0  502 -0.72494445426E+03 -0.60955085421E+02  0.79716070080E+03  0.10792243359E+04  0.00000000000E+00 0.  1.
         11    1    5    5    0    0  0.58425698542E+03  0.26497318066E+03  0.40959267819E+03  0.76113939164E+03  0.00000000000E+00 0.  1.
        -11    1    5    5    0    0  0.17948054582E+03  0.37421533315E+02  0.82267331608E+02  0.20095161441E+03  0.00000000000E+00 0. -1.
          1    1    6    6  503    0  0.89877006171E+02 -0.64842368425E+02  0.17595427597E+03  0.20794786898E+03  0.00000000000E+00 0. -1.
         -1    1    6    6    0  503  0.26661810989E+03 -0.18598233157E+03  0.87559176752E+03  0.93398907249E+03  0.00000000000E+00 0.  1.
<mgrwt>
<rscale>  0 0.25544632E+04</rscale>
<asrwt>0</asrwt>
<pdfrwt beam="1">  1        2 0.49562052E+00 0.25544632E+04</pdfrwt>
<pdfrwt beam="2">  1       -1 0.77904636E-01 0.25544632E+04</pdfrwt>
<totfact> 0.20924705E+00</totfact>
</mgrwt>
</event>
<event>
12    6  0.1494052E-007  0.1442845E+04  0.7818608E-02  0.8923376E-01
         -1   -1    0    0    0  501 -0.00000000000E+00  0.00000000000E+00  0.37802750315E+03  0.37802750315E+03  0.00000000000E+00 0.  1.
          2   -1    0    0  501    0  0.00000000000E+00 -0.00000000000E+00 -0.13767530595E+04  0.13767530595E+04  0.00000000000E+00 0. -1.
         24    2    1    2    0    0 -0.54738959981E+02 -0.30916526173E+03 -0.67052793926E+03  0.74458584469E+03  0.78872365130E+02 0.  0.
        254    2    1    2    0    0  0.54738959981E+02  0.30916526173E+03 -0.32819761707E+03  0.10101947179E+04  0.90233041593E+03 0.  0.
         23    2    4    4    0    0  0.30400427609E+03 -0.14445220839E+03  0.63861176943E+02  0.35470275095E+03  0.91927967559E+02 0.  0.
         23    2    4    4    0    0 -0.24926531611E+03  0.45361747012E+03 -0.39205879401E+03  0.65549196700E+03  0.89764212370E+02 0.  0.
          2    1    3    3  502    0 -0.42059959984E+02 -0.27825103927E+03 -0.52929980715E+03  0.59945889512E+03  0.00000000000E+00 0. -1.
         -1    1    3    3    0  502 -0.12678999997E+02 -0.30914222452E+02 -0.14122813211E+03  0.14512694957E+03  0.00000000000E+00 0.  1.
         11    1    5    5    0    0  0.11267641576E+03 -0.94264643708E+02  0.19254662821E+00  0.14690757229E+03  0.00000000000E+00 0. -1.
        -11    1    5    5    0    0  0.19132786033E+03 -0.50187564686E+02  0.63668630315E+02  0.20779517866E+03  0.00000000000E+00 0.  1.
          1    1    6    6  503    0 -0.15115420249E+02  0.72552305770E+02 -0.29583533295E+02  0.79796606720E+02  0.00000000000E+00 0. -1.
         -1    1    6    6    0  503 -0.23414989586E+03  0.38106516435E+03 -0.36247526072E+03  0.57569536028E+03  0.00000000000E+00 0.  1.
<mgrwt>
<rscale>  0 0.14428451E+04</rscale>
<asrwt>0</asrwt>
<pdfrwt beam="1">  1        2 0.21180817E+00 0.14428451E+04</pdfrwt>
<pdfrwt beam="2">  1       -1 0.58158077E-01 0.14428451E+04</pdfrwt>
<totfact> 0.49429200E+01</totfact>
</mgrwt>
</event>
<event>
12    6  0.1494052E-007  0.2493449E+04  0.7818608E-02  0.8405323E-01
          2   -1    0    0  501    0  0.00000000000E+00  0.00000000000E+00  0.74778043017E+03  0.74778043017E+03  0.00000000000E+00 0. -1.
         -1   -1    0    0    0  501 -0.00000000000E+00 -0.00000000000E+00 -0.20785802988E+04  0.20785802988E+04  0.00000000000E+00 0.  1.
         24    2    1    2    0    0  0.14179497904E+03  0.54325552029E+03 -0.16281800438E+04  0.17238193599E+04  0.73147483699E+02 0.  0.
        254    2    1    2    0    0 -0.14179497904E+03 -0.54325552029E+03  0.29738017507E+03  0.11025413691E+04  0.90107165399E+03 0.  0.
         23    2    4    4    0    0 -0.15112360679E+03 -0.76373026142E+03  0.35510678517E+03  0.86047906015E+03  0.90560075873E+02 0.  0.
         23    2    4    4    0    0  0.93286277501E+01  0.22047474113E+03 -0.57726610100E+02  0.24206230894E+03  0.81028791964E+02 0.  0.
          2    1    3    3  502    0 -0.13993539094E+01  0.95273443819E+02 -0.24559017832E+03  0.26342650394E+03  0.00000000000E+00 0. -1.
         -1    1    3    3    0  502  0.14319433295E+03  0.44798207647E+03 -0.13825898654E+04  0.14603928560E+04  0.00000000000E+00 0.  1.
         11    1    5    5    0    0 -0.50184360066E+02 -0.19466169463E+03  0.13441892322E+03  0.24182657479E+03  0.00000000000E+00 0.  1.
        -11    1    5    5    0    0 -0.10093924672E+03 -0.56906856679E+03  0.22068786195E+03  0.61865248536E+03  0.00000000000E+00 0. -1.
          3    1    6    6  503    0  0.17021778827E+01  0.67247983204E+02  0.19864054617E+02  0.70141067289E+02  0.00000000000E+00 0. -1.
         -3    1    6    6    0  503  0.76264498674E+01  0.15322675792E+03 -0.77590664718E+02  0.17192124166E+03  0.00000000000E+00 0.  1.
<mgrwt>
<rscale>  0 0.24934488E+04</rscale>
<asrwt>0</asrwt>
<pdfrwt beam="1">  1        2 0.11504314E+00 0.24934488E+04</pdfrwt>
<pdfrwt beam="2">  1       -1 0.31978158E+00 0.24934488E+04</pdfrwt>
<totfact> 0.94112700E-01</totfact>
</mgrwt>
</event>
<event>
12    6  0.1494052E-007  0.1174053E+04  0.7818608E-02  0.9135876E-01
          2   -1    0    0  501    0  0.00000000000E+00  0.00000000000E+00  0.15233445945E+04  0.15233445945E+04  0.00000000000E+00 0. -1.
         -1   -1    0    0    0  501 -0.00000000000E+00 -0.00000000000E+00 -0.22621273845E+03  0.22621273845E+03  0.00000000000E+00 0.  1.
         24    2    1    2    0    0  0.14528724917E+03 -0.19099686752E+03  0.18775204965E+03  0.31322682731E+03  0.72608711786E+02 0.  0.
        254    2    1    2    0    0 -0.14528724917E+03  0.19099686752E+03  0.11093798064E+04  0.14363305056E+04  0.88018951278E+03 0.  0.
         23    2    4    4    0    0 -0.39535094286E+03 -0.94132092588E+02  0.23347706391E+03  0.47747727728E+03  0.91158060936E+02 0.  0.
         23    2    4    4    0    0  0.25006369369E+03  0.28512896011E+03  0.87590274248E+03  0.95885322836E+03  0.91452306956E+02 0.  0.
          4    1    3    3  502    0  0.15312839557E+02 -0.24976905548E+01 -0.22704724431E+01  0.15680451477E+02  0.00000000000E+00 0. -1.
         -3    1    3    3    0  502  0.12997440961E+03 -0.18849917696E+03  0.19002252209E+03  0.29754637583E+03  0.00000000000E+00 0.  1.
         11    1    5    5    0    0 -0.33022937817E+03 -0.79665657714E+02  0.23084600839E+03  0.41071637271E+03  0.00000000000E+00 0.  1.
        -11    1    5    5    0    0 -0.65121564689E+02 -0.14466434874E+02  0.26310555191E+01  0.66760904568E+02  0.00000000000E+00 0. -1.
          3    1    6    6  503    0 -0.57211080996E+01  0.22468119301E+02  0.43688448034E+02  0.49459356592E+02  0.00000000000E+00 0. -1.
         -3    1    6    6    0  503  0.25578480179E+03  0.26266084080E+03  0.83221429445E+03  0.90939387177E+03  0.00000000000E+00 0.  1.
<mgrwt>
<rscale>  0 0.11740527E+04</rscale>
<asrwt>0</asrwt>
<pdfrwt beam="1">  1        2 0.23436070E+00 0.11740527E+04</pdfrwt>
<pdfrwt beam="2">  1       -1 0.34801961E-01 0.11740527E+04</pdfrwt>
<totfact> 0.10865729E+02</totfact>
</mgrwt>
</event>
<event>
12    6  0.1615050E-007  0.1501169E+04  0.7818608E-02  0.8883676E-01
          2   -1    0    0  501    0  0.00000000000E+00  0.00000000000E+00  0.12978326452E+04  0.12978326452E+04  0.00000000000E+00 0. -1.
         -1   -1    0    0    0  501 -0.00000000000E+00 -0.00000000000E+00 -0.43409057785E+03  0.43409057785E+03  0.00000000000E+00 0.  1.
         24    2    1    2    0    0  0.16509341118E+02 -0.12157440102E+03 -0.25231209966E+03  0.29188797510E+03  0.80525157831E+02 0.  0.
        254    2    1    2    0    0 -0.16509341118E+02  0.12157440102E+03  0.11160541670E+04  0.14400352479E+04  0.90170489533E+03 0.  0.
         23    2    4    4    0    0 -0.24511922574E+03  0.35080745231E+03  0.98697945977E+03  0.10796954057E+04  0.92002237001E+02 0.  0.
         23    2    4    4    0    0  0.22860988462E+03 -0.22923305129E+03  0.12907470720E+03  0.36033984222E+03  0.91510932159E+02 0.  0.
          4    1    3    3  502    0  0.15257600962E+01  0.12030178960E+02 -0.17074961008E+02  0.20942956885E+02  0.00000000000E+00 0. -1.
         -3    1    3    3    0  502  0.14983581022E+02 -0.13360457998E+03 -0.23523713866E+03  0.27094501822E+03  0.00000000000E+00 0.  1.
         11    1    5    5    0    0 -0.23121459578E+02  0.26579603790E+02  0.16369935119E+03  0.16744717020E+03  0.00000000000E+00 0.  1.
        -11    1    5    5    0    0 -0.22199776616E+03  0.32422784852E+03  0.82328010858E+03  0.91224823547E+03  0.00000000000E+00 0. -1.
          3    1    6    6  503    0  0.12634490574E+03 -0.10948554666E+03  0.19107709090E+02  0.16827128300E+03  0.00000000000E+00 0.  1.
         -3    1    6    6    0  503  0.10226497888E+03 -0.11974750463E+03  0.10996699811E+03  0.19206855923E+03  0.00000000000E+00 0. -1.
<mgrwt>
<rscale>  0 0.15011688E+04</rscale>
<asrwt>0</asrwt>
<pdfrwt beam="1">  1        2 0.19966656E+00 0.15011688E+04</pdfrwt>
<pdfrwt beam="2">  1       -1 0.66783166E-01 0.15011688E+04</pdfrwt>
<totfact> 0.41479840E+01</totfact>
</mgrwt>
</event>
<event>
12    6  0.1494052E-007  0.2114221E+04  0.7818608E-02  0.8555005E-01
          2   -1    0    0  501    0  0.00000000000E+00  0.00000000000E+00  0.43917676451E+04  0.43917676451E+04  0.00000000000E+00 0. -1.
         -1   -1    0    0    0  501 -0.00000000000E+00 -0.00000000000E+00 -0.25444946561E+03  0.25444946561E+03  0.00000000000E+00 0.  1.
         24    2    1    2    0    0 -0.65635334865E+03 -0.50216308926E+03  0.11674881124E+04  0.14323932107E+04  0.75857306933E+02 0.  0.
        254    2    1    2    0    0  0.65635334865E+03  0.50216308926E+03  0.29698300671E+04  0.32138239000E+04  0.90873865679E+03 0.  0.
         23    2    4    4    0    0  0.47711372788E+03  0.75824439181E+03  0.20873086952E+04  0.22732783890E+04  0.91460251889E+02 0.  0.
         23    2    4    4    0    0  0.17923962077E+03 -0.25608130256E+03  0.88252137187E+03  0.94054551101E+03  0.89874419630E+02 0.  0.
          4    1    3    3  502    0 -0.29745986497E+02 -0.23447914575E+02  0.30035998574E+02  0.48340351891E+02  0.00000000000E+00 0. -1.
         -3    1    3    3    0  502 -0.62660736215E+03 -0.47871517468E+03  0.11374521139E+04  0.13840528588E+04  0.00000000000E+00 0.  1.
         11    1    5    5    0    0  0.42962147198E+03  0.64549175609E+03  0.18596220060E+04  0.20148022785E+04  0.00000000000E+00 0.  1.
        -11    1    5    5    0    0  0.47492255899E+02  0.11275263572E+03  0.22768668922E+03  0.25847611047E+03  0.00000000000E+00 0. -1.
          1    1    6    6  503    0  0.14431728205E+02  0.33181976295E+01  0.76530332863E+02  0.77949836835E+02  0.00000000000E+00 0. -1.
         -1    1    6    6    0  503  0.16480789257E+03 -0.25939950019E+03  0.80599103901E+03  0.86259567418E+03  0.00000000000E+00 0.  1.
<mgrwt>
<rscale>  0 0.21142213E+04</rscale>
<asrwt>0</asrwt>
<pdfrwt beam="1">  1        2 0.67565650E+00 0.21142213E+04</pdfrwt>
<pdfrwt beam="2">  1       -1 0.39146075E-01 0.21142213E+04</pdfrwt>
<totfact> 0.10499663E+00</totfact>
</mgrwt>
</event>
<event>
12    6  0.1494052E-007  0.1820266E+04  0.7818608E-02  0.8695596E-01
          2   -1    0    0  501    0  0.00000000000E+00  0.00000000000E+00  0.20304926328E+04  0.20304926328E+04  0.00000000000E+00 0. -1.
         -1   -1    0    0    0  501 -0.00000000000E+00 -0.00000000000E+00 -0.40795133248E+03  0.40795133248E+03  0.00000000000E+00 0.  1.
         24    2    1    2    0    0 -0.43619820533E+03 -0.33641321225E+03  0.79370325663E+02  0.56533065351E+03  0.99279280268E+02 0.  0.
        254    2    1    2    0    0  0.43619820533E+03  0.33641321225E+03  0.15431709746E+04  0.18731133118E+04  0.90759798260E+03 0.  0.
         23    2    4    4    0    0 -0.77708093996E+02  0.34031287868E+02  0.11421590097E+04  0.11488095342E+04  0.89663069656E+02 0.  0.
         23    2    4    4    0    0  0.51390629933E+03  0.30238192438E+03  0.40101196498E+03  0.72430377757E+03  0.90944232775E+02 0.  0.
          4    1    3    3  502    0 -0.18193090086E+03 -0.80428207164E+02  0.26555821939E+02  0.20068074366E+03  0.00000000000E+00 0. -1.
         -3    1    3    3    0  502 -0.25426730447E+03 -0.25598500508E+03  0.52814503724E+02  0.36464990985E+03  0.00000000000E+00 0.  1.
         11    1    5    5    0    0 -0.52283908288E+02  0.61974303732E+02  0.90907271474E+03  0.91268155567E+03  0.00000000000E+00 0.  1.
        -11    1    5    5    0    0 -0.25424185708E+02 -0.27943015864E+02  0.23308629492E+03  0.23612797851E+03  0.00000000000E+00 0. -1.
          2    1    6    6  503    0  0.43529629094E+03  0.28964121652E+03  0.35928939434E+03  0.63440031849E+03  0.00000000000E+00 0.  1.
         -2    1    6    6    0  503  0.78610008383E+02  0.12740707861E+02  0.41722570640E+02  0.89903459086E+02  0.00000000000E+00 0. -1.
<mgrwt>
<rscale>  0 0.18202661E+04</rscale>
<asrwt>0</asrwt>
<pdfrwt beam="1">  1        2 0.31238348E+00 0.18202661E+04</pdfrwt>
<pdfrwt beam="2">  1       -1 0.62761745E-01 0.18202661E+04</pdfrwt>
<totfact> 0.17758067E+01</totfact>
</mgrwt>
</event>
<event>
12    6  0.1494052E-007  0.2581864E+04  0.7818608E-02  0.8374388E-01
         -1   -1    0    0    0  501 -0.00000000000E+00  0.00000000000E+00  0.15010486962E+04  0.15010486962E+04  0.00000000000E+00 0.  1.
          2   -1    0    0  501    0  0.00000000000E+00 -0.00000000000E+00 -0.11102275221E+04  0.11102275221E+04  0.00000000000E+00 0. -1.
         24    2    1    2    0    0  0.56134372506E+03 -0.92050897981E+03 -0.18892489862E+03  0.10974755883E+04  0.79476348247E+02 0.  0.
        254    2    1    2    0    0 -0.56134372506E+03  0.92050897981E+03  0.57974607270E+03  0.15138006300E+04  0.89052977442E+03 0.  0.
         23    2    4    4    0    0 -0.68371430443E+03  0.31313187711E+03  0.20894491000E+03  0.78606945068E+03  0.93436520248E+02 0.  0.
         23    2    4    4    0    0  0.12237057937E+03  0.60737710270E+03  0.37080116270E+03  0.72773117937E+03  0.90651329745E+02 0.  0.
          4    1    3    3  502    0  0.54046089456E+03 -0.85119069421E+03 -0.18385209572E+03  0.10249025171E+04  0.00000000000E+00 0. -1.
         -3    1    3    3    0  502  0.20882830502E+02 -0.69318285601E+02 -0.50728029030E+01  0.72573071161E+02  0.00000000000E+00 0.  1.
         11    1    5    5    0    0 -0.10833855021E+03  0.89319704782E+02  0.40050051679E+02  0.14601115630E+03  0.00000000000E+00 0. -1.
        -11    1    5    5    0    0 -0.57537575423E+03  0.22381217233E+03  0.16889485832E+03  0.64005829438E+03  0.00000000000E+00 0.  1.
          3    1    6    6  503    0 -0.12360720643E+02  0.65341295104E+02  0.26361929912E+02  0.71534772030E+02  0.00000000000E+00 0. -1.
         -3    1    6    6    0  503  0.13473130002E+03  0.54203580759E+03  0.34443923278E+03  0.65619640733E+03  0.00000000000E+00 0.  1.
<mgrwt>
<rscale>  0 0.25818641E+04</rscale>
<asrwt>0</asrwt>
<pdfrwt beam="1">  1        2 0.17080423E+00 0.25818641E+04</pdfrwt>
<pdfrwt beam="2">  1       -1 0.23093057E+00 0.25818641E+04</pdfrwt>
<totfact> 0.20175493E+00</totfact>
</mgrwt>
</event>
<event>
12    6  0.1494052E-007  0.2147318E+04  0.7818608E-02  0.8540681E-01
          2   -1    0    0  501    0  0.00000000000E+00  0.00000000000E+00  0.13607567795E+04  0.13607567795E+04  0.00000000000E+00 0. -1.
         -1   -1    0    0    0  501 -0.00000000000E+00 -0.00000000000E+00 -0.84713404580E+03  0.84713404580E+03  0.00000000000E+00 0.  1.
         24    2    1    2    0    0 -0.56433825958E+03  0.41173984378E+03  0.81311015981E+03  0.10749250821E+04  0.79425625686E+02 0.  0.
        254    2    1    2    0    0  0.56433825958E+03 -0.41173984378E+03 -0.29948742610E+03  0.11329657432E+04  0.84018526923E+03 0.  0.
         23    2    4    4    0    0  0.65254205420E+03  0.26245259235E+01 -0.18610732823E+03  0.68460833907E+03  0.90744805167E+02 0.  0.
         23    2    4    4    0    0 -0.88203794619E+02 -0.41436436970E+03 -0.11338009787E+03  0.44835740411E+03  0.93228616655E+02 0.  0.
          2    1    3    3  502    0 -0.51041851065E+03  0.34344878621E+03  0.69414022621E+03  0.92753155116E+03  0.00000000000E+00 0. -1.
         -1    1    3    3    0  502 -0.53919748931E+02  0.68291057565E+02  0.11896993360E+03  0.14739353096E+03  0.00000000000E+00 0.  1.
         11    1    5    5    0    0  0.49798524913E+03  0.14856207439E+02 -0.10316334338E+03  0.50877567814E+03  0.00000000000E+00 0.  1.
        -11    1    5    5    0    0  0.15455680507E+03 -0.12231681516E+02 -0.82943984847E+02  0.17583266093E+03  0.00000000000E+00 0. -1.
          4    1    6    6  503    0 -0.98050998315E+02 -0.27235337953E+03 -0.95890742493E+02  0.30493506868E+03  0.00000000000E+00 0.  1.
         -4    1    6    6    0  503  0.98472036959E+01 -0.14201099017E+03 -0.17489355380E+02  0.14342233543E+03  0.00000000000E+00 0. -1.
<mgrwt>
<rscale>  0 0.21473178E+04</rscale>
<asrwt>0</asrwt>
<pdfrwt beam="1">  1        2 0.20934720E+00 0.21473178E+04</pdfrwt>
<pdfrwt beam="2">  1       -1 0.13032832E+00 0.21473178E+04</pdfrwt>
<totfact> 0.80359217E+00</totfact>
</mgrwt>
</event>
<event>
12    6  0.1494052E-007  0.1474379E+04  0.7818608E-02  0.8901672E-01
          2   -1    0    0  501    0  0.00000000000E+00  0.00000000000E+00  0.16569838536E+04  0.16569838536E+04  0.00000000000E+00 0. -1.
         -1   -1    0    0    0  501 -0.00000000000E+00 -0.00000000000E+00 -0.32797426889E+03  0.32797426889E+03  0.00000000000E+00 0.  1.
         24    2    1    2    0    0  0.23456663906E+03  0.16944863084E+02 -0.11195990648E+03  0.27163617329E+03  0.77087959102E+02 0.  0.
        254    2    1    2    0    0 -0.23456663906E+03 -0.16944863084E+02  0.14409694911E+04  0.17133219492E+04  0.89653242581E+03 0.  0.
         23    2    4    4    0    0  0.33513347496E+03  0.19633499338E+02  0.57060685928E+03  0.66843651195E+03  0.92278178960E+02 0.  0.
         23    2    4    4    0    0 -0.56970011402E+03 -0.36578362423E+02  0.87036263186E+03  0.10448854372E+04  0.91423571565E+02 0.  0.
          2    1    3    3  502    0  0.15770659343E+03 -0.23864560475E+02 -0.60850458570E+02  0.17071515798E+03  0.00000000000E+00 0. -1.
         -1    1    3    3    0  502  0.76860045631E+02  0.40809423559E+02 -0.51109447906E+02  0.10092101531E+03  0.00000000000E+00 0.  1.
         11    1    5    5    0    0  0.11569426703E+03  0.26850565217E+02  0.12955210415E+03  0.17575512501E+03  0.00000000000E+00 0.  1.
        -11    1    5    5    0    0  0.21943920793E+03 -0.72170658781E+01  0.44105475513E+03  0.49268138694E+03  0.00000000000E+00 0. -1.
          3    1    6    6  503    0 -0.56600431131E+03 -0.25717644804E+02  0.85043336656E+03  0.10218900081E+04  0.00000000000E+00 0. -1.
         -3    1    6    6    0  503 -0.36958027083E+01 -0.10860717618E+02  0.19929265303E+02  0.22995429119E+02  0.00000000000E+00 0.  1.
<mgrwt>
<rscale>  0 0.14743786E+04</rscale>
<asrwt>0</asrwt>
<pdfrwt beam="1">  1        2 0.25492059E+00 0.14743786E+04</pdfrwt>
<pdfrwt beam="2">  1       -1 0.50457581E-01 0.14743786E+04</pdfrwt>
<totfact> 0.45083451E+01</totfact>
</mgrwt>
</event>
<event>
12    6  0.1494052E-007  0.1287463E+04  0.7818608E-02  0.9039567E-01
         -1   -1    0    0    0  501 -0.00000000000E+00  0.00000000000E+00  0.16956401565E+03  0.16956401565E+03  0.00000000000E+00 0.  1.
          2   -1    0    0  501    0  0.00000000000E+00 -0.00000000000E+00 -0.24438556457E+04  0.24438556457E+04  0.00000000000E+00 0. -1.
         24    2    1    2    0    0 -0.28154096941E+03  0.14380308374E+03 -0.64370979827E+03  0.72160631638E+03  0.80054525763E+02 0.  0.
        254    2    1    2    0    0  0.28154096941E+03 -0.14380308374E+03 -0.16305818317E+04  0.18918133449E+04  0.90565775972E+03 0.  0.
         23    2    4    4    0    0 -0.10352829805E+02 -0.47046120701E+03 -0.10838552534E+04  0.11853740420E+04  0.94490637954E+02 0.  0.
         23    2    4    4    0    0  0.29189379922E+03  0.32665812327E+03 -0.54672657835E+03  0.70643930298E+03  0.90769035496E+02 0.  0.
          4    1    3    3  502    0 -0.14740948905E+03  0.50684622777E+02 -0.24061409797E+03  0.28669431908E+03  0.00000000000E+00 0. -1.
         -3    1    3    3    0  502 -0.13413148036E+03  0.93118460968E+02 -0.40309570030E+03  0.43491199730E+03  0.00000000000E+00 0.  1.
         11    1    5    5    0    0 -0.37259696610E+02 -0.15936144903E+03 -0.44859389194E+03  0.47751527339E+03  0.00000000000E+00 0. -1.
        -11    1    5    5    0    0  0.26906866805E+02 -0.31109975798E+03 -0.63526136145E+03  0.70785876858E+03  0.00000000000E+00 0.  1.
          1    1    6    6  503    0  0.16774748267E+03  0.17592020007E+03 -0.23181767354E+03  0.33589666342E+03  0.00000000000E+00 0. -1.
         -1    1    6    6    0  503  0.12414631655E+03  0.15073792320E+03 -0.31490890480E+03  0.37054263955E+03  0.00000000000E+00 0.  1.
<mgrwt>
<rscale>  0 0.12874626E+04</rscale>
<asrwt>0</asrwt>
<pdfrwt beam="1">  1        2 0.37597778E+00 0.12874626E+04</pdfrwt>
<pdfrwt beam="2">  1       -1 0.26086773E-01 0.12874626E+04</pdfrwt>
<totfact> 0.54800444E+01</totfact>
</mgrwt>
</event>
<event>
12    6  0.1494052E-007  0.2933673E+04  0.7818608E-02  0.8262929E-01
          2   -1    0    0  501    0  0.00000000000E+00  0.00000000000E+00  0.95649546789E+03  0.95649546789E+03  0.00000000000E+00 0. -1.
         -1   -1    0    0    0  501 -0.00000000000E+00 -0.00000000000E+00 -0.22494717252E+04  0.22494717252E+04  0.00000000000E+00 0.  1.
         24    2    1    2    0    0  0.13281514630E+03 -0.26272231479E+03  0.82765630922E+03  0.88296652517E+03  0.89174214956E+02 0.  0.
        254    2    1    2    0    0 -0.13281514630E+03  0.26272231479E+03 -0.21206325665E+04  0.23230006679E+04  0.90143593403E+03 0.  0.
         23    2    4    4    0    0 -0.47296904699E+03  0.28148768284E+03 -0.97001367740E+03  0.11200105474E+04  0.10277186837E+03 0.  0.
         23    2    4    4    0    0  0.34015390069E+03 -0.18765368055E+02 -0.11506188891E+04  0.12029901205E+04  0.84879837823E+02 0.  0.
          4    1    3    3  502    0  0.90279107850E+02 -0.24568250095E+03  0.70000205583E+03  0.74733733130E+03  0.00000000000E+00 0. -1.
         -3    1    3    3    0  502  0.42536038448E+02 -0.17039813834E+02  0.12765425339E+03  0.13562919387E+03  0.00000000000E+00 0.  1.
         11    1    5    5    0    0 -0.42445413129E+03  0.22712135581E+03 -0.88955477948E+03  0.10114608868E+04  0.00000000000E+00 0. -1.
        -11    1    5    5    0    0 -0.48514915702E+02  0.54366327027E+02 -0.80458897913E+02  0.10854966059E+03  0.00000000000E+00 0.  1.
          4    1    6    6  503    0  0.28632004850E+02  0.88194875015E+01 -0.45547714795E+02  0.54517606189E+02  0.00000000000E+00 0. -1.
         -4    1    6    6    0  503  0.31152189584E+03 -0.27584855556E+02 -0.11050711743E+04  0.11484725143E+04  0.00000000000E+00 0.  1.
<mgrwt>
<rscale>  0 0.29336731E+04</rscale>
<asrwt>0</asrwt>
<pdfrwt beam="1">  1        2 0.14715315E+00 0.29336731E+04</pdfrwt>
<pdfrwt beam="2">  1       -1 0.34607257E+00 0.29336731E+04</pdfrwt>
<totfact> 0.43497991E-01</totfact>
</mgrwt>
</event>
<event>
12    6  0.1494052E-007  0.2815866E+04  0.7818608E-02  0.8298360E-01
         -1   -1    0    0    0  501 -0.00000000000E+00  0.00000000000E+00  0.24636201711E+04  0.24636201711E+04  0.00000000000E+00 0.  1.
          2   -1    0    0  501    0  0.00000000000E+00 -0.00000000000E+00 -0.80461877450E+03  0.80461877450E+03  0.00000000000E+00 0. -1.
         24    2    1    2    0    0  0.10766840086E+04 -0.23152698050E+03  0.83060851426E+02  0.11072920074E+04  0.79644757710E+02 0.  0.
        254    2    1    2    0    0 -0.10766840086E+04  0.23152698050E+03  0.15759405452E+04  0.21609469382E+04  0.98653427241E+03 0.  0.
         23    2    4    4    0    0  0.14503570848E+03  0.24371882079E+02  0.45684966618E+03  0.48847681244E+03  0.90932026434E+02 0.  0.
         23    2    4    4    0    0 -0.12217197171E+04  0.20715509842E+03  0.11190908790E+04  0.16724701258E+04  0.96330805570E+02 0.  0.
          2    1    3    3  502    0  0.10024727377E+04 -0.19711632367E+03  0.87224673609E+02  0.10253850880E+04  0.00000000000E+00 0. -1.
         -1    1    3    3    0  502  0.74211270921E+02 -0.34410656831E+02 -0.41638221826E+01  0.81906919429E+02  0.00000000000E+00 0.  1.
         11    1    5    5    0    0  0.64828232923E+02 -0.41196137732E+01  0.84834367838E+02  0.10684821462E+03  0.00000000000E+00 0. -1.
        -11    1    5    5    0    0  0.80207475562E+02  0.28491495852E+02  0.37201529834E+03  0.38162859782E+03  0.00000000000E+00 0.  1.
          3    1    6    6  503    0 -0.10861521780E+04  0.19610809437E+03  0.10315177465E+04  0.15106997715E+04  0.00000000000E+00 0. -1.
         -3    1    6    6    0  503 -0.13556753914E+03  0.11047004051E+02  0.87573132505E+02  0.16177035422E+03  0.00000000000E+00 0.  1.
<mgrwt>
<rscale>  0 0.28158658E+04</rscale>
<asrwt>0</asrwt>
<pdfrwt beam="1">  1        2 0.12378751E+00 0.28158658E+04</pdfrwt>
<pdfrwt beam="2">  1       -1 0.37901848E+00 0.28158658E+04</pdfrwt>
<totfact> 0.33637775E-01</totfact>
</mgrwt>
</event>
<event>
12    6  0.1494052E-007  0.1742640E+04  0.7818608E-02  0.8737412E-01
          2   -1    0    0  501    0  0.00000000000E+00  0.00000000000E+00  0.16778399460E+04  0.16778399460E+04  0.00000000000E+00 0. -1.
         -1   -1    0    0    0  501 -0.00000000000E+00 -0.00000000000E+00 -0.45248577675E+03  0.45248577675E+03  0.00000000000E+00 0.  1.
         24    2    1    2    0    0 -0.26374826999E+03  0.37040349673E+02 -0.25911999219E+03  0.37981149807E+03  0.78603220591E+02 0.  0.
        254    2    1    2    0    0  0.26374826999E+03 -0.37040349673E+02  0.14844741614E+04  0.17505142247E+04  0.88865143751E+03 0.  0.
         23    2    4    4    0    0  0.12073712253E+03  0.31628163851E+03  0.12403768154E+04  0.12889140894E+04  0.90295946778E+02 0.  0.
         23    2    4    4    0    0  0.14301114746E+03 -0.35332198819E+03  0.24409734596E+03  0.46160013523E+03  0.90567957356E+02 0.  0.
          4    1    3    3  502    0 -0.15428122310E+03  0.39331612800E+02 -0.10486241307E+03  0.19064573753E+03  0.00000000000E+00 0. -1.
         -3    1    3    3    0  502 -0.10946704689E+03 -0.22912631271E+01 -0.15425757913E+03  0.18916576054E+03  0.00000000000E+00 0.  1.
         11    1    5    5    0    0  0.14940605225E+02  0.14657756592E+03  0.44379475827E+03  0.46761307936E+03  0.00000000000E+00 0. -1.
        -11    1    5    5    0    0  0.10579651730E+03  0.16970407260E+03  0.79658205718E+03  0.82130101007E+03  0.00000000000E+00 0.  1.
          1    1    6    6  503    0 -0.91635597898E+01 -0.36563597859E+02  0.41093360598E+02  0.55763176036E+02  0.00000000000E+00 0. -1.
         -1    1    6    6    0  503  0.15217470725E+03 -0.31675839033E+03  0.20300398537E+03  0.40583695919E+03  0.00000000000E+00 0.  1.
<mgrwt>
<rscale>  0 0.17426402E+04</rscale>
<asrwt>0</asrwt>
<pdfrwt beam="1">  1        2 0.25812922E+00 0.17426402E+04</pdfrwt>
<pdfrwt beam="2">  1       -1 0.69613197E-01 0.17426402E+04</pdfrwt>
<totfact> 0.22746770E+01</totfact>
</mgrwt>
</event>
<event>
12    6  0.1494052E-007  0.2522149E+04  0.7818608E-02  0.8395137E-01
         -1   -1    0    0    0  501 -0.00000000000E+00  0.00000000000E+00  0.11619721030E+04  0.11619721030E+04  0.00000000000E+00 0.  1.
          2   -1    0    0  501    0  0.00000000000E+00 -0.00000000000E+00 -0.13686293180E+04  0.13686293180E+04  0.00000000000E+00 0. -1.
         24    2    1    2    0    0 -0.81458553420E+03 -0.43404557972E+03  0.44175606068E+03  0.10264192620E+04  0.80267842556E+02 0.  0.
        254    2    1    2    0    0  0.81458553420E+03  0.43404557972E+03 -0.64841327573E+03  0.15041821590E+04  0.99507740069E+03 0.  0.
         23    2    4    4    0    0  0.56565480396E+03  0.35986940356E+03  0.12081559337E+03  0.68721676390E+03  0.90549037094E+02 0.  0.
         23    2    4    4    0    0  0.24893073024E+03  0.74176176163E+02 -0.76922886910E+03  0.81696539506E+03  0.90833859848E+02 0.  0.
          2    1    3    3  502    0 -0.48890417986E+02 -0.47353527187E+02  0.42622333826E+02  0.80307489368E+02  0.00000000000E+00 0. -1.
         -1    1    3    3    0  502 -0.76569511622E+03 -0.38669205253E+03  0.39913372685E+03  0.94611177268E+03  0.00000000000E+00 0.  1.
         11    1    5    5    0    0  0.30456580701E+03  0.21360227396E+03  0.24407291749E+02  0.37280286766E+03  0.00000000000E+00 0.  1.
        -11    1    5    5    0    0  0.26108899695E+03  0.14626712960E+03  0.96408301617E+02  0.31441389624E+03  0.00000000000E+00 0. -1.
          1    1    6    6  503    0  0.18923836788E+03  0.60354538785E+02 -0.44967983042E+03  0.49159513842E+03  0.00000000000E+00 0. -1.
         -1    1    6    6    0  503  0.59692362364E+02  0.13821637377E+02 -0.31954903868E+03  0.32537025664E+03  0.00000000000E+00 0.  1.
<mgrwt>
<rscale>  0 0.25221492E+04</rscale>
<asrwt>0</asrwt>
<pdfrwt beam="1">  1        2 0.21055836E+00 0.25221492E+04</pdfrwt>
<pdfrwt beam="2">  1       -1 0.17876494E+00 0.25221492E+04</pdfrwt>
<totfact> 0.32498648E+00</totfact>
</mgrwt>
</event>
<event>
12    6  0.1494052E-007  0.2262909E+04  0.7818608E-02  0.8492691E-01
          2   -1    0    0  501    0  0.00000000000E+00  0.00000000000E+00  0.14559619519E+04  0.14559619519E+04  0.00000000000E+00 0. -1.
         -1   -1    0    0    0  501 -0.00000000000E+00 -0.00000000000E+00 -0.87927362903E+03  0.87927362903E+03  0.00000000000E+00 0.  1.
         24    2    1    2    0    0 -0.17469366947E+03  0.21863968890E+03  0.11824555520E+04  0.12178375649E+04  0.81277366328E+02 0.  0.
        254    2    1    2    0    0  0.17469366947E+03 -0.21863968890E+03 -0.60576722911E+03  0.11173980161E+04  0.89627183307E+03 0.  0.
         23    2    4    4    0    0  0.70155691330E+02 -0.55876679899E+03 -0.34015698110E+03  0.66421475483E+03  0.91281499012E+02 0.  0.
         23    2    4    4    0    0  0.10453797814E+03  0.34012711008E+03 -0.26561024800E+03  0.45318326125E+03  0.90618014439E+02 0.  0.
          4    1    3    3  502    0 -0.16192234291E+03  0.15382964660E+03  0.96840196548E+03  0.99382331028E+03  0.00000000000E+00 0. -1.
         -3    1    3    3    0  502 -0.12771326558E+02  0.64810042304E+02  0.21405358649E+03  0.22401425457E+03  0.00000000000E+00 0.  1.
         11    1    5    5    0    0  0.66634009785E+02 -0.19053719883E+03 -0.13246940870E+03  0.24143872854E+03  0.00000000000E+00 0.  1.
        -11    1    5    5    0    0  0.35216815450E+01 -0.36822960016E+03 -0.20768757240E+03  0.42277602629E+03  0.00000000000E+00 0. -1.
          2    1    6    6  503    0  0.43727398759E+02  0.35404064343E+02 -0.46103953358E+02  0.72740000615E+02  0.00000000000E+00 0. -1.
         -2    1    6    6    0  503  0.60810579383E+02  0.30472304574E+03 -0.21950629464E+03  0.38044326063E+03  0.00000000000E+00 0.  1.
<mgrwt>
<rscale>  0 0.22629087E+04</rscale>
<asrwt>0</asrwt>
<pdfrwt beam="1">  1        2 0.22399415E+00 0.22629087E+04</pdfrwt>
<pdfrwt beam="2">  1       -1 0.13527287E+00 0.22629087E+04</pdfrwt>
<totfact> 0.63833787E+00</totfact>
</mgrwt>
</event>
<event>
12    6  0.1494052E-007  0.1746457E+04  0.7818608E-02  0.8735303E-01
          2   -1    0    0  501    0  0.00000000000E+00  0.00000000000E+00  0.26549686782E+04  0.26549686782E+04  0.00000000000E+00 0. -1.
         -1   -1    0    0    0  501 -0.00000000000E+00 -0.00000000000E+00 -0.28720794791E+03  0.28720794791E+03  0.00000000000E+00 0.  1.
         24    2    1    2    0    0  0.40687837402E+03 -0.53797198382E+02  0.46835735099E+02  0.42065567316E+03  0.79457280873E+02 0.  0.
        254    2    1    2    0    0 -0.40687837402E+03  0.53797198382E+02  0.23209249952E+04  0.25215209529E+04  0.89606413445E+03 0.  0.
         23    2    4    4    0    0 -0.38155412865E+03 -0.66216419391E+02  0.30900752761E+03  0.50392625663E+03  0.92129543117E+02 0.  0.
         23    2    4    4    0    0 -0.25324245363E+02  0.12001361777E+03  0.20119174676E+04  0.20175946963E+04  0.88497889136E+02 0.  0.
          2    1    3    3  502    0  0.15655729708E+03 -0.41577974275E+02  0.51559417916E+02  0.16999202567E+03  0.00000000000E+00 0. -1.
         -1    1    3    3    0  502  0.25032107693E+03 -0.12219224107E+02 -0.47236828173E+01  0.25066364749E+03  0.00000000000E+00 0.  1.
         11    1    5    5    0    0 -0.22475300828E+03 -0.55455576808E+02  0.12918924520E+03  0.26510204979E+03  0.00000000000E+00 0.  1.
        -11    1    5    5    0    0 -0.15680112038E+03 -0.10760842582E+02  0.17981828241E+03  0.23882420684E+03  0.00000000000E+00 0. -1.
          3    1    6    6  503    0  0.20777601685E+02  0.49992656852E+02  0.42053196659E+03  0.42400248748E+03  0.00000000000E+00 0. -1.
         -3    1    6    6    0  503 -0.46101847048E+02  0.70020960920E+02  0.15913855010E+04  0.15935922088E+04  0.00000000000E+00 0.  1.
<mgrwt>
<rscale>  0 0.17464571E+04</rscale>
<asrwt>0</asrwt>
<pdfrwt beam="1">  1        2 0.40845670E+00 0.17464571E+04</pdfrwt>
<pdfrwt beam="2">  1       -1 0.44185840E-01 0.17464571E+04</pdfrwt>
<totfact> 0.15482546E+01</totfact>
</mgrwt>
</event>
<event>
12    6  0.1494052E-007  0.3626945E+04  0.7818608E-02  0.8084347E-01
         -1   -1    0    0    0  501 -0.00000000000E+00  0.00000000000E+00  0.10086165864E+04  0.10086165864E+04  0.00000000000E+00 0.  1.
          2   -1    0    0  501    0  0.00000000000E+00 -0.00000000000E+00 -0.32605867915E+04  0.32605867915E+04  0.00000000000E+00 0. -1.
         24    2    1    2    0    0  0.74710305422E+03 -0.10405835948E+04 -0.23690634776E+04  0.26944048013E+04  0.79864139512E+02 0.  0.
        254    2    1    2    0    0 -0.74710305422E+03  0.10405835948E+04  0.11709327256E+03  0.15747985767E+04  0.90846162886E+03 0.  0.
         23    2    4    4    0    0 -0.48696022148E+03  0.85361484304E+03 -0.30846356860E+03  0.10344034814E+04  0.95143216587E+02 0.  0.
         23    2    4    4    0    0 -0.26014283273E+03  0.18696875178E+03  0.42555684115E+03  0.54039509523E+03  0.91085818474E+02 0.  0.
          4    1    3    3  502    0  0.72940053232E+03 -0.10291290763E+04 -0.23420427628E+04  0.26601308417E+04  0.00000000000E+00 0. -1.
         -3    1    3    3    0  502  0.17702521900E+02 -0.11454518551E+02 -0.27020714860E+02  0.34273959626E+02  0.00000000000E+00 0.  1.
         11    1    5    5    0    0 -0.11110627820E+02  0.37217862241E+02 -0.30592233421E+02  0.49441885745E+02  0.00000000000E+00 0. -1.
        -11    1    5    5    0    0 -0.47584959366E+03  0.81639698080E+03 -0.27787133517E+03  0.98496159568E+03  0.00000000000E+00 0.  1.
          3    1    6    6  503    0 -0.34770881360E+02  0.59317851608E+02  0.53795989020E+02  0.87301948114E+02  0.00000000000E+00 0. -1.
         -3    1    6    6    0  503 -0.22537195137E+03  0.12765090018E+03  0.37176085213E+03  0.45309314711E+03  0.00000000000E+00 0.  1.
<mgrwt>
<rscale>  0 0.36269447E+04</rscale>
<asrwt>0</asrwt>
<pdfrwt beam="1">  1        2 0.50162874E+00 0.36269447E+04</pdfrwt>
<pdfrwt beam="2">  1       -1 0.15517178E+00 0.36269447E+04</pdfrwt>
<totfact> 0.34712060E-01</totfact>
</mgrwt>
</event>
<event>
12    6  0.1494052E-007  0.2222460E+04  0.7818608E-02  0.8509137E-01
          2   -1    0    0  501    0  0.00000000000E+00  0.00000000000E+00  0.25722919635E+04  0.25722919635E+04  0.00000000000E+00 0. -1.
         -1   -1    0    0    0  501 -0.00000000000E+00 -0.00000000000E+00 -0.48005148460E+03  0.48005148460E+03  0.00000000000E+00 0.  1.
         24    2    1    2    0    0 -0.40492257230E+03 -0.63213093155E+02  0.21366563546E+04  0.21770004997E+04  0.77926974381E+02 0.  0.
        254    2    1    2    0    0  0.40492257230E+03  0.63213093155E+02 -0.44415875681E+02  0.87534294843E+03  0.77220096001E+03 0.  0.
         23    2    4    4    0    0  0.18601828512E+03 -0.33700813121E+03  0.53839764534E+02  0.39861758429E+03  0.88430624532E+02 0.  0.
         23    2    4    4    0    0  0.21890428718E+03  0.40022122437E+03 -0.98255640215E+02  0.47672536414E+03  0.97554018880E+02 0.  0.
          2    1    3    3  502    0 -0.28319713614E+03 -0.74487170013E+02  0.14035685495E+04  0.14337899531E+04  0.00000000000E+00 0. -1.
         -1    1    3    3    0  502 -0.12172543616E+03  0.11274076857E+02  0.73308780508E+03  0.74321054659E+03  0.00000000000E+00 0.  1.
         11    1    5    5    0    0  0.15458378437E+03 -0.31174440065E+03  0.70408117221E+02  0.35501833854E+03  0.00000000000E+00 0. -1.
        -11    1    5    5    0    0  0.31434500745E+02 -0.25263730564E+02 -0.16568352687E+02  0.43599245749E+02  0.00000000000E+00 0.  1.
          1    1    6    6  503    0  0.13561356643E+03  0.33213495944E+03 -0.80788266196E+02  0.36773824201E+03  0.00000000000E+00 0. -1.
         -1    1    6    6    0  503  0.83290720748E+02  0.68086264927E+02 -0.17467374019E+02  0.10898712213E+03  0.00000000000E+00 0.  1.
<mgrwt>
<rscale>  0 0.22224604E+04</rscale>
<asrwt>0</asrwt>
<pdfrwt beam="1">  1        2 0.39573722E+00 0.22224604E+04</pdfrwt>
<pdfrwt beam="2">  1       -1 0.73854076E-01 0.22224604E+04</pdfrwt>
<totfact> 0.60568646E+00</totfact>
</mgrwt>
</event>
<event>
12    6  0.1494052E-007  0.1299736E+04  0.7818608E-02  0.9029775E-01
         -1   -1    0    0    0  501 -0.00000000000E+00  0.00000000000E+00  0.24767336518E+03  0.24767336518E+03  0.00000000000E+00 0.  1.
          2   -1    0    0  501    0  0.00000000000E+00 -0.00000000000E+00 -0.17051820057E+04  0.17051820057E+04  0.00000000000E+00 0. -1.
         24    2    1    2    0    0 -0.28066109735E+03 -0.16752437690E+03 -0.56935636657E+03  0.66095889475E+03  0.76582765507E+02 0.  0.
        254    2    1    2    0    0  0.28066109735E+03  0.16752437690E+03 -0.88815227395E+03  0.12918964761E+04  0.87940148676E+03 0.  0.
         23    2    4    4    0    0 -0.18943221140E+03 -0.14101926604E+01 -0.73032727600E+03  0.76012201607E+03  0.92309251343E+02 0.  0.
         23    2    4    4    0    0  0.47009330875E+03  0.16893456956E+03 -0.15782499795E+03  0.53177446006E+03  0.91371432506E+02 0.  0.
          4    1    3    3  502    0 -0.11965124399E+03 -0.11164845583E+03 -0.24646746518E+03  0.29585132968E+03  0.00000000000E+00 0. -1.
         -1    1    3    3    0  502 -0.16100985336E+03 -0.55875921072E+02 -0.32288890138E+03  0.36510756507E+03  0.00000000000E+00 0.  1.
         11    1    5    5    0    0 -0.12334550372E+03  0.30370345407E+02 -0.56750639406E+03  0.58154963543E+03  0.00000000000E+00 0. -1.
        -11    1    5    5    0    0 -0.66086707679E+02 -0.31780538067E+02 -0.16282088194E+03  0.17857238064E+03  0.00000000000E+00 0.  1.
          2    1    6    6  503    0  0.28719398234E+03  0.13810936490E+03 -0.13020821438E+03  0.34425101199E+03  0.00000000000E+00 0.  1.
         -2    1    6    6    0  503  0.18289932641E+03  0.30825204663E+02 -0.27616783567E+02  0.18752344807E+03  0.00000000000E+00 0. -1.
<mgrwt>
<rscale>  0 0.12997356E+04</rscale>
<asrwt>0</asrwt>
<pdfrwt beam="1">  1        2 0.26233570E+00 0.12997356E+04</pdfrwt>
<pdfrwt beam="2">  1       -1 0.38103594E-01 0.12997356E+04</pdfrwt>
<totfact> 0.72400077E+01</totfact>
</mgrwt>
</event>
<event>
12    6  0.1494052E-007  0.2286531E+04  0.7818608E-02  0.8483251E-01
          2   -1    0    0  501    0  0.00000000000E+00  0.00000000000E+00  0.12239397280E+04  0.12239397280E+04  0.00000000000E+00 0. -1.
         -1   -1    0    0    0  501 -0.00000000000E+00 -0.00000000000E+00 -0.10679084626E+04  0.10679084626E+04  0.00000000000E+00 0.  1.
         24    2    1    2    0    0 -0.66567984867E+03  0.13343712543E+03  0.75159013701E+03  0.10159608469E+04  0.79709352878E+02 0.  0.
        254    2    1    2    0    0  0.66567984867E+03 -0.13343712543E+03 -0.59555887164E+03  0.12758873437E+04  0.90125635465E+03 0.  0.
         23    2    4    4    0    0  0.27503152016E+03  0.37954213040E+03 -0.21466784610E+03  0.52183074533E+03  0.80811365502E+02 0.  0.
         23    2    4    4    0    0  0.39064832851E+03 -0.51297925583E+03 -0.38089102554E+03  0.75405659835E+03  0.88145032167E+02 0.  0.
          2    1    3    3  502    0 -0.61288987499E+03  0.10602263571E+03  0.66142131829E+03  0.90793885171E+03  0.00000000000E+00 0. -1.
         -1    1    3    3    0  502 -0.52789973676E+02  0.27414489722E+02  0.90168818724E+02  0.10802199516E+03  0.00000000000E+00 0.  1.
         11    1    5    5    0    0  0.95803210565E+02  0.10701495466E+03 -0.10421031848E+03  0.17745491302E+03  0.00000000000E+00 0. -1.
        -11    1    5    5    0    0  0.17922830960E+03  0.27252717573E+03 -0.11045752762E+03  0.34437583231E+03  0.00000000000E+00 0.  1.
          3    1    6    6  503    0  0.36782344724E+02 -0.54707353781E+02 -0.10574094267E+02  0.66765611738E+02  0.00000000000E+00 0. -1.
         -3    1    6    6    0  503  0.35386598378E+03 -0.45827190205E+03 -0.37031693128E+03  0.68729098661E+03  0.00000000000E+00 0.  1.
<mgrwt>
<rscale>  0 0.22865306E+04</rscale>
<asrwt>0</asrwt>
<pdfrwt beam="1">  1        2 0.18829842E+00 0.22865306E+04</pdfrwt>
<pdfrwt beam="2">  1       -1 0.16429361E+00 0.22865306E+04</pdfrwt>
<totfact> 0.51436935E+00</totfact>
</mgrwt>
</event>
<event>
12    6  0.1494052E-007  0.1364278E+04  0.7818608E-02  0.8980090E-01
         -1   -1    0    0    0  501 -0.00000000000E+00  0.00000000000E+00  0.25709525002E+03  0.25709525002E+03  0.00000000000E+00 0.  1.
          2   -1    0    0  501    0  0.00000000000E+00 -0.00000000000E+00 -0.18098871187E+04  0.18098871187E+04  0.00000000000E+00 0. -1.
         24    2    1    2    0    0 -0.37697432711E+03 -0.18324557218E+02 -0.43412663125E+03  0.58068926088E+03  0.79301028064E+02 0.  0.
        254    2    1    2    0    0  0.37697432711E+03  0.18324557218E+02 -0.11186652374E+04  0.14862931078E+04  0.90288972541E+03 0.  0.
         23    2    4    4    0    0  0.24856828929E+03  0.13506667209E+03 -0.12269993160E+04  0.12625502883E+04  0.92069043332E+02 0.  0.
         23    2    4    4    0    0  0.12840603782E+03 -0.11674211487E+03  0.10833407860E+03  0.22374281948E+03  0.90596604510E+02 0.  0.
          4    1    3    3  502    0 -0.12831634568E+03  0.55232110058E+01 -0.20389442255E+03  0.24097411889E+03  0.00000000000E+00 0. -1.
         -3    1    3    3    0  502 -0.24865798143E+03 -0.23847768223E+02 -0.23023220870E+03  0.33971514199E+03  0.00000000000E+00 0.  1.
         11    1    5    5    0    0  0.62079414251E+02 -0.77910254100E+01 -0.26328536303E+03  0.27061732416E+03  0.00000000000E+00 0. -1.
        -11    1    5    5    0    0  0.18648887504E+03  0.14285769750E+03 -0.96371395296E+03  0.99193296416E+03  0.00000000000E+00 0.  1.
          1    1    6    6  503    0  0.47967795366E+01 -0.83480909175E+00 -0.13950453802E+02  0.14775694956E+02  0.00000000000E+00 0. -1.
         -1    1    6    6    0  503  0.12360925828E+03 -0.11590730578E+03  0.12228453240E+03  0.20896712452E+03  0.00000000000E+00 0.  1.
<mgrwt>
<rscale>  0 0.13642777E+04</rscale>
<asrwt>0</asrwt>
<pdfrwt beam="1">  1        2 0.27844416E+00 0.13642777E+04</pdfrwt>
<pdfrwt beam="2">  1       -1 0.39553117E-01 0.13642777E+04</pdfrwt>
<totfact> 0.58897374E+01</totfact>
</mgrwt>
</event>
<event>
12    6  0.1494052E-007  0.2886815E+04  0.7818608E-02  0.8276811E-01
         -1   -1    0    0    0  501 -0.00000000000E+00  0.00000000000E+00  0.10906898829E+04  0.10906898829E+04  0.00000000000E+00 0.  1.
          2   -1    0    0  501    0  0.00000000000E+00 -0.00000000000E+00 -0.19101902843E+04  0.19101902843E+04  0.00000000000E+00 0. -1.
         24    2    1    2    0    0  0.91711104317E+03  0.13053710440E+02 -0.13348030609E+04  0.16215166068E+04  0.79710913521E+02 0.  0.
        254    2    1    2    0    0 -0.91711104317E+03 -0.13053710440E+02  0.51530265946E+03  0.13793635604E+04  0.89210085538E+03 0.  0.
         23    2    4    4    0    0 -0.88345796588E+03  0.25917629420E+03  0.56886908074E+03  0.10860125878E+04  0.90227383756E+02 0.  0.
         23    2    4    4    0    0 -0.33653077285E+02 -0.27223000464E+03 -0.53566421275E+02  0.29335097269E+03  0.89127586394E+02 0.  0.
          2    1    3    3  502    0  0.63366531605E+03  0.78593301064E+01 -0.85544343782E+03  0.10646017928E+04  0.00000000000E+00 0. -1.
         -1    1    3    3    0  502  0.28344572712E+03  0.51943803333E+01 -0.47935962309E+03  0.55691481401E+03  0.00000000000E+00 0.  1.
         11    1    5    5    0    0 -0.53856398494E+03  0.16383992973E+03  0.29598013766E+03  0.63600230372E+03  0.00000000000E+00 0. -1.
        -11    1    5    5    0    0 -0.34489398095E+03  0.95336364464E+02  0.27288894307E+03  0.45001028403E+03  0.00000000000E+00 0.  1.
          1    1    6    6  503    0 -0.17510653040E+02 -0.25691263610E+03 -0.27340210223E+02  0.25895600525E+03  0.00000000000E+00 0. -1.
         -1    1    6    6    0  503 -0.16142424246E+02 -0.15317368532E+02 -0.26226211052E+02  0.34394967443E+02  0.00000000000E+00 0.  1.
<mgrwt>
<rscale>  0 0.28868150E+04</rscale>
<asrwt>0</asrwt>
<pdfrwt beam="1">  1        2 0.29387543E+00 0.28868150E+04</pdfrwt>
<pdfrwt beam="2">  1       -1 0.16779844E+00 0.28868150E+04</pdfrwt>
<totfact> 0.18821714E+00</totfact>
</mgrwt>
</event>
<event>
12    6  0.1494052E-007  0.1677067E+04  0.7818608E-02  0.8774553E-01
          2   -1    0    0  501    0  0.00000000000E+00  0.00000000000E+00  0.11026233305E+04  0.11026233305E+04  0.00000000000E+00 0. -1.
         -1   -1    0    0    0  501 -0.00000000000E+00 -0.00000000000E+00 -0.63769630587E+03  0.63769630587E+03  0.00000000000E+00 0.  1.
         24    2    1    2    0    0 -0.27849843187E+03  0.71786258178E+02  0.70633306959E+03  0.76685831539E+03  0.80315797151E+02 0.  0.
        254    2    1    2    0    0  0.27849843187E+03 -0.71786258178E+02 -0.24140604494E+03  0.97346132100E+03  0.89812884462E+03 0.  0.
         23    2    4    4    0    0  0.46760394019E+03  0.41758968712E+02 -0.45062566614E+03  0.65647839713E+03  0.86620658949E+02 0.  0.
         23    2    4    4    0    0 -0.18910550833E+03 -0.11354522689E+03  0.20921962120E+03  0.31698292388E+03  0.89732448444E+02 0.  0.
          2    1    3    3  502    0 -0.26346055069E+03  0.85943593380E+02  0.67027140829E+03  0.72530098841E+03  0.00000000000E+00 0. -1.
         -1    1    3    3    0  502 -0.15037881181E+02 -0.14157335202E+02  0.36061661293E+02  0.41557326979E+02  0.00000000000E+00 0.  1.
         11    1    5    5    0    0  0.34983436802E+03  0.68358209290E+02 -0.32819959636E+03  0.48453266647E+03  0.00000000000E+00 0.  1.
        -11    1    5    5    0    0  0.11776957217E+03 -0.26599240578E+02 -0.12242606978E+03  0.17194573066E+03  0.00000000000E+00 0. -1.
          2    1    6    6  503    0 -0.16225715219E+02  0.12869808177E+02  0.35999988384E+02  0.41531975158E+02  0.00000000000E+00 0. -1.
         -2    1    6    6    0  503 -0.17287979311E+03 -0.12641503507E+03  0.17321963282E+03  0.27545094872E+03  0.00000000000E+00 0.  1.
<mgrwt>
<rscale>  0 0.16770675E+04</rscale>
<asrwt>0</asrwt>
<pdfrwt beam="1">  1        2 0.16963436E+00 0.16770675E+04</pdfrwt>
<pdfrwt beam="2">  1       -1 0.98107124E-01 0.16770675E+04</pdfrwt>
<totfact> 0.23498956E+01</totfact>
</mgrwt>
</event>
<event>
12    6  0.1494052E-007  0.2132835E+04  0.7818608E-02  0.8546916E-01
         -1   -1    0    0    0  501 -0.00000000000E+00  0.00000000000E+00  0.26178873075E+03  0.26178873075E+03  0.00000000000E+00 0.  1.
          2   -1    0    0  501    0  0.00000000000E+00 -0.00000000000E+00 -0.43441369394E+04  0.43441369394E+04  0.00000000000E+00 0. -1.
         24    2    1    2    0    0 -0.56113207669E+03  0.47872056646E+03 -0.26862417680E+04  0.27870484341E+04  0.87758471082E+02 0.  0.
        254    2    1    2    0    0  0.56113207669E+03 -0.47872056646E+03 -0.13961064407E+04  0.18188772361E+04  0.90286135049E+03 0.  0.
         23    2    4    4    0    0  0.61887463639E+03  0.20870756287E+02 -0.56465762535E+03  0.84293606706E+03  0.90893207965E+02 0.  0.
         23    2    4    4    0    0 -0.57742559697E+02 -0.49959132275E+03 -0.83144881532E+03  0.97594116908E+03  0.90710198040E+02 0.  0.
          4    1    3    3  502    0 -0.25632216799E+03  0.27128265233E+03 -0.12837845218E+04  0.13369360604E+04  0.00000000000E+00 0. -1.
         -3    1    3    3    0  502 -0.30480990870E+03  0.20743791414E+03 -0.14024572462E+04  0.14501123736E+04  0.00000000000E+00 0.  1.
         11    1    5    5    0    0  0.49268756416E+03  0.48665399240E+01 -0.49271757646E+03  0.69680365185E+03  0.00000000000E+00 0. -1.
        -11    1    5    5    0    0  0.12618707223E+03  0.16004216363E+02 -0.71940048889E+02  0.14613241521E+03  0.00000000000E+00 0.  1.
          3    1    6    6  503    0 -0.61303777700E+01 -0.34958047806E+03 -0.61720797664E+03  0.70935870940E+03  0.00000000000E+00 0. -1.
         -3    1    6    6    0  503 -0.51612181927E+02 -0.15001084469E+03 -0.21424083868E+03  0.26658245968E+03  0.00000000000E+00 0.  1.
<mgrwt>
<rscale>  0 0.21328348E+04</rscale>
<asrwt>0</asrwt>
<pdfrwt beam="1">  1        2 0.66832867E+00 0.21328348E+04</pdfrwt>
<pdfrwt beam="2">  1       -1 0.40275195E-01 0.21328348E+04</pdfrwt>
<totfact> 0.11005734E+00</totfact>
</mgrwt>
</event>
<event>
12    6  0.1494052E-007  0.1893612E+04  0.7818608E-02  0.8658043E-01
          2   -1    0    0  501    0  0.00000000000E+00  0.00000000000E+00  0.34041227291E+04  0.34041227291E+04  0.00000000000E+00 0. -1.
         -1   -1    0    0    0  501 -0.00000000000E+00 -0.00000000000E+00 -0.26334001342E+03  0.26334001342E+03  0.00000000000E+00 0.  1.
         24    2    1    2    0    0 -0.30954080965E+03 -0.61986137522E+03  0.15302483213E+04  0.16818179513E+04  0.82510964663E+02 0.  0.
        254    2    1    2    0    0  0.30954080965E+03  0.61986137522E+03  0.16105343944E+04  0.19856447912E+04  0.93215908726E+03 0.  0.
         23    2    4    4    0    0  0.15529034333E+03 -0.78778001711E+02  0.10602661170E+04  0.10782616923E+04  0.90349177582E+02 0.  0.
         23    2    4    4    0    0  0.15425046632E+03  0.69863937693E+03  0.55026827739E+03  0.90738309891E+03  0.93052274198E+02 0.  0.
          2    1    3    3  502    0 -0.22326558847E+03 -0.50405425473E+03  0.12622850438E+04  0.13774185081E+04  0.00000000000E+00 0. -1.
         -1    1    3    3    0  502 -0.86275221179E+02 -0.11580712048E+03  0.26796327745E+03  0.30439944317E+03  0.00000000000E+00 0.  1.
         11    1    5    5    0    0  0.10911481379E+03 -0.96825575153E+02  0.74935443999E+03  0.76342210561E+03  0.00000000000E+00 0. -1.
        -11    1    5    5    0    0  0.46175529541E+02  0.18047573442E+02  0.31091167704E+03  0.31483958670E+03  0.00000000000E+00 0.  1.
          2    1    6    6  503    0  0.10673748684E+03  0.54649918355E+03  0.37986402827E+03  0.67405558279E+03  0.00000000000E+00 0.  1.
         -2    1    6    6    0  503  0.47512979477E+02  0.15214019338E+03  0.17040424913E+03  0.23332751612E+03  0.00000000000E+00 0. -1.
<mgrwt>
<rscale>  0 0.18936121E+04</rscale>
<asrwt>0</asrwt>
<pdfrwt beam="1">  1        2 0.52371116E+00 0.18936121E+04</pdfrwt>
<pdfrwt beam="2">  1       -1 0.40513851E-01 0.18936121E+04</pdfrwt>
<totfact> 0.60481946E+00</totfact>
</mgrwt>
</event>
<event>
12    6  0.1681675E-007  0.1657642E+04  0.7818608E-02  0.8785898E-01
         -1   -1    0    0    0  501 -0.00000000000E+00  0.00000000000E+00  0.34217614650E+03  0.34217614650E+03  0.00000000000E+00 0.  1.
          2   -1    0    0  501    0  0.00000000000E+00 -0.00000000000E+00 -0.20075750947E+04  0.20075750947E+04  0.00000000000E+00 0. -1.
         24    2    1    2    0    0  0.43030578764E+03 -0.65687590339E+02 -0.42669693657E+02  0.44459183019E+03  0.79770058990E+02 0.  0.
        254    2    1    2    0    0 -0.43030578764E+03  0.65687590339E+02 -0.16227292546E+04  0.19051594110E+04  0.89827847433E+03 0.  0.
         23    2    4    4    0    0 -0.87114559279E+02 -0.20322431822E+03 -0.13763348104E+04  0.13963628581E+04  0.81502461029E+02 0.  0.
         23    2    4    4    0    0 -0.34319122836E+03  0.26891190856E+03 -0.24639444417E+03  0.50879655296E+03  0.89832490757E+02 0.  0.
          4    1    3    3  502    0  0.29163414959E+02  0.57737997362E+01 -0.21303138418E+02  0.36574106167E+02  0.00000000000E+00 0. -1.
         -3    1    3    3    0  502  0.40114237268E+03 -0.71461390075E+02 -0.21366555239E+02  0.40801772402E+03  0.00000000000E+00 0.  1.
         11    1    5    5    0    0 -0.26040204813E+02 -0.13237183287E+02 -0.89516362422E+02  0.94162064704E+02  0.00000000000E+00 0. -1.
        -11    1    5    5    0    0 -0.61074354465E+02 -0.18998713493E+03 -0.12868184480E+04  0.13022007934E+04  0.00000000000E+00 0.  1.
          2    1    6    6  503    0 -0.29623810896E+03  0.25373566621E+03 -0.19001068519E+03  0.43386964170E+03  0.00000000000E+00 0. -1.
         -2    1    6    6    0  503 -0.46953119403E+02  0.15176242352E+02 -0.56383758981E+02  0.74926911256E+02  0.00000000000E+00 0.  1.
<mgrwt>
<rscale>  0 0.16576421E+04</rscale>
<asrwt>0</asrwt>
<pdfrwt beam="1">  1        2 0.30885771E+00 0.16576421E+04</pdfrwt>
<pdfrwt beam="2">  1       -1 0.52642484E-01 0.16576421E+04</pdfrwt>
<totfact> 0.26169380E+01</totfact>
</mgrwt>
</event>
<event>
12    6  0.1494052E-007  0.1361275E+04  0.7818608E-02  0.8982336E-01
         -1   -1    0    0    0  501 -0.00000000000E+00  0.00000000000E+00  0.34096635711E+03  0.34096635711E+03  0.00000000000E+00 0.  1.
          2   -1    0    0  501    0  0.00000000000E+00 -0.00000000000E+00 -0.13586901443E+04  0.13586901443E+04  0.00000000000E+00 0. -1.
         24    2    1    2    0    0  0.25012725190E+03  0.21836328811E+03 -0.10797576861E+03  0.36360319510E+03  0.10150048839E+03 0.  0.
        254    2    1    2    0    0 -0.25012725190E+03 -0.21836328811E+03 -0.90974801856E+03  0.13360533063E+04  0.92040795967E+03 0.  0.
         23    2    4    4    0    0 -0.18208653263E+03 -0.36304243870E+03 -0.10337886725E+04  0.11142838843E+04  0.89186533331E+02 0.  0.
         23    2    4    4    0    0 -0.68040719268E+02  0.14467915059E+03  0.12404065397E+03  0.22176942198E+03  0.90741372002E+02 0.  0.
          2    1    3    3  502    0  0.10026089145E+03  0.15330948631E+03 -0.46035720765E+02  0.18887914796E+03  0.00000000000E+00 0. -1.
         -1    1    3    3    0  502  0.14986636045E+03  0.65053801802E+02 -0.61940047847E+02  0.17472404715E+03  0.00000000000E+00 0.  1.
         11    1    5    5    0    0 -0.12935843223E+03 -0.29470151799E+03 -0.89201713423E+03  0.94830224953E+03  0.00000000000E+00 0.  1.
        -11    1    5    5    0    0 -0.52728100397E+02 -0.68340920709E+02 -0.14177153830E+03  0.16598163478E+03  0.00000000000E+00 0. -1.
          3    1    6    6  503    0  0.21006051817E+02  0.47882302216E+02  0.36870667389E+02  0.63979803002E+02  0.00000000000E+00 0. -1.
         -3    1    6    6    0  503 -0.89046771085E+02  0.96796848374E+02  0.87169986578E+02  0.15778961897E+03  0.00000000000E+00 0.  1.
<mgrwt>
<rscale>  0 0.13612753E+04</rscale>
<asrwt>0</asrwt>
<pdfrwt beam="1">  1        2 0.20902925E+00 0.13612753E+04</pdfrwt>
<pdfrwt beam="2">  1       -1 0.52456364E-01 0.13612753E+04</pdfrwt>
<totfact> 0.62244191E+01</totfact>
</mgrwt>
</event>
<event>
12    6  0.1494052E-007  0.2643435E+04  0.7818608E-02  0.8353595E-01
          2   -1    0    0  501    0  0.00000000000E+00  0.00000000000E+00  0.21142595360E+04  0.21142595360E+04  0.00000000000E+00 0. -1.
         -1   -1    0    0    0  501 -0.00000000000E+00 -0.00000000000E+00 -0.82626451647E+03  0.82626451647E+03  0.00000000000E+00 0.  1.
         24    2    1    2    0    0  0.29454133573E+03 -0.11306621197E+04  0.55148924570E+03  0.12945151318E+04  0.80483607481E+02 0.  0.
        254    2    1    2    0    0 -0.29454133573E+03  0.11306621197E+04  0.73650577381E+03  0.16460089206E+04  0.89540671458E+03 0.  0.
         23    2    4    4    0    0 -0.59062681910E+03  0.92086181249E+03  0.55159248600E+03  0.12285151590E+04  0.90380906362E+02 0.  0.
         23    2    4    4    0    0  0.29608548337E+03  0.20980030720E+03  0.18491328781E+03  0.41749376157E+03  0.91789621270E+02 0.  0.
          4    1    3    3  502    0  0.35408839663E+02 -0.61002266117E+02  0.30990975365E+02  0.77042215388E+02  0.00000000000E+00 0. -1.
         -3    1    3    3    0  502  0.25913249607E+03 -0.10696598536E+04  0.52049827034E+03  0.12174729165E+04  0.00000000000E+00 0.  1.
         11    1    5    5    0    0 -0.14907136197E+03  0.18868303215E+03  0.15419785156E+03  0.28565807359E+03  0.00000000000E+00 0.  1.
        -11    1    5    5    0    0 -0.44155545713E+03  0.73217878034E+03  0.39739463445E+03  0.94285708546E+03  0.00000000000E+00 0. -1.
          3    1    6    6  503    0  0.17721481298E+03  0.10377641377E+03  0.15030911160E+03  0.25449452455E+03  0.00000000000E+00 0. -1.
         -3    1    6    6    0  503  0.11887067039E+03  0.10602389343E+03  0.34604176208E+02  0.16299923702E+03  0.00000000000E+00 0.  1.
<mgrwt>
<rscale>  0 0.26434354E+04</rscale>
<asrwt>0</asrwt>
<pdfrwt beam="1">  1        2 0.32527070E+00 0.26434354E+04</pdfrwt>
<pdfrwt beam="2">  1       -1 0.12711762E+00 0.26434354E+04</pdfrwt>
<totfact> 0.31035081E+00</totfact>
</mgrwt>
</event>
<event>
12    6  0.1494052E-007  0.2055666E+04  0.7818608E-02  0.8581028E-01
         -1   -1    0    0    0  501 -0.00000000000E+00  0.00000000000E+00  0.90032322389E+03  0.90032322389E+03  0.00000000000E+00 0.  1.
          2   -1    0    0  501    0  0.00000000000E+00 -0.00000000000E+00 -0.11734018103E+04  0.11734018103E+04  0.00000000000E+00 0. -1.
         24    2    1    2    0    0 -0.48728693620E+03 -0.39204371753E+03 -0.66115942845E+03  0.91367840237E+03  0.80805931035E+02 0.  0.
        254    2    1    2    0    0  0.48728693620E+03  0.39204371753E+03  0.38808084203E+03  0.11600466318E+04  0.89663516182E+03 0.  0.
         23    2    4    4    0    0  0.52925658760E+03  0.42965533295E+03 -0.69949971788E+02  0.69009567705E+03  0.81380613679E+02 0.  0.
         23    2    4    4    0    0 -0.41969651397E+02 -0.37611615419E+02  0.45803081382E+03  0.46995095477E+03  0.88800834640E+02 0.  0.
          2    1    3    3  502    0 -0.41210175374E+03 -0.31526768777E+03 -0.58510290803E+03  0.78202748249E+03  0.00000000000E+00 0. -1.
         -1    1    3    3    0  502 -0.75185182460E+02 -0.76776029761E+02 -0.76056520418E+02  0.13165091988E+03  0.00000000000E+00 0.  1.
         11    1    5    5    0    0  0.33632901674E+02  0.30875535107E+02  0.15569259567E+02  0.48237667715E+02  0.00000000000E+00 0.  1.
        -11    1    5    5    0    0  0.49562368592E+03  0.39877979784E+03 -0.85519231355E+02  0.64185800933E+03  0.00000000000E+00 0. -1.
          2    1    6    6  503    0 -0.35581147982E+02 -0.65315893503E+02  0.37138243017E+03  0.37875730154E+03  0.00000000000E+00 0. -1.
         -2    1    6    6    0  503 -0.63885034148E+01  0.27704278084E+02  0.86648383653E+02  0.91193653231E+02  0.00000000000E+00 0.  1.
<mgrwt>
<rscale>  0 0.20556662E+04</rscale>
<asrwt>0</asrwt>
<pdfrwt beam="1">  1        2 0.18052335E+00 0.20556662E+04</pdfrwt>
<pdfrwt beam="2">  1       -1 0.13851127E+00 0.20556662E+04</pdfrwt>
<totfact> 0.89328312E+00</totfact>
</mgrwt>
</event>
<event>
12    6  0.1494052E-007  0.1588764E+04  0.7818608E-02  0.8827480E-01
          2   -1    0    0  501    0  0.00000000000E+00  0.00000000000E+00  0.65242509289E+03  0.65242509289E+03  0.00000000000E+00 0. -1.
         -1   -1    0    0    0  501 -0.00000000000E+00 -0.00000000000E+00 -0.96722688298E+03  0.96722688298E+03  0.00000000000E+00 0.  1.
         24    2    1    2    0    0 -0.47863384716E+02 -0.46199967814E+03  0.13202579895E+03  0.48990048543E+03  0.82686563814E+02 0.  0.
        254    2    1    2    0    0  0.47863384716E+02  0.46199967814E+03 -0.44682758904E+03  0.11297514904E+04  0.92787333706E+03 0.  0.
         23    2    4    4    0    0  0.30532228789E+03  0.61735842724E+03 -0.42766908255E+03  0.81500894300E+03  0.83579936828E+02 0.  0.
         23    2    4    4    0    0 -0.25745890317E+03 -0.15535874910E+03 -0.19158506492E+02  0.31474254744E+03  0.90963701861E+02 0.  0.
          2    1    3    3  502    0 -0.30526932224E+02 -0.44881180759E+03  0.12334905207E+03  0.46645355704E+03  0.00000000000E+00 0. -1.
         -1    1    3    3    0  502 -0.17336452492E+02 -0.13187870550E+02  0.86767468755E+01  0.23446928392E+02  0.00000000000E+00 0.  1.
         11    1    5    5    0    0  0.29328852314E+03  0.61481391202E+03 -0.41672410269E+03  0.79854447715E+03  0.00000000000E+00 0.  1.
        -11    1    5    5    0    0  0.12033764750E+02  0.25445152168E+01 -0.10944979857E+02  0.16464465852E+02  0.00000000000E+00 0. -1.
          4    1    6    6  503    0 -0.85672764162E+01 -0.10795981086E+02  0.19972126865E+02  0.24265969676E+02  0.00000000000E+00 0. -1.
         -4    1    6    6    0  503 -0.24889162675E+03 -0.14456276801E+03 -0.39130633357E+02  0.29047657776E+03  0.00000000000E+00 0.  1.
<mgrwt>
<rscale>  0 0.15887644E+04</rscale>
<asrwt>0</asrwt>
<pdfrwt beam="1">  1        2 0.10037309E+00 0.15887644E+04</pdfrwt>
<pdfrwt beam="2">  1       -1 0.14880414E+00 0.15887644E+04</pdfrwt>
<totfact> 0.17494177E+01</totfact>
</mgrwt>
</event>
<event>
12    6  0.1494052E-007  0.1901118E+04  0.7818608E-02  0.8654300E-01
         -1   -1    0    0    0  501 -0.00000000000E+00  0.00000000000E+00  0.66250790464E+03  0.66250790464E+03  0.00000000000E+00 0.  1.
          2   -1    0    0  501    0  0.00000000000E+00 -0.00000000000E+00 -0.13638516477E+04  0.13638516477E+04  0.00000000000E+00 0. -1.
         24    2    1    2    0    0 -0.39380464791E+03  0.42574508768E+03  0.21001776907E+03  0.62184747800E+03  0.79030640680E+02 0.  0.
        254    2    1    2    0    0  0.39380464791E+03 -0.42574508768E+03 -0.91136151215E+03  0.14045120744E+04  0.89762652635E+03 0.  0.
         23    2    4    4    0    0  0.15241182644E+03 -0.65837461338E+03 -0.77223235557E+03  0.10303239064E+04  0.92401540936E+02 0.  0.
         23    2    4    4    0    0  0.24139282147E+03  0.23262952570E+03 -0.13912915659E+03  0.37418816795E+03  0.90955331560E+02 0.  0.
          2    1    3    3  502    0 -0.11529585538E+03  0.17675396084E+03  0.61345302842E+02  0.21976884020E+03  0.00000000000E+00 0. -1.
         -1    1    3    3    0  502 -0.27850879252E+03  0.24899112684E+03  0.14867246623E+03  0.40207863780E+03  0.00000000000E+00 0.  1.
         11    1    5    5    0    0  0.12856780547E+03 -0.63759550407E+03 -0.73794367894E+03  0.98367605476E+03  0.00000000000E+00 0. -1.
        -11    1    5    5    0    0  0.23844020969E+02 -0.20779109311E+02 -0.34288676621E+02  0.46647851656E+02  0.00000000000E+00 0.  1.
          3    1    6    6  503    0  0.23315119463E+03  0.22856848957E+03 -0.11140976647E+03  0.34498575340E+03  0.00000000000E+00 0. -1.
         -3    1    6    6    0  503  0.82416268374E+01  0.40610361218E+01 -0.27719390111E+02  0.29202414548E+02  0.00000000000E+00 0.  1.
<mgrwt>
<rscale>  0 0.19011181E+04</rscale>
<asrwt>0</asrwt>
<pdfrwt beam="1">  1        2 0.20982333E+00 0.19011181E+04</pdfrwt>
<pdfrwt beam="2">  1       -1 0.10192429E+00 0.19011181E+04</pdfrwt>
<totfact> 0.14780560E+01</totfact>
</mgrwt>
</event>
<event>
12    6  0.1494052E-007  0.2080264E+04  0.7818608E-02  0.8569987E-01
          2   -1    0    0  501    0  0.00000000000E+00  0.00000000000E+00  0.82150408846E+03  0.82150408846E+03  0.00000000000E+00 0. -1.
         -1   -1    0    0    0  501 -0.00000000000E+00 -0.00000000000E+00 -0.13169435244E+04  0.13169435244E+04  0.00000000000E+00 0.  1.
         24    2    1    2    0    0  0.46840912190E+03  0.18192641583E+01 -0.91997848294E+03  0.10352234239E+04  0.76920174287E+02 0.  0.
        254    2    1    2    0    0 -0.46840912190E+03 -0.18192641583E+01  0.42453904696E+03  0.11032241890E+04  0.90413483147E+03 0.  0.
         23    2    4    4    0    0  0.11996748608E+03 -0.30152751201E+03  0.59094723979E+02  0.34260654692E+03  0.92606810637E+02 0.  0.
         23    2    4    4    0    0 -0.58837660798E+03  0.29970824785E+03  0.36544432298E+03  0.76061764203E+03  0.94750079287E+02 0.  0.
          4    1    3    3  502    0  0.48076411868E+02 -0.54165196751E-01 -0.51981350191E+02  0.70805402898E+02  0.00000000000E+00 0. -1.
         -3    1    3    3    0  502  0.42033271004E+03  0.18734293551E+01 -0.86799713275E+03  0.96441802105E+03  0.00000000000E+00 0.  1.
         11    1    5    5    0    0  0.30300511453E+01 -0.12665455363E+03  0.14029547618E+02  0.12746523201E+03  0.00000000000E+00 0. -1.
        -11    1    5    5    0    0  0.11693743493E+03 -0.17487295838E+03  0.45065176361E+02  0.21514131491E+03  0.00000000000E+00 0.  1.
          4    1    6    6  503    0 -0.75803364312E+02  0.32134832211E+02  0.12711963770E+02  0.83309012148E+02  0.00000000000E+00 0. -1.
         -4    1    6    6    0  503 -0.51257324367E+03  0.26757341564E+03  0.35273235921E+03  0.67730862989E+03  0.00000000000E+00 0.  1.
<mgrwt>
<rscale>  0 0.20802639E+04</rscale>
<asrwt>0</asrwt>
<pdfrwt beam="1">  1        2 0.12638524E+00 0.20802639E+04</pdfrwt>
<pdfrwt beam="2">  1       -1 0.20260670E+00 0.20802639E+04</pdfrwt>
<totfact> 0.50557453E+00</totfact>
</mgrwt>
</event>
<event>
12    6  0.1494052E-007  0.1588640E+04  0.7818608E-02  0.8827557E-01
          2   -1    0    0  501    0  0.00000000000E+00  0.00000000000E+00  0.47413733069E+03  0.47413733069E+03  0.00000000000E+00 0. -1.
         -1   -1    0    0    0  501 -0.00000000000E+00 -0.00000000000E+00 -0.13307203644E+04  0.13307203644E+04  0.00000000000E+00 0.  1.
         24    2    1    2    0    0 -0.99650972289E+02 -0.37992889461E+03  0.11255421647E+03  0.41645936749E+03  0.80583322640E+02 0.  0.
        254    2    1    2    0    0  0.99650972289E+02  0.37992889461E+03 -0.96913725013E+03  0.13883983276E+04  0.91331627881E+03 0.  0.
         23    2    4    4    0    0 -0.22080802611E+03 -0.17528823780E+03 -0.11865592278E+03  0.31926688673E+03  0.91487519650E+02 0.  0.
         23    2    4    4    0    0  0.32045899839E+03  0.55521713240E+03 -0.85048132735E+03  0.10691314408E+04  0.93613651877E+02 0.  0.
          4    1    3    3  502    0 -0.84638370820E+02 -0.20124400143E+03  0.88354828345E+02  0.23551937844E+03  0.00000000000E+00 0. -1.
         -3    1    3    3    0  502 -0.15012601468E+02 -0.17868489318E+03  0.24199388121E+02  0.18093998905E+03  0.00000000000E+00 0.  1.
         11    1    5    5    0    0 -0.12665445486E+03 -0.12687542541E+03 -0.11567689276E+03  0.21335385637E+03  0.00000000000E+00 0.  1.
        -11    1    5    5    0    0 -0.94153571247E+02 -0.48412812386E+02 -0.29790300219E+01  0.10591303037E+03  0.00000000000E+00 0. -1.
          4    1    6    6  503    0  0.21793589046E+03  0.37367640606E+03 -0.64319381591E+03  0.77513121058E+03  0.00000000000E+00 0. -1.
         -4    1    6    6    0  503  0.10252310793E+03  0.18154072634E+03 -0.20728751145E+03  0.29400023024E+03  0.00000000000E+00 0.  1.
<mgrwt>
<rscale>  0 0.15886399E+04</rscale>
<asrwt>0</asrwt>
<pdfrwt beam="1">  1        2 0.72944205E-01 0.15886399E+04</pdfrwt>
<pdfrwt beam="2">  1       -1 0.20472621E+00 0.15886399E+04</pdfrwt>
<totfact> 0.10034575E+01</totfact>
</mgrwt>
</event>
<event>
12    6  0.1494052E-007  0.1626946E+04  0.7818608E-02  0.8804163E-01
         -1   -1    0    0    0  501 -0.00000000000E+00  0.00000000000E+00  0.37103080514E+03  0.37103080514E+03  0.00000000000E+00 0.  1.
          2   -1    0    0  501    0  0.00000000000E+00 -0.00000000000E+00 -0.17835125224E+04  0.17835125224E+04  0.00000000000E+00 0. -1.
         24    2    1    2    0    0 -0.24057091359E+03  0.48403891394E+03 -0.38005405439E+03  0.66565952228E+03  0.80582136198E+02 0.  0.
        254    2    1    2    0    0  0.24057091359E+03 -0.48403891394E+03 -0.10324276628E+04  0.14888838052E+04  0.92666071017E+03 0.  0.
         23    2    4    4    0    0  0.27272879450E+03  0.21980178026E+03 -0.32241593976E+03  0.48442517728E+03  0.89565039023E+02 0.  0.
         23    2    4    4    0    0 -0.32157880907E+02 -0.70384069420E+03 -0.71001172307E+03  0.10044586279E+04  0.91622247431E+02 0.  0.
          2    1    3    3  502    0  0.48337672662E+01  0.60281499293E+01 -0.39008224730E+00  0.77366699370E+01  0.00000000000E+00 0. -1.
         -1    1    3    3    0  502 -0.24540468086E+03  0.47801076401E+03 -0.37966397214E+03  0.65792285234E+03  0.00000000000E+00 0.  1.
         11    1    5    5    0    0  0.26158957588E+03  0.21012414652E+03 -0.27211470071E+03  0.43200425172E+03  0.00000000000E+00 0. -1.
        -11    1    5    5    0    0  0.11139218617E+02  0.96776337372E+01 -0.50301239057E+02  0.52420925562E+02  0.00000000000E+00 0.  1.
          4    1    6    6  503    0  0.26977872956E+02 -0.22435561073E+03 -0.25633725923E+03  0.34171923587E+03  0.00000000000E+00 0. -1.
         -4    1    6    6    0  503 -0.59135753863E+02 -0.47948508347E+03 -0.45367446384E+03  0.66273939207E+03  0.00000000000E+00 0.  1.
<mgrwt>
<rscale>  0 0.16269457E+04</rscale>
<asrwt>0</asrwt>
<pdfrwt beam="1">  1        2 0.27438654E+00 0.16269457E+04</pdfrwt>
<pdfrwt beam="2">  1       -1 0.57081663E-01 0.16269457E+04</pdfrwt>
<totfact> 0.29851738E+01</totfact>
</mgrwt>
</event>
<event>
12    6  0.1494052E-007  0.1604651E+04  0.7818608E-02  0.8817696E-01
          2   -1    0    0  501    0  0.00000000000E+00  0.00000000000E+00  0.10437494864E+04  0.10437494864E+04  0.00000000000E+00 0. -1.
         -1   -1    0    0    0  501 -0.00000000000E+00 -0.00000000000E+00 -0.61674380702E+03  0.61674380702E+03  0.00000000000E+00 0.  1.
         24    2    1    2    0    0  0.37921970895E+03  0.60447258607E+02 -0.25294797085E+03  0.46667237268E+03  0.79617640838E+02 0.  0.
        254    2    1    2    0    0 -0.37921970895E+03 -0.60447258607E+02  0.67995365022E+03  0.11938209207E+04  0.90300053468E+03 0.  0.
         23    2    4    4    0    0  0.13308660863E+03  0.29927700050E+03  0.16505692238E+03  0.37809460643E+03  0.91831233036E+02 0.  0.
         23    2    4    4    0    0 -0.51230631758E+03 -0.35972425911E+03  0.51489672784E+03  0.81572631432E+03  0.91823057577E+02 0.  0.
          2    1    3    3  502    0  0.34125064515E+02 -0.14094189428E+02 -0.39698436292E+02  0.54213762531E+02  0.00000000000E+00 0. -1.
         -1    1    3    3    0  502  0.34509464444E+03  0.74541448035E+02 -0.21324953456E+03  0.41245861015E+03  0.00000000000E+00 0.  1.
         11    1    5    5    0    0  0.53332621390E+02  0.20136559511E+03  0.13517707294E+03  0.24832501373E+03  0.00000000000E+00 0. -1.
        -11    1    5    5    0    0  0.79753987236E+02  0.97911405393E+02  0.29879849445E+02  0.12976959270E+03  0.00000000000E+00 0.  1.
          4    1    6    6  503    0 -0.26791503872E+03 -0.14680139492E+03  0.28990141730E+03  0.42115549299E+03  0.00000000000E+00 0.  1.
         -4    1    6    6    0  503 -0.24439127886E+03 -0.21292286419E+03  0.22499531055E+03  0.39457082133E+03  0.00000000000E+00 0. -1.
<mgrwt>
<rscale>  0 0.16046508E+04</rscale>
<asrwt>0</asrwt>
<pdfrwt beam="1">  1        2 0.16057684E+00 0.16046508E+04</pdfrwt>
<pdfrwt beam="2">  1       -1 0.94883663E-01 0.16046508E+04</pdfrwt>
<totfact> 0.27741149E+01</totfact>
</mgrwt>
</event>
<event>
12    6  0.1494052E-007  0.2022317E+04  0.7818608E-02  0.8596257E-01
         -1   -1    0    0    0  501 -0.00000000000E+00  0.00000000000E+00  0.23389006272E+03  0.23389006272E+03  0.00000000000E+00 0.  1.
          2   -1    0    0  501    0  0.00000000000E+00 -0.00000000000E+00 -0.43714599561E+04  0.43714599561E+04  0.00000000000E+00 0. -1.
         24    2    1    2    0    0  0.65376175409E+03  0.18978100648E+03 -0.26725321098E+04  0.27590159452E+04  0.79497461886E+02 0.  0.
        254    2    1    2    0    0 -0.65376175409E+03 -0.18978100648E+03 -0.14650377836E+04  0.18463340737E+04  0.89397569462E+03 0.  0.
         23    2    4    4    0    0  0.17812804108E+03 -0.49321086886E+02 -0.59904272024E+03  0.63356952104E+03  0.91629627757E+02 0.  0.
         23    2    4    4    0    0 -0.83188979517E+03 -0.14045991959E+03 -0.86599506339E+03  0.12127645526E+04  0.95293179014E+02 0.  0.
          4    1    3    3  502    0  0.57679582321E+03  0.15074530862E+03 -0.22412942232E+04  0.23192277518E+04  0.00000000000E+00 0. -1.
         -3    1    3    3    0  502  0.76965930879E+02  0.39035697851E+02 -0.43123788657E+03  0.43978819338E+03  0.00000000000E+00 0.  1.
         11    1    5    5    0    0  0.13124051496E+03 -0.33481260973E+02 -0.53900935394E+03  0.55576627393E+03  0.00000000000E+00 0.  1.
        -11    1    5    5    0    0  0.46887526125E+02 -0.15839825912E+02 -0.60033366297E+02  0.77803247105E+02  0.00000000000E+00 0. -1.
          4    1    6    6  503    0 -0.25715654362E+03  0.92977874861E+00 -0.26334520647E+03  0.36807750568E+03  0.00000000000E+00 0. -1.
         -4    1    6    6    0  503 -0.57473325155E+03 -0.14138969834E+03 -0.60264985692E+03  0.84468704694E+03  0.00000000000E+00 0.  1.
<mgrwt>
<rscale>  0 0.20223165E+04</rscale>
<asrwt>0</asrwt>
<pdfrwt beam="1">  1        2 0.67253231E+00 0.20223165E+04</pdfrwt>
<pdfrwt beam="2">  1       -1 0.35983086E-01 0.20223165E+04</pdfrwt>
<totfact> 0.12900179E+00</totfact>
</mgrwt>
</event>
<event>
12    6  0.1494052E-007  0.1327996E+04  0.7818608E-02  0.9007654E-01
         -1   -1    0    0    0  501 -0.00000000000E+00  0.00000000000E+00  0.15089453350E+04  0.15089453350E+04  0.00000000000E+00 0.  1.
          2   -1    0    0  501    0  0.00000000000E+00 -0.00000000000E+00 -0.29218657608E+03  0.29218657608E+03  0.00000000000E+00 0. -1.
         24    2    1    2    0    0  0.53846771902E+01  0.78355185265E+02  0.79022765498E+03  0.79736139679E+03  0.71811702314E+02 0.  0.
        254    2    1    2    0    0 -0.53846771902E+01 -0.78355185265E+02  0.42653110393E+03  0.10037705143E+04  0.90523915784E+03 0.  0.
         23    2    4    4    0    0  0.83641618945E+02  0.39045330848E+03  0.11330395458E+03  0.42520504327E+03  0.92259612907E+02 0.  0.
         23    2    4    4    0    0 -0.89026296135E+02 -0.46880849375E+03  0.31322714935E+03  0.57856547100E+03  0.94444014796E+02 0.  0.
          2    1    3    3  502    0  0.31116732358E+02  0.90692451527E+01  0.25707262278E+03  0.25910776836E+03  0.00000000000E+00 0. -1.
         -3    1    3    3    0  502 -0.25732055168E+02  0.69285940112E+02  0.53315503220E+03  0.53825362843E+03  0.00000000000E+00 0.  1.
         11    1    5    5    0    0  0.51999695696E+02  0.33574593210E+03  0.65602288195E+02  0.34602450706E+03  0.00000000000E+00 0. -1.
        -11    1    5    5    0    0  0.31641923249E+02  0.54707376388E+02  0.47701666389E+02  0.79180536209E+02  0.00000000000E+00 0.  1.
          1    1    6    6  503    0 -0.72823709005E+02 -0.44845362563E+03  0.31442966817E+03  0.55252145946E+03  0.00000000000E+00 0. -1.
         -1    1    6    6    0  503 -0.16202587130E+02 -0.20354868114E+02 -0.12025188212E+01  0.26044011541E+02  0.00000000000E+00 0.  1.
<mgrwt>
<rscale>  0 0.13279963E+04</rscale>
<asrwt>0</asrwt>
<pdfrwt beam="1">  1        2 0.44951782E-01 0.13279963E+04</pdfrwt>
<pdfrwt beam="2">  1       -1 0.23214543E+00 0.13279963E+04</pdfrwt>
<totfact> 0.11584577E+01</totfact>
</mgrwt>
</event>
<event>
12    6  0.1494052E-007  0.1514406E+04  0.7818608E-02  0.8874929E-01
          2   -1    0    0  501    0  0.00000000000E+00  0.00000000000E+00  0.20947763842E+04  0.20947763842E+04  0.00000000000E+00 0. -1.
         -1   -1    0    0    0  501 -0.00000000000E+00 -0.00000000000E+00 -0.27370779793E+03  0.27370779793E+03  0.00000000000E+00 0.  1.
         24    2    1    2    0    0  0.44198145063E+03 -0.20918306550E+02  0.87593539488E+03  0.98457932157E+03  0.79677137285E+02 0.  0.
        254    2    1    2    0    0 -0.44198145063E+03  0.20918306550E+02  0.94513319138E+03  0.13839048606E+04  0.90891734242E+03 0.  0.
         23    2    4    4    0    0 -0.15376559015E+03  0.21280461069E+03  0.98535584237E+03  0.10237848409E+04  0.90992336542E+02 0.  0.
         23    2    4    4    0    0 -0.28821586049E+03 -0.19188630413E+03 -0.40222650987E+02  0.36012001966E+03  0.90442417904E+02 0.  0.
          4    1    3    3  502    0  0.20053971714E+03 -0.27761273684E+02  0.32318890453E+03  0.38136325790E+03  0.00000000000E+00 0. -1.
         -1    1    3    3    0  502  0.24144173350E+03  0.68429671330E+01  0.55274649036E+03  0.60321606368E+03  0.00000000000E+00 0.  1.
         11    1    5    5    0    0 -0.83107589543E+02  0.97967584731E+02  0.31848968814E+03  0.34342422825E+03  0.00000000000E+00 0.  1.
        -11    1    5    5    0    0 -0.70658000604E+02  0.11483702595E+03  0.66686615423E+03  0.68036061265E+03  0.00000000000E+00 0. -1.
          1    1    6    6  503    0 -0.53841575273E+02 -0.10990303590E+01 -0.19223497921E+02  0.57180993065E+02  0.00000000000E+00 0. -1.
         -1    1    6    6    0  503 -0.23437428522E+03 -0.19078727378E+03 -0.20999153066E+02  0.30293902660E+03  0.00000000000E+00 0.  1.
<mgrwt>
<rscale>  0 0.15144063E+04</rscale>
<asrwt>0</asrwt>
<pdfrwt beam="1">  1        2 0.32227328E+00 0.15144063E+04</pdfrwt>
<pdfrwt beam="2">  1       -1 0.42108893E-01 0.15144063E+04</pdfrwt>
<totfact> 0.36057119E+01</totfact>
</mgrwt>
</event>
<event>
12    6  0.1494052E-007  0.1114306E+04  0.7818608E-02  0.9191359E-01
          2   -1    0    0  501    0  0.00000000000E+00  0.00000000000E+00  0.26710176749E+04  0.26710176749E+04  0.00000000000E+00 0. -1.
         -1   -1    0    0    0  501 -0.00000000000E+00 -0.00000000000E+00 -0.11621765844E+03  0.11621765844E+03  0.00000000000E+00 0.  1.
         24    2    1    2    0    0  0.93079764092E+02  0.19897727654E+02  0.86975906688E+03  0.87853116625E+03  0.79223819700E+02 0.  0.
        254    2    1    2    0    0 -0.93079764092E+02 -0.19897727654E+02  0.16850409496E+04  0.19087041671E+04  0.89147564950E+03 0.  0.
         23    2    4    4    0    0  0.30203786444E+03 -0.75972474647E+02  0.13220218530E+04  0.13613054572E+04  0.91717388966E+02 0.  0.
         23    2    4    4    0    0 -0.39511762853E+03  0.56074746993E+02  0.36301909660E+03  0.54739870994E+03  0.92737077394E+02 0.  0.
          4    1    3    3  502    0  0.79257401927E+02  0.42080573404E+02  0.77685324170E+03  0.78201884220E+03  0.00000000000E+00 0. -1.
         -3    1    3    3    0  502  0.13822362165E+02 -0.22182845750E+02  0.92905825178E+02  0.96512324050E+02  0.00000000000E+00 0.  1.
         11    1    5    5    0    0  0.37558454977E+02  0.18857032612E+02  0.13027049104E+03  0.13688179592E+03  0.00000000000E+00 0.  1.
        -11    1    5    5    0    0  0.26447940946E+03 -0.94829507259E+02  0.11917513620E+04  0.12244236613E+04  0.00000000000E+00 0. -1.
          1    1    6    6  503    0 -0.14351537643E+03  0.65591402583E+02  0.14670340642E+03  0.21545483244E+03  0.00000000000E+00 0. -1.
         -1    1    6    6    0  503 -0.25160225210E+03 -0.95166555902E+01  0.21631569018E+03  0.33194387750E+03  0.00000000000E+00 0.  1.
<mgrwt>
<rscale>  0 0.11143059E+04</rscale>
<asrwt>0</asrwt>
<pdfrwt beam="1">  1        2 0.41092575E+00 0.11143059E+04</pdfrwt>
<pdfrwt beam="2">  1       -1 0.17879642E-01 0.11143059E+04</pdfrwt>
<totfact> 0.77857035E+01</totfact>
</mgrwt>
</event>
<event>
12    6  0.1494052E-007  0.1737804E+04  0.7818608E-02  0.8740092E-01
          2   -1    0    0  501    0  0.00000000000E+00  0.00000000000E+00  0.41346162215E+04  0.41346162215E+04  0.00000000000E+00 0. -1.
         -1   -1    0    0    0  501 -0.00000000000E+00 -0.00000000000E+00 -0.18260243775E+03  0.18260243775E+03  0.00000000000E+00 0.  1.
         24    2    1    2    0    0 -0.43079664476E+02  0.62834323989E+03  0.13107614719E+04  0.14563911848E+04  0.79426460155E+02 0.  0.
        254    2    1    2    0    0  0.43079664476E+02 -0.62834323989E+03  0.26412523119E+04  0.28608274744E+04  0.90080462845E+03 0.  0.
         23    2    4    4    0    0 -0.26329804423E+03 -0.71223063835E+03  0.17348765514E+04  0.18959823505E+04  0.91400668885E+02 0.  0.
         23    2    4    4    0    0  0.30637770871E+03  0.83887398460E+02  0.90637576044E+03  0.96484512392E+03  0.92220919686E+02 0.  0.
          4    1    3    3  502    0 -0.23878866644E+02  0.49610861088E+03  0.95653193875E+03  0.10777974318E+04  0.00000000000E+00 0. -1.
         -3    1    3    3    0  502 -0.19200797831E+02  0.13223462901E+03  0.35422953310E+03  0.37859375308E+03  0.00000000000E+00 0.  1.
         11    1    5    5    0    0 -0.51321718388E+02 -0.20656194652E+03  0.40534963694E+03  0.45783193935E+03  0.00000000000E+00 0.  1.
        -11    1    5    5    0    0 -0.21197632585E+03 -0.50566869183E+03  0.13295269145E+04  0.14381504111E+04  0.00000000000E+00 0. -1.
          1    1    6    6  503    0  0.10278994183E+03 -0.15326097348E+02  0.26432731993E+03  0.28402393115E+03  0.00000000000E+00 0. -1.
         -1    1    6    6    0  503  0.20358776688E+03  0.99213495808E+02  0.64204844051E+03  0.68082119277E+03  0.00000000000E+00 0.  1.
<mgrwt>
<rscale>  0 0.17378044E+04</rscale>
<asrwt>0</asrwt>
<pdfrwt beam="1">  1        2 0.63609473E+00 0.17378044E+04</pdfrwt>
<pdfrwt beam="2">  1       -1 0.28092686E-01 0.17378044E+04</pdfrwt>
<totfact> 0.33325260E+00</totfact>
</mgrwt>
</event>
<event>
12    6  0.1494052E-007  0.2625560E+04  0.7818608E-02  0.8359571E-01
          2   -1    0    0  501    0  0.00000000000E+00  0.00000000000E+00  0.17915226819E+04  0.17915226819E+04  0.00000000000E+00 0. -1.
         -1   -1    0    0    0  501 -0.00000000000E+00 -0.00000000000E+00 -0.96197014887E+03  0.96197014887E+03  0.00000000000E+00 0.  1.
         24    2    1    2    0    0 -0.69250384209E+03 -0.92003653145E+03  0.26146205389E+03  0.11835691580E+04  0.80279235265E+02 0.  0.
        254    2    1    2    0    0  0.69250384209E+03  0.92003653145E+03  0.56809047919E+03  0.15699236728E+04  0.90327446296E+03 0.  0.
         23    2    4    4    0    0  0.82174628620E+03  0.93695668230E+03  0.34595477688E+03  0.12964924140E+04  0.89739002675E+02 0.  0.
         23    2    4    4    0    0 -0.12924244410E+03 -0.16920150853E+02  0.22213570231E+03  0.27343125880E+03  0.91817657248E+02 0.  0.
          4    1    3    3  502    0 -0.64453500390E+03 -0.85134161492E+03  0.22061544976E+03  0.10903573236E+04  0.00000000000E+00 0. -1.
         -3    1    3    3    0  502 -0.47968838192E+02 -0.68694916525E+02  0.40846604122E+02  0.93211834346E+02  0.00000000000E+00 0.  1.
         11    1    5    5    0    0  0.72984479705E+02  0.96216914034E+02  0.60336280623E+02  0.13499961327E+03  0.00000000000E+00 0. -1.
        -11    1    5    5    0    0  0.74876180649E+03  0.84073976827E+03  0.28561849626E+03  0.11614928008E+04  0.00000000000E+00 0.  1.
          3    1    6    6  503    0 -0.23847096442E+01  0.25238651926E+02  0.42959307425E+02  0.49881644776E+02  0.00000000000E+00 0. -1.
         -3    1    6    6    0  503 -0.12685773446E+03 -0.42158802779E+02  0.17917639489E+03  0.22354961402E+03  0.00000000000E+00 0.  1.
<mgrwt>
<rscale>  0 0.26255600E+04</rscale>
<asrwt>0</asrwt>
<pdfrwt beam="1">  1        2 0.27561887E+00 0.26255600E+04</pdfrwt>
<pdfrwt beam="2">  1       -1 0.14799541E+00 0.26255600E+04</pdfrwt>
<totfact> 0.31704946E+00</totfact>
</mgrwt>
</event>
<event>
12    6  0.1494052E-007  0.2320241E+04  0.7818608E-02  0.8469983E-01
         -1   -1    0    0    0  501 -0.00000000000E+00  0.00000000000E+00  0.78792063419E+03  0.78792063419E+03  0.00000000000E+00 0.  1.
          2   -1    0    0  501    0  0.00000000000E+00 -0.00000000000E+00 -0.17081406153E+04  0.17081406153E+04  0.00000000000E+00 0. -1.
         24    2    1    2    0    0  0.67009529560E+03 -0.23913286266E+03 -0.11241634435E+04  0.13327494229E+04  0.79153934008E+02 0.  0.
        254    2    1    2    0    0 -0.67009529560E+03  0.23913286266E+03  0.20394346234E+03  0.11633118267E+04  0.89749052309E+03 0.  0.
         23    2    4    4    0    0 -0.28510383345E+03  0.10045083737E+03  0.54014401381E+03  0.62567988490E+03  0.91352045035E+02 0.  0.
         23    2    4    4    0    0 -0.38499146214E+03  0.13868202529E+03 -0.33620055148E+03  0.53763194176E+03  0.92553573283E+02 0.  0.
          4    1    3    3  502    0  0.52486358071E+03 -0.18159727328E+03 -0.93396679808E+03  0.10866247411E+04  0.00000000000E+00 0. -1.
         -3    1    3    3    0  502  0.14523171488E+03 -0.57535589384E+02 -0.19019664540E+03  0.24612468177E+03  0.00000000000E+00 0.  1.
         11    1    5    5    0    0 -0.94787354548E+01  0.59770096435E+01  0.81807213862E+02  0.82571128792E+02  0.00000000000E+00 0.  1.
        -11    1    5    5    0    0 -0.27562509800E+03  0.94473827723E+02  0.45833679995E+03  0.54310875611E+03  0.00000000000E+00 0. -1.
          4    1    6    6  503    0 -0.34525726453E+03  0.15005200310E+03 -0.28701315243E+03  0.47338645103E+03  0.00000000000E+00 0. -1.
         -4    1    6    6    0  503 -0.39734197615E+02 -0.11369977808E+02 -0.49187399043E+02  0.64245490737E+02  0.00000000000E+00 0.  1.
<mgrwt>
<rscale>  0 0.23202407E+04</rscale>
<asrwt>0</asrwt>
<pdfrwt beam="1">  1        2 0.26279086E+00 0.23202407E+04</pdfrwt>
<pdfrwt beam="2">  1       -1 0.12121856E+00 0.23202407E+04</pdfrwt>
<totfact> 0.60401828E+00</totfact>
</mgrwt>
</event>
<event>
12    6  0.1494052E-007  0.2253796E+04  0.7818608E-02  0.8496365E-01
          2   -1    0    0  501    0  0.00000000000E+00  0.00000000000E+00  0.27452705363E+04  0.27452705363E+04  0.00000000000E+00 0. -1.
         -1   -1    0    0    0  501 -0.00000000000E+00 -0.00000000000E+00 -0.46257713109E+03  0.46257713109E+03  0.00000000000E+00 0.  1.
         24    2    1    2    0    0  0.42918199039E+03 -0.58719276616E+03  0.18215908030E+04  0.19630477616E+04  0.79818140270E+02 0.  0.
        254    2    1    2    0    0 -0.42918199039E+03  0.58719276616E+03  0.46110260228E+03  0.12447999058E+04  0.89884296187E+03 0.  0.
         23    2    4    4    0    0 -0.15404332979E+03 -0.27611129035E+01  0.55280711280E+03  0.58101828782E+03  0.90827174511E+02 0.  0.
         23    2    4    4    0    0 -0.27513866060E+03  0.58995387907E+03 -0.91704510516E+02  0.66378161796E+03  0.91920928577E+02 0.  0.
          2    1    3    3  502    0  0.21242206535E+03 -0.23075636263E+03  0.82949179469E+03  0.88680791054E+03  0.00000000000E+00 0. -1.
         -1    1    3    3    0  502  0.21675992504E+03 -0.35643640353E+03  0.99209900829E+03  0.10762398511E+04  0.00000000000E+00 0.  1.
         11    1    5    5    0    0 -0.15054998226E+02 -0.36317745787E+01  0.56527301948E+01  0.16486240227E+02  0.00000000000E+00 0. -1.
        -11    1    5    5    0    0 -0.13898833156E+03  0.87066167517E+00  0.54715438260E+03  0.56453204760E+03  0.00000000000E+00 0.  1.
          1    1    6    6  503    0 -0.28118360166E+03  0.56340928037E+03 -0.93092034501E+02  0.63652208284E+03  0.00000000000E+00 0.  1.
         -1    1    6    6    0  503  0.60449410613E+01  0.26544598693E+02  0.13875239851E+01  0.27259535121E+02  0.00000000000E+00 0. -1.
<mgrwt>
<rscale>  0 0.22537962E+04</rscale>
<asrwt>0</asrwt>
<pdfrwt beam="1">  1        2 0.42234930E+00 0.22537962E+04</pdfrwt>
<pdfrwt beam="2">  1       -1 0.71165714E-01 0.22537962E+04</pdfrwt>
<totfact> 0.51535949E+00</totfact>
</mgrwt>
</event>
<event>
12    6  0.1494052E-007  0.1737601E+04  0.7818608E-02  0.8740205E-01
          2   -1    0    0  501    0  0.00000000000E+00  0.00000000000E+00  0.14180117624E+04  0.14180117624E+04  0.00000000000E+00 0. -1.
         -1   -1    0    0    0  501 -0.00000000000E+00 -0.00000000000E+00 -0.53230469532E+03  0.53230469532E+03  0.00000000000E+00 0.  1.
         24    2    1    2    0    0 -0.98112075509E+02 -0.47522660960E+03  0.79454746846E+03  0.93435237601E+03  0.79008689920E+02 0.  0.
        254    2    1    2    0    0  0.98112075509E+02  0.47522660960E+03  0.91159598572E+02  0.10159640817E+04  0.88792265035E+03 0.  0.
         23    2    4    4    0    0  0.61845055089E+02  0.64896489046E+03 -0.17664836210E+03  0.68182773309E+03  0.93296162205E+02 0.  0.
         23    2    4    4    0    0  0.36267020420E+02 -0.17373828086E+03  0.26780796067E+03  0.33413634859E+03  0.91791658883E+02 0.  0.
          2    1    3    3  502    0 -0.10628592449E+03 -0.46975807385E+03  0.78185933788E+03  0.91829917234E+03  0.00000000000E+00 0. -1.
         -1    1    3    3    0  502  0.81738489769E+01 -0.54685357442E+01  0.12688130582E+02  0.16053203666E+02  0.00000000000E+00 0.  1.
         11    1    5    5    0    0  0.58759236380E+02  0.46898678633E+03 -0.16797531538E+03  0.50161435406E+03  0.00000000000E+00 0.  1.
        -11    1    5    5    0    0  0.30858187086E+01  0.17997810413E+03 -0.86730467158E+01  0.18021337903E+03  0.00000000000E+00 0. -1.
          2    1    6    6  503    0  0.32264622139E+02 -0.17293317803E+03  0.27465595950E+03  0.32616374108E+03  0.00000000000E+00 0.  1.
         -2    1    6    6    0  503  0.40023982810E+01 -0.80510283913E+00 -0.68479988285E+01  0.79726075117E+01  0.00000000000E+00 0. -1.
<mgrwt>
<rscale>  0 0.17376010E+04</rscale>
<asrwt>0</asrwt>
<pdfrwt beam="1">  1        2 0.21815565E+00 0.17376010E+04</pdfrwt>
<pdfrwt beam="2">  1       -1 0.81893031E-01 0.17376010E+04</pdfrwt>
<totfact> 0.22671542E+01</totfact>
</mgrwt>
</event>
<event>
12    6  0.1494052E-007  0.1363355E+04  0.7818608E-02  0.8980780E-01
          2   -1    0    0  501    0  0.00000000000E+00  0.00000000000E+00  0.13312877812E+04  0.13312877812E+04  0.00000000000E+00 0. -1.
         -1   -1    0    0    0  501 -0.00000000000E+00 -0.00000000000E+00 -0.34904842212E+03  0.34904842212E+03  0.00000000000E+00 0.  1.
         24    2    1    2    0    0 -0.14376986138E+03  0.11611742707E+02 -0.17327146560E+03  0.23910821553E+03  0.79656338933E+02 0.  0.
        254    2    1    2    0    0  0.14376986138E+03 -0.11611742707E+02  0.11555108247E+04  0.14412279878E+04  0.84919269969E+03 0.  0.
         23    2    4    4    0    0 -0.33431320752E+03  0.77639019205E+02  0.60355172248E+03  0.69991261776E+03  0.88373371413E+02 0.  0.
         23    2    4    4    0    0  0.47808306890E+03 -0.89250761912E+02  0.55195910220E+03  0.74131537002E+03  0.91435813843E+02 0.  0.
          4    1    3    3  502    0 -0.10517441855E+03  0.29122750857E+02 -0.75951839460E+02  0.13296042589E+03  0.00000000000E+00 0. -1.
         -3    1    3    3    0  502 -0.38595442829E+02 -0.17511008150E+02 -0.97319626142E+02  0.10614778964E+03  0.00000000000E+00 0.  1.
         11    1    5    5    0    0 -0.29568676308E+03  0.37211226734E+02  0.49447051998E+03  0.57733563236E+03  0.00000000000E+00 0.  1.
        -11    1    5    5    0    0 -0.38626444440E+02  0.40427792471E+02  0.10908120250E+03  0.12257698541E+03  0.00000000000E+00 0. -1.
          1    1    6    6  503    0  0.79018342792E+02  0.90891596307E+01  0.12903142900E+03  0.15157711235E+03  0.00000000000E+00 0. -1.
         -1    1    6    6    0  503  0.39906472610E+03 -0.98339921542E+02  0.42292767320E+03  0.58973825766E+03  0.00000000000E+00 0.  1.
<mgrwt>
<rscale>  0 0.13633545E+04</rscale>
<asrwt>0</asrwt>
<pdfrwt beam="1">  1        2 0.20481350E+00 0.13633545E+04</pdfrwt>
<pdfrwt beam="2">  1       -1 0.53699758E-01 0.13633545E+04</pdfrwt>
<totfact> 0.61701256E+01</totfact>
</mgrwt>
</event>
<event>
12    6  0.1494052E-007  0.2246009E+04  0.7818608E-02  0.8499518E-01
         -1   -1    0    0    0  501 -0.00000000000E+00  0.00000000000E+00  0.86709408654E+03  0.86709408654E+03  0.00000000000E+00 0.  1.
          2   -1    0    0  501    0  0.00000000000E+00 -0.00000000000E+00 -0.14544435351E+04  0.14544435351E+04  0.00000000000E+00 0. -1.
         24    2    1    2    0    0  0.18895699361E+02  0.14357218400E+02  0.72614727304E+03  0.72991092938E+03  0.70120792224E+02 0.  0.
        254    2    1    2    0    0 -0.18895699361E+02 -0.14357218400E+02 -0.13134967216E+04  0.15916266923E+04  0.89857593598E+03 0.  0.
         23    2    4    4    0    0 -0.39232910487E+03  0.66878442702E+02 -0.10287613607E+04  0.11069653703E+04  0.92884558062E+02 0.  0.
         23    2    4    4    0    0  0.37343340551E+03 -0.81235661102E+02 -0.28473536091E+03  0.48466132199E+03  0.88151178650E+02 0.  0.
          2    1    3    3  502    0  0.10563617558E+02 -0.20058045114E+02  0.91136440894E+02  0.93913609496E+02  0.00000000000E+00 0. -1.
         -1    1    3    3    0  502  0.83320818029E+01  0.34415263514E+02  0.63501083215E+03  0.63599731988E+03  0.00000000000E+00 0.  1.
         11    1    5    5    0    0 -0.24678455402E+03 -0.15989014199E+01 -0.66094469555E+03  0.70551616790E+03  0.00000000000E+00 0. -1.
        -11    1    5    5    0    0 -0.14554455085E+03  0.68477344122E+02 -0.36781666515E+03  0.40144920239E+03  0.00000000000E+00 0.  1.
          3    1    6    6  503    0  0.83004086842E+02  0.15057365017E+02 -0.42820161887E+02  0.94604275473E+02  0.00000000000E+00 0. -1.
         -3    1    6    6    0  503  0.29042931867E+03 -0.96293026119E+02 -0.24191519902E+03  0.39005704652E+03  0.00000000000E+00 0.  1.
<mgrwt>
<rscale>  0 0.22460093E+04</rscale>
<asrwt>0</asrwt>
<pdfrwt beam="1">  1        2 0.22376054E+00 0.22460093E+04</pdfrwt>
<pdfrwt beam="2">  1       -1 0.13339909E+00 0.22460093E+04</pdfrwt>
<totfact> 0.66380321E+00</totfact>
</mgrwt>
</event>
<event>
12    6  0.1507085E-007  0.1905576E+04  0.7818608E-02  0.8652086E-01
          2   -1    0    0  501    0  0.00000000000E+00  0.00000000000E+00  0.24646518512E+04  0.24646518512E+04  0.00000000000E+00 0. -1.
         -1   -1    0    0    0  501 -0.00000000000E+00 -0.00000000000E+00 -0.36832982351E+03  0.36832982351E+03  0.00000000000E+00 0.  1.
         24    2    1    2    0    0  0.36579086703E+03  0.51181877266E+03  0.13953046171E+04  0.15326303704E+04  0.79495053565E+02 0.  0.
        254    2    1    2    0    0 -0.36579086703E+03 -0.51181877266E+03  0.70101741066E+03  0.13003513043E+04  0.89650805356E+03 0.  0.
         23    2    4    4    0    0 -0.37797083987E+03 -0.74618240952E+03  0.56263257553E+03  0.10126973058E+04  0.96696814837E+02 0.  0.
         23    2    4    4    0    0  0.12179972842E+02  0.23436363687E+03  0.13838483513E+03  0.28765399853E+03  0.92302731540E+02 0.  0.
          2    1    3    3  502    0  0.32458933693E+03  0.46359720363E+03  0.11893589899E+04  0.13171391012E+04  0.00000000000E+00 0. -1.
         -1    1    3    3    0  502  0.41201530104E+02  0.48221569030E+02  0.20594562714E+03  0.21549126929E+03  0.00000000000E+00 0.  1.
         11    1    5    5    0    0 -0.16219869981E+03 -0.28805536048E+03  0.27704243033E+03  0.43131985477E+03  0.00000000000E+00 0.  1.
        -11    1    5    5    0    0 -0.21577214006E+03 -0.45812704905E+03  0.28559014519E+03  0.58137745100E+03  0.00000000000E+00 0. -1.
          4    1    6    6  503    0  0.49119521926E+01  0.42237436631E+02 -0.11293936815E+02  0.43996378673E+02  0.00000000000E+00 0. -1.
         -4    1    6    6    0  503  0.72680206490E+01  0.19212620024E+03  0.14967877195E+03  0.24365761985E+03  0.00000000000E+00 0.  1.
<mgrwt>
<rscale>  0 0.19055758E+04</rscale>
<asrwt>0</asrwt>
<pdfrwt beam="1">  1        2 0.37917720E+00 0.19055758E+04</pdfrwt>
<pdfrwt beam="2">  1       -1 0.56666128E-01 0.19055758E+04</pdfrwt>
<totfact> 0.12268010E+01</totfact>
</mgrwt>
</event>
<event>
12    6  0.1494052E-007  0.1381926E+04  0.7818608E-02  0.8967007E-01
         -3   -1    0    0    0  501 -0.00000000000E+00  0.00000000000E+00  0.10177386752E+04  0.10177386752E+04  0.00000000000E+00 0.  1.
          2   -1    0    0  501    0  0.00000000000E+00 -0.00000000000E+00 -0.46910829993E+03  0.46910829993E+03  0.00000000000E+00 0. -1.
         24    2    1    2    0    0  0.10260421003E+03  0.13456481542E+03  0.53666220550E+03  0.56842930331E+03  0.80437780822E+02 0.  0.
        254    2    1    2    0    0 -0.10260421003E+03 -0.13456481542E+03  0.11968169804E+02  0.91841767185E+03  0.90261424176E+03 0.  0.
         23    2    4    4    0    0  0.38555971670E+03 -0.15313238010E+02 -0.65128020799E+02  0.40188826802E+03  0.91551791244E+02 0.  0.
         23    2    4    4    0    0 -0.48816392673E+03 -0.11925157741E+03  0.77096190603E+02  0.51652940383E+03  0.91289891803E+02 0.  0.
          4    1    3    3  502    0  0.45126775803E+02  0.87817446106E+01  0.18309238929E+03  0.18877597291E+03  0.00000000000E+00 0. -1.
         -3    1    3    3    0  502  0.57477434224E+02  0.12578307081E+03  0.35356981621E+03  0.37965333040E+03  0.00000000000E+00 0.  1.
         11    1    5    5    0    0  0.36417855190E+03 -0.25313837719E+02 -0.39726336937E+02  0.36721245879E+03  0.00000000000E+00 0. -1.
        -11    1    5    5    0    0  0.21381164796E+02  0.10000599709E+02 -0.25401683861E+02  0.34675809227E+02  0.00000000000E+00 0.  1.
          3    1    6    6  503    0 -0.34144639097E+03 -0.55208123364E+02  0.19616329309E+02  0.34643668277E+03  0.00000000000E+00 0. -1.
         -3    1    6    6    0  503 -0.14671753576E+03 -0.64043454042E+02  0.57479861294E+02  0.17009272106E+03  0.00000000000E+00 0.  1.
<mgrwt>
<rscale>  0 0.13819257E+04</rscale>
<asrwt>0</asrwt>
<pdfrwt beam="1">  1        2 0.72170508E-01 0.13819257E+04</pdfrwt>
<pdfrwt beam="2">  1       -3 0.15657518E+00 0.13819257E+04</pdfrwt>
<totfact> 0.11675357E+01</totfact>
</mgrwt>
</event>
<event>
12    6  0.1494052E-007  0.1130566E+04  0.7818608E-02  0.9175902E-01
          2   -1    0    0  501    0  0.00000000000E+00  0.00000000000E+00  0.15732240614E+04  0.15732240614E+04  0.00000000000E+00 0. -1.
         -1   -1    0    0    0  501 -0.00000000000E+00 -0.00000000000E+00 -0.20311461198E+03  0.20311461198E+03  0.00000000000E+00 0.  1.
         24    2    1    2    0    0  0.71505926726E+01 -0.11054632446E+03  0.49135719268E+03  0.50963875178E+03  0.77641134006E+02 0.  0.
        254    2    1    2    0    0 -0.71505926726E+01  0.11054632446E+03  0.87875225678E+03  0.12666999216E+04  0.90556697259E+03 0.  0.
         23    2    4    4    0    0 -0.50411467602E+02  0.10637608074E+02 -0.17459904287E+03  0.20375437218E+03  0.91523459501E+02 0.  0.
         23    2    4    4    0    0  0.43260874930E+02  0.99908716385E+02  0.10533512996E+04  0.10629455495E+04  0.91929460616E+02 0.  0.
          4    1    3    3  502    0  0.85338632630E+01 -0.56173126646E+02  0.39436492410E+03  0.39843687121E+03  0.00000000000E+00 0. -1.
         -3    1    3    3    0  502 -0.13832705904E+01 -0.54373197813E+02  0.96992268586E+02  0.11120188058E+03  0.00000000000E+00 0.  1.
         11    1    5    5    0    0 -0.54536590535E+02  0.44712839569E+02 -0.11171206044E+03  0.13211003814E+03  0.00000000000E+00 0.  1.
        -11    1    5    5    0    0  0.41251229324E+01 -0.34075231495E+02 -0.62886982425E+02  0.71644334034E+02  0.00000000000E+00 0. -1.
          4    1    6    6  503    0 -0.11189095677E+01  0.44661309784E+02  0.14243593425E+03  0.14927786144E+03  0.00000000000E+00 0. -1.
         -4    1    6    6    0  503  0.44379784497E+02  0.55247406602E+02  0.91091536539E+03  0.91366768801E+03  0.00000000000E+00 0.  1.
<mgrwt>
<rscale>  0 0.11305659E+04</rscale>
<asrwt>0</asrwt>
<pdfrwt beam="1">  1        2 0.24203446E+00 0.11305659E+04</pdfrwt>
<pdfrwt beam="2">  1       -1 0.31248403E-01 0.11305659E+04</pdfrwt>
<totfact> 0.12372265E+02</totfact>
</mgrwt>
</event>
<event>
12    6  0.1494052E-007  0.1950735E+04  0.7818608E-02  0.8630006E-01
         -1   -1    0    0    0  501 -0.00000000000E+00  0.00000000000E+00  0.41446368343E+03  0.41446368343E+03  0.00000000000E+00 0.  1.
          2   -1    0    0  501    0  0.00000000000E+00 -0.00000000000E+00 -0.22953567588E+04  0.22953567588E+04  0.00000000000E+00 0. -1.
         24    2    1    2    0    0  0.16910866011E+03 -0.34624728725E+03  0.16966006758E+03  0.42864887092E+03  0.80438754054E+02 0.  0.
        254    2    1    2    0    0 -0.16910866011E+03  0.34624728725E+03 -0.20505531429E+04  0.22811715713E+04  0.92222048495E+03 0.  0.
         23    2    4    4    0    0  0.31396447827E+03 -0.92729367028E+02 -0.68992316351E+03  0.76924335003E+03  0.92568520025E+02 0.  0.
         23    2    4    4    0    0 -0.48307313838E+03  0.43897665428E+03 -0.13606299794E+04  0.15119282213E+04  0.92481594551E+02 0.  0.
          2    1    3    3  502    0  0.36396865562E+02 -0.15325372298E+03  0.89049432704E+02  0.18094539755E+03  0.00000000000E+00 0. -1.
         -1    1    3    3    0  502  0.13271179455E+03 -0.19299356427E+03  0.80610634878E+02  0.24770347336E+03  0.00000000000E+00 0.  1.
         11    1    5    5    0    0  0.72997719984E+02 -0.35523612880E+02 -0.26775056037E+03  0.27978734206E+03  0.00000000000E+00 0.  1.
        -11    1    5    5    0    0  0.24096675828E+03 -0.57205754148E+02 -0.42217260313E+03  0.48945600797E+03  0.00000000000E+00 0. -1.
          1    1    6    6  503    0 -0.17691234035E+03  0.19081703284E+03 -0.63361127150E+03  0.68496157525E+03  0.00000000000E+00 0. -1.
         -1    1    6    6    0  503 -0.30616079802E+03  0.24815962144E+03 -0.72701870793E+03  0.82696664602E+03  0.00000000000E+00 0.  1.
<mgrwt>
<rscale>  0 0.19507353E+04</rscale>
<asrwt>0</asrwt>
<pdfrwt beam="1">  1        2 0.35313181E+00 0.19507353E+04</pdfrwt>
<pdfrwt beam="2">  1       -1 0.63763644E-01 0.19507353E+04</pdfrwt>
<totfact> 0.12084662E+01</totfact>
</mgrwt>
</event>
<event>
12    6  0.1494052E-007  0.1845776E+04  0.7818608E-02  0.8682328E-01
         -1   -1    0    0    0  501 -0.00000000000E+00  0.00000000000E+00  0.60198679252E+03  0.60198679252E+03  0.00000000000E+00 0.  1.
          2   -1    0    0  501    0  0.00000000000E+00 -0.00000000000E+00 -0.14148527091E+04  0.14148527091E+04  0.00000000000E+00 0. -1.
         24    2    1    2    0    0  0.29664977716E+03 -0.56797343947E+03  0.39176778245E+01  0.64658850582E+03  0.86408503270E+02 0.  0.
        254    2    1    2    0    0 -0.29664977716E+03  0.56797343947E+03 -0.81678359437E+03  0.13702509958E+04  0.89434749015E+03 0.  0.
         23    2    4    4    0    0 -0.54670840323E+03  0.32024014240E+03 -0.23074430877E+03  0.68065051853E+03  0.92727371220E+02 0.  0.
         23    2    4    4    0    0  0.25005862608E+03  0.24773329707E+03 -0.58603928560E+03  0.68960047724E+03  0.90585158742E+02 0.  0.
          4    1    3    3  502    0  0.59323645188E+02 -0.80173622152E+02 -0.26728980894E+02  0.10325474801E+03  0.00000000000E+00 0. -1.
         -3    1    3    3    0  502  0.23732613197E+03 -0.48779981732E+03  0.30646658719E+02  0.54333375781E+03  0.00000000000E+00 0.  1.
         11    1    5    5    0    0 -0.39600940981E+03  0.18359196563E+03 -0.16882482780E+03  0.46800778304E+03  0.00000000000E+00 0. -1.
        -11    1    5    5    0    0 -0.15069899342E+03  0.13664817677E+03 -0.61919480966E+02  0.21264273549E+03  0.00000000000E+00 0.  1.
          1    1    6    6  503    0  0.24955373614E+03  0.21425933457E+03 -0.54591766898E+03  0.63734624105E+03  0.00000000000E+00 0. -1.
         -1    1    6    6    0  503  0.50488993431E+00  0.33473962504E+02 -0.40121616627E+02  0.52254236195E+02  0.00000000000E+00 0.  1.
<mgrwt>
<rscale>  0 0.18457764E+04</rscale>
<asrwt>0</asrwt>
<pdfrwt beam="1">  1        2 0.21766965E+00 0.18457764E+04</pdfrwt>
<pdfrwt beam="2">  1       -1 0.92613353E-01 0.18457764E+04</pdfrwt>
<totfact> 0.17243666E+01</totfact>
</mgrwt>
</event>
<event>
12    6  0.1494052E-007  0.2554295E+04  0.7818608E-02  0.8383894E-01
          2   -1    0    0  501    0  0.00000000000E+00  0.00000000000E+00  0.13446174107E+04  0.13446174107E+04  0.00000000000E+00 0. -1.
         -1   -1    0    0    0  501 -0.00000000000E+00 -0.00000000000E+00 -0.12130631089E+04  0.12130631089E+04  0.00000000000E+00 0.  1.
         24    2    1    2    0    0  0.67868302019E+03  0.40573759871E+03  0.84156194427E+03  0.11575087628E+04  0.79789654341E+02 0.  0.
        254    2    1    2    0    0 -0.67868302019E+03 -0.40573759871E+03 -0.71000764256E+03  0.14001717568E+04  0.91166685542E+03 0.  0.
         23    2    4    4    0    0  0.30077822053E+02 -0.44018644065E+03 -0.10304859126E+03  0.46190658573E+03  0.89832643669E+02 0.  0.
         23    2    4    4    0    0 -0.70876084225E+03  0.34448841945E+02 -0.60695905129E+03  0.93826517111E+03  0.91725607934E+02 0.  0.
          2    1    3    3  502    0  0.43874877090E+03  0.27959714155E+03  0.60291070151E+03  0.79635190684E+03  0.00000000000E+00 0. -1.
         -1    1    3    3    0  502  0.23993424929E+03  0.12614045716E+03  0.23865124277E+03  0.36115685594E+03  0.00000000000E+00 0.  1.
         11    1    5    5    0    0  0.36653783555E+02 -0.10058213238E+03 -0.35199435026E+00  0.10705320688E+03  0.00000000000E+00 0. -1.
        -11    1    5    5    0    0 -0.65759615024E+01 -0.33960430827E+03 -0.10269659691E+03  0.35485337885E+03  0.00000000000E+00 0.  1.
          2    1    6    6  503    0 -0.44624205850E+03  0.50807878521E+02 -0.33827143839E+03  0.56226415618E+03  0.00000000000E+00 0.  1.
         -2    1    6    6    0  503 -0.26251878374E+03 -0.16359036576E+02 -0.26868761291E+03  0.37600101493E+03  0.00000000000E+00 0. -1.
<mgrwt>
<rscale>  0 0.25542950E+04</rscale>
<asrwt>0</asrwt>
<pdfrwt beam="1">  1        2 0.20686422E+00 0.25542950E+04</pdfrwt>
<pdfrwt beam="2">  1       -1 0.18662509E+00 0.25542950E+04</pdfrwt>
<totfact> 0.29405846E+00</totfact>
</mgrwt>
</event>
<event>
12    6  0.1494052E-007  0.1539842E+04  0.7818608E-02  0.8858382E-01
          2   -1    0    0  501    0  0.00000000000E+00  0.00000000000E+00  0.32034295251E+04  0.32034295251E+04  0.00000000000E+00 0. -1.
         -1   -1    0    0    0  501 -0.00000000000E+00 -0.00000000000E+00 -0.18504502103E+03  0.18504502103E+03  0.00000000000E+00 0.  1.
         24    2    1    2    0    0 -0.31461116506E+03 -0.25320920881E+03  0.16268226080E+04  0.16781884894E+04  0.81668351477E+02 0.  0.
        254    2    1    2    0    0  0.31461116506E+03  0.25320920881E+03  0.13915618961E+04  0.17102860567E+04  0.90859165550E+03 0.  0.
         23    2    4    4    0    0  0.29408408701E+03  0.42445510939E+03  0.14189580528E+04  0.15130733559E+04  0.96443945314E+02 0.  0.
         23    2    4    4    0    0  0.20527078046E+02 -0.17124590058E+03 -0.27396156683E+02  0.19721270082E+03  0.91628492107E+02 0.  0.
          4    1    3    3  502    0 -0.35040517519E+02 -0.50321474733E+02  0.35662209705E+03  0.36185550817E+03  0.00000000000E+00 0. -1.
         -3    1    3    3    0  502 -0.27957064754E+03 -0.20288773408E+03  0.12702005109E+04  0.13163329812E+04  0.00000000000E+00 0.  1.
         11    1    5    5    0    0  0.22319678993E+03  0.25651656525E+03  0.84434252646E+03  0.91023725329E+03  0.00000000000E+00 0. -1.
        -11    1    5    5    0    0  0.70887297087E+02  0.16793854414E+03  0.57461552634E+03  0.60283610260E+03  0.00000000000E+00 0.  1.
          1    1    6    6  503    0 -0.25012334004E+02 -0.62707654458E+02  0.19865463351E+02  0.70374025138E+02  0.00000000000E+00 0. -1.
         -1    1    6    6    0  503  0.45539412049E+02 -0.10853824612E+03 -0.47261620034E+02  0.12683867568E+03  0.00000000000E+00 0.  1.
<mgrwt>
<rscale>  0 0.15398424E+04</rscale>
<asrwt>0</asrwt>
<pdfrwt beam="1">  1        2 0.49283527E+00 0.15398424E+04</pdfrwt>
<pdfrwt beam="2">  1       -1 0.28468467E-01 0.15398424E+04</pdfrwt>
<totfact> 0.15972686E+01</totfact>
</mgrwt>
</event>
<event>
12    6  0.1494052E-007  0.2821675E+04  0.7818608E-02  0.8296571E-01
         -1   -1    0    0    0  501 -0.00000000000E+00  0.00000000000E+00  0.59533653784E+03  0.59533653784E+03  0.00000000000E+00 0.  1.
          2   -1    0    0  501    0  0.00000000000E+00 -0.00000000000E+00 -0.33434229127E+04  0.33434229127E+04  0.00000000000E+00 0. -1.
         24    2    1    2    0    0  0.82827288251E+03  0.54316800467E+03 -0.13534874399E+03  0.10032162682E+04  0.84000887144E+02 0.  0.
        254    2    1    2    0    0 -0.82827288251E+03 -0.54316800467E+03 -0.26127376309E+04  0.29355431824E+04  0.89997133203E+03 0.  0.
         23    2    4    4    0    0 -0.38087462901E+02 -0.23700926116E+03 -0.88806074077E+02  0.27165524802E+03  0.91027524845E+02 0.  0.
         23    2    4    4    0    0 -0.79018541961E+03 -0.30615874351E+03 -0.25239315568E+04  0.26638879343E+04  0.89119300229E+02 0.  0.
          4    1    3    3  502    0  0.15361474738E+03  0.12008235998E+03  0.26760950102E+01  0.19499852634E+03  0.00000000000E+00 0. -1.
         -3    1    3    3    0  502  0.67465813514E+03  0.42308564470E+03 -0.13802483900E+03  0.80821774185E+03  0.00000000000E+00 0.  1.
         11    1    5    5    0    0  0.15118194182E+02 -0.16763151637E+02  0.97224376870E+01  0.24578218868E+02  0.00000000000E+00 0. -1.
        -11    1    5    5    0    0 -0.53205657083E+02 -0.22024610953E+03 -0.98528511764E+02  0.24707702916E+03  0.00000000000E+00 0.  1.
          2    1    6    6  503    0 -0.27254127620E+03 -0.12519132369E+03 -0.77528482304E+03  0.83127502765E+03  0.00000000000E+00 0. -1.
         -2    1    6    6    0  503 -0.51764414342E+03 -0.18096741982E+03 -0.17486467338E+04  0.18326129067E+04  0.00000000000E+00 0.  1.
<mgrwt>
<rscale>  0 0.28216746E+04</rscale>
<asrwt>0</asrwt>
<pdfrwt beam="1">  1        2 0.51437275E+00 0.28216746E+04</pdfrwt>
<pdfrwt beam="2">  1       -1 0.91590237E-01 0.28216746E+04</pdfrwt>
<totfact> 0.11942590E+00</totfact>
</mgrwt>
</event>
<event>
12    6  0.1494052E-007  0.3261387E+04  0.7818608E-02  0.8172790E-01
          2   -1    0    0  501    0  0.00000000000E+00  0.00000000000E+00  0.19793399737E+04  0.19793399737E+04  0.00000000000E+00 0. -1.
         -1   -1    0    0    0  501 -0.00000000000E+00 -0.00000000000E+00 -0.13434589217E+04  0.13434589217E+04  0.00000000000E+00 0.  1.
         24    2    1    2    0    0  0.15431993388E+03  0.18462105993E+03 -0.12203617520E+04  0.12464134982E+04  0.79776092650E+02 0.  0.
        254    2    1    2    0    0 -0.15431993388E+03 -0.18462105993E+03  0.18562428040E+04  0.20763853973E+04  0.89879886123E+03 0.  0.
         23    2    4    4    0    0 -0.51361367813E+03 -0.20105546269E+03  0.11073624400E+04  0.12404474733E+04  0.90752691347E+02 0.  0.
         23    2    4    4    0    0  0.35929374426E+03  0.16434402759E+02  0.74888036399E+03  0.83593792401E+03  0.92781080937E+02 0.  0.
          4    1    3    3  502    0  0.12878110604E+03  0.98464411787E+02 -0.71749156829E+03  0.73557729997E+03  0.00000000000E+00 0. -1.
         -3    1    3    3    0  502  0.25538827835E+02  0.86156648148E+02 -0.50287018368E+03  0.51083619819E+03  0.00000000000E+00 0.  1.
         11    1    5    5    0    0 -0.41802948015E+03 -0.15769938056E+03  0.80917975246E+03  0.92433198186E+03  0.00000000000E+00 0.  1.
        -11    1    5    5    0    0 -0.95584197982E+02 -0.43356082134E+02  0.29818268754E+03  0.31611549141E+03  0.00000000000E+00 0. -1.
          3    1    6    6  503    0  0.19443167191E+03 -0.34001129721E+02  0.43885521148E+03  0.48120021665E+03  0.00000000000E+00 0. -1.
         -3    1    6    6    0  503  0.16486207235E+03  0.50435532479E+02  0.31002515251E+03  0.35473770736E+03  0.00000000000E+00 0.  1.
<mgrwt>
<rscale>  0 0.32613874E+04</rscale>
<asrwt>0</asrwt>
<pdfrwt beam="1">  1        2 0.30451384E+00 0.32613874E+04</pdfrwt>
<pdfrwt beam="2">  1       -1 0.20668599E+00 0.32613874E+04</pdfrwt>
<totfact> 0.88537992E-01</totfact>
</mgrwt>
</event>
<event>
12    6  0.1494052E-007  0.1342354E+04  0.7818608E-02  0.8996636E-01
          2   -1    0    0  501    0  0.00000000000E+00  0.00000000000E+00  0.74052903425E+03  0.74052903425E+03  0.00000000000E+00 0. -1.
         -1   -1    0    0    0  501 -0.00000000000E+00 -0.00000000000E+00 -0.60831971799E+03  0.60831971799E+03  0.00000000000E+00 0.  1.
         24    2    1    2    0    0  0.25105784545E+03  0.26626070856E+03  0.17765168938E+02  0.37510844816E+03  0.80411068703E+02 0.  0.
        254    2    1    2    0    0 -0.25105784545E+03 -0.26626070856E+03  0.11444414732E+03  0.97374030409E+03  0.89506866232E+03 0.  0.
         23    2    4    4    0    0  0.22013946401E+03 -0.36816922972E+03 -0.79760562762E+02  0.44537312459E+03  0.89361666333E+02 0.  0.
         23    2    4    4    0    0 -0.47119730945E+03  0.10190852116E+03  0.19420471008E+03  0.52836717950E+03  0.95100766739E+02 0.  0.
          4    1    3    3  502    0  0.13470969761E+03  0.87292454629E+02  0.19009130296E+02  0.16164164779E+03  0.00000000000E+00 0. -1.
         -3    1    3    3    0  502  0.11634814783E+03  0.17896825393E+03 -0.12439613580E+01  0.21346680037E+03  0.00000000000E+00 0.  1.
         11    1    5    5    0    0  0.13894486948E+03 -0.19806481160E+03 -0.86027046850E+02  0.25678005985E+03  0.00000000000E+00 0.  1.
        -11    1    5    5    0    0  0.81194594529E+02 -0.17010441812E+03  0.62664840875E+01  0.18859306473E+03  0.00000000000E+00 0. -1.
          3    1    6    6  503    0 -0.50165046495E+02 -0.18250016475E+02  0.25322749366E+02  0.59083302435E+02  0.00000000000E+00 0. -1.
         -3    1    6    6    0  503 -0.42103226296E+03  0.12015853763E+03  0.16888196072E+03  0.46928387706E+03  0.00000000000E+00 0.  1.
<mgrwt>
<rscale>  0 0.13423538E+04</rscale>
<asrwt>0</asrwt>
<pdfrwt beam="1">  1        2 0.11392754E+00 0.13423538E+04</pdfrwt>
<pdfrwt beam="2">  1       -1 0.93587649E-01 0.13423538E+04</pdfrwt>
<totfact> 0.47138513E+01</totfact>
</mgrwt>
</event>
<event>
12    6  0.1494052E-007  0.1976093E+04  0.7818608E-02  0.8617880E-01
          2   -1    0    0  501    0  0.00000000000E+00  0.00000000000E+00  0.37424494138E+04  0.37424494138E+04  0.00000000000E+00 0. -1.
         -1   -1    0    0    0  501 -0.00000000000E+00 -0.00000000000E+00 -0.26085476010E+03  0.26085476010E+03  0.00000000000E+00 0.  1.
         24    2    1    2    0    0 -0.51273798766E+03 -0.59848611385E+03  0.14188742674E+04  0.16258128687E+04  0.94749274752E+02 0.  0.
        254    2    1    2    0    0  0.51273798766E+03  0.59848611385E+03  0.20627203863E+04  0.23774913052E+04  0.88122848429E+03 0.  0.
         23    2    4    4    0    0  0.36578563870E+03  0.65752573842E+02  0.19828968359E+03  0.43072350932E+03  0.89896654079E+02 0.  0.
         23    2    4    4    0    0  0.14695234895E+03  0.53273354001E+03  0.18644307027E+04  0.19467677958E+04  0.91667814054E+02 0.  0.
          2    1    3    3  502    0 -0.32826482742E+03 -0.42069823464E+03  0.10320303427E+04  0.11618224606E+04  0.00000000000E+00 0. -1.
         -1    1    3    3    0  502 -0.18447316023E+03 -0.17778787920E+03  0.38684392464E+03  0.46399040816E+03  0.00000000000E+00 0.  1.
         11    1    5    5    0    0  0.25818799992E+03  0.17986100475E+02  0.16998749312E+03  0.30964542776E+03  0.00000000000E+00 0. -1.
        -11    1    5    5    0    0  0.10759763878E+03  0.47766473367E+02  0.28302190467E+02  0.12107808156E+03  0.00000000000E+00 0.  1.
          2    1    6    6  503    0  0.11926881521E+03  0.50825068184E+03  0.17063948005E+04  0.17844682741E+04  0.00000000000E+00 0.  1.
         -2    1    6    6    0  503  0.27683533745E+02  0.24482858169E+02  0.15803590219E+03  0.16229952177E+03  0.00000000000E+00 0. -1.
<mgrwt>
<rscale>  0 0.19760929E+04</rscale>
<asrwt>0</asrwt>
<pdfrwt beam="1">  1        2 0.57576141E+00 0.19760929E+04</pdfrwt>
<pdfrwt beam="2">  1       -1 0.40131504E-01 0.19760929E+04</pdfrwt>
<totfact> 0.35102441E+00</totfact>
</mgrwt>
</event>
<event>
12    6  0.1494052E-007  0.1446783E+04  0.7818608E-02  0.8920634E-01
         -1   -1    0    0    0  501 -0.00000000000E+00  0.00000000000E+00  0.77621878365E+03  0.77621878365E+03  0.00000000000E+00 0.  1.
          2   -1    0    0  501    0  0.00000000000E+00 -0.00000000000E+00 -0.67415963054E+03  0.67415963054E+03  0.00000000000E+00 0. -1.
         24    2    1    2    0    0  0.37030615661E+03 -0.18420678109E+03 -0.12995027268E+03  0.44065856696E+03  0.78956389451E+02 0.  0.
        254    2    1    2    0    0 -0.37030615661E+03  0.18420678109E+03  0.23200942579E+03  0.10097198472E+04  0.89142975518E+03 0.  0.
         23    2    4    4    0    0 -0.30188342721E+03  0.47124783651E+03 -0.78453815763E+02  0.57153362090E+03  0.85367157406E+02 0.  0.
         23    2    4    4    0    0 -0.68422729401E+02 -0.28704105542E+03  0.31046324155E+03  0.43818622634E+03  0.92441912573E+02 0.  0.
          2    1    3    3  502    0  0.20854168059E+03 -0.12042007622E+03 -0.11281995888E+03  0.26593038642E+03  0.00000000000E+00 0. -1.
         -1    1    3    3    0  502  0.16176447602E+03 -0.63786704876E+02 -0.17130313796E+02  0.17472818054E+03  0.00000000000E+00 0.  1.
         11    1    5    5    0    0 -0.13110092561E+03  0.22924536485E+03 -0.77909152907E+02  0.27533747676E+03  0.00000000000E+00 0.  1.
        -11    1    5    5    0    0 -0.17078250160E+03  0.24200247166E+03 -0.54466285543E+00  0.29619614414E+03  0.00000000000E+00 0. -1.
          3    1    6    6  503    0  0.92874607395E+00 -0.17446172000E+02 -0.42952319134E+01  0.17991122919E+02  0.00000000000E+00 0. -1.
         -3    1    6    6    0  503 -0.69351475475E+02 -0.26959488342E+03  0.31475847346E+03  0.42019510342E+03  0.00000000000E+00 0.  1.
<mgrwt>
<rscale>  0 0.14467831E+04</rscale>
<asrwt>0</asrwt>
<pdfrwt beam="1">  1        2 0.10371687E+00 0.14467831E+04</pdfrwt>
<pdfrwt beam="2">  1       -1 0.11941827E+00 0.14467831E+04</pdfrwt>
<totfact> 0.29835183E+01</totfact>
</mgrwt>
</event>
<event>
12    6  0.1494052E-007  0.2817100E+04  0.7818608E-02  0.8297979E-01
         -1   -1    0    0    0  501 -0.00000000000E+00  0.00000000000E+00  0.97688034193E+03  0.97688034193E+03  0.00000000000E+00 0.  1.
          2   -1    0    0  501    0  0.00000000000E+00 -0.00000000000E+00 -0.20309689225E+04  0.20309689225E+04  0.00000000000E+00 0. -1.
         24    2    1    2    0    0  0.12394029676E+04 -0.44991647672E+02 -0.72162206148E+03  0.14365465099E+04  0.69162931419E+02 0.  0.
        254    2    1    2    0    0 -0.12394029676E+04  0.44991647672E+02 -0.33246651909E+03  0.15713027545E+04  0.90571209304E+03 0.  0.
         23    2    4    4    0    0 -0.42638295080E+03 -0.39632984836E+03 -0.13566736198E+02  0.58837414169E+03  0.84381898762E+02 0.  0.
         23    2    4    4    0    0 -0.81302001682E+03  0.44132149604E+03 -0.31889978290E+03  0.98292861281E+03  0.93195363301E+02 0.  0.
          2    1    3    3  502    0  0.32857267983E+03 -0.13073579151E+02 -0.22715325168E+03  0.39966176218E+03  0.00000000000E+00 0. -1.
         -1    1    3    3    0  502  0.91083028779E+03 -0.31918068521E+02 -0.49446880981E+03  0.10368847478E+04  0.00000000000E+00 0.  1.
         11    1    5    5    0    0 -0.33662737593E+03 -0.26587248512E+03  0.45994766233E+01  0.42898406002E+03  0.00000000000E+00 0. -1.
        -11    1    5    5    0    0 -0.89755574873E+02 -0.13045736324E+03 -0.18166212821E+02  0.15939008167E+03  0.00000000000E+00 0.  1.
          2    1    6    6  503    0 -0.61284813140E+03  0.37305085980E+03 -0.22899884660E+03  0.75312034092E+03  0.00000000000E+00 0. -1.
         -2    1    6    6    0  503 -0.20017188542E+03  0.68270636232E+02 -0.89900936294E+02  0.22980827189E+03  0.00000000000E+00 0.  1.
<mgrwt>
<rscale>  0 0.28171004E+04</rscale>
<asrwt>0</asrwt>
<pdfrwt beam="1">  1        2 0.31245676E+00 0.28171004E+04</pdfrwt>
<pdfrwt beam="2">  1       -1 0.15028928E+00 0.28171004E+04</pdfrwt>
<totfact> 0.22029362E+00</totfact>
</mgrwt>
</event>
<event>
12    6  0.1494052E-007  0.1226524E+04  0.7818608E-02  0.9089952E-01
          2   -1    0    0  501    0  0.00000000000E+00  0.00000000000E+00  0.91261170271E+03  0.91261170271E+03  0.00000000000E+00 0. -1.
         -3   -1    0    0    0  501 -0.00000000000E+00 -0.00000000000E+00 -0.41210338414E+03  0.41210338414E+03  0.00000000000E+00 0.  1.
         24    2    1    2    0    0  0.92292456036E+02  0.25673414822E+02 -0.44932494724E+02  0.13267229316E+03  0.80037407634E+02 0.  0.
        254    2    1    2    0    0 -0.92292456036E+02 -0.25673414822E+02  0.54544081329E+03  0.11920427937E+04  0.10555961915E+04 0.  0.
         23    2    4    4    0    0  0.29622239391E+03  0.10607793297E+02  0.69762066215E+03  0.76327283636E+03  0.89725149956E+02 0.  0.
         23    2    4    4    0    0 -0.38851484994E+03 -0.36281208119E+02 -0.15217984886E+03  0.42876995733E+03  0.91787010080E+02 0.  0.
          4    1    3    3  502    0  0.20357666892E+02 -0.20391056732E+02 -0.36984161271E+02  0.46883451034E+02  0.00000000000E+00 0. -1.
         -3    1    3    3    0  502  0.71934789144E+02  0.46064471555E+02 -0.79483334523E+01  0.85788842127E+02  0.00000000000E+00 0.  1.
         11    1    5    5    0    0  0.20045860642E+03 -0.32291569717E+02  0.49677653347E+03  0.53666872702E+03  0.00000000000E+00 0. -1.
        -11    1    5    5    0    0  0.95763787493E+02  0.42899363014E+02  0.20084412868E+03  0.22660410934E+03  0.00000000000E+00 0.  1.
          4    1    6    6  503    0 -0.12615794301E+03  0.30547555794E+02 -0.41378772471E+02  0.13623943101E+03  0.00000000000E+00 0. -1.
         -4    1    6    6    0  503 -0.26235690693E+03 -0.66828763913E+02 -0.11080107639E+03  0.29253052632E+03  0.00000000000E+00 0.  1.
<mgrwt>
<rscale>  0 0.12265241E+04</rscale>
<asrwt>0</asrwt>
<pdfrwt beam="1">  1        2 0.14040180E+00 0.12265241E+04</pdfrwt>
<pdfrwt beam="2">  1       -3 0.63400521E-01 0.12265241E+04</pdfrwt>
<totfact> 0.43482864E+01</totfact>
</mgrwt>
</event>
<event>
12    6  0.1494052E-007  0.1434682E+04  0.7818608E-02  0.8929090E-01
          2   -1    0    0  501    0  0.00000000000E+00  0.00000000000E+00  0.18625015554E+04  0.18625015554E+04  0.00000000000E+00 0. -1.
         -1   -1    0    0    0  501 -0.00000000000E+00 -0.00000000000E+00 -0.27628329884E+03  0.27628329884E+03  0.00000000000E+00 0.  1.
         24    2    1    2    0    0 -0.40678904232E+03  0.28842835771E+02  0.62278751337E+03  0.74865170840E+03  0.79409442456E+02 0.  0.
        254    2    1    2    0    0  0.40678904232E+03 -0.28842835771E+02  0.96343074323E+03  0.13901331459E+04  0.91540271584E+03 0.  0.
         23    2    4    4    0    0  0.10674086367E+03 -0.43339916076E+03  0.27429620287E+03  0.53176577876E+03  0.91148187181E+02 0.  0.
         23    2    4    4    0    0  0.30004817865E+03  0.40455632499E+03  0.68913454036E+03  0.85836736713E+03  0.90517360950E+02 0.  0.
          2    1    3    3  502    0 -0.39065248217E+03  0.26984170992E+02  0.61817979961E+03  0.73176756689E+03  0.00000000000E+00 0. -1.
         -1    1    3    3    0  502 -0.16136560151E+02  0.18586647789E+01  0.46077137574E+01  0.16884141504E+02  0.00000000000E+00 0.  1.
         11    1    5    5    0    0  0.64210516609E+02 -0.30941102251E+03  0.14512174106E+03  0.34773336197E+03  0.00000000000E+00 0.  1.
        -11    1    5    5    0    0  0.42530347063E+02 -0.12398813825E+03  0.12917446181E+03  0.18403241679E+03  0.00000000000E+00 0. -1.
          1    1    6    6  503    0  0.76744079201E-01  0.24589160095E+02  0.16405602245E+02  0.29559710229E+02  0.00000000000E+00 0. -1.
         -1    1    6    6    0  503  0.29997143457E+03  0.37996716489E+03  0.67272893812E+03  0.82880765690E+03  0.00000000000E+00 0.  1.
<mgrwt>
<rscale>  0 0.14346819E+04</rscale>
<asrwt>0</asrwt>
<pdfrwt beam="1">  1        2 0.28653869E+00 0.14346819E+04</pdfrwt>
<pdfrwt beam="2">  1       -1 0.42505124E-01 0.14346819E+04</pdfrwt>
<totfact> 0.47989736E+01</totfact>
</mgrwt>
</event>
<event>
12    6  0.1494052E-007  0.2808611E+04  0.7818608E-02  0.8300600E-01
          2   -1    0    0  501    0  0.00000000000E+00  0.00000000000E+00  0.31728971846E+04  0.31728971846E+04  0.00000000000E+00 0. -1.
         -1   -1    0    0    0  501 -0.00000000000E+00 -0.00000000000E+00 -0.62153744554E+03  0.62153744554E+03  0.00000000000E+00 0.  1.
         24    2    1    2    0    0 -0.10371374981E+04 -0.21555893568E+02  0.17058435683E+03  0.10538140676E+04  0.72843803520E+02 0.  0.
        254    2    1    2    0    0  0.10371374981E+04  0.21555893568E+02  0.23807753822E+04  0.27406205625E+04  0.87566591853E+03 0.  0.
         23    2    4    4    0    0  0.64165096776E+03  0.22000042670E+03  0.62245093430E+03  0.92524353891E+03  0.92272902387E+02 0.  0.
         23    2    4    4    0    0  0.39548653033E+03 -0.19844453313E+03  0.17583244479E+04  0.18153770236E+04  0.89994696812E+02 0.  0.
          2    1    3    3  502    0 -0.23223416749E+03  0.86103091473E+01  0.66001562802E+02  0.24158446197E+03  0.00000000000E+00 0. -1.
         -1    1    3    3    0  502 -0.80490333060E+03 -0.30166202715E+02  0.10458279402E+03  0.81222960559E+03  0.00000000000E+00 0.  1.
         11    1    5    5    0    0  0.63270360437E+03  0.21060512919E+03  0.59030265051E+03  0.89057598812E+03  0.00000000000E+00 0.  1.
        -11    1    5    5    0    0  0.89473633847E+01  0.93952975088E+01  0.32148283790E+02  0.34667550786E+02  0.00000000000E+00 0. -1.
          1    1    6    6  503    0  0.80146323515E+02 -0.51473582341E+02  0.25209765381E+03  0.26949246726E+03  0.00000000000E+00 0. -1.
         -1    1    6    6    0  503  0.31534020681E+03 -0.14697095079E+03  0.15062267941E+04  0.15458845564E+04  0.00000000000E+00 0.  1.
<mgrwt>
<rscale>  0 0.28086113E+04</rscale>
<asrwt>0</asrwt>
<pdfrwt beam="1">  1        2 0.48813802E+00 0.28086113E+04</pdfrwt>
<pdfrwt beam="2">  1       -1 0.95621147E-01 0.28086113E+04</pdfrwt>
<totfact> 0.14077253E+00</totfact>
</mgrwt>
</event>
<event>
12    6  0.1494052E-007  0.1889200E+04  0.7818608E-02  0.8660251E-01
          2   -1    0    0  501    0  0.00000000000E+00  0.00000000000E+00  0.71308666927E+03  0.71308666927E+03  0.00000000000E+00 0. -1.
         -1   -1    0    0    0  501 -0.00000000000E+00 -0.00000000000E+00 -0.12512778981E+04  0.12512778981E+04  0.00000000000E+00 0.  1.
         24    2    1    2    0    0 -0.94819231695E+02  0.60973683077E+03 -0.60504606875E+03  0.86791131071E+03  0.80122459057E+02 0.  0.
        254    2    1    2    0    0  0.94819231695E+02 -0.60973683077E+03  0.66854839880E+02  0.10964532567E+04  0.90386419612E+03 0.  0.
         23    2    4    4    0    0  0.31929901677E+02 -0.81919918798E+03 -0.63761966788E+02  0.82723298303E+03  0.90232985091E+02 0.  0.
         23    2    4    4    0    0  0.62889330018E+02  0.20946235721E+03  0.13061680667E+03  0.26922027368E+03  0.87116351271E+02 0.  0.
          4    1    3    3  502    0  0.56001961321E+01  0.41614662396E+02 -0.20945669621E+02  0.46924017294E+02  0.00000000000E+00 0. -1.
         -3    1    3    3    0  502 -0.10041942783E+03  0.56812216837E+03 -0.58410039913E+03  0.82098729341E+03  0.00000000000E+00 0.  1.
         11    1    5    5    0    0 -0.12730927472E+02 -0.12248917629E+03  0.17474103362E+02  0.12438255147E+03  0.00000000000E+00 0. -1.
        -11    1    5    5    0    0  0.44660829149E+02 -0.69671001169E+03 -0.81236070150E+02  0.70285043156E+03  0.00000000000E+00 0.  1.
          2    1    6    6  503    0  0.80318239949E+01 -0.51055276811E+01  0.18918434701E+02  0.21177435660E+02  0.00000000000E+00 0. -1.
         -2    1    6    6    0  503  0.54857506023E+02  0.21456788489E+03  0.11169837197E+03  0.24804283802E+03  0.00000000000E+00 0.  1.
<mgrwt>
<rscale>  0 0.18892005E+04</rscale>
<asrwt>0</asrwt>
<pdfrwt beam="1">  1        2 0.10970564E+00 0.18892005E+04</pdfrwt>
<pdfrwt beam="2">  1       -1 0.19250429E+00 0.18892005E+04</pdfrwt>
<totfact> 0.72667246E+00</totfact>
</mgrwt>
</event>
<event>
12    6  0.1494052E-007  0.2186003E+04  0.7818608E-02  0.8524277E-01
          2   -1    0    0  501    0  0.00000000000E+00  0.00000000000E+00  0.17658628398E+04  0.17658628398E+04  0.00000000000E+00 0. -1.
         -1   -1    0    0    0  501 -0.00000000000E+00 -0.00000000000E+00 -0.67652603374E+03  0.67652603374E+03  0.00000000000E+00 0.  1.
         24    2    1    2    0    0 -0.28001911411E+03 -0.50815046015E+03 -0.32562142620E+03  0.67182965269E+03  0.93264004930E+02 0.  0.
        254    2    1    2    0    0  0.28001911411E+03  0.50815046015E+03  0.14149582322E+04  0.17705592208E+04  0.89226989251E+03 0.  0.
         23    2    4    4    0    0  0.22370931109E+02  0.68467658609E+03  0.11875299260E+04  0.13739429291E+04  0.90605525984E+02 0.  0.
         23    2    4    4    0    0  0.25764818300E+03 -0.17652612593E+03  0.22742830626E+03  0.39661629170E+03  0.89648140052E+02 0.  0.
          4    1    3    3  502    0 -0.41564323004E+02 -0.13989561151E+03 -0.52773778615E+02  0.15518842346E+03  0.00000000000E+00 0. -1.
         -3    1    3    3    0  502 -0.23845479110E+03 -0.36825484864E+03 -0.27284764758E+03  0.51664122923E+03  0.00000000000E+00 0.  1.
         11    1    5    5    0    0 -0.14446495164E+02  0.11092730652E+03  0.14206224410E+03  0.18081827826E+03  0.00000000000E+00 0. -1.
        -11    1    5    5    0    0  0.36817426273E+02  0.57374927957E+03  0.10454676819E+04  0.11931246509E+04  0.00000000000E+00 0.  1.
          3    1    6    6  503    0 -0.45241207865E+01 -0.52464918151E+00 -0.32218196215E+01  0.55788033957E+01  0.00000000000E+00 0. -1.
         -3    1    6    6    0  503  0.26217230379E+03 -0.17600147675E+03  0.23065012588E+03  0.39103748831E+03  0.00000000000E+00 0.  1.
<mgrwt>
<rscale>  0 0.21860029E+04</rscale>
<asrwt>0</asrwt>
<pdfrwt beam="1">  1        2 0.27167120E+00 0.21860029E+04</pdfrwt>
<pdfrwt beam="2">  1       -1 0.10408093E+00 0.21860029E+04</pdfrwt>
<totfact> 0.81611775E+00</totfact>
</mgrwt>
</event>
<event>
12    6  0.2227409E-007  0.1905905E+04  0.7818608E-02  0.8651923E-01
          2   -1    0    0  501    0  0.00000000000E+00  0.00000000000E+00  0.17551546419E+04  0.17551546419E+04  0.00000000000E+00 0. -1.
         -1   -1    0    0    0  501 -0.00000000000E+00 -0.00000000000E+00 -0.51740075636E+03  0.51740075636E+03  0.00000000000E+00 0.  1.
         24    2    1    2    0    0  0.60438173229E+03  0.31325042677E+03  0.14463837257E+03  0.70029646503E+03  0.78049804086E+02 0.  0.
        254    2    1    2    0    0 -0.60438173229E+03 -0.31325042677E+03  0.10931155130E+04  0.15722589333E+04  0.90204962183E+03 0.  0.
         23    2    4    4    0    0 -0.64534317656E+03 -0.16772605023E+03  0.26197008282E+03  0.72247475494E+03  0.93496544210E+02 0.  0.
         23    2    4    4    0    0  0.40961444272E+02 -0.14552437654E+03  0.83114543021E+03  0.84978417833E+03  0.92061063965E+02 0.  0.
          2    1    3    3  502    0  0.40553027902E+02  0.26718059185E+02 -0.91289984462E+01  0.49413979512E+02  0.00000000000E+00 0. -1.
         -1    1    3    3    0  502  0.56382870439E+03  0.28653236759E+03  0.15376737101E+03  0.65088248552E+03  0.00000000000E+00 0.  1.
         11    1    5    5    0    0 -0.18810192371E+03 -0.68823489222E+02  0.38248504993E+02  0.20391653809E+03  0.00000000000E+00 0. -1.
        -11    1    5    5    0    0 -0.45724125285E+03 -0.98902561008E+02  0.22372157782E+03  0.51855821686E+03  0.00000000000E+00 0.  1.
          2    1    6    6  503    0 -0.29852401406E+02 -0.41264363806E+02  0.24733826867E+03  0.25252748907E+03  0.00000000000E+00 0. -1.
         -2    1    6    6    0  503  0.70813845678E+02 -0.10426001274E+03  0.58380716154E+03  0.59725668926E+03  0.00000000000E+00 0.  1.
<mgrwt>
<rscale>  0 0.19059049E+04</rscale>
<asrwt>0</asrwt>
<pdfrwt beam="1">  1        2 0.27002379E+00 0.19059049E+04</pdfrwt>
<pdfrwt beam="2">  1       -1 0.79600117E-01 0.19059049E+04</pdfrwt>
<totfact> 0.15360466E+01</totfact>
</mgrwt>
</event>
<event>
12    6  0.1494052E-007  0.1536534E+04  0.7818608E-02  0.8860515E-01
         -1   -1    0    0    0  501 -0.00000000000E+00  0.00000000000E+00  0.21600091418E+03  0.21600091418E+03  0.00000000000E+00 0.  1.
          2   -1    0    0  501    0  0.00000000000E+00 -0.00000000000E+00 -0.27325545163E+04  0.27325545163E+04  0.00000000000E+00 0. -1.
         24    2    1    2    0    0  0.23660814994E+03 -0.33943903953E+03 -0.32446985384E+03  0.53200823086E+03  0.80930794341E+02 0.  0.
        254    2    1    2    0    0 -0.23660814994E+03  0.33943903953E+03 -0.21920837482E+04  0.24165471996E+04  0.92912159070E+03 0.  0.
         23    2    4    4    0    0  0.10488392496E+03  0.56043771045E+03 -0.10121528914E+04  0.11650950102E+04  0.88892305732E+02 0.  0.
         23    2    4    4    0    0 -0.34149207490E+03 -0.22099867092E+03 -0.11799308568E+04  0.12514521894E+04  0.91861340174E+02 0.  0.
          4    1    3    3  502    0  0.17527888046E+02 -0.16127042010E+02 -0.47758949868E+02  0.53368770230E+02  0.00000000000E+00 0. -1.
         -3    1    3    3    0  502  0.21908026189E+03 -0.32331199752E+03 -0.27671090397E+03  0.47863946063E+03  0.00000000000E+00 0.  1.
         11    1    5    5    0    0 -0.82015938999E+01  0.59496547721E+01 -0.28849627819E+02  0.30577206539E+02  0.00000000000E+00 0.  1.
        -11    1    5    5    0    0  0.11308551886E+03  0.55448805568E+03 -0.98330326362E+03  0.11345178036E+04  0.00000000000E+00 0. -1.
          1    1    6    6  503    0 -0.33752178538E+03 -0.19326516645E+03 -0.10954550325E+04  0.11624517660E+04  0.00000000000E+00 0. -1.
         -1    1    6    6    0  503 -0.39702895178E+01 -0.27733504473E+02 -0.84475824315E+02  0.89000423386E+02  0.00000000000E+00 0.  1.
<mgrwt>
<rscale>  0 0.15365341E+04</rscale>
<asrwt>0</asrwt>
<pdfrwt beam="1">  1        2 0.42039297E+00 0.15365341E+04</pdfrwt>
<pdfrwt beam="2">  1       -1 0.33230912E-01 0.15365341E+04</pdfrwt>
<totfact> 0.23822632E+01</totfact>
</mgrwt>
</event>
<event>
12    6  0.1494052E-007  0.1364854E+04  0.7818608E-02  0.8979659E-01
         -1   -1    0    0    0  501 -0.00000000000E+00  0.00000000000E+00  0.34801223908E+03  0.34801223908E+03  0.00000000000E+00 0.  1.
          2   -1    0    0  501    0  0.00000000000E+00 -0.00000000000E+00 -0.13381912957E+04  0.13381912957E+04  0.00000000000E+00 0. -1.
         24    2    1    2    0    0 -0.71102174741E+01  0.11844268868E+03 -0.72399598624E+03  0.73778073350E+03  0.77916602437E+02 0.  0.
        254    2    1    2    0    0  0.71102174741E+01 -0.11844268868E+03 -0.26618307033E+03  0.94842280124E+03  0.90253706698E+03 0.  0.
         23    2    4    4    0    0 -0.24016879540E+01  0.30246895299E+03  0.14998795292E+03  0.34937293965E+03  0.89843359857E+02 0.  0.
         23    2    4    4    0    0  0.95119054281E+01 -0.42091164167E+03 -0.41617102325E+03  0.59904986159E+03  0.91680584832E+02 0.  0.
          2    1    3    3  502    0  0.20743378149E+02  0.92116034693E+02 -0.61580124378E+03  0.62299825315E+03  0.00000000000E+00 0. -1.
         -1    1    3    3    0  502 -0.27853595623E+02  0.26326653991E+02 -0.10819474246E+03  0.11478248035E+03  0.00000000000E+00 0.  1.
         11    1    5    5    0    0 -0.32899066564E+02  0.46463940886E+02  0.36910025387E+02  0.67849807350E+02  0.00000000000E+00 0.  1.
        -11    1    5    5    0    0  0.30497378610E+02  0.25600501210E+03  0.11307792753E+03  0.28152313230E+03  0.00000000000E+00 0. -1.
          3    1    6    6  503    0 -0.36757197996E+02 -0.28154839257E+03 -0.26801623897E+03  0.39045267743E+03  0.00000000000E+00 0. -1.
         -3    1    6    6    0  503  0.46269103424E+02 -0.13936324910E+03 -0.14815478428E+03  0.20859718416E+03  0.00000000000E+00 0.  1.
<mgrwt>
<rscale>  0 0.13648545E+04</rscale>
<asrwt>0</asrwt>
<pdfrwt beam="1">  1        2 0.20587558E+00 0.13648545E+04</pdfrwt>
<pdfrwt beam="2">  1       -1 0.53540345E-01 0.13648545E+04</pdfrwt>
<totfact> 0.61480166E+01</totfact>
</mgrwt>
</event>
<event>
12    6  0.1494052E-007  0.1789952E+04  0.7818608E-02  0.8711661E-01
          2   -1    0    0  501    0  0.00000000000E+00  0.00000000000E+00  0.85784278237E+03  0.85784278237E+03  0.00000000000E+00 0. -1.
         -1   -1    0    0    0  501 -0.00000000000E+00 -0.00000000000E+00 -0.93371608017E+03  0.93371608017E+03  0.00000000000E+00 0.  1.
         24    2    1    2    0    0  0.75665414903E+02 -0.53347542885E+03 -0.40912375525E+03  0.68125476141E+03  0.80028211541E+02 0.  0.
        254    2    1    2    0    0 -0.75665414903E+02  0.53347542885E+03  0.33325045745E+03  0.11103041011E+04  0.91181030998E+03 0.  0.
         23    2    4    4    0    0 -0.11047558969E+02  0.22097944475E+03 -0.30730125909E+03  0.38899318959E+03  0.89037487313E+02 0.  0.
         23    2    4    4    0    0 -0.64617855934E+02  0.31249598409E+03  0.64055171654E+03  0.72131091153E+03  0.90297963192E+02 0.  0.
          4    1    3    3  502    0  0.44787154176E+01 -0.10866603556E+03 -0.46813616540E+02  0.11840557786E+03  0.00000000000E+00 0. -1.
         -3    1    3    3    0  502  0.71186699485E+02 -0.42480939329E+03 -0.36231013871E+03  0.56284918355E+03  0.00000000000E+00 0.  1.
         11    1    5    5    0    0 -0.44796363289E+02  0.71246978850E+02 -0.12484594951E+03  0.15056346591E+03  0.00000000000E+00 0.  1.
        -11    1    5    5    0    0  0.33748804320E+02  0.14973246590E+03 -0.18245530959E+03  0.23842972368E+03  0.00000000000E+00 0. -1.
          4    1    6    6  503    0 -0.58717376743E+02  0.18474713671E+03  0.29637548403E+03  0.35414356183E+03  0.00000000000E+00 0. -1.
         -4    1    6    6    0  503 -0.59004791904E+01  0.12774884739E+03  0.34417623251E+03  0.36716734970E+03  0.00000000000E+00 0.  1.
<mgrwt>
<rscale>  0 0.17899515E+04</rscale>
<asrwt>0</asrwt>
<pdfrwt beam="1">  1        2 0.13197581E+00 0.17899515E+04</pdfrwt>
<pdfrwt beam="2">  1       -1 0.14364863E+00 0.17899515E+04</pdfrwt>
<totfact> 0.13239336E+01</totfact>
</mgrwt>
</event>
<event>
12    6  0.1494052E-007  0.2122612E+04  0.7818608E-02  0.8551348E-01
         -1   -1    0    0    0  501 -0.00000000000E+00  0.00000000000E+00  0.51718352321E+03  0.51718352321E+03  0.00000000000E+00 0.  1.
          2   -1    0    0  501    0  0.00000000000E+00 -0.00000000000E+00 -0.21778928554E+04  0.21778928554E+04  0.00000000000E+00 0. -1.
         24    2    1    2    0    0 -0.31783439940E+03 -0.61174348969E+03 -0.11848189346E+02  0.69409250057E+03  0.79844956818E+02 0.  0.
        254    2    1    2    0    0  0.31783439940E+03  0.61174348969E+03 -0.16488611429E+04  0.20009838781E+04  0.89996922683E+03 0.  0.
         23    2    4    4    0    0 -0.10509846465E+03  0.42358561086E+02  0.50831200256E+02  0.15663698877E+03  0.95453655575E+02 0.  0.
         23    2    4    4    0    0  0.42293286405E+03  0.56938492861E+03 -0.16996923431E+04  0.18443468893E+04  0.97928455439E+02 0.  0.
          2    1    3    3  502    0 -0.41833277094E+02 -0.14826559997E+03  0.83580078877E+01  0.15428080730E+03  0.00000000000E+00 0. -1.
         -1    1    3    3    0  502 -0.27600112231E+03 -0.46347788973E+03 -0.20206197233E+02  0.53981169327E+03  0.00000000000E+00 0.  1.
         11    1    5    5    0    0 -0.17135567072E+02  0.26101185963E+02  0.59061131962E+02  0.66806563122E+02  0.00000000000E+00 0. -1.
        -11    1    5    5    0    0 -0.87962897581E+02  0.16257375123E+02 -0.82299317057E+01  0.89830425650E+02  0.00000000000E+00 0.  1.
          1    1    6    6  503    0  0.36370301120E+03  0.46331897581E+03 -0.14869244891E+04  0.15993401108E+04  0.00000000000E+00 0. -1.
         -1    1    6    6    0  503  0.59229852850E+02  0.10606595280E+03 -0.21276785407E+03  0.24500677855E+03  0.00000000000E+00 0.  1.
<mgrwt>
<rscale>  0 0.21226119E+04</rscale>
<asrwt>0</asrwt>
<pdfrwt beam="1">  1        2 0.33506043E+00 0.21226119E+04</pdfrwt>
<pdfrwt beam="2">  1       -1 0.79566697E-01 0.21226119E+04</pdfrwt>
<totfact> 0.87792326E+00</totfact>
</mgrwt>
</event>
<event>
12    6  0.2313364E-007  0.1456664E+04  0.7818608E-02  0.8913794E-01
          2   -1    0    0  501    0  0.00000000000E+00  0.00000000000E+00  0.85802649888E+03  0.85802649888E+03  0.00000000000E+00 0. -1.
         -1   -1    0    0    0  501 -0.00000000000E+00 -0.00000000000E+00 -0.61824102706E+03  0.61824102706E+03  0.00000000000E+00 0.  1.
         24    2    1    2    0    0 -0.13096362836E+03 -0.61576599063E+02 -0.37075379300E+03  0.40591261329E+03  0.79771706090E+02 0.  0.
        254    2    1    2    0    0  0.13096362836E+03  0.61576599063E+02  0.61053926482E+03  0.10703549126E+04  0.86715528923E+03 0.  0.
         23    2    4    4    0    0  0.18468948381E+03  0.41180868142E+03  0.51753730992E+03  0.69293304821E+03  0.92815659369E+02 0.  0.
         23    2    4    4    0    0 -0.53725855444E+02 -0.35023208235E+03  0.93001954905E+02  0.37742186444E+03  0.90823571213E+02 0.  0.
          2    1    3    3  502    0 -0.12737367213E+02  0.23549854526E+01 -0.15992370815E+01  0.13051591445E+02  0.00000000000E+00 0. -1.
         -1    1    3    3    0  502 -0.11822626115E+03 -0.63931584516E+02 -0.36915455592E+03  0.39286102184E+03  0.00000000000E+00 0.  1.
         11    1    5    5    0    0  0.20254790576E+02  0.90141668484E+01  0.96500292888E+01  0.24179222703E+02  0.00000000000E+00 0.  1.
        -11    1    5    5    0    0  0.16443469323E+03  0.40279451457E+03  0.50788728063E+03  0.66875382551E+03  0.00000000000E+00 0. -1.
          4    1    6    6  503    0 -0.42645877582E+02 -0.35128664497E+03  0.85652509627E+02  0.36408423505E+03  0.00000000000E+00 0. -1.
         -4    1    6    6    0  503 -0.11079977862E+02  0.10545626169E+01  0.73494452785E+01  0.13337629386E+02  0.00000000000E+00 0.  1.
<mgrwt>
<rscale>  0 0.14566636E+04</rscale>
<asrwt>0</asrwt>
<pdfrwt beam="1">  1        2 0.13200408E+00 0.14566636E+04</pdfrwt>
<pdfrwt beam="2">  1       -1 0.95114004E-01 0.14566636E+04</pdfrwt>
<totfact> 0.37033307E+01</totfact>
</mgrwt>
</event>
<event>
12    6  0.1494052E-007  0.2859577E+04  0.7818608E-02  0.8285007E-01
          2   -1    0    0  501    0  0.00000000000E+00  0.00000000000E+00  0.10864838014E+04  0.10864838014E+04  0.00000000000E+00 0. -1.
         -1   -1    0    0    0  501 -0.00000000000E+00 -0.00000000000E+00 -0.18815693158E+04  0.18815693158E+04  0.00000000000E+00 0.  1.
         24    2    1    2    0    0 -0.29379175079E+03  0.70272752730E+03 -0.14434159141E+04  0.16339648193E+04  0.79069330665E+02 0.  0.
        254    2    1    2    0    0  0.29379175079E+03 -0.70272752730E+03  0.64833039963E+03  0.13340882979E+04  0.88279086378E+03 0.  0.
         23    2    4    4    0    0 -0.18887259773E+03 -0.13543715441E+03 -0.10541641261E+03  0.27061344736E+03  0.90016314508E+02 0.  0.
         23    2    4    4    0    0  0.48266434852E+03 -0.56729037289E+03  0.75374681224E+03  0.10634748506E+04  0.89784521784E+02 0.  0.
          2    1    3    3  502    0 -0.15116136860E+03  0.42693532370E+03 -0.91855810231E+03  0.10241447736E+04  0.00000000000E+00 0. -1.
         -1    1    3    3    0  502 -0.14263038219E+03  0.27579220360E+03 -0.52485781179E+03  0.60982004566E+03  0.00000000000E+00 0.  1.
         11    1    5    5    0    0 -0.11542831673E+03 -0.81667372043E+02 -0.14792591034E+02  0.14216918340E+03  0.00000000000E+00 0.  1.
        -11    1    5    5    0    0 -0.73444281000E+02 -0.53769782371E+02 -0.90623821577E+02  0.12844426396E+03  0.00000000000E+00 0. -1.
          1    1    6    6  503    0  0.33464693321E+03 -0.45293725327E+03  0.56153451465E+03  0.79527462958E+03  0.00000000000E+00 0. -1.
         -1    1    6    6    0  503  0.14801741531E+03 -0.11435311962E+03  0.19221229759E+03  0.26820022100E+03  0.00000000000E+00 0.  1.
<mgrwt>
<rscale>  0 0.28595766E+04</rscale>
<asrwt>0</asrwt>
<pdfrwt beam="1">  1        2 0.16715135E+00 0.28595766E+04</pdfrwt>
<pdfrwt beam="2">  1       -1 0.28947220E+00 0.28595766E+04</pdfrwt>
<totfact> 0.84689183E-01</totfact>
</mgrwt>
</event>
<event>
12    6  0.1494052E-007  0.2315184E+04  0.7818608E-02  0.8471958E-01
          2   -1    0    0  501    0  0.00000000000E+00  0.00000000000E+00  0.25877135900E+04  0.25877135900E+04  0.00000000000E+00 0. -1.
         -1   -1    0    0    0  501 -0.00000000000E+00 -0.00000000000E+00 -0.51783913794E+03  0.51783913794E+03  0.00000000000E+00 0.  1.
         24    2    1    2    0    0  0.80188485787E+03  0.22617962352E+03  0.15836649445E+04  0.17912576030E+04  0.80203467543E+02 0.  0.
        254    2    1    2    0    0 -0.80188485787E+03 -0.22617962352E+03  0.48620950755E+03  0.13142951250E+04  0.89263399164E+03 0.  0.
         23    2    4    4    0    0 -0.74456989580E+03 -0.29035093650E+03 -0.90686677462E+01  0.80340282581E+03  0.81767131081E+02 0.  0.
         23    2    4    4    0    0 -0.57314962065E+02  0.64171312980E+02  0.49527817529E+03  0.51089229920E+03  0.91145532946E+02 0.  0.
          4    1    3    3  502    0  0.47271159583E+03  0.94792628641E+02  0.94241286217E+03  0.10585763544E+04  0.00000000000E+00 0. -1.
         -3    1    3    3    0  502  0.32917326204E+03  0.13138699488E+03  0.64125208238E+03  0.73268124858E+03  0.00000000000E+00 0.  1.
         11    1    5    5    0    0 -0.15806419329E+03 -0.34203338110E+02 -0.22382135697E+02  0.16326395052E+03  0.00000000000E+00 0.  1.
        -11    1    5    5    0    0 -0.58650570251E+03 -0.25614759839E+03  0.13313467950E+02  0.64013887529E+03  0.00000000000E+00 0. -1.
          1    1    6    6  503    0 -0.30250749077E+02 -0.95534023568E+01  0.53584615625E+02  0.62271071518E+02  0.00000000000E+00 0.  1.
         -1    1    6    6    0  503 -0.27064212988E+02  0.73724715337E+02  0.44169355967E+03  0.44862122768E+03  0.00000000000E+00 0. -1.
<mgrwt>
<rscale>  0 0.23151841E+04</rscale>
<asrwt>0</asrwt>
<pdfrwt beam="1">  1        2 0.39810978E+00 0.23151841E+04</pdfrwt>
<pdfrwt beam="2">  1       -1 0.79667561E-01 0.23151841E+04</pdfrwt>
<totfact> 0.50168820E+00</totfact>
</mgrwt>
</event>
<event>
12    6  0.1494052E-007  0.1562328E+04  0.7818608E-02  0.8844032E-01
         -1   -1    0    0    0  501 -0.00000000000E+00  0.00000000000E+00  0.24439643841E+03  0.24439643841E+03  0.00000000000E+00 0.  1.
          2   -1    0    0  501    0  0.00000000000E+00 -0.00000000000E+00 -0.24968329738E+04  0.24968329738E+04  0.00000000000E+00 0. -1.
         24    2    1    2    0    0  0.41762242272E+03 -0.11134450500E+02 -0.13104252202E+04  0.13777518819E+04  0.80333843328E+02 0.  0.
        254    2    1    2    0    0 -0.41762242272E+03  0.11134450500E+02 -0.94201131514E+03  0.13634775303E+04  0.89283435962E+03 0.  0.
         23    2    4    4    0    0 -0.31901420959E+03  0.30743420264E+03 -0.93419788045E+03  0.10381361432E+04  0.93354791837E+02 0.  0.
         23    2    4    4    0    0 -0.98608213133E+02 -0.29629975214E+03 -0.78134346882E+01  0.32534138703E+03  0.90933192730E+02 0.  0.
          4    1    3    3  502    0  0.22941239616E+03  0.22532394947E+02 -0.80563967302E+03  0.83796959317E+03  0.00000000000E+00 0. -1.
         -3    1    3    3    0  502  0.18821002656E+03 -0.33666845447E+02 -0.50478554721E+03  0.53978228875E+03  0.00000000000E+00 0.  1.
         11    1    5    5    0    0 -0.10513840203E+03  0.16474092734E+03 -0.38708266717E+03  0.43362039614E+03  0.00000000000E+00 0. -1.
        -11    1    5    5    0    0 -0.21387580756E+03  0.14269327530E+03 -0.54711521328E+03  0.60451574708E+03  0.00000000000E+00 0.  1.
          1    1    6    6  503    0 -0.10847037528E+03 -0.29571844824E+03 -0.10304131348E+02  0.31515297566E+03  0.00000000000E+00 0. -1.
         -1    1    6    6    0  503  0.98621621476E+01 -0.58130389582E+00  0.24906966598E+01  0.10188411373E+02  0.00000000000E+00 0.  1.
<mgrwt>
<rscale>  0 0.15623279E+04</rscale>
<asrwt>0</asrwt>
<pdfrwt beam="1">  1        2 0.38412817E+00 0.15623279E+04</pdfrwt>
<pdfrwt beam="2">  1       -1 0.37599451E-01 0.15623279E+04</pdfrwt>
<totfact> 0.26167317E+01</totfact>
</mgrwt>
</event>
<event>
12    6  0.1494052E-007  0.1660342E+04  0.7818608E-02  0.8784312E-01
          2   -1    0    0  501    0  0.00000000000E+00  0.00000000000E+00  0.81941066223E+03  0.81941066223E+03  0.00000000000E+00 0. -1.
         -1   -1    0    0    0  501 -0.00000000000E+00 -0.00000000000E+00 -0.84107228369E+03  0.84107228369E+03  0.00000000000E+00 0.  1.
         24    2    1    2    0    0  0.35245209252E+03  0.46347151267E+03 -0.81503570570E+01  0.58783227064E+03  0.80324526197E+02 0.  0.
        254    2    1    2    0    0 -0.35245209252E+03 -0.46347151267E+03 -0.13511264404E+02  0.10726506753E+04  0.90076001040E+03 0.  0.
         23    2    4    4    0    0  0.11419666328E+03 -0.30063653525E+03  0.32522170287E+03  0.46590753884E+03  0.88755137878E+02 0.  0.
         23    2    4    4    0    0 -0.46664875580E+03 -0.16283497742E+03 -0.33873296727E+03  0.60674313643E+03  0.95503504299E+02 0.  0.
          4    1    3    3  502    0  0.16844293148E+01 -0.33805556380E+01  0.59952697585E+00  0.38242504014E+01  0.00000000000E+00 0. -1.
         -3    1    3    3    0  502  0.35076766321E+03  0.46685206831E+03 -0.87498840328E+01  0.58400802024E+03  0.00000000000E+00 0.  1.
         11    1    5    5    0    0  0.98191831412E+02 -0.29877691343E+03  0.29278143129E+03  0.42968621838E+03  0.00000000000E+00 0. -1.
        -11    1    5    5    0    0  0.16004831865E+02 -0.18596218282E+01  0.32440271577E+02  0.36221320467E+02  0.00000000000E+00 0.  1.
          1    1    6    6  503    0 -0.36315676302E+03 -0.11055296149E+03 -0.30209035026E+03  0.48514263010E+03  0.00000000000E+00 0. -1.
         -1    1    6    6    0  503 -0.10349199278E+03 -0.52282015924E+02 -0.36642617011E+02  0.12160050633E+03  0.00000000000E+00 0.  1.
<mgrwt>
<rscale>  0 0.16603416E+04</rscale>
<asrwt>0</asrwt>
<pdfrwt beam="1">  1        2 0.12606318E+00 0.16603416E+04</pdfrwt>
<pdfrwt beam="2">  1       -1 0.12939574E+00 0.16603416E+04</pdfrwt>
<totfact> 0.18654551E+01</totfact>
</mgrwt>
</event>
<event>
12    6  0.1494052E-007  0.1172737E+04  0.7818608E-02  0.9137060E-01
         -1   -1    0    0    0  501 -0.00000000000E+00  0.00000000000E+00  0.23034221124E+03  0.23034221124E+03  0.00000000000E+00 0.  1.
          2   -1    0    0  501    0  0.00000000000E+00 -0.00000000000E+00 -0.14926838532E+04  0.14926838532E+04  0.00000000000E+00 0. -1.
         24    2    1    2    0    0 -0.20571641607E+03  0.14424104770E+03 -0.23655573153E+03  0.35424879375E+03  0.80055418732E+02 0.  0.
        254    2    1    2    0    0  0.20571641607E+03 -0.14424104770E+03 -0.10257859105E+04  0.13687772707E+04  0.87074092535E+03 0.  0.
         23    2    4    4    0    0  0.11553554222E+01 -0.26620674204E+03  0.31467890387E+02  0.28089298030E+03  0.83924215218E+02 0.  0.
         23    2    4    4    0    0  0.20456106065E+03  0.12196569434E+03 -0.10572538008E+04  0.10878842904E+04  0.94793311166E+02 0.  0.
          2    1    3    3  502    0 -0.10318372111E+03  0.62625960906E+02 -0.16650382582E+03  0.20565119813E+03  0.00000000000E+00 0. -1.
         -1    1    3    3    0  502 -0.10253269496E+03  0.81615086793E+02 -0.70051905713E+02  0.14859759561E+03  0.00000000000E+00 0.  1.
         11    1    5    5    0    0 -0.17739898584E+02 -0.15075554489E+03  0.55203779950E+02  0.16152212120E+03  0.00000000000E+00 0. -1.
        -11    1    5    5    0    0  0.18895254006E+02 -0.11545119715E+03 -0.23735889563E+02  0.11937085909E+03  0.00000000000E+00 0.  1.
          3    1    6    6  503    0  0.10781175806E+03  0.53587253702E+02 -0.72965289424E+03  0.73951897542E+03  0.00000000000E+00 0. -1.
         -3    1    6    6    0  503  0.96749302584E+02  0.68378440639E+02 -0.32760090660E+03  0.34836531501E+03  0.00000000000E+00 0.  1.
<mgrwt>
<rscale>  0 0.11727371E+04</rscale>
<asrwt>0</asrwt>
<pdfrwt beam="1">  1        2 0.22964367E+00 0.11727371E+04</pdfrwt>
<pdfrwt beam="2">  1       -1 0.35437263E-01 0.11727371E+04</pdfrwt>
<totfact> 0.10946939E+02</totfact>
</mgrwt>
</event>
<event>
12    6  0.1494052E-007  0.1978378E+04  0.7818608E-02  0.8616797E-01
         -1   -1    0    0    0  501 -0.00000000000E+00  0.00000000000E+00  0.38502497495E+03  0.38502497495E+03  0.00000000000E+00 0.  1.
          2   -1    0    0  501    0  0.00000000000E+00 -0.00000000000E+00 -0.25413807613E+04  0.25413807613E+04  0.00000000000E+00 0. -1.
         24    2    1    2    0    0 -0.69473993145E+03  0.18210460612E+03 -0.40877890066E+03  0.83040227957E+03  0.81499057505E+02 0.  0.
        254    2    1    2    0    0  0.69473993145E+03 -0.18210460612E+03 -0.17475768857E+04  0.20960034567E+04  0.90740280971E+03 0.  0.
         23    2    4    4    0    0  0.12910447944E+03 -0.43452727266E+03 -0.40614132275E+03  0.61545957169E+03  0.91420966103E+02 0.  0.
         23    2    4    4    0    0  0.56563545201E+03  0.25242266654E+03 -0.13414355630E+04  0.14805438850E+04  0.94340652399E+02 0.  0.
          2    1    3    3  502    0 -0.43052528722E+03  0.13870034139E+03 -0.29134500866E+03  0.53802576306E+03  0.00000000000E+00 0. -1.
         -1    1    3    3    0  502 -0.26421464423E+03  0.43404264731E+02 -0.11743389200E+03  0.29237651652E+03  0.00000000000E+00 0.  1.
         11    1    5    5    0    0  0.17750803068E+02 -0.21200199290E+03 -0.16863021549E+03  0.27147022964E+03  0.00000000000E+00 0. -1.
        -11    1    5    5    0    0  0.11135367637E+03 -0.22252527975E+03 -0.23751110726E+03  0.34398934205E+03  0.00000000000E+00 0.  1.
          4    1    6    6  503    0  0.23666874227E+03  0.86851977981E+02 -0.64933363424E+03  0.69655547388E+03  0.00000000000E+00 0. -1.
         -4    1    6    6    0  503  0.32896670975E+03  0.16557068856E+03 -0.69210192872E+03  0.78398841112E+03  0.00000000000E+00 0.  1.
<mgrwt>
<rscale>  0 0.19783782E+04</rscale>
<asrwt>0</asrwt>
<pdfrwt beam="1">  1        2 0.39098164E+00 0.19783782E+04</pdfrwt>
<pdfrwt beam="2">  1       -1 0.59234614E-01 0.19783782E+04</pdfrwt>
<totfact> 0.10087706E+01</totfact>
</mgrwt>
</event>
<event>
12    6  0.1494052E-007  0.1177099E+04  0.7818608E-02  0.9133141E-01
          2   -1    0    0  501    0  0.00000000000E+00  0.00000000000E+00  0.90485903492E+03  0.90485903492E+03  0.00000000000E+00 0. -1.
         -1   -1    0    0    0  501 -0.00000000000E+00 -0.00000000000E+00 -0.38281183746E+03  0.38281183746E+03  0.00000000000E+00 0.  1.
         24    2    1    2    0    0  0.12199395553E+03 -0.67345640521E+02  0.31972132293E+03  0.35731205723E+03  0.77667376857E+02 0.  0.
        254    2    1    2    0    0 -0.12199395553E+03  0.67345640521E+02  0.20232587453E+03  0.93035881515E+03  0.89733706317E+03 0.  0.
         23    2    4    4    0    0  0.34855054048E+02  0.97799305196E+02 -0.33486313259E+03  0.36261436961E+03  0.92608231774E+02 0.  0.
         23    2    4    4    0    0 -0.15684900957E+03 -0.30453664675E+02  0.53718900712E+03  0.56774444554E+03  0.90734164302E+02 0.  0.
          2    1    3    3  502    0  0.94075838530E+02 -0.15524023473E+02  0.15066323237E+03  0.17829937826E+03  0.00000000000E+00 0. -1.
         -3    1    3    3    0  502  0.27918116996E+02 -0.51821617049E+02  0.16905809056E+03  0.17901267897E+03  0.00000000000E+00 0.  1.
         11    1    5    5    0    0  0.65433754980E+02  0.53162298829E+02 -0.22146163856E+03  0.23696637665E+03  0.00000000000E+00 0. -1.
        -11    1    5    5    0    0 -0.30578700932E+02  0.44637006367E+02 -0.11340149403E+03  0.12564799297E+03  0.00000000000E+00 0.  1.
          1    1    6    6  503    0 -0.76189912604E+02  0.16784116283E+02  0.14593937697E+03  0.16548386958E+03  0.00000000000E+00 0. -1.
         -1    1    6    6    0  503 -0.80659096969E+02 -0.47237780958E+02  0.39124963015E+03  0.40226057595E+03  0.00000000000E+00 0.  1.
<mgrwt>
<rscale>  0 0.11770994E+04</rscale>
<asrwt>0</asrwt>
<pdfrwt beam="1">  1        2 0.13920908E+00 0.11770994E+04</pdfrwt>
<pdfrwt beam="2">  1       -1 0.58894129E-01 0.11770994E+04</pdfrwt>
<totfact> 0.95885958E+01</totfact>
</mgrwt>
</event>
<event>
12    6  0.1494052E-007  0.1385906E+04  0.7818608E-02  0.8964084E-01
          2   -1    0    0  501    0  0.00000000000E+00  0.00000000000E+00  0.25357219260E+03  0.25357219260E+03  0.00000000000E+00 0. -1.
         -1   -1    0    0    0  501 -0.00000000000E+00 -0.00000000000E+00 -0.18936768167E+04  0.18936768167E+04  0.00000000000E+00 0.  1.
         24    2    1    2    0    0 -0.41413211578E+02 -0.37758895516E+03 -0.29863797802E+03  0.48990583964E+03  0.80836975723E+02 0.  0.
        254    2    1    2    0    0  0.41413211578E+02  0.37758895516E+03 -0.13414666460E+04  0.16573431696E+04  0.89608322509E+03 0.  0.
         23    2    4    4    0    0 -0.59823183747E+02  0.40863157053E+03 -0.13743028660E+03  0.44517786417E+03  0.93475522611E+02 0.  0.
         23    2    4    4    0    0  0.10123639532E+03 -0.31042615365E+02 -0.12040363595E+04  0.12121653055E+04  0.91808066950E+02 0.  0.
          4    1    3    3  502    0 -0.40486038113E+02 -0.31514566784E+03 -0.20773406854E+03  0.37961737904E+03  0.00000000000E+00 0. -1.
         -3    1    3    3    0  502 -0.92717346443E+00 -0.62443287327E+02 -0.90903909477E+02  0.11028846060E+03  0.00000000000E+00 0.  1.
         11    1    5    5    0    0 -0.34565069551E+02  0.38524122242E+03 -0.13822054947E+03  0.41074379336E+03  0.00000000000E+00 0.  1.
        -11    1    5    5    0    0 -0.25258114196E+02  0.23390348107E+02  0.79026287555E+00  0.34434070812E+02  0.00000000000E+00 0. -1.
          4    1    6    6  503    0  0.25710273298E+02  0.46506584315E+01 -0.75332705826E+03  0.75378001000E+03  0.00000000000E+00 0. -1.
         -4    1    6    6    0  503  0.75526122027E+02 -0.35693273796E+02 -0.45070930119E+03  0.45838529545E+03  0.00000000000E+00 0.  1.
<mgrwt>
<rscale>  0 0.13859059E+04</rscale>
<asrwt>0</asrwt>
<pdfrwt beam="1">  1        2 0.39011108E-01 0.13859059E+04</pdfrwt>
<pdfrwt beam="2">  1       -1 0.29133489E+00 0.13859059E+04</pdfrwt>
<totfact> 0.55763118E+00</totfact>
</mgrwt>
</event>
<event>
12    6  0.1494052E-007  0.1656558E+04  0.7818608E-02  0.8786536E-01
         -1   -1    0    0    0  501 -0.00000000000E+00  0.00000000000E+00  0.97569481933E+03  0.97569481933E+03  0.00000000000E+00 0.  1.
          2   -1    0    0  501    0  0.00000000000E+00 -0.00000000000E+00 -0.70313603621E+03  0.70313603621E+03  0.00000000000E+00 0. -1.
         24    2    1    2    0    0 -0.13577368537E+03 -0.15742833822E+03 -0.45447195809E+03  0.50589974967E+03  0.78559663385E+02 0.  0.
        254    2    1    2    0    0  0.13577368537E+03  0.15742833822E+03  0.72703074121E+03  0.11729311059E+04  0.89664681181E+03 0.  0.
         23    2    4    4    0    0 -0.35890606238E+03 -0.43251078086E+02  0.23331472401E+03  0.43992795107E+03  0.91742162208E+02 0.  0.
         23    2    4    4    0    0  0.49467974775E+03  0.20067941631E+03  0.49371601720E+03  0.73300315479E+03  0.92508585192E+02 0.  0.
          2    1    3    3  502    0 -0.38394523499E+02 -0.10338251358E+03 -0.24445991050E+03  0.26818413709E+03  0.00000000000E+00 0. -1.
         -1    1    3    3    0  502 -0.97379161874E+02 -0.54045824648E+02 -0.21001204759E+03  0.23771561258E+03  0.00000000000E+00 0.  1.
         11    1    5    5    0    0 -0.35425091469E+03 -0.42965614417E+02  0.20563113348E+03  0.41185424319E+03  0.00000000000E+00 0.  1.
        -11    1    5    5    0    0 -0.46551476903E+01 -0.28546366880E+00  0.27683590527E+02  0.28073707878E+02  0.00000000000E+00 0. -1.
          2    1    6    6  503    0  0.81874084772E+02  0.12383309326E+02  0.42348995140E+02  0.93006179883E+02  0.00000000000E+00 0. -1.
         -2    1    6    6    0  503  0.41280566298E+03  0.18829610698E+03  0.45136702206E+03  0.63999697491E+03  0.00000000000E+00 0.  1.
<mgrwt>
<rscale>  0 0.16565581E+04</rscale>
<asrwt>0</asrwt>
<pdfrwt beam="1">  1        2 0.10817478E+00 0.16565581E+04</pdfrwt>
<pdfrwt beam="2">  1       -1 0.15010689E+00 0.16565581E+04</pdfrwt>
<totfact> 0.15470326E+01</totfact>
</mgrwt>
</event>
<event>
12    6  0.1494052E-007  0.1687565E+04  0.7818608E-02  0.8768488E-01
          2   -1    0    0  501    0  0.00000000000E+00  0.00000000000E+00  0.13681435303E+04  0.13681435303E+04  0.00000000000E+00 0. -1.
         -1   -1    0    0    0  501 -0.00000000000E+00 -0.00000000000E+00 -0.52039072589E+03  0.52039072589E+03  0.00000000000E+00 0.  1.
         24    2    1    2    0    0 -0.33943600766E+03  0.37116417598E+03  0.69065706678E+03  0.85866553817E+03  0.85555091746E+02 0.  0.
        254    2    1    2    0    0  0.33943600766E+03 -0.37116417598E+03  0.15709573764E+03  0.10298687180E+04  0.88485640461E+03 0.  0.
         23    2    4    4    0    0  0.44204379090E+03  0.11973351739E+03 -0.67340531138E+02  0.47266962000E+03  0.95619005837E+02 0.  0.
         23    2    4    4    0    0 -0.10260778324E+03 -0.49089769337E+03  0.22443626878E+03  0.55719909804E+03  0.92683836657E+02 0.  0.
          4    1    3    3  502    0 -0.58352785644E+02  0.85876137174E+02  0.19968601833E+03  0.22506502271E+03  0.00000000000E+00 0. -1.
         -3    1    3    3    0  502 -0.28108322202E+03  0.28528803880E+03  0.49097104845E+03  0.63360051547E+03  0.00000000000E+00 0.  1.
         11    1    5    5    0    0  0.41930723305E+03  0.10367936141E+03 -0.40212500953E+02  0.43380296322E+03  0.00000000000E+00 0.  1.
        -11    1    5    5    0    0  0.22736557850E+02  0.16054155982E+02 -0.27128030185E+02  0.38866656775E+02  0.00000000000E+00 0. -1.
          3    1    6    6  503    0 -0.15017971348E+02 -0.48562032952E+02  0.56544206740E+02  0.76033267875E+02  0.00000000000E+00 0. -1.
         -3    1    6    6    0  503 -0.87589811887E+02 -0.44233566042E+03  0.16789206204E+03  0.48116583016E+03  0.00000000000E+00 0.  1.
<mgrwt>
<rscale>  0 0.16875654E+04</rscale>
<asrwt>0</asrwt>
<pdfrwt beam="1">  1        2 0.21048362E+00 0.16875654E+04</pdfrwt>
<pdfrwt beam="2">  1       -1 0.80060112E-01 0.16875654E+04</pdfrwt>
<totfact> 0.25520834E+01</totfact>
</mgrwt>
</event>
<event>
12    6  0.1494052E-007  0.1279681E+04  0.7818608E-02  0.9045835E-01
          2   -1    0    0  501    0  0.00000000000E+00  0.00000000000E+00  0.20399710543E+04  0.20399710543E+04  0.00000000000E+00 0. -1.
         -1   -1    0    0    0  501 -0.00000000000E+00 -0.00000000000E+00 -0.20068702162E+03  0.20068702162E+03  0.00000000000E+00 0.  1.
         24    2    1    2    0    0 -0.72437392161E+02 -0.29664482860E+03  0.64541293800E+03  0.71909534529E+03  0.85410332885E+02 0.  0.
        254    2    1    2    0    0  0.72437392161E+02  0.29664482860E+03  0.11938710947E+04  0.15215627306E+04  0.89251309370E+03 0.  0.
         23    2    4    4    0    0  0.14605694377E+03 -0.19746603722E+03  0.45783446396E+02  0.26618755306E+03  0.91838024602E+02 0.  0.
         23    2    4    4    0    0 -0.73619551605E+02  0.49411086582E+03  0.11480876483E+04  0.12553751776E+04  0.91083490354E+02 0.  0.
          2    1    3    3  502    0 -0.23500231709E+02 -0.22666290165E+03  0.41634587575E+03  0.47462850750E+03  0.00000000000E+00 0. -1.
         -1    1    3    3    0  502 -0.48937160452E+02 -0.69981926942E+02  0.22906706225E+03  0.24446683779E+03  0.00000000000E+00 0.  1.
         11    1    5    5    0    0  0.75633264848E+02 -0.16957706505E+03  0.23048510891E+02  0.18710426397E+03  0.00000000000E+00 0.  1.
        -11    1    5    5    0    0  0.70423678918E+02 -0.27888972177E+02  0.22734935505E+02  0.79083289094E+02  0.00000000000E+00 0. -1.
          1    1    6    6  503    0 -0.80294900523E+02  0.24326419667E+03  0.54720057065E+03  0.60419632980E+03  0.00000000000E+00 0. -1.
         -1    1    6    6    0  503  0.66753489176E+01  0.25084666915E+03  0.60088707763E+03  0.65117884776E+03  0.00000000000E+00 0.  1.
<mgrwt>
<rscale>  0 0.12796808E+04</rscale>
<asrwt>0</asrwt>
<pdfrwt beam="1">  1        2 0.31384169E+00 0.12796808E+04</pdfrwt>
<pdfrwt beam="2">  1       -1 0.30874928E-01 0.12796808E+04</pdfrwt>
<totfact> 0.68920990E+01</totfact>
</mgrwt>
</event>
<event>
12    6  0.1494052E-007  0.1375937E+04  0.7818608E-02  0.8971423E-01
          2   -1    0    0  501    0  0.00000000000E+00  0.00000000000E+00  0.96721690433E+03  0.96721690433E+03  0.00000000000E+00 0. -1.
         -1   -1    0    0    0  501 -0.00000000000E+00 -0.00000000000E+00 -0.48934278633E+03  0.48934278633E+03  0.00000000000E+00 0.  1.
         24    2    1    2    0    0  0.10871640935E+03 -0.49804672272E+02  0.53634239105E+03  0.55544168678E+03  0.80947785223E+02 0.  0.
        254    2    1    2    0    0 -0.10871640935E+03  0.49804672272E+02 -0.58468273044E+02  0.90111800388E+03  0.89123249207E+03 0.  0.
         23    2    4    4    0    0 -0.25372720112E+03 -0.26235122411E+03 -0.29251432072E+03  0.47563728543E+03  0.86374429574E+02 0.  0.
         23    2    4    4    0    0  0.14501079177E+03  0.31215589638E+03  0.23404604768E+03  0.42548071845E+03  0.88243163844E+02 0.  0.
          2    1    3    3  502    0  0.23809091210E+02 -0.43523259191E+02  0.30337174651E+03  0.30740130692E+03  0.00000000000E+00 0. -1.
         -1    1    3    3    0  502  0.84907318136E+02 -0.62814130814E+01  0.23297064454E+03  0.24804037986E+03  0.00000000000E+00 0.  1.
         11    1    5    5    0    0 -0.22833216810E+03 -0.26173096136E+03 -0.25746479300E+03  0.43235031485E+03  0.00000000000E+00 0.  1.
        -11    1    5    5    0    0 -0.25395033020E+02 -0.62026275387E+00 -0.35049527723E+02  0.43286970575E+02  0.00000000000E+00 0. -1.
          2    1    6    6  503    0  0.73038033071E+00  0.92245819904E+02  0.57330951775E+02  0.10861244301E+03  0.00000000000E+00 0. -1.
         -2    1    6    6    0  503  0.14428041144E+03  0.21991007648E+03  0.17671509590E+03  0.31686827544E+03  0.00000000000E+00 0.  1.
<mgrwt>
<rscale>  0 0.13759369E+04</rscale>
<asrwt>0</asrwt>
<pdfrwt beam="1">  1        2 0.14880260E+00 0.13759369E+04</pdfrwt>
<pdfrwt beam="2">  1       -1 0.75283506E-01 0.13759369E+04</pdfrwt>
<totfact> 0.52211250E+01</totfact>
</mgrwt>
</event>
<event>
12    6  0.1494052E-007  0.1839531E+04  0.7818608E-02  0.8685555E-01
         -1   -1    0    0    0  501 -0.00000000000E+00  0.00000000000E+00  0.28011763781E+03  0.28011763781E+03  0.00000000000E+00 0.  1.
          2   -1    0    0  501    0  0.00000000000E+00 -0.00000000000E+00 -0.30200474647E+04  0.30200474647E+04  0.00000000000E+00 0. -1.
         24    2    1    2    0    0  0.25369203501E+03 -0.23645676890E+03 -0.20634498672E+04  0.20939404623E+04  0.80559623603E+02 0.  0.
        254    2    1    2    0    0 -0.25369203501E+03  0.23645676890E+03 -0.67647995962E+03  0.12062246402E+04  0.93652618466E+03 0.  0.
         23    2    4    4    0    0 -0.30227908029E+03  0.26110339213E+03 -0.88318663663E+03  0.97359758492E+03  0.91246909432E+02 0.  0.
         23    2    4    4    0    0  0.48587045278E+02 -0.24646623226E+02  0.20670667700E+03  0.23262705523E+03  0.91758048707E+02 0.  0.
          2    1    3    3  502    0  0.17146492350E+03 -0.16938587656E+03 -0.11976021619E+04  0.12216148056E+04  0.00000000000E+00 0. -1.
         -1    1    3    3    0  502  0.82227111516E+02 -0.67070892335E+02 -0.86584770535E+03  0.87232565669E+03  0.00000000000E+00 0.  1.
         11    1    5    5    0    0 -0.68070333213E+02  0.27193970065E+02 -0.22882212736E+03  0.24027619158E+03  0.00000000000E+00 0. -1.
        -11    1    5    5    0    0 -0.23420874708E+03  0.23390942206E+03 -0.65436450927E+03  0.73332139334E+03  0.00000000000E+00 0.  1.
          2    1    6    6  503    0  0.66325841235E+02 -0.34619013276E+02  0.19565068399E+03  0.20946785777E+03  0.00000000000E+00 0.  1.
         -2    1    6    6    0  503 -0.17738795958E+02  0.99723900497E+01  0.11055993018E+02  0.23159197459E+02  0.00000000000E+00 0. -1.
<mgrwt>
<rscale>  0 0.18395310E+04</rscale>
<asrwt>0</asrwt>
<pdfrwt beam="1">  1        2 0.46462268E+00 0.18395310E+04</pdfrwt>
<pdfrwt beam="2">  1       -1 0.43095022E-01 0.18395310E+04</pdfrwt>
<totfact> 0.96544230E+00</totfact>
</mgrwt>
</event>
<event>
12    6  0.1494052E-007  0.1770896E+04  0.7818608E-02  0.8721932E-01
         -1   -1    0    0    0  501 -0.00000000000E+00  0.00000000000E+00  0.39856007230E+03  0.39856007230E+03  0.00000000000E+00 0.  1.
          2   -1    0    0  501    0  0.00000000000E+00 -0.00000000000E+00 -0.19671255951E+04  0.19671255951E+04  0.00000000000E+00 0. -1.
         24    2    1    2    0    0 -0.37233410476E+03 -0.36393771872E+03 -0.29461840047E+02  0.52772911476E+03  0.80911494049E+02 0.  0.
        254    2    1    2    0    0  0.37233410476E+03  0.36393771872E+03 -0.15391036827E+04  0.18379565526E+04  0.85916284512E+03 0.  0.
         23    2    4    4    0    0 -0.93914537934E+02 -0.20898506325E+03 -0.26286571129E+03  0.36022123864E+03  0.90367369639E+02 0.  0.
         23    2    4    4    0    0  0.46624864269E+03  0.57292278197E+03 -0.12762379714E+04  0.14777353140E+04  0.96384581361E+02 0.  0.
          4    1    3    3  502    0 -0.73554498129E+02 -0.56963381166E+02 -0.34787707434E+02  0.99324093640E+02  0.00000000000E+00 0. -1.
         -3    1    3    3    0  502 -0.29877960663E+03 -0.30697433756E+03  0.53258673871E+01  0.42840502112E+03  0.00000000000E+00 0.  1.
         11    1    5    5    0    0 -0.66308906279E+01 -0.16040060435E+01 -0.50068315527E+02  0.50530958487E+02  0.00000000000E+00 0.  1.
        -11    1    5    5    0    0 -0.87283647306E+02 -0.20738105721E+03 -0.21279739576E+03  0.30969028015E+03  0.00000000000E+00 0. -1.
          3    1    6    6  503    0  0.34745568420E+03  0.48545141566E+03 -0.10030708141E+04  0.11672787103E+04  0.00000000000E+00 0. -1.
         -3    1    6    6    0  503  0.11879295849E+03  0.87471366310E+02 -0.27316715731E+03  0.31045660364E+03  0.00000000000E+00 0.  1.
<mgrwt>
<rscale>  0 0.17708955E+04</rscale>
<asrwt>0</asrwt>
<pdfrwt beam="1">  1        2 0.30263471E+00 0.17708955E+04</pdfrwt>
<pdfrwt beam="2">  1       -1 0.61316934E-01 0.17708955E+04</pdfrwt>
<totfact> 0.20258806E+01</totfact>
</mgrwt>
</event>
<event>
12    6  0.1494052E-007  0.1845393E+04  0.7818608E-02  0.8682526E-01
          2   -1    0    0  501    0  0.00000000000E+00  0.00000000000E+00  0.21984203714E+04  0.21984203714E+04  0.00000000000E+00 0. -1.
         -1   -1    0    0    0  501 -0.00000000000E+00 -0.00000000000E+00 -0.38726393137E+03  0.38726393137E+03  0.00000000000E+00 0.  1.
         24    2    1    2    0    0  0.58793244090E+03  0.30662252427E+03  0.38792418504E+03  0.77234744648E+03  0.79708702745E+02 0.  0.
        254    2    1    2    0    0 -0.58793244090E+03 -0.30662252427E+03  0.14232322550E+04  0.18133368563E+04  0.90714859602E+03 0.  0.
         23    2    4    4    0    0 -0.58370332060E+03  0.17899062693E+03  0.65937655774E+03  0.90356890227E+03  0.94403947199E+02 0.  0.
         23    2    4    4    0    0 -0.42291203067E+01 -0.48561315120E+03  0.76385569727E+03  0.90976795403E+03  0.91455923032E+02 0.  0.
          2    1    3    3  502    0  0.59061093425E+03  0.30501487074E+03  0.38577441223E+03  0.76855529675E+03  0.00000000000E+00 0. -1.
         -1    1    3    3    0  502 -0.26784933464E+01  0.16076535264E+01  0.21497728066E+01  0.37921497317E+01  0.00000000000E+00 0.  1.
         11    1    5    5    0    0 -0.48937552860E+03  0.13856504066E+03  0.49461232260E+03  0.70945755909E+03  0.00000000000E+00 0.  1.
        -11    1    5    5    0    0 -0.94327791993E+02  0.40425586273E+02  0.16476423514E+03  0.19411134318E+03  0.00000000000E+00 0. -1.
          4    1    6    6  503    0 -0.10288540363E+01 -0.21089873140E+02  0.82252493725E+02  0.84919456037E+02  0.00000000000E+00 0. -1.
         -4    1    6    6    0  503 -0.32002662704E+01 -0.46452327806E+03  0.68160320354E+03  0.82484849799E+03  0.00000000000E+00 0.  1.
<mgrwt>
<rscale>  0 0.18453931E+04</rscale>
<asrwt>0</asrwt>
<pdfrwt beam="1">  1        2 0.33821851E+00 0.18453931E+04</pdfrwt>
<pdfrwt beam="2">  1       -1 0.59579068E-01 0.18453931E+04</pdfrwt>
<totfact> 0.15832376E+01</totfact>
</mgrwt>
</event>
<event>
12    6  0.1494052E-007  0.1117692E+04  0.7818608E-02  0.9188118E-01
          2   -1    0    0  501    0  0.00000000000E+00  0.00000000000E+00  0.22502108527E+04  0.22502108527E+04  0.00000000000E+00 0. -1.
         -1   -1    0    0    0  501 -0.00000000000E+00 -0.00000000000E+00 -0.13879094511E+03  0.13879094511E+03  0.00000000000E+00 0.  1.
         24    2    1    2    0    0 -0.12776597891E+03  0.14930003262E+03  0.90824361672E+03  0.93270208168E+03  0.80075344171E+02 0.  0.
        254    2    1    2    0    0  0.12776597891E+03 -0.14930003262E+03  0.12031762908E+04  0.14562997161E+04  0.79659339136E+03 0.  0.
         23    2    4    4    0    0 -0.28014481557E+03 -0.14961172161E+03  0.83954897909E+03  0.90213355329E+03  0.90209061333E+02 0.  0.
         23    2    4    4    0    0  0.40791079448E+03  0.31168898052E+00  0.36362731174E+03  0.55416616280E+03  0.92108635569E+02 0.  0.
          4    1    3    3  502    0 -0.10412573434E+03  0.85212358641E+02  0.45966223088E+03  0.47894956010E+03  0.00000000000E+00 0. -1.
         -3    1    3    3    0  502 -0.23640244564E+02  0.64087673983E+02  0.44858138584E+03  0.45375252158E+03  0.00000000000E+00 0.  1.
         11    1    5    5    0    0 -0.26722625508E+02 -0.41978147259E+02  0.19482078124E+03  0.20107560857E+03  0.00000000000E+00 0.  1.
        -11    1    5    5    0    0 -0.25342219006E+03 -0.10763357435E+03  0.64472819786E+03  0.70105794472E+03  0.00000000000E+00 0. -1.
          4    1    6    6  503    0  0.32835377107E+03  0.10931093992E+02  0.33430008109E+03  0.46871337938E+03  0.00000000000E+00 0. -1.
         -4    1    6    6    0  503  0.79557023408E+02 -0.10619405012E+02  0.29327230644E+02  0.85452783416E+02  0.00000000000E+00 0.  1.
<mgrwt>
<rscale>  0 0.11176921E+04</rscale>
<asrwt>0</asrwt>
<pdfrwt beam="1">  1        2 0.34618626E+00 0.11176921E+04</pdfrwt>
<pdfrwt beam="2">  1       -1 0.21352455E-01 0.11176921E+04</pdfrwt>
<totfact> 0.10061809E+02</totfact>
</mgrwt>
</event>
<event>
12    6  0.1494052E-007  0.1369855E+04  0.7818608E-02  0.8975932E-01
         -1   -1    0    0    0  501 -0.00000000000E+00  0.00000000000E+00  0.73974000074E+03  0.73974000074E+03  0.00000000000E+00 0.  1.
          2   -1    0    0  501    0  0.00000000000E+00 -0.00000000000E+00 -0.63417680406E+03  0.63417680406E+03  0.00000000000E+00 0. -1.
         24    2    1    2    0    0 -0.26803728376E+03  0.18374684242E+03  0.22848155692E+03  0.40557669547E+03  0.81741950522E+02 0.  0.
        254    2    1    2    0    0  0.26803728376E+03 -0.18374684242E+03 -0.12291836024E+03  0.96834010932E+03  0.90386213354E+03 0.  0.
         23    2    4    4    0    0 -0.29987714094E+03 -0.91548860768E+02  0.10455412299E+03  0.34285864102E+03  0.91175597163E+02 0.  0.
         23    2    4    4    0    0  0.56791442470E+03 -0.92197981649E+02 -0.22747248322E+03  0.62548146831E+03  0.91956919064E+02 0.  0.
          2    1    3    3  502    0 -0.13620179964E+03  0.11561555549E+03  0.80334799946E+02  0.19588661766E+03  0.00000000000E+00 0. -1.
         -1    1    3    3    0  502 -0.13183548412E+03  0.68131286930E+02  0.14814675697E+03  0.20969007782E+03  0.00000000000E+00 0.  1.
         11    1    5    5    0    0 -0.26565527000E+03 -0.52185201272E+02  0.10583353136E+03  0.29068325385E+03  0.00000000000E+00 0. -1.
        -11    1    5    5    0    0 -0.34221870945E+02 -0.39363659496E+02 -0.12794083766E+01  0.52175387163E+02  0.00000000000E+00 0.  1.
          3    1    6    6  503    0  0.47017077035E+02 -0.33983625908E+02 -0.15060560905E+02  0.59935906246E+02  0.00000000000E+00 0.  1.
         -3    1    6    6    0  503  0.52089734767E+03 -0.58214355740E+02 -0.21241192232E+03  0.56554556206E+03  0.00000000000E+00 0. -1.
<mgrwt>
<rscale>  0 0.13698554E+04</rscale>
<asrwt>0</asrwt>
<pdfrwt beam="1">  1        2 0.97565662E-01 0.13698554E+04</pdfrwt>
<pdfrwt beam="2">  1       -1 0.11380615E+00 0.13698554E+04</pdfrwt>
<totfact> 0.36372554E+01</totfact>
</mgrwt>
</event>
<event>
12    6  0.1494052E-007  0.2069612E+04  0.7818608E-02  0.8574749E-01
          2   -1    0    0  501    0  0.00000000000E+00  0.00000000000E+00  0.33041591327E+04  0.33041591327E+04  0.00000000000E+00 0. -1.
         -1   -1    0    0    0  501 -0.00000000000E+00 -0.00000000000E+00 -0.32408363494E+03  0.32408363494E+03  0.00000000000E+00 0.  1.
         24    2    1    2    0    0 -0.74546068391E+03  0.25413145410E+03  0.17009780992E+04  0.18760060048E+04  0.76010584223E+02 0.  0.
        254    2    1    2    0    0  0.74546068391E+03 -0.25413145410E+03  0.12790973986E+04  0.17522367629E+04  0.90219127179E+03 0.  0.
         23    2    4    4    0    0  0.11145082814E+03  0.16237670197E+03  0.84808560311E+03  0.87527558030E+03  0.89836912399E+02 0.  0.
         23    2    4    4    0    0  0.63400985577E+03 -0.41650815608E+03  0.43101179553E+03  0.87696118262E+03  0.88556234364E+02 0.  0.
          4    1    3    3  502    0 -0.52325343441E+03  0.16091525181E+03  0.11054903095E+04  0.12336112432E+04  0.00000000000E+00 0. -1.
         -3    1    3    3    0  502 -0.22220724950E+03  0.93216202287E+02  0.59548778965E+03  0.64239476159E+03  0.00000000000E+00 0.  1.
         11    1    5    5    0    0  0.98002425974E+02  0.12238394173E+03  0.48419699899E+03  0.50894895473E+03  0.00000000000E+00 0.  1.
        -11    1    5    5    0    0  0.13448402168E+02  0.39992760244E+02  0.36388860412E+03  0.36632662557E+03  0.00000000000E+00 0. -1.
          1    1    6    6  503    0  0.19311095984E+03 -0.83029325271E+02  0.13592440838E+03  0.25032210541E+03  0.00000000000E+00 0. -1.
         -1    1    6    6    0  503  0.44089889593E+03 -0.33347883080E+03  0.29508738716E+03  0.62663907721E+03  0.00000000000E+00 0.  1.
<mgrwt>
<rscale>  0 0.20696124E+04</rscale>
<asrwt>0</asrwt>
<pdfrwt beam="1">  1        2 0.50833215E+00 0.20696124E+04</pdfrwt>
<pdfrwt beam="2">  1       -1 0.49859023E-01 0.20696124E+04</pdfrwt>
<totfact> 0.47126390E+00</totfact>
</mgrwt>
</event>
<event>
12    6  0.1494052E-007  0.1607676E+04  0.7818608E-02  0.8815846E-01
          2   -1    0    0  501    0  0.00000000000E+00  0.00000000000E+00  0.30320906295E+04  0.30320906295E+04  0.00000000000E+00 0. -1.
         -1   -1    0    0    0  501 -0.00000000000E+00 -0.00000000000E+00 -0.21310554748E+03  0.21310554748E+03  0.00000000000E+00 0.  1.
         24    2    1    2    0    0 -0.27962470202E+03  0.37625257600E+03  0.15475056419E+04  0.16192787245E+04  0.86798046584E+02 0.  0.
        254    2    1    2    0    0  0.27962470202E+03 -0.37625257600E+03  0.12714794401E+04  0.16259174525E+04  0.89843843461E+03 0.  0.
         23    2    4    4    0    0 -0.13015467181E+03  0.22706393893E+03  0.31274673673E+03  0.41790348499E+03  0.91293649682E+02 0.  0.
         23    2    4    4    0    0  0.40977937383E+03 -0.60331651492E+03  0.95873270333E+03  0.12080139675E+04  0.90660888909E+02 0.  0.
          2    1    3    3  502    0 -0.13641432107E+03  0.21081169129E+03  0.96169978143E+03  0.99394009164E+03  0.00000000000E+00 0. -1.
         -1    1    3    3    0  502 -0.14321038095E+03  0.16544088471E+03  0.58580586049E+03  0.62533863284E+03  0.00000000000E+00 0.  1.
         11    1    5    5    0    0 -0.13134771419E+03  0.23154771114E+03  0.31526526711E+03  0.41262422760E+03  0.00000000000E+00 0.  1.
        -11    1    5    5    0    0  0.11930423776E+01 -0.44837722083E+01 -0.25185303769E+01  0.52792573900E+01  0.00000000000E+00 0. -1.
          4    1    6    6  503    0  0.23128263790E+03 -0.26024070828E+03  0.44790209132E+03  0.56730341815E+03  0.00000000000E+00 0. -1.
         -4    1    6    6    0  503  0.17849673593E+03 -0.34307580664E+03  0.51083061201E+03  0.64071054932E+03  0.00000000000E+00 0.  1.
<mgrwt>
<rscale>  0 0.16076758E+04</rscale>
<asrwt>0</asrwt>
<pdfrwt beam="1">  1        2 0.46647545E+00 0.16076758E+04</pdfrwt>
<pdfrwt beam="2">  1       -1 0.32785471E-01 0.16076758E+04</pdfrwt>
<totfact> 0.15916252E+01</totfact>
</mgrwt>
</event>
<event>
12    6  0.1494052E-007  0.2754283E+04  0.7818608E-02  0.8317604E-01
          2   -1    0    0  501    0  0.00000000000E+00  0.00000000000E+00  0.69210267354E+03  0.69210267354E+03  0.00000000000E+00 0. -1.
         -1   -1    0    0    0  501 -0.00000000000E+00 -0.00000000000E+00 -0.27402271853E+04  0.27402271853E+04  0.00000000000E+00 0.  1.
         24    2    1    2    0    0  0.66411354316E+02 -0.11869563465E+04 -0.50972831577E+03  0.12959668427E+04  0.80195168538E+02 0.  0.
        254    2    1    2    0    0 -0.66411354316E+02  0.11869563465E+04 -0.15383961960E+04  0.21363630162E+04  0.88549886764E+03 0.  0.
         23    2    4    4    0    0 -0.14209234565E+03  0.79888444580E+02  0.52791339554E+02  0.19436870980E+03  0.91759858041E+02 0.  0.
         23    2    4    4    0    0  0.75680991329E+02  0.11070679019E+04 -0.15911875355E+04  0.19419943064E+04  0.90206212958E+02 0.  0.
          2    1    3    3  502    0  0.59387492574E+02 -0.90515743774E+03 -0.35242484434E+03  0.97315986985E+03  0.00000000000E+00 0. -1.
         -1    1    3    3    0  502  0.70238617422E+01 -0.28179890872E+03 -0.15730347143E+03  0.32280697284E+03  0.00000000000E+00 0.  1.
         11    1    5    5    0    0 -0.12145034827E+03  0.98098223708E+02  0.30782907242E+02  0.15912584947E+03  0.00000000000E+00 0. -1.
        -11    1    5    5    0    0 -0.20641997372E+02 -0.18209779128E+02  0.22008432312E+02  0.35242860329E+02  0.00000000000E+00 0.  1.
          4    1    6    6  503    0  0.35035069873E+02  0.64168383431E+03 -0.99675767704E+03  0.11859643612E+04  0.00000000000E+00 0. -1.
         -4    1    6    6    0  503  0.40645921456E+02  0.46538406757E+03 -0.59442985850E+03  0.75602994515E+03  0.00000000000E+00 0.  1.
<mgrwt>
<rscale>  0 0.27542829E+04</rscale>
<asrwt>0</asrwt>
<pdfrwt beam="1">  1        2 0.10647733E+00 0.27542829E+04</pdfrwt>
<pdfrwt beam="2">  1       -1 0.42157343E+00 0.27542829E+04</pdfrwt>
<totfact> 0.21039934E-01</totfact>
</mgrwt>
</event>
<event>
12    6  0.1494052E-007  0.1089243E+04  0.7818608E-02  0.9215741E-01
         -1   -1    0    0    0  501 -0.00000000000E+00  0.00000000000E+00  0.13958630499E+03  0.13958630499E+03  0.00000000000E+00 0.  1.
          2   -1    0    0  501    0  0.00000000000E+00 -0.00000000000E+00 -0.21249391562E+04  0.21249391562E+04  0.00000000000E+00 0. -1.
         24    2    1    2    0    0  0.41314176172E+02 -0.57370480517E+02 -0.30034631842E+02  0.11169343314E+03  0.81087056367E+02 0.  0.
        254    2    1    2    0    0 -0.41314176172E+02  0.57370480517E+02 -0.19553182193E+04  0.21528320280E+04  0.89800788903E+03 0.  0.
         23    2    4    4    0    0  0.64931686798E+02 -0.31849630277E+03 -0.30691900754E+03  0.45638081408E+03  0.91804964144E+02 0.  0.
         23    2    4    4    0    0 -0.10624586297E+03  0.37586678329E+03 -0.16483992118E+04  0.16964512139E+04  0.90347870021E+02 0.  0.
          2    1    3    3  502    0  0.64997872835E+01 -0.11259081526E+02 -0.49146170812E+02  0.50836603516E+02  0.00000000000E+00 0. -1.
         -1    1    3    3    0  502  0.34814388888E+02 -0.46111398992E+02  0.19111538970E+02  0.60856829629E+02  0.00000000000E+00 0.  1.
         11    1    5    5    0    0  0.44795275504E+02 -0.24711006801E+03 -0.17860487517E+03  0.30817154939E+03  0.00000000000E+00 0. -1.
        -11    1    5    5    0    0  0.20136411294E+02 -0.71386234759E+02 -0.12831413238E+03  0.14820926469E+03  0.00000000000E+00 0.  1.
          2    1    6    6  503    0 -0.89085949076E+02  0.29377683807E+03 -0.14282464029E+04  0.14608658133E+04  0.00000000000E+00 0. -1.
         -2    1    6    6    0  503 -0.17159913894E+02  0.82089945221E+02 -0.22015280887E+03  0.23558540066E+03  0.00000000000E+00 0.  1.
<mgrwt>
<rscale>  0 0.10892427E+04</rscale>
<asrwt>0</asrwt>
<pdfrwt beam="1">  1        2 0.32691374E+00 0.10892427E+04</pdfrwt>
<pdfrwt beam="2">  1       -1 0.21474815E-01 0.10892427E+04</pdfrwt>
<totfact> 0.11728386E+02</totfact>
</mgrwt>
</event>
<event>
12    6  0.1494052E-007  0.1560699E+04  0.7818608E-02  0.8845063E-01
         -1   -1    0    0    0  501 -0.00000000000E+00  0.00000000000E+00  0.13018584401E+04  0.13018584401E+04  0.00000000000E+00 0.  1.
          2   -1    0    0  501    0  0.00000000000E+00 -0.00000000000E+00 -0.46775082602E+03  0.46775082602E+03  0.00000000000E+00 0. -1.
         24    2    1    2    0    0 -0.50673076310E+03 -0.10896158933E+03  0.36471578808E+03  0.63871936013E+03  0.79348098293E+02 0.  0.
        254    2    1    2    0    0  0.50673076310E+03  0.10896158933E+03  0.46939182597E+03  0.11308899060E+04  0.88878264998E+03 0.  0.
         23    2    4    4    0    0  0.50326598436E+03 -0.25424257472E+03  0.49411785714E+03  0.75533502260E+03  0.91992400781E+02 0.  0.
         23    2    4    4    0    0  0.34647787479E+01  0.36320416406E+03 -0.24726031169E+02  0.37555488337E+03  0.92199915006E+02 0.  0.
          2    1    3    3  502    0 -0.27702833290E+03 -0.50493609546E+02  0.15076359090E+03  0.31941190049E+03  0.00000000000E+00 0. -1.
         -1    1    3    3    0  502 -0.22970243020E+03 -0.58467979789E+02  0.21395219718E+03  0.31930745964E+03  0.00000000000E+00 0.  1.
         11    1    5    5    0    0  0.28711675689E+02 -0.21112639240E+02  0.67886820359E+01  0.36279333791E+02  0.00000000000E+00 0. -1.
        -11    1    5    5    0    0  0.47455430867E+03 -0.23312993548E+03  0.48732917511E+03  0.71905568880E+03  0.00000000000E+00 0.  1.
          4    1    6    6  503    0 -0.27743554112E+02  0.36364689070E+02  0.43393756033E+01  0.45944810225E+02  0.00000000000E+00 0. -1.
         -4    1    6    6    0  503  0.31208332860E+02  0.32683947499E+03 -0.29065406773E+02  0.32961007315E+03  0.00000000000E+00 0.  1.
<mgrwt>
<rscale>  0 0.15606990E+04</rscale>
<asrwt>0</asrwt>
<pdfrwt beam="1">  1        2 0.71961666E-01 0.15606990E+04</pdfrwt>
<pdfrwt beam="2">  1       -1 0.20028591E+00 0.15606990E+04</pdfrwt>
<totfact> 0.10958837E+01</totfact>
</mgrwt>
</event>
<event>
12    6  0.1494052E-007  0.1262977E+04  0.7818608E-02  0.9059451E-01
          2   -1    0    0  501    0  0.00000000000E+00  0.00000000000E+00  0.60357119476E+03  0.60357119476E+03  0.00000000000E+00 0. -1.
         -1   -1    0    0    0  501 -0.00000000000E+00 -0.00000000000E+00 -0.66069720347E+03  0.66069720347E+03  0.00000000000E+00 0.  1.
         24    2    1    2    0    0  0.19245386346E+03 -0.10626898651E+03  0.23408992690E+03  0.33074082160E+03  0.79118961962E+02 0.  0.
        254    2    1    2    0    0 -0.19245386346E+03  0.10626898651E+03 -0.29121593561E+03  0.93352757663E+03  0.85926446925E+03 0.  0.
         23    2    4    4    0    0  0.28629913268E+02  0.45205951267E+03 -0.10403825494E+03  0.47358157992E+03  0.90983951446E+02 0.  0.
         23    2    4    4    0    0 -0.22108377672E+03 -0.34579052616E+03 -0.18717768067E+03  0.45994599670E+03  0.89809305912E+02 0.  0.
          2    1    3    3  502    0  0.18857176888E+03 -0.76335794862E+02  0.20552729827E+03  0.28918495108E+03  0.00000000000E+00 0. -1.
         -1    1    3    3    0  502  0.38820945757E+01 -0.29933191644E+02  0.28562628637E+02  0.41555870523E+02  0.00000000000E+00 0.  1.
         11    1    5    5    0    0  0.69346609532E+01  0.16128778724E+02  0.12819574901E+02  0.21738641317E+02  0.00000000000E+00 0.  1.
        -11    1    5    5    0    0  0.21695252315E+02  0.43593073395E+03 -0.11685782984E+03  0.45184293860E+03  0.00000000000E+00 0. -1.
          1    1    6    6  503    0 -0.14464123804E+03 -0.25892822237E+03 -0.93219739032E+02  0.31089360210E+03  0.00000000000E+00 0. -1.
         -1    1    6    6    0  503 -0.76442538687E+02 -0.86862303796E+02 -0.93957941635E+02  0.14905239461E+03  0.00000000000E+00 0.  1.
<mgrwt>
<rscale>  0 0.12629771E+04</rscale>
<asrwt>0</asrwt>
<pdfrwt beam="1">  1        2 0.92857106E-01 0.12629771E+04</pdfrwt>
<pdfrwt beam="2">  1       -1 0.10164572E+00 0.12629771E+04</pdfrwt>
<totfact> 0.50787128E+01</totfact>
</mgrwt>
</event>
<event>
12    6  0.1494052E-007  0.2408939E+04  0.7818608E-02  0.8436165E-01
         -1   -1    0    0    0  501 -0.00000000000E+00  0.00000000000E+00  0.77264075375E+03  0.77264075375E+03  0.00000000000E+00 0.  1.
          2   -1    0    0  501    0  0.00000000000E+00 -0.00000000000E+00 -0.18776470265E+04  0.18776470265E+04  0.00000000000E+00 0. -1.
         24    2    1    2    0    0  0.61266300042E+03  0.78906173396E+03 -0.18856034973E+03  0.10195824462E+04  0.77582130804E+02 0.  0.
        254    2    1    2    0    0 -0.61266300042E+03 -0.78906173396E+03 -0.91644592300E+03  0.16307053340E+04  0.90628493566E+03 0.  0.
         23    2    4    4    0    0 -0.74965146082E+03 -0.27409736013E+03 -0.47819081060E+03  0.93469438194E+03  0.88771959267E+02 0.  0.
         23    2    4    4    0    0  0.13698846040E+03 -0.51496437383E+03 -0.43825511240E+03  0.69601095210E+03  0.91703638435E+02 0.  0.
          2    1    3    3  502    0  0.28854301819E+03  0.30919567246E+03 -0.78046531591E+02  0.43005848243E+03  0.00000000000E+00 0. -1.
         -1    1    3    3    0  502  0.32411998223E+03  0.47986606150E+03 -0.11051381814E+03  0.58952396377E+03  0.00000000000E+00 0.  1.
         11    1    5    5    0    0 -0.84670928144E+02 -0.76007184817E+01 -0.70341102269E+02  0.11033951089E+03  0.00000000000E+00 0. -1.
        -11    1    5    5    0    0 -0.66498053267E+03 -0.26649664165E+03 -0.40784970833E+03  0.82435487105E+03  0.00000000000E+00 0.  1.
          1    1    6    6  503    0  0.45721149723E+00  0.12090122838E+01  0.30523500643E+01  0.33147539834E+01  0.00000000000E+00 0. -1.
         -1    1    6    6    0  503  0.13653124890E+03 -0.51617338612E+03 -0.44130746246E+03  0.69269619812E+03  0.00000000000E+00 0.  1.
<mgrwt>
<rscale>  0 0.24089389E+04</rscale>
<asrwt>0</asrwt>
<pdfrwt beam="1">  1        2 0.28886878E+00 0.24089389E+04</pdfrwt>
<pdfrwt beam="2">  1       -1 0.11886781E+00 0.24089389E+04</pdfrwt>
<totfact> 0.50634295E+00</totfact>
</mgrwt>
</event>
<event>
12    6  0.1494052E-007  0.1938111E+04  0.7818608E-02  0.8636115E-01
         -1   -1    0    0    0  501 -0.00000000000E+00  0.00000000000E+00  0.27293976839E+03  0.27293976839E+03  0.00000000000E+00 0.  1.
          2   -1    0    0  501    0  0.00000000000E+00 -0.00000000000E+00 -0.34405717758E+04  0.34405717758E+04  0.00000000000E+00 0. -1.
         24    2    1    2    0    0  0.20945314837E+03  0.58367595746E+03 -0.43906268471E+03  0.76457161186E+03  0.85120290680E+02 0.  0.
        254    2    1    2    0    0 -0.20945314837E+03 -0.58367595746E+03 -0.27285693227E+04  0.29489399323E+04  0.93091778961E+03 0.  0.
         23    2    4    4    0    0 -0.51764564890E+02  0.11061739850E+03 -0.28949596684E+02  0.15556373753E+03  0.91903309290E+02 0.  0.
         23    2    4    4    0    0 -0.15768858348E+03 -0.69429335596E+03 -0.26996197260E+04  0.27933761948E+04  0.89971923698E+02 0.  0.
          4    1    3    3  502    0 -0.38995950230E+00  0.75727338768E+02 -0.64605382540E+02  0.99542138606E+02  0.00000000000E+00 0. -1.
         -3    1    3    3    0  502  0.20984310788E+03  0.50794861869E+03 -0.37445730217E+03  0.66502947325E+03  0.00000000000E+00 0.  1.
         11    1    5    5    0    0 -0.43366313184E+02  0.12704332965E+03 -0.23128881131E+02  0.13621890423E+03  0.00000000000E+00 0.  1.
        -11    1    5    5    0    0 -0.83982517061E+01 -0.16425931152E+02 -0.58207155532E+01  0.19344833302E+02  0.00000000000E+00 0. -1.
          3    1    6    6  503    0 -0.42213714382E+02 -0.33913788825E+03 -0.11757476962E+04  0.12244097150E+04  0.00000000000E+00 0. -1.
         -3    1    6    6    0  503 -0.11547486910E+03 -0.35515546771E+03 -0.15238720298E+04  0.15689664798E+04  0.00000000000E+00 0.  1.
<mgrwt>
<rscale>  0 0.19381113E+04</rscale>
<asrwt>0</asrwt>
<pdfrwt beam="1">  1        2 0.52931870E+00 0.19381113E+04</pdfrwt>
<pdfrwt beam="2">  1       -1 0.41990737E-01 0.19381113E+04</pdfrwt>
<totfact> 0.53243189E+00</totfact>
</mgrwt>
</event>
<event>
12    6  0.1494052E-007  0.3182872E+04  0.7818608E-02  0.8193355E-01
         -1   -1    0    0    0  501 -0.00000000000E+00  0.00000000000E+00  0.14473283256E+04  0.14473283256E+04  0.00000000000E+00 0.  1.
          2   -1    0    0  501    0  0.00000000000E+00 -0.00000000000E+00 -0.17498922701E+04  0.17498922701E+04  0.00000000000E+00 0. -1.
         24    2    1    2    0    0 -0.78776659771E+03 -0.95135065988E+03 -0.92164125256E+03  0.15431718879E+04  0.79451787681E+02 0.  0.
        254    2    1    2    0    0  0.78776659771E+03  0.95135065988E+03  0.61907730812E+03  0.16540487079E+04  0.90938227606E+03 0.  0.
         23    2    4    4    0    0  0.13207072367E+03  0.82329403065E+03  0.47753573692E+03  0.96517678545E+03  0.90940146185E+02 0.  0.
         23    2    4    4    0    0  0.65569587404E+03  0.12805662923E+03  0.14154157120E+03  0.68887192241E+03  0.90415317140E+02 0.  0.
          4    1    3    3  502    0 -0.25322690802E+03 -0.34772093986E+03 -0.28752590570E+03  0.51740203460E+03  0.00000000000E+00 0. -1.
         -3    1    3    3    0  502 -0.53453968969E+03 -0.60362972002E+03 -0.63411534687E+03  0.10257698533E+04  0.00000000000E+00 0.  1.
         11    1    5    5    0    0  0.91827055139E+02  0.31385001829E+03  0.16684659487E+03  0.36711282769E+03  0.00000000000E+00 0.  1.
        -11    1    5    5    0    0  0.40243668530E+02  0.50944401236E+03  0.31068914204E+03  0.59806395776E+03  0.00000000000E+00 0. -1.
          4    1    6    6  503    0  0.52580505244E+03  0.13686645338E+03  0.10207000211E+03  0.55283059301E+03  0.00000000000E+00 0. -1.
         -4    1    6    6    0  503  0.12989082160E+03 -0.88098241488E+01  0.39471569098E+02  0.13604132940E+03  0.00000000000E+00 0.  1.
<mgrwt>
<rscale>  0 0.31828721E+04</rscale>
<asrwt>0</asrwt>
<pdfrwt beam="1">  1        2 0.26921419E+00 0.31828721E+04</pdfrwt>
<pdfrwt beam="2">  1       -1 0.22266590E+00 0.31828721E+04</pdfrwt>
<totfact> 0.93250000E-01</totfact>
</mgrwt>
</event>
<event>
12    6  0.1717840E-007  0.1458198E+04  0.7818608E-02  0.8912737E-01
         -1   -1    0    0    0  501 -0.00000000000E+00  0.00000000000E+00  0.70744783924E+03  0.70744783924E+03  0.00000000000E+00 0.  1.
          2   -1    0    0  501    0  0.00000000000E+00 -0.00000000000E+00 -0.75141246865E+03  0.75141246865E+03  0.00000000000E+00 0. -1.
         24    2    1    2    0    0 -0.25802277894E+03  0.11879923120E+02  0.36986795936E+03  0.45816233816E+03  0.79959575541E+02 0.  0.
        254    2    1    2    0    0  0.25802277894E+03 -0.11879923120E+02 -0.41383258877E+03  0.10006979697E+04  0.87374030928E+03 0.  0.
         23    2    4    4    0    0  0.27192477600E+03 -0.38016547523E+03 -0.39572236171E+03  0.61961790192E+03  0.94134395777E+02 0.  0.
         23    2    4    4    0    0 -0.13901997057E+02  0.36828555211E+03 -0.18110227062E+02  0.38108006781E+03  0.95218298363E+02 0.  0.
          4    1    3    3  502    0 -0.76869815160E+02  0.37384262452E+02  0.93004129029E+02  0.12631832638E+03  0.00000000000E+00 0. -1.
         -3    1    3    3    0  502 -0.18115296378E+03 -0.25504339332E+02  0.27686383034E+03  0.33184401179E+03  0.00000000000E+00 0.  1.
         11    1    5    5    0    0  0.34964143028E+02 -0.91621211543E+02 -0.47103655968E+02  0.10879196711E+03  0.00000000000E+00 0. -1.
        -11    1    5    5    0    0  0.23696063297E+03 -0.28854426368E+03 -0.34861870574E+03  0.51082593481E+03  0.00000000000E+00 0.  1.
          3    1    6    6  503    0 -0.62267144423E+01  0.30238046106E+03  0.22513105855E+02  0.30328131354E+03  0.00000000000E+00 0.  1.
         -3    1    6    6    0  503 -0.76752826149E+01  0.65905091042E+02 -0.40623332917E+02  0.77798754269E+02  0.00000000000E+00 0. -1.
<mgrwt>
<rscale>  0 0.14581977E+04</rscale>
<asrwt>0</asrwt>
<pdfrwt beam="1">  1        2 0.11560192E+00 0.14581977E+04</pdfrwt>
<pdfrwt beam="2">  1       -1 0.10883813E+00 0.14581977E+04</pdfrwt>
<totfact> 0.32412768E+01</totfact>
</mgrwt>
</event>
<event>
12    6  0.1494052E-007  0.1200646E+04  0.7818608E-02  0.9112292E-01
         -1   -1    0    0    0  501 -0.00000000000E+00  0.00000000000E+00  0.11572737578E+03  0.11572737578E+03  0.00000000000E+00 0.  1.
          2   -1    0    0  501    0  0.00000000000E+00 -0.00000000000E+00 -0.31141071586E+04  0.31141071586E+04  0.00000000000E+00 0. -1.
         24    2    1    2    0    0 -0.13743253494E+03  0.10184178805E+02 -0.12356755684E+04  0.12462501078E+04  0.85169252579E+02 0.  0.
        254    2    1    2    0    0  0.13743253494E+03 -0.10184178805E+02 -0.17627042144E+04  0.19835844266E+04  0.89916050339E+03 0.  0.
         23    2    4    4    0    0 -0.67921535691E+02  0.31955650053E+03 -0.14125818929E+04  0.14527871575E+04  0.92050142773E+02 0.  0.
         23    2    4    4    0    0  0.20535407063E+03 -0.32974067933E+03 -0.35012232148E+03  0.53079726910E+03  0.90889443568E+02 0.  0.
          4    1    3    3  502    0 -0.14452691811E+03 -0.56652053972E+01 -0.11046695610E+04  0.11140982738E+04  0.00000000000E+00 0. -1.
         -3    1    3    3    0  502  0.70943831657E+01  0.15849384202E+02 -0.13100600742E+03  0.13215183401E+03  0.00000000000E+00 0.  1.
         11    1    5    5    0    0 -0.54876083490E+02  0.31500416982E+03 -0.12737731729E+04  0.13132924684E+04  0.00000000000E+00 0. -1.
        -11    1    5    5    0    0 -0.13045452201E+02  0.45523307097E+01 -0.13880872005E+03  0.13949468915E+03  0.00000000000E+00 0.  1.
          3    1    6    6  503    0  0.19343662764E+03 -0.32211895235E+03 -0.35389254905E+03  0.51615722862E+03  0.00000000000E+00 0. -1.
         -3    1    6    6    0  503  0.11917442988E+02 -0.76217269760E+01  0.37702275655E+01  0.14640040483E+02  0.00000000000E+00 0.  1.
<mgrwt>
<rscale>  0 0.12006456E+04</rscale>
<asrwt>0</asrwt>
<pdfrwt beam="1">  1        2 0.47909347E+00 0.12006456E+04</pdfrwt>
<pdfrwt beam="2">  1       -1 0.17804210E-01 0.12006456E+04</pdfrwt>
<totfact> 0.41822025E+01</totfact>
</mgrwt>
</event>
<event>
12    6  0.1494052E-007  0.1586370E+04  0.7818608E-02  0.8828965E-01
          2   -1    0    0  501    0  0.00000000000E+00  0.00000000000E+00  0.21161427165E+04  0.21161427165E+04  0.00000000000E+00 0. -1.
         -1   -1    0    0    0  501 -0.00000000000E+00 -0.00000000000E+00 -0.29730630097E+03  0.29730630097E+03  0.00000000000E+00 0.  1.
         24    2    1    2    0    0  0.27821608548E+03  0.85752463374E+02  0.13867849239E+04  0.14190821377E+04  0.76576844075E+02 0.  0.
        254    2    1    2    0    0 -0.27821608548E+03 -0.85752463374E+02  0.43205149157E+03  0.99436687977E+03  0.84695886855E+03 0.  0.
         23    2    4    4    0    0 -0.20370712118E+02 -0.10840875824E+03  0.63637558148E+03  0.65222203735E+03  0.90842063611E+02 0.  0.
         23    2    4    4    0    0 -0.25784537337E+03  0.22656294861E+02 -0.20432408991E+03  0.34214484242E+03  0.91198767600E+02 0.  0.
          2    1    3    3  502    0  0.16966987971E+03  0.60404593136E+02  0.10183984206E+04  0.10342011053E+04  0.00000000000E+00 0. -1.
         -1    1    3    3    0  502  0.10854620577E+03  0.25347870238E+02  0.36838650328E+03  0.38488103242E+03  0.00000000000E+00 0.  1.
         11    1    5    5    0    0  0.32095495977E+02 -0.14637016585E+02  0.17140794717E+03  0.17500013563E+03  0.00000000000E+00 0. -1.
        -11    1    5    5    0    0 -0.52466208095E+02 -0.93771741650E+02  0.46496763431E+03  0.47722190172E+03  0.00000000000E+00 0.  1.
          4    1    6    6  503    0 -0.10242824502E+03  0.36409558117E+02 -0.40756128570E+02  0.11609592291E+03  0.00000000000E+00 0. -1.
         -4    1    6    6    0  503 -0.15541712834E+03 -0.13753263255E+02 -0.16356796134E+03  0.22604891951E+03  0.00000000000E+00 0.  1.
<mgrwt>
<rscale>  0 0.15863702E+04</rscale>
<asrwt>0</asrwt>
<pdfrwt beam="1">  1        2 0.32556041E+00 0.15863702E+04</pdfrwt>
<pdfrwt beam="2">  1       -1 0.45739432E-01 0.15863702E+04</pdfrwt>
<totfact> 0.29904362E+01</totfact>
</mgrwt>
</event>
<event>
12    6  0.1701428E-007  0.1590337E+04  0.7818608E-02  0.8826507E-01
         -1   -1    0    0    0  501 -0.00000000000E+00  0.00000000000E+00  0.25372977726E+03  0.25372977726E+03  0.00000000000E+00 0.  1.
          2   -1    0    0  501    0  0.00000000000E+00 -0.00000000000E+00 -0.24919923405E+04  0.24919923405E+04  0.00000000000E+00 0. -1.
         24    2    1    2    0    0 -0.47453353061E+02 -0.14547646484E+03  0.12508104296E+03  0.21234189283E+03  0.77643992726E+02 0.  0.
        254    2    1    2    0    0  0.47453353061E+02  0.14547646484E+03 -0.23633436062E+04  0.25333802249E+04  0.89955941468E+03 0.  0.
         23    2    4    4    0    0 -0.79079705615E+02  0.14440074876E+03 -0.23684589477E+04  0.23759927424E+04  0.92943794065E+02 0.  0.
         23    2    4    4    0    0  0.12653305868E+03  0.10757160781E+01  0.51153415281E+01  0.15738748251E+03  0.93449884051E+02 0.  0.
          2    1    3    3  502    0 -0.12911860605E+02 -0.23013055275E+02 -0.86306791127E+01  0.27763383787E+02  0.00000000000E+00 0. -1.
         -1    1    3    3    0  502 -0.34541492456E+02 -0.12246340956E+03  0.13371172207E+03  0.18457850904E+03  0.00000000000E+00 0.  1.
         11    1    5    5    0    0 -0.79548073134E+02  0.15328904548E+03 -0.23347481352E+04  0.23411267121E+04  0.00000000000E+00 0.  1.
        -11    1    5    5    0    0  0.46836751946E+00 -0.88882967271E+01 -0.33710812498E+02  0.34866030260E+02  0.00000000000E+00 0. -1.
          3    1    6    6  503    0  0.10343661773E+03  0.34634030709E+01  0.43710115951E+02  0.11234635413E+03  0.00000000000E+00 0.  1.
         -3    1    6    6    0  503  0.23096440943E+02 -0.23876869928E+01 -0.38594774423E+02  0.45041128385E+02  0.00000000000E+00 0. -1.
<mgrwt>
<rscale>  0 0.15903366E+04</rscale>
<asrwt>0</asrwt>
<pdfrwt beam="1">  1        2 0.38338343E+00 0.15903366E+04</pdfrwt>
<pdfrwt beam="2">  1       -1 0.39035351E-01 0.15903366E+04</pdfrwt>
<totfact> 0.24543423E+01</totfact>
</mgrwt>
</event>
<event>
12    6  0.1494052E-007  0.1361086E+04  0.7818608E-02  0.8982478E-01
          2   -1    0    0  501    0  0.00000000000E+00  0.00000000000E+00  0.75552027227E+03  0.75552027227E+03  0.00000000000E+00 0. -1.
         -1   -1    0    0    0  501 -0.00000000000E+00 -0.00000000000E+00 -0.61300683696E+03  0.61300683696E+03  0.00000000000E+00 0.  1.
         24    2    1    2    0    0 -0.18878520057E+03  0.11907138845E+03  0.32292633846E+03  0.39938205221E+03  0.73530647013E+02 0.  0.
        254    2    1    2    0    0  0.18878520057E+03 -0.11907138845E+03 -0.18041290315E+03  0.96914505703E+03  0.92567568751E+03 0.  0.
         23    2    4    4    0    0 -0.33107773307E+03 -0.14211729060E+03  0.82241629224E+02  0.37931192735E+03  0.85463811245E+02 0.  0.
         23    2    4    4    0    0  0.51986293364E+03  0.23045902149E+02 -0.26265453238E+03  0.58983312968E+03  0.90150619002E+02 0.  0.
          4    1    3    3  502    0 -0.15990376723E+03  0.63102979513E+02  0.24176696021E+03  0.29665209227E+03  0.00000000000E+00 0. -1.
         -3    1    3    3    0  502 -0.28881433342E+02  0.55968408937E+02  0.81159378249E+02  0.10272995994E+03  0.00000000000E+00 0.  1.
         11    1    5    5    0    0 -0.13004476121E+03 -0.90595207588E+02  0.64198804731E+02  0.17099888329E+03  0.00000000000E+00 0.  1.
        -11    1    5    5    0    0 -0.20103297186E+03 -0.51522083011E+02  0.18042824492E+02  0.20831304407E+03  0.00000000000E+00 0. -1.
          1    1    6    6  503    0  0.13691178276E+03  0.43180241028E+02 -0.54957188492E+02  0.15371942636E+03  0.00000000000E+00 0.  1.
         -1    1    6    6    0  503  0.38295115088E+03 -0.20134338879E+02 -0.20769734388E+03  0.43611370332E+03  0.00000000000E+00 0. -1.
<mgrwt>
<rscale>  0 0.13610865E+04</rscale>
<asrwt>0</asrwt>
<pdfrwt beam="1">  1        2 0.11623389E+00 0.13610865E+04</pdfrwt>
<pdfrwt beam="2">  1       -1 0.94308744E-01 0.13610865E+04</pdfrwt>
<totfact> 0.45081296E+01</totfact>
</mgrwt>
</event>
<event>
12    6  0.1494052E-007  0.1445766E+04  0.7818608E-02  0.8921341E-01
          2   -1    0    0  501    0  0.00000000000E+00  0.00000000000E+00  0.19013943989E+04  0.19013943989E+04  0.00000000000E+00 0. -1.
         -1   -1    0    0    0  501 -0.00000000000E+00 -0.00000000000E+00 -0.27482961199E+03  0.27482961199E+03  0.00000000000E+00 0.  1.
         24    2    1    2    0    0  0.12951326720E+03  0.39563287853E+03  0.77303865538E+03  0.88175904318E+03  0.81309203419E+02 0.  0.
        254    2    1    2    0    0 -0.12951326720E+03 -0.39563287853E+03  0.85352613155E+03  0.12944649677E+04  0.87967814256E+03 0.  0.
         23    2    4    4    0    0 -0.24782257555E+03  0.19276733433E+02 -0.67478476840E+02  0.27329631591E+03  0.91377842238E+02 0.  0.
         23    2    4    4    0    0  0.11830930835E+03 -0.41490961196E+03  0.92100460839E+03  0.10211686518E+04  0.91590655900E+02 0.  0.
          4    1    3    3  502    0  0.34085208502E+02  0.19585151825E+03  0.42613113132E+03  0.47022054370E+03  0.00000000000E+00 0. -1.
         -3    1    3    3    0  502  0.95428058694E+02  0.19978136028E+03  0.34690752406E+03  0.41153849947E+03  0.00000000000E+00 0.  1.
         11    1    5    5    0    0 -0.22651216776E+02  0.13615504695E+02 -0.37777212793E+02  0.46103984599E+02  0.00000000000E+00 0.  1.
        -11    1    5    5    0    0 -0.22517135877E+03  0.56612287385E+01 -0.29701264047E+02  0.22719233131E+03  0.00000000000E+00 0. -1.
          2    1    6    6  503    0  0.55442127569E+02 -0.30007056655E+03  0.71072232041E+03  0.77346130553E+03  0.00000000000E+00 0.  1.
         -2    1    6    6    0  503  0.62867180782E+02 -0.11483904541E+03  0.21028228798E+03  0.24770734629E+03  0.00000000000E+00 0. -1.
<mgrwt>
<rscale>  0 0.14457655E+04</rscale>
<asrwt>0</asrwt>
<pdfrwt beam="1">  1        2 0.29252221E+00 0.14457655E+04</pdfrwt>
<pdfrwt beam="2">  1       -1 0.42281480E-01 0.14457655E+04</pdfrwt>
<totfact> 0.46075331E+01</totfact>
</mgrwt>
</event>
<event>
12    6  0.1494052E-007  0.2044117E+04  0.7818608E-02  0.8586268E-01
         -1   -1    0    0    0  501 -0.00000000000E+00  0.00000000000E+00  0.34871674869E+03  0.34871674869E+03  0.00000000000E+00 0.  1.
          2   -1    0    0  501    0  0.00000000000E+00 -0.00000000000E+00 -0.29955652391E+04  0.29955652391E+04  0.00000000000E+00 0. -1.
         24    2    1    2    0    0 -0.79823899049E+03 -0.11687311484E+03 -0.13476610060E+04  0.15728990104E+04  0.83524241366E+02 0.  0.
        254    2    1    2    0    0  0.79823899049E+03  0.11687311484E+03 -0.12991874845E+04  0.17713829774E+04  0.89390420184E+03 0.  0.
         23    2    4    4    0    0  0.72370343535E+03  0.20866234103E+03 -0.13986746326E+04  0.15912577425E+04  0.92324645487E+02 0.  0.
         23    2    4    4    0    0  0.74535555145E+02 -0.91789226197E+02  0.99487148141E+02  0.18012523497E+03  0.92555910686E+02 0.  0.
          4    1    3    3  502    0 -0.60138142659E+03 -0.98830555176E+02 -0.10808948529E+04  0.12408709772E+04  0.00000000000E+00 0. -1.
         -1    1    3    3    0  502 -0.19685756391E+03 -0.18042559659E+02 -0.26676615305E+03  0.33202803321E+03  0.00000000000E+00 0.  1.
         11    1    5    5    0    0  0.57726319629E+03  0.12934009993E+03 -0.11190452100E+04  0.12657898093E+04  0.00000000000E+00 0. -1.
        -11    1    5    5    0    0  0.14644023906E+03  0.79322241106E+02 -0.27962942262E+03  0.32546793321E+03  0.00000000000E+00 0.  1.
          3    1    6    6  503    0  0.53225934659E+02 -0.46748173530E+02  0.10841156636E+03  0.12950467007E+03  0.00000000000E+00 0. -1.
         -3    1    6    6    0  503  0.21309620486E+02 -0.45041052667E+02 -0.89244182228E+01  0.50620564904E+02  0.00000000000E+00 0.  1.
<mgrwt>
<rscale>  0 0.20441172E+04</rscale>
<asrwt>0</asrwt>
<pdfrwt beam="1">  1        2 0.46085619E+00 0.20441172E+04</pdfrwt>
<pdfrwt beam="2">  1       -1 0.53648731E-01 0.20441172E+04</pdfrwt>
<totfact> 0.64871024E+00</totfact>
</mgrwt>
</event>
<event>
12    6  0.1494052E-007  0.2680996E+04  0.7818608E-02  0.8341197E-01
         -1   -1    0    0    0  501 -0.00000000000E+00  0.00000000000E+00  0.76245817371E+03  0.76245817371E+03  0.00000000000E+00 0.  1.
          2   -1    0    0  501    0  0.00000000000E+00 -0.00000000000E+00 -0.23567656424E+04  0.23567656424E+04  0.00000000000E+00 0. -1.
         24    2    1    2    0    0 -0.11445403090E+04  0.25279740871E+03 -0.89487844074E+03  0.14767556861E+04  0.78236078629E+02 0.  0.
        254    2    1    2    0    0  0.11445403090E+04 -0.25279740871E+03 -0.69942902798E+03  0.16424681300E+04  0.91357623882E+03 0.  0.
         23    2    4    4    0    0  0.11011922391E+04  0.94559892595E+02 -0.42240543051E+03  0.11867832395E+04  0.91990157730E+02 0.  0.
         23    2    4    4    0    0  0.43348069905E+02 -0.34735730130E+03 -0.27702359747E+03  0.45568489050E+03  0.91490414474E+02 0.  0.
          4    1    3    3  502    0 -0.86690176121E+02  0.82764991440E+01 -0.45536665563E+02  0.98271435242E+02  0.00000000000E+00 0. -1.
         -3    1    3    3    0  502 -0.10578501329E+04  0.24452090957E+03 -0.84934177518E+03  0.13784842509E+04  0.00000000000E+00 0.  1.
         11    1    5    5    0    0  0.63004995708E+03  0.47596726101E+02 -0.28947675249E+03  0.69500013452E+03  0.00000000000E+00 0.  1.
        -11    1    5    5    0    0  0.47114228202E+03  0.46963166494E+02 -0.13292867802E+03  0.49178310500E+03  0.00000000000E+00 0. -1.
          4    1    6    6  503    0 -0.15374371878E+02 -0.22892172127E+03 -0.16882627366E+03  0.28485757223E+03  0.00000000000E+00 0.  1.
         -4    1    6    6    0  503  0.58722441783E+02 -0.11843558003E+03 -0.10819732381E+03  0.17082731827E+03  0.00000000000E+00 0. -1.
<mgrwt>
<rscale>  0 0.26809963E+04</rscale>
<asrwt>0</asrwt>
<pdfrwt beam="1">  1        2 0.36257933E+00 0.26809963E+04</pdfrwt>
<pdfrwt beam="2">  1       -1 0.11730126E+00 0.26809963E+04</pdfrwt>
<totfact> 0.27512172E+00</totfact>
</mgrwt>
</event>
<event>
12    6  0.1494052E-007  0.2205591E+04  0.7818608E-02  0.8516105E-01
         -1   -1    0    0    0  501 -0.00000000000E+00  0.00000000000E+00  0.12404720009E+04  0.12404720009E+04  0.00000000000E+00 0.  1.
          2   -1    0    0  501    0  0.00000000000E+00 -0.00000000000E+00 -0.98039926962E+03  0.98039926962E+03  0.00000000000E+00 0. -1.
         24    2    1    2    0    0  0.56570941500E+03 -0.24175498902E+03 -0.57321547868E+03  0.84477828767E+03  0.81251174648E+02 0.  0.
        254    2    1    2    0    0 -0.56570941500E+03  0.24175498902E+03  0.83328820995E+03  0.13760929829E+04  0.90597463523E+03 0.  0.
         23    2    4    4    0    0 -0.65902580578E+03  0.19126289149E+03  0.96339224802E+03  0.11863058455E+04  0.91106691684E+02 0.  0.
         23    2    4    4    0    0  0.93316390783E+02  0.50492097532E+02 -0.13010403807E+03  0.18978713731E+03  0.88513818500E+02 0.  0.
          2    1    3    3  502    0  0.43231761150E+03 -0.21817101480E+03 -0.46559078609E+03  0.67176773441E+03  0.00000000000E+00 0. -1.
         -1    1    3    3    0  502  0.13339180350E+03 -0.23583974221E+02 -0.10762469259E+03  0.17301055325E+03  0.00000000000E+00 0.  1.
         11    1    5    5    0    0 -0.64444251046E+03  0.18198846217E+03  0.95669296594E+03  0.11677702602E+04  0.00000000000E+00 0. -1.
        -11    1    5    5    0    0 -0.14583295326E+02  0.92744293152E+01  0.66992820842E+01  0.18535585293E+02  0.00000000000E+00 0.  1.
          4    1    6    6  503    0  0.21712103639E+02  0.59858762393E+02 -0.78251358730E+02  0.10088489492E+03  0.00000000000E+00 0. -1.
         -4    1    6    6    0  503  0.71604287144E+02 -0.93666648607E+01 -0.51852679340E+02  0.88902242395E+02  0.00000000000E+00 0.  1.
<mgrwt>
<rscale>  0 0.22055909E+04</rscale>
<asrwt>0</asrwt>
<pdfrwt beam="1">  1        2 0.15083066E+00 0.22055909E+04</pdfrwt>
<pdfrwt beam="2">  1       -1 0.19084184E+00 0.22055909E+04</pdfrwt>
<totfact> 0.47103090E+00</totfact>
</mgrwt>
</event>
<event>
12    6  0.1494052E-007  0.1099164E+04  0.7818608E-02  0.9206007E-01
          2   -1    0    0  501    0  0.00000000000E+00  0.00000000000E+00  0.28803573294E+04  0.28803573294E+04  0.00000000000E+00 0. -1.
         -1   -1    0    0    0  501 -0.00000000000E+00 -0.00000000000E+00 -0.10486217058E+03  0.10486217058E+03  0.00000000000E+00 0.  1.
         24    2    1    2    0    0 -0.10593488189E+03 -0.40785387306E+02  0.14692927573E+03  0.20239837849E+03  0.80568260053E+02 0.  0.
        254    2    1    2    0    0  0.10593488189E+03  0.40785387306E+02  0.26285658831E+04  0.27828211215E+04  0.90655895864E+03 0.  0.
         23    2    4    4    0    0 -0.15702984568E+03  0.29635987078E+02  0.24375389804E+04  0.24444912798E+04  0.91676995707E+02 0.  0.
         23    2    4    4    0    0  0.26296472757E+03  0.11149400228E+02  0.19102690267E+03  0.33832984175E+03  0.93279403944E+02 0.  0.
          2    1    3    3  502    0 -0.11682858397E+03 -0.26379387572E+02  0.13628382516E+03  0.18143337929E+03  0.00000000000E+00 0. -1.
         -1    1    3    3    0  502  0.10893702079E+02 -0.14405999734E+02  0.10645450569E+02  0.20964999193E+02  0.00000000000E+00 0.  1.
         11    1    5    5    0    0 -0.84741358030E+02  0.48858682569E+02  0.93769317800E+03  0.94278139814E+03  0.00000000000E+00 0. -1.
        -11    1    5    5    0    0 -0.72288487653E+02 -0.19222695491E+02  0.14998458024E+04  0.15017098816E+04  0.00000000000E+00 0.  1.
          4    1    6    6  503    0  0.23123227672E+03  0.35424169219E+02  0.13686401913E+03  0.27102582403E+03  0.00000000000E+00 0.  1.
         -4    1    6    6    0  503  0.31732450854E+02 -0.24274768991E+02  0.54162883543E+02  0.67304017715E+02  0.00000000000E+00 0. -1.
<mgrwt>
<rscale>  0 0.10991643E+04</rscale>
<asrwt>0</asrwt>
<pdfrwt beam="1">  1        2 0.44313184E+00 0.10991643E+04</pdfrwt>
<pdfrwt beam="2">  1       -1 0.16132644E-01 0.10991643E+04</pdfrwt>
<totfact> 0.69352786E+01</totfact>
</mgrwt>
</event>
<event>
12    6  0.1494052E-007  0.1033607E+04  0.7818608E-02  0.9272435E-01
         -1   -1    0    0    0  501 -0.00000000000E+00  0.00000000000E+00  0.22818125349E+03  0.22818125349E+03  0.00000000000E+00 0.  1.
          2   -1    0    0  501    0  0.00000000000E+00 -0.00000000000E+00 -0.11704976558E+04  0.11704976558E+04  0.00000000000E+00 0. -1.
         24    2    1    2    0    0 -0.94942107032E+02  0.59700223258E+02 -0.17000154457E+03  0.21866322939E+03  0.79592476945E+02 0.  0.
        254    2    1    2    0    0  0.94942107032E+02 -0.59700223258E+02 -0.77231485777E+03  0.11800156799E+04  0.88509244997E+03 0.  0.
         23    2    4    4    0    0  0.17870192081E+03  0.34301586861E+03 -0.14203191784E+03  0.42191128104E+03  0.90784364113E+02 0.  0.
         23    2    4    4    0    0 -0.83759813776E+02 -0.40271609187E+03 -0.63028293993E+03  0.75810439889E+03  0.90938100854E+02 0.  0.
          2    1    3    3  502    0  0.28003913028E+01  0.28289123788E+02 -0.69077814229E+02  0.74698468089E+02  0.00000000000E+00 0. -1.
         -1    1    3    3    0  502 -0.97742498335E+02  0.31411099471E+02 -0.10092373035E+03  0.14396476130E+03  0.00000000000E+00 0.  1.
         11    1    5    5    0    0  0.15580036522E+03  0.25611669240E+03 -0.14276685151E+03  0.33204199707E+03  0.00000000000E+00 0. -1.
        -11    1    5    5    0    0  0.22901555585E+02  0.86899176210E+02  0.73493366688E+00  0.89869283972E+02  0.00000000000E+00 0.  1.
          1    1    6    6  503    0 -0.82459457225E+02 -0.18673150505E+03 -0.27831110526E+03  0.34514531487E+03  0.00000000000E+00 0. -1.
         -1    1    6    6    0  503 -0.13003565501E+01 -0.21598458681E+03 -0.35197183467E+03  0.41295908402E+03  0.00000000000E+00 0.  1.
<mgrwt>
<rscale>  0 0.10336065E+04</rscale>
<asrwt>0</asrwt>
<pdfrwt beam="1">  1        2 0.18007656E+00 0.10336065E+04</pdfrwt>
<pdfrwt beam="2">  1       -1 0.35104809E-01 0.10336065E+04</pdfrwt>
<totfact> 0.17278213E+02</totfact>
</mgrwt>
</event>
<event>
12    6  0.1494052E-007  0.2512849E+04  0.7818608E-02  0.8398422E-01
         -1   -1    0    0    0  501 -0.00000000000E+00  0.00000000000E+00  0.10524997010E+04  0.10524997010E+04  0.00000000000E+00 0.  1.
          2   -1    0    0  501    0  0.00000000000E+00 -0.00000000000E+00 -0.14998602253E+04  0.14998602253E+04  0.00000000000E+00 0. -1.
         24    2    1    2    0    0 -0.92463777655E+02 -0.28906991566E+03  0.87994984319E+03  0.93416955626E+03  0.79057365251E+02 0.  0.
        254    2    1    2    0    0  0.92463777655E+02  0.28906991566E+03 -0.13273103675E+04  0.16181903701E+04  0.87445771525E+03 0.  0.
         23    2    4    4    0    0  0.19076314406E+03  0.30686275623E+03 -0.10283598384E+03  0.38682300206E+03  0.92203400464E+02 0.  0.
         23    2    4    4    0    0 -0.98299366409E+02 -0.17792840571E+02 -0.12244743837E+04  0.12313673680E+04  0.83359031441E+02 0.  0.
          4    1    3    3  502    0 -0.28218377729E+02 -0.19872244536E+03  0.51413847710E+03  0.55192867362E+03  0.00000000000E+00 0. -1.
         -3    1    3    3    0  502 -0.64245399926E+02 -0.90347470299E+02  0.36581136609E+03  0.38224088264E+03  0.00000000000E+00 0.  1.
         11    1    5    5    0    0  0.45949602532E+02  0.88668751839E+02 -0.72044627042E+02  0.12314195796E+03  0.00000000000E+00 0. -1.
        -11    1    5    5    0    0  0.14481354153E+03  0.21819400439E+03 -0.30791356803E+02  0.26368104410E+03  0.00000000000E+00 0.  1.
          2    1    6    6  503    0 -0.21298509223E+02  0.16332188478E+02 -0.93910687156E+02  0.97670794190E+02  0.00000000000E+00 0. -1.
         -2    1    6    6    0  503 -0.77000857186E+02 -0.34125029049E+02 -0.11305636965E+04  0.11336965738E+04  0.00000000000E+00 0.  1.
<mgrwt>
<rscale>  0 0.25128489E+04</rscale>
<asrwt>0</asrwt>
<pdfrwt beam="1">  1        2 0.23074773E+00 0.25128489E+04</pdfrwt>
<pdfrwt beam="2">  1       -1 0.16192303E+00 0.25128489E+04</pdfrwt>
<totfact> 0.36412812E+00</totfact>
</mgrwt>
</event>
<event>
12    6  0.1494052E-007  0.1204032E+04  0.7818608E-02  0.9109334E-01
          2   -1    0    0  501    0  0.00000000000E+00  0.00000000000E+00  0.19916635504E+04  0.19916635504E+04  0.00000000000E+00 0. -1.
         -1   -1    0    0    0  501 -0.00000000000E+00 -0.00000000000E+00 -0.18197019044E+03  0.18197019044E+03  0.00000000000E+00 0.  1.
         24    2    1    2    0    0  0.49743919162E+02 -0.18215940734E+03  0.11968746085E+03  0.23930244767E+03  0.85346739809E+02 0.  0.
        254    2    1    2    0    0 -0.49743919162E+02  0.18215940734E+03  0.16900058991E+04  0.19343312932E+04  0.92187911657E+03 0.  0.
         23    2    4    4    0    0 -0.17671210618E+03  0.12673991715E+02  0.16924525745E+04  0.17041366388E+04  0.91094283076E+02 0.  0.
         23    2    4    4    0    0  0.12696818702E+03  0.16948541563E+03 -0.24466753714E+01  0.23019465435E+03  0.90207350278E+02 0.  0.
          2    1    3    3  502    0 -0.20106204805E+02 -0.15245765152E+02  0.23036551724E+02  0.34166877851E+02  0.00000000000E+00 0. -1.
         -1    1    3    3    0  502  0.69850123967E+02 -0.16691364219E+03  0.96650909128E+02  0.20513556982E+03  0.00000000000E+00 0.  1.
         11    1    5    5    0    0 -0.10169668267E+03  0.29412113424E+02  0.62342418053E+03  0.63234879343E+03  0.00000000000E+00 0. -1.
        -11    1    5    5    0    0 -0.75015423517E+02 -0.16738121709E+02  0.10690283939E+04  0.10717878454E+04  0.00000000000E+00 0.  1.
          2    1    6    6  503    0  0.77546402397E+02  0.13031366815E+03 -0.39959458729E+02  0.15681790387E+03  0.00000000000E+00 0.  1.
         -2    1    6    6    0  503  0.49421784623E+02  0.39171747476E+02  0.37512783357E+02  0.73376750479E+02  0.00000000000E+00 0. -1.
<mgrwt>
<rscale>  0 0.12040322E+04</rscale>
<asrwt>0</asrwt>
<pdfrwt beam="1">  1        2 0.30640976E+00 0.12040322E+04</pdfrwt>
<pdfrwt beam="2">  1       -1 0.27995415E-01 0.12040322E+04</pdfrwt>
<totfact> 0.87509113E+01</totfact>
</mgrwt>
</event>
<event>
12    6  0.1494052E-007  0.1555587E+04  0.7818608E-02  0.8848307E-01
         -1   -1    0    0    0  501 -0.00000000000E+00  0.00000000000E+00  0.35165681264E+03  0.35165681264E+03  0.00000000000E+00 0.  1.
          2   -1    0    0  501    0  0.00000000000E+00 -0.00000000000E+00 -0.17203204298E+04  0.17203204298E+04  0.00000000000E+00 0. -1.
         24    2    1    2    0    0 -0.19658901017E+03 -0.43030320781E+03 -0.18799444624E+03  0.51522620661E+03  0.79423186732E+02 0.  0.
        254    2    1    2    0    0  0.19658901017E+03  0.43030320781E+03 -0.11806691709E+04  0.15567510358E+04  0.89760013748E+03 0.  0.
         23    2    4    4    0    0  0.53941264510E+03  0.19207929018E+03 -0.76553289499E+03  0.96039656362E+03  0.91980925666E+02 0.  0.
         23    2    4    4    0    0 -0.34282363493E+03  0.23822391763E+03 -0.41513627589E+03  0.59635447218E+03  0.94983416049E+02 0.  0.
          2    1    3    3  502    0 -0.13242355723E+03 -0.21545516903E+03 -0.12623031806E+03  0.28264999836E+03  0.00000000000E+00 0. -1.
         -1    1    3    3    0  502 -0.64165452945E+02 -0.21484803877E+03 -0.61764128175E+02  0.23257620825E+03  0.00000000000E+00 0.  1.
         11    1    5    5    0    0  0.22889026686E+03  0.42156379510E+02 -0.35165878110E+03  0.42170109428E+03  0.00000000000E+00 0. -1.
        -11    1    5    5    0    0  0.31052237824E+03  0.14992291066E+03 -0.41387411390E+03  0.53869546934E+03  0.00000000000E+00 0.  1.
          2    1    6    6  503    0 -0.18744290917E+03  0.16190723410E+03 -0.18897451761E+03  0.31154480410E+03  0.00000000000E+00 0. -1.
         -2    1    6    6    0  503 -0.15538072575E+03  0.76316683530E+02 -0.22616175829E+03  0.28480966808E+03  0.00000000000E+00 0.  1.
<mgrwt>
<rscale>  0 0.15555866E+04</rscale>
<asrwt>0</asrwt>
<pdfrwt beam="1">  1        2 0.26466469E+00 0.15555866E+04</pdfrwt>
<pdfrwt beam="2">  1       -1 0.54101047E-01 0.15555866E+04</pdfrwt>
<totfact> 0.36127515E+01</totfact>
</mgrwt>
</event>
<event>
12    6  0.1494052E-007  0.1315432E+04  0.7818608E-02  0.9017416E-01
         -1   -1    0    0    0  501 -0.00000000000E+00  0.00000000000E+00  0.27940809304E+03  0.27940809304E+03  0.00000000000E+00 0.  1.
          2   -1    0    0  501    0  0.00000000000E+00 -0.00000000000E+00 -0.15482380680E+04  0.15482380680E+04  0.00000000000E+00 0. -1.
         24    2    1    2    0    0  0.25332413756E+03 -0.97484946364E+02 -0.64133653086E+03  0.70111876343E+03  0.81108206562E+02 0.  0.
        254    2    1    2    0    0 -0.25332413756E+03  0.97484946364E+02 -0.62749344414E+03  0.11265273976E+04  0.89534324243E+03 0.  0.
         23    2    4    4    0    0 -0.49610675203E+03 -0.19700763511E+03 -0.32227191181E+03  0.62927505871E+03  0.84817431392E+02 0.  0.
         23    2    4    4    0    0  0.24278261447E+03  0.29449258147E+03 -0.30522153233E+03  0.49725233894E+03  0.91817353230E+02 0.  0.
          2    1    3    3  502    0  0.19762970425E+03 -0.10996203857E+03 -0.51763612214E+03  0.56488609903E+03  0.00000000000E+00 0. -1.
         -1    1    3    3    0  502  0.55694433305E+02  0.12477092206E+02 -0.12370040872E+03  0.13623266440E+03  0.00000000000E+00 0.  1.
         11    1    5    5    0    0 -0.33424887296E+03 -0.11215515144E+03 -0.17004537000E+03  0.39142881208E+03  0.00000000000E+00 0.  1.
        -11    1    5    5    0    0 -0.16185787907E+03 -0.84852483666E+02 -0.15222654181E+03  0.23784624662E+03  0.00000000000E+00 0. -1.
          3    1    6    6  503    0  0.24667759288E+02  0.40281173369E+02 -0.82311326592E+02  0.94901136777E+02  0.00000000000E+00 0. -1.
         -3    1    6    6    0  503  0.21811485518E+03  0.25421140810E+03 -0.22291020573E+03  0.40235120216E+03  0.00000000000E+00 0.  1.
<mgrwt>
<rscale>  0 0.13154319E+04</rscale>
<asrwt>0</asrwt>
<pdfrwt beam="1">  1        2 0.23819047E+00 0.13154319E+04</pdfrwt>
<pdfrwt beam="2">  1       -1 0.42985861E-01 0.13154319E+04</pdfrwt>
<totfact> 0.70929626E+01</totfact>
</mgrwt>
</event>
<event>
12    6  0.1494052E-007  0.9725314E+03  0.7818608E-02  0.9339196E-01
          2   -1    0    0  501    0  0.00000000000E+00  0.00000000000E+00  0.25579264952E+04  0.25579264952E+04  0.00000000000E+00 0. -1.
         -1   -1    0    0    0  501 -0.00000000000E+00 -0.00000000000E+00 -0.92439847061E+02  0.92439847061E+02  0.00000000000E+00 0.  1.
         24    2    1    2    0    0 -0.87981374050E+02  0.92529139619E+01  0.50521576725E+03  0.51935278243E+03  0.81596584137E+02 0.  0.
        254    2    1    2    0    0  0.87981374050E+02 -0.92529139619E+01  0.19602708809E+04  0.21310135598E+04  0.83110199562E+03 0.  0.
         23    2    4    4    0    0  0.37660664603E+03 -0.16679477366E+03  0.63261668460E+03  0.76043029303E+03  0.91636775225E+02 0.  0.
         23    2    4    4    0    0 -0.28862527198E+03  0.15754185970E+03  0.13276541963E+04  0.13705832668E+04  0.87800006404E+02 0.  0.
          4    1    3    3  502    0  0.71383200351E+01 -0.15076923646E+02  0.14638244128E+03  0.14732986240E+03  0.00000000000E+00 0. -1.
         -3    1    3    3    0  502 -0.95119694085E+02  0.24329837608E+02  0.35883332596E+03  0.37202292002E+03  0.00000000000E+00 0.  1.
         11    1    5    5    0    0  0.34423148564E+03 -0.17653703265E+03  0.56387514643E+03  0.68382440755E+03  0.00000000000E+00 0.  1.
        -11    1    5    5    0    0  0.32375160393E+02  0.97422589884E+01  0.68741538165E+02  0.76605885479E+02  0.00000000000E+00 0. -1.
          3    1    6    6  503    0 -0.64753943024E+02  0.21166612051E+02  0.16061353641E+03  0.17446434214E+03  0.00000000000E+00 0. -1.
         -3    1    6    6    0  503 -0.22387132895E+03  0.13637524764E+03  0.11670406599E+04  0.11961189246E+04  0.00000000000E+00 0.  1.
<mgrwt>
<rscale>  0 0.97253141E+03</rscale>
<asrwt>0</asrwt>
<pdfrwt beam="1">  1        2 0.39352710E+00 0.97253141E+03</pdfrwt>
<pdfrwt beam="2">  1       -1 0.14221517E-01 0.97253141E+03</pdfrwt>
<totfact> 0.13360296E+02</totfact>
</mgrwt>
</event>
<event>
12    6  0.1494052E-007  0.3190482E+04  0.7818608E-02  0.8191335E-01
          2   -1    0    0  501    0  0.00000000000E+00  0.00000000000E+00  0.24267637742E+04  0.24267637742E+04  0.00000000000E+00 0. -1.
         -1   -1    0    0    0  501 -0.00000000000E+00 -0.00000000000E+00 -0.10486370831E+04  0.10486370831E+04  0.00000000000E+00 0.  1.
         24    2    1    2    0    0  0.12873943192E+04  0.60963166185E+03  0.77859198112E+03  0.16252380808E+04  0.78475793117E+02 0.  0.
        254    2    1    2    0    0 -0.12873943192E+04 -0.60963166185E+03  0.59953470999E+03  0.18501627765E+04  0.10171654413E+04 0.  0.
         23    2    4    4    0    0 -0.12629458095E+04 -0.79851699264E+03  0.38114034909E+03  0.15448211948E+04  0.92428637218E+02 0.  0.
         23    2    4    4    0    0 -0.24448509629E+02  0.18888533079E+03  0.21839436090E+03  0.30534158167E+03  0.96239216615E+02 0.  0.
          2    1    3    3  502    0  0.82428568553E+03  0.39192811070E+03  0.45568683563E+03  0.10201495123E+04  0.00000000000E+00 0. -1.
         -1    1    3    3    0  502  0.46310863363E+03  0.21770355115E+03  0.32290514549E+03  0.60508856849E+03  0.00000000000E+00 0.  1.
         11    1    5    5    0    0 -0.27023185635E+02 -0.77748406946E+01 -0.25865805738E+01  0.28238114469E+02  0.00000000000E+00 0.  1.
        -11    1    5    5    0    0 -0.12359226239E+04 -0.79074215195E+03  0.38372692966E+03  0.15165830804E+04  0.00000000000E+00 0. -1.
          3    1    6    6  503    0  0.50283635174E+01  0.17403526893E+03  0.15169300196E+03  0.23092060565E+03  0.00000000000E+00 0. -1.
         -3    1    6    6    0  503 -0.29476873147E+02  0.14850061867E+02  0.66701358942E+02  0.74420976026E+02  0.00000000000E+00 0.  1.
<mgrwt>
<rscale>  0 0.31904824E+04</rscale>
<asrwt>0</asrwt>
<pdfrwt beam="1">  1        2 0.37334827E+00 0.31904824E+04</pdfrwt>
<pdfrwt beam="2">  1       -1 0.16132878E+00 0.31904824E+04</pdfrwt>
<totfact> 0.10493600E+00</totfact>
</mgrwt>
</event>
<event>
12    6  0.1494052E-007  0.1969005E+04  0.7818608E-02  0.8621251E-01
         -3   -1    0    0    0  501 -0.00000000000E+00  0.00000000000E+00  0.55154259050E+03  0.55154259050E+03  0.00000000000E+00 0.  1.
          2   -1    0    0  501    0  0.00000000000E+00 -0.00000000000E+00 -0.17573347466E+04  0.17573347466E+04  0.00000000000E+00 0. -1.
         24    2    1    2    0    0  0.36116840097E+03  0.15561833648E+03  0.30112329785E+03  0.50169925968E+03  0.79794900544E+02 0.  0.
        254    2    1    2    0    0 -0.36116840097E+03 -0.15561833648E+03 -0.15069154540E+04  0.18071780774E+04  0.91675445877E+03 0.  0.
         23    2    4    4    0    0 -0.31112001586E+03 -0.28717246720E+03 -0.17905769739E+03  0.46882767181E+03  0.92054530976E+02 0.  0.
         23    2    4    4    0    0 -0.50048385108E+02  0.13155413072E+03 -0.13278577566E+04  0.13383504056E+04  0.90356274870E+02 0.  0.
          2    1    3    3  502    0  0.13184373968E+03  0.39303550603E+02  0.63289762146E+02  0.15143690031E+03  0.00000000000E+00 0. -1.
         -1    1    3    3    0  502  0.22932466128E+03  0.11631478588E+03  0.23783353570E+03  0.35026235937E+03  0.00000000000E+00 0.  1.
         11    1    5    5    0    0 -0.21240911078E+01  0.39352672242E+01  0.44759331670E+01  0.63270900796E+01  0.00000000000E+00 0. -1.
        -11    1    5    5    0    0 -0.30899592475E+03 -0.29110773442E+03 -0.18353363056E+03  0.46250058173E+03  0.00000000000E+00 0.  1.
          1    1    6    6  503    0  0.17606648904E+02  0.10491531335E+02 -0.36282760252E+03  0.36340602013E+03  0.00000000000E+00 0. -1.
         -1    1    6    6    0  503 -0.67655034012E+02  0.12106259938E+03 -0.96503015405E+03  0.97494438550E+03  0.00000000000E+00 0.  1.
<mgrwt>
<rscale>  0 0.19690048E+04</rscale>
<asrwt>0</asrwt>
<pdfrwt beam="1">  1        2 0.27035919E+00 0.19690048E+04</pdfrwt>
<pdfrwt beam="2">  1       -3 0.84852707E-01 0.19690048E+04</pdfrwt>
<totfact> 0.69013882E+00</totfact>
</mgrwt>
</event>
<event>
12    6  0.1494052E-007  0.1937527E+04  0.7818608E-02  0.8636399E-01
         -1   -1    0    0    0  501 -0.00000000000E+00  0.00000000000E+00  0.15808048522E+04  0.15808048522E+04  0.00000000000E+00 0.  1.
          2   -1    0    0  501    0  0.00000000000E+00 -0.00000000000E+00 -0.59368634021E+03  0.59368634021E+03  0.00000000000E+00 0. -1.
         24    2    1    2    0    0  0.36641789893E+03 -0.12371226919E+03  0.11173152706E+04  0.11850248731E+04  0.79521906537E+02 0.  0.
        254    2    1    2    0    0 -0.36641789893E+03  0.12371226919E+03 -0.13019675865E+03  0.98946631931E+03  0.90140201846E+03 0.  0.
         23    2    4    4    0    0 -0.44458961675E+03  0.85464316503E+02 -0.45010014325E+03  0.64494014142E+03  0.91616430517E+02 0.  0.
         23    2    4    4    0    0  0.78171717820E+02  0.38247952684E+02  0.31990338460E+03  0.34452617790E+03  0.93735737179E+02 0.  0.
          2    1    3    3  502    0  0.98737422931E+02 -0.71989296123E+02  0.34803268103E+03  0.36886079286E+03  0.00000000000E+00 0. -1.
         -1    1    3    3    0  502  0.26768047600E+03 -0.51722973065E+02  0.76928258960E+03  0.81616408022E+03  0.00000000000E+00 0.  1.
         11    1    5    5    0    0 -0.24316712686E+03  0.28713683808E+01 -0.25886737226E+03  0.35517715687E+03  0.00000000000E+00 0. -1.
        -11    1    5    5    0    0 -0.20142248989E+03  0.82592948123E+02 -0.19123277099E+03  0.28976298455E+03  0.00000000000E+00 0.  1.
          1    1    6    6  503    0  0.27670996538E+02  0.56153102349E+02  0.98327639386E+02  0.11656405801E+03  0.00000000000E+00 0. -1.
         -1    1    6    6    0  503  0.50500721281E+02 -0.17905149665E+02  0.22157574521E+03  0.22796211988E+03  0.00000000000E+00 0.  1.
<mgrwt>
<rscale>  0 0.19375265E+04</rscale>
<asrwt>0</asrwt>
<pdfrwt beam="1">  1        2 0.91336360E-01 0.19375265E+04</pdfrwt>
<pdfrwt beam="2">  1       -1 0.24320075E+00 0.19375265E+04</pdfrwt>
<totfact> 0.41379590E+00</totfact>
</mgrwt>
</event>
<event>
12    6  0.1494052E-007  0.2391741E+04  0.7818608E-02  0.8442602E-01
         -1   -1    0    0    0  501 -0.00000000000E+00  0.00000000000E+00  0.41551520384E+03  0.41551520384E+03  0.00000000000E+00 0.  1.
          2   -1    0    0  501    0  0.00000000000E+00 -0.00000000000E+00 -0.34417669877E+04  0.34417669877E+04  0.00000000000E+00 0. -1.
         24    2    1    2    0    0  0.73302743440E+03  0.50166023875E+03 -0.45737040548E+03  0.10022232666E+04  0.79193267437E+02 0.  0.
        254    2    1    2    0    0 -0.73302743440E+03 -0.50166023875E+03 -0.25688813783E+04  0.28550589249E+04  0.87362332495E+03 0.  0.
         23    2    4    4    0    0 -0.55149641858E+03 -0.17214613865E+03 -0.56357706067E+03  0.81290837254E+03  0.97048060643E+02 0.  0.
         23    2    4    4    0    0 -0.18153101582E+03 -0.32951410010E+03 -0.20053043177E+04  0.20421505524E+04  0.87180388400E+02 0.  0.
          2    1    3    3  502    0  0.19183628508E+03  0.11662556503E+03 -0.80082148344E+02  0.23836072070E+03  0.00000000000E+00 0. -1.
         -1    1    3    3    0  502  0.54119114932E+03  0.38503467371E+03 -0.37728825714E+03  0.76386254591E+03  0.00000000000E+00 0.  1.
         11    1    5    5    0    0  0.35521291753E+01  0.18959034674E+01 -0.53007224267E+01  0.66565554065E+01  0.00000000000E+00 0. -1.
        -11    1    5    5    0    0 -0.55504854776E+03 -0.17404204212E+03 -0.55827633824E+03  0.80625181714E+03  0.00000000000E+00 0.  1.
          2    1    6    6  503    0 -0.87069465886E+02 -0.12058747222E+03 -0.59380833642E+03  0.61215257146E+03  0.00000000000E+00 0. -1.
         -2    1    6    6    0  503 -0.94461549931E+02 -0.20892662788E+03 -0.14114959813E+04  0.14299979809E+04  0.00000000000E+00 0.  1.
<mgrwt>
<rscale>  0 0.23917412E+04</rscale>
<asrwt>0</asrwt>
<pdfrwt beam="1">  1        2 0.52950263E+00 0.23917412E+04</pdfrwt>
<pdfrwt beam="2">  1       -1 0.63925414E-01 0.23917412E+04</pdfrwt>
<totfact> 0.22709734E+00</totfact>
</mgrwt>
</event>
<event>
12    6  0.1494052E-007  0.1089738E+04  0.7818608E-02  0.9215252E-01
          2   -1    0    0  501    0  0.00000000000E+00  0.00000000000E+00  0.15835305616E+04  0.15835305616E+04  0.00000000000E+00 0. -1.
         -1   -1    0    0    0  501 -0.00000000000E+00 -0.00000000000E+00 -0.18748103903E+03  0.18748103903E+03  0.00000000000E+00 0.  1.
         24    2    1    2    0    0 -0.81900314856E+02  0.75002465964E+02  0.42261214524E+02  0.14339574659E+03  0.80270158917E+02 0.  0.
        254    2    1    2    0    0  0.81900314856E+02 -0.75002465964E+02  0.13537883080E+04  0.16276158540E+04  0.89669256371E+03 0.  0.
         23    2    4    4    0    0  0.11299554911E+03  0.62834354168E+01  0.14577954903E+04  0.14650437723E+04  0.91531892240E+02 0.  0.
         23    2    4    4    0    0 -0.31095234258E+02 -0.81285901380E+02 -0.10400718230E+03  0.16257208177E+03  0.89654204838E+02 0.  0.
          4    1    3    3  502    0 -0.10867101327E+02  0.62003319231E+02  0.31484850523E+02  0.70383245871E+02  0.00000000000E+00 0. -1.
         -3    1    3    3    0  502 -0.71033213529E+02  0.12999146733E+02  0.10776364001E+02  0.73012500718E+02  0.00000000000E+00 0.  1.
         11    1    5    5    0    0  0.16383748328E+02 -0.26815424212E+02  0.65867446327E+03  0.65942364437E+03  0.00000000000E+00 0. -1.
        -11    1    5    5    0    0  0.96611800785E+02  0.33098859629E+02  0.79912102707E+03  0.80562012789E+03  0.00000000000E+00 0.  1.
          3    1    6    6  503    0 -0.28076606729E+01 -0.17303964802E+02 -0.89405877041E+02  0.91108292739E+02  0.00000000000E+00 0. -1.
         -3    1    6    6    0  503 -0.28287573585E+02 -0.63981936579E+02 -0.14601305257E+02  0.71463789032E+02  0.00000000000E+00 0.  1.
<mgrwt>
<rscale>  0 0.10897375E+04</rscale>
<asrwt>0</asrwt>
<pdfrwt beam="1">  1        2 0.24362008E+00 0.10897375E+04</pdfrwt>
<pdfrwt beam="2">  1       -1 0.28843238E-01 0.10897375E+04</pdfrwt>
<totfact> 0.14088791E+02</totfact>
</mgrwt>
</event>
<event>
12    6  0.1494052E-007  0.1790387E+04  0.7818608E-02  0.8711429E-01
         -1   -1    0    0    0  501 -0.00000000000E+00  0.00000000000E+00  0.78163467886E+03  0.78163467886E+03  0.00000000000E+00 0.  1.
          2   -1    0    0  501    0  0.00000000000E+00 -0.00000000000E+00 -0.10252501555E+04  0.10252501555E+04  0.00000000000E+00 0. -1.
         24    2    1    2    0    0  0.94490435309E+02 -0.37210871214E+03 -0.63474088306E+03  0.74940540206E+03  0.10639140937E+03 0.  0.
        254    2    1    2    0    0 -0.94490435309E+02  0.37210871214E+03  0.39112540644E+03  0.10574794323E+04  0.90437289328E+03 0.  0.
         23    2    4    4    0    0  0.30043680993E+03  0.26220476260E+03  0.47763785515E+03  0.62857524295E+03  0.89192494588E+02 0.  0.
         23    2    4    4    0    0 -0.39492724524E+03  0.10990394955E+03 -0.86512448705E+02  0.42890418932E+03  0.91804099430E+02 0.  0.
          2    1    3    3  502    0  0.11601043617E+03 -0.34366178410E+03 -0.57872633686E+03  0.68299781561E+03  0.00000000000E+00 0. -1.
         -1    1    3    3    0  502 -0.21520000857E+02 -0.28446928042E+02 -0.56014546199E+02  0.66407586448E+02  0.00000000000E+00 0.  1.
         11    1    5    5    0    0  0.25946851061E+03  0.21495720756E+03  0.34663248975E+03  0.48340934210E+03  0.00000000000E+00 0. -1.
        -11    1    5    5    0    0  0.40968299320E+02  0.47247555034E+02  0.13100536540E+03  0.14516590085E+03  0.00000000000E+00 0.  1.
          1    1    6    6  503    0 -0.12790995347E+03 -0.24801923191E+01 -0.53500693535E+01  0.12804581521E+03  0.00000000000E+00 0. -1.
         -1    1    6    6    0  503 -0.26701729177E+03  0.11238414187E+03 -0.81162379351E+02  0.30085837411E+03  0.00000000000E+00 0.  1.
<mgrwt>
<rscale>  0 0.17903866E+04</rscale>
<asrwt>0</asrwt>
<pdfrwt beam="1">  1        2 0.15773079E+00 0.17903866E+04</pdfrwt>
<pdfrwt beam="2">  1       -1 0.12025149E+00 0.17903866E+04</pdfrwt>
<totfact> 0.16112319E+01</totfact>
</mgrwt>
</event>
<event>
12    6  0.1494052E-007  0.2537855E+04  0.7818608E-02  0.8389622E-01
         -1   -1    0    0    0  501 -0.00000000000E+00  0.00000000000E+00  0.55896525071E+03  0.55896525071E+03  0.00000000000E+00 0.  1.
          2   -1    0    0  501    0  0.00000000000E+00 -0.00000000000E+00 -0.28806386198E+04  0.28806386198E+04  0.00000000000E+00 0. -1.
         24    2    1    2    0    0  0.87438084020E+03 -0.35330834156E+03 -0.22554053029E+03  0.97285323587E+03  0.78779755123E+02 0.  0.
        254    2    1    2    0    0 -0.87438084020E+03  0.35330834156E+03 -0.20961328388E+04  0.24667506346E+04  0.89538660791E+03 0.  0.
         23    2    4    4    0    0 -0.50138742781E+03 -0.16157816575E+03 -0.44696220601E+03  0.69690515023E+03  0.91677251294E+02 0.  0.
         23    2    4    4    0    0 -0.37299341239E+03  0.51488650731E+03 -0.16491706328E+04  0.17698454844E+04  0.91416964928E+02 0.  0.
          2    1    3    3  502    0  0.55188658772E+02 -0.28382199300E+02  0.39472304256E+01  0.62184547295E+02  0.00000000000E+00 0. -1.
         -1    1    3    3    0  502  0.81919218143E+03 -0.32492614226E+03 -0.22948776071E+03  0.91066868857E+03  0.00000000000E+00 0.  1.
         11    1    5    5    0    0 -0.45083233997E+03 -0.17292756060E+03 -0.40559854245E+03  0.63060599237E+03  0.00000000000E+00 0.  1.
        -11    1    5    5    0    0 -0.50555087838E+02  0.11349394847E+02 -0.41363663558E+02  0.66299157858E+02  0.00000000000E+00 0. -1.
          2    1    6    6  503    0 -0.12506806207E+03  0.11528250249E+03 -0.37919029235E+03  0.41559277344E+03  0.00000000000E+00 0. -1.
         -2    1    6    6    0  503 -0.24792535032E+03  0.39960400482E+03 -0.12699803404E+04  0.13542527109E+04  0.00000000000E+00 0.  1.
<mgrwt>
<rscale>  0 0.25378549E+04</rscale>
<asrwt>0</asrwt>
<pdfrwt beam="1">  1        2 0.44317518E+00 0.25378549E+04</pdfrwt>
<pdfrwt beam="2">  1       -1 0.85994652E-01 0.25378549E+04</pdfrwt>
<totfact> 0.27867159E+00</totfact>
</mgrwt>
</event>
<event>
12    6  0.1494052E-007  0.2800210E+04  0.7818608E-02  0.8303203E-01
          2   -1    0    0  501    0  0.00000000000E+00  0.00000000000E+00  0.18575538393E+04  0.18575538393E+04  0.00000000000E+00 0. -1.
         -1   -1    0    0    0  501 -0.00000000000E+00 -0.00000000000E+00 -0.10553093505E+04  0.10553093505E+04  0.00000000000E+00 0.  1.
         24    2    1    2    0    0  0.10557141771E+04 -0.51298522054E+03  0.82323431286E+03  0.14358864771E+04  0.79805895541E+02 0.  0.
        254    2    1    2    0    0 -0.10557141771E+04  0.51298522054E+03 -0.20989824090E+02  0.14769767127E+04  0.89628866826E+03 0.  0.
         23    2    4    4    0    0 -0.45924533875E+03  0.68066960936E+03  0.12015663160E+03  0.83491470440E+03  0.91801684219E+02 0.  0.
         23    2    4    4    0    0 -0.59646883834E+03 -0.16768438882E+03 -0.14114645569E+03  0.64206200827E+03  0.91805071476E+02 0.  0.
          4    1    3    3  502    0  0.17575900375E+03 -0.10025749052E+03  0.10983432517E+03  0.23023112472E+03  0.00000000000E+00 0. -1.
         -3    1    3    3    0  502  0.87995517334E+03 -0.41272773002E+03  0.71339998768E+03  0.12056553523E+04  0.00000000000E+00 0.  1.
         11    1    5    5    0    0 -0.45313711008E+02  0.43690394997E+02 -0.11338361947E+02  0.63958904556E+02  0.00000000000E+00 0. -1.
        -11    1    5    5    0    0 -0.41393162775E+03  0.63697921437E+03  0.13149499355E+03  0.77095579984E+03  0.00000000000E+00 0.  1.
          3    1    6    6  503    0 -0.17539307733E+03 -0.43464875494E+02 -0.84250719524E+02  0.19937429803E+03  0.00000000000E+00 0. -1.
         -3    1    6    6    0  503 -0.42107576101E+03 -0.12421951333E+03 -0.56895736170E+02  0.44268771024E+03  0.00000000000E+00 0.  1.
<mgrwt>
<rscale>  0 0.28002099E+04</rscale>
<asrwt>0</asrwt>
<pdfrwt beam="1">  1        2 0.28577751E+00 0.28002099E+04</pdfrwt>
<pdfrwt beam="2">  1       -1 0.16235529E+00 0.28002099E+04</pdfrwt>
<totfact> 0.22267184E+00</totfact>
</mgrwt>
</event>
<event>
12    6  0.1494052E-007  0.1318728E+04  0.7818608E-02  0.9014844E-01
         -1   -1    0    0    0  501 -0.00000000000E+00  0.00000000000E+00  0.19449162924E+03  0.19449162924E+03  0.00000000000E+00 0.  1.
          2   -1    0    0  501    0  0.00000000000E+00 -0.00000000000E+00 -0.22353704378E+04  0.22353704378E+04  0.00000000000E+00 0. -1.
         24    2    1    2    0    0  0.24769510459E+03  0.28791107637E+02 -0.11651474768E+03  0.28672897940E+03  0.80349414962E+02 0.  0.
        254    2    1    2    0    0 -0.24769510459E+03 -0.28791107637E+02 -0.19243640609E+04  0.21431330876E+04  0.90975853929E+03 0.  0.
         23    2    4    4    0    0  0.26162899862E+02 -0.35225840571E+03 -0.33260523677E+03  0.49326782093E+03  0.88974254237E+02 0.  0.
         23    2    4    4    0    0 -0.27385800445E+03  0.32346729808E+03 -0.15917588241E+04  0.16498652667E+04  0.93434172665E+02 0.  0.
          4    1    3    3  502    0  0.36751012215E+02  0.32640088189E+02 -0.35924298298E+02  0.60881585591E+02  0.00000000000E+00 0. -1.
         -3    1    3    3    0  502  0.21094409238E+03 -0.38489805523E+01 -0.80590449380E+02  0.22584739381E+03  0.00000000000E+00 0.  1.
         11    1    5    5    0    0  0.58910339331E+01 -0.14524585967E+03 -0.19753584910E+03  0.24525797788E+03  0.00000000000E+00 0. -1.
        -11    1    5    5    0    0  0.20271865929E+02 -0.20701254604E+03 -0.13506938766E+03  0.24800984305E+03  0.00000000000E+00 0.  1.
          2    1    6    6  503    0 -0.16052928773E+03  0.22501541327E+03 -0.87763117629E+03  0.92012937679E+03  0.00000000000E+00 0. -1.
         -2    1    6    6    0  503 -0.11332871672E+03  0.98451884806E+02 -0.71412764781E+03  0.72973588991E+03  0.00000000000E+00 0.  1.
<mgrwt>
<rscale>  0 0.13187279E+04</rscale>
<asrwt>0</asrwt>
<pdfrwt beam="1">  1        2 0.34390315E+00 0.13187279E+04</pdfrwt>
<pdfrwt beam="2">  1       -1 0.29921789E-01 0.13187279E+04</pdfrwt>
<totfact> 0.56498874E+01</totfact>
</mgrwt>
</event>
<event>
12    6  0.1494052E-007  0.1369365E+04  0.7818608E-02  0.8976297E-01
          4   -1    0    0  501    0  0.00000000000E+00  0.00000000000E+00  0.47497507027E+03  0.47497507027E+03  0.00000000000E+00 0. -1.
         -3   -1    0    0    0  501 -0.00000000000E+00 -0.00000000000E+00 -0.98697834341E+03  0.98697834341E+03  0.00000000000E+00 0.  1.
         24    2    1    2    0    0 -0.10729386619E+03 -0.22407259414E+03 -0.46268657670E+03  0.53084684854E+03  0.77453258051E+02 0.  0.
        254    2    1    2    0    0  0.10729386619E+03  0.22407259414E+03 -0.49316696445E+02  0.93110656514E+03  0.89599486490E+03 0.  0.
         23    2    4    4    0    0  0.79827197465E+02  0.73371152733E+02  0.41228516495E+03  0.43593668970E+03  0.91137438420E+02 0.  0.
         23    2    4    4    0    0  0.27466668729E+02  0.15070144141E+03 -0.46160186139E+03  0.49516987544E+03  0.93013895567E+02 0.  0.
          2    1    3    3  502    0 -0.12102847864E+02  0.39606031971E+01 -0.16980457880E+02  0.21225014816E+02  0.00000000000E+00 0. -1.
         -1    1    3    3    0  502 -0.95191018330E+02 -0.22803319734E+03 -0.44570611882E+03  0.50962183373E+03  0.00000000000E+00 0.  1.
         11    1    5    5    0    0  0.32481696243E+02 -0.73917628473E+00  0.24308637032E+03  0.24524801815E+03  0.00000000000E+00 0.  1.
        -11    1    5    5    0    0  0.47345501222E+02  0.74110329017E+02  0.16919879463E+03  0.19068867155E+03  0.00000000000E+00 0. -1.
          1    1    6    6  503    0  0.55385343600E+02  0.51390017987E+02 -0.17714968843E+03  0.19258889466E+03  0.00000000000E+00 0. -1.
         -1    1    6    6    0  503 -0.27918674870E+02  0.99311423424E+02 -0.28445217296E+03  0.30258098078E+03  0.00000000000E+00 0.  1.
<mgrwt>
<rscale>  0 0.13693650E+04</rscale>
<asrwt>0</asrwt>
<pdfrwt beam="1">  1        4 0.73073088E-01 0.13693650E+04</pdfrwt>
<pdfrwt beam="2">  1       -3 0.15184282E+00 0.13693650E+04</pdfrwt>
<totfact> 0.11867463E+00</totfact>
</mgrwt>
</event>
<event>
12    6  0.1494052E-007  0.1704055E+04  0.7818608E-02  0.8759055E-01
         -1   -1    0    0    0  501 -0.00000000000E+00  0.00000000000E+00  0.26252953626E+03  0.26252953626E+03  0.00000000000E+00 0.  1.
          2   -1    0    0  501    0  0.00000000000E+00 -0.00000000000E+00 -0.27652168966E+04  0.27652168966E+04  0.00000000000E+00 0. -1.
         24    2    1    2    0    0  0.49858496960E+03  0.95373276737E+02 -0.39216485880E+03  0.64656429302E+03  0.81049828515E+02 0.  0.
        254    2    1    2    0    0 -0.49858496960E+03 -0.95373276737E+02 -0.21105225015E+04  0.23811821398E+04  0.97879523893E+03 0.  0.
         23    2    4    4    0    0 -0.45369708424E+03  0.34633292289E+03 -0.74860514642E+03  0.94585323266E+03  0.91875648256E+02 0.  0.
         23    2    4    4    0    0 -0.44887885353E+02 -0.44170619963E+03 -0.13619173551E+04  0.14353289072E+04  0.90724310839E+02 0.  0.
          4    1    3    3  502    0  0.35926397377E+02  0.17313151165E+02 -0.92262621422E+01  0.40933789769E+02  0.00000000000E+00 0. -1.
         -3    1    3    3    0  502  0.46265857222E+03  0.78060125572E+02 -0.38293859666E+03  0.60563050325E+03  0.00000000000E+00 0.  1.
         11    1    5    5    0    0 -0.36590724915E+03  0.31686345969E+03 -0.60214800425E+03  0.77257542421E+03  0.00000000000E+00 0. -1.
        -11    1    5    5    0    0 -0.87789835089E+02  0.29469463208E+02 -0.14645714218E+03  0.17327780845E+03  0.00000000000E+00 0.  1.
          1    1    6    6  503    0 -0.47225110308E+02 -0.38240274964E+03 -0.12576929356E+04  0.13153910423E+04  0.00000000000E+00 0. -1.
         -1    1    6    6    0  503  0.23372249550E+01 -0.59303449989E+02 -0.10422441947E+03  0.11993786481E+03  0.00000000000E+00 0.  1.
<mgrwt>
<rscale>  0 0.17040553E+04</rscale>
<asrwt>0</asrwt>
<pdfrwt beam="1">  1        2 0.42541798E+00 0.17040553E+04</pdfrwt>
<pdfrwt beam="2">  1       -1 0.40389160E-01 0.17040553E+04</pdfrwt>
<totfact> 0.15778247E+01</totfact>
</mgrwt>
</event>
<event>
12    6  0.1494052E-007  0.3776935E+04  0.7818608E-02  0.8051123E-01
         -1   -1    0    0    0  501 -0.00000000000E+00  0.00000000000E+00  0.29457347967E+04  0.29457347967E+04  0.00000000000E+00 0.  1.
          2   -1    0    0  501    0  0.00000000000E+00 -0.00000000000E+00 -0.12106688434E+04  0.12106688434E+04  0.00000000000E+00 0. -1.
         24    2    1    2    0    0  0.59283686414E+03  0.60456012238E+03 -0.90433678767E+03  0.12414477314E+04  0.80118382560E+02 0.  0.
        254    2    1    2    0    0 -0.59283686414E+03 -0.60456012238E+03  0.26394027409E+04  0.29149559087E+04  0.90198261178E+03 0.  0.
         23    2    4    4    0    0 -0.51152032867E+03 -0.56881535880E+02  0.58201800019E+03  0.78244744161E+03  0.92684899343E+02 0.  0.
         23    2    4    4    0    0 -0.81316535477E+02 -0.54767858650E+03  0.20573847408E+04  0.21325084671E+04  0.90532744763E+02 0.  0.
          2    1    3    3  502    0  0.53942337485E+03  0.51265243988E+03 -0.78740183336E+03  0.10834167013E+04  0.00000000000E+00 0. -1.
         -1    1    3    3    0  502  0.53413489289E+02  0.91907682504E+02 -0.11693495431E+03  0.15803103012E+03  0.00000000000E+00 0.  1.
         11    1    5    5    0    0 -0.50539317694E+03 -0.42470999432E+02  0.56161682253E+03  0.75672947903E+03  0.00000000000E+00 0.  1.
        -11    1    5    5    0    0 -0.61271517319E+01 -0.14410536448E+02  0.20401177668E+02  0.25717962581E+02  0.00000000000E+00 0. -1.
          4    1    6    6  503    0 -0.47793523613E+02 -0.94520840989E+02  0.34817415511E+03  0.36392808709E+03  0.00000000000E+00 0. -1.
         -4    1    6    6    0  503 -0.33523011864E+02 -0.45315774551E+03  0.17092105856E+04  0.17685803800E+04  0.00000000000E+00 0.  1.
<mgrwt>
<rscale>  0 0.37769349E+04</rscale>
<asrwt>0</asrwt>
<pdfrwt beam="1">  1        2 0.18625675E+00 0.37769349E+04</pdfrwt>
<pdfrwt beam="2">  1       -1 0.45318997E+00 0.37769349E+04</pdfrwt>
<totfact> 0.52526938E-02</totfact>
</mgrwt>
</event>
<event>
12    6  0.1494052E-007  0.2198997E+04  0.7818608E-02  0.8518846E-01
         -1   -1    0    0    0  501 -0.00000000000E+00  0.00000000000E+00  0.16644662025E+04  0.16644662025E+04  0.00000000000E+00 0.  1.
          2   -1    0    0  501    0  0.00000000000E+00 -0.00000000000E+00 -0.72629677071E+03  0.72629677071E+03  0.00000000000E+00 0. -1.
         24    2    1    2    0    0  0.71114837959E+03 -0.18550497364E+03  0.99126738134E+03  0.12364607352E+04  0.77974453126E+02 0.  0.
        254    2    1    2    0    0 -0.71114837959E+03  0.18550497364E+03 -0.53097949578E+02  0.11543022380E+04  0.88851007385E+03 0.  0.
         23    2    4    4    0    0 -0.54234511810E+03 -0.28067454906E+03  0.10335596397E+03  0.62627810989E+03  0.92872956347E+02 0.  0.
         23    2    4    4    0    0 -0.16880326149E+03  0.46617952270E+03 -0.15645391354E+03  0.52802412810E+03  0.92270061866E+02 0.  0.
          4    1    3    3  502    0  0.99619422198E+02 -0.33342824524E+02  0.18961412421E+03  0.21677013015E+03  0.00000000000E+00 0. -1.
         -3    1    3    3    0  502  0.61152895739E+03 -0.15216214912E+03  0.80165325713E+03  0.10196906051E+04  0.00000000000E+00 0.  1.
         11    1    5    5    0    0 -0.29648612998E+03 -0.11505142509E+03  0.85399620006E+02  0.32929310771E+03  0.00000000000E+00 0. -1.
        -11    1    5    5    0    0 -0.24585898812E+03 -0.16562312396E+03  0.17956343960E+02  0.29698500218E+03  0.00000000000E+00 0.  1.
          1    1    6    6  503    0 -0.15067056540E+03  0.41487324586E+03 -0.16821152246E+03  0.47235214163E+03  0.00000000000E+00 0. -1.
         -1    1    6    6    0  503 -0.18132696086E+02  0.51306276835E+02  0.11757608916E+02  0.55671986469E+02  0.00000000000E+00 0.  1.
<mgrwt>
<rscale>  0 0.21989965E+04</rscale>
<asrwt>0</asrwt>
<pdfrwt beam="1">  1        2 0.11173797E+00 0.21989965E+04</pdfrwt>
<pdfrwt beam="2">  1       -1 0.25607172E+00 0.21989965E+04</pdfrwt>
<totfact> 0.25949514E+00</totfact>
</mgrwt>
</event>
<event>
12    6  0.1494052E-007  0.1289054E+04  0.7818608E-02  0.9038291E-01
         -1   -1    0    0    0  501 -0.00000000000E+00  0.00000000000E+00  0.11603723262E+04  0.11603723262E+04  0.00000000000E+00 0.  1.
          2   -1    0    0  501    0  0.00000000000E+00 -0.00000000000E+00 -0.35800144675E+03  0.35800144675E+03  0.00000000000E+00 0. -1.
         24    2    1    2    0    0  0.64164864658E+02 -0.10943795569E+03  0.55618324717E+03  0.57608873740E+03  0.80278471118E+02 0.  0.
        254    2    1    2    0    0 -0.64164864658E+02  0.10943795569E+03  0.24618763232E+03  0.94228503560E+03  0.90066583259E+03 0.  0.
         23    2    4    4    0    0  0.61843600016E+02 -0.19558205666E+03 -0.25192610685E+03  0.33764263303E+03  0.91971803139E+02 0.  0.
         23    2    4    4    0    0 -0.12600846467E+03  0.30502001235E+03  0.49811373918E+03  0.60464240257E+03  0.92519169502E+02 0.  0.
          2    1    3    3  502    0  0.39159022085E+02 -0.50404559549E+02  0.12693677015E+03  0.14208093556E+03  0.00000000000E+00 0. -1.
         -1    1    3    3    0  502  0.25005842573E+02 -0.59033396140E+02  0.42924647702E+03  0.43400780184E+03  0.00000000000E+00 0.  1.
         11    1    5    5    0    0  0.65235219944E+02 -0.58473490865E+02 -0.10151324922E+03  0.13408848878E+03  0.00000000000E+00 0.  1.
        -11    1    5    5    0    0 -0.33916199279E+01 -0.13710856580E+03 -0.15041285763E+03  0.20355414425E+03  0.00000000000E+00 0. -1.
          4    1    6    6  503    0 -0.33351413552E+02  0.19822355307E+03  0.27892585765E+03  0.34380885365E+03  0.00000000000E+00 0. -1.
         -4    1    6    6    0  503 -0.92657051122E+02  0.10679645928E+03  0.21918788153E+03  0.26083354892E+03  0.00000000000E+00 0.  1.
<mgrwt>
<rscale>  0 0.12890539E+04</rscale>
<asrwt>0</asrwt>
<pdfrwt beam="1">  1        2 0.55077146E-01 0.12890539E+04</pdfrwt>
<pdfrwt beam="2">  1       -1 0.17851882E+00 0.12890539E+04</pdfrwt>
<totfact> 0.21578736E+01</totfact>
</mgrwt>
</event>
<event>
12    6  0.1494052E-007  0.2395324E+04  0.7818608E-02  0.8441256E-01
         -1   -1    0    0    0  501 -0.00000000000E+00  0.00000000000E+00  0.45583502649E+03  0.45583502649E+03  0.00000000000E+00 0.  1.
          2   -1    0    0  501    0  0.00000000000E+00 -0.00000000000E+00 -0.31467401527E+04  0.31467401527E+04  0.00000000000E+00 0. -1.
         24    2    1    2    0    0  0.44092897768E+03 -0.77186669345E+03 -0.19331011112E+04  0.21291463594E+04  0.78662304339E+02 0.  0.
        254    2    1    2    0    0 -0.44092897768E+03  0.77186669345E+03 -0.75780401501E+03  0.14734288197E+04  0.89806959962E+03 0.  0.
         23    2    4    4    0    0 -0.62659956396E+03  0.81152533715E+03 -0.51225611650E+03  0.11495392273E+04  0.88508303063E+02 0.  0.
         23    2    4    4    0    0  0.18567058628E+03 -0.39658643705E+02 -0.24554789851E+03  0.32388959245E+03  0.92543627594E+02 0.  0.
          2    1    3    3  502    0  0.19445217701E+03 -0.35836762736E+03 -0.79599512339E+03  0.89434179257E+03  0.00000000000E+00 0. -1.
         -1    1    3    3    0  502  0.24647680067E+03 -0.41349906609E+03 -0.11371059878E+04  0.12348045669E+04  0.00000000000E+00 0.  1.
         11    1    5    5    0    0 -0.50339127933E+03  0.69854096697E+03 -0.44641741628E+03  0.96987152355E+03  0.00000000000E+00 0.  1.
        -11    1    5    5    0    0 -0.12320828463E+03  0.11298437018E+03 -0.65838700223E+02  0.17966770370E+03  0.00000000000E+00 0. -1.
          4    1    6    6  503    0  0.58626657943E+02 -0.17494910237E+02 -0.15408106207E+03  0.16578338456E+03  0.00000000000E+00 0. -1.
         -4    1    6    6    0  503  0.12704392833E+03 -0.22163733468E+02 -0.91466836439E+02  0.15810620790E+03  0.00000000000E+00 0.  1.
<mgrwt>
<rscale>  0 0.23953241E+04</rscale>
<asrwt>0</asrwt>
<pdfrwt beam="1">  1        2 0.48411388E+00 0.23953241E+04</pdfrwt>
<pdfrwt beam="2">  1       -1 0.70128464E-01 0.23953241E+04</pdfrwt>
<totfact> 0.29558987E+00</totfact>
</mgrwt>
</event>
<event>
12    6  0.1494052E-007  0.2505636E+04  0.7818608E-02  0.8400980E-01
         -1   -1    0    0    0  501 -0.00000000000E+00  0.00000000000E+00  0.79962859864E+03  0.79962859864E+03  0.00000000000E+00 0.  1.
          2   -1    0    0  501    0  0.00000000000E+00 -0.00000000000E+00 -0.19628530796E+04  0.19628530796E+04  0.00000000000E+00 0. -1.
         24    2    1    2    0    0  0.97386979392E+03  0.76478657292E+02  0.25956328608E+02  0.98029727784E+03  0.77702389991E+02 0.  0.
        254    2    1    2    0    0 -0.97386979392E+03 -0.76478657292E+02 -0.11891808095E+04  0.17821844004E+04  0.89875407013E+03 0.  0.
         23    2    4    4    0    0 -0.22290168738E+02 -0.25125836991E+03 -0.56876228473E+03  0.62894355512E+03  0.91933883414E+02 0.  0.
         23    2    4    4    0    0 -0.95157962519E+03  0.17477971262E+03 -0.62041852481E+03  0.11532408452E+04  0.94834435757E+02 0.  0.
          4    1    3    3  502    0  0.12398215541E+03  0.13845401781E+02  0.29087971091E+02  0.12809910255E+03  0.00000000000E+00 0. -1.
         -3    1    3    3    0  502  0.84988763851E+03  0.62633255511E+02 -0.31316424827E+01  0.85219817530E+03  0.00000000000E+00 0.  1.
         11    1    5    5    0    0  0.36059589430E+02 -0.10121326593E+03 -0.23297887349E+03  0.25656105449E+03  0.00000000000E+00 0. -1.
        -11    1    5    5    0    0 -0.58349758168E+02 -0.15004510398E+03 -0.33578341124E+03  0.37238250062E+03  0.00000000000E+00 0.  1.
          4    1    6    6  503    0 -0.26567478337E+03  0.34130103549E+02 -0.22021717972E+03  0.34676153294E+03  0.00000000000E+00 0. -1.
         -4    1    6    6    0  503 -0.68590484182E+03  0.14064960907E+03 -0.40020134509E+03  0.80647931231E+03  0.00000000000E+00 0.  1.
<mgrwt>
<rscale>  0 0.25056364E+04</rscale>
<asrwt>0</asrwt>
<pdfrwt beam="1">  1        2 0.30197739E+00 0.25056364E+04</pdfrwt>
<pdfrwt beam="2">  1       -1 0.12301979E+00 0.25056364E+04</pdfrwt>
<totfact> 0.41386688E+00</totfact>
</mgrwt>
</event>
<event>
12    6  0.1494052E-007  0.1626510E+04  0.7818608E-02  0.8804425E-01
         -1   -1    0    0    0  501 -0.00000000000E+00  0.00000000000E+00  0.41648461995E+03  0.41648461995E+03  0.00000000000E+00 0.  1.
          2   -1    0    0  501    0  0.00000000000E+00 -0.00000000000E+00 -0.15880145205E+04  0.15880145205E+04  0.00000000000E+00 0. -1.
         24    2    1    2    0    0 -0.17042509580E+03 -0.41185393844E+03  0.13793685218E+02  0.45313683805E+03  0.80463335505E+02 0.  0.
        254    2    1    2    0    0  0.17042509580E+03  0.41185393844E+03 -0.11853235857E+04  0.15513623024E+04  0.89613872275E+03 0.  0.
         23    2    4    4    0    0  0.15881684244E+03  0.46280328184E+03 -0.13012047597E+04  0.13931403001E+04  0.91084587224E+02 0.  0.
         23    2    4    4    0    0  0.11608253357E+02 -0.50949343397E+02  0.11588117394E+03  0.15822200227E+03  0.94208112117E+02 0.  0.
          2    1    3    3  502    0 -0.26129422993E+02 -0.56097249556E+02 -0.26100775505E+02  0.67163223833E+02  0.00000000000E+00 0. -1.
         -1    1    3    3    0  502 -0.14429567280E+03 -0.35575668888E+03  0.39894460723E+02  0.38597361422E+03  0.00000000000E+00 0.  1.
         11    1    5    5    0    0  0.16639978286E+03  0.40638656562E+03 -0.11123683719E+04  0.11959106669E+04  0.00000000000E+00 0. -1.
        -11    1    5    5    0    0 -0.75829404250E+01  0.56416716216E+02 -0.18883638778E+03  0.19722963318E+03  0.00000000000E+00 0.  1.
          4    1    6    6  503    0 -0.30497080528E+02 -0.86336084591E+01  0.85613092672E+02  0.91291909568E+02  0.00000000000E+00 0. -1.
         -4    1    6    6    0  503  0.42105333885E+02 -0.42315734938E+02  0.30268081269E+02  0.66930092698E+02  0.00000000000E+00 0.  1.
<mgrwt>
<rscale>  0 0.16265099E+04</rscale>
<asrwt>0</asrwt>
<pdfrwt beam="1">  1        2 0.24430993E+00 0.16265099E+04</pdfrwt>
<pdfrwt beam="2">  1       -1 0.64074557E-01 0.16265099E+04</pdfrwt>
<totfact> 0.30501707E+01</totfact>
</mgrwt>
</event>
<event>
12    6  0.2503093E-007  0.1385623E+04  0.7818608E-02  0.8964292E-01
          2   -1    0    0  501    0  0.00000000000E+00  0.00000000000E+00  0.82172446659E+03  0.82172446659E+03  0.00000000000E+00 0. -1.
         -1   -1    0    0    0  501 -0.00000000000E+00 -0.00000000000E+00 -0.58412214612E+03  0.58412214612E+03  0.00000000000E+00 0.  1.
         24    2    1    2    0    0  0.19839474786E+03 -0.13365094396E+03 -0.25086460963E+03  0.35568966184E+03  0.79743541259E+02 0.  0.
        254    2    1    2    0    0 -0.19839474786E+03  0.13365094396E+03  0.48846693010E+03  0.10501569509E+04  0.89833547681E+03 0.  0.
         23    2    4    4    0    0 -0.48211278693E+01 -0.12544193368E+03 -0.21634701344E+03  0.26886210338E+03  0.98599586265E+02 0.  0.
         23    2    4    4    0    0 -0.19357361999E+03  0.25909287764E+03  0.70481394354E+03  0.78129484750E+03  0.95179189560E+02 0.  0.
          4    1    3    3  502    0  0.30173510255E+02 -0.82678490992E+01 -0.37315019622E+01  0.31507493660E+02  0.00000000000E+00 0. -1.
         -3    1    3    3    0  502  0.16822123761E+03 -0.12538309486E+03 -0.24713310766E+03  0.32418216818E+03  0.00000000000E+00 0.  1.
         11    1    5    5    0    0 -0.40105074376E+01 -0.11236005558E+02  0.98477650529E+01  0.15469662806E+02  0.00000000000E+00 0. -1.
        -11    1    5    5    0    0 -0.81062043177E+00 -0.11420592812E+03 -0.22619477849E+03  0.25339244058E+03  0.00000000000E+00 0.  1.
          1    1    6    6  503    0 -0.63443041353E+02  0.14174511922E+03  0.25513308710E+03  0.29867974563E+03  0.00000000000E+00 0. -1.
         -1    1    6    6    0  503 -0.13013057864E+03  0.11734775842E+03  0.44968085644E+03  0.48261510187E+03  0.00000000000E+00 0.  1.
<mgrwt>
<rscale>  0 0.13856225E+04</rscale>
<asrwt>0</asrwt>
<pdfrwt beam="1">  1        2 0.12641915E+00 0.13856225E+04</pdfrwt>
<pdfrwt beam="2">  1       -1 0.89864946E-01 0.13856225E+04</pdfrwt>
<totfact> 0.44815095E+01</totfact>
</mgrwt>
</event>
<event>
12    6  0.1494052E-007  0.2836966E+04  0.7818608E-02  0.8291883E-01
         -1   -1    0    0    0  501 -0.00000000000E+00  0.00000000000E+00  0.11291331946E+04  0.11291331946E+04  0.00000000000E+00 0.  1.
          2   -1    0    0  501    0  0.00000000000E+00 -0.00000000000E+00 -0.17819805761E+04  0.17819805761E+04  0.00000000000E+00 0. -1.
         24    2    1    2    0    0 -0.11155687164E+04 -0.22049509890E+03  0.29611297431E+03  0.11777324124E+04  0.79114424203E+02 0.  0.
        254    2    1    2    0    0  0.11155687164E+04  0.22049509890E+03 -0.94896035583E+03  0.17333813583E+04  0.90054068586E+03 0.  0.
         23    2    4    4    0    0 -0.20882656085E+02 -0.90068411829E+02 -0.41825320196E+03  0.43801427146E+03  0.91500584253E+02 0.  0.
         23    2    4    4    0    0  0.11364513725E+04  0.31056351073E+03 -0.53070715387E+03  0.12953670869E+04  0.91402354611E+02 0.  0.
          4    1    3    3  502    0 -0.99085757460E+03 -0.21336092421E+03  0.24496180169E+03  0.10427501625E+04  0.00000000000E+00 0. -1.
         -3    1    3    3    0  502 -0.12471114178E+03 -0.71341746935E+01  0.51151172620E+02  0.13498224992E+03  0.00000000000E+00 0.  1.
         11    1    5    5    0    0 -0.44787570690E+02 -0.37242186573E+02 -0.30783707926E+03  0.31329949620E+03  0.00000000000E+00 0.  1.
        -11    1    5    5    0    0  0.23904914606E+02 -0.52826225257E+02 -0.11041612270E+03  0.12471477526E+03  0.00000000000E+00 0. -1.
          1    1    6    6  503    0  0.13910242834E+03  0.43404589918E+02 -0.99406763116E+02  0.17639486543E+03  0.00000000000E+00 0. -1.
         -1    1    6    6    0  503  0.99734894413E+03  0.26715892081E+03 -0.43130039076E+03  0.11189722215E+04  0.00000000000E+00 0.  1.
<mgrwt>
<rscale>  0 0.28369656E+04</rscale>
<asrwt>0</asrwt>
<pdfrwt beam="1">  1        2 0.27415086E+00 0.28369656E+04</pdfrwt>
<pdfrwt beam="2">  1       -1 0.17371280E+00 0.28369656E+04</pdfrwt>
<totfact> 0.20150853E+00</totfact>
</mgrwt>
</event>
<event>
12    6  0.1494052E-007  0.1157849E+04  0.7818608E-02  0.9150573E-01
         -1   -1    0    0    0  501 -0.00000000000E+00  0.00000000000E+00  0.18298190823E+03  0.18298190823E+03  0.00000000000E+00 0.  1.
          2   -1    0    0  501    0  0.00000000000E+00 -0.00000000000E+00 -0.18316224895E+04  0.18316224895E+04  0.00000000000E+00 0. -1.
         24    2    1    2    0    0  0.29284549370E+02  0.18140479409E+03 -0.41278339883E+03  0.45916424195E+03  0.81709134037E+02 0.  0.
        254    2    1    2    0    0 -0.29284549370E+02 -0.18140479409E+03 -0.12358571825E+04  0.15554401558E+04  0.92643716392E+03 0.  0.
         23    2    4    4    0    0 -0.31324989414E+03 -0.22455712041E+03 -0.14098095977E+03  0.41983312308E+03  0.88503241245E+02 0.  0.
         23    2    4    4    0    0  0.28396534477E+03  0.43152326321E+02 -0.10948762227E+04  0.11356070327E+04  0.91383529403E+02 0.  0.
          2    1    3    3  502    0 -0.90353295995E+01  0.34137298129E+02 -0.26995622368E+02  0.44449476167E+02  0.00000000000E+00 0. -1.
         -1    1    3    3    0  502  0.38319878970E+02  0.14726749596E+03 -0.38578777646E+03  0.41471476578E+03  0.00000000000E+00 0.  1.
         11    1    5    5    0    0 -0.23242268217E+03 -0.17909903120E+03 -0.14441569812E+03  0.32703617541E+03  0.00000000000E+00 0. -1.
        -11    1    5    5    0    0 -0.80827211974E+02 -0.45458089211E+02  0.34347383421E+01  0.92796947675E+02  0.00000000000E+00 0.  1.
          3    1    6    6  503    0  0.14774511871E+03  0.26522851091E+02 -0.39840886849E+03  0.42574840954E+03  0.00000000000E+00 0. -1.
         -3    1    6    6    0  503  0.13622022606E+03  0.16629475230E+02 -0.69646735422E+03  0.70985862319E+03  0.00000000000E+00 0.  1.
<mgrwt>
<rscale>  0 0.11578493E+04</rscale>
<asrwt>0</asrwt>
<pdfrwt beam="1">  1        2 0.28178806E+00 0.11578493E+04</pdfrwt>
<pdfrwt beam="2">  1       -1 0.28151064E-01 0.11578493E+04</pdfrwt>
<totfact> 0.10659277E+02</totfact>
</mgrwt>
</event>
<event>
12    6  0.1494052E-007  0.1875072E+04  0.7818608E-02  0.8667365E-01
          2   -1    0    0  501    0  0.00000000000E+00  0.00000000000E+00  0.79892670575E+03  0.79892670575E+03  0.00000000000E+00 0. -1.
         -1   -1    0    0    0  501 -0.00000000000E+00 -0.00000000000E+00 -0.11001930959E+04  0.11001930959E+04  0.00000000000E+00 0.  1.
         24    2    1    2    0    0 -0.36809599464E+03 -0.38909081053E+03 -0.60617195192E+03  0.81284030244E+03  0.79866149696E+02 0.  0.
        254    2    1    2    0    0  0.36809599464E+03  0.38909081053E+03  0.30490556180E+03  0.10862794992E+04  0.89451072024E+03 0.  0.
         23    2    4    4    0    0 -0.90584512925E+02 -0.14846542988E+03 -0.14597212578E+03  0.24335372161E+03  0.87553609105E+02 0.  0.
         23    2    4    4    0    0  0.45868050757E+03  0.53755624041E+03  0.45087768757E+03  0.84292577757E+03  0.88761803270E+02 0.  0.
          4    1    3    3  502    0 -0.23960400098E+02 -0.28594872661E+01 -0.30419823931E+02  0.38828380448E+02  0.00000000000E+00 0. -1.
         -3    1    3    3    0  502 -0.34413559454E+03 -0.38623132326E+03 -0.57575212799E+03  0.77401192199E+03  0.00000000000E+00 0.  1.
         11    1    5    5    0    0 -0.97238814264E+02 -0.10690561546E+03 -0.13933452623E+03  0.20074438427E+03  0.00000000000E+00 0. -1.
        -11    1    5    5    0    0  0.66543013396E+01 -0.41559814425E+02 -0.66375995512E+01  0.42609337347E+02  0.00000000000E+00 0.  1.
          2    1    6    6  503    0  0.33617766620E+03  0.38445146728E+03  0.37081942387E+03  0.63113025523E+03  0.00000000000E+00 0. -1.
         -2    1    6    6    0  503  0.12250284137E+03  0.15310477313E+03  0.80058263706E+02  0.21179552234E+03  0.00000000000E+00 0.  1.
<mgrwt>
<rscale>  0 0.18750719E+04</rscale>
<asrwt>0</asrwt>
<pdfrwt beam="1">  1        2 0.12291180E+00 0.18750719E+04</pdfrwt>
<pdfrwt beam="2">  1       -1 0.16926047E+00 0.18750719E+04</pdfrwt>
<totfact> 0.92097512E+00</totfact>
</mgrwt>
</event>
<event>
12    6  0.1494052E-007  0.1497525E+04  0.7818608E-02  0.8886100E-01
          2   -1    0    0  501    0  0.00000000000E+00  0.00000000000E+00  0.32198730970E+04  0.32198730970E+04  0.00000000000E+00 0. -1.
         -1   -1    0    0    0  501 -0.00000000000E+00 -0.00000000000E+00 -0.17412033068E+03  0.17412033068E+03  0.00000000000E+00 0.  1.
         24    2    1    2    0    0  0.38232969819E+03 -0.21020850406E+03  0.14044280469E+04  0.14730552226E+04  0.84320440136E+02 0.  0.
        254    2    1    2    0    0 -0.38232969819E+03  0.21020850406E+03  0.16413247194E+04  0.19209382051E+04  0.89760411086E+03 0.  0.
         23    2    4    4    0    0 -0.87662007916E+02 -0.55354560152E+02 -0.74308565308E+02  0.15771776303E+03  0.92759770031E+02 0.  0.
         23    2    4    4    0    0 -0.29466769028E+03  0.26556306421E+03  0.17156332847E+04  0.17632204420E+04  0.90531601146E+02 0.  0.
          4    1    3    3  502    0  0.37152561120E+03 -0.18125893226E+03  0.13142948676E+04  0.13777725063E+04  0.00000000000E+00 0. -1.
         -3    1    3    3    0  502  0.10804086994E+02 -0.28949571795E+02  0.90133179327E+02  0.95282716263E+02  0.00000000000E+00 0.  1.
         11    1    5    5    0    0 -0.58563134244E+02 -0.26275079884E+02 -0.92620455761E+02  0.11268792899E+03  0.00000000000E+00 0. -1.
        -11    1    5    5    0    0 -0.29098873672E+02 -0.29079480269E+02  0.18311890453E+02  0.45029834039E+02  0.00000000000E+00 0.  1.
          1    1    6    6  503    0 -0.15679330480E+03  0.87270409706E+02  0.67364564880E+03  0.69713608786E+03  0.00000000000E+00 0. -1.
         -1    1    6    6    0  503 -0.13787438547E+03  0.17829265450E+03  0.10419876359E+04  0.10660843542E+04  0.00000000000E+00 0.  1.
<mgrwt>
<rscale>  0 0.14975251E+04</rscale>
<asrwt>0</asrwt>
<pdfrwt beam="1">  1        2 0.49536505E+00 0.14975251E+04</pdfrwt>
<pdfrwt beam="2">  1       -1 0.26787746E-01 0.14975251E+04</pdfrwt>
<totfact> 0.17394813E+01</totfact>
</mgrwt>
</event>
<event>
12    6  0.1494052E-007  0.2474347E+04  0.7818608E-02  0.8412182E-01
          2   -1    0    0  501    0  0.00000000000E+00  0.00000000000E+00  0.42015015225E+04  0.42015015225E+04  0.00000000000E+00 0. -1.
         -1   -1    0    0    0  501 -0.00000000000E+00 -0.00000000000E+00 -0.36429796200E+03  0.36429796200E+03  0.00000000000E+00 0.  1.
         24    2    1    2    0    0  0.51366473905E+02 -0.10252726469E+04  0.22741046243E+04  0.24963454277E+04  0.79788077045E+02 0.  0.
        254    2    1    2    0    0 -0.51366473905E+02  0.10252726469E+04  0.15630989362E+04  0.20694540568E+04  0.88630654608E+03 0.  0.
         23    2    4    4    0    0  0.87346401027E+02  0.11299641408E+04  0.11787178959E+04  0.16378646655E+04  0.93682609104E+02 0.  0.
         23    2    4    4    0    0 -0.13871287493E+03 -0.10469149389E+03  0.38438104031E+03  0.43158939125E+03  0.91208814957E+02 0.  0.
          4    1    3    3  502    0  0.56364705564E+01 -0.43725847817E+03  0.88190863324E+03  0.98437268548E+03  0.00000000000E+00 0. -1.
         -3    1    3    3    0  502  0.45730003349E+02 -0.58801416869E+03  0.13921959910E+04  0.15119727422E+04  0.00000000000E+00 0.  1.
         11    1    5    5    0    0  0.59671942444E+02  0.36905050341E+03  0.43379344339E+03  0.57265676134E+03  0.00000000000E+00 0. -1.
        -11    1    5    5    0    0  0.27674458583E+02  0.76091363735E+03  0.74492445249E+03  0.10652079042E+04  0.00000000000E+00 0.  1.
          2    1    6    6  503    0 -0.13162943631E+03 -0.76150199517E+02  0.23909937456E+03  0.28336138111E+03  0.00000000000E+00 0. -1.
         -2    1    6    6    0  503 -0.70834386227E+01 -0.28541294376E+02  0.14528166575E+03  0.14822801014E+03  0.00000000000E+00 0.  1.
<mgrwt>
<rscale>  0 0.24743471E+04</rscale>
<asrwt>0</asrwt>
<pdfrwt beam="1">  1        2 0.64638481E+00 0.24743471E+04</pdfrwt>
<pdfrwt beam="2">  1       -1 0.56045843E-01 0.24743471E+04</pdfrwt>
<totfact> 0.76264954E-01</totfact>
</mgrwt>
</event>
<event>
12    6  0.1494052E-007  0.1897648E+04  0.7818608E-02  0.8656028E-01
         -1   -1    0    0    0  501 -0.00000000000E+00  0.00000000000E+00  0.62701960105E+03  0.62701960105E+03  0.00000000000E+00 0.  1.
          2   -1    0    0  501    0  0.00000000000E+00 -0.00000000000E+00 -0.14357881335E+04  0.14357881335E+04  0.00000000000E+00 0. -1.
         24    2    1    2    0    0 -0.27495365094E+03  0.67183557329E+03 -0.21691455871E+03  0.76196927973E+03  0.81133900261E+02 0.  0.
        254    2    1    2    0    0  0.27495365094E+03 -0.67183557329E+03 -0.59185397371E+03  0.13008384548E+04  0.90273307881E+03 0.  0.
         23    2    4    4    0    0  0.16250248632E+03 -0.87763984917E+03 -0.52833115338E+03  0.10411573420E+04  0.90642375152E+02 0.  0.
         23    2    4    4    0    0  0.11245116462E+03  0.20580427588E+03 -0.63522820337E+02  0.25968111285E+03  0.91643151798E+02 0.  0.
          2    1    3    3  502    0 -0.21422917438E+03  0.46026101449E+03 -0.12119486178E+03  0.52194112229E+03  0.00000000000E+00 0. -1.
         -3    1    3    3    0  502 -0.60724476558E+02  0.21157455880E+03 -0.95719696929E+02  0.24002815744E+03  0.00000000000E+00 0.  1.
         11    1    5    5    0    0  0.12746555659E+02 -0.15765986598E+03 -0.13047066332E+03  0.20504073256E+03  0.00000000000E+00 0. -1.
        -11    1    5    5    0    0  0.14975593066E+03 -0.71997998319E+03 -0.39786049006E+03  0.83611660940E+03  0.00000000000E+00 0.  1.
          1    1    6    6  503    0  0.89589986837E+02  0.69634646044E+02 -0.22939646491E+02  0.11576518066E+03  0.00000000000E+00 0. -1.
         -1    1    6    6    0  503  0.22861177782E+02  0.13616962983E+03 -0.40583173846E+02  0.14391593219E+03  0.00000000000E+00 0.  1.
<mgrwt>
<rscale>  0 0.18976483E+04</rscale>
<asrwt>0</asrwt>
<pdfrwt beam="1">  1        2 0.22089048E+00 0.18976483E+04</pdfrwt>
<pdfrwt beam="2">  1       -1 0.96464556E-01 0.18976483E+04</pdfrwt>
<totfact> 0.15244779E+01</totfact>
</mgrwt>
</event>
<event>
12    6  0.1494052E-007  0.1677759E+04  0.7818608E-02  0.8774152E-01
          2   -1    0    0  501    0  0.00000000000E+00  0.00000000000E+00  0.99858348743E+03  0.99858348743E+03  0.00000000000E+00 0. -1.
         -3   -1    0    0    0  501 -0.00000000000E+00 -0.00000000000E+00 -0.70471725952E+03  0.70471725952E+03  0.00000000000E+00 0.  1.
         24    2    1    2    0    0  0.19005664860E+03 -0.39085462928E+03 -0.30859567907E+03  0.53912457523E+03  0.80840234834E+02 0.  0.
        254    2    1    2    0    0 -0.19005664860E+03  0.39085462928E+03  0.60246190697E+03  0.11641761717E+04  0.89635759523E+03 0.  0.
         23    2    4    4    0    0 -0.13336283439E+03 -0.80935987669E+02 -0.17314939415E+03  0.25000113519E+03  0.90463115168E+02 0.  0.
         23    2    4    4    0    0 -0.56693814206E+02  0.47179061695E+03  0.77561130112E+03  0.91417503653E+03  0.91337463139E+02 0.  0.
          2    1    3    3  502    0 -0.54685641507E+01 -0.91521440869E+01 -0.18518356529E+02  0.21368117928E+02  0.00000000000E+00 0. -1.
         -1    1    3    3    0  502  0.19552521275E+03 -0.38170248519E+03 -0.29007732254E+03  0.51775645730E+03  0.00000000000E+00 0.  1.
         11    1    5    5    0    0 -0.39715204191E+02 -0.35621216910E+02 -0.12390000178E+03  0.13489766114E+03  0.00000000000E+00 0. -1.
        -11    1    5    5    0    0 -0.93647630201E+02 -0.45314770759E+02 -0.49249392364E+02  0.11510347405E+03  0.00000000000E+00 0.  1.
          3    1    6    6  503    0 -0.60682351181E+02  0.47484541549E+03  0.76497509719E+03  0.90241199885E+03  0.00000000000E+00 0. -1.
         -3    1    6    6    0  503  0.39885369747E+01 -0.30547985352E+01  0.10636203931E+02  0.11763037675E+02  0.00000000000E+00 0.  1.
<mgrwt>
<rscale>  0 0.16777592E+04</rscale>
<asrwt>0</asrwt>
<pdfrwt beam="1">  1        2 0.15362823E+00 0.16777592E+04</pdfrwt>
<pdfrwt beam="2">  1       -3 0.10841804E+00 0.16777592E+04</pdfrwt>
<totfact> 0.11000924E+01</totfact>
</mgrwt>
</event>
<event>
12    6  0.1494052E-007  0.2421084E+04  0.7818608E-02  0.8431652E-01
         -1   -1    0    0    0  501 -0.00000000000E+00  0.00000000000E+00  0.13855938125E+04  0.13855938125E+04  0.00000000000E+00 0.  1.
          2   -1    0    0  501    0  0.00000000000E+00 -0.00000000000E+00 -0.10576060302E+04  0.10576060302E+04  0.00000000000E+00 0. -1.
         24    2    1    2    0    0  0.53115240694E+03 -0.99588385424E+02 -0.75581221562E+03  0.93218147165E+03  0.75295849071E+02 0.  0.
        254    2    1    2    0    0 -0.53115240694E+03  0.99588385424E+02  0.10837999980E+04  0.15110183710E+04  0.90361128591E+03 0.  0.
         23    2    4    4    0    0 -0.42865109417E+03 -0.26661401500E+03  0.98053207022E+03  0.11065798047E+04  0.90834629560E+02 0.  0.
         23    2    4    4    0    0 -0.10250131277E+03  0.36620240043E+03  0.10326792778E+03  0.40443856633E+03  0.91080029781E+02 0.  0.
          4    1    3    3  502    0  0.44174198213E+03 -0.56822550570E+02 -0.59401618055E+03  0.74244191947E+03  0.00000000000E+00 0. -1.
         -3    1    3    3    0  502  0.89410424810E+02 -0.42765834854E+02 -0.16179603507E+03  0.18973955218E+03  0.00000000000E+00 0.  1.
         11    1    5    5    0    0 -0.22915766371E+03 -0.19209589969E+03  0.53954264395E+03  0.61686330265E+03  0.00000000000E+00 0. -1.
        -11    1    5    5    0    0 -0.19949343046E+03 -0.74518115314E+02  0.44098942627E+03  0.48971650205E+03  0.00000000000E+00 0.  1.
          3    1    6    6  503    0 -0.73701967824E+02  0.27497669040E+03  0.11701309055E+03  0.30779250102E+03  0.00000000000E+00 0. -1.
         -3    1    6    6    0  503 -0.28799344948E+02  0.91225710028E+02 -0.13745162770E+02  0.96646065306E+02  0.00000000000E+00 0.  1.
<mgrwt>
<rscale>  0 0.24210844E+04</rscale>
<asrwt>0</asrwt>
<pdfrwt beam="1">  1        2 0.16270862E+00 0.24210844E+04</pdfrwt>
<pdfrwt beam="2">  1       -1 0.21316828E+00 0.24210844E+04</pdfrwt>
<totfact> 0.28989547E+00</totfact>
</mgrwt>
</event>
<event>
12    6  0.1494052E-007  0.1657482E+04  0.7818608E-02  0.8785993E-01
         -1   -1    0    0    0  501 -0.00000000000E+00  0.00000000000E+00  0.37410380290E+03  0.37410380290E+03  0.00000000000E+00 0.  1.
          2   -1    0    0  501    0  0.00000000000E+00 -0.00000000000E+00 -0.18358850938E+04  0.18358850938E+04  0.00000000000E+00 0. -1.
         24    2    1    2    0    0  0.15955913047E+02  0.22886163944E+03  0.21573672311E+03  0.32484537009E+03  0.79686508294E+02 0.  0.
        254    2    1    2    0    0 -0.15955913047E+02 -0.22886163944E+03 -0.16775180140E+04  0.18851435266E+04  0.82889516067E+03 0.  0.
         23    2    4    4    0    0  0.29555034582E+02  0.19708345871E+03 -0.84865426924E+02  0.23336820923E+03  0.86851543610E+02 0.  0.
         23    2    4    4    0    0 -0.45510947629E+02 -0.42594509815E+03 -0.15926525871E+04  0.16517753173E+04  0.91208348953E+02 0.  0.
          4    1    3    3  502    0 -0.25123604639E+02  0.11105772106E+03  0.13329139371E+03  0.17530433124E+03  0.00000000000E+00 0. -1.
         -3    1    3    3    0  502  0.41079517686E+02  0.11780391838E+03  0.82445329401E+02  0.14954103885E+03  0.00000000000E+00 0.  1.
         11    1    5    5    0    0 -0.24728997341E+02  0.39939543132E+02 -0.38586576686E+02  0.60791564508E+02  0.00000000000E+00 0. -1.
        -11    1    5    5    0    0  0.54284031923E+02  0.15714391558E+03 -0.46278850238E+02  0.17257664473E+03  0.00000000000E+00 0.  1.
          2    1    6    6  503    0 -0.55484123490E+01 -0.89385887027E+01 -0.96340438084E+01  0.14265274189E+02  0.00000000000E+00 0. -1.
         -2    1    6    6    0  503 -0.39962535280E+02 -0.41700650945E+03 -0.15830185432E+04  0.16375100431E+04  0.00000000000E+00 0.  1.
<mgrwt>
<rscale>  0 0.16574819E+04</rscale>
<asrwt>0</asrwt>
<pdfrwt beam="1">  1        2 0.28244387E+00 0.16574819E+04</pdfrwt>
<pdfrwt beam="2">  1       -1 0.57554430E-01 0.16574819E+04</pdfrwt>
<totfact> 0.27404841E+01</totfact>
</mgrwt>
</event>
<event>
12    6  0.1494052E-007  0.1313014E+04  0.7818608E-02  0.9019308E-01
          2   -1    0    0  501    0  0.00000000000E+00  0.00000000000E+00  0.84238645184E+03  0.84238645184E+03  0.00000000000E+00 0. -1.
         -1   -1    0    0    0  501 -0.00000000000E+00 -0.00000000000E+00 -0.51164327473E+03  0.51164327473E+03  0.00000000000E+00 0.  1.
         24    2    1    2    0    0  0.18113953164E+03  0.22328301897E+03  0.25757348502E+03  0.39415577989E+03  0.79673346550E+02 0.  0.
        254    2    1    2    0    0 -0.18113953164E+03 -0.22328301897E+03  0.73169692088E+02  0.95987394669E+03  0.91287313095E+03 0.  0.
         23    2    4    4    0    0  0.33124852201E+03 -0.26589849764E+03  0.24714779030E+02  0.43527345198E+03  0.91785419964E+02 0.  0.
         23    2    4    4    0    0 -0.51238805364E+03  0.42615478673E+02  0.48454913058E+02  0.52460049471E+03  0.92196550428E+02 0.  0.
          2    1    3    3  502    0  0.16180502098E+03  0.22565526861E+03  0.23092919090E+03  0.36115018521E+03  0.00000000000E+00 0. -1.
         -1    1    3    3    0  502  0.19334510653E+02 -0.23722496459E+01  0.26644294122E+02  0.33005594675E+02  0.00000000000E+00 0.  1.
         11    1    5    5    0    0 -0.30381212142E+01 -0.71573402330E+00 -0.67318563868E+01  0.74202659061E+01  0.00000000000E+00 0. -1.
        -11    1    5    5    0    0  0.33428664322E+03 -0.26518276362E+03  0.31446635417E+02  0.42785318607E+03  0.00000000000E+00 0.  1.
          1    1    6    6  503    0 -0.12941069047E+03 -0.27451032775E+02  0.22343789529E+00  0.13229034709E+03  0.00000000000E+00 0. -1.
         -1    1    6    6    0  503 -0.38297736318E+03  0.70066511448E+02  0.48231475162E+02  0.39231014762E+03  0.00000000000E+00 0.  1.
<mgrwt>
<rscale>  0 0.13130139E+04</rscale>
<asrwt>0</asrwt>
<pdfrwt beam="1">  1        2 0.12959792E+00 0.13130139E+04</pdfrwt>
<pdfrwt beam="2">  1       -1 0.78714350E-01 0.13130139E+04</pdfrwt>
<totfact> 0.58015549E+01</totfact>
</mgrwt>
</event>
<event>
12    6  0.1494052E-007  0.2436627E+04  0.7818608E-02  0.8425917E-01
         -1   -1    0    0    0  501 -0.00000000000E+00  0.00000000000E+00  0.67232138040E+03  0.67232138040E+03  0.00000000000E+00 0.  1.
          2   -1    0    0  501    0  0.00000000000E+00 -0.00000000000E+00 -0.22077057946E+04  0.22077057946E+04  0.00000000000E+00 0. -1.
         24    2    1    2    0    0 -0.41391179738E+03 -0.25448034276E+03  0.43850926693E+03  0.65951219364E+03  0.81134058933E+02 0.  0.
        254    2    1    2    0    0  0.41391179738E+03  0.25448034276E+03 -0.19738936811E+04  0.22205149813E+04  0.89350282437E+03 0.  0.
         23    2    4    4    0    0  0.43772061003E+03 -0.13100848623E+03 -0.45704313569E+03  0.65258498276E+03  0.90643124051E+02 0.  0.
         23    2    4    4    0    0 -0.23808812649E+02  0.38548882899E+03 -0.15168505454E+04  0.15679299986E+04  0.91653731244E+02 0.  0.
          4    1    3    3  502    0 -0.17843610398E+03 -0.12830192009E+03  0.14868683887E+03  0.26534619265E+03  0.00000000000E+00 0. -1.
         -3    1    3    3    0  502 -0.23547569340E+03 -0.12617842267E+03  0.28982242807E+03  0.39416600100E+03  0.00000000000E+00 0.  1.
         11    1    5    5    0    0  0.37680618705E+03 -0.82031651199E+02 -0.35593261181E+03  0.52478578349E+03  0.00000000000E+00 0.  1.
        -11    1    5    5    0    0  0.60914422975E+02 -0.48976835034E+02 -0.10111052388E+03  0.12779919927E+03  0.00000000000E+00 0. -1.
          3    1    6    6  503    0  0.29475888583E+02  0.61797308286E+02 -0.23526066715E+03  0.24502105384E+03  0.00000000000E+00 0. -1.
         -3    1    6    6    0  503 -0.53284701232E+02  0.32369152071E+03 -0.12815898783E+04  0.13229089447E+04  0.00000000000E+00 0.  1.
<mgrwt>
<rscale>  0 0.24366270E+04</rscale>
<asrwt>0</asrwt>
<pdfrwt beam="1">  1        2 0.33964705E+00 0.24366270E+04</pdfrwt>
<pdfrwt beam="2">  1       -1 0.10343406E+00 0.24366270E+04</pdfrwt>
<totfact> 0.45968743E+00</totfact>
</mgrwt>
</event>
<event>
12    6  0.1494052E-007  0.1655937E+04  0.7818608E-02  0.8786902E-01
         -1   -1    0    0    0  501 -0.00000000000E+00  0.00000000000E+00  0.41275815324E+03  0.41275815324E+03  0.00000000000E+00 0.  1.
          2   -1    0    0  501    0  0.00000000000E+00 -0.00000000000E+00 -0.16608565609E+04  0.16608565609E+04  0.00000000000E+00 0. -1.
         24    2    1    2    0    0  0.30667536090E+03  0.37668174170E+03 -0.53213638799E+02  0.50015908833E+03  0.10671696569E+03 0.  0.
        254    2    1    2    0    0 -0.30667536090E+03 -0.37668174170E+03 -0.11948847688E+04  0.15734556258E+04  0.90115153221E+03 0.  0.
         23    2    4    4    0    0  0.35972810570E+02  0.25260550647E+03 -0.51325335963E+03  0.58032991959E+03  0.90830718349E+02 0.  0.
         23    2    4    4    0    0 -0.34264817147E+03 -0.62928724817E+03 -0.68163140919E+03  0.99312570619E+03  0.90923485334E+02 0.  0.
          2    1    3    3  502    0  0.96060616601E+02  0.17604372819E+03 -0.59561359132E+02  0.20920466485E+03  0.00000000000E+00 0. -1.
         -1    1    3    3    0  502  0.21061474430E+03  0.20063801352E+03  0.63477203331E+01  0.29095442347E+03  0.00000000000E+00 0.  1.
         11    1    5    5    0    0 -0.24622367388E+02  0.70245219145E+02 -0.10076727368E+03  0.12527847075E+03  0.00000000000E+00 0. -1.
        -11    1    5    5    0    0  0.60595177958E+02  0.18236028732E+03 -0.41248608595E+03  0.45505144884E+03  0.00000000000E+00 0.  1.
          4    1    6    6  503    0 -0.87964914739E+02 -0.21020553068E+03 -0.16898850121E+03  0.28369227148E+03  0.00000000000E+00 0. -1.
         -4    1    6    6    0  503 -0.25468325673E+03 -0.41908171749E+03 -0.51264290798E+03  0.70943343472E+03  0.00000000000E+00 0.  1.
<mgrwt>
<rscale>  0 0.16559373E+04</rscale>
<asrwt>0</asrwt>
<pdfrwt beam="1">  1        2 0.25551640E+00 0.16559373E+04</pdfrwt>
<pdfrwt beam="2">  1       -1 0.63501253E-01 0.16559373E+04</pdfrwt>
<totfact> 0.28211288E+01</totfact>
</mgrwt>
</event>
<event>
12    6  0.1494052E-007  0.1255530E+04  0.7818608E-02  0.9065593E-01
         -1   -1    0    0    0  501 -0.00000000000E+00  0.00000000000E+00  0.39494144387E+03  0.39494144387E+03  0.00000000000E+00 0.  1.
          2   -1    0    0  501    0  0.00000000000E+00 -0.00000000000E+00 -0.99784182190E+03  0.99784182190E+03  0.00000000000E+00 0. -1.
         24    2    1    2    0    0  0.10658399081E+03  0.11414155747E+03  0.11332999880E+03  0.20784827162E+03  0.77257835508E+02 0.  0.
        254    2    1    2    0    0 -0.10658399081E+03 -0.11414155747E+03 -0.71623037683E+03  0.11849349942E+04  0.93096538359E+03 0.  0.
         23    2    4    4    0    0 -0.19317822700E+03 -0.55879248262E+02  0.17566831378E+03  0.28228364137E+03  0.91566259852E+02 0.  0.
         23    2    4    4    0    0  0.86594236190E+02 -0.58262309207E+02 -0.89189869061E+03  0.90265135279E+03  0.91668598569E+02 0.  0.
          4    1    3    3  502    0 -0.18092447648E+01 -0.85736366199E+01  0.73980014530E-01  0.87627669461E+01  0.00000000000E+00 0. -1.
         -3    1    3    3    0  502  0.10839323557E+03  0.12271519409E+03  0.11325601878E+03  0.19908550467E+03  0.00000000000E+00 0.  1.
         11    1    5    5    0    0 -0.10408431071E+03 -0.74952978891E+02  0.85850441218E+02  0.15434309521E+03  0.00000000000E+00 0. -1.
        -11    1    5    5    0    0 -0.89093916291E+02  0.19073730629E+02  0.89817872563E+02  0.12794054616E+03  0.00000000000E+00 0.  1.
          4    1    6    6  503    0  0.42821603403E+02  0.20962767354E+02 -0.35280376655E+03  0.35601070915E+03  0.00000000000E+00 0. -1.
         -4    1    6    6    0  503  0.43772632788E+02 -0.79225076561E+02 -0.53909492406E+03  0.54664064364E+03  0.00000000000E+00 0.  1.
<mgrwt>
<rscale>  0 0.12555303E+04</rscale>
<asrwt>0</asrwt>
<pdfrwt beam="1">  1        2 0.15351413E+00 0.12555303E+04</pdfrwt>
<pdfrwt beam="2">  1       -1 0.60760222E-01 0.12555303E+04</pdfrwt>
<totfact> 0.77852660E+01</totfact>
</mgrwt>
</event>
<event>
12    6  0.1494052E-007  0.1313032E+04  0.7818608E-02  0.9019294E-01
          2   -1    0    0  501    0  0.00000000000E+00  0.00000000000E+00  0.27604616893E+04  0.27604616893E+04  0.00000000000E+00 0. -1.
         -1   -1    0    0    0  501 -0.00000000000E+00 -0.00000000000E+00 -0.15613822007E+03  0.15613822007E+03  0.00000000000E+00 0.  1.
         24    2    1    2    0    0  0.23617607058E+03  0.12881943222E+03  0.23074455636E+03  0.36352584162E+03  0.80835665401E+02 0.  0.
        254    2    1    2    0    0 -0.23617607058E+03 -0.12881943222E+03  0.23735789129E+04  0.25530740678E+04  0.90107533392E+03 0.  0.
         23    2    4    4    0    0 -0.10057853581E+03  0.33990567195E+03  0.15388655836E+04  0.15820863227E+04  0.96114205083E+02 0.  0.
         23    2    4    4    0    0 -0.13559753477E+03 -0.46872510417E+03  0.83471332924E+03  0.97098774502E+03  0.89336130743E+02 0.  0.
          2    1    3    3  502    0 -0.54472351439E+01  0.25272442588E+01 -0.50144002991E+00  0.60258423777E+01  0.00000000000E+00 0. -1.
         -1    1    3    3    0  502  0.24162330573E+03  0.12629218796E+03  0.23124599639E+03  0.35749999924E+03  0.00000000000E+00 0.  1.
         11    1    5    5    0    0 -0.11983018301E+03  0.28994122799E+03  0.13135008850E+04  0.13504479862E+04  0.00000000000E+00 0.  1.
        -11    1    5    5    0    0  0.19251647193E+02  0.49964443954E+02  0.22536469862E+03  0.23163833656E+03  0.00000000000E+00 0. -1.
          4    1    6    6  503    0  0.10862759400E+02 -0.14510845106E+02  0.41274081224E+02  0.45078974570E+02  0.00000000000E+00 0. -1.
         -4    1    6    6    0  503 -0.14646029417E+03 -0.45421425906E+03  0.79343924802E+03  0.92590877045E+03  0.00000000000E+00 0.  1.
<mgrwt>
<rscale>  0 0.13130325E+04</rscale>
<asrwt>0</asrwt>
<pdfrwt beam="1">  1        2 0.42468638E+00 0.13130325E+04</pdfrwt>
<pdfrwt beam="2">  1       -1 0.24021267E-01 0.13130325E+04</pdfrwt>
<totfact> 0.41185644E+01</totfact>
</mgrwt>
</event>
<event>
12    6  0.1494052E-007  0.2307119E+04  0.7818608E-02  0.8475120E-01
          2   -1    0    0  501    0  0.00000000000E+00  0.00000000000E+00  0.81936984362E+03  0.81936984362E+03  0.00000000000E+00 0. -1.
         -1   -1    0    0    0  501 -0.00000000000E+00 -0.00000000000E+00 -0.16240519668E+04  0.16240519668E+04  0.00000000000E+00 0.  1.
         24    2    1    2    0    0  0.30404050465E+03 -0.92832678263E+03 -0.39494459280E+03  0.10566389254E+04  0.79204440362E+02 0.  0.
        254    2    1    2    0    0 -0.30404050465E+03  0.92832678263E+03 -0.40973753037E+03  0.13867828851E+04  0.89501434774E+03 0.  0.
         23    2    4    4    0    0 -0.58494968911E+03  0.62096747334E+03 -0.43025794660E+03  0.96016368475E+03  0.95003469270E+02 0.  0.
         23    2    4    4    0    0  0.28090918445E+03  0.30735930929E+03  0.20520416231E+02  0.42661920030E+03  0.90571185628E+02 0.  0.
          2    1    3    3  502    0  0.13429982162E+03 -0.44792264997E+03 -0.14833610182E+03  0.49058612042E+03  0.00000000000E+00 0. -1.
         -1    1    3    3    0  502  0.16974068303E+03 -0.48040413266E+03 -0.24660849098E+03  0.56605280494E+03  0.00000000000E+00 0.  1.
         11    1    5    5    0    0 -0.33090574237E+03  0.31124137747E+03 -0.27176464200E+03  0.52936360474E+03  0.00000000000E+00 0.  1.
        -11    1    5    5    0    0 -0.25404394673E+03  0.30972609586E+03 -0.15849330461E+03  0.43080008001E+03  0.00000000000E+00 0. -1.
          1    1    6    6  503    0  0.19523806930E+03  0.16783118910E+03  0.44070643010E+02  0.26120381566E+03  0.00000000000E+00 0. -1.
         -1    1    6    6    0  503  0.85671115148E+02  0.13952812019E+03 -0.23550226779E+02  0.16541538464E+03  0.00000000000E+00 0.  1.
<mgrwt>
<rscale>  0 0.23071187E+04</rscale>
<asrwt>0</asrwt>
<pdfrwt beam="1">  1        2 0.12605690E+00 0.23071187E+04</pdfrwt>
<pdfrwt beam="2">  1       -1 0.24985414E+00 0.23071187E+04</pdfrwt>
<totfact> 0.24091976E+00</totfact>
</mgrwt>
</event>
<event>
12    6  0.1494052E-007  0.1756365E+04  0.7818608E-02  0.8729855E-01
         -1   -1    0    0    0  501 -0.00000000000E+00  0.00000000000E+00  0.31225640308E+03  0.31225640308E+03  0.00000000000E+00 0.  1.
          2   -1    0    0  501    0  0.00000000000E+00 -0.00000000000E+00 -0.24697791608E+04  0.24697791608E+04  0.00000000000E+00 0. -1.
         24    2    1    2    0    0 -0.48832076926E+03  0.34280273629E+03 -0.97625782465E+03  0.11469205511E+04  0.79853119786E+02 0.  0.
        254    2    1    2    0    0  0.48832076926E+03 -0.34280273629E+03 -0.11812649331E+04  0.16351150128E+04  0.96033503172E+03 0.  0.
         23    2    4    4    0    0  0.61364854636E+03 -0.72676462227E+02 -0.28490865899E+03  0.68614985891E+03  0.88217222242E+02 0.  0.
         23    2    4    4    0    0 -0.12532777710E+03 -0.27012627406E+03 -0.89635627413E+03  0.94896515388E+03  0.91678991402E+02 0.  0.
          4    1    3    3  502    0 -0.42125323606E+03  0.32640060079E+03 -0.86462185790E+03  0.10156587017E+04  0.00000000000E+00 0. -1.
         -3    1    3    3    0  502 -0.67067533204E+02  0.16402135504E+02 -0.11163596675E+03  0.13126184949E+03  0.00000000000E+00 0.  1.
         11    1    5    5    0    0  0.63641639400E+01 -0.74902360858E+01 -0.16050030334E+02  0.18820459426E+02  0.00000000000E+00 0.  1.
        -11    1    5    5    0    0  0.60728438242E+03 -0.65186226142E+02 -0.26885862865E+03  0.66732939948E+03  0.00000000000E+00 0. -1.
          2    1    6    6  503    0 -0.76963866977E+02 -0.22545436142E+03 -0.60391771605E+03  0.64920698830E+03  0.00000000000E+00 0. -1.
         -2    1    6    6    0  503 -0.48363910126E+02 -0.44671912648E+02 -0.29243855808E+03  0.29975816558E+03  0.00000000000E+00 0.  1.
<mgrwt>
<rscale>  0 0.17563648E+04</rscale>
<asrwt>0</asrwt>
<pdfrwt beam="1">  1        2 0.37996604E+00 0.17563648E+04</pdfrwt>
<pdfrwt beam="2">  1       -1 0.48039445E-01 0.17563648E+04</pdfrwt>
<totfact> 0.16952255E+01</totfact>
</mgrwt>
</event>
<event>
12    6  0.1494052E-007  0.2359822E+04  0.7818608E-02  0.8454701E-01
          2   -1    0    0  501    0  0.00000000000E+00  0.00000000000E+00  0.36593270043E+04  0.36593270043E+04  0.00000000000E+00 0. -1.
         -1   -1    0    0    0  501 -0.00000000000E+00 -0.00000000000E+00 -0.38044972262E+03  0.38044972262E+03  0.00000000000E+00 0.  1.
         24    2    1    2    0    0  0.37333373880E+03  0.12602783219E+03  0.29828705315E+04  0.30098310847E+04  0.79406900533E+02 0.  0.
        254    2    1    2    0    0 -0.37333373880E+03 -0.12602783219E+03  0.29600675015E+03  0.10299456422E+04  0.90438207340E+03 0.  0.
         23    2    4    4    0    0 -0.24533236080E+03 -0.50074352302E+03  0.26587920231E+03  0.62447965748E+03  0.91384075605E+02 0.  0.
         23    2    4    4    0    0 -0.12800137800E+03  0.37471569083E+03  0.30127547833E+02  0.40546598470E+03  0.81846159851E+02 0.  0.
          2    1    3    3  502    0  0.28507470715E+03  0.80846135299E+02  0.19765869093E+04  0.19986744348E+04  0.00000000000E+00 0. -1.
         -1    1    3    3    0  502  0.88259031651E+02  0.45181696896E+02  0.10062836222E+04  0.10111566499E+04  0.00000000000E+00 0.  1.
         11    1    5    5    0    0 -0.22696574982E+03 -0.43919497553E+03  0.20248642408E+03  0.53423443361E+03  0.00000000000E+00 0. -1.
        -11    1    5    5    0    0 -0.18366610973E+02 -0.61548547494E+02  0.63392778238E+02  0.90245223863E+02  0.00000000000E+00 0.  1.
          4    1    6    6  503    0 -0.78876556341E+02  0.32327622445E+03  0.32145984447E+02  0.33430882841E+03  0.00000000000E+00 0. -1.
         -4    1    6    6    0  503 -0.49124821660E+02  0.51439466377E+02 -0.20184366141E+01  0.71157156285E+02  0.00000000000E+00 0.  1.
<mgrwt>
<rscale>  0 0.23598220E+04</rscale>
<asrwt>0</asrwt>
<pdfrwt beam="1">  1        2 0.56297336E+00 0.23598220E+04</pdfrwt>
<pdfrwt beam="2">  1       -1 0.58530729E-01 0.23598220E+04</pdfrwt>
<totfact> 0.19039973E+00</totfact>
</mgrwt>
</event>
<event>
12    6  0.1494052E-007  0.1854221E+04  0.7818608E-02  0.8677985E-01
          2   -1    0    0  501    0  0.00000000000E+00  0.00000000000E+00  0.21067444274E+04  0.21067444274E+04  0.00000000000E+00 0. -1.
         -1   -1    0    0    0  501 -0.00000000000E+00 -0.00000000000E+00 -0.40799155945E+03  0.40799155945E+03  0.00000000000E+00 0.  1.
         24    2    1    2    0    0 -0.12971427192E+03  0.30737567703E+03  0.14881733696E+04  0.15273461686E+04  0.82587780148E+02 0.  0.
        254    2    1    2    0    0  0.12971427192E+03 -0.30737567703E+03  0.21057949827E+03  0.98738981822E+03  0.90514602627E+03 0.  0.
         23    2    4    4    0    0  0.32069879748E+03 -0.39905131193E+03 -0.16625900012E+03  0.54565303112E+03  0.89473498792E+02 0.  0.
         23    2    4    4    0    0 -0.19098452556E+03  0.91675634901E+02  0.37683849838E+03  0.44173678711E+03  0.90799912871E+02 0.  0.
          2    1    3    3  502    0 -0.12234682960E+03  0.30123157138E+03  0.13406561128E+04  0.13795173138E+04  0.00000000000E+00 0. -1.
         -1    1    3    3    0  502 -0.73674423160E+01  0.61441056550E+01  0.14751725683E+03  0.14782885477E+03  0.00000000000E+00 0.  1.
         11    1    5    5    0    0  0.79325429912E+02 -0.96260182011E+02 -0.12621322973E+01  0.12474028800E+03  0.00000000000E+00 0. -1.
        -11    1    5    5    0    0  0.24137336757E+03 -0.30279112992E+03 -0.16499686782E+03  0.42091274312E+03  0.00000000000E+00 0.  1.
          1    1    6    6  503    0 -0.17916355591E+03  0.75400885258E+02  0.26809864442E+03  0.33115216502E+03  0.00000000000E+00 0. -1.
         -1    1    6    6    0  503 -0.11820969659E+02  0.16274749643E+02  0.10873985397E+03  0.11058462208E+03  0.00000000000E+00 0.  1.
<mgrwt>
<rscale>  0 0.18542211E+04</rscale>
<asrwt>0</asrwt>
<pdfrwt beam="1">  1        2 0.32411452E+00 0.18542211E+04</pdfrwt>
<pdfrwt beam="2">  1       -1 0.62767934E-01 0.18542211E+04</pdfrwt>
<totfact> 0.16052579E+01</totfact>
</mgrwt>
</event>
<event>
12    6  0.1494052E-007  0.2838376E+04  0.7818608E-02  0.8291452E-01
          2   -1    0    0  501    0  0.00000000000E+00  0.00000000000E+00  0.16085742886E+04  0.16085742886E+04  0.00000000000E+00 0. -1.
         -1   -1    0    0    0  501 -0.00000000000E+00 -0.00000000000E+00 -0.12520993413E+04  0.12520993413E+04  0.00000000000E+00 0.  1.
         24    2    1    2    0    0  0.76148157632E+03  0.13987714513E+03  0.11634704150E+04  0.13996607578E+04  0.77246510219E+02 0.  0.
        254    2    1    2    0    0 -0.76148157632E+03 -0.13987714513E+03 -0.80699546779E+03  0.14610128721E+04  0.94015802966E+03 0.  0.
         23    2    4    4    0    0 -0.63972383432E+03 -0.48113415413E+03 -0.37189609018E+03  0.88731070625E+03  0.90977629407E+02 0.  0.
         23    2    4    4    0    0 -0.12175774199E+03  0.34125700901E+03 -0.43509937761E+03  0.57370216589E+03  0.92419764248E+02 0.  0.
          2    1    3    3  502    0  0.58986546648E+03  0.12566996434E+03  0.95179283443E+03  0.11267847213E+04  0.00000000000E+00 0. -1.
         -1    1    3    3    0  502  0.17161610984E+03  0.14207180788E+02  0.21167758061E+03  0.27287603646E+03  0.00000000000E+00 0.  1.
         11    1    5    5    0    0 -0.59168761666E+02 -0.50903589909E+02 -0.67606128082E+02  0.10326038145E+03  0.00000000000E+00 0. -1.
        -11    1    5    5    0    0 -0.58055507266E+03 -0.43023056422E+03 -0.30428996210E+03  0.78405032480E+03  0.00000000000E+00 0.  1.
          3    1    6    6  503    0 -0.56634615844E+02  0.70781091867E+02 -0.69172221642E+02  0.11402736042E+03  0.00000000000E+00 0. -1.
         -3    1    6    6    0  503 -0.65123126149E+02  0.27047591714E+03 -0.36592715597E+03  0.45967480547E+03  0.00000000000E+00 0.  1.
<mgrwt>
<rscale>  0 0.28383762E+04</rscale>
<asrwt>0</asrwt>
<pdfrwt beam="1">  1        2 0.24747297E+00 0.28383762E+04</pdfrwt>
<pdfrwt beam="2">  1       -1 0.19263067E+00 0.28383762E+04</pdfrwt>
<totfact> 0.18446912E+00</totfact>
</mgrwt>
</event>
<event>
12    6  0.1494052E-007  0.3465357E+04  0.7818608E-02  0.8122049E-01
          2   -1    0    0  501    0  0.00000000000E+00  0.00000000000E+00  0.17354077300E+04  0.17354077300E+04  0.00000000000E+00 0. -1.
         -1   -1    0    0    0  501 -0.00000000000E+00 -0.00000000000E+00 -0.17299538651E+04  0.17299538651E+04  0.00000000000E+00 0.  1.
         24    2    1    2    0    0  0.71666520536E+03 -0.12088495606E+04 -0.79298332325E+03  0.16159893491E+04  0.87594228346E+02 0.  0.
        254    2    1    2    0    0 -0.71666520536E+03  0.12088495606E+04  0.79843718807E+03  0.18493722460E+04  0.89874884382E+03 0.  0.
         23    2    4    4    0    0 -0.53007091398E+02  0.63730886662E+03  0.71651570384E+03  0.96495447911E+03  0.93648543449E+02 0.  0.
         23    2    4    4    0    0 -0.66365811397E+03  0.57154069394E+03  0.81921484224E+02  0.88441776687E+03  0.91557630561E+02 0.  0.
          4    1    3    3  502    0  0.25512210539E+03 -0.43051707795E+03 -0.23467483823E+03  0.55272463556E+03  0.00000000000E+00 0. -1.
         -3    1    3    3    0  502  0.46154309997E+03 -0.77833248262E+03 -0.55830848502E+03  0.10632647135E+04  0.00000000000E+00 0.  1.
         11    1    5    5    0    0 -0.86853445708E+01  0.31656482241E+03  0.41914018469E+03  0.52532581930E+03  0.00000000000E+00 0. -1.
        -11    1    5    5    0    0 -0.44321746827E+02  0.32074404421E+03  0.29737551915E+03  0.43962865982E+03  0.00000000000E+00 0.  1.
          2    1    6    6  503    0 -0.24714204507E+03  0.24819103801E+03  0.68868912866E+02  0.35696065462E+03  0.00000000000E+00 0. -1.
         -2    1    6    6    0  503 -0.41651606890E+03  0.32334965593E+03  0.13052571358E+02  0.52745711224E+03  0.00000000000E+00 0.  1.
<mgrwt>
<rscale>  0 0.34653573E+04</rscale>
<asrwt>0</asrwt>
<pdfrwt beam="1">  1        2 0.26698580E+00 0.34653573E+04</pdfrwt>
<pdfrwt beam="2">  1       -1 0.26614675E+00 0.34653573E+04</pdfrwt>
<totfact> 0.48102856E-01</totfact>
</mgrwt>
</event>
<event>
12    6  0.1494052E-007  0.1543196E+04  0.7818608E-02  0.8856225E-01
          2   -1    0    0  501    0  0.00000000000E+00  0.00000000000E+00  0.64117062143E+03  0.64117062143E+03  0.00000000000E+00 0. -1.
         -1   -1    0    0    0  501 -0.00000000000E+00 -0.00000000000E+00 -0.92855757674E+03  0.92855757674E+03  0.00000000000E+00 0.  1.
         24    2    1    2    0    0  0.11560765762E+03 -0.46663565705E+03  0.55573231936E+02  0.49041951450E+03  0.79428893790E+02 0.  0.
        254    2    1    2    0    0 -0.11560765762E+03  0.46663565705E+03 -0.34296018724E+03  0.10793086837E+04  0.90342214810E+03 0.  0.
         23    2    4    4    0    0  0.15872916379E+03 -0.60363978754E+02  0.19341530320E+03  0.27362969133E+03  0.92870722498E+02 0.  0.
         23    2    4    4    0    0 -0.27433682141E+03  0.52699963580E+03 -0.53637549044E+03  0.80567899234E+03  0.91818648620E+02 0.  0.
          4    1    3    3  502    0  0.10715818160E+03 -0.30937129450E+03  0.60045987823E+02  0.33286482901E+03  0.00000000000E+00 0. -1.
         -3    1    3    3    0  502  0.84494760204E+01 -0.15726436255E+03 -0.44727558870E+01  0.15755468549E+03  0.00000000000E+00 0.  1.
         11    1    5    5    0    0  0.92966097768E+02 -0.74598425194E+02  0.86389028618E+02  0.14720966219E+03  0.00000000000E+00 0. -1.
        -11    1    5    5    0    0  0.65763066026E+02  0.14234446440E+02  0.10702627458E+03  0.12642002914E+03  0.00000000000E+00 0.  1.
          2    1    6    6  503    0 -0.22862368060E+03  0.46993328843E+03 -0.43087514383E+03  0.67731785188E+03  0.00000000000E+00 0. -1.
         -2    1    6    6    0  503 -0.45713140813E+02  0.57066347374E+02 -0.10550034661E+03  0.12836114046E+03  0.00000000000E+00 0.  1.
<mgrwt>
<rscale>  0 0.15431965E+04</rscale>
<asrwt>0</asrwt>
<pdfrwt beam="1">  1        2 0.98641634E-01 0.15431965E+04</pdfrwt>
<pdfrwt beam="2">  1       -1 0.14285501E+00 0.15431965E+04</pdfrwt>
<totfact> 0.20000760E+01</totfact>
</mgrwt>
</event>
<event>
12    6  0.1494052E-007  0.1381349E+04  0.7818608E-02  0.8967430E-01
         -1   -1    0    0    0  501 -0.00000000000E+00  0.00000000000E+00  0.52123129328E+03  0.52123129328E+03  0.00000000000E+00 0.  1.
          2   -1    0    0  501    0  0.00000000000E+00 -0.00000000000E+00 -0.91520135486E+03  0.91520135486E+03  0.00000000000E+00 0. -1.
         24    2    1    2    0    0 -0.80794359012E+02 -0.26582198542E+03  0.17543230030E+03  0.33822668769E+03  0.80198153950E+02 0.  0.
        254    2    1    2    0    0  0.80794359012E+02  0.26582198542E+03 -0.56940236187E+03  0.10982059605E+04  0.89702186455E+03 0.  0.
         23    2    4    4    0    0 -0.34274765358E+03  0.33891458417E+03 -0.37370905079E+03  0.61653515058E+03  0.90100432093E+02 0.  0.
         23    2    4    4    0    0  0.42354201259E+03 -0.73092598748E+02 -0.19569331108E+03  0.48167080987E+03  0.94765672397E+02 0.  0.
          2    1    3    3  502    0  0.14506550143E+02 -0.41151625607E+02  0.14870281047E+02  0.46097955980E+02  0.00000000000E+00 0. -1.
         -1    1    3    3    0  502 -0.95300909154E+02 -0.22467035981E+03  0.16056201925E+03  0.29212873171E+03  0.00000000000E+00 0.  1.
         11    1    5    5    0    0 -0.82700350001E+02  0.38651637174E+02 -0.91678591134E+02  0.12937643147E+03  0.00000000000E+00 0.  1.
        -11    1    5    5    0    0 -0.26004730357E+03  0.30026294699E+03 -0.28203045965E+03  0.48715871911E+03  0.00000000000E+00 0. -1.
          4    1    6    6  503    0  0.39850990788E+02  0.16538242377E+02 -0.35364437739E+01  0.43291123365E+02  0.00000000000E+00 0. -1.
         -4    1    6    6    0  503  0.38369102180E+03 -0.89630841124E+02 -0.19215686731E+03  0.43837968651E+03  0.00000000000E+00 0.  1.
<mgrwt>
<rscale>  0 0.13813495E+04</rscale>
<asrwt>0</asrwt>
<pdfrwt beam="1">  1        2 0.14080021E+00 0.13813495E+04</pdfrwt>
<pdfrwt beam="2">  1       -1 0.80189430E-01 0.13813495E+04</pdfrwt>
<totfact> 0.49449989E+01</totfact>
</mgrwt>
</event>
<event>
12    6  0.1494052E-007  0.2883810E+04  0.7818608E-02  0.8277711E-01
          2   -1    0    0  501    0  0.00000000000E+00  0.00000000000E+00  0.30703378931E+04  0.30703378931E+04  0.00000000000E+00 0. -1.
         -1   -1    0    0    0  501 -0.00000000000E+00 -0.00000000000E+00 -0.67715332358E+03  0.67715332358E+03  0.00000000000E+00 0.  1.
         24    2    1    2    0    0 -0.58143492183E+03 -0.47353260275E+03  0.24776083028E+04  0.25898084881E+04  0.79154336638E+02 0.  0.
        254    2    1    2    0    0  0.58143492183E+03  0.47353260275E+03 -0.84423733211E+02  0.11576827286E+04  0.87795343793E+03 0.  0.
         23    2    4    4    0    0  0.49372651497E+03 -0.11013163987E+03 -0.19603782537E+03  0.55029520934E+03  0.92190773733E+02 0.  0.
         23    2    4    4    0    0  0.87708406858E+02  0.58366424262E+03  0.11161409216E+03  0.60738751926E+03  0.90028774508E+02 0.  0.
          2    1    3    3  502    0 -0.46384747092E+03 -0.39215263639E+03  0.20980543004E+04  0.21842092423E+04  0.00000000000E+00 0. -1.
         -1    1    3    3    0  502 -0.11758745091E+03 -0.81379966358E+02  0.37955400233E+03  0.40559924583E+03  0.00000000000E+00 0.  1.
         11    1    5    5    0    0  0.43203572695E+03 -0.11925026682E+03 -0.14944424991E+03  0.47245008131E+03  0.00000000000E+00 0. -1.
        -11    1    5    5    0    0  0.61690788019E+02  0.91186269518E+01 -0.46593575456E+02  0.77845128028E+02  0.00000000000E+00 0.  1.
          3    1    6    6  503    0  0.10243151077E+03  0.48524713914E+03  0.76193634567E+02  0.50175937499E+03  0.00000000000E+00 0. -1.
         -3    1    6    6    0  503 -0.14723103910E+02  0.98417103475E+02  0.35420457592E+02  0.10562814427E+03  0.00000000000E+00 0.  1.
<mgrwt>
<rscale>  0 0.28838096E+04</rscale>
<asrwt>0</asrwt>
<pdfrwt beam="1">  1        2 0.47235967E+00 0.28838096E+04</pdfrwt>
<pdfrwt beam="2">  1       -1 0.10417744E+00 0.28838096E+04</pdfrwt>
<totfact> 0.13378057E+00</totfact>
</mgrwt>
</event>
<event>
12    6  0.1494052E-007  0.1042261E+04  0.7818608E-02  0.9263370E-01
         -1   -1    0    0    0  501 -0.00000000000E+00  0.00000000000E+00  0.12716501638E+03  0.12716501638E+03  0.00000000000E+00 0.  1.
          2   -1    0    0  501    0  0.00000000000E+00 -0.00000000000E+00 -0.21356284178E+04  0.21356284178E+04  0.00000000000E+00 0. -1.
         24    2    1    2    0    0  0.63407989087E+02  0.92983927598E+02 -0.22869819449E+03  0.26707670065E+03  0.79752843152E+02 0.  0.
        254    2    1    2    0    0 -0.63407989087E+02 -0.92983927598E+02 -0.17797652069E+04  0.19957167335E+04  0.89590987540E+03 0.  0.
         23    2    4    4    0    0 -0.23299494215E+03 -0.15119538203E+03 -0.10774030984E+03  0.31153817738E+03  0.91111881693E+02 0.  0.
         23    2    4    4    0    0  0.16958695306E+03  0.58211454431E+02 -0.16720248970E+04  0.16841785561E+04  0.92961521437E+02 0.  0.
          4    1    3    3  502    0  0.37538834514E+02  0.88173117222E+02 -0.21897220904E+03  0.23902403860E+03  0.00000000000E+00 0. -1.
         -3    1    3    3    0  502  0.25869154574E+02  0.48108103767E+01 -0.97259854579E+01  0.28052662048E+02  0.00000000000E+00 0.  1.
         11    1    5    5    0    0 -0.91049565374E+02 -0.16859317684E+02 -0.10326759891E+02  0.93171357817E+02  0.00000000000E+00 0.  1.
        -11    1    5    5    0    0 -0.14194537677E+03 -0.13433606435E+03 -0.97413549949E+02  0.21836681956E+03  0.00000000000E+00 0. -1.
          1    1    6    6  503    0  0.22323213769E+02  0.47886855757E+02 -0.35592454147E+03  0.35982461846E+03  0.00000000000E+00 0. -1.
         -1    1    6    6    0  503  0.14726373929E+03  0.10324598673E+02 -0.13161003556E+04  0.13243539376E+04  0.00000000000E+00 0.  1.
<mgrwt>
<rscale>  0 0.10422614E+04</rscale>
<asrwt>0</asrwt>
<pdfrwt beam="1">  1        2 0.32855825E+00 0.10422614E+04</pdfrwt>
<pdfrwt beam="2">  1       -1 0.19563847E-01 0.10422614E+04</pdfrwt>
<totfact> 0.13579124E+02</totfact>
</mgrwt>
</event>
<event>
12    6  0.1494052E-007  0.2081339E+04  0.7818608E-02  0.8569509E-01
          2   -1    0    0  501    0  0.00000000000E+00  0.00000000000E+00  0.93126435498E+03  0.93126435498E+03  0.00000000000E+00 0. -1.
         -1   -1    0    0    0  501 -0.00000000000E+00 -0.00000000000E+00 -0.11629270865E+04  0.11629270865E+04  0.00000000000E+00 0.  1.
         24    2    1    2    0    0 -0.66366753652E+03 -0.41245367572E+03 -0.42281642894E+03  0.89196439703E+03  0.79082990228E+02 0.  0.
        254    2    1    2    0    0  0.66366753652E+03  0.41245367572E+03  0.19115369738E+03  0.12022270445E+04  0.89344137851E+03 0.  0.
         23    2    4    4    0    0  0.16675514109E+03  0.46419639576E+03  0.41232372425E+03  0.64957658168E+03  0.93023174359E+02 0.  0.
         23    2    4    4    0    0  0.49691239543E+03 -0.51742720040E+02 -0.22117002688E+03  0.55265046281E+03  0.83109057562E+02 0.  0.
          4    1    3    3  502    0 -0.59931244315E+03 -0.38124929327E+03 -0.35789097438E+03  0.79536933414E+03  0.00000000000E+00 0. -1.
         -3    1    3    3    0  502 -0.64355093372E+02 -0.31204382445E+02 -0.64925454558E+02  0.96595062898E+02  0.00000000000E+00 0.  1.
         11    1    5    5    0    0  0.15004793959E+03  0.36530537906E+03  0.36844462416E+03  0.54010540195E+03  0.00000000000E+00 0.  1.
        -11    1    5    5    0    0  0.16707201504E+02  0.98891016701E+02  0.43879100092E+02  0.10947117973E+03  0.00000000000E+00 0. -1.
          2    1    6    6  503    0  0.71822212166E+02 -0.10835017377E+02 -0.20536723416E+01  0.72663920428E+02  0.00000000000E+00 0. -1.
         -2    1    6    6    0  503  0.42509018326E+03 -0.40907702663E+02 -0.21911635454E+03  0.47998654238E+03  0.00000000000E+00 0.  1.
<mgrwt>
<rscale>  0 0.20813386E+04</rscale>
<asrwt>0</asrwt>
<pdfrwt beam="1">  1        2 0.14327144E+00 0.20813386E+04</pdfrwt>
<pdfrwt beam="2">  1       -1 0.17891186E+00 0.20813386E+04</pdfrwt>
<totfact> 0.62328666E+00</totfact>
</mgrwt>
</event>
<event>
12    6  0.1494052E-007  0.2157899E+04  0.7818608E-02  0.8536158E-01
          2   -1    0    0  501    0  0.00000000000E+00  0.00000000000E+00  0.11294857937E+04  0.11294857937E+04  0.00000000000E+00 0. -1.
         -1   -1    0    0    0  501 -0.00000000000E+00 -0.00000000000E+00 -0.10306747817E+04  0.10306747817E+04  0.00000000000E+00 0.  1.
         24    2    1    2    0    0 -0.45551678404E+03 -0.18148844508E+03  0.78136100991E+03  0.92587511853E+03  0.79284998949E+02 0.  0.
        254    2    1    2    0    0  0.45551678404E+03  0.18148844508E+03 -0.68254999788E+03  0.12342854569E+04  0.90396487389E+03 0.  0.
         23    2    4    4    0    0  0.32399731339E+03 -0.10199640897E+02 -0.86265075114E+03  0.92635724795E+03  0.94303449698E+02 0.  0.
         23    2    4    4    0    0  0.13151947065E+03  0.19168808597E+03  0.18010075325E+03  0.30792820893E+03  0.91333493690E+02 0.  0.
          2    1    3    3  502    0 -0.23752797612E+03 -0.12378917820E+03  0.47735683027E+03  0.54736901948E+03  0.00000000000E+00 0. -1.
         -1    1    3    3    0  502 -0.21798880793E+03 -0.57699266874E+02  0.30400417964E+03  0.37850609905E+03  0.00000000000E+00 0.  1.
         11    1    5    5    0    0  0.85719072032E+01 -0.18918115314E+02 -0.75788075513E+02  0.78582473046E+02  0.00000000000E+00 0. -1.
        -11    1    5    5    0    0  0.31542540619E+03  0.87184744174E+01 -0.78686267563E+03  0.84777477490E+03  0.00000000000E+00 0.  1.
          4    1    6    6  503    0  0.14062247737E+02  0.83208716501E+02  0.32824352901E+02  0.90547641916E+02  0.00000000000E+00 0. -1.
         -4    1    6    6    0  503  0.11745722291E+03  0.10847936947E+03  0.14727640035E+03  0.21738056702E+03  0.00000000000E+00 0.  1.
<mgrwt>
<rscale>  0 0.21578995E+04</rscale>
<asrwt>0</asrwt>
<pdfrwt beam="1">  1        2 0.17376705E+00 0.21578995E+04</pdfrwt>
<pdfrwt beam="2">  1       -1 0.15856535E+00 0.21578995E+04</pdfrwt>
<totfact> 0.65488744E+00</totfact>
</mgrwt>
</event>
<event>
12    6  0.1494052E-007  0.1334145E+04  0.7818608E-02  0.9002918E-01
         -1   -1    0    0    0  501 -0.00000000000E+00  0.00000000000E+00  0.18397703007E+04  0.18397703007E+04  0.00000000000E+00 0.  1.
          2   -1    0    0  501    0  0.00000000000E+00 -0.00000000000E+00 -0.24187029563E+03  0.24187029563E+03  0.00000000000E+00 0. -1.
         24    2    1    2    0    0 -0.24871733630E+03 -0.23421679380E+03  0.56488489889E+03  0.66483654478E+03  0.78707448268E+02 0.  0.
        254    2    1    2    0    0  0.24871733630E+03  0.23421679380E+03  0.10330151062E+04  0.14168040516E+04  0.90746663356E+03 0.  0.
         23    2    4    4    0    0 -0.16984074756E+03  0.14272765878E+03  0.93845065951E+03  0.96880677564E+03  0.93165788172E+02 0.  0.
         23    2    4    4    0    0  0.41855808386E+03  0.91489135021E+02  0.94564446697E+02  0.44799727593E+03  0.90542770387E+02 0.  0.
          4    1    3    3  502    0 -0.13383304015E+03 -0.13679102564E+03  0.38707648135E+03  0.43180003444E+03  0.00000000000E+00 0. -1.
         -3    1    3    3    0  502 -0.11488429616E+03 -0.97425768154E+02  0.17780841754E+03  0.23303651034E+03  0.00000000000E+00 0.  1.
         11    1    5    5    0    0 -0.55135260784E+02  0.92239056371E+02  0.31328462557E+03  0.33120265264E+03  0.00000000000E+00 0.  1.
        -11    1    5    5    0    0 -0.11470548677E+03  0.50488602406E+02  0.62516603394E+03  0.63760412300E+03  0.00000000000E+00 0. -1.
          2    1    6    6  503    0  0.17472159940E+03 -0.62623899349E+01  0.46806391710E+02  0.18099086477E+03  0.00000000000E+00 0.  1.
         -2    1    6    6    0  503  0.24383648446E+03  0.97751524956E+02  0.47758054987E+02  0.26700641116E+03  0.00000000000E+00 0. -1.
<mgrwt>
<rscale>  0 0.13341451E+04</rscale>
<asrwt>0</asrwt>
<pdfrwt beam="1">  1        2 0.37210816E-01 0.13341451E+04</pdfrwt>
<pdfrwt beam="2">  1       -1 0.28304158E+00 0.13341451E+04</pdfrwt>
<totfact> 0.66802211E+00</totfact>
</mgrwt>
</event>
<event>
12    6  0.1494052E-007  0.1406981E+04  0.7818608E-02  0.8948781E-01
          2   -1    0    0  501    0  0.00000000000E+00  0.00000000000E+00  0.95034440401E+03  0.95034440401E+03  0.00000000000E+00 0. -1.
         -1   -1    0    0    0  501 -0.00000000000E+00 -0.00000000000E+00 -0.52075720895E+03  0.52075720895E+03  0.00000000000E+00 0.  1.
         24    2    1    2    0    0 -0.87939219600E+01 -0.38755492128E+03 -0.13297895747E+02  0.39604570388E+03  0.79995096461E+02 0.  0.
        254    2    1    2    0    0  0.87939219600E+01  0.38755492128E+03  0.44288509081E+03  0.10750559091E+04  0.89962317328E+03 0.  0.
         23    2    4    4    0    0  0.22489042066E+03  0.20520572641E+03  0.64303518719E+03  0.71687831165E+03  0.87949816928E+02 0.  0.
         23    2    4    4    0    0 -0.21609649870E+03  0.18234919488E+03 -0.20015009638E+03  0.35817759742E+03  0.91006618379E+02 0.  0.
          4    1    3    3  502    0 -0.35638798516E+01 -0.54795917006E+02  0.26323836967E+02  0.60895304850E+02  0.00000000000E+00 0. -1.
         -3    1    3    3    0  502 -0.52300421083E+01 -0.33275900427E+03 -0.39621732714E+02  0.33515039903E+03  0.00000000000E+00 0.  1.
         11    1    5    5    0    0  0.10827077352E+03  0.12747696560E+03  0.43493887599E+03  0.46598794299E+03  0.00000000000E+00 0. -1.
        -11    1    5    5    0    0  0.11661964715E+03  0.77728760806E+02  0.20809631120E+03  0.25089036867E+03  0.00000000000E+00 0.  1.
          1    1    6    6  503    0 -0.14036728854E+03  0.60728154706E+02 -0.11665859684E+03  0.19235413352E+03  0.00000000000E+00 0. -1.
         -1    1    6    6    0  503 -0.75729210165E+02  0.12162104017E+03 -0.83491499543E+02  0.16582346390E+03  0.00000000000E+00 0.  1.
<mgrwt>
<rscale>  0 0.14069807E+04</rscale>
<asrwt>0</asrwt>
<pdfrwt beam="1">  1        2 0.14620683E+00 0.14069807E+04</pdfrwt>
<pdfrwt beam="2">  1       -1 0.80116494E-01 0.14069807E+04</pdfrwt>
<totfact> 0.46855433E+01</totfact>
</mgrwt>
</event>
<event>
12    6  0.1494052E-007  0.1728888E+04  0.7818608E-02  0.8745058E-01
          2   -1    0    0  501    0  0.00000000000E+00  0.00000000000E+00  0.11599614246E+04  0.11599614246E+04  0.00000000000E+00 0. -1.
         -1   -1    0    0    0  501 -0.00000000000E+00 -0.00000000000E+00 -0.64421369582E+03  0.64421369582E+03  0.00000000000E+00 0.  1.
         24    2    1    2    0    0 -0.57090396203E+03  0.22106540175E+03  0.32926457970E+03  0.69991930012E+03  0.81673848444E+02 0.  0.
        254    2    1    2    0    0  0.57090396203E+03 -0.22106540175E+03  0.18648314906E+03  0.11042558203E+04  0.89989094119E+03 0.  0.
         23    2    4    4    0    0  0.33216614063E+03 -0.43267705517E+03  0.42404671741E+03  0.69629641805E+03  0.86425136351E+02 0.  0.
         23    2    4    4    0    0  0.23873782140E+03  0.21161165342E+03 -0.23756356836E+03  0.40795940223E+03  0.90659724369E+02 0.  0.
          2    1    3    3  502    0 -0.51581294005E+03  0.22331936675E+03  0.30700839757E+03  0.64045974492E+03  0.00000000000E+00 0. -1.
         -1    1    3    3    0  502 -0.55091021983E+02 -0.22539649971E+01  0.22256182133E+02  0.59459555199E+02  0.00000000000E+00 0.  1.
         11    1    5    5    0    0  0.16241891889E+03 -0.27831591218E+03  0.23160642297E+03  0.39683899424E+03  0.00000000000E+00 0.  1.
        -11    1    5    5    0    0  0.16974722174E+03 -0.15436114299E+03  0.19244029444E+03  0.29945742382E+03  0.00000000000E+00 0. -1.
          3    1    6    6  503    0  0.44602569818E+02  0.93117754185E+02 -0.60017293072E+02  0.11942521026E+03  0.00000000000E+00 0. -1.
         -3    1    6    6    0  503  0.19413525159E+03  0.11849389924E+03 -0.17754627528E+03  0.28853419196E+03  0.00000000000E+00 0.  1.
<mgrwt>
<rscale>  0 0.17288875E+04</rscale>
<asrwt>0</asrwt>
<pdfrwt beam="1">  1        2 0.17845560E+00 0.17288875E+04</pdfrwt>
<pdfrwt beam="2">  1       -1 0.99109799E-01 0.17288875E+04</pdfrwt>
<totfact> 0.21090684E+01</totfact>
</mgrwt>
</event>
<event>
12    6  0.1494052E-007  0.1956101E+04  0.7818608E-02  0.8627425E-01
         -1   -1    0    0    0  501 -0.00000000000E+00  0.00000000000E+00  0.59578135794E+03  0.59578135794E+03  0.00000000000E+00 0.  1.
          2   -1    0    0  501    0  0.00000000000E+00 -0.00000000000E+00 -0.16055933326E+04  0.16055933326E+04  0.00000000000E+00 0. -1.
         24    2    1    2    0    0  0.63839527146E+03 -0.37626432440E+03 -0.12536377711E+03  0.75574470029E+03  0.79439354053E+02 0.  0.
        254    2    1    2    0    0 -0.63839527146E+03  0.37626432440E+03 -0.88444819751E+03  0.14456299902E+04  0.87090417963E+03 0.  0.
         23    2    4    4    0    0 -0.14484971305E+01  0.45081135540E+03 -0.54676543147E+03  0.71451948728E+03  0.91393021354E+02 0.  0.
         23    2    4    4    0    0 -0.63694677432E+03 -0.74547031003E+02 -0.33768276604E+03  0.73111050293E+03  0.96096117814E+02 0.  0.
          2    1    3    3  502    0  0.18454294893E+03 -0.10677795886E+03  0.10040657020E+00  0.21320797963E+03  0.00000000000E+00 0. -1.
         -1    1    3    3    0  502  0.45385232253E+03 -0.26948636554E+03 -0.12546418368E+03  0.54253672066E+03  0.00000000000E+00 0.  1.
         11    1    5    5    0    0  0.29612651032E+02  0.39325332643E+03 -0.46119836551E+03  0.60681877047E+03  0.00000000000E+00 0. -1.
        -11    1    5    5    0    0 -0.31061148163E+02  0.57558028978E+02 -0.85567065961E+02  0.10770071681E+03  0.00000000000E+00 0.  1.
          4    1    6    6  503    0 -0.37741139929E+03 -0.11936728576E+02 -0.23678320112E+03  0.44569960078E+03  0.00000000000E+00 0. -1.
         -4    1    6    6    0  503 -0.25953537504E+03 -0.62610302426E+02 -0.10089956492E+03  0.28541090215E+03  0.00000000000E+00 0.  1.
<mgrwt>
<rscale>  0 0.19561008E+04</rscale>
<asrwt>0</asrwt>
<pdfrwt beam="1">  1        2 0.24701436E+00 0.19561008E+04</pdfrwt>
<pdfrwt beam="2">  1       -1 0.91658670E-01 0.19561008E+04</pdfrwt>
<totfact> 0.13640955E+01</totfact>
</mgrwt>
</event>
<event>
12    6  0.1494052E-007  0.1716761E+04  0.7818608E-02  0.8751862E-01
         -1   -1    0    0    0  501 -0.00000000000E+00  0.00000000000E+00  0.53831716619E+03  0.53831716619E+03  0.00000000000E+00 0.  1.
          2   -1    0    0  501    0  0.00000000000E+00 -0.00000000000E+00 -0.13687419037E+04  0.13687419037E+04  0.00000000000E+00 0. -1.
         24    2    1    2    0    0 -0.58432517449E+03  0.11824228506E+03 -0.18649302588E+03  0.62957961988E+03  0.78572905917E+02 0.  0.
        254    2    1    2    0    0  0.58432517449E+03 -0.11824228506E+03 -0.64393171165E+03  0.12774794500E+04  0.92837952824E+03 0.  0.
         23    2    4    4    0    0 -0.23807419689E+03 -0.68770024724E+02 -0.23420407154E+03  0.35287973502E+03  0.90906109469E+02 0.  0.
         23    2    4    4    0    0  0.82239937138E+03 -0.49472260339E+02 -0.40972764011E+03  0.92459971500E+03  0.90662358912E+02 0.  0.
          2    1    3    3  502    0 -0.20413238512E+03  0.23103269463E+02 -0.98864759330E+02  0.22798691268E+03  0.00000000000E+00 0. -1.
         -1    1    3    3    0  502 -0.38019278937E+03  0.95139015599E+02 -0.87628266545E+02  0.40159270720E+03  0.00000000000E+00 0.  1.
         11    1    5    5    0    0 -0.19237770600E+03 -0.16713419819E+02 -0.15465902243E+03  0.24740237142E+03  0.00000000000E+00 0. -1.
        -11    1    5    5    0    0 -0.45696490895E+02 -0.52056604905E+02 -0.79545049114E+02  0.10547736360E+03  0.00000000000E+00 0.  1.
          1    1    6    6  503    0  0.13712536612E+03 -0.34616308739E+02 -0.46530501026E+02  0.14888499720E+03  0.00000000000E+00 0. -1.
         -1    1    6    6    0  503  0.68527400526E+03 -0.14855951599E+02 -0.36319713908E+03  0.77571471780E+03  0.00000000000E+00 0.  1.
<mgrwt>
<rscale>  0 0.17167612E+04</rscale>
<asrwt>0</asrwt>
<pdfrwt beam="1">  1        2 0.21057567E+00 0.17167612E+04</pdfrwt>
<pdfrwt beam="2">  1       -1 0.82818027E-01 0.17167612E+04</pdfrwt>
<totfact> 0.23660442E+01</totfact>
</mgrwt>
</event>
<event>
12    6  0.1494052E-007  0.2801074E+04  0.7818608E-02  0.8302935E-01
          2   -1    0    0  501    0  0.00000000000E+00  0.00000000000E+00  0.12359725126E+04  0.12359725126E+04  0.00000000000E+00 0. -1.
         -1   -1    0    0    0  501 -0.00000000000E+00 -0.00000000000E+00 -0.15870127353E+04  0.15870127353E+04  0.00000000000E+00 0.  1.
         24    2    1    2    0    0  0.28324646272E+03  0.32052551637E+02 -0.13912321423E+04  0.14223957023E+04  0.80166922294E+02 0.  0.
        254    2    1    2    0    0 -0.28324646272E+03 -0.32052551637E+02  0.10401919196E+04  0.14005895457E+04  0.89353003369E+03 0.  0.
         23    2    4    4    0    0 -0.11918116184E+03  0.42093702231E+03  0.47908638166E+03  0.65521968657E+03  0.91634875871E+02 0.  0.
         23    2    4    4    0    0 -0.16406530088E+03 -0.45298957395E+03  0.56110553792E+03  0.74536985908E+03  0.92843013117E+02 0.  0.
          2    1    3    3  502    0  0.74330129553E+02 -0.24991008369E+02 -0.31743395575E+03  0.32697681099E+03  0.00000000000E+00 0. -1.
         -1    1    3    3    0  502  0.20891633317E+03  0.57043560006E+02 -0.10737981866E+04  0.10954188913E+04  0.00000000000E+00 0.  1.
         11    1    5    5    0    0 -0.40369982544E+01  0.24628922999E+02  0.29659262443E+01  0.25133203566E+02  0.00000000000E+00 0. -1.
        -11    1    5    5    0    0 -0.11514416359E+03  0.39630809931E+03  0.47612045542E+03  0.63008648300E+03  0.00000000000E+00 0.  1.
          2    1    6    6  503    0 -0.17209356185E+03 -0.41904958072E+03  0.49763474220E+03  0.67294805280E+03  0.00000000000E+00 0.  1.
         -2    1    6    6    0  503  0.80282609752E+01 -0.33939993232E+02  0.63470795727E+02  0.72421806281E+02  0.00000000000E+00 0. -1.
<mgrwt>
<rscale>  0 0.28010742E+04</rscale>
<asrwt>0</asrwt>
<pdfrwt beam="1">  1        2 0.19014962E+00 0.28010742E+04</pdfrwt>
<pdfrwt beam="2">  1       -1 0.24415581E+00 0.28010742E+04</pdfrwt>
<totfact> 0.13607369E+00</totfact>
</mgrwt>
</event>
